<event>
12    1  0.1663913E-007  0.1570503E+04  0.7818608E-02  0.8838877E-01
          2   -1    0    0  501    0  0.00000000000E+00  0.00000000000E+00  0.12219537594E+04  0.12219537594E+04  0.00000000000E+00 0. -1.
         -2   -1    0    0    0  501 -0.00000000000E+00 -0.00000000000E+00 -0.50461804713E+03  0.50461804713E+03  0.00000000000E+00 0.  1.
         23    2    1    2    0    0 -0.28883783741E+03  0.38330286354E+03  0.15497884741E+02  0.48939370114E+03  0.94433197376E+02 0.  0.
        254    2    1    2    0    0  0.28883783741E+03 -0.38330286354E+03  0.70183782756E+03  0.12371781054E+04  0.89871293906E+03 0.  0.
        -24    2    4    4    0    0  0.66584620533E+02 -0.63642947071E+03  0.31495206202E+03  0.71834239731E+03  0.85703065968E+02 0.  0.
         24    2    4    4    0    0  0.22225321688E+03  0.25312660717E+03  0.38688576554E+03  0.51883570812E+03  0.77719526310E+02 0.  0.
         11    1    3    3    0    0 -0.10394146634E+03  0.72619537768E+02 -0.83280527086E+01  0.12706998919E+03  0.00000000000E+00 0. -1.
        -11    1    3    3    0    0 -0.18489637107E+03  0.31068332577E+03  0.23825937450E+02  0.36232371195E+03  0.00000000000E+00 0.  1.
          4    1    6    6  502    0  0.79756210249E+02  0.14104168587E+03  0.15242558988E+03  0.22245757051E+03  0.00000000000E+00 0. -1.
          1    1    5    5  503    0 -0.43858426015E+01 -0.30192871439E+03  0.12167884143E+03  0.32555479514E+03  0.00000000000E+00 0. -1.
         -2    1    5    5    0  503  0.70970463134E+02 -0.33450075632E+03  0.19327322059E+03  0.39278760217E+03  0.00000000000E+00 0.  1.
         -3    1    6    6    0  502  0.14249700663E+03  0.11208492130E+03  0.23446017566E+03  0.29637813761E+03  0.00000000000E+00 0.  1.
<mgrwt>
<rscale>  0 0.15705030E+04</rscale>
<asrwt>0</asrwt>
<pdfrwt beam="1">  1        2 0.18799289E+00 0.15705030E+04</pdfrwt>
<pdfrwt beam="2">  1       -2 0.77633546E-01 0.15705030E+04</pdfrwt>
<totfact> 0.26119739E+01</totfact>
</mgrwt>
</event>
<event>
12    1  0.1663913E-007  0.1196959E+04  0.7818608E-02  0.9115523E-01
          2   -1    0    0  501    0  0.00000000000E+00  0.00000000000E+00  0.11776997817E+04  0.11776997817E+04  0.00000000000E+00 0. -1.
         -2   -1    0    0    0  501 -0.00000000000E+00 -0.00000000000E+00 -0.30413314829E+03  0.30413314829E+03  0.00000000000E+00 0.  1.
         23    2    1    2    0    0 -0.21630379129E+02  0.98388574820E+02 -0.84133876564E+02  0.16088413152E+03  0.93043052580E+02 0.  0.
        254    2    1    2    0    0  0.21630379129E+02 -0.98388574820E+02  0.95770050999E+03  0.13209487985E+04  0.90419426918E+03 0.  0.
        -24    2    4    4    0    0 -0.13293278663E+03 -0.65676099907E+02  0.10885391176E+04  0.11012217675E+04  0.76075585007E+02 0.  0.
         24    2    4    4    0    0  0.15456316576E+03 -0.32712474912E+02 -0.13083860766E+03  0.21972703101E+03  0.78748642397E+02 0.  0.
         13    1    3    3    0    0 -0.14968116332E+02  0.37602558950E+02  0.16028616191E+02  0.43530603983E+02  0.00000000000E+00 0. -1.
        -13    1    3    3    0    0 -0.66622627972E+01  0.60786015869E+02 -0.10016249275E+03  0.11735352754E+03  0.00000000000E+00 0.  1.
          4    1    6    6  502    0  0.16337997631E+02  0.20808348607E+01  0.10064236816E+02  0.19301525924E+02  0.00000000000E+00 0. -1.
          1    1    5    5  503    0 -0.92211228651E+01 -0.28731230156E+02  0.10517041780E+03  0.10941357079E+03  0.00000000000E+00 0. -1.
         -2    1    5    5    0  503 -0.12371166376E+03 -0.36944869751E+02  0.98336869985E+03  0.99180819667E+03  0.00000000000E+00 0.  1.
         -3    1    6    6    0  502  0.13822516813E+03 -0.34793309773E+02 -0.14090284448E+03  0.20042550509E+03  0.00000000000E+00 0.  1.
<mgrwt>
<rscale>  0 0.11969587E+04</rscale>
<asrwt>0</asrwt>
<pdfrwt beam="1">  1        2 0.18118458E+00 0.11969587E+04</pdfrwt>
<pdfrwt beam="2">  1       -2 0.46789716E-01 0.11969587E+04</pdfrwt>
<totfact> 0.83445201E+01</totfact>
</mgrwt>
</event>
<event>
12    1  0.1663913E-007  0.1676602E+04  0.7818608E-02  0.8774823E-01
         -4   -1    0    0    0  501 -0.00000000000E+00  0.00000000000E+00  0.15703357268E+04  0.15703357268E+04  0.00000000000E+00 0.  1.
          4   -1    0    0  501    0  0.00000000000E+00 -0.00000000000E+00 -0.44751480447E+03  0.44751480447E+03  0.00000000000E+00 0. -1.
         23    2    1    2    0    0  0.40484517812E+03 -0.13071227308E+03  0.89106134944E+03  0.99190244986E+03  0.94312379906E+02 0.  0.
        254    2    1    2    0    0 -0.40484517812E+03  0.13071227308E+03  0.23175957289E+03  0.10259480814E+04  0.90436256532E+03 0.  0.
        -24    2    4    4    0    0 -0.13513911770E+03  0.17010431964E+03  0.55152540464E+03  0.59821365732E+03  0.80506193253E+02 0.  0.
         24    2    4    4    0    0 -0.26970606041E+03 -0.39392046552E+02 -0.31976583175E+03  0.42773442410E+03  0.80084068629E+02 0.  0.
         11    1    3    3    0    0  0.36504693160E+02  0.13603347391E+02  0.60812636559E+02  0.72220637273E+02  0.00000000000E+00 0. -1.
        -11    1    3    3    0    0  0.36834048496E+03 -0.14431562048E+03  0.83024871288E+03  0.91968181259E+03  0.00000000000E+00 0.  1.
          4    1    6    6  502    0 -0.24659370630E+02  0.21523906110E+01 -0.27530271302E+01  0.24905752420E+02  0.00000000000E+00 0. -1.
          1    1    5    5  503    0 -0.70026878604E+02  0.86906117335E+02  0.17853562798E+03  0.21055024915E+03  0.00000000000E+00 0. -1.
         -2    1    5    5    0  503 -0.65112239097E+02  0.83198202302E+02  0.37298977666E+03  0.38766340817E+03  0.00000000000E+00 0.  1.
         -3    1    6    6    0  502 -0.24504668978E+03 -0.41544437163E+02 -0.31701280462E+03  0.40282867168E+03  0.00000000000E+00 0.  1.
<mgrwt>
<rscale>  0 0.16766019E+04</rscale>
<asrwt>0</asrwt>
<pdfrwt beam="1">  1        4 0.68848432E-01 0.16766019E+04</pdfrwt>
<pdfrwt beam="2">  1       -4 0.24159011E+00 0.16766019E+04</pdfrwt>
<totfact> 0.26425735E-01</totfact>
</mgrwt>
</event>
<event>
12    1  0.1663913E-007  0.3520393E+04  0.7818608E-02  0.8108974E-01
          1   -1    0    0  501    0  0.00000000000E+00  0.00000000000E+00  0.18341076473E+04  0.18341076473E+04  0.00000000000E+00 0. -1.
         -1   -1    0    0    0  501 -0.00000000000E+00 -0.00000000000E+00 -0.16892640871E+04  0.16892640871E+04  0.00000000000E+00 0.  1.
         23    2    1    2    0    0  0.42823443405E+03 -0.43819010427E+03 -0.14574389760E+04  0.15835726133E+04  0.90435363181E+02 0.  0.
        254    2    1    2    0    0 -0.42823443405E+03  0.43819010427E+03  0.16022825361E+04  0.19397991211E+04  0.90560256561E+03 0.  0.
        -24    2    4    4    0    0 -0.14925095265E+03  0.58794672547E+03  0.50016272317E+03  0.79026569911E+03  0.79999541847E+02 0.  0.
         24    2    4    4    0    0 -0.27898348140E+03 -0.14975662120E+03  0.11021198129E+04  0.11495334220E+04  0.80623680027E+02 0.  0.
         13    1    3    3    0    0  0.25588085553E+03 -0.24804921733E+03 -0.73346506925E+03  0.81545964600E+03  0.00000000000E+00 0.  1.
        -13    1    3    3    0    0  0.17235357852E+03 -0.19014088694E+03 -0.72397390670E+03  0.76811296728E+03  0.00000000000E+00 0. -1.
          2    1    6    6  502    0 -0.66099962280E+02 -0.76744818147E+02  0.31633907916E+03  0.33215867463E+03  0.00000000000E+00 0. -1.
          3    1    5    5  503    0  0.89187813867E+01  0.15455604754E+02  0.16559510385E+02  0.24344152561E+02  0.00000000000E+00 0. -1.
         -4    1    5    5    0  503 -0.15816973404E+03  0.57249112071E+03  0.48360321278E+03  0.76592154655E+03  0.00000000000E+00 0.  1.
         -1    1    6    6    0  502 -0.21288351912E+03 -0.73011803048E+02  0.78578073376E+03  0.81737474737E+03  0.00000000000E+00 0.  1.
<mgrwt>
<rscale>  0 0.35203933E+04</rscale>
<asrwt>0</asrwt>
<pdfrwt beam="1">  1        1 0.28217041E+00 0.35203933E+04</pdfrwt>
<pdfrwt beam="2">  1       -1 0.25988678E+00 0.35203933E+04</pdfrwt>
<totfact> 0.18906838E-01</totfact>
</mgrwt>
</event>
<event>
12    1  0.1663913E-007  0.1620878E+04  0.7818608E-02  0.8807823E-01
         -2   -1    0    0    0  501 -0.00000000000E+00  0.00000000000E+00  0.11566412471E+04  0.11566412471E+04  0.00000000000E+00 0.  1.
          2   -1    0    0  501    0  0.00000000000E+00 -0.00000000000E+00 -0.56786115472E+03  0.56786115472E+03  0.00000000000E+00 0. -1.
         23    2    1    2    0    0  0.19291099210E+03  0.15227418726E+03 -0.32470578382E+03  0.41692846764E+03  0.89405939943E+02 0.  0.
        254    2    1    2    0    0 -0.19291099210E+03 -0.15227418726E+03  0.91348587615E+03  0.13075739341E+04  0.90271317058E+03 0.  0.
        -24    2    4    4    0    0 -0.41156073303E+03  0.20604726348E+03  0.66798315779E+03  0.81469103857E+03  0.75380882749E+02 0.  0.
         24    2    4    4    0    0  0.21864974093E+03 -0.35832145074E+03  0.24550271837E+03  0.49288289557E+03  0.80374080074E+02 0.  0.
         11    1    3    3    0    0  0.52089430747E+02  0.85764333049E+02 -0.17003339289E+03  0.19743399990E+03  0.00000000000E+00 0. -1.
        -11    1    3    3    0    0  0.14082156135E+03  0.66509854211E+02 -0.15467239093E+03  0.21949446773E+03  0.00000000000E+00 0.  1.
          2    1    6    6  502    0  0.70327476049E+02 -0.71087385591E+02  0.88364772127E+02  0.13344550660E+03  0.00000000000E+00 0. -1.
          3    1    5    5  503    0 -0.69884118882E+02  0.90321703199E+01  0.12637921169E+03  0.14469649380E+03  0.00000000000E+00 0. -1.
         -4    1    5    5    0  503 -0.34167661414E+03  0.19701509316E+03  0.54160394610E+03  0.66999454477E+03  0.00000000000E+00 0.  1.
         -1    1    6    6    0  502  0.14832226488E+03 -0.28723406515E+03  0.15713794624E+03  0.35943738897E+03  0.00000000000E+00 0.  1.
<mgrwt>
<rscale>  0 0.16208783E+04</rscale>
<asrwt>0</asrwt>
<pdfrwt beam="1">  1        2 0.87363254E-01 0.16208783E+04</pdfrwt>
<pdfrwt beam="2">  1       -2 0.17794481E+00 0.16208783E+04</pdfrwt>
<totfact> 0.94978694E+00</totfact>
</mgrwt>
</event>
<event>
12    1  0.1663913E-007  0.1425429E+04  0.7818608E-02  0.8935615E-01
          2   -1    0    0  501    0  0.00000000000E+00  0.00000000000E+00  0.22993216627E+04  0.22993216627E+04  0.00000000000E+00 0.  1.
         -2   -1    0    0    0  501 -0.00000000000E+00 -0.00000000000E+00 -0.22091814452E+03  0.22091814452E+03  0.00000000000E+00 0. -1.
         23    2    1    2    0    0  0.27271616288E+03  0.23324801998E+03  0.18795724101E+03  0.41540696340E+03  0.91958014723E+02 0.  0.
        254    2    1    2    0    0 -0.27271616288E+03 -0.23324801998E+03  0.18904462771E+04  0.21048328438E+04  0.85308582755E+03 0.  0.
        -24    2    4    4    0    0  0.25250625108E+03  0.91983378614E+02  0.82006316720E+03  0.86641370686E+03  0.77128233816E+02 0.  0.
         24    2    4    4    0    0 -0.52522241396E+03 -0.32523139860E+03  0.10703831099E+04  0.12384191369E+04  0.79548160826E+02 0.  0.
         11    1    3    3    0    0  0.75522271627E+02  0.85999918855E+02  0.10604354020E+03  0.15602830504E+03  0.00000000000E+00 0.  1.
        -11    1    3    3    0    0  0.19719389125E+03  0.14724810113E+03  0.81913700805E+02  0.25937865836E+03  0.00000000000E+00 0. -1.
          2    1    6    6  502    0 -0.10607406480E+03 -0.55153019750E+02  0.15178305303E+03  0.19321402122E+03  0.00000000000E+00 0. -1.
          3    1    5    5  503    0  0.86674771686E+02 -0.56914644048E+01  0.27284022645E+03  0.28633319400E+03  0.00000000000E+00 0. -1.
         -4    1    5    5    0  503  0.16583147939E+03  0.97674843018E+02  0.54722294075E+03  0.58008051286E+03  0.00000000000E+00 0.  1.
         -1    1    6    6    0  502 -0.41914834916E+03 -0.27007837885E+03  0.91860005692E+03  0.10452051157E+04  0.00000000000E+00 0.  1.
<mgrwt>
<rscale>  0 0.14254289E+04</rscale>
<asrwt>0</asrwt>
<pdfrwt beam="1">  1        2 0.35374178E+00 0.14254289E+04</pdfrwt>
<pdfrwt beam="2">  1       -2 0.33987408E-01 0.14254289E+04</pdfrwt>
<totfact> 0.35791975E+01</totfact>
</mgrwt>
</event>
<event>
12    1  0.1663913E-007  0.1185756E+04  0.7818608E-02  0.9125417E-01
          2   -1    0    0  501    0  0.00000000000E+00  0.00000000000E+00  0.86006715464E+03  0.86006715464E+03  0.00000000000E+00 0.  1.
         -2   -1    0    0    0  501 -0.00000000000E+00 -0.00000000000E+00 -0.40869395959E+03  0.40869395959E+03  0.00000000000E+00 0. -1.
         23    2    1    2    0    0 -0.12072946444E+03 -0.50397980373E+02 -0.11620303331E+03  0.19791862032E+03  0.92482837923E+02 0.  0.
        254    2    1    2    0    0  0.12072946444E+03  0.50397980373E+02  0.56757622836E+03  0.10708424939E+04  0.89857960792E+03 0.  0.
        -24    2    4    4    0    0  0.15846333348E+03  0.34717023855E+03 -0.36792209341E+02  0.39168250639E+03  0.80148091384E+02 0.  0.
         24    2    4    4    0    0 -0.37733869042E+02 -0.29677225818E+03  0.60436843770E+03  0.67915998753E+03  0.80619241326E+02 0.  0.
         13    1    3    3    0    0  0.60585541516E+01  0.76524165600E+01  0.68647871966E+01  0.11932764176E+02  0.00000000000E+00 0.  1.
        -13    1    3    3    0    0 -0.12678801859E+03 -0.58050396933E+02 -0.12306782051E+03  0.18598585615E+03  0.00000000000E+00 0. -1.
          2    1    6    6  502    0 -0.18796984236E+02 -0.22833631459E+03  0.37897778819E+03  0.44284869099E+03  0.00000000000E+00 0. -1.
          1    1    5    5  503    0  0.10030562353E+03  0.26867672032E+03  0.13943580935E+01  0.28679320492E+03  0.00000000000E+00 0. -1.
         -2    1    5    5    0  503  0.58157709953E+02  0.78493518231E+02 -0.38186567434E+02  0.10488930147E+03  0.00000000000E+00 0.  1.
         -1    1    6    6    0  502 -0.18936884806E+02 -0.68435943591E+02  0.22539064951E+03  0.23631129653E+03  0.00000000000E+00 0.  1.
<mgrwt>
<rscale>  0 0.11857559E+04</rscale>
<asrwt>0</asrwt>
<pdfrwt beam="1">  1        2 0.13231802E+00 0.11857559E+04</pdfrwt>
<pdfrwt beam="2">  1       -2 0.62875994E-01 0.11857559E+04</pdfrwt>
<totfact> 0.72334551E+01</totfact>
</mgrwt>
</event>
<event>
12    1  0.1663913E-007  0.1436195E+04  0.7818608E-02  0.8928028E-01
          2   -1    0    0  501    0  0.00000000000E+00  0.00000000000E+00  0.58442013606E+03  0.58442013606E+03  0.00000000000E+00 0. -1.
         -2   -1    0    0    0  501 -0.00000000000E+00 -0.00000000000E+00 -0.88235153419E+03  0.88235153419E+03  0.00000000000E+00 0.  1.
         23    2    1    2    0    0  0.24069449307E+03  0.30966027048E+03 -0.44818700344E+03  0.60255826892E+03  0.91550834444E+02 0.  0.
        254    2    1    2    0    0 -0.24069449307E+03 -0.30966027048E+03  0.15025560532E+03  0.86421340133E+03  0.75529115843E+03 0.  0.
        -24    2    4    4    0    0  0.11191379713E+03 -0.13763859102E+03 -0.23764819519E+03  0.30718815195E+03  0.80117515558E+02 0.  0.
         24    2    4    4    0    0 -0.35260829019E+03 -0.17202167947E+03  0.38790380051E+03  0.55702524937E+03  0.76705315794E+02 0.  0.
         13    1    3    3    0    0  0.23270465817E+03  0.29204399051E+03 -0.38444947660E+03  0.53595013796E+03  0.00000000000E+00 0. -1.
        -13    1    3    3    0    0  0.79898348951E+01  0.17616279970E+02 -0.63737526845E+02  0.66608130960E+02  0.00000000000E+00 0.  1.
          4    1    6    6  502    0 -0.16447584419E+03 -0.10257786942E+03  0.14522036416E+03  0.24220544333E+03  0.00000000000E+00 0. -1.
          3    1    5    5  503    0  0.80357370277E+02 -0.66451950201E+02 -0.80242322509E+02  0.13157506969E+03  0.00000000000E+00 0. -1.
         -4    1    5    5    0  503  0.31556426850E+02 -0.71186640814E+02 -0.15740587268E+03  0.17561308226E+03  0.00000000000E+00 0.  1.
         -3    1    6    6    0  502 -0.18813244601E+03 -0.69443810047E+02  0.24268343635E+03  0.31481980604E+03  0.00000000000E+00 0.  1.
<mgrwt>
<rscale>  0 0.14361950E+04</rscale>
<asrwt>0</asrwt>
<pdfrwt beam="1">  1        2 0.89910790E-01 0.14361950E+04</pdfrwt>
<pdfrwt beam="2">  1       -2 0.13574639E+00 0.14361950E+04</pdfrwt>
<totfact> 0.19322467E+01</totfact>
</mgrwt>
</event>
<event>
12    1  0.1663913E-007  0.1639517E+04  0.7818608E-02  0.8796632E-01
         -2   -1    0    0    0  501 -0.00000000000E+00  0.00000000000E+00  0.30701138762E+03  0.30701138762E+03  0.00000000000E+00 0.  1.
          2   -1    0    0  501    0  0.00000000000E+00 -0.00000000000E+00 -0.21888580211E+04  0.21888580211E+04  0.00000000000E+00 0. -1.
         23    2    1    2    0    0  0.30384433577E+03  0.97385875451E+02 -0.13610613201E+04  0.14009056466E+04  0.90792755864E+02 0.  0.
        254    2    1    2    0    0 -0.30384433577E+03 -0.97385875451E+02 -0.52078531339E+03  0.10949637621E+04  0.90880300868E+03 0.  0.
        -24    2    4    4    0    0 -0.10925224058E-01  0.38205519009E+03 -0.21577002988E+03  0.44568070474E+03  0.78156358590E+02 0.  0.
         24    2    4    4    0    0 -0.30383341055E+03 -0.47944106554E+03 -0.30501528351E+03  0.64928305739E+03  0.79722573600E+02 0.  0.
         13    1    3    3    0    0  0.24403537628E+03  0.38749601255E+02 -0.97018491409E+03  0.10011561137E+04  0.00000000000E+00 0. -1.
        -13    1    3    3    0    0  0.59808959497E+02  0.58636274196E+02 -0.39087640598E+03  0.39974953288E+03  0.00000000000E+00 0.  1.
          2    1    6    6  502    0 -0.23559666578E+03 -0.41877613654E+03 -0.27231570820E+03  0.55229981567E+03  0.00000000000E+00 0. -1.
          3    1    5    5  503    0 -0.24584393329E+01  0.38559349473E+03 -0.21419958128E+03  0.44110072288E+03  0.00000000000E+00 0. -1.
         -4    1    5    5    0  503  0.24475141088E+01 -0.35383046407E+01 -0.15704485984E+01  0.45799818606E+01  0.00000000000E+00 0.  1.
         -1    1    6    6    0  502 -0.68236744771E+02 -0.60664929001E+02 -0.32699575311E+02  0.96983241713E+02  0.00000000000E+00 0.  1.
<mgrwt>
<rscale>  0 0.16395174E+04</rscale>
<asrwt>0</asrwt>
<pdfrwt beam="1">  1        2 0.33674740E+00 0.16395174E+04</pdfrwt>
<pdfrwt beam="2">  1       -2 0.47232520E-01 0.16395174E+04</pdfrwt>
<totfact> 0.21292066E+01</totfact>
</mgrwt>
</event>
<event>
12    1  0.1663913E-007  0.1867378E+04  0.7818608E-02  0.8671267E-01
         -2   -1    0    0    0  501 -0.00000000000E+00  0.00000000000E+00  0.39767014482E+03  0.39767014482E+03  0.00000000000E+00 0.  1.
          2   -1    0    0  501    0  0.00000000000E+00 -0.00000000000E+00 -0.21922056599E+04  0.21922056599E+04  0.00000000000E+00 0. -1.
         23    2    1    2    0    0  0.65549979780E+03  0.16051053819E+03 -0.38187694619E+03  0.78112002215E+03  0.94206524105E+02 0.  0.
        254    2    1    2    0    0 -0.65549979780E+03 -0.16051053819E+03 -0.14126585689E+04  0.18087557826E+04  0.90584194591E+03 0.  0.
        -24    2    4    4    0    0 -0.12680901257E+03 -0.43365949784E+03 -0.93390515122E+03  0.10404880374E+04  0.79343801001E+02 0.  0.
         24    2    4    4    0    0 -0.52869078523E+03  0.27314895964E+03 -0.47875341767E+03  0.76826774518E+03  0.83103506635E+02 0.  0.
         13    1    3    3    0    0  0.62510673258E+03  0.13978401765E+03 -0.33932987510E+03  0.72487430831E+03  0.00000000000E+00 0.  1.
        -13    1    3    3    0    0  0.30393065220E+02  0.20726520542E+02 -0.42547071092E+02  0.56245713843E+02  0.00000000000E+00 0. -1.
          2    1    6    6  502    0 -0.31227839207E+03  0.16444800874E+03 -0.33517678643E+03  0.48672828138E+03  0.00000000000E+00 0. -1.
          3    1    5    5  503    0 -0.71492820440E+01 -0.15727842256E+03 -0.33199094921E+03  0.36743108850E+03  0.00000000000E+00 0. -1.
         -2    1    5    5    0  503 -0.11965973053E+03 -0.27638107527E+03 -0.60191420202E+03  0.67305694890E+03  0.00000000000E+00 0.  1.
         -1    1    6    6    0  502 -0.21641239316E+03  0.10870095090E+03 -0.14357663124E+03  0.28153946380E+03  0.00000000000E+00 0.  1.
<mgrwt>
<rscale>  0 0.18673776E+04</rscale>
<asrwt>0</asrwt>
<pdfrwt beam="1">  1        2 0.33726242E+00 0.18673776E+04</pdfrwt>
<pdfrwt beam="2">  1       -2 0.61180021E-01 0.18673776E+04</pdfrwt>
<totfact> 0.12174293E+01</totfact>
</mgrwt>
</event>
<event>
12    1  0.1663913E-007  0.1531768E+04  0.7818608E-02  0.8863598E-01
          2   -1    0    0  501    0  0.00000000000E+00  0.00000000000E+00  0.23420363849E+04  0.23420363849E+04  0.00000000000E+00 0. -1.
         -2   -1    0    0    0  501 -0.00000000000E+00 -0.00000000000E+00 -0.25045643112E+03  0.25045643112E+03  0.00000000000E+00 0.  1.
         23    2    1    2    0    0  0.49142353142E+03  0.21194951651E+02  0.70696198188E+03  0.86599312179E+03  0.90567819690E+02 0.  0.
        254    2    1    2    0    0 -0.49142353142E+03 -0.21194951651E+02  0.13846179719E+04  0.17264996942E+04  0.90647005071E+03 0.  0.
        -24    2    4    4    0    0  0.20585037023E+03 -0.18354248585E+03  0.24043398395E+03  0.37426311623E+03  0.78753796715E+02 0.  0.
         24    2    4    4    0    0 -0.69727390165E+03  0.16234753420E+03  0.11441839879E+04  0.13522365780E+04  0.82699146347E+02 0.  0.
         11    1    3    3    0    0  0.19612529187E+03 -0.18285594293E+02  0.34415177173E+03  0.39653491026E+03  0.00000000000E+00 0. -1.
        -11    1    3    3    0    0  0.29529823955E+03  0.39480545943E+02  0.36281021015E+03  0.46945821153E+03  0.00000000000E+00 0.  1.
          4    1    6    6  502    0 -0.16611348272E+02  0.18180758185E+02  0.46607009456E+02  0.52713282862E+02  0.00000000000E+00 0. -1.
          1    1    5    5  503    0  0.15148009485E+02  0.73619568661E+01  0.11487000367E+02  0.20386558751E+02  0.00000000000E+00 0. -1.
         -2    1    5    5    0  503  0.19070236074E+03 -0.19090444271E+03  0.22894698358E+03  0.35387655748E+03  0.00000000000E+00 0.  1.
         -3    1    6    6    0  502 -0.68066255338E+03  0.14416677601E+03  0.10975769785E+04  0.12995232951E+04  0.00000000000E+00 0.  1.
<mgrwt>
<rscale>  0 0.15317677E+04</rscale>
<asrwt>0</asrwt>
<pdfrwt beam="1">  1        2 0.36031327E+00 0.15317677E+04</pdfrwt>
<pdfrwt beam="2">  1       -2 0.38531760E-01 0.15317677E+04</pdfrwt>
<totfact> 0.26357278E+01</totfact>
</mgrwt>
</event>
<event>
12    1  0.1663913E-007  0.1952437E+04  0.7818608E-02  0.8629187E-01
          1   -1    0    0  501    0  0.00000000000E+00  0.00000000000E+00  0.11681805055E+04  0.11681805055E+04  0.00000000000E+00 0. -1.
         -1   -1    0    0    0  501 -0.00000000000E+00 -0.00000000000E+00 -0.81580075652E+03  0.81580075652E+03  0.00000000000E+00 0.  1.
         23    2    1    2    0    0  0.47789278543E+02  0.62470683663E+03  0.59886262187E+03  0.87147189937E+03  0.91018594974E+02 0.  0.
        254    2    1    2    0    0 -0.47789278543E+02 -0.62470683663E+03 -0.24648287290E+03  0.11125093626E+04  0.88565276970E+03 0.  0.
        -24    2    4    4    0    0  0.33799583862E+03 -0.19704047580E+03  0.12968800778E+03  0.41996456550E+03  0.80530248297E+02 0.  0.
         24    2    4    4    0    0 -0.38578511716E+03 -0.42766636083E+03 -0.37617088067E+03  0.69254479714E+03  0.79906769293E+02 0.  0.
         13    1    3    3    0    0 -0.49064281533E+01  0.39565704470E+03  0.33855345426E+03  0.52075619195E+03  0.00000000000E+00 0. -1.
        -13    1    3    3    0    0  0.52695706697E+02  0.22904979193E+03  0.26030916762E+03  0.35071570742E+03  0.00000000000E+00 0.  1.
          4    1    6    6  502    0 -0.35406434413E+03 -0.37720465177E+03 -0.36159125147E+03  0.63118392108E+03  0.00000000000E+00 0. -1.
          1    1    5    5  503    0  0.30932936447E+03 -0.20031208441E+03  0.10848683215E+03  0.38416009636E+03  0.00000000000E+00 0. -1.
         -2    1    5    5    0  503  0.28666474151E+02  0.32716086071E+01  0.21201175624E+02  0.35804469148E+02  0.00000000000E+00 0.  1.
         -3    1    6    6    0  502 -0.31720773035E+02 -0.50461709062E+02 -0.14579629207E+02  0.61360876063E+02  0.00000000000E+00 0.  1.
<mgrwt>
<rscale>  0 0.19524370E+04</rscale>
<asrwt>0</asrwt>
<pdfrwt beam="1">  1        1 0.17972008E+00 0.19524370E+04</pdfrwt>
<pdfrwt beam="2">  1       -1 0.12550781E+00 0.19524370E+04</pdfrwt>
<totfact> 0.58198466E+00</totfact>
</mgrwt>
</event>
<event>
12    1  0.1663913E-007  0.2159272E+04  0.7818608E-02  0.8535574E-01
          3   -1    0    0  501    0  0.00000000000E+00  0.00000000000E+00  0.87206752321E+03  0.87206752321E+03  0.00000000000E+00 0. -1.
         -3   -1    0    0    0  501 -0.00000000000E+00 -0.00000000000E+00 -0.13366101160E+04  0.13366101160E+04  0.00000000000E+00 0.  1.
         23    2    1    2    0    0 -0.16185167686E+03  0.82117106899E+03 -0.49397766873E+03  0.97582030092E+03  0.87712214892E+02 0.  0.
        254    2    1    2    0    0  0.16185167686E+03 -0.82117106899E+03  0.29435075958E+02  0.12328573383E+04  0.90473913533E+03 0.  0.
        -24    2    4    4    0    0 -0.34729577464E+03 -0.52874635658E+03 -0.15409178703E+02  0.63874445526E+03  0.87005584061E+02 0.  0.
         24    2    4    4    0    0  0.50914745150E+03 -0.29242471241E+03  0.44844254661E+02  0.59411288302E+03  0.78840159762E+02 0.  0.
         11    1    3    3    0    0 -0.66208416920E+00  0.28514876637E+00 -0.86308376158E+01  0.86608904402E+01  0.00000000000E+00 0. -1.
        -11    1    3    3    0    0 -0.16118959269E+03  0.82088592022E+03 -0.48534683112E+03  0.96715941048E+03  0.00000000000E+00 0.  1.
          2    1    6    6  502    0  0.24502737780E+03 -0.17010535663E+03  0.52860081728E+02  0.30293305608E+03  0.00000000000E+00 0. -1.
          3    1    5    5  503    0 -0.87660751337E+02 -0.83590745441E+02  0.17360350759E+02  0.12236503515E+03  0.00000000000E+00 0. -1.
         -4    1    5    5    0  503 -0.25963502331E+03 -0.44515561114E+03 -0.32769529462E+02  0.51637942011E+03  0.00000000000E+00 0.  1.
         -1    1    6    6    0  502  0.26412007370E+03 -0.12231935578E+03 -0.80158270676E+01  0.29117982694E+03  0.00000000000E+00 0.  1.
<mgrwt>
<rscale>  0 0.21592724E+04</rscale>
<asrwt>0</asrwt>
<pdfrwt beam="1">  1        3 0.13416424E+00 0.21592724E+04</pdfrwt>
<pdfrwt beam="2">  1       -3 0.20563232E+00 0.21592724E+04</pdfrwt>
<totfact> 0.13890940E-01</totfact>
</mgrwt>
</event>
<event>
12    1  0.1663913E-007  0.2826070E+04  0.7818608E-02  0.8295220E-01
         -4   -1    0    0    0  501 -0.00000000000E+00  0.00000000000E+00  0.80725218172E+03  0.80725218172E+03  0.00000000000E+00 0. -1.
          4   -1    0    0  501    0  0.00000000000E+00 -0.00000000000E+00 -0.24734135391E+04  0.24734135391E+04  0.00000000000E+00 0.  1.
         23    2    1    2    0    0  0.10018392361E+04  0.76008069345E+03 -0.56390042182E+03  0.13811730519E+04  0.90833904435E+02 0.  0.
        254    2    1    2    0    0 -0.10018392361E+04 -0.76008069345E+03 -0.11022609355E+04  0.18994926689E+04  0.90093768572E+03 0.  0.
        -24    2    4    4    0    0 -0.27946588378E+03 -0.13466635196E+03  0.12334784560E+03  0.34338495802E+03  0.80388630000E+02 0.  0.
         24    2    4    4    0    0 -0.72237335230E+03 -0.62541434149E+03 -0.12256087811E+04  0.15561077108E+04  0.79924743922E+02 0.  0.
         11    1    3    3    0    0  0.19132782374E+03  0.18721435295E+03 -0.13744484655E+03  0.30090968069E+03  0.00000000000E+00 0.  1.
        -11    1    3    3    0    0  0.81051141233E+03  0.57286634050E+03 -0.42645557527E+03  0.10802633713E+04  0.00000000000E+00 0. -1.
          4    1    6    6  502    0 -0.32926509906E+03 -0.33472216889E+03 -0.57821156393E+03  0.74483759872E+03  0.00000000000E+00 0. -1.
          3    1    5    5  503    0  0.43876855721E+01  0.26103750032E+01  0.27834531790E+01  0.58149337001E+01  0.00000000000E+00 0. -1.
         -4    1    5    5    0  503 -0.28385356935E+03 -0.13727672696E+03  0.12056439242E+03  0.33757002432E+03  0.00000000000E+00 0.  1.
         -3    1    6    6    0  502 -0.39310825324E+03 -0.29069217260E+03 -0.64739721721E+03  0.81127011213E+03  0.00000000000E+00 0.  1.
<mgrwt>
<rscale>  0 0.28260704E+04</rscale>
<asrwt>0</asrwt>
<pdfrwt beam="1">  1        4 0.38052515E+00 0.28260704E+04</pdfrwt>
<pdfrwt beam="2">  1       -4 0.12419265E+00 0.28260704E+04</pdfrwt>
<totfact> 0.77837366E-03</totfact>
</mgrwt>
</event>
<event>
12    1  0.1663913E-007  0.2860483E+04  0.7818608E-02  0.8284733E-01
         -2   -1    0    0    0  501 -0.00000000000E+00  0.00000000000E+00  0.13487109628E+04  0.13487109628E+04  0.00000000000E+00 0.  1.
          2   -1    0    0  501    0  0.00000000000E+00 -0.00000000000E+00 -0.15167006224E+04  0.15167006224E+04  0.00000000000E+00 0. -1.
         23    2    1    2    0    0 -0.42824893456E+03 -0.23779724240E+03 -0.12686524381E+04  0.13630615565E+04  0.92266569070E+02 0.  0.
        254    2    1    2    0    0  0.42824893456E+03  0.23779724240E+03  0.11006627785E+04  0.15023500286E+04  0.89758140467E+03 0.  0.
        -24    2    4    4    0    0 -0.15856900871E+03  0.29633248042E+03  0.71358053940E+03  0.79255933966E+03  0.77434173302E+02 0.  0.
         24    2    4    4    0    0  0.58681794326E+03 -0.58535238028E+02  0.38708223912E+03  0.70979068895E+03  0.78666953991E+02 0.  0.
         13    1    3    3    0    0 -0.27846560025E+03 -0.20320765690E+03 -0.87505374458E+03  0.94050810642E+03  0.00000000000E+00 0. -1.
        -13    1    3    3    0    0 -0.14978333430E+03 -0.34589585495E+02 -0.39359869351E+03  0.42255345011E+03  0.00000000000E+00 0.  1.
          4    1    6    6  502    0  0.61311838451E+02 -0.22027580211E+02  0.66714435321E+02  0.93247904558E+02  0.00000000000E+00 0. -1.
          1    1    5    5  503    0 -0.30209989798E+02  0.11612722188E+02  0.75527953191E+02  0.82170374913E+02  0.00000000000E+00 0. -1.
         -2    1    5    5    0  503 -0.12835901891E+03  0.28471975824E+03  0.63805258621E+03  0.71038896475E+03  0.00000000000E+00 0.  1.
         -3    1    6    6    0  502  0.52550610481E+03 -0.36507657817E+02  0.32036780380E+03  0.61654278439E+03  0.00000000000E+00 0.  1.
<mgrwt>
<rscale>  0 0.28604830E+04</rscale>
<asrwt>0</asrwt>
<pdfrwt beam="1">  1        2 0.23333856E+00 0.28604830E+04</pdfrwt>
<pdfrwt beam="2">  1       -2 0.20749400E+00 0.28604830E+04</pdfrwt>
<totfact> 0.12783682E+00</totfact>
</mgrwt>
</event>
<event>
12    1  0.1663913E-007  0.1497838E+04  0.7818608E-02  0.8885892E-01
          1   -1    0    0  501    0  0.00000000000E+00  0.00000000000E+00  0.74127717382E+03  0.74127717382E+03  0.00000000000E+00 0. -1.
         -1   -1    0    0    0  501 -0.00000000000E+00 -0.00000000000E+00 -0.75663994433E+03  0.75663994433E+03  0.00000000000E+00 0.  1.
         23    2    1    2    0    0 -0.48775408266E+03 -0.10983089743E+03 -0.14107158495E+03  0.52748863654E+03  0.91521573474E+02 0.  0.
        254    2    1    2    0    0  0.48775408266E+03  0.10983089743E+03  0.12570881444E+03  0.97042848161E+03  0.82216899766E+03 0.  0.
        -24    2    4    4    0    0  0.15338963988E+03  0.39064694171E+03 -0.14452002028E+03  0.45081689475E+03  0.78844287273E+02 0.  0.
         24    2    4    4    0    0  0.33436444278E+03 -0.28081604428E+03  0.27022883472E+03  0.51961158686E+03  0.79469156093E+02 0.  0.
         11    1    3    3    0    0 -0.11226484756E+02  0.36198933761E+01  0.93661104884E+01  0.15061925963E+02  0.00000000000E+00 0.  1.
        -11    1    3    3    0    0 -0.47652759791E+03 -0.11345079081E+03 -0.15043769544E+03  0.51242671057E+03  0.00000000000E+00 0. -1.
          2    1    6    6  502    0 -0.20478615722E+01 -0.11027351829E+02  0.10502301830E+01  0.11264954896E+02  0.00000000000E+00 0. -1.
          3    1    5    5  503    0  0.94771325332E+01  0.85370666133E+02 -0.53750159460E+02  0.10132643445E+03  0.00000000000E+00 0. -1.
         -4    1    5    5    0  503  0.14391250735E+03  0.30527627558E+03 -0.90769860816E+02  0.34949046029E+03  0.00000000000E+00 0.  1.
         -1    1    6    6    0  502  0.33641230435E+03 -0.26978869245E+03  0.26917860453E+03  0.50834663197E+03  0.00000000000E+00 0.  1.
<mgrwt>
<rscale>  0 0.14978383E+04</rscale>
<asrwt>0</asrwt>
<pdfrwt beam="1">  1        1 0.11404264E+00 0.14978383E+04</pdfrwt>
<pdfrwt beam="2">  1       -1 0.11640615E+00 0.14978383E+04</pdfrwt>
<totfact> 0.16092938E+01</totfact>
</mgrwt>
</event>
<event>
12    1  0.1663913E-007  0.1893481E+04  0.7818608E-02  0.8658108E-01
         -2   -1    0    0    0  501 -0.00000000000E+00  0.00000000000E+00  0.69534570009E+03  0.69534570009E+03  0.00000000000E+00 0. -1.
          2   -1    0    0  501    0  0.00000000000E+00 -0.00000000000E+00 -0.12890246123E+04  0.12890246123E+04  0.00000000000E+00 0.  1.
         23    2    1    2    0    0 -0.22657633063E+03 -0.39119530252E+03  0.36747285999E+03  0.58958061483E+03  0.90545017770E+02 0.  0.
        254    2    1    2    0    0  0.22657633063E+03  0.39119530252E+03 -0.96115177217E+03  0.13947896975E+04  0.90402155556E+03 0.  0.
        -24    2    4    4    0    0  0.54293175392E+03  0.70905646587E+02 -0.50174206435E+03  0.74679154789E+03  0.78422042288E+02 0.  0.
         24    2    4    4    0    0 -0.31635542329E+03  0.32028965593E+03 -0.45940970782E+03  0.64799814966E+03  0.78600920986E+02 0.  0.
         11    1    3    3    0    0 -0.23112663863E+03 -0.39120744491E+03  0.35598532058E+03  0.57722468459E+03  0.00000000000E+00 0. -1.
        -11    1    3    3    0    0  0.45503080024E+01  0.12142390681E-01  0.11487539407E+02  0.12355930235E+02  0.00000000000E+00 0.  1.
          2    1    6    6  502    0 -0.27088341246E+03  0.22781932864E+03 -0.35623711274E+03  0.50217959949E+03  0.00000000000E+00 0. -1.
          3    1    5    5  503    0  0.46368166603E+03  0.40404792870E+02 -0.39548343497E+03  0.61077031856E+03  0.00000000000E+00 0. -1.
         -4    1    5    5    0  503  0.79250087889E+02  0.30500853717E+02 -0.10625862938E+03  0.13602122932E+03  0.00000000000E+00 0.  1.
         -1    1    6    6    0  502 -0.45472010830E+02  0.92470327292E+02 -0.10317259508E+03  0.14581855017E+03  0.00000000000E+00 0.  1.
<mgrwt>
<rscale>  0 0.18934812E+04</rscale>
<asrwt>0</asrwt>
<pdfrwt beam="1">  1        2 0.19831148E+00 0.18934812E+04</pdfrwt>
<pdfrwt beam="2">  1       -2 0.10697626E+00 0.18934812E+04</pdfrwt>
<totfact> 0.11051216E+01</totfact>
</mgrwt>
</event>
<event>
12    1  0.1663913E-007  0.1566630E+04  0.7818608E-02  0.8841315E-01
         -2   -1    0    0    0  501 -0.00000000000E+00  0.00000000000E+00  0.78002187430E+03  0.78002187430E+03  0.00000000000E+00 0.  1.
          2   -1    0    0  501    0  0.00000000000E+00 -0.00000000000E+00 -0.78662196732E+03  0.78662196732E+03  0.00000000000E+00 0. -1.
         23    2    1    2    0    0  0.99206173771E+02 -0.44762617972E+03 -0.24506571839E+03  0.52780594714E+03  0.91163862475E+02 0.  0.
        254    2    1    2    0    0 -0.99206173771E+02  0.44762617972E+03  0.23846562537E+03  0.10388378945E+04  0.90116993671E+03 0.  0.
        -24    2    4    4    0    0 -0.39914378597E+03  0.33089993836E+03 -0.13279399697E+03  0.54116604807E+03  0.80099406143E+02 0.  0.
         24    2    4    4    0    0  0.29993761220E+03  0.11672624136E+03  0.37125962234E+03  0.49767184641E+03  0.79094708402E+02 0.  0.
         11    1    3    3    0    0  0.72705407220E+02 -0.13201977844E+03 -0.81830390369E+02  0.17149784525E+03  0.00000000000E+00 0.  1.
        -11    1    3    3    0    0  0.26500766551E+02 -0.31560640127E+03 -0.16323532802E+03  0.35630810188E+03  0.00000000000E+00 0. -1.
          4    1    6    6  502    0  0.21693249750E+03  0.11473799736E+03  0.30483235328E+03  0.39134036352E+03  0.00000000000E+00 0. -1.
          1    1    5    5  503    0 -0.22793535779E+03  0.17923837153E+03 -0.11435732830E+03  0.31170261419E+03  0.00000000000E+00 0. -1.
         -2    1    5    5    0  503 -0.17120842818E+03  0.15166156683E+03 -0.18436668667E+02  0.22946343387E+03  0.00000000000E+00 0.  1.
         -3    1    6    6    0  502  0.83005114695E+02  0.19882439975E+01  0.66427269061E+02  0.10633148289E+03  0.00000000000E+00 0.  1.
<mgrwt>
<rscale>  0 0.15666299E+04</rscale>
<asrwt>0</asrwt>
<pdfrwt beam="1">  1        2 0.12101876E+00 0.15666299E+04</pdfrwt>
<pdfrwt beam="2">  1       -2 0.12000336E+00 0.15666299E+04</pdfrwt>
<totfact> 0.17980315E+01</totfact>
</mgrwt>
</event>
<event>
12    1  0.1663913E-007  0.2826351E+04  0.7818608E-02  0.8295134E-01
          2   -1    0    0  501    0  0.00000000000E+00  0.00000000000E+00  0.22093135651E+04  0.22093135651E+04  0.00000000000E+00 0. -1.
         -2   -1    0    0    0  501 -0.00000000000E+00 -0.00000000000E+00 -0.90392996938E+03  0.90392996938E+03  0.00000000000E+00 0.  1.
         23    2    1    2    0    0  0.62987069208E+03  0.61172538816E+03  0.15929169742E+04  0.18215787404E+04  0.99093802829E+02 0.  0.
        254    2    1    2    0    0 -0.62987069208E+03 -0.61172538816E+03 -0.28753337846E+03  0.12916647940E+04  0.90265024076E+03 0.  0.
        -24    2    4    4    0    0 -0.75943681611E+00  0.19140542966E+03  0.50937376259E+02  0.21388411981E+03  0.80716696908E+02 0.  0.
         24    2    4    4    0    0 -0.62911125526E+03 -0.80313081781E+03 -0.33847075472E+03  0.10777806742E+04  0.79048389575E+02 0.  0.
         11    1    3    3    0    0  0.50037199780E+03  0.52700220625E+03  0.13591528064E+04  0.15412332117E+04  0.00000000000E+00 0. -1.
        -11    1    3    3    0    0  0.12949869428E+03  0.84723181908E+02  0.23376416774E+03  0.28034552876E+03  0.00000000000E+00 0.  1.
          4    1    6    6  502    0 -0.17434728989E+03 -0.27989311987E+03 -0.12040762881E+03  0.35104861931E+03  0.00000000000E+00 0. -1.
          3    1    5    5  503    0 -0.13565151312E+01  0.90141714805E+01 -0.16967719055E+02  0.19261332008E+02  0.00000000000E+00 0. -1.
         -4    1    5    5    0  503  0.59707831514E+00  0.18239125818E+03  0.67905095314E+02  0.19462278780E+03  0.00000000000E+00 0.  1.
         -3    1    6    6    0  502 -0.45476396537E+03 -0.52323769795E+03 -0.21806312591E+03  0.72673205491E+03  0.00000000000E+00 0.  1.
<mgrwt>
<rscale>  0 0.28263508E+04</rscale>
<asrwt>0</asrwt>
<pdfrwt beam="1">  1        2 0.33989439E+00 0.28263508E+04</pdfrwt>
<pdfrwt beam="2">  1       -2 0.13906615E+00 0.28263508E+04</pdfrwt>
<totfact> 0.16188538E+00</totfact>
</mgrwt>
</event>
<event>
12    1  0.1663913E-007  0.1661287E+04  0.7818608E-02  0.8783757E-01
         -2   -1    0    0    0  501 -0.00000000000E+00  0.00000000000E+00  0.10205368663E+04  0.10205368663E+04  0.00000000000E+00 0. -1.
          2   -1    0    0  501    0  0.00000000000E+00 -0.00000000000E+00 -0.67608415189E+03  0.67608415189E+03  0.00000000000E+00 0.  1.
         23    2    1    2    0    0  0.49896460316E+03  0.11979393403E+03 -0.15266259734E+03  0.54348250466E+03  0.93547327087E+02 0.  0.
        254    2    1    2    0    0 -0.49896460316E+03 -0.11979393403E+03  0.49711531175E+03  0.11531385135E+04  0.90514558849E+03 0.  0.
        -24    2    4    4    0    0 -0.47261502230E+03 -0.29329665239E+03  0.68350845351E+03  0.88485762221E+03  0.80008249274E+02 0.  0.
         24    2    4    4    0    0 -0.26349580861E+02  0.17350271836E+03 -0.18639314176E+03  0.26828089132E+03  0.80216829069E+02 0.  0.
         11    1    3    3    0    0  0.57886490717E+02  0.22867113966E+02  0.10872826993E+02  0.63182031271E+02  0.00000000000E+00 0. -1.
        -11    1    3    3    0    0  0.44107811244E+03  0.96926820069E+02 -0.16353542433E+03  0.48030047339E+03  0.00000000000E+00 0.  1.
          2    1    6    6  502    0 -0.11088132634E+02  0.28325495053E+01 -0.44070757739E+02  0.45532424817E+02  0.00000000000E+00 0. -1.
          3    1    5    5  503    0 -0.18776081417E+03 -0.74022605213E+02  0.22557179295E+03  0.30268152107E+03  0.00000000000E+00 0. -1.
         -4    1    5    5    0  503 -0.28485420813E+03 -0.21927404718E+03  0.45793666055E+03  0.58217610114E+03  0.00000000000E+00 0.  1.
         -1    1    6    6    0  502 -0.15261448226E+02  0.17067016885E+03 -0.14232238402E+03  0.22274846651E+03  0.00000000000E+00 0.  1.
<mgrwt>
<rscale>  0 0.16612872E+04</rscale>
<asrwt>0</asrwt>
<pdfrwt beam="1">  1        2 0.10401295E+00 0.16612872E+04</pdfrwt>
<pdfrwt beam="2">  1       -2 0.15700567E+00 0.16612872E+04</pdfrwt>
<totfact> 0.10826695E+01</totfact>
</mgrwt>
</event>
<event>
12    1  0.1663913E-007  0.1583612E+04  0.7818608E-02  0.8830679E-01
         -2   -1    0    0    0  501 -0.00000000000E+00  0.00000000000E+00  0.12417465426E+04  0.12417465426E+04  0.00000000000E+00 0.  1.
          2   -1    0    0  501    0  0.00000000000E+00 -0.00000000000E+00 -0.50489916438E+03  0.50489916438E+03  0.00000000000E+00 0. -1.
         23    2    1    2    0    0  0.35023674226E+02  0.21593339074E+03  0.78928178286E+03  0.82391881670E+03  0.89568949816E+02 0.  0.
        254    2    1    2    0    0 -0.35023674226E+02 -0.21593339074E+03 -0.52434404669E+02  0.92272689025E+03  0.89488639514E+03 0.  0.
        -24    2    4    4    0    0  0.21404015415E+03  0.16007896936E+03 -0.29359744816E+03  0.40510472307E+03  0.80448188719E+02 0.  0.
         24    2    4    4    0    0 -0.24906382838E+03 -0.37601236009E+03  0.24116304349E+03  0.51762216718E+03  0.79718309431E+02 0.  0.
         13    1    3    3    0    0  0.14753279504E+02  0.21157021241E+03  0.75112331392E+03  0.78049077301E+03  0.00000000000E+00 0.  1.
        -13    1    3    3    0    0  0.20270394722E+02  0.43631783220E+01  0.38158468934E+02  0.43428043689E+02  0.00000000000E+00 0. -1.
          2    1    6    6  502    0 -0.15376817474E+03 -0.24507796628E+03  0.11111553723E+03  0.30992664251E+03  0.00000000000E+00 0. -1.
          3    1    5    5  503    0  0.14780293604E+03  0.15183931051E+03 -0.21288263766E+03  0.30036627896E+03  0.00000000000E+00 0. -1.
         -4    1    5    5    0  503  0.66237218115E+02  0.82396588488E+01 -0.80714810496E+02  0.10473844411E+03  0.00000000000E+00 0.  1.
         -1    1    6    6    0  502 -0.95295653640E+02 -0.13093439381E+03  0.13004750626E+03  0.20769552467E+03  0.00000000000E+00 0.  1.
<mgrwt>
<rscale>  0 0.15836121E+04</rscale>
<asrwt>0</asrwt>
<pdfrwt beam="1">  1        2 0.77676795E-01 0.15836121E+04</pdfrwt>
<pdfrwt beam="2">  1       -2 0.19103793E+00 0.15836121E+04</pdfrwt>
<totfact> 0.89073478E+00</totfact>
</mgrwt>
</event>
<event>
12    1  0.1663913E-007  0.2469255E+04  0.7818608E-02  0.8414021E-01
         -2   -1    0    0    0  501 -0.00000000000E+00  0.00000000000E+00  0.39374125684E+03  0.39374125684E+03  0.00000000000E+00 0.  1.
          2   -1    0    0  501    0  0.00000000000E+00 -0.00000000000E+00 -0.38713355683E+04  0.38713355683E+04  0.00000000000E+00 0. -1.
         23    2    1    2    0    0  0.43766015969E+03  0.14349414818E+03 -0.31738659293E+04  0.32085654761E+04  0.96594467452E+02 0.  0.
        254    2    1    2    0    0 -0.43766015969E+03 -0.14349414818E+03 -0.30372838209E+03  0.10565113490E+04  0.90101515778E+03 0.  0.
        -24    2    4    4    0    0 -0.62615190067E+02 -0.38265907848E+03 -0.43324918457E+03  0.58690484063E+03  0.80023769283E+02 0.  0.
         24    2    4    4    0    0 -0.37504496963E+03  0.23916493030E+03  0.12952080248E+03  0.46960650838E+03  0.76785684280E+02 0.  0.
         13    1    3    3    0    0  0.36129195862E+03  0.13253254565E+03 -0.28367353450E+04  0.28627197161E+04  0.00000000000E+00 0. -1.
        -13    1    3    3    0    0  0.76368201070E+02  0.10961602538E+02 -0.33713058430E+03  0.34584576004E+03  0.00000000000E+00 0.  1.
          2    1    6    6  502    0 -0.15044027988E+01  0.86601934084E+01  0.12603305325E+02  0.15365724284E+02  0.00000000000E+00 0. -1.
          1    1    5    5  503    0 -0.30024244535E+02 -0.21081701897E+03 -0.29568791616E+03  0.36438525562E+03  0.00000000000E+00 0. -1.
         -2    1    5    5    0  503 -0.32590945532E+02 -0.17184205951E+03 -0.13756126841E+03  0.22251958501E+03  0.00000000000E+00 0.  1.
         -1    1    6    6    0  502 -0.37354056683E+03  0.23050473689E+03  0.11691749715E+03  0.45424078409E+03  0.00000000000E+00 0.  1.
<mgrwt>
<rscale>  0 0.24692546E+04</rscale>
<asrwt>0</asrwt>
<pdfrwt beam="1">  1        2 0.59559007E+00 0.24692546E+04</pdfrwt>
<pdfrwt beam="2">  1       -2 0.60575580E-01 0.24692546E+04</pdfrwt>
<totfact> 0.98529528E-01</totfact>
</mgrwt>
</event>
<event>
12    1  0.1663913E-007  0.2581872E+04  0.7818608E-02  0.8374385E-01
          2   -1    0    0  501    0  0.00000000000E+00  0.00000000000E+00  0.25898957371E+04  0.25898957371E+04  0.00000000000E+00 0. -1.
         -2   -1    0    0    0  501 -0.00000000000E+00 -0.00000000000E+00 -0.64346842673E+03  0.64346842673E+03  0.00000000000E+00 0.  1.
         23    2    1    2    0    0  0.51495466171E+03 -0.15948469590E+03  0.20923483309E+04  0.21626244517E+04  0.91702288174E+02 0.  0.
        254    2    1    2    0    0 -0.51495466171E+03  0.15948469590E+03 -0.14592102054E+03  0.10707397121E+04  0.91355181293E+03 0.  0.
        -24    2    4    4    0    0  0.18929290678E+03  0.13531420688E+03 -0.25440328691E+03  0.35378485076E+03  0.79378517878E+02 0.  0.
         24    2    4    4    0    0 -0.70424756849E+03  0.24170489022E+02  0.10848226637E+03  0.71695486130E+03  0.75544826123E+02 0.  0.
         11    1    3    3    0    0  0.49974021355E+03 -0.14993291016E+03  0.20650781473E+04  0.21299689934E+04  0.00000000000E+00 0. -1.
        -11    1    3    3    0    0  0.15214448168E+02 -0.95517857457E+01  0.27270183626E+02  0.32655458334E+02  0.00000000000E+00 0.  1.
          2    1    6    6  502    0 -0.28461229149E+03  0.46544224625E+02  0.38999642174E+02  0.29101802935E+03  0.00000000000E+00 0. -1.
          3    1    5    5  503    0  0.10536942010E+03  0.27216348234E+02 -0.11928473474E+03  0.16146916810E+03  0.00000000000E+00 0. -1.
         -4    1    5    5    0  503  0.83923486674E+02  0.10809785865E+03 -0.13511855217E+03  0.19231568267E+03  0.00000000000E+00 0.  1.
         -1    1    6    6    0  502 -0.41963527700E+03 -0.22373735604E+02  0.69482624200E+02  0.42593683195E+03  0.00000000000E+00 0.  1.
<mgrwt>
<rscale>  0 0.25818723E+04</rscale>
<asrwt>0</asrwt>
<pdfrwt beam="1">  1        2 0.39844549E+00 0.25818723E+04</pdfrwt>
<pdfrwt beam="2">  1       -2 0.98995144E-01 0.25818723E+04</pdfrwt>
<totfact> 0.23116273E+00</totfact>
</mgrwt>
</event>
<event>
12    1  0.1663913E-007  0.2153121E+04  0.7818608E-02  0.8538198E-01
          2   -1    0    0  501    0  0.00000000000E+00  0.00000000000E+00  0.17976304959E+04  0.17976304959E+04  0.00000000000E+00 0. -1.
         -2   -1    0    0    0  501 -0.00000000000E+00 -0.00000000000E+00 -0.64472780393E+03  0.64472780393E+03  0.00000000000E+00 0.  1.
         23    2    1    2    0    0 -0.87860623159E+03  0.57740533557E+02  0.38392283042E+03  0.96486276955E+03  0.90997499677E+02 0.  0.
        254    2    1    2    0    0  0.87860623159E+03 -0.57740533557E+02  0.76897986160E+03  0.14774955303E+04  0.90353756710E+03 0.  0.
        -24    2    4    4    0    0  0.38008312861E+03  0.14607204842E+03 -0.12252219629E+03  0.43289389491E+03  0.81149292562E+02 0.  0.
         24    2    4    4    0    0  0.49852310298E+03 -0.20381258198E+03  0.89150205788E+03  0.10446016354E+04  0.79698210220E+02 0.  0.
         13    1    3    3    0    0 -0.68762284990E+03  0.74847028364E+02  0.27507670245E+03  0.74437521022E+03  0.00000000000E+00 0.  1.
        -13    1    3    3    0    0 -0.19098338169E+03 -0.17106494806E+02  0.10884612797E+03  0.22048755933E+03  0.00000000000E+00 0. -1.
          4    1    6    6  502    0  0.44858737049E+03 -0.15509132777E+03  0.78114025307E+03  0.91403722237E+03  0.00000000000E+00 0. -1.
          1    1    5    5  503    0  0.30753888294E+03  0.12292388979E+03 -0.13123610775E+03  0.35624901849E+03  0.00000000000E+00 0. -1.
         -2    1    5    5    0  503  0.72544245671E+02  0.23148158631E+02  0.87139114608E+01  0.76644876416E+02  0.00000000000E+00 0.  1.
         -3    1    6    6    0  502  0.49935732493E+02 -0.48721254202E+02  0.11036180481E+03  0.13056441304E+03  0.00000000000E+00 0.  1.
<mgrwt>
<rscale>  0 0.21531209E+04</rscale>
<asrwt>0</asrwt>
<pdfrwt beam="1">  1        2 0.27655854E+00 0.21531209E+04</pdfrwt>
<pdfrwt beam="2">  1       -2 0.99188894E-01 0.21531209E+04</pdfrwt>
<totfact> 0.66874414E+00</totfact>
</mgrwt>
</event>
<event>
12    1  0.1663913E-007  0.2099774E+04  0.7818608E-02  0.8561343E-01
          2   -1    0    0  501    0  0.00000000000E+00  0.00000000000E+00  0.20700931427E+04  0.20700931427E+04  0.00000000000E+00 0. -1.
         -2   -1    0    0    0  501 -0.00000000000E+00 -0.00000000000E+00 -0.53247016526E+03  0.53247016526E+03  0.00000000000E+00 0.  1.
         23    2    1    2    0    0 -0.54847437050E+03  0.17902305776E+03 -0.15272180102E+03  0.60368410920E+03  0.90758828164E+02 0.  0.
        254    2    1    2    0    0  0.54847437050E+03 -0.17902305776E+03  0.16903447785E+04  0.19988791988E+04  0.89742921219E+03 0.  0.
        -24    2    4    4    0    0 -0.20087220019E+03  0.49357036319E+02  0.69299989234E+03  0.72768404165E+03  0.80557158906E+02 0.  0.
         24    2    4    4    0    0  0.74934657068E+03 -0.22838009408E+03  0.99734488611E+03  0.12711951571E+04  0.86962953224E+02 0.  0.
         11    1    3    3    0    0 -0.13203659217E+03  0.62475844595E+02 -0.31400181867E+01  0.14610527897E+03  0.00000000000E+00 0. -1.
        -11    1    3    3    0    0 -0.41643777833E+03  0.11654721317E+03 -0.14958178283E+03  0.45757883023E+03  0.00000000000E+00 0.  1.
          2    1    6    6  502    0  0.25819234070E+03 -0.11105644797E+03  0.40239493973E+03  0.49083450057E+03  0.00000000000E+00 0. -1.
          3    1    5    5  503    0 -0.84604318490E+02  0.50503536894E+02  0.41116516375E+03  0.42280644488E+03  0.00000000000E+00 0. -1.
         -4    1    5    5    0  503 -0.11626788170E+03 -0.11465005755E+01  0.28183472859E+03  0.30487759678E+03  0.00000000000E+00 0.  1.
         -1    1    6    6    0  502  0.49115422999E+03 -0.11732364611E+03  0.59494994638E+03  0.78036065654E+03  0.00000000000E+00 0.  1.
<mgrwt>
<rscale>  0 0.20997741E+04</rscale>
<asrwt>0</asrwt>
<pdfrwt beam="1">  1        2 0.31847586E+00 0.20997741E+04</pdfrwt>
<pdfrwt beam="2">  1       -2 0.81918488E-01 0.20997741E+04</pdfrwt>
<totfact> 0.73729489E+00</totfact>
</mgrwt>
</event>
<event>
12    1  0.1663913E-007  0.1466295E+04  0.7818608E-02  0.8907181E-01
          1   -1    0    0  501    0  0.00000000000E+00  0.00000000000E+00  0.21257689924E+04  0.21257689924E+04  0.00000000000E+00 0. -1.
         -1   -1    0    0    0  501 -0.00000000000E+00 -0.00000000000E+00 -0.25285211242E+03  0.25285211242E+03  0.00000000000E+00 0.  1.
         23    2    1    2    0    0  0.65430137778E+02  0.17465339252E+03  0.12644973141E+04  0.12815386436E+04  0.92751966940E+02 0.  0.
        254    2    1    2    0    0 -0.65430137778E+02 -0.17465339252E+03  0.60841956585E+03  0.10970824611E+04  0.89366137209E+03 0.  0.
        -24    2    4    4    0    0 -0.25941715718E+03 -0.57525193113E+02 -0.14017101784E+03  0.31105679699E+03  0.80635026058E+02 0.  0.
         24    2    4    4    0    0  0.19398701940E+03 -0.11712819941E+03  0.74859058369E+03  0.78602566415E+03  0.78092918426E+02 0.  0.
         11    1    3    3    0    0  0.19371891254E+02  0.15790293240E+03  0.98994289517E+03  0.10026442749E+04  0.00000000000E+00 0. -1.
        -11    1    3    3    0    0  0.46058246524E+02  0.16750460120E+02  0.27455441891E+03  0.27889436877E+03  0.00000000000E+00 0.  1.
          2    1    6    6  502    0  0.79979025628E+02 -0.47234244719E+02  0.44013641107E+03  0.44983083350E+03  0.00000000000E+00 0. -1.
          3    1    5    5  503    0 -0.10662864135E+03 -0.63768968164E+02 -0.72376502207E+02  0.14378632247E+03  0.00000000000E+00 0. -1.
         -4    1    5    5    0  503 -0.15278851583E+03  0.62437750510E+01 -0.67794515638E+02  0.16727047452E+03  0.00000000000E+00 0.  1.
         -1    1    6    6    0  502  0.11400799377E+03 -0.69893954692E+02  0.30845417263E+03  0.33619483065E+03  0.00000000000E+00 0.  1.
<mgrwt>
<rscale>  0 0.14662949E+04</rscale>
<asrwt>0</asrwt>
<pdfrwt beam="1">  1        1 0.32704137E+00 0.14662949E+04</pdfrwt>
<pdfrwt beam="2">  1       -1 0.38900326E-01 0.14662949E+04</pdfrwt>
<totfact> 0.15234277E+01</totfact>
</mgrwt>
</event>
<event>
12    1  0.1663913E-007  0.2573363E+04  0.7818608E-02  0.8377306E-01
          1   -1    0    0  501    0  0.00000000000E+00  0.00000000000E+00  0.44826270911E+04  0.44826270911E+04  0.00000000000E+00 0. -1.
         -1   -1    0    0    0  501 -0.00000000000E+00 -0.00000000000E+00 -0.36932578421E+03  0.36932578421E+03  0.00000000000E+00 0.  1.
         23    2    1    2    0    0  0.28719629085E+03  0.10822781201E+04  0.19169394523E+04  0.22219877790E+04  0.93622579767E+02 0.  0.
        254    2    1    2    0    0 -0.28719629085E+03 -0.10822781201E+04  0.21963618546E+04  0.26299650963E+04  0.91591668441E+03 0.  0.
        -24    2    4    4    0    0 -0.51722701656E+03 -0.10820363381E+04  0.17846025807E+04  0.21515758816E+04  0.78396297086E+02 0.  0.
         24    2    4    4    0    0  0.23003072571E+03 -0.24178197611E+00  0.41175927391E+03  0.47838921476E+03  0.79977171241E+02 0.  0.
         11    1    3    3    0    0  0.16697786574E+03  0.75324860038E+03  0.12588555204E+04  0.14764763063E+04  0.00000000000E+00 0.  1.
        -11    1    3    3    0    0  0.12021842511E+03  0.32902951975E+03  0.65808393186E+03  0.74551147273E+03  0.00000000000E+00 0. -1.
          2    1    6    6  502    0  0.77303573254E+02 -0.34997841819E+02  0.17529897146E+03  0.19475733815E+03  0.00000000000E+00 0. -1.
          1    1    5    5  503    0 -0.71967729861E+02 -0.13716494198E+03  0.18712092723E+03  0.24291524624E+03  0.00000000000E+00 0. -1.
         -2    1    5    5    0  503 -0.44525928670E+03 -0.94487139617E+03  0.15974816535E+04  0.19086606353E+04  0.00000000000E+00 0.  1.
         -3    1    6    6    0  502  0.15272715245E+03  0.34756059843E+02  0.23646030245E+03  0.28363187660E+03  0.00000000000E+00 0.  1.
<mgrwt>
<rscale>  0 0.25733634E+04</rscale>
<asrwt>0</asrwt>
<pdfrwt beam="1">  1        1 0.68963490E+00 0.25733634E+04</pdfrwt>
<pdfrwt beam="2">  1       -1 0.56819355E-01 0.25733634E+04</pdfrwt>
<totfact> 0.93271236E-02</totfact>
</mgrwt>
</event>
<event>
12    1  0.1663913E-007  0.1125182E+04  0.7818608E-02  0.9180990E-01
         -2   -1    0    0    0  501 -0.00000000000E+00  0.00000000000E+00  0.25538699285E+03  0.25538699285E+03  0.00000000000E+00 0.  1.
          2   -1    0    0  501    0  0.00000000000E+00 -0.00000000000E+00 -0.12393293626E+04  0.12393293626E+04  0.00000000000E+00 0. -1.
         23    2    1    2    0    0 -0.98563775594E+02 -0.13567736054E+03 -0.14531190385E+03  0.24003229066E+03  0.91524789740E+02 0.  0.
        254    2    1    2    0    0  0.98563775594E+02  0.13567736054E+03 -0.83863046591E+03  0.12546840648E+04  0.91804568519E+03 0.  0.
        -24    2    4    4    0    0 -0.31696575205E+02  0.46868324855E+03 -0.73177909268E+03  0.87312552273E+03  0.78605836909E+02 0.  0.
         24    2    4    4    0    0  0.13026035080E+03 -0.33300588802E+03 -0.10685137323E+03  0.38155854208E+03  0.79429368803E+02 0.  0.
         13    1    3    3    0    0 -0.11058840948E+03 -0.13506601136E+03 -0.11949526294E+03  0.21154607442E+03  0.00000000000E+00 0. -1.
        -13    1    3    3    0    0  0.12024633885E+02 -0.61134917159E+00 -0.25816640903E+02  0.28486216235E+02  0.00000000000E+00 0.  1.
          2    1    6    6  502    0  0.10559540404E+03 -0.32269051810E+03 -0.97811287501E+02  0.35333639465E+03  0.00000000000E+00 0. -1.
          1    1    5    5  503    0  0.18613240155E+02  0.29089876448E+03 -0.45229505731E+03  0.53808861979E+03  0.00000000000E+00 0. -1.
         -4    1    5    5    0  503 -0.50309815360E+02  0.17778448407E+03 -0.27948403537E+03  0.33503690293E+03  0.00000000000E+00 0.  1.
         -1    1    6    6    0  502  0.24664946762E+02 -0.10315369919E+02 -0.90400857309E+01  0.28222147427E+02  0.00000000000E+00 0.  1.
<mgrwt>
<rscale>  0 0.11251819E+04</rscale>
<asrwt>0</asrwt>
<pdfrwt beam="1">  1        2 0.19066605E+00 0.11251819E+04</pdfrwt>
<pdfrwt beam="2">  1       -2 0.39290308E-01 0.11251819E+04</pdfrwt>
<totfact> 0.10889264E+02</totfact>
</mgrwt>
</event>
<event>
12    1  0.1663913E-007  0.2178423E+04  0.7818608E-02  0.8527463E-01
         -2   -1    0    0    0  501 -0.00000000000E+00  0.00000000000E+00  0.60010864496E+03  0.60010864496E+03  0.00000000000E+00 0.  1.
          2   -1    0    0  501    0  0.00000000000E+00 -0.00000000000E+00 -0.19769441556E+04  0.19769441556E+04  0.00000000000E+00 0. -1.
         23    2    1    2    0    0 -0.16218117294E+03 -0.69862734189E+03 -0.12075043942E+04  0.14074109599E+04  0.91410351979E+02 0.  0.
        254    2    1    2    0    0  0.16218117294E+03  0.69862734189E+03 -0.16933111651E+03  0.11696418407E+04  0.90829847119E+03 0.  0.
        -24    2    4    4    0    0 -0.14058736685E+03  0.48344991023E+03  0.28005252641E+03  0.58154683504E+03  0.79238124459E+02 0.  0.
         24    2    4    4    0    0  0.30276853979E+03  0.21517743166E+03 -0.44938364292E+03  0.58809500565E+03  0.77071144798E+02 0.  0.
         11    1    3    3    0    0 -0.69930217683E+02 -0.27803036075E+03 -0.57112320980E+03  0.63904056023E+03  0.00000000000E+00 0. -1.
        -11    1    3    3    0    0 -0.92250955256E+02 -0.42059698115E+03 -0.63638118435E+03  0.76837039967E+03  0.00000000000E+00 0.  1.
          4    1    6    6  502    0  0.13564916074E+03  0.13861754789E+03 -0.20381191260E+03  0.28134465538E+03  0.00000000000E+00 0. -1.
          3    1    5    5  503    0 -0.14414650621E+03  0.47620835751E+03  0.26322657048E+03  0.56288617181E+03  0.00000000000E+00 0. -1.
         -4    1    5    5    0  503  0.35591393593E+01  0.72415527271E+01  0.16825955933E+02  0.18660663224E+02  0.00000000000E+00 0.  1.
         -3    1    6    6    0  502  0.16711937904E+03  0.76559883767E+02 -0.24557173032E+03  0.30675035027E+03  0.00000000000E+00 0.  1.
<mgrwt>
<rscale>  0 0.21784226E+04</rscale>
<asrwt>0</asrwt>
<pdfrwt beam="1">  1        2 0.30414526E+00 0.21784226E+04</pdfrwt>
<pdfrwt beam="2">  1       -2 0.92324406E-01 0.21784226E+04</pdfrwt>
<totfact> 0.62766431E+00</totfact>
</mgrwt>
</event>
<event>
12    1  0.1663913E-007  0.1173100E+04  0.7818608E-02  0.9136734E-01
          1   -1    0    0  501    0  0.00000000000E+00  0.00000000000E+00  0.78589736478E+03  0.78589736478E+03  0.00000000000E+00 0. -1.
         -1   -1    0    0    0  501 -0.00000000000E+00 -0.00000000000E+00 -0.43776786513E+03  0.43776786513E+03  0.00000000000E+00 0.  1.
         23    2    1    2    0    0  0.91160266951E+02 -0.12562058492E+02  0.28193488631E+03  0.31096230118E+03  0.93500123265E+02 0.  0.
        254    2    1    2    0    0 -0.91160266951E+02  0.12562058492E+02  0.66194613346E+02  0.91270292873E+03  0.90563619058E+03 0.  0.
        -24    2    4    4    0    0  0.16889347585E+03 -0.10633368513E+03  0.40802367618E+03  0.46094825832E+03  0.78473675500E+02 0.  0.
         24    2    4    4    0    0 -0.26005374281E+03  0.11889574362E+03 -0.34182906284E+03  0.45175467041E+03  0.73966391269E+02 0.  0.
         11    1    3    3    0    0  0.89510269821E+02  0.19634330616E+02  0.24687070706E+03  0.26333009958E+03  0.00000000000E+00 0. -1.
        -11    1    3    3    0    0  0.16499971298E+01 -0.32196389108E+02  0.35064179247E+02  0.47632201591E+02  0.00000000000E+00 0.  1.
          2    1    6    6  502    0 -0.20075913807E+02 -0.75595261655E+01 -0.43753564363E+02  0.48729489485E+02  0.00000000000E+00 0. -1.
          3    1    5    5  503    0  0.32505153452E+02 -0.44127862213E+02  0.17920526194E+03  0.18739898381E+03  0.00000000000E+00 0. -1.
         -4    1    5    5    0  503  0.13638832240E+03 -0.62205822915E+02  0.22881841424E+03  0.27354927451E+03  0.00000000000E+00 0.  1.
         -1    1    6    6    0  502 -0.23997782900E+03  0.12645526979E+03 -0.29807549847E+03  0.40302518092E+03  0.00000000000E+00 0.  1.
<mgrwt>
<rscale>  0 0.11730995E+04</rscale>
<asrwt>0</asrwt>
<pdfrwt beam="1">  1        1 0.12090729E+00 0.11730995E+04</pdfrwt>
<pdfrwt beam="2">  1       -1 0.67348902E-01 0.11730995E+04</pdfrwt>
<totfact> 0.50383040E+01</totfact>
</mgrwt>
</event>
<event>
12    1  0.1663913E-007  0.1541564E+04  0.7818608E-02  0.8857274E-01
         -1   -1    0    0    0  501 -0.00000000000E+00  0.00000000000E+00  0.35153123293E+03  0.35153123293E+03  0.00000000000E+00 0.  1.
          1   -1    0    0  501    0  0.00000000000E+00 -0.00000000000E+00 -0.16900486307E+04  0.16900486307E+04  0.00000000000E+00 0. -1.
         23    2    1    2    0    0  0.44244747188E+03 -0.22600313658E+03 -0.52199518969E+03  0.72636235722E+03  0.91028088067E+02 0.  0.
        254    2    1    2    0    0 -0.44244747188E+03  0.22600313658E+03 -0.81652220810E+03  0.13152175064E+04  0.90346631912E+03 0.  0.
        -24    2    4    4    0    0 -0.51219568418E+03 -0.20423066696E+03 -0.29348417288E+03  0.62974331446E+03  0.79931834430E+02 0.  0.
         24    2    4    4    0    0  0.69748212299E+02  0.43023380353E+03 -0.52303803521E+03  0.68547419197E+03  0.79625013359E+02 0.  0.
         13    1    3    3    0    0  0.31706037407E+03 -0.19093502043E+03 -0.42768449054E+03  0.56559480750E+03  0.00000000000E+00 0. -1.
        -13    1    3    3    0    0  0.12538709781E+03 -0.35068116144E+02 -0.94310699153E+02  0.16076754972E+03  0.00000000000E+00 0.  1.
          4    1    6    6  502    0  0.44700215253E+02  0.37788965035E+03 -0.41648047341E+03  0.56414065783E+03  0.00000000000E+00 0. -1.
          1    1    5    5  503    0 -0.28703979665E+03 -0.13171634149E+03 -0.20831166341E+03  0.37833158550E+03  0.00000000000E+00 0. -1.
         -2    1    5    5    0  503 -0.22515588753E+03 -0.72514325468E+02 -0.85172509475E+02  0.25141172896E+03  0.00000000000E+00 0.  1.
         -3    1    6    6    0  502  0.25047997046E+02  0.52344153179E+02 -0.10655756181E+03  0.12133353414E+03  0.00000000000E+00 0.  1.
<mgrwt>
<rscale>  0 0.15415640E+04</rscale>
<asrwt>0</asrwt>
<pdfrwt beam="1">  1        1 0.26000748E+00 0.15415640E+04</pdfrwt>
<pdfrwt beam="2">  1       -1 0.54081729E-01 0.15415640E+04</pdfrwt>
<totfact> 0.16112457E+01</totfact>
</mgrwt>
</event>
<event>
12    1  0.1663913E-007  0.1834906E+04  0.7818608E-02  0.8687954E-01
         -2   -1    0    0    0  501 -0.00000000000E+00  0.00000000000E+00  0.19248606624E+04  0.19248606624E+04  0.00000000000E+00 0.  1.
          2   -1    0    0  501    0  0.00000000000E+00 -0.00000000000E+00 -0.43728896390E+03  0.43728896390E+03  0.00000000000E+00 0. -1.
         23    2    1    2    0    0 -0.40443524752E+03  0.49628650468E+03  0.22541721317E+03  0.68480964110E+03  0.91011869504E+02 0.  0.
        254    2    1    2    0    0  0.40443524752E+03 -0.49628650468E+03  0.12621544854E+04  0.16773399852E+04  0.90031512092E+03 0.  0.
        -24    2    4    4    0    0  0.41374338454E+03 -0.69599506099E+03  0.12066499545E+04  0.14550536637E+04  0.74728430579E+02 0.  0.
         24    2    4    4    0    0 -0.93081370207E+01  0.19970855631E+03  0.55504530848E+02  0.22228632153E+03  0.79751532397E+02 0.  0.
         11    1    3    3    0    0 -0.97373548186E+02  0.10208075940E+03  0.89130695185E+02  0.16687231691E+03  0.00000000000E+00 0.  1.
        -11    1    3    3    0    0 -0.30706169933E+03  0.39420574528E+03  0.13628651798E+03  0.51793732419E+03  0.00000000000E+00 0. -1.
          4    1    6    6  502    0  0.24127907235E+02  0.19663655183E+02  0.15807289012E+02  0.34909678151E+02  0.00000000000E+00 0. -1.
          1    1    5    5  503    0  0.43597904445E+02 -0.52188186480E+02  0.13611660260E+03  0.15215818606E+03  0.00000000000E+00 0. -1.
         -2    1    5    5    0  503  0.37014548009E+03 -0.64380687451E+03  0.10705333519E+04  0.13028954776E+04  0.00000000000E+00 0.  1.
         -3    1    6    6    0  502 -0.33436044256E+02  0.18004490112E+03  0.39697241836E+02  0.18737664338E+03  0.00000000000E+00 0.  1.
<mgrwt>
<rscale>  0 0.18349063E+04</rscale>
<asrwt>0</asrwt>
<pdfrwt beam="1">  1        2 0.67275227E-01 0.18349063E+04</pdfrwt>
<pdfrwt beam="2">  1       -2 0.29613240E+00 0.18349063E+04</pdfrwt>
<totfact> 0.22740161E+00</totfact>
</mgrwt>
</event>
<event>
12    1  0.1663913E-007  0.1648434E+04  0.7818608E-02  0.8791334E-01
          2   -1    0    0  501    0  0.00000000000E+00  0.00000000000E+00  0.16422667141E+04  0.16422667141E+04  0.00000000000E+00 0. -1.
         -2   -1    0    0    0  501 -0.00000000000E+00 -0.00000000000E+00 -0.41365601934E+03  0.41365601934E+03  0.00000000000E+00 0.  1.
         23    2    1    2    0    0 -0.89534371628E+02  0.27006768431E+02 -0.27328392557E+03  0.30291318036E+03  0.91249775997E+02 0.  0.
        254    2    1    2    0    0  0.89534371628E+02 -0.27006768431E+02  0.15018946203E+04  0.17530095531E+04  0.89922704215E+03 0.  0.
        -24    2    4    4    0    0  0.43374526792E+02  0.39969250975E+03  0.42341117929E+03  0.58943124021E+03  0.80726131196E+02 0.  0.
         24    2    4    4    0    0  0.46159844836E+02 -0.42669927818E+03  0.10784834411E+04  0.11635783129E+04  0.81147718932E+02 0.  0.
         13    1    3    3    0    0 -0.61873186016E+02  0.55967456671E+01 -0.25686724231E+03  0.26427333366E+03  0.00000000000E+00 0.  1.
        -13    1    3    3    0    0 -0.27661185612E+02  0.21410022764E+02 -0.16416683257E+02  0.38639846705E+02  0.00000000000E+00 0. -1.
          4    1    6    6  502    0  0.55847547375E+02 -0.41361938114E+03  0.10032644741E+04  0.10866183995E+04  0.00000000000E+00 0. -1.
          3    1    5    5  503    0  0.35942086205E+02  0.35352263428E+03  0.40597119602E+03  0.53952080452E+03  0.00000000000E+00 0. -1.
         -2    1    5    5    0  503  0.74324405869E+01  0.46169875471E+02  0.17439983267E+02  0.49910435687E+02  0.00000000000E+00 0.  1.
         -3    1    6    6    0  502 -0.96877025397E+01 -0.13079897045E+02  0.75218966923E+02  0.76959913410E+02  0.00000000000E+00 0.  1.
<mgrwt>
<rscale>  0 0.16484338E+04</rscale>
<asrwt>0</asrwt>
<pdfrwt beam="1">  1        2 0.25265642E+00 0.16484338E+04</pdfrwt>
<pdfrwt beam="2">  1       -2 0.63639388E-01 0.16484338E+04</pdfrwt>
<totfact> 0.23049133E+01</totfact>
</mgrwt>
</event>
<event>
12    1  0.1663913E-007  0.9826854E+03  0.7818608E-02  0.9327742E-01
         -2   -1    0    0    0  501 -0.00000000000E+00  0.00000000000E+00  0.91762124521E+02  0.91762124521E+02  0.00000000000E+00 0.  1.
          2   -1    0    0  501    0  0.00000000000E+00 -0.00000000000E+00 -0.26309073970E+04  0.26309073970E+04  0.00000000000E+00 0. -1.
         23    2    1    2    0    0 -0.34755547306E+02  0.70855822408E+02 -0.82342247536E+03  0.83245555946E+03  0.93430133822E+02 0.  0.
        254    2    1    2    0    0  0.34755547306E+02 -0.70855822408E+02 -0.17157227972E+04  0.18902139621E+04  0.78928804008E+03 0.  0.
        -24    2    4    4    0    0  0.33410915290E+03  0.81286361668E+02 -0.13153081809E+04  0.13616860372E+04  0.76921092469E+02 0.  0.
         24    2    4    4    0    0 -0.29935360559E+03 -0.15214218408E+03 -0.40041461627E+03  0.52852792494E+03  0.79057429490E+02 0.  0.
         13    1    3    3    0    0 -0.26694352285E+02  0.81235981705E+02 -0.40989170226E+03  0.41871599055E+03  0.00000000000E+00 0. -1.
        -13    1    3    3    0    0 -0.80611950213E+01 -0.10380159298E+02 -0.41353077310E+03  0.41373956890E+03  0.00000000000E+00 0.  1.
          4    1    6    6  502    0 -0.19447974265E+03 -0.91703076115E+02 -0.31077935965E+03  0.37790955910E+03  0.00000000000E+00 0. -1.
          1    1    5    5  503    0  0.28176432779E+03  0.43918510712E+02 -0.99889779919E+03  0.10388054607E+04  0.00000000000E+00 0. -1.
         -2    1    5    5    0  503  0.52344825106E+02  0.37367850956E+02 -0.31641038170E+03  0.32288057645E+03  0.00000000000E+00 0.  1.
         -3    1    6    6    0  502 -0.10487386294E+03 -0.60439107961E+02 -0.89635256622E+02  0.15061836584E+03  0.00000000000E+00 0.  1.
<mgrwt>
<rscale>  0 0.98268541E+03</rscale>
<asrwt>0</asrwt>
<pdfrwt beam="1">  1        2 0.40475494E+00 0.98268541E+03</pdfrwt>
<pdfrwt beam="2">  1       -2 0.14117252E-01 0.98268541E+03</pdfrwt>
<totfact> 0.11528376E+02</totfact>
</mgrwt>
</event>
<event>
12    1  0.1663913E-007  0.1286965E+04  0.7818608E-02  0.9039966E-01
         -2   -1    0    0    0  501 -0.00000000000E+00  0.00000000000E+00  0.24549919641E+03  0.24549919641E+03  0.00000000000E+00 0.  1.
          2   -1    0    0  501    0  0.00000000000E+00 -0.00000000000E+00 -0.16866448142E+04  0.16866448142E+04  0.00000000000E+00 0. -1.
         23    2    1    2    0    0 -0.16766917045E+03 -0.21204028712E+03 -0.63473165123E+03  0.69613023485E+03  0.92946224821E+02 0.  0.
        254    2    1    2    0    0  0.16766917045E+03  0.21204028712E+03 -0.80641396653E+03  0.12360137757E+04  0.89685703114E+03 0.  0.
        -24    2    4    4    0    0  0.39273569948E+03  0.12826037441E+02 -0.32633027651E+02  0.40211946980E+03  0.78926019918E+02 0.  0.
         24    2    4    4    0    0 -0.22506652903E+03  0.19921424968E+03 -0.77378093888E+03  0.83389430593E+03  0.79382065489E+02 0.  0.
         11    1    3    3    0    0 -0.72191502846E+02 -0.13524861385E+03 -0.44115143864E+03  0.46703146837E+03  0.00000000000E+00 0. -1.
        -11    1    3    3    0    0 -0.95477667600E+02 -0.76791673272E+02 -0.19358021259E+03  0.22909876648E+03  0.00000000000E+00 0.  1.
          4    1    6    6  502    0 -0.11229042957E+03  0.11975080458E+03 -0.51646964103E+03  0.54193199377E+03  0.00000000000E+00 0. -1.
          1    1    5    5  503    0  0.23096405564E+03  0.21311791622E+02  0.17340184089E+02  0.23259249653E+03  0.00000000000E+00 0. -1.
         -2    1    5    5    0  503  0.16177164384E+03 -0.84857541813E+01 -0.49973211740E+02  0.16952697327E+03  0.00000000000E+00 0.  1.
         -3    1    6    6    0  502 -0.11277609947E+03  0.79463445105E+02 -0.25731129785E+03  0.29196231216E+03  0.00000000000E+00 0.  1.
<mgrwt>
<rscale>  0 0.12869653E+04</rscale>
<asrwt>0</asrwt>
<pdfrwt beam="1">  1        2 0.25948381E+00 0.12869653E+04</pdfrwt>
<pdfrwt beam="2">  1       -2 0.37769109E-01 0.12869653E+04</pdfrwt>
<totfact> 0.64727865E+01</totfact>
</mgrwt>
</event>
<event>
12    1  0.1663913E-007  0.1634370E+04  0.7818608E-02  0.8799707E-01
          3   -1    0    0  501    0  0.00000000000E+00  0.00000000000E+00  0.15823291955E+04  0.15823291955E+04  0.00000000000E+00 0. -1.
         -3   -1    0    0    0  501 -0.00000000000E+00 -0.00000000000E+00 -0.42203038782E+03  0.42203038782E+03  0.00000000000E+00 0.  1.
         23    2    1    2    0    0  0.12721298165E+03  0.55329362857E+03  0.45354515080E+03  0.73242575587E+03  0.91800337317E+02 0.  0.
        254    2    1    2    0    0 -0.12721298165E+03 -0.55329362857E+03  0.70675365688E+03  0.12719338275E+04  0.89218717083E+03 0.  0.
        -24    2    4    4    0    0 -0.49543702787E+02  0.23795335068E+03  0.16167154165E+03  0.30470198824E+03  0.87345513162E+02 0.  0.
         24    2    4    4    0    0 -0.77669278867E+02 -0.79124697925E+03  0.54508211523E+03  0.96723183922E+03  0.79489744013E+02 0.  0.
         11    1    3    3    0    0  0.12042793833E+02  0.12921355428E+03  0.14996685462E+03  0.19832102505E+03  0.00000000000E+00 0.  1.
        -11    1    3    3    0    0  0.11517018782E+03  0.42408007429E+03  0.30357829618E+03  0.53410473082E+03  0.00000000000E+00 0. -1.
          2    1    6    6  502    0 -0.42236499447E+02 -0.50309029461E+03  0.29982892765E+03  0.58718068111E+03  0.00000000000E+00 0. -1.
          1    1    5    5  503    0 -0.34070315077E+02  0.21265467626E+02  0.16492629146E+02  0.43416739847E+02  0.00000000000E+00 0. -1.
         -2    1    5    5    0  503 -0.15473387710E+02  0.21668788306E+03  0.14517891250E+03  0.26128524839E+03  0.00000000000E+00 0.  1.
         -1    1    6    6    0  502 -0.35432779420E+02 -0.28815668464E+03  0.24525318758E+03  0.38005115811E+03  0.00000000000E+00 0.  1.
<mgrwt>
<rscale>  0 0.16343696E+04</rscale>
<asrwt>0</asrwt>
<pdfrwt beam="1">  1        3 0.24343526E+00 0.16343696E+04</pdfrwt>
<pdfrwt beam="2">  1       -3 0.64927753E-01 0.16343696E+04</pdfrwt>
<totfact> 0.46388919E-01</totfact>
</mgrwt>
</event>
<event>
12    1  0.1663913E-007  0.1843028E+04  0.7818608E-02  0.8683746E-01
          2   -1    0    0  501    0  0.00000000000E+00  0.00000000000E+00  0.16876955408E+04  0.16876955408E+04  0.00000000000E+00 0. -1.
         -2   -1    0    0    0  501 -0.00000000000E+00 -0.00000000000E+00 -0.50316450127E+03  0.50316450127E+03  0.00000000000E+00 0.  1.
         23    2    1    2    0    0 -0.11671597423E+03  0.67799702829E+03  0.30585234520E+03  0.75847136659E+03  0.91818123830E+02 0.  0.
        254    2    1    2    0    0  0.11671597423E+03 -0.67799702829E+03  0.87867869434E+03  0.14323886755E+04  0.89797465485E+03 0.  0.
        -24    2    4    4    0    0 -0.24590855829E+03 -0.50147232375E+03  0.85023035069E+03  0.10200390764E+04  0.75116959688E+02 0.  0.
         24    2    4    4    0    0  0.36262453252E+03 -0.17652470454E+03  0.28448343655E+02  0.41234959908E+03  0.81026913451E+02 0.  0.
         13    1    3    3    0    0 -0.41874012673E+02  0.48305446805E+03  0.22535476085E+03  0.53467730481E+03  0.00000000000E+00 0.  1.
        -13    1    3    3    0    0 -0.74841961558E+02  0.19494256024E+03  0.80497584356E+02  0.22379406179E+03  0.00000000000E+00 0. -1.
          4    1    6    6  502    0  0.27304052448E+03 -0.16343327585E+03  0.41379188033E+02  0.32089531138E+03  0.00000000000E+00 0. -1.
          1    1    5    5  503    0 -0.42070890329E+02 -0.16098400793E+03  0.23571871448E+03  0.28852924112E+03  0.00000000000E+00 0. -1.
         -2    1    5    5    0  503 -0.20383766796E+03 -0.34048831582E+03  0.61451163620E+03  0.73150983529E+03  0.00000000000E+00 0.  1.
         -3    1    6    6    0  502  0.89584008045E+02 -0.13091428691E+02 -0.12930844378E+02  0.91454287701E+02  0.00000000000E+00 0.  1.
<mgrwt>
<rscale>  0 0.18430285E+04</rscale>
<asrwt>0</asrwt>
<pdfrwt beam="1">  1        2 0.25964547E+00 0.18430285E+04</pdfrwt>
<pdfrwt beam="2">  1       -2 0.77409924E-01 0.18430285E+04</pdfrwt>
<totfact> 0.13948276E+01</totfact>
</mgrwt>
</event>
<event>
12    1  0.1663913E-007  0.1412324E+04  0.7818608E-02  0.8944946E-01
         -2   -1    0    0    0  501 -0.00000000000E+00  0.00000000000E+00  0.21454740185E+03  0.21454740185E+03  0.00000000000E+00 0. -1.
          2   -1    0    0  501    0  0.00000000000E+00 -0.00000000000E+00 -0.23242628622E+04  0.23242628622E+04  0.00000000000E+00 0.  1.
         23    2    1    2    0    0 -0.18534550051E+03 -0.34483092098E+03 -0.39935423132E+03  0.56685087921E+03  0.92600208238E+02 0.  0.
        254    2    1    2    0    0  0.18534550051E+03  0.34483092098E+03 -0.17103612291E+04  0.19719593849E+04  0.90001497936E+03 0.  0.
        -24    2    4    4    0    0  0.22737892004E+03 -0.17895207420E+03 -0.17326403278E+03  0.34572947346E+03  0.76048837102E+02 0.  0.
         24    2    4    4    0    0 -0.42033419534E+02  0.52378299517E+03 -0.15370971963E+04  0.16262299114E+04  0.76423161135E+02 0.  0.
         13    1    3    3    0    0 -0.11345433897E+03 -0.11618616861E+03 -0.17045319451E+03  0.23542600606E+03  0.00000000000E+00 0.  1.
        -13    1    3    3    0    0 -0.71891161534E+02 -0.22864475237E+03 -0.22890103680E+03  0.33142487315E+03  0.00000000000E+00 0. -1.
          4    1    6    6  502    0 -0.45669684570E+02  0.52490296694E+03 -0.15204734095E+04  0.16091762594E+04  0.00000000000E+00 0. -1.
          1    1    5    5  503    0  0.18091741488E+03 -0.11571293038E+03 -0.15584991311E+03  0.26534842882E+03  0.00000000000E+00 0. -1.
         -2    1    5    5    0  503  0.46461505164E+02 -0.63239143814E+02 -0.17414119669E+02  0.80381044633E+02  0.00000000000E+00 0.  1.
         -3    1    6    6    0  502  0.36362650363E+01 -0.11199717699E+01 -0.16623786796E+02  0.17053652032E+02  0.00000000000E+00 0.  1.
<mgrwt>
<rscale>  0 0.14123237E+04</rscale>
<asrwt>0</asrwt>
<pdfrwt beam="1">  1        2 0.35757890E+00 0.14123237E+04</pdfrwt>
<pdfrwt beam="2">  1       -2 0.33007293E-01 0.14123237E+04</pdfrwt>
<totfact> 0.36668749E+01</totfact>
</mgrwt>
</event>
<event>
12    1  0.1663913E-007  0.2024814E+04  0.7818608E-02  0.8595106E-01
         -2   -1    0    0    0  501 -0.00000000000E+00  0.00000000000E+00  0.11081181497E+04  0.11081181497E+04  0.00000000000E+00 0.  1.
          2   -1    0    0  501    0  0.00000000000E+00 -0.00000000000E+00 -0.92496284460E+03  0.92496284460E+03  0.00000000000E+00 0. -1.
         23    2    1    2    0    0 -0.63253665780E+03  0.67949054669E+02  0.57227494792E+03  0.86050917788E+03  0.90872062285E+02 0.  0.
        254    2    1    2    0    0  0.63253665780E+03 -0.67949054669E+02 -0.38911964279E+03  0.11725718165E+04  0.90487063764E+03 0.  0.
        -24    2    4    4    0    0 -0.12699062101E+03 -0.35046568923E+02 -0.37808083923E+03  0.40801574676E+03  0.78592930908E+02 0.  0.
         24    2    4    4    0    0  0.75952727881E+03 -0.32902485746E+02 -0.11038803553E+02  0.76455606971E+03  0.80373302282E+02 0.  0.
         13    1    3    3    0    0 -0.19456651228E+03  0.43122834605E+02  0.13226457407E+03  0.23918533425E+03  0.00000000000E+00 0. -1.
        -13    1    3    3    0    0 -0.43797014552E+03  0.24826220065E+02  0.44001037384E+03  0.62132384363E+03  0.00000000000E+00 0.  1.
          2    1    6    6  502    0  0.65510159002E+03 -0.41758196894E+01 -0.23502837643E+02  0.65553635604E+03  0.00000000000E+00 0. -1.
          3    1    5    5  503    0 -0.11267222776E+03 -0.44698596165E+02 -0.36921774767E+03  0.38860615101E+03  0.00000000000E+00 0. -1.
         -4    1    5    5    0  503 -0.14318393248E+02  0.96520272417E+01 -0.88630915661E+01  0.19409595750E+02  0.00000000000E+00 0.  1.
         -1    1    6    6    0  502  0.10442568879E+03 -0.28726666056E+02  0.12464034090E+02  0.10901971367E+03  0.00000000000E+00 0.  1.
<mgrwt>
<rscale>  0 0.20248142E+04</rscale>
<asrwt>0</asrwt>
<pdfrwt beam="1">  1        2 0.14230198E+00 0.20248142E+04</pdfrwt>
<pdfrwt beam="2">  1       -2 0.17047972E+00 0.20248142E+04</pdfrwt>
<totfact> 0.55293172E+00</totfact>
</mgrwt>
</event>
<event>
12    1  0.1663913E-007  0.1290483E+04  0.7818608E-02  0.9037146E-01
          1   -1    0    0  501    0  0.00000000000E+00  0.00000000000E+00  0.27839286567E+04  0.27839286567E+04  0.00000000000E+00 0. -1.
         -1   -1    0    0    0  501 -0.00000000000E+00 -0.00000000000E+00 -0.14955003428E+03  0.14955003428E+03  0.00000000000E+00 0.  1.
         23    2    1    2    0    0 -0.25663705133E+03  0.94494377270E+02  0.29411721452E+03  0.41164028638E+03  0.90283032975E+02 0.  0.
        254    2    1    2    0    0  0.25663705133E+03 -0.94494377270E+02  0.23402614079E+04  0.25218384046E+04  0.89891808203E+03 0.  0.
        -24    2    4    4    0    0 -0.85429318885E+02 -0.34466451240E+03  0.42929485405E+03  0.56298284830E+03  0.81017412526E+02 0.  0.
         24    2    4    4    0    0  0.34206637021E+03  0.25017013513E+03  0.19109665538E+04  0.19588555563E+04  0.75679735764E+02 0.  0.
         11    1    3    3    0    0 -0.33993494440E+02 -0.13974175741E+00  0.45227459300E+01  0.34293329129E+02  0.00000000000E+00 0. -1.
        -11    1    3    3    0    0 -0.22264355689E+03  0.94634119027E+02  0.28959446859E+03  0.37734695725E+03  0.00000000000E+00 0.  1.
          4    1    6    6  502    0  0.20246684173E+03  0.11445406359E+03  0.11579536587E+04  0.11810796884E+04  0.00000000000E+00 0. -1.
          3    1    5    5  503    0 -0.79444250180E+02 -0.22475206224E+03  0.23603871048E+03  0.33546855473E+03  0.00000000000E+00 0. -1.
         -4    1    5    5    0  503 -0.59850687044E+01 -0.11991245017E+03  0.19325614358E+03  0.22751429358E+03  0.00000000000E+00 0.  1.
         -3    1    6    6    0  502  0.13959952848E+03  0.13571607154E+03  0.75301289514E+03  0.77777586789E+03  0.00000000000E+00 0.  1.
<mgrwt>
<rscale>  0 0.12904831E+04</rscale>
<asrwt>0</asrwt>
<pdfrwt beam="1">  1        1 0.42829668E+00 0.12904831E+04</pdfrwt>
<pdfrwt beam="2">  1       -1 0.23007700E-01 0.12904831E+04</pdfrwt>
<totfact> 0.13687161E+01</totfact>
</mgrwt>
</event>
<event>
12    1  0.1663913E-007  0.2259149E+04  0.7818608E-02  0.8494204E-01
          2   -1    0    0  501    0  0.00000000000E+00  0.00000000000E+00  0.21795709918E+04  0.21795709918E+04  0.00000000000E+00 0. -1.
         -2   -1    0    0    0  501 -0.00000000000E+00 -0.00000000000E+00 -0.58540819961E+03  0.58540819961E+03  0.00000000000E+00 0.  1.
         23    2    1    2    0    0  0.32008811999E+03 -0.24955557536E+03 -0.37527658599E+03  0.55999609894E+03  0.89603153340E+02 0.  0.
        254    2    1    2    0    0 -0.32008811999E+03  0.24955557536E+03  0.19694393782E+04  0.22049830924E+04  0.90472348481E+03 0.  0.
        -24    2    4    4    0    0 -0.61750973236E+03  0.82406206654E+02  0.10983984920E+04  0.12659300952E+04  0.89390749616E+02 0.  0.
         24    2    4    4    0    0  0.29742161237E+03  0.16714936871E+03  0.87104088616E+03  0.93905299729E+03  0.81913243142E+02 0.  0.
         13    1    3    3    0    0  0.57767461167E+02 -0.62286067325E+02 -0.36700819309E+02  0.92539634160E+02  0.00000000000E+00 0. -1.
        -13    1    3    3    0    0  0.26232065882E+03 -0.18726950803E+03 -0.33857576668E+03  0.46745646479E+03  0.00000000000E+00 0.  1.
          4    1    6    6  502    0  0.88885084652E+02  0.51722674971E+02  0.37297939950E+03  0.38689717733E+03  0.00000000000E+00 0. -1.
          1    1    5    5  503    0 -0.56037815189E+03  0.10012845055E+03  0.98217845120E+03  0.11352197539E+04  0.00000000000E+00 0. -1.
         -2    1    5    5    0  503 -0.57131580468E+02 -0.17722243899E+02  0.11622004081E+03  0.13071034121E+03  0.00000000000E+00 0.  1.
         -3    1    6    6    0  502  0.20853652772E+03  0.11542669373E+03  0.49806148666E+03  0.55215581996E+03  0.00000000000E+00 0.  1.
<mgrwt>
<rscale>  0 0.22591492E+04</rscale>
<asrwt>0</asrwt>
<pdfrwt beam="1">  1        2 0.33531861E+00 0.22591492E+04</pdfrwt>
<pdfrwt beam="2">  1       -2 0.90062801E-01 0.22591492E+04</pdfrwt>
<totfact> 0.50882987E+00</totfact>
</mgrwt>
</event>
<event>
12    1  0.1663913E-007  0.1611992E+04  0.7818608E-02  0.8813215E-01
         -2   -1    0    0    0  501 -0.00000000000E+00  0.00000000000E+00  0.24707828980E+03  0.24707828980E+03  0.00000000000E+00 0.  1.
          2   -1    0    0  501    0  0.00000000000E+00 -0.00000000000E+00 -0.26292443885E+04  0.26292443885E+04  0.00000000000E+00 0. -1.
         23    2    1    2    0    0 -0.58177981072E+02 -0.22507150712E+03 -0.17439377827E+04  0.17617736388E+04  0.92116793332E+02 0.  0.
        254    2    1    2    0    0  0.58177981072E+02  0.22507150712E+03 -0.63822831602E+03  0.11145490395E+04  0.88365282625E+03 0.  0.
        -24    2    4    4    0    0  0.10878017225E+03 -0.31204477521E+03 -0.11580311606E+03  0.35896804620E+03  0.79010308772E+02 0.  0.
         24    2    4    4    0    0 -0.50602191177E+02  0.53711628233E+03 -0.52242519996E+03  0.75558099332E+03  0.83186930580E+02 0.  0.
         13    1    3    3    0    0  0.14148221343E+02 -0.89861810124E+02 -0.84131797288E+03  0.84622174905E+03  0.00000000000E+00 0. -1.
        -13    1    3    3    0    0 -0.72326202415E+02 -0.13520969699E+03 -0.90261980979E+03  0.91555188970E+03  0.00000000000E+00 0.  1.
          4    1    6    6  502    0 -0.13928612721E+02  0.46267929497E+03 -0.44256498920E+03  0.64041385519E+03  0.00000000000E+00 0. -1.
          3    1    5    5  503    0  0.11677957876E+03 -0.23610954545E+03 -0.88635890983E+02  0.27792356618E+03  0.00000000000E+00 0. -1.
         -4    1    5    5    0  503 -0.79994065090E+01 -0.75935229765E+02 -0.27167225076E+02  0.81044480024E+02  0.00000000000E+00 0.  1.
         -3    1    6    6    0  502 -0.36673578456E+02  0.74436987357E+02 -0.79860210759E+02  0.11516713813E+03  0.00000000000E+00 0.  1.
<mgrwt>
<rscale>  0 0.16119916E+04</rscale>
<asrwt>0</asrwt>
<pdfrwt beam="1">  1        2 0.40449916E+00 0.16119916E+04</pdfrwt>
<pdfrwt beam="2">  1       -2 0.38012043E-01 0.16119916E+04</pdfrwt>
<totfact> 0.18359353E+01</totfact>
</mgrwt>
</event>
<event>
12    1  0.1663913E-007  0.1347725E+04  0.7818608E-02  0.8992552E-01
          1   -1    0    0  501    0  0.00000000000E+00  0.00000000000E+00  0.60959205668E+03  0.60959205668E+03  0.00000000000E+00 0. -1.
         -1   -1    0    0    0  501 -0.00000000000E+00 -0.00000000000E+00 -0.74490938396E+03  0.74490938396E+03  0.00000000000E+00 0.  1.
         23    2    1    2    0    0 -0.16046529083E+03  0.10999767659E+03  0.28014920501E+03  0.35316446264E+03  0.91613111415E+02 0.  0.
        254    2    1    2    0    0  0.16046529083E+03 -0.10999767659E+03 -0.41546653229E+03  0.10013369780E+04  0.89006443905E+03 0.  0.
        -24    2    4    4    0    0 -0.10172278155E+03  0.30817121945E+03  0.24277098048E+02  0.33564354764E+03  0.82159532624E+02 0.  0.
         24    2    4    4    0    0  0.26218807238E+03 -0.41816889603E+03 -0.43974363034E+03  0.66569343037E+03  0.78520518986E+02 0.  0.
         11    1    3    3    0    0 -0.15360853707E+03  0.11946223695E+03  0.28059582705E+03  0.34146863234E+03  0.00000000000E+00 0. -1.
        -11    1    3    3    0    0 -0.68567537583E+01 -0.94645603641E+01 -0.44662203243E+00  0.11695830292E+02  0.00000000000E+00 0.  1.
          2    1    6    6  502    0  0.25649788451E+03 -0.42119414459E+03 -0.43594678622E+03  0.65821369828E+03  0.00000000000E+00 0. -1.
          3    1    5    5  503    0 -0.10291015978E+03  0.19995625242E+03  0.31986397745E+02  0.22714782303E+03  0.00000000000E+00 0. -1.
         -2    1    5    5    0  503  0.11873782347E+01  0.10821496703E+03 -0.77092996968E+01  0.10849572461E+03  0.00000000000E+00 0.  1.
         -1    1    6    6    0  502  0.56901878712E+01  0.30252485509E+01 -0.37968441170E+01  0.74797320843E+01  0.00000000000E+00 0.  1.
<mgrwt>
<rscale>  0 0.13477253E+04</rscale>
<asrwt>0</asrwt>
<pdfrwt beam="1">  1        1 0.93783393E-01 0.13477253E+04</pdfrwt>
<pdfrwt beam="2">  1       -1 0.11460144E+00 0.13477253E+04</pdfrwt>
<totfact> 0.22688493E+01</totfact>
</mgrwt>
</event>
<event>
12    1  0.1663913E-007  0.1511791E+04  0.7818608E-02  0.8876649E-01
         -2   -1    0    0    0  501 -0.00000000000E+00  0.00000000000E+00  0.75611400991E+03  0.75611400991E+03  0.00000000000E+00 0.  1.
          2   -1    0    0  501    0  0.00000000000E+00 -0.00000000000E+00 -0.75567755281E+03  0.75567755281E+03  0.00000000000E+00 0. -1.
         23    2    1    2    0    0 -0.35322661372E+03  0.68370166945E+02 -0.32221051823E+03  0.49154419438E+03  0.91392322468E+02 0.  0.
        254    2    1    2    0    0  0.35322661372E+03 -0.68370166945E+02  0.32264697532E+03  0.10202473683E+04  0.89853219284E+03 0.  0.
        -24    2    4    4    0    0 -0.16112311940E+03  0.28347537326E+03  0.70236535653E+02  0.34303315266E+03  0.80122568810E+02 0.  0.
         24    2    4    4    0    0  0.51434973311E+03 -0.35184554020E+03  0.25241043967E+03  0.67721421569E+03  0.80976118471E+02 0.  0.
         11    1    3    3    0    0 -0.28233373730E+02  0.24630993042E+02 -0.10032747837E+02  0.38787436620E+02  0.00000000000E+00 0.  1.
        -11    1    3    3    0    0 -0.32499323999E+03  0.43739173902E+02 -0.31217777039E+03  0.45275675776E+03  0.00000000000E+00 0. -1.
          2    1    6    6  502    0  0.62631111713E+02 -0.72640100294E+02  0.22362985661E+02  0.98485244848E+02  0.00000000000E+00 0. -1.
          1    1    5    5  503    0 -0.59510570440E+02  0.47141747838E+02 -0.16079316255E+01  0.75937064912E+02  0.00000000000E+00 0. -1.
         -2    1    5    5    0  503 -0.10161254896E+03  0.23633362542E+03  0.71844467278E+02  0.26709608774E+03  0.00000000000E+00 0.  1.
         -1    1    6    6    0  502  0.45171862140E+03 -0.27920543991E+03  0.23004745401E+03  0.57872897084E+03  0.00000000000E+00 0.  1.
<mgrwt>
<rscale>  0 0.15117915E+04</rscale>
<asrwt>0</asrwt>
<pdfrwt beam="1">  1        2 0.11625808E+00 0.15117915E+04</pdfrwt>
<pdfrwt beam="2">  1       -2 0.11632523E+00 0.15117915E+04</pdfrwt>
<totfact> 0.20552066E+01</totfact>
</mgrwt>
</event>
<event>
12    1  0.1663913E-007  0.3467825E+04  0.7818608E-02  0.8121458E-01
          2   -1    0    0  501    0  0.00000000000E+00  0.00000000000E+00  0.20089722116E+04  0.20089722116E+04  0.00000000000E+00 0.  1.
         -2   -1    0    0    0  501 -0.00000000000E+00 -0.00000000000E+00 -0.14965129776E+04  0.14965129776E+04  0.00000000000E+00 0. -1.
         23    2    1    2    0    0 -0.27975682911E+03  0.15423947142E+04  0.65045365519E+03  0.16996752770E+04  0.92524330793E+02 0.  0.
        254    2    1    2    0    0  0.27975682911E+03 -0.15423947142E+04 -0.13799442125E+03  0.18058099122E+04  0.88581128956E+03 0.  0.
        -24    2    4    4    0    0 -0.25926735431E+03 -0.73863628228E+03  0.13101457325E+03  0.79784775482E+03  0.81197924600E+02 0.  0.
         24    2    4    4    0    0  0.53902418342E+03 -0.80375843194E+03 -0.26900899450E+03  0.10079621573E+04  0.83947509114E+02 0.  0.
         11    1    3    3    0    0 -0.11766964350E+03  0.85631556645E+03  0.32865811147E+03  0.92473706997E+03  0.00000000000E+00 0. -1.
        -11    1    3    3    0    0 -0.16208718561E+03  0.68607914777E+03  0.32179554373E+03  0.77493820702E+03  0.00000000000E+00 0.  1.
          4    1    6    6  502    0  0.40349750478E+03 -0.64554067079E+03 -0.23616591183E+03  0.79706168639E+03  0.00000000000E+00 0. -1.
          1    1    5    5  503    0 -0.19748819387E+03 -0.63305204950E+03  0.92278439124E+02  0.66953102573E+03  0.00000000000E+00 0. -1.
         -2    1    5    5    0  503 -0.61779160443E+02 -0.10558423278E+03  0.38736134131E+02  0.12831672909E+03  0.00000000000E+00 0.  1.
         -3    1    6    6    0  502  0.13552667864E+03 -0.15821776115E+03 -0.32843082669E+02  0.21090047095E+03  0.00000000000E+00 0.  1.
<mgrwt>
<rscale>  0 0.34678252E+04</rscale>
<asrwt>0</asrwt>
<pdfrwt beam="1">  1        2 0.30907265E+00 0.34678252E+04</pdfrwt>
<pdfrwt beam="2">  1       -2 0.23023276E+00 0.34678252E+04</pdfrwt>
<totfact> 0.46371519E-01</totfact>
</mgrwt>
</event>
<event>
12    1  0.1663913E-007  0.1471572E+04  0.7818608E-02  0.8903581E-01
          1   -1    0    0  501    0  0.00000000000E+00  0.00000000000E+00  0.17885225026E+04  0.17885225026E+04  0.00000000000E+00 0. -1.
         -1   -1    0    0    0  501 -0.00000000000E+00 -0.00000000000E+00 -0.30269717889E+03  0.30269717889E+03  0.00000000000E+00 0.  1.
         23    2    1    2    0    0 -0.85792779769E+02 -0.18224803863E+03 -0.11196102090E+03  0.24884471208E+03  0.93881158310E+02 0.  0.
        254    2    1    2    0    0  0.85792779769E+02  0.18224803863E+03  0.15977863447E+04  0.18423749695E+04  0.89490199253E+03 0.  0.
        -24    2    4    4    0    0  0.42321805051E+03  0.75841143666E+02  0.13037737241E+04  0.13751846477E+04  0.80258920188E+02 0.  0.
         24    2    4    4    0    0 -0.33742527074E+03  0.10640689497E+03  0.29401262054E+03  0.46719032174E+03  0.81517697805E+02 0.  0.
         13    1    3    3    0    0 -0.86721114869E+02 -0.18290996172E+03 -0.12358132317E+03  0.23716860943E+03  0.00000000000E+00 0.  1.
        -13    1    3    3    0    0  0.92833509962E+00  0.66192308597E+00  0.11620302277E+02  0.11676102656E+02  0.00000000000E+00 0. -1.
          2    1    6    6  502    0 -0.17517493185E+03  0.50909076436E+02  0.20347791850E+03  0.27327871145E+03  0.00000000000E+00 0. -1.
          3    1    5    5  503    0  0.25792913524E+03  0.23422226564E+02  0.67638502458E+03  0.72427394057E+03  0.00000000000E+00 0. -1.
         -4    1    5    5    0  503  0.16528891527E+03  0.52418917102E+02  0.62738869953E+03  0.65091070715E+03  0.00000000000E+00 0.  1.
         -1    1    6    6    0  502 -0.16225033889E+03  0.55497818530E+02  0.90534702043E+02  0.19391161029E+03  0.00000000000E+00 0.  1.
<mgrwt>
<rscale>  0 0.14715716E+04</rscale>
<asrwt>0</asrwt>
<pdfrwt beam="1">  1        1 0.27515730E+00 0.14715716E+04</pdfrwt>
<pdfrwt beam="2">  1       -1 0.46568798E-01 0.14715716E+04</pdfrwt>
<totfact> 0.18473536E+01</totfact>
</mgrwt>
</event>
<event>
12    1  0.1663913E-007  0.1451274E+04  0.7818608E-02  0.8917518E-01
          2   -1    0    0  501    0  0.00000000000E+00  0.00000000000E+00  0.17329538662E+04  0.17329538662E+04  0.00000000000E+00 0. -1.
         -2   -1    0    0    0  501 -0.00000000000E+00 -0.00000000000E+00 -0.30384461191E+03  0.30384461191E+03  0.00000000000E+00 0.  1.
         23    2    1    2    0    0  0.17346807525E+03 -0.33997987059E+03  0.11219949984E+03  0.40814591968E+03  0.91196921245E+02 0.  0.
        254    2    1    2    0    0 -0.17346807525E+03  0.33997987059E+03  0.13169097545E+04  0.16286525585E+04  0.87896551080E+03 0.  0.
        -24    2    4    4    0    0 -0.20297213979E+03  0.56408471493E+03  0.12355312070E+04  0.13759716285E+04  0.85856297205E+02 0.  0.
         24    2    4    4    0    0  0.29504064537E+02 -0.22410484434E+03  0.81378547449E+02  0.25268092994E+03  0.78305257122E+02 0.  0.
         11    1    3    3    0    0  0.67342762194E+02 -0.13969693222E+03 -0.34186092682E+00  0.15508190533E+03  0.00000000000E+00 0. -1.
        -11    1    3    3    0    0  0.10612531306E+03 -0.20028293837E+03  0.11254136076E+03  0.25306401435E+03  0.00000000000E+00 0.  1.
          4    1    6    6  502    0  0.11349673442E+02 -0.22002343136E+03  0.71587759488E+02  0.23165477060E+03  0.00000000000E+00 0. -1.
          3    1    5    5  503    0 -0.16465617684E+03  0.48065395072E+03  0.96983163408E+03  0.10948576507E+04  0.00000000000E+00 0. -1.
         -4    1    5    5    0  503 -0.38315962950E+02  0.83430764208E+02  0.26569957295E+03  0.28111397777E+03  0.00000000000E+00 0.  1.
         -3    1    6    6    0  502  0.18154391094E+02 -0.40814129823E+01  0.97907879604E+01  0.21026159345E+02  0.00000000000E+00 0.  1.
<mgrwt>
<rscale>  0 0.14512735E+04</rscale>
<asrwt>0</asrwt>
<pdfrwt beam="1">  1        2 0.26660828E+00 0.14512735E+04</pdfrwt>
<pdfrwt beam="2">  1       -2 0.46745326E-01 0.14512735E+04</pdfrwt>
<totfact> 0.39547126E+01</totfact>
</mgrwt>
</event>
<event>
12    1  0.1663913E-007  0.2693538E+04  0.7818608E-02  0.8337105E-01
          1   -1    0    0  501    0  0.00000000000E+00  0.00000000000E+00  0.11295464563E+04  0.11295464563E+04  0.00000000000E+00 0. -1.
         -1   -1    0    0    0  501 -0.00000000000E+00 -0.00000000000E+00 -0.16057654453E+04  0.16057654453E+04  0.00000000000E+00 0.  1.
         23    2    1    2    0    0 -0.11794502512E+04 -0.11662655240E+03 -0.37650518336E+03  0.12466106274E+04  0.87047433001E+02 0.  0.
        254    2    1    2    0    0  0.11794502512E+04  0.11662655240E+03 -0.99713805632E+02  0.14887012742E+04  0.89531223207E+03 0.  0.
        -24    2    4    4    0    0  0.52279515314E+03  0.48404145139E+03  0.43070427378E+02  0.71845951789E+03  0.81964128308E+02 0.  0.
         24    2    4    4    0    0  0.65665509805E+03 -0.36741489899E+03 -0.14278423301E+03  0.77024175627E+03  0.81825424580E+02 0.  0.
         11    1    3    3    0    0 -0.83344908383E+03 -0.93237718408E+02 -0.22597897434E+03  0.86856038610E+03  0.00000000000E+00 0.  1.
        -11    1    3    3    0    0 -0.34600116736E+03 -0.23388833993E+02 -0.15052620902E+03  0.37805024134E+03  0.00000000000E+00 0. -1.
          2    1    6    6  502    0  0.31193045607E+03 -0.20230727778E+03 -0.36875418464E+02  0.37361563210E+03  0.00000000000E+00 0. -1.
          3    1    5    5  503    0  0.35512024678E+03  0.27501502142E+03  0.30664632822E+02  0.45020436625E+03  0.00000000000E+00 0. -1.
         -4    1    5    5    0  503  0.16767490636E+03  0.20902642997E+03  0.12405794556E+02  0.26825515165E+03  0.00000000000E+00 0.  1.
         -1    1    6    6    0  502  0.34472464198E+03 -0.16510762121E+03 -0.10590881455E+03  0.39662612416E+03  0.00000000000E+00 0.  1.
<mgrwt>
<rscale>  0 0.26935379E+04</rscale>
<asrwt>0</asrwt>
<pdfrwt beam="1">  1        1 0.17377638E+00 0.26935379E+04</pdfrwt>
<pdfrwt beam="2">  1       -1 0.24704083E+00 0.26935379E+04</pdfrwt>
<totfact> 0.76723352E-01</totfact>
</mgrwt>
</event>
<event>
12    1  0.1663913E-007  0.2606778E+04  0.7818608E-02  0.8365903E-01
         -1   -1    0    0    0  501 -0.00000000000E+00  0.00000000000E+00  0.42093878772E+03  0.42093878772E+03  0.00000000000E+00 0.  1.
          1   -1    0    0  501    0  0.00000000000E+00 -0.00000000000E+00 -0.40357954095E+04  0.40357954095E+04  0.00000000000E+00 0. -1.
         23    2    1    2    0    0  0.22951891435E+03 -0.11006128205E+04 -0.12196052920E+04  0.16612122263E+04  0.90340908739E+02 0.  0.
        254    2    1    2    0    0 -0.22951891435E+03  0.11006128205E+04 -0.23952513298E+04  0.27955219710E+04  0.90204581051E+03 0.  0.
        -24    2    4    4    0    0 -0.39062427151E+03  0.85706416687E+02 -0.76153605660E+03  0.86382821601E+03  0.79555703294E+02 0.  0.
         24    2    4    4    0    0  0.16110535716E+03  0.10149064038E+04 -0.16337152732E+04  0.19316937549E+04  0.80157496309E+02 0.  0.
         13    1    3    3    0    0  0.22138229665E+03 -0.10242820678E+04 -0.11014834054E+04  0.15203386360E+04  0.00000000000E+00 0.  1.
        -13    1    3    3    0    0  0.81366177031E+01 -0.76330752771E+02 -0.11812188655E+03  0.14087359031E+03  0.00000000000E+00 0. -1.
          2    1    6    6  502    0  0.84730345718E+02  0.29930337602E+03 -0.49105346350E+03  0.58128757633E+03  0.00000000000E+00 0. -1.
          3    1    5    5  503    0 -0.26059186802E+03  0.63937390099E+02 -0.42768208169E+03  0.50488421893E+03  0.00000000000E+00 0. -1.
         -4    1    5    5    0  503 -0.13003240349E+03  0.21769026588E+02 -0.33385397491E+03  0.35894399708E+03  0.00000000000E+00 0.  1.
         -1    1    6    6    0  502  0.76375011441E+02  0.71560302782E+03 -0.11426618097E+04  0.13504061786E+04  0.00000000000E+00 0.  1.
<mgrwt>
<rscale>  0 0.26067780E+04</rscale>
<asrwt>0</asrwt>
<pdfrwt beam="1">  1        1 0.62089160E+00 0.26067780E+04</pdfrwt>
<pdfrwt beam="2">  1       -1 0.64759814E-01 0.26067780E+04</pdfrwt>
<totfact> 0.19017596E-01</totfact>
</mgrwt>
</event>
<event>
12    1  0.1663913E-007  0.2505517E+04  0.7818608E-02  0.8401023E-01
          2   -1    0    0  501    0  0.00000000000E+00  0.00000000000E+00  0.32753798293E+04  0.32753798293E+04  0.00000000000E+00 0. -1.
         -2   -1    0    0    0  501 -0.00000000000E+00 -0.00000000000E+00 -0.47915172106E+03  0.47915172106E+03  0.00000000000E+00 0.  1.
         23    2    1    2    0    0 -0.46396151711E+03  0.58873726113E+03  0.23000761794E+04  0.24208073721E+04  0.89922464795E+02 0.  0.
        254    2    1    2    0    0  0.46396151711E+03 -0.58873726113E+03  0.49615192880E+03  0.13337241782E+04  0.98528249510E+03 0.  0.
        -24    2    4    4    0    0  0.56707656600E+03 -0.43927009982E+03  0.73023870972E+03  0.10268879181E+04  0.81952247141E+02 0.  0.
         24    2    4    4    0    0 -0.10311504890E+03 -0.14946716132E+03 -0.23408678092E+03  0.30683626016E+03  0.79866913825E+02 0.  0.
         13    1    3    3    0    0 -0.28768863733E+03  0.40126146203E+03  0.16248202642E+04  0.16981803214E+04  0.00000000000E+00 0. -1.
        -13    1    3    3    0    0 -0.17627287977E+03  0.18747579910E+03  0.67525591516E+03  0.72262705066E+03  0.00000000000E+00 0.  1.
          2    1    6    6  502    0 -0.87785962194E+02 -0.99552947482E+02 -0.21204305108E+03  0.25015878961E+03  0.00000000000E+00 0. -1.
          1    1    5    5  503    0  0.46951490181E+03 -0.38294741871E+03  0.57679591005E+03  0.83653242040E+03  0.00000000000E+00 0. -1.
         -2    1    5    5    0  503  0.97561664188E+02 -0.56322681108E+02  0.15344279967E+03  0.19035549768E+03  0.00000000000E+00 0.  1.
         -1    1    6    6    0  502 -0.15329086703E+02 -0.49914213833E+02 -0.22043729845E+02  0.56677470544E+02  0.00000000000E+00 0.  1.
<mgrwt>
<rscale>  0 0.25055170E+04</rscale>
<asrwt>0</asrwt>
<pdfrwt beam="1">  1        2 0.50390458E+00 0.25055170E+04</pdfrwt>
<pdfrwt beam="2">  1       -2 0.73715651E-01 0.25055170E+04</pdfrwt>
<totfact> 0.17119313E+00</totfact>
</mgrwt>
</event>
<event>
12    1  0.1663913E-007  0.2792637E+04  0.7818608E-02  0.8305558E-01
          2   -1    0    0  501    0  0.00000000000E+00  0.00000000000E+00  0.19868646812E+04  0.19868646812E+04  0.00000000000E+00 0. -1.
         -2   -1    0    0    0  501 -0.00000000000E+00 -0.00000000000E+00 -0.98129773269E+03  0.98129773269E+03  0.00000000000E+00 0.  1.
         23    2    1    2    0    0 -0.98937170792E+03 -0.68043473447E+03  0.82055359712E+03  0.14571418428E+04  0.90035215224E+02 0.  0.
        254    2    1    2    0    0  0.98937170792E+03  0.68043473447E+03  0.18501335142E+03  0.15110205711E+04  0.89839046179E+03 0.  0.
        -24    2    4    4    0    0  0.33198133981E+03  0.50672409401E+03  0.46840024085E+03  0.76991104976E+03  0.79895691240E+02 0.  0.
         24    2    4    4    0    0  0.65739036811E+03  0.17371064046E+03 -0.28338688944E+03  0.74110952136E+03  0.81226294077E+02 0.  0.
         13    1    3    3    0    0 -0.77526997150E+03 -0.50909530598E+03  0.67133986952E+03  0.11449536146E+04  0.00000000000E+00 0. -1.
        -13    1    3    3    0    0 -0.21410173642E+03 -0.17133942849E+03  0.14921372760E+03  0.31218822815E+03  0.00000000000E+00 0.  1.
          2    1    6    6  502    0  0.18637050721E+02 -0.86020009876E+01 -0.83898014930E+01  0.22174824682E+02  0.00000000000E+00 0. -1.
          3    1    5    5  503    0  0.87547615194E+02  0.19662409992E+03  0.18594173458E+03  0.28442916562E+03  0.00000000000E+00 0. -1.
         -4    1    5    5    0  503  0.24443372461E+03  0.31009999409E+03  0.28245850627E+03  0.48548188414E+03  0.00000000000E+00 0.  1.
         -1    1    6    6    0  502  0.63875331739E+03  0.18231264145E+03 -0.27499708794E+03  0.71893469668E+03  0.00000000000E+00 0.  1.
<mgrwt>
<rscale>  0 0.27926373E+04</rscale>
<asrwt>0</asrwt>
<pdfrwt beam="1">  1        2 0.30567149E+00 0.27926373E+04</pdfrwt>
<pdfrwt beam="2">  1       -2 0.15096888E+00 0.27926373E+04</pdfrwt>
<totfact> 0.17425997E+00</totfact>
</mgrwt>
</event>
<event>
12    1  0.1663913E-007  0.2086418E+04  0.7818608E-02  0.8567250E-01
         -2   -1    0    0    0  501 -0.00000000000E+00  0.00000000000E+00  0.12671618445E+04  0.12671618445E+04  0.00000000000E+00 0.  1.
          2   -1    0    0  501    0  0.00000000000E+00 -0.00000000000E+00 -0.85883665409E+03  0.85883665409E+03  0.00000000000E+00 0. -1.
         23    2    1    2    0    0 -0.63703779442E+03  0.47196155953E+03  0.43508950323E+03  0.90896121512E+03  0.91338653324E+02 0.  0.
        254    2    1    2    0    0  0.63703779442E+03 -0.47196155953E+03 -0.26764312799E+02  0.12170372835E+04  0.92298350784E+03 0.  0.
        -24    2    4    4    0    0  0.29930866844E+02  0.17459990854E+03  0.21949397511E+03  0.29287025052E+03  0.78831425676E+02 0.  0.
         24    2    4    4    0    0  0.60710692757E+03 -0.64656146807E+03 -0.24625828791E+03  0.92416703296E+03  0.82589387575E+02 0.  0.
         13    1    3    3    0    0 -0.59043849031E+03  0.43392177637E+03  0.42750334238E+03  0.84833061161E+03  0.00000000000E+00 0.  1.
        -13    1    3    3    0    0 -0.46599304108E+02  0.38039783158E+02  0.75861608468E+01  0.60630603513E+02  0.00000000000E+00 0. -1.
          4    1    6    6  502    0  0.25925989564E+03 -0.22291491039E+03 -0.11223017283E+03  0.35986436674E+03  0.00000000000E+00 0. -1.
          3    1    5    5  503    0 -0.48452940536E+01  0.15141509003E+01  0.42774480660E+02  0.43074652908E+02  0.00000000000E+00 0. -1.
         -4    1    5    5    0  503  0.34776160898E+02  0.17308575764E+03  0.17671949445E+03  0.24979559761E+03  0.00000000000E+00 0.  1.
         -3    1    6    6    0  502  0.34784703194E+03 -0.42364655769E+03 -0.13402811508E+03  0.56430266622E+03  0.00000000000E+00 0.  1.
<mgrwt>
<rscale>  0 0.20864180E+04</rscale>
<asrwt>0</asrwt>
<pdfrwt beam="1">  1        2 0.13212872E+00 0.20864180E+04</pdfrwt>
<pdfrwt beam="2">  1       -2 0.19494798E+00 0.20864180E+04</pdfrwt>
<totfact> 0.41447575E+00</totfact>
</mgrwt>
</event>
<event>
12    1  0.1663913E-007  0.1543245E+04  0.7818608E-02  0.8856194E-01
          2   -1    0    0  501    0  0.00000000000E+00  0.00000000000E+00  0.14970290637E+04  0.14970290637E+04  0.00000000000E+00 0. -1.
         -2   -1    0    0    0  501 -0.00000000000E+00 -0.00000000000E+00 -0.39772210937E+03  0.39772210937E+03  0.00000000000E+00 0.  1.
         23    2    1    2    0    0 -0.21295060397E+03  0.33532042045E+03  0.69289451098E+03  0.80402976989E+03  0.92592242743E+02 0.  0.
        254    2    1    2    0    0  0.21295060397E+03 -0.33532042045E+03  0.40641244332E+03  0.10907214031E+04  0.93097495192E+03 0.  0.
        -24    2    4    4    0    0 -0.20282589827E+03 -0.12500492913E+03 -0.20080580773E+03  0.32112711942E+03  0.77685758619E+02 0.  0.
         24    2    4    4    0    0  0.41577650224E+03 -0.21031549132E+03  0.60721825105E+03  0.76959428373E+03  0.80365735466E+02 0.  0.
         13    1    3    3    0    0 -0.17314426652E+03  0.24393223954E+03  0.58559078372E+03  0.65757010310E+03  0.00000000000E+00 0. -1.
        -13    1    3    3    0    0 -0.39806337445E+02  0.91388180908E+02  0.10730372726E+03  0.14645966679E+03  0.00000000000E+00 0.  1.
          2    1    6    6  502    0  0.34834147459E+03 -0.17083186472E+03  0.54850900774E+03  0.67185373445E+03  0.00000000000E+00 0. -1.
          3    1    5    5  503    0 -0.98634063786E+02 -0.48256665145E+02 -0.45206131836E+02  0.11874754156E+03  0.00000000000E+00 0. -1.
         -4    1    5    5    0  503 -0.10419183449E+03 -0.76748263986E+02 -0.15559967589E+03  0.20237957786E+03  0.00000000000E+00 0.  1.
         -1    1    6    6    0  502  0.67435027648E+02 -0.39483626601E+02  0.58709243316E+02  0.97740549283E+02  0.00000000000E+00 0.  1.
<mgrwt>
<rscale>  0 0.15432454E+04</rscale>
<asrwt>0</asrwt>
<pdfrwt beam="1">  1        2 0.23031216E+00 0.15432454E+04</pdfrwt>
<pdfrwt beam="2">  1       -2 0.61188018E-01 0.15432454E+04</pdfrwt>
<totfact> 0.30485926E+01</totfact>
</mgrwt>
</event>
<event>
12    1  0.1663913E-007  0.2503587E+04  0.7818608E-02  0.8401709E-01
         -1   -1    0    0    0  501 -0.00000000000E+00  0.00000000000E+00  0.96450789232E+03  0.96450789232E+03  0.00000000000E+00 0.  1.
          1   -1    0    0  501    0  0.00000000000E+00 -0.00000000000E+00 -0.16246496600E+04  0.16246496600E+04  0.00000000000E+00 0. -1.
         23    2    1    2    0    0 -0.53811149501E+03 -0.68624017197E+03 -0.96064427703E+03  0.13006475957E+04  0.91417649315E+02 0.  0.
        254    2    1    2    0    0  0.53811149501E+03  0.68624017197E+03  0.30050250934E+03  0.12885099566E+04  0.89970361532E+03 0.  0.
        -24    2    4    4    0    0  0.43228895365E+03 -0.10351619426E+03  0.97460197194E+02  0.46210988920E+03  0.80359926192E+02 0.  0.
         24    2    4    4    0    0  0.10582254135E+03  0.78975636623E+03  0.20304231215E+03  0.82640006739E+03  0.82446119339E+02 0.  0.
         11    1    3    3    0    0 -0.49425280526E+03 -0.65333017600E+03 -0.92308310946E+03  0.12341833662E+04  0.00000000000E+00 0. -1.
        -11    1    3    3    0    0 -0.43858689742E+02 -0.32909995974E+02 -0.37561167570E+02  0.66464229553E+02  0.00000000000E+00 0.  1.
          2    1    6    6  502    0  0.30492618087E+01  0.24691053885E+03  0.38371198395E+02  0.24989289917E+03  0.00000000000E+00 0. -1.
          3    1    5    5  503    0  0.11890082237E+03 -0.58211139978E+02  0.60072933989E+01  0.13252180934E+03  0.00000000000E+00 0. -1.
         -4    1    5    5    0  503  0.31338813128E+03 -0.45305054280E+02  0.91452903795E+02  0.32958807986E+03  0.00000000000E+00 0.  1.
         -1    1    6    6    0  502  0.10277327954E+03  0.54284582738E+03  0.16467111375E+03  0.57650716821E+03  0.00000000000E+00 0.  1.
<mgrwt>
<rscale>  0 0.25035874E+04</rscale>
<asrwt>0</asrwt>
<pdfrwt beam="1">  1        1 0.24994610E+00 0.25035874E+04</pdfrwt>
<pdfrwt beam="2">  1       -1 0.14838583E+00 0.25035874E+04</pdfrwt>
<totfact> 0.17122005E+00</totfact>
</mgrwt>
</event>
<event>
12    1  0.1663913E-007  0.2478598E+04  0.7818608E-02  0.8410650E-01
         -2   -1    0    0    0  501 -0.00000000000E+00  0.00000000000E+00  0.40566432457E+03  0.40566432457E+03  0.00000000000E+00 0.  1.
          2   -1    0    0  501    0  0.00000000000E+00 -0.00000000000E+00 -0.37860428616E+04  0.37860428616E+04  0.00000000000E+00 0. -1.
         23    2    1    2    0    0 -0.83713690107E+02 -0.10703693947E+04 -0.14902632603E+04  0.18390312383E+04  0.91938498357E+02 0.  0.
        254    2    1    2    0    0  0.83713690107E+02  0.10703693947E+04 -0.18901152768E+04  0.23526759479E+04  0.89991651470E+03 0.  0.
        -24    2    4    4    0    0  0.42490336977E+03  0.71315799503E+03 -0.81241504610E+03  0.11643298214E+04  0.80675437748E+02 0.  0.
         24    2    4    4    0    0 -0.34118967966E+03  0.35721139963E+03 -0.10777002307E+04  0.11883461265E+04  0.81965527902E+02 0.  0.
         13    1    3    3    0    0 -0.17680496925E+02 -0.62123151559E+03 -0.80381573590E+03  0.10160516391E+04  0.00000000000E+00 0. -1.
        -13    1    3    3    0    0 -0.66033193182E+02 -0.44913787906E+03 -0.68644752436E+03  0.82297959920E+03  0.00000000000E+00 0.  1.
          4    1    6    6  502    0 -0.23455773984E+01 -0.44381588659E+01 -0.13694019366E+02  0.14585100406E+02  0.00000000000E+00 0. -1.
          3    1    5    5  503    0  0.45407277893E+02  0.37784797027E+02 -0.65696014908E+02  0.88348617119E+02  0.00000000000E+00 0. -1.
         -4    1    5    5    0  503  0.37949609188E+03  0.67537319800E+03 -0.74671903119E+03  0.10759812042E+04  0.00000000000E+00 0.  1.
         -3    1    6    6    0  502 -0.33884410226E+03  0.36164955849E+03 -0.10640062113E+04  0.11737610261E+04  0.00000000000E+00 0.  1.
<mgrwt>
<rscale>  0 0.24785984E+04</rscale>
<asrwt>0</asrwt>
<pdfrwt beam="1">  1        2 0.58246814E+00 0.24785984E+04</pdfrwt>
<pdfrwt beam="2">  1       -2 0.62409895E-01 0.24785984E+04</pdfrwt>
<totfact> 0.10738015E+00</totfact>
</mgrwt>
</event>
<event>
12    1  0.1663913E-007  0.1592715E+04  0.7818608E-02  0.8825036E-01
          1   -1    0    0  501    0  0.00000000000E+00  0.00000000000E+00  0.16042507622E+04  0.16042507622E+04  0.00000000000E+00 0. -1.
         -1   -1    0    0    0  501 -0.00000000000E+00 -0.00000000000E+00 -0.39531562536E+03  0.39531562536E+03  0.00000000000E+00 0.  1.
         23    2    1    2    0    0 -0.12441332404E+03 -0.51708586221E+03  0.24416494445E+03  0.59188243691E+03  0.88610580235E+02 0.  0.
        254    2    1    2    0    0  0.12441332404E+03  0.51708586221E+03  0.96477019241E+03  0.14076839507E+04  0.87631964301E+03 0.  0.
        -24    2    4    4    0    0 -0.81551564955E+02  0.13691750193E+03  0.95119561729E+03  0.96772766211E+03  0.79540339424E+02 0.  0.
         24    2    4    4    0    0  0.20596488899E+03  0.38016836028E+03  0.13574575128E+02  0.43995628856E+03  0.80173244286E+02 0.  0.
         13    1    3    3    0    0 -0.12919976714E+03 -0.45249531048E+03  0.23649103803E+03  0.52666174809E+03  0.00000000000E+00 0.  1.
        -13    1    3    3    0    0  0.47864430992E+01 -0.64590551723E+02  0.76739064188E+01  0.65220688813E+02  0.00000000000E+00 0. -1.
          4    1    6    6  502    0  0.24948199776E+02  0.11961760771E+03  0.11004863900E+02  0.12268615153E+03  0.00000000000E+00 0. -1.
          3    1    5    5  503    0 -0.96942801805E+01  0.18446352858E+02  0.35629752937E+03  0.35690639730E+03  0.00000000000E+00 0. -1.
         -4    1    5    5    0  503 -0.71857284774E+02  0.11847114907E+03  0.59489808792E+03  0.61082126481E+03  0.00000000000E+00 0.  1.
         -3    1    6    6    0  502  0.18101668922E+03  0.26055075257E+03  0.25697112285E+01  0.31727013703E+03  0.00000000000E+00 0.  1.
<mgrwt>
<rscale>  0 0.15927152E+04</rscale>
<asrwt>0</asrwt>
<pdfrwt beam="1">  1        1 0.24680781E+00 0.15927152E+04</pdfrwt>
<pdfrwt beam="2">  1       -1 0.60817789E-01 0.15927152E+04</pdfrwt>
<totfact> 0.14590385E+01</totfact>
</mgrwt>
</event>
<event>
12    1  0.1663913E-007  0.2229372E+04  0.7818608E-02  0.8506302E-01
         -1   -1    0    0    0  501 -0.00000000000E+00  0.00000000000E+00  0.48188990274E+04  0.48188990274E+04  0.00000000000E+00 0. -1.
          1   -1    0    0  501    0  0.00000000000E+00 -0.00000000000E+00 -0.25784404446E+03  0.25784404446E+03  0.00000000000E+00 0.  1.
         23    2    1    2    0    0 -0.37821647390E+03 -0.19365504760E+03  0.27080140324E+02  0.43589089820E+03  0.93367888153E+02 0.  0.
        254    2    1    2    0    0  0.37821647390E+03  0.19365504760E+03  0.45339748427E+04  0.46408521737E+04  0.89444454595E+03 0.  0.
        -24    2    4    4    0    0 -0.12502456404E+03 -0.23543383963E+03  0.78050264491E+03  0.82871440594E+03  0.80764803236E+02 0.  0.
         24    2    4    4    0    0  0.50324103795E+03  0.42908888723E+03  0.37534721977E+04  0.38121377678E+04  0.80448777463E+02 0.  0.
         13    1    3    3    0    0 -0.58264687939E+02  0.47602397421E+01  0.69782546950E+01  0.58873846329E+02  0.00000000000E+00 0. -1.
        -13    1    3    3    0    0 -0.31995178597E+03 -0.19841528735E+03  0.20101885629E+02  0.37701705187E+03  0.00000000000E+00 0.  1.
          2    1    6    6  502    0  0.37709862894E+03  0.28999556459E+03  0.28399712701E+04  0.28795377438E+04  0.00000000000E+00 0. -1.
          1    1    5    5  503    0 -0.45405035089E+02 -0.88344881957E+02  0.41561806595E+03  0.42732284297E+03  0.00000000000E+00 0. -1.
         -2    1    5    5    0  503 -0.79619528956E+02 -0.14708895767E+03  0.36488457896E+03  0.40139156297E+03  0.00000000000E+00 0.  1.
         -1    1    6    6    0  502  0.12614240901E+03  0.13909332265E+03  0.91350092768E+03  0.93260002393E+03  0.00000000000E+00 0.  1.
<mgrwt>
<rscale>  0 0.22293716E+04</rscale>
<asrwt>0</asrwt>
<pdfrwt beam="1">  1        1 0.39668318E-01 0.22293716E+04</pdfrwt>
<pdfrwt beam="2">  1       -1 0.74136902E+00 0.22293716E+04</pdfrwt>
<totfact> 0.13448634E-02</totfact>
</mgrwt>
</event>
<event>
12    1  0.1663913E-007  0.1842394E+04  0.7818608E-02  0.8684074E-01
          1   -1    0    0  501    0  0.00000000000E+00  0.00000000000E+00  0.12186473149E+04  0.12186473149E+04  0.00000000000E+00 0. -1.
         -1   -1    0    0    0  501 -0.00000000000E+00 -0.00000000000E+00 -0.69634871515E+03  0.69634871515E+03  0.00000000000E+00 0.  1.
         23    2    1    2    0    0 -0.24134955612E+03  0.58606314872E+03  0.50040181553E+03  0.81268615136E+03  0.91308165587E+02 0.  0.
        254    2    1    2    0    0  0.24134955612E+03 -0.58606314872E+03  0.21896784188E+02  0.11023098786E+04  0.90160300404E+03 0.  0.
        -24    2    4    4    0    0  0.34114045617E+03 -0.45464568189E+03 -0.36078956072E+03  0.67803311271E+03  0.80500235499E+02 0.  0.
         24    2    4    4    0    0 -0.99790900055E+02 -0.13141746683E+03  0.38268634490E+03  0.42427676594E+03  0.79581161197E+02 0.  0.
         13    1    3    3    0    0 -0.54437888158E+01  0.27119083796E+02  0.23686708942E+01  0.27761306605E+02  0.00000000000E+00 0.  1.
        -13    1    3    3    0    0 -0.23590576730E+03  0.55894406492E+03  0.49803314463E+03  0.78492484475E+03  0.00000000000E+00 0. -1.
          2    1    6    6  502    0 -0.11020224428E+03 -0.13071407900E+03  0.34310310098E+03  0.38334115745E+03  0.00000000000E+00 0. -1.
          1    1    5    5  503    0  0.18531773643E+03 -0.26249279973E+03 -0.15756565514E+03  0.35787158175E+03  0.00000000000E+00 0. -1.
         -2    1    5    5    0  503  0.15582271974E+03 -0.19215288216E+03 -0.20322390558E+03  0.32016153096E+03  0.00000000000E+00 0.  1.
         -1    1    6    6    0  502  0.10411344220E+02 -0.70338783219E+00  0.39583243925E+02  0.40935608491E+02  0.00000000000E+00 0.  1.
<mgrwt>
<rscale>  0 0.18423935E+04</rscale>
<asrwt>0</asrwt>
<pdfrwt beam="1">  1        1 0.18748420E+00 0.18423935E+04</pdfrwt>
<pdfrwt beam="2">  1       -1 0.10713057E+00 0.18423935E+04</pdfrwt>
<totfact> 0.79092469E+00</totfact>
</mgrwt>
</event>
<event>
12    1  0.1663913E-007  0.1337395E+04  0.7818608E-02  0.9000425E-01
         -2   -1    0    0    0  501 -0.00000000000E+00  0.00000000000E+00  0.10067895282E+03  0.10067895282E+03  0.00000000000E+00 0.  1.
          2   -1    0    0  501    0  0.00000000000E+00 -0.00000000000E+00 -0.44414082322E+04  0.44414082322E+04  0.00000000000E+00 0. -1.
         23    2    1    2    0    0 -0.34801461607E+03 -0.38630354946E+02 -0.13599454512E+04  0.14072884440E+04  0.91666008247E+02 0.  0.
        254    2    1    2    0    0  0.34801461607E+03  0.38630354946E+02 -0.29807838282E+04  0.31347987410E+04  0.90514332513E+03 0.  0.
        -24    2    4    4    0    0 -0.25509192574E+03 -0.95715818088E+02 -0.15280573456E+04  0.15542990492E+04  0.81565155043E+02 0.  0.
         24    2    4    4    0    0  0.60310654181E+03  0.13434617303E+03 -0.14527264826E+04  0.15804996918E+04  0.76017416679E+02 0.  0.
         13    1    3    3    0    0 -0.10713507529E+03 -0.49385926428E+02 -0.53349865733E+03  0.54638604618E+03  0.00000000000E+00 0.  1.
        -13    1    3    3    0    0 -0.24087954078E+03  0.10755571482E+02 -0.82644679391E+03  0.86090239786E+03  0.00000000000E+00 0. -1.
          2    1    6    6  502    0  0.71429669188E+00 -0.23178971741E+01 -0.66512720992E+00  0.25150072125E+01  0.00000000000E+00 0. -1.
          3    1    5    5  503    0 -0.11235758765E+03 -0.80540192432E+02 -0.64462612159E+03  0.65928278207E+03  0.00000000000E+00 0. -1.
         -2    1    5    5    0  503 -0.14273433809E+03 -0.15175625656E+02 -0.88343122396E+03  0.89501626709E+03  0.00000000000E+00 0.  1.
         -1    1    6    6    0  502  0.60239224512E+03  0.13666407021E+03 -0.14520613554E+04  0.15779846846E+04  0.00000000000E+00 0.  1.
<mgrwt>
<rscale>  0 0.13373950E+04</rscale>
<asrwt>0</asrwt>
<pdfrwt beam="1">  1        2 0.68329352E+00 0.13373950E+04</pdfrwt>
<pdfrwt beam="2">  1       -2 0.15489071E-01 0.13373950E+04</pdfrwt>
<totfact> 0.47653079E+00</totfact>
</mgrwt>
</event>
<event>
12    1  0.1663913E-007  0.1473042E+04  0.7818608E-02  0.8902580E-01
         -2   -1    0    0    0  501 -0.00000000000E+00  0.00000000000E+00  0.96154681156E+03  0.96154681156E+03  0.00000000000E+00 0.  1.
          2   -1    0    0  501    0  0.00000000000E+00 -0.00000000000E+00 -0.56415717722E+03  0.56415717722E+03  0.00000000000E+00 0. -1.
         23    2    1    2    0    0 -0.17786073802E+03 -0.22085893648E+03  0.49006134935E+03  0.57346483747E+03  0.91042197549E+02 0.  0.
        254    2    1    2    0    0  0.17786073802E+03  0.22085893648E+03 -0.92671715006E+02  0.95223915131E+03  0.90429986320E+03 0.  0.
        -24    2    4    4    0    0 -0.20176565226E+03  0.21262732967E+03  0.28099785928E+03  0.41356605497E+03  0.78468625221E+02 0.  0.
         24    2    4    4    0    0  0.37962639028E+03  0.82316068064E+01 -0.37366957429E+03  0.53867309635E+03  0.79723261551E+02 0.  0.
         11    1    3    3    0    0 -0.16175425456E+03 -0.22758906086E+03  0.47159454999E+03  0.54805350019E+03  0.00000000000E+00 0.  1.
        -11    1    3    3    0    0 -0.16106483458E+02  0.67301243813E+01  0.18466799356E+02  0.25411337274E+02  0.00000000000E+00 0. -1.
          4    1    6    6  502    0  0.35680513586E+03  0.27724212752E+02 -0.34796184414E+03  0.49915526836E+03  0.00000000000E+00 0. -1.
          3    1    5    5  503    0 -0.93803516338E+02  0.70864442748E+02  0.15845498847E+03  0.19730395915E+03  0.00000000000E+00 0. -1.
         -4    1    5    5    0  503 -0.10796213592E+03  0.14176288693E+03  0.12254287081E+03  0.21626209582E+03  0.00000000000E+00 0.  1.
         -3    1    6    6    0  502  0.22821254412E+02 -0.19492605945E+02 -0.25707730151E+02  0.39517827989E+02  0.00000000000E+00 0.  1.
<mgrwt>
<rscale>  0 0.14730425E+04</rscale>
<asrwt>0</asrwt>
<pdfrwt beam="1">  1        2 0.86793412E-01 0.14730425E+04</pdfrwt>
<pdfrwt beam="2">  1       -2 0.14793028E+00 0.14730425E+04</pdfrwt>
<totfact> 0.16061374E+01</totfact>
</mgrwt>
</event>
<event>
12    1  0.2654283E-007  0.2014474E+04  0.7818608E-02  0.8599883E-01
         -1   -1    0    0    0  501 -0.00000000000E+00  0.00000000000E+00  0.36068112773E+03  0.36068112773E+03  0.00000000000E+00 0.  1.
          1   -1    0    0  501    0  0.00000000000E+00 -0.00000000000E+00 -0.28128066236E+04  0.28128066236E+04  0.00000000000E+00 0. -1.
         23    2    1    2    0    0  0.32071514035E+03 -0.60766364350E+03 -0.32341147140E+03  0.76497114296E+03  0.92046536318E+02 0.  0.
        254    2    1    2    0    0 -0.32071514035E+03  0.60766364350E+03 -0.21287140245E+04  0.24085166084E+04  0.89298127080E+03 0.  0.
        -24    2    4    4    0    0  0.73566779895E+02  0.50071011430E+03 -0.45962710000E+03  0.68820053820E+03  0.78995063540E+02 0.  0.
         24    2    4    4    0    0 -0.39428192024E+03  0.10695352920E+03 -0.16690869245E+04  0.17203160702E+04  0.82090985099E+02 0.  0.
         13    1    3    3    0    0  0.16749815514E+03 -0.30764417750E+03 -0.21533426434E+03  0.41118051672E+03  0.00000000000E+00 0. -1.
        -13    1    3    3    0    0  0.15321698521E+03 -0.30001946599E+03 -0.10807720706E+03  0.35379062624E+03  0.00000000000E+00 0.  1.
          2    1    6    6  502    0 -0.94249681781E+02  0.39245618483E+01 -0.27987927719E+03  0.29534863214E+03  0.00000000000E+00 0. -1.
          3    1    5    5  503    0  0.38379363531E+01  0.27563314095E+02 -0.55404301995E+02  0.62000828373E+02  0.00000000000E+00 0. -1.
         -4    1    5    5    0  503  0.69728843541E+02  0.47314680021E+03 -0.40422279800E+03  0.62619970983E+03  0.00000000000E+00 0.  1.
         -1    1    6    6    0  502 -0.30003223846E+03  0.10302896735E+03 -0.13892076473E+04  0.14249674380E+04  0.00000000000E+00 0.  1.
<mgrwt>
<rscale>  0 0.20144739E+04</rscale>
<asrwt>0</asrwt>
<pdfrwt beam="1">  1        1 0.43273950E+00 0.20144739E+04</pdfrwt>
<pdfrwt beam="2">  1       -1 0.55489402E-01 0.20144739E+04</pdfrwt>
<totfact> 0.24858183E+00</totfact>
</mgrwt>
</event>
<event>
12    1  0.2830259E-007  0.1520832E+04  0.7818608E-02  0.8870717E-01
         -2   -1    0    0    0  501 -0.00000000000E+00  0.00000000000E+00  0.69641002418E+03  0.69641002418E+03  0.00000000000E+00 0.  1.
          2   -1    0    0  501    0  0.00000000000E+00 -0.00000000000E+00 -0.83030510065E+03  0.83030510065E+03  0.00000000000E+00 0. -1.
         23    2    1    2    0    0 -0.14698229058E+03 -0.42741361055E+03  0.15091961745E+03  0.48278866848E+03  0.77601412689E+02 0.  0.
        254    2    1    2    0    0  0.14698229058E+03  0.42741361055E+03 -0.28481469392E+03  0.10439264564E+04  0.89687058608E+03 0.  0.
        -24    2    4    4    0    0  0.40303088452E+03  0.55842855855E+03 -0.12362344208E+03  0.70439633478E+03  0.81333216702E+02 0.  0.
         24    2    4    4    0    0 -0.25604859395E+03 -0.13101494800E+03 -0.16119125183E+03  0.33953012157E+03  0.81069628883E+02 0.  0.
         11    1    3    3    0    0 -0.13300452154E+03 -0.40842433597E+03  0.12415400732E+03  0.44711839427E+03  0.00000000000E+00 0. -1.
        -11    1    3    3    0    0 -0.13977769033E+02 -0.18989274585E+02  0.26765610131E+02  0.35670274208E+02  0.00000000000E+00 0.  1.
          2    1    6    6  502    0 -0.23544452620E+03 -0.14168063709E+03 -0.15512508495E+03  0.31554923518E+03  0.00000000000E+00 0. -1.
          3    1    5    5  503    0  0.39484801956E+03  0.54247090796E+03 -0.13322700242E+03  0.68405341802E+03  0.00000000000E+00 0. -1.
         -4    1    5    5    0  503  0.81828649615E+01  0.15957650590E+02  0.96035603306E+01  0.20342916761E+02  0.00000000000E+00 0.  1.
         -1    1    6    6    0  502 -0.20604067742E+02  0.10665689092E+02 -0.60661668881E+01  0.23980886389E+02  0.00000000000E+00 0.  1.
<mgrwt>
<rscale>  0 0.15208324E+04</rscale>
<asrwt>0</asrwt>
<pdfrwt beam="1">  1        2 0.12773925E+00 0.15208324E+04</pdfrwt>
<pdfrwt beam="2">  1       -2 0.10714000E+00 0.15208324E+04</pdfrwt>
<totfact> 0.22137736E+01</totfact>
</mgrwt>
</event>
<event>
12    1  0.1663913E-007  0.1149550E+04  0.7818608E-02  0.9158199E-01
          1   -1    0    0  501    0  0.00000000000E+00  0.00000000000E+00  0.36586425737E+03  0.36586425737E+03  0.00000000000E+00 0. -1.
         -1   -1    0    0    0  501 -0.00000000000E+00 -0.00000000000E+00 -0.90297476695E+03  0.90297476695E+03  0.00000000000E+00 0.  1.
         23    2    1    2    0    0  0.12123785995E+03 -0.11303077946E+03  0.32655604939E+02  0.19143550502E+03  0.90036593997E+02 0.  0.
        254    2    1    2    0    0 -0.12123785995E+03  0.11303077946E+03 -0.56976611452E+03  0.10774035193E+04  0.89927211807E+03 0.  0.
        -24    2    4    4    0    0  0.36378379379E+03  0.63960267313E+02 -0.40761076385E+03  0.55583804577E+03  0.79873862386E+02 0.  0.
         24    2    4    4    0    0 -0.48502165374E+03  0.49070512147E+02 -0.16215535067E+03  0.52156547353E+03  0.89901421905E+02 0.  0.
         13    1    3    3    0    0  0.12191490876E+03 -0.81934588603E+02  0.50800875187E+02  0.15542602970E+03  0.00000000000E+00 0. -1.
        -13    1    3    3    0    0 -0.67704880888E+00 -0.31096190858E+02 -0.18145270248E+02  0.36009475327E+02  0.00000000000E+00 0.  1.
          2    1    6    6  502    0 -0.40454773838E+03  0.52485279020E+02 -0.16717248543E+03  0.44086303658E+03  0.00000000000E+00 0. -1.
          1    1    5    5  503    0  0.30091881130E+03  0.83097237081E+02 -0.33548215052E+03  0.45826363059E+03  0.00000000000E+00 0. -1.
         -2    1    5    5    0  503  0.62864982495E+02 -0.19136969768E+02 -0.72128613331E+02  0.97574415177E+02  0.00000000000E+00 0.  1.
         -1    1    6    6    0  502 -0.80473915367E+02 -0.34147668726E+01  0.50171347623E+01  0.80702436943E+02  0.00000000000E+00 0.  1.
<mgrwt>
<rscale>  0 0.11495498E+04</rscale>
<asrwt>0</asrwt>
<pdfrwt beam="1">  1        1 0.56286810E-01 0.11495498E+04</pdfrwt>
<pdfrwt beam="2">  1       -1 0.13891919E+00 0.11495498E+04</pdfrwt>
<totfact> 0.28700589E+01</totfact>
</mgrwt>
</event>
<event>
12    1  0.1663913E-007  0.3496627E+04  0.7818608E-02  0.8114590E-01
          2   -1    0    0  501    0  0.00000000000E+00  0.00000000000E+00  0.25756957232E+04  0.25756957232E+04  0.00000000000E+00 0. -1.
         -2   -1    0    0    0  501 -0.00000000000E+00 -0.00000000000E+00 -0.11867084810E+04  0.11867084810E+04  0.00000000000E+00 0.  1.
         23    2    1    2    0    0 -0.11184547281E+04  0.11630342245E+04  0.40798971390E+03  0.16669553588E+04  0.93246851538E+02 0.  0.
        254    2    1    2    0    0  0.11184547281E+04 -0.11630342245E+04  0.98099752831E+03  0.20954488455E+04  0.90827315682E+03 0.  0.
        -24    2    4    4    0    0  0.94042640564E+03 -0.12524910727E+04  0.64387546158E+03  0.16953434960E+04  0.80487563628E+02 0.  0.
         24    2    4    4    0    0  0.17802832244E+03  0.89456848155E+02  0.33712206673E+03  0.40010534949E+03  0.82075523378E+02 0.  0.
         13    1    3    3    0    0 -0.15750817966E+03  0.20933615693E+03  0.80130627771E+02  0.27395505245E+03  0.00000000000E+00 0. -1.
        -13    1    3    3    0    0 -0.96094654842E+03  0.95369806759E+03  0.32785908613E+03  0.13930003063E+04  0.00000000000E+00 0.  1.
          2    1    6    6  502    0  0.19267376664E+02  0.47204844916E+02  0.87536621012E+02  0.10130246396E+03  0.00000000000E+00 0. -1.
          1    1    5    5  503    0  0.51404941682E+02 -0.93105178055E+02  0.58953803549E+02  0.12160013636E+03  0.00000000000E+00 0. -1.
         -2    1    5    5    0  503  0.88902146396E+03 -0.11593858946E+04  0.58492165803E+03  0.15737433597E+04  0.00000000000E+00 0.  1.
         -1    1    6    6    0  502  0.15876094577E+03  0.42252003239E+02  0.24958544572E+03  0.29880288552E+03  0.00000000000E+00 0.  1.
<mgrwt>
<rscale>  0 0.34966269E+04</rscale>
<asrwt>0</asrwt>
<pdfrwt beam="1">  1        2 0.39626088E+00 0.34966269E+04</pdfrwt>
<pdfrwt beam="2">  1       -2 0.18257054E+00 0.34966269E+04</pdfrwt>
<totfact> 0.44989752E-01</totfact>
</mgrwt>
</event>
<event>
12    1  0.1663913E-007  0.1573483E+04  0.7818608E-02  0.8837006E-01
          1   -1    0    0  501    0  0.00000000000E+00  0.00000000000E+00  0.45371589202E+03  0.45371589202E+03  0.00000000000E+00 0. -1.
         -1   -1    0    0    0  501 -0.00000000000E+00 -0.00000000000E+00 -0.13642061235E+04  0.13642061235E+04  0.00000000000E+00 0.  1.
         23    2    1    2    0    0 -0.31605881247E+03 -0.32645735736E+03 -0.61335243797E+03  0.76885989743E+03  0.92069265171E+02 0.  0.
        254    2    1    2    0    0  0.31605881247E+03  0.32645735736E+03 -0.29713779352E+03  0.10490621181E+04  0.89764852820E+03 0.  0.
        -24    2    4    4    0    0 -0.17436681673E+03  0.45158637029E+03 -0.10457526859E+03  0.50143884211E+03  0.78555006043E+02 0.  0.
         24    2    4    4    0    0  0.49042562920E+03 -0.12512901292E+03 -0.19256252493E+03  0.54762327599E+03  0.81463849287E+02 0.  0.
         11    1    3    3    0    0 -0.41129870481E+01 -0.35346474658E+02 -0.32952894136E+02  0.48499310976E+02  0.00000000000E+00 0. -1.
        -11    1    3    3    0    0 -0.31194582543E+03 -0.29111088271E+03 -0.58039954383E+03  0.72036058645E+03  0.00000000000E+00 0.  1.
          4    1    6    6  502    0  0.41883455669E+03 -0.11679102927E+03 -0.19257114280E+03  0.47554828927E+03  0.00000000000E+00 0. -1.
          1    1    5    5  503    0 -0.16718678882E+03  0.34479719459E+03 -0.75950881809E+02  0.39064698156E+03  0.00000000000E+00 0. -1.
         -2    1    5    5    0  503 -0.71800279096E+01  0.10678917569E+03 -0.28624386780E+02  0.11079186055E+03  0.00000000000E+00 0.  1.
         -3    1    6    6    0  502  0.71591072519E+02 -0.83379836537E+01  0.86178658868E-02  0.72074986716E+02  0.00000000000E+00 0.  1.
<mgrwt>
<rscale>  0 0.15734828E+04</rscale>
<asrwt>0</asrwt>
<pdfrwt beam="1">  1        1 0.69802446E-01 0.15734828E+04</pdfrwt>
<pdfrwt beam="2">  1       -1 0.20987786E+00 0.15734828E+04</pdfrwt>
<totfact> 0.62708230E+00</totfact>
</mgrwt>
</event>
<event>
12    1  0.1663913E-007  0.2277049E+04  0.7818608E-02  0.8487026E-01
         -2   -1    0    0    0  501 -0.00000000000E+00  0.00000000000E+00  0.81972642736E+03  0.81972642736E+03  0.00000000000E+00 0.  1.
          2   -1    0    0  501    0  0.00000000000E+00 -0.00000000000E+00 -0.15813060505E+04  0.15813060505E+04  0.00000000000E+00 0. -1.
         23    2    1    2    0    0 -0.54211660335E+03 -0.78254642089E+03 -0.30385883565E+03  0.10033178890E+04  0.89706643997E+02 0.  0.
        254    2    1    2    0    0  0.54211660335E+03  0.78254642089E+03 -0.45772078753E+03  0.13977145889E+04  0.91532968930E+03 0.  0.
        -24    2    4    4    0    0 -0.10271944723E+03  0.27805613822E+03 -0.48726791072E+03  0.57477203953E+03  0.71178506326E+02 0.  0.
         24    2    4    4    0    0  0.64483605058E+03  0.50449028268E+03  0.29547123199E+02  0.82294254934E+03  0.77700898188E+02 0.  0.
         11    1    3    3    0    0 -0.11634407917E+03 -0.11522072709E+03 -0.36110843008E+02  0.16767752889E+03  0.00000000000E+00 0. -1.
        -11    1    3    3    0    0 -0.42577252418E+03 -0.66732569380E+03 -0.26774799264E+03  0.83564036015E+03  0.00000000000E+00 0.  1.
          2    1    6    6  502    0  0.35613798879E+03  0.32695188628E+03  0.13673876183E+02  0.48365150459E+03  0.00000000000E+00 0. -1.
          3    1    5    5  503    0 -0.33119720210E+02  0.40340905871E+02 -0.12954625224E+03  0.13966580119E+03  0.00000000000E+00 0. -1.
         -4    1    5    5    0  503 -0.69599727023E+02  0.23771523234E+03 -0.35772165849E+03  0.43510623834E+03  0.00000000000E+00 0.  1.
         -1    1    6    6    0  502  0.28869806179E+03  0.17753839640E+03  0.15873247016E+02  0.33929104475E+03  0.00000000000E+00 0.  1.
<mgrwt>
<rscale>  0 0.22770493E+04</rscale>
<asrwt>0</asrwt>
<pdfrwt beam="1">  1        2 0.24327785E+00 0.22770493E+04</pdfrwt>
<pdfrwt beam="2">  1       -2 0.12611176E+00 0.22770493E+04</pdfrwt>
<totfact> 0.48666495E+00</totfact>
</mgrwt>
</event>
<event>
12    1  0.1663913E-007  0.1567800E+04  0.7818608E-02  0.8840578E-01
         -2   -1    0    0    0  501 -0.00000000000E+00  0.00000000000E+00  0.16508258228E+03  0.16508258228E+03  0.00000000000E+00 0.  1.
          2   -1    0    0  501    0  0.00000000000E+00 -0.00000000000E+00 -0.37223730191E+04  0.37223730191E+04  0.00000000000E+00 0. -1.
         23    2    1    2    0    0  0.87504227645E+02 -0.12300080684E+03 -0.24466193322E+04  0.24529647581E+04  0.91124967554E+02 0.  0.
        254    2    1    2    0    0 -0.87504227645E+02  0.12300080684E+03 -0.11106711047E+04  0.14344908433E+04  0.89520248455E+03 0.  0.
        -24    2    4    4    0    0  0.84203723607E+02  0.38904455258E+03 -0.10166509395E+04  0.10947361596E+04  0.80138601121E+02 0.  0.
         24    2    4    4    0    0 -0.17170795125E+03 -0.26604374574E+03 -0.94020165157E+02  0.33975468366E+03  0.79564806566E+02 0.  0.
         13    1    3    3    0    0  0.98956537769E+02 -0.11630143992E+03 -0.23873390957E+04  0.23922178787E+04  0.00000000000E+00 0. -1.
        -13    1    3    3    0    0 -0.11452310124E+02 -0.66993669217E+01 -0.59280236468E+02  0.60746879426E+02  0.00000000000E+00 0.  1.
          2    1    6    6  502    0 -0.12835653189E+03 -0.22005581223E+03 -0.10511421988E+03  0.27558838690E+03  0.00000000000E+00 0. -1.
          1    1    5    5  503    0  0.34546012564E+02  0.13602985516E+03 -0.26154880077E+03  0.29682540940E+03  0.00000000000E+00 0. -1.
         -2    1    5    5    0  503  0.49657711044E+02  0.25301469742E+03 -0.75510213873E+03  0.79791075021E+03  0.00000000000E+00 0.  1.
         -1    1    6    6    0  502 -0.43351419366E+02 -0.45987933506E+02  0.11094054726E+02  0.64166296757E+02  0.00000000000E+00 0.  1.
<mgrwt>
<rscale>  0 0.15677997E+04</rscale>
<asrwt>0</asrwt>
<pdfrwt beam="1">  1        2 0.57267274E+00 0.15677997E+04</pdfrwt>
<pdfrwt beam="2">  1       -2 0.25397322E-01 0.15677997E+04</pdfrwt>
<totfact> 0.76512416E+00</totfact>
</mgrwt>
</event>
<event>
12    1  0.1663913E-007  0.1292393E+04  0.7818608E-02  0.9035620E-01
         -2   -1    0    0    0  501 -0.00000000000E+00  0.00000000000E+00  0.12200537348E+03  0.12200537348E+03  0.00000000000E+00 0.  1.
          2   -1    0    0  501    0  0.00000000000E+00 -0.00000000000E+00 -0.34225522156E+04  0.34225522156E+04  0.00000000000E+00 0. -1.
         23    2    1    2    0    0  0.23768136666E+03  0.21777470446E+03 -0.98922318586E+03  0.10443445425E+04  0.90414368456E+02 0.  0.
        254    2    1    2    0    0 -0.23768136666E+03 -0.21777470446E+03 -0.23113236563E+04  0.25002130466E+04  0.89717890099E+03 0.  0.
        -24    2    4    4    0    0 -0.29727083046E+03  0.24612926947E+03 -0.55425320776E+03  0.68014316158E+03  0.80302789451E+02 0.  0.
         24    2    4    4    0    0  0.59589463798E+02 -0.46390397393E+03 -0.17570704485E+04  0.18200698850E+04  0.81240532416E+02 0.  0.
         13    1    3    3    0    0  0.46907073942E+02  0.32947623420E+01 -0.16485949253E+03  0.17143448113E+03  0.00000000000E+00 0.  1.
        -13    1    3    3    0    0  0.19077429272E+03  0.21447994211E+03 -0.82436369333E+03  0.87291006136E+03  0.00000000000E+00 0. -1.
          4    1    6    6  502    0  0.53432748973E+02 -0.46519756603E+03 -0.17275299293E+04  0.17898668919E+04  0.00000000000E+00 0. -1.
          1    1    5    5  503    0 -0.21481158479E+03  0.17944402215E+03 -0.33464592592E+03  0.43627063823E+03  0.00000000000E+00 0. -1.
         -2    1    5    5    0  503 -0.82459245671E+02  0.66685247320E+02 -0.21960728184E+03  0.24387252335E+03  0.00000000000E+00 0.  1.
         -3    1    6    6    0  502  0.61567148249E+01  0.12935921041E+01 -0.29540519241E+02  0.30202993147E+02  0.00000000000E+00 0.  1.
<mgrwt>
<rscale>  0 0.12923928E+04</rscale>
<asrwt>0</asrwt>
<pdfrwt beam="1">  1        2 0.52654639E+00 0.12923928E+04</pdfrwt>
<pdfrwt beam="2">  1       -2 0.18770061E-01 0.12923928E+04</pdfrwt>
<totfact> 0.21979748E+01</totfact>
</mgrwt>
</event>
<event>
12    1  0.1663913E-007  0.2223055E+04  0.7818608E-02  0.8508893E-01
         -2   -1    0    0    0  501 -0.00000000000E+00  0.00000000000E+00  0.57210142993E+03  0.57210142993E+03  0.00000000000E+00 0.  1.
          2   -1    0    0  501    0  0.00000000000E+00 -0.00000000000E+00 -0.21595711557E+04  0.21595711557E+04  0.00000000000E+00 0. -1.
         23    2    1    2    0    0  0.92121671268E+01  0.63333900693E+03 -0.14390863614E+04  0.15751135262E+04  0.93861084719E+02 0.  0.
        254    2    1    2    0    0 -0.92121671268E+01 -0.63333900693E+03 -0.14838336440E+03  0.11565590594E+04  0.95624686844E+03 0.  0.
        -24    2    4    4    0    0  0.76948930464E+02  0.20263500052E+03  0.13300345180E+03  0.26641061716E+03  0.79389025763E+02 0.  0.
         24    2    4    4    0    0 -0.86161097590E+02 -0.83597400745E+03 -0.28138681619E+03  0.89014844227E+03  0.83122999646E+02 0.  0.
         13    1    3    3    0    0  0.21749664358E+01  0.62241313411E+03 -0.13692367549E+04  0.15040652017E+04  0.00000000000E+00 0. -1.
        -13    1    3    3    0    0  0.70372006910E+01  0.10925872821E+02 -0.69849606514E+02  0.71048324545E+02  0.00000000000E+00 0.  1.
          2    1    6    6  502    0 -0.71837926648E+02 -0.77614018262E+03 -0.28118166206E+03  0.82862379755E+03  0.00000000000E+00 0. -1.
          1    1    5    5  503    0  0.59532293776E+02  0.20459635153E+03  0.11964987752E+03  0.24437646011E+03  0.00000000000E+00 0. -1.
         -2    1    5    5    0  503  0.17416636688E+02 -0.19613510120E+01  0.13353574274E+02  0.22034157056E+02  0.00000000000E+00 0.  1.
         -3    1    6    6    0  502 -0.14323170942E+02 -0.59833824827E+02 -0.20515413594E+00  0.61524644716E+02  0.00000000000E+00 0.  1.
<mgrwt>
<rscale>  0 0.22230553E+04</rscale>
<asrwt>0</asrwt>
<pdfrwt beam="1">  1        2 0.33224172E+00 0.22230553E+04</pdfrwt>
<pdfrwt beam="2">  1       -2 0.88015603E-01 0.22230553E+04</pdfrwt>
<totfact> 0.55219014E+00</totfact>
</mgrwt>
</event>
<event>
12    1  0.1663913E-007  0.1751171E+04  0.7818608E-02  0.8732706E-01
          1   -1    0    0  501    0  0.00000000000E+00  0.00000000000E+00  0.11797814775E+04  0.11797814775E+04  0.00000000000E+00 0. -1.
         -1   -1    0    0    0  501 -0.00000000000E+00 -0.00000000000E+00 -0.64982403580E+03  0.64982403580E+03  0.00000000000E+00 0.  1.
         23    2    1    2    0    0  0.16010914079E+03  0.44578087518E+03  0.65097871292E+03  0.81165007252E+03  0.10318444612E+03 0.  0.
        254    2    1    2    0    0 -0.16010914079E+03 -0.44578087518E+03 -0.12102127117E+03  0.10179554408E+04  0.89287827041E+03 0.  0.
        -24    2    4    4    0    0 -0.11609972606E+03 -0.70908929126E+03 -0.14839435872E+03  0.73846798830E+03  0.83829080083E+02 0.  0.
         24    2    4    4    0    0 -0.44009414731E+02  0.26330841608E+03  0.27373087552E+02  0.27948745252E+03  0.78075601999E+02 0.  0.
         11    1    3    3    0    0  0.16182110353E+03  0.42616163380E+03  0.57837095051E+03  0.73641887813E+03  0.00000000000E+00 0. -1.
        -11    1    3    3    0    0 -0.17119627363E+01  0.19619241373E+02  0.72607762402E+02  0.75231194391E+02  0.00000000000E+00 0.  1.
          2    1    6    6  502    0  0.36559870150E+01  0.14053456957E+03  0.42632922592E+02  0.14690438242E+03  0.00000000000E+00 0. -1.
          3    1    5    5  503    0 -0.12725966053E+03 -0.64433488704E+03 -0.14544015841E+03  0.67269258026E+03  0.00000000000E+00 0. -1.
         -4    1    5    5    0  503  0.11159934472E+02 -0.64754404220E+02 -0.29542003163E+01  0.65775408040E+02  0.00000000000E+00 0.  1.
         -1    1    6    6    0  502 -0.47665401745E+02  0.12277384651E+03 -0.15259835040E+02  0.13258307009E+03  0.00000000000E+00 0.  1.
<mgrwt>
<rscale>  0 0.17511714E+04</rscale>
<asrwt>0</asrwt>
<pdfrwt beam="1">  1        1 0.18150484E+00 0.17511714E+04</pdfrwt>
<pdfrwt beam="2">  1       -1 0.99972929E-01 0.17511714E+04</pdfrwt>
<totfact> 0.99933616E+00</totfact>
</mgrwt>
</event>
<event>
12    1  0.1663913E-007  0.1560461E+04  0.7818608E-02  0.8845213E-01
         -2   -1    0    0    0  501 -0.00000000000E+00  0.00000000000E+00  0.51569067195E+03  0.51569067195E+03  0.00000000000E+00 0.  1.
          2   -1    0    0  501    0  0.00000000000E+00 -0.00000000000E+00 -0.11804751296E+04  0.11804751296E+04  0.00000000000E+00 0. -1.
         23    2    1    2    0    0  0.36366441677E+03 -0.36361963911E+03 -0.21961607980E+03  0.56802616124E+03  0.99756941505E+02 0.  0.
        254    2    1    2    0    0 -0.36366441677E+03  0.36361963911E+03 -0.44516837789E+03  0.11281396403E+04  0.90002950701E+03 0.  0.
        -24    2    4    4    0    0 -0.17308954685E+03  0.35271243205E+03 -0.69573618198E+03  0.80309123857E+03  0.80874295036E+02 0.  0.
         24    2    4    4    0    0 -0.19057486992E+03  0.10907207064E+02  0.25056780410E+03  0.32504840178E+03  0.80215278085E+02 0.  0.
         13    1    3    3    0    0  0.29506282926E+03 -0.34218823838E+03 -0.18479715683E+03  0.48816478045E+03  0.00000000000E+00 0. -1.
        -13    1    3    3    0    0  0.68601587509E+02 -0.21431400735E+02 -0.34818922972E+02  0.79861380799E+02  0.00000000000E+00 0.  1.
          2    1    6    6  502    0  0.14424015276E+01  0.25148181151E+01 -0.46945644408E+01  0.55175871182E+01  0.00000000000E+00 0. -1.
          1    1    5    5  503    0 -0.86692908648E+02  0.16477900128E+03 -0.25015427389E+03  0.31184121027E+03  0.00000000000E+00 0. -1.
         -2    1    5    5    0  503 -0.86396638207E+02  0.18793343077E+03 -0.44558190809E+03  0.49125002830E+03  0.00000000000E+00 0.  1.
         -3    1    6    6    0  502 -0.19201727144E+03  0.83923889486E+01  0.25526236854E+03  0.31953081466E+03  0.00000000000E+00 0.  1.
<mgrwt>
<rscale>  0 0.15604615E+04</rscale>
<asrwt>0</asrwt>
<pdfrwt beam="1">  1        2 0.18161156E+00 0.15604615E+04</pdfrwt>
<pdfrwt beam="2">  1       -2 0.79337027E-01 0.15604615E+04</pdfrwt>
<totfact> 0.26363406E+01</totfact>
</mgrwt>
</event>
<event>
12    1  0.1663913E-007  0.2141563E+04  0.7818608E-02  0.8543152E-01
         -2   -1    0    0    0  501 -0.00000000000E+00  0.00000000000E+00  0.44804247632E+03  0.44804247632E+03  0.00000000000E+00 0.  1.
          2   -1    0    0  501    0  0.00000000000E+00 -0.00000000000E+00 -0.25590728026E+04  0.25590728026E+04  0.00000000000E+00 0. -1.
         23    2    1    2    0    0  0.39915215029E+03 -0.54068542746E+03 -0.74950405328E+02  0.68245588392E+03  0.92007063263E+02 0.  0.
        254    2    1    2    0    0 -0.39915215029E+03  0.54068542746E+03 -0.20360799210E+04  0.23246593950E+04  0.89819635253E+03 0.  0.
        -24    2    4    4    0    0 -0.55942964989E+03  0.31132472146E+03 -0.18883891205E+04  0.19956590631E+04  0.82201034965E+02 0.  0.
         24    2    4    4    0    0  0.16027749959E+03  0.22936070599E+03 -0.14769080046E+03  0.32900033195E+03  0.90185561770E+02 0.  0.
         11    1    3    3    0    0  0.21954324714E+03 -0.22457082368E+03 -0.50144770600E+02  0.31803425953E+03  0.00000000000E+00 0. -1.
        -11    1    3    3    0    0  0.17960890315E+03 -0.31611460377E+03 -0.24805634727E+02  0.36442162439E+03  0.00000000000E+00 0.  1.
          2    1    6    6  502    0  0.54138130542E+02  0.18392384080E+02 -0.20332946973E+02  0.60684806199E+02  0.00000000000E+00 0. -1.
          3    1    5    5  503    0 -0.25387622003E+03  0.16151335713E+03 -0.77247973130E+03  0.82901425494E+03  0.00000000000E+00 0. -1.
         -4    1    5    5    0  503 -0.30555342985E+03  0.14981136433E+03 -0.11159093893E+04  0.11666448082E+04  0.00000000000E+00 0.  1.
         -1    1    6    6    0  502  0.10613936905E+03  0.21096832191E+03 -0.12735785348E+03  0.26831552575E+03  0.00000000000E+00 0.  1.
<mgrwt>
<rscale>  0 0.21415633E+04</rscale>
<asrwt>0</asrwt>
<pdfrwt beam="1">  1        2 0.39370351E+00 0.21415633E+04</pdfrwt>
<pdfrwt beam="2">  1       -2 0.68929612E-01 0.21415633E+04</pdfrwt>
<totfact> 0.56803300E+00</totfact>
</mgrwt>
</event>
<event>
12    1  0.1663913E-007  0.2278196E+04  0.7818608E-02  0.8486568E-01
          1   -1    0    0  501    0  0.00000000000E+00  0.00000000000E+00  0.13886615004E+04  0.13886615004E+04  0.00000000000E+00 0. -1.
         -1   -1    0    0    0  501 -0.00000000000E+00 -0.00000000000E+00 -0.93438496579E+03  0.93438496579E+03  0.00000000000E+00 0.  1.
         23    2    1    2    0    0 -0.13931143002E+03 -0.12130756306E+03  0.11498118392E+04  0.11684950494E+04  0.95865612088E+02 0.  0.
        254    2    1    2    0    0  0.13931143002E+03  0.12130756306E+03 -0.69553530458E+03  0.11545514168E+04  0.90282690182E+03 0.  0.
        -24    2    4    4    0    0  0.46554189334E+03  0.21523576382E+03 -0.21773621914E+03  0.56283606094E+03  0.79496426892E+02 0.  0.
         24    2    4    4    0    0 -0.32623046332E+03 -0.93928200762E+02 -0.47779908544E+03  0.59171535582E+03  0.81155863459E+02 0.  0.
         11    1    3    3    0    0 -0.10998814604E+03 -0.88965890785E+02  0.57958817048E+03  0.59660268969E+03  0.00000000000E+00 0. -1.
        -11    1    3    3    0    0 -0.29323283975E+02 -0.32341672273E+02  0.57022366872E+03  0.57189235973E+03  0.00000000000E+00 0.  1.
          2    1    6    6  502    0 -0.26579712840E+03 -0.10189866790E+03 -0.42227270076E+03  0.50925993932E+03  0.00000000000E+00 0. -1.
          1    1    5    5  503    0  0.26287635924E+03  0.15243544815E+03 -0.15756110858E+03  0.34229526587E+03  0.00000000000E+00 0. -1.
         -2    1    5    5    0  503  0.20266553410E+03  0.62800315668E+02 -0.60175110566E+02  0.22054079507E+03  0.00000000000E+00 0.  1.
         -1    1    6    6    0  502 -0.60433334920E+02  0.79704671328E+01 -0.55526384678E+02  0.82455416507E+02  0.00000000000E+00 0.  1.
<mgrwt>
<rscale>  0 0.22781962E+04</rscale>
<asrwt>0</asrwt>
<pdfrwt beam="1">  1        1 0.21364023E+00 0.22781962E+04</pdfrwt>
<pdfrwt beam="2">  1       -1 0.14375153E+00 0.22781962E+04</pdfrwt>
<totfact> 0.27706520E+00</totfact>
</mgrwt>
</event>
<event>
12    1  0.1663913E-007  0.3239479E+04  0.7818608E-02  0.8178468E-01
         -1   -1    0    0    0  501 -0.00000000000E+00  0.00000000000E+00  0.15695075782E+04  0.15695075782E+04  0.00000000000E+00 0.  1.
          1   -1    0    0  501    0  0.00000000000E+00 -0.00000000000E+00 -0.16715792086E+04  0.16715792086E+04  0.00000000000E+00 0. -1.
         23    2    1    2    0    0  0.97142684674E+03 -0.11298501996E+04  0.19051357166E+02  0.14929814935E+04  0.91647114754E+02 0.  0.
        254    2    1    2    0    0 -0.97142684674E+03  0.11298501996E+04 -0.12112298760E+03  0.17481052933E+04  0.90607380833E+03 0.  0.
        -24    2    4    4    0    0 -0.53462969605E+03  0.92309624949E+02  0.18504299800E+03  0.57871598375E+03  0.79506603369E+02 0.  0.
         24    2    4    4    0    0 -0.43679715069E+03  0.10375405747E+04 -0.30616598560E+03  0.11693893095E+04  0.80321551280E+02 0.  0.
         11    1    3    3    0    0  0.96552938959E+03 -0.11077135126E+04  0.13960719439E+02  0.14695139093E+04  0.00000000000E+00 0. -1.
        -11    1    3    3    0    0  0.58974571517E+01 -0.22136687047E+02  0.50906377277E+01  0.23467584169E+02  0.00000000000E+00 0.  1.
          4    1    6    6  502    0 -0.32214430804E+03  0.66725986169E+03 -0.20425631478E+03  0.76859177745E+03  0.00000000000E+00 0. -1.
          3    1    5    5  503    0 -0.78447639522E+02 -0.14285093025E+02  0.31336293666E+02  0.85674146217E+02  0.00000000000E+00 0. -1.
         -4    1    5    5    0  503 -0.45618205653E+03  0.10659471797E+03  0.15370670433E+03  0.49304183753E+03  0.00000000000E+00 0.  1.
         -3    1    6    6    0  502 -0.11465284265E+03  0.37028071296E+03 -0.10190967081E+03  0.40079753209E+03  0.00000000000E+00 0.  1.
<mgrwt>
<rscale>  0 0.32394791E+04</rscale>
<asrwt>0</asrwt>
<pdfrwt beam="1">  1        1 0.25716603E+00 0.32394791E+04</pdfrwt>
<pdfrwt beam="2">  1       -1 0.24146271E+00 0.32394791E+04</pdfrwt>
<totfact> 0.32956720E-01</totfact>
</mgrwt>
</event>
<event>
12    1  0.1663913E-007  0.1306914E+04  0.7818608E-02  0.9024100E-01
         -2   -1    0    0    0  501 -0.00000000000E+00  0.00000000000E+00  0.23800350836E+03  0.23800350836E+03  0.00000000000E+00 0.  1.
          2   -1    0    0  501    0  0.00000000000E+00 -0.00000000000E+00 -0.17941169903E+04  0.17941169903E+04  0.00000000000E+00 0. -1.
         23    2    1    2    0    0  0.16085378157E+03  0.25746923232E+03 -0.49922171812E+03  0.59147147647E+03  0.91933883841E+02 0.  0.
        254    2    1    2    0    0 -0.16085378157E+03 -0.25746923232E+03 -0.10568917638E+04  0.14406490222E+04  0.93074435806E+03 0.  0.
        -24    2    4    4    0    0  0.24610726733E+03  0.22426104984E+03 -0.38838331966E+03  0.51816363326E+03  0.82402320014E+02 0.  0.
         24    2    4    4    0    0 -0.40696104890E+03 -0.48173028215E+03 -0.66850844415E+03  0.92248538891E+03  0.79964947269E+02 0.  0.
         11    1    3    3    0    0  0.30826506901E+01 -0.50936767608E+01 -0.22795390569E+00  0.59582078852E+01  0.00000000000E+00 0.  1.
        -11    1    3    3    0    0  0.15777113088E+03  0.26256290908E+03 -0.49899376421E+03  0.58551326858E+03  0.00000000000E+00 0. -1.
          4    1    6    6  502    0 -0.10243381385E+03 -0.94855488007E+02 -0.19125911118E+03  0.23679167518E+03  0.00000000000E+00 0. -1.
          3    1    5    5  503    0  0.70532491590E+02  0.19454738843E+02 -0.87347019869E+02  0.11394218320E+03  0.00000000000E+00 0. -1.
         -2    1    5    5    0  503  0.17557477574E+03  0.20480631099E+03 -0.30103629979E+03  0.40422145006E+03  0.00000000000E+00 0.  1.
         -3    1    6    6    0  502 -0.30452723505E+03 -0.38687479414E+03 -0.47724933297E+03  0.68569371373E+03  0.00000000000E+00 0.  1.
<mgrwt>
<rscale>  0 0.13069141E+04</rscale>
<asrwt>0</asrwt>
<pdfrwt beam="1">  1        2 0.27601799E+00 0.13069141E+04</pdfrwt>
<pdfrwt beam="2">  1       -2 0.36615926E-01 0.13069141E+04</pdfrwt>
<totfact> 0.59830724E+01</totfact>
</mgrwt>
</event>
<event>
12    1  0.1663913E-007  0.1558610E+04  0.7818608E-02  0.8846387E-01
          2   -1    0    0  501    0  0.00000000000E+00  0.00000000000E+00  0.42582099739E+03  0.42582099739E+03  0.00000000000E+00 0. -1.
         -2   -1    0    0    0  501 -0.00000000000E+00 -0.00000000000E+00 -0.14262245715E+04  0.14262245715E+04  0.00000000000E+00 0.  1.
         23    2    1    2    0    0  0.42930382986E+03 -0.22743475536E+03 -0.52748272212E+03  0.72239261970E+03  0.87090347230E+02 0.  0.
        254    2    1    2    0    0 -0.42930382986E+03  0.22743475536E+03 -0.47292085199E+03  0.11296529492E+04  0.90356699093E+03 0.  0.
        -24    2    4    4    0    0 -0.29748723298E+02  0.34603977354E+03 -0.59037861160E+03  0.68962790906E+03  0.80070197443E+02 0.  0.
         24    2    4    4    0    0 -0.39955510657E+03 -0.11860501818E+03  0.11745775960E+03  0.44002504013E+03  0.78193843305E+02 0.  0.
         13    1    3    3    0    0  0.36844941689E+03 -0.22667894747E+03 -0.46752252239E+03  0.63695810457E+03  0.00000000000E+00 0.  1.
        -13    1    3    3    0    0  0.60854412971E+02 -0.75580788385E+00 -0.59960199728E+02  0.85434515127E+02  0.00000000000E+00 0. -1.
          2    1    6    6  502    0 -0.33465374705E+03 -0.80567991467E+02  0.12060569055E+03  0.36473286698E+03  0.00000000000E+00 0. -1.
          3    1    5    5  503    0 -0.21927594487E+02  0.93377569472E+02 -0.23220582120E+03  0.25123640915E+03  0.00000000000E+00 0. -1.
         -4    1    5    5    0  503 -0.78211288102E+01  0.25266220407E+03 -0.35817279039E+03  0.43839149992E+03  0.00000000000E+00 0.  1.
         -1    1    6    6    0  502 -0.64901359515E+02 -0.38037026717E+02 -0.31479309458E+01  0.75292173149E+02  0.00000000000E+00 0.  1.
<mgrwt>
<rscale>  0 0.15586101E+04</rscale>
<asrwt>0</asrwt>
<pdfrwt beam="1">  1        2 0.65510924E-01 0.15586101E+04</pdfrwt>
<pdfrwt beam="2">  1       -2 0.21941916E+00 0.15586101E+04</pdfrwt>
<totfact> 0.70978372E+00</totfact>
</mgrwt>
</event>
<event>
12    1  0.2027613E-007  0.1857607E+04  0.7818608E-02  0.8676251E-01
          2   -1    0    0  501    0  0.00000000000E+00  0.00000000000E+00  0.16283537201E+04  0.16283537201E+04  0.00000000000E+00 0. -1.
         -2   -1    0    0    0  501 -0.00000000000E+00 -0.00000000000E+00 -0.52978422232E+03  0.52978422232E+03  0.00000000000E+00 0.  1.
         23    2    1    2    0    0  0.23363111323E+03  0.61988118612E+03  0.70828951655E+03  0.97411606039E+03  0.91607193423E+02 0.  0.
        254    2    1    2    0    0 -0.23363111323E+03 -0.61988118612E+03  0.39027998123E+03  0.11840218820E+04  0.90041833134E+03 0.  0.
        -24    2    4    4    0    0 -0.30736020280E+03  0.10174023535E+03  0.29980327804E+03  0.44880652056E+03  0.81999497709E+02 0.  0.
         24    2    4    4    0    0  0.73729089568E+02 -0.72162142147E+03  0.90476703189E+02  0.73521536147E+03  0.78626581692E+02 0.  0.
         11    1    3    3    0    0  0.19781336333E+03  0.49370336416E+03  0.51358270612E+03  0.73935129305E+03  0.00000000000E+00 0. -1.
        -11    1    3    3    0    0  0.35817749897E+02  0.12617782196E+03  0.19470681043E+03  0.23476476735E+03  0.00000000000E+00 0.  1.
          4    1    6    6  502    0  0.74438835865E+02 -0.71518578444E+03  0.97538525097E+02  0.72563462598E+03  0.00000000000E+00 0. -1.
          1    1    5    5  503    0 -0.30416618521E+03  0.11023610453E+03  0.28358084650E+03  0.43021757690E+03  0.00000000000E+00 0. -1.
         -2    1    5    5    0  503 -0.31940175839E+01 -0.84958691852E+01  0.16222431541E+02  0.18588943667E+02  0.00000000000E+00 0.  1.
         -3    1    6    6    0  502 -0.70974629678E+00 -0.64356370311E+01 -0.70618219077E+01  0.95807354863E+01  0.00000000000E+00 0.  1.
<mgrwt>
<rscale>  0 0.18576072E+04</rscale>
<asrwt>0</asrwt>
<pdfrwt beam="1">  1        2 0.25051595E+00 0.18576072E+04</pdfrwt>
<pdfrwt beam="2">  1       -2 0.81505266E-01 0.18576072E+04</pdfrwt>
<totfact> 0.13391094E+01</totfact>
</mgrwt>
</event>
<event>
12    1  0.1663913E-007  0.2180908E+04  0.7818608E-02  0.8526417E-01
         -2   -1    0    0    0  501 -0.00000000000E+00  0.00000000000E+00  0.85372729923E+03  0.85372729923E+03  0.00000000000E+00 0.  1.
          2   -1    0    0  501    0  0.00000000000E+00 -0.00000000000E+00 -0.13928215629E+04  0.13928215629E+04  0.00000000000E+00 0. -1.
         23    2    1    2    0    0 -0.61287218564E+03 -0.39367006424E+03 -0.77452550577E+03  0.10670869445E+04  0.90533709223E+02 0.  0.
        254    2    1    2    0    0  0.61287218564E+03  0.39367006424E+03  0.23543124212E+03  0.11794619177E+04  0.89728151102E+03 0.  0.
        -24    2    4    4    0    0  0.91260789022E+02  0.10340108458E+03 -0.32109969779E+03  0.35934779253E+03  0.83698889897E+02 0.  0.
         24    2    4    4    0    0  0.52161139662E+03  0.29026897967E+03  0.55653093991E+03  0.82011412513E+03  0.80783423488E+02 0.  0.
         13    1    3    3    0    0 -0.47543084550E+03 -0.26787877007E+03 -0.61066923027E+03  0.81896912830E+03  0.00000000000E+00 0. -1.
        -13    1    3    3    0    0 -0.13744134015E+03 -0.12579129417E+03 -0.16385627550E+03  0.24811781615E+03  0.00000000000E+00 0.  1.
          4    1    6    6  502    0  0.45693834198E+03  0.28159631642E+03  0.48677094446E+03  0.72459304865E+03  0.00000000000E+00 0. -1.
          1    1    5    5  503    0  0.51381644926E+02  0.10475710242E+03 -0.27274893806E+03  0.29665823291E+03  0.00000000000E+00 0. -1.
         -2    1    5    5    0  503  0.39879144096E+02 -0.13560178447E+01 -0.48350759732E+02  0.62689559616E+02  0.00000000000E+00 0.  1.
         -3    1    6    6    0  502  0.64673054644E+02  0.86726632514E+01  0.69759995457E+02  0.95521076475E+02  0.00000000000E+00 0.  1.
<mgrwt>
<rscale>  0 0.21809079E+04</rscale>
<asrwt>0</asrwt>
<pdfrwt beam="1">  1        2 0.21428024E+00 0.21809079E+04</pdfrwt>
<pdfrwt beam="2">  1       -2 0.13134266E+00 0.21809079E+04</pdfrwt>
<totfact> 0.56597297E+00</totfact>
</mgrwt>
</event>
<event>
12    1  0.1663913E-007  0.1726198E+04  0.7818608E-02  0.8746562E-01
         -2   -1    0    0    0  501 -0.00000000000E+00  0.00000000000E+00  0.27909635201E+03  0.27909635201E+03  0.00000000000E+00 0.  1.
          2   -1    0    0  501    0  0.00000000000E+00 -0.00000000000E+00 -0.26691126526E+04  0.26691126526E+04  0.00000000000E+00 0. -1.
         23    2    1    2    0    0  0.81108686321E+02 -0.28944030490E+02 -0.19348275039E+04  0.19388181266E+04  0.89676542008E+02 0.  0.
        254    2    1    2    0    0 -0.81108686321E+02  0.28944030490E+02 -0.45518879663E+03  0.10093908780E+04  0.89680361733E+03 0.  0.
        -24    2    4    4    0    0 -0.44152196872E+03  0.74284777621E+02 -0.47127078315E+02  0.45759086168E+03  0.81905788134E+02 0.  0.
         24    2    4    4    0    0  0.36041328240E+03 -0.45340747131E+02 -0.40806171831E+03  0.55180001629E+03  0.77558845697E+02 0.  0.
         13    1    3    3    0    0  0.19156043694E+02  0.31062919728E+02 -0.72671673889E+03  0.72763251548E+03  0.00000000000E+00 0. -1.
        -13    1    3    3    0    0  0.61952642628E+02 -0.60006950218E+02 -0.12081107650E+04  0.12111856111E+04  0.00000000000E+00 0.  1.
          2    1    6    6  502    0  0.14979647644E+03 -0.30763333729E+02 -0.22681435366E+03  0.27355094239E+03  0.00000000000E+00 0. -1.
          3    1    5    5  503    0 -0.30145111679E+03  0.37399601028E+02 -0.67911923077E+02  0.31126120103E+03  0.00000000000E+00 0. -1.
         -4    1    5    5    0  503 -0.14007085193E+03  0.36885176593E+02  0.20784844762E+02  0.14632966065E+03  0.00000000000E+00 0.  1.
         -1    1    6    6    0  502  0.21061680596E+03 -0.14577413402E+02 -0.18124736466E+03  0.27824907391E+03  0.00000000000E+00 0.  1.
<mgrwt>
<rscale>  0 0.17261977E+04</rscale>
<asrwt>0</asrwt>
<pdfrwt beam="1">  1        2 0.41063270E+00 0.17261977E+04</pdfrwt>
<pdfrwt beam="2">  1       -2 0.42937902E-01 0.17261977E+04</pdfrwt>
<totfact> 0.13559774E+01</totfact>
</mgrwt>
</event>
<event>
12    1  0.1663913E-007  0.2334661E+04  0.7818608E-02  0.8464379E-01
          2   -1    0    0  501    0  0.00000000000E+00  0.00000000000E+00  0.26989523074E+04  0.26989523074E+04  0.00000000000E+00 0. -1.
         -2   -1    0    0    0  501 -0.00000000000E+00 -0.00000000000E+00 -0.50488507056E+03  0.50488507056E+03  0.00000000000E+00 0.  1.
         23    2    1    2    0    0  0.35995932000E+03 -0.39333690956E+02 -0.32965466464E+03  0.49823927825E+03  0.91936549724E+02 0.  0.
        254    2    1    2    0    0 -0.35995932000E+03  0.39333690956E+02  0.25237219015E+04  0.27055980997E+04  0.90552249551E+03 0.  0.
        -24    2    4    4    0    0  0.22546540856E+03  0.25273120797E+03  0.88165747091E+03  0.94749134848E+03  0.75579398582E+02 0.  0.
         24    2    4    4    0    0 -0.58542472856E+03 -0.21339751701E+03  0.16420644306E+04  0.17581067512E+04  0.79392326608E+02 0.  0.
         13    1    3    3    0    0  0.99133037415E+02  0.92788609247E+01 -0.45483450248E+02  0.10946323864E+03  0.00000000000E+00 0. -1.
        -13    1    3    3    0    0  0.26082628259E+03 -0.48612551880E+02 -0.28417121439E+03  0.38877603961E+03  0.00000000000E+00 0.  1.
          2    1    6    6  502    0 -0.56453859092E+03 -0.21853841813E+03  0.16032501954E+04  0.17137310320E+04  0.00000000000E+00 0. -1.
          3    1    5    5  503    0  0.76082534468E+02  0.13568716223E+03  0.35126124660E+03  0.38416665838E+03  0.00000000000E+00 0. -1.
         -4    1    5    5    0  503  0.14938287409E+03  0.11704404574E+03  0.53039622432E+03  0.56332469011E+03  0.00000000000E+00 0.  1.
         -1    1    6    6    0  502 -0.20886137648E+02  0.51409011161E+01  0.38814235167E+02  0.44375719282E+02  0.00000000000E+00 0.  1.
<mgrwt>
<rscale>  0 0.23346612E+04</rscale>
<asrwt>0</asrwt>
<pdfrwt beam="1">  1        2 0.41522342E+00 0.23346612E+04</pdfrwt>
<pdfrwt beam="2">  1       -2 0.77674628E-01 0.23346612E+04</pdfrwt>
<totfact> 0.35511651E+00</totfact>
</mgrwt>
</event>
<event>
12    1  0.1663913E-007  0.1804422E+04  0.7818608E-02  0.8703951E-01
          2   -1    0    0  501    0  0.00000000000E+00  0.00000000000E+00  0.22580649741E+04  0.22580649741E+04  0.00000000000E+00 0. -1.
         -2   -1    0    0    0  501 -0.00000000000E+00 -0.00000000000E+00 -0.36047894842E+03  0.36047894842E+03  0.00000000000E+00 0.  1.
         23    2    1    2    0    0 -0.48445255133E+03  0.94701626147E+02  0.13998516377E+04  0.14875923955E+04  0.98406580276E+02 0.  0.
        254    2    1    2    0    0  0.48445255133E+03 -0.94701626147E+02  0.49773438797E+03  0.11309515270E+04  0.88749600734E+03 0.  0.
        -24    2    4    4    0    0  0.35409495335E+02  0.65013271617E+02 -0.23242846901E+03  0.25526587942E+03  0.75213816168E+02 0.  0.
         24    2    4    4    0    0  0.44904305600E+03 -0.15971489776E+03  0.73016285698E+03  0.87568564762E+03  0.80864337172E+02 0.  0.
         13    1    3    3    0    0 -0.32758053478E+03  0.92258529873E+02  0.84421853376E+03  0.91023380284E+03  0.00000000000E+00 0. -1.
        -13    1    3    3    0    0 -0.15687201655E+03  0.24430962741E+01  0.55563310398E+03  0.57735859267E+03  0.00000000000E+00 0.  1.
          2    1    6    6  502    0  0.32331476459E+03 -0.75604795355E+02  0.49302200030E+03  0.59440660735E+03  0.00000000000E+00 0. -1.
          1    1    5    5  503    0  0.47308621539E+02  0.42481596769E+02 -0.87771297736E+02  0.10838169791E+03  0.00000000000E+00 0. -1.
         -2    1    5    5    0  503 -0.11899126204E+02  0.22531674848E+02 -0.14465717127E+03  0.14688418150E+03  0.00000000000E+00 0.  1.
         -3    1    6    6    0  502  0.12572829141E+03 -0.84110102410E+02  0.23714085667E+03  0.28127904026E+03  0.00000000000E+00 0.  1.
<mgrwt>
<rscale>  0 0.18044222E+04</rscale>
<asrwt>0</asrwt>
<pdfrwt beam="1">  1        2 0.34739460E+00 0.18044222E+04</pdfrwt>
<pdfrwt beam="2">  1       -2 0.55458301E-01 0.18044222E+04</pdfrwt>
<totfact> 0.13814848E+01</totfact>
</mgrwt>
</event>
<event>
12    1  0.1663913E-007  0.1411533E+04  0.7818608E-02  0.8945512E-01
         -2   -1    0    0    0  501 -0.00000000000E+00  0.00000000000E+00  0.33193635960E+03  0.33193635960E+03  0.00000000000E+00 0.  1.
          2   -1    0    0  501    0  0.00000000000E+00 -0.00000000000E+00 -0.15006083855E+04  0.15006083855E+04  0.00000000000E+00 0. -1.
         23    2    1    2    0    0 -0.25797009932E+03 -0.24385661668E+03 -0.47094200712E+03  0.59679270861E+03  0.91435995795E+02 0.  0.
        254    2    1    2    0    0  0.25797009932E+03  0.24385661668E+03 -0.69773001876E+03  0.12357520365E+04  0.95615965976E+03 0.  0.
        -24    2    4    4    0    0 -0.28831547873E+02 -0.21799365512E+03  0.11046093786E+03  0.25850638582E+03  0.79192429484E+02 0.  0.
         24    2    4    4    0    0  0.28680164720E+03  0.46185027180E+03 -0.80819095662E+03  0.97724565067E+03  0.79218564650E+02 0.  0.
         13    1    3    3    0    0 -0.20820801454E+03 -0.18368886672E+03 -0.42029196824E+03  0.50372365007E+03  0.00000000000E+00 0. -1.
        -13    1    3    3    0    0 -0.49762084787E+02 -0.60167749958E+02 -0.50650038885E+02  0.93069058534E+02  0.00000000000E+00 0.  1.
          4    1    6    6  502    0  0.21209369546E+03  0.29946667607E+03 -0.59469206881E+03  0.69880088898E+03  0.00000000000E+00 0. -1.
          1    1    5    5  503    0 -0.48776107370E+02 -0.12880696634E+03  0.90964809288E+02  0.16506041244E+03  0.00000000000E+00 0. -1.
         -2    1    5    5    0  503  0.19944559496E+02 -0.89186688788E+02  0.19496128572E+02  0.93445973373E+02  0.00000000000E+00 0.  1.
         -3    1    6    6    0  502  0.74707951741E+02  0.16238359573E+03 -0.21349888781E+03  0.27844476169E+03  0.00000000000E+00 0.  1.
<mgrwt>
<rscale>  0 0.14115332E+04</rscale>
<asrwt>0</asrwt>
<pdfrwt beam="1">  1        2 0.23086282E+00 0.14115332E+04</pdfrwt>
<pdfrwt beam="2">  1       -2 0.51067133E-01 0.14115332E+04</pdfrwt>
<totfact> 0.44693727E+01</totfact>
</mgrwt>
</event>
<event>
12    1  0.1663913E-007  0.1590583E+04  0.7818608E-02  0.8826354E-01
          1   -1    0    0  501    0  0.00000000000E+00  0.00000000000E+00  0.26071308521E+04  0.26071308521E+04  0.00000000000E+00 0. -1.
         -1   -1    0    0    0  501 -0.00000000000E+00 -0.00000000000E+00 -0.24259959216E+03  0.24259959216E+03  0.00000000000E+00 0.  1.
         23    2    1    2    0    0 -0.51540671004E+03  0.85398577506E+02  0.61036279237E+03  0.80845678697E+03  0.90125713819E+02 0.  0.
        254    2    1    2    0    0  0.51540671004E+03 -0.85398577506E+02  0.17541684675E+04  0.20412736572E+04  0.90374450898E+03 0.  0.
        -24    2    4    4    0    0  0.53131485872E+03  0.30620789872E+03  0.83394633462E+03  0.10380109776E+04  0.77081412743E+02 0.  0.
         24    2    4    4    0    0 -0.15908148675E+02 -0.39160647622E+03  0.92022213291E+03  0.10032626797E+04  0.78221027442E+02 0.  0.
         13    1    3    3    0    0 -0.48123325255E+03  0.61731236788E+02  0.58395146226E+03  0.75920715173E+03  0.00000000000E+00 0. -1.
        -13    1    3    3    0    0 -0.34173457486E+02  0.23667340718E+02  0.26411330113E+02  0.49249635243E+02  0.00000000000E+00 0.  1.
          4    1    6    6  502    0  0.19669901848E+02 -0.27458606468E+02  0.78056569909E+02  0.85051209362E+02  0.00000000000E+00 0. -1.
          3    1    5    5  503    0  0.15585414786E+02  0.27860934294E+02  0.39299608213E+02  0.50631966380E+02  0.00000000000E+00 0. -1.
         -4    1    5    5    0  503  0.51572944393E+03  0.27834696442E+03  0.79464672640E+03  0.98737901118E+03  0.00000000000E+00 0.  1.
         -3    1    6    6    0  502 -0.35578050523E+02 -0.36414786976E+03  0.84216556300E+03  0.91821147032E+03  0.00000000000E+00 0.  1.
<mgrwt>
<rscale>  0 0.15905834E+04</rscale>
<asrwt>0</asrwt>
<pdfrwt beam="1">  1        1 0.40109703E+00 0.15905834E+04</pdfrwt>
<pdfrwt beam="2">  1       -1 0.37323016E-01 0.15905834E+04</pdfrwt>
<totfact> 0.75890242E+00</totfact>
</mgrwt>
</event>
<event>
12    1  0.1663913E-007  0.1060331E+04  0.7818608E-02  0.9244743E-01
         -1   -1    0    0    0  501 -0.00000000000E+00  0.00000000000E+00  0.63544243927E+03  0.63544243927E+03  0.00000000000E+00 0.  1.
          1   -1    0    0  501    0  0.00000000000E+00 -0.00000000000E+00 -0.44233012906E+03  0.44233012906E+03  0.00000000000E+00 0. -1.
         23    2    1    2    0    0 -0.71695080706E+02 -0.49342312991E+02  0.10431282388E+03  0.17244624440E+03  0.10621531684E+03 0.  0.
        254    2    1    2    0    0  0.71695080706E+02  0.49342312991E+02  0.88799486322E+02  0.90532632393E+03  0.89674720829E+03 0.  0.
        -24    2    4    4    0    0  0.35818601641E+02 -0.58006195714E+02 -0.39114344215E+03  0.40497126392E+03  0.79754882613E+02 0.  0.
         24    2    4    4    0    0  0.35876479065E+02  0.10734850870E+03  0.47994292847E+03  0.50035506001E+03  0.84847789678E+02 0.  0.
         13    1    3    3    0    0 -0.16137981097E+01  0.21422978352E+02  0.59451488599E+02  0.63214142741E+02  0.00000000000E+00 0. -1.
        -13    1    3    3    0    0 -0.70081282596E+02 -0.70765291343E+02  0.44861335284E+02  0.10923210166E+03  0.00000000000E+00 0.  1.
          4    1    6    6  502    0  0.32127619495E+02  0.11175611911E+03  0.32279939614E+03  0.34310503383E+03  0.00000000000E+00 0. -1.
          3    1    5    5  503    0  0.20457854036E+00  0.13112179142E+02 -0.12683984153E+02  0.18244301801E+02  0.00000000000E+00 0. -1.
         -2    1    5    5    0  503  0.35614023101E+02 -0.71118374856E+02 -0.37845945800E+03  0.38672696212E+03  0.00000000000E+00 0.  1.
         -3    1    6    6    0  502  0.37488595696E+01 -0.44076104101E+01  0.15714353233E+03  0.15725002617E+03  0.00000000000E+00 0.  1.
<mgrwt>
<rscale>  0 0.10603308E+04</rscale>
<asrwt>0</asrwt>
<pdfrwt beam="1">  1        1 0.68050789E-01 0.10603308E+04</pdfrwt>
<pdfrwt beam="2">  1       -1 0.97760375E-01 0.10603308E+04</pdfrwt>
<totfact> 0.52580156E+01</totfact>
</mgrwt>
</event>
<event>
12    1  0.1663913E-007  0.1630621E+04  0.7818608E-02  0.8801954E-01
          1   -1    0    0  501    0  0.00000000000E+00  0.00000000000E+00  0.11928835869E+04  0.11928835869E+04  0.00000000000E+00 0. -1.
         -1   -1    0    0    0  501 -0.00000000000E+00 -0.00000000000E+00 -0.55724708707E+03  0.55724708707E+03  0.00000000000E+00 0.  1.
         23    2    1    2    0    0 -0.39976338117E+03  0.26015714468E+03  0.55087072258E+03  0.73429240403E+03  0.90742937870E+02 0.  0.
        254    2    1    2    0    0  0.39976338117E+03 -0.26015714468E+03  0.84765777224E+02  0.10158382699E+04  0.89288837644E+03 0.  0.
        -24    2    4    4    0    0  0.43865075831E+03 -0.16311101745E+02  0.40658417596E+03  0.60372354635E+03  0.80566050353E+02 0.  0.
         24    2    4    4    0    0 -0.38887377135E+02 -0.24384604293E+03 -0.32181839874E+03  0.41211472357E+03  0.72789716738E+02 0.  0.
         13    1    3    3    0    0 -0.99319808408E+02  0.66683295836E+02  0.20272234572E+03  0.23538784111E+03  0.00000000000E+00 0. -1.
        -13    1    3    3    0    0 -0.30044357277E+03  0.19347384884E+03  0.34814837685E+03  0.49890456293E+03  0.00000000000E+00 0.  1.
          2    1    6    6  502    0 -0.10982209392E+02 -0.22113007279E+03 -0.27403400799E+03  0.35229782223E+03  0.00000000000E+00 0. -1.
          3    1    5    5  503    0  0.40082416818E+03 -0.23040722642E+02  0.33673543059E+03  0.52400538061E+03  0.00000000000E+00 0. -1.
         -4    1    5    5    0  503  0.37826590128E+02  0.67296208973E+01  0.69848745375E+02  0.79718165737E+02  0.00000000000E+00 0.  1.
         -1    1    6    6    0  502 -0.27905167743E+02 -0.22715970140E+02 -0.47784390749E+02  0.59816901336E+02  0.00000000000E+00 0.  1.
<mgrwt>
<rscale>  0 0.16306206E+04</rscale>
<asrwt>0</asrwt>
<pdfrwt beam="1">  1        1 0.18352055E+00 0.16306206E+04</pdfrwt>
<pdfrwt beam="2">  1       -1 0.85730321E-01 0.16306206E+04</pdfrwt>
<totfact> 0.13911752E+01</totfact>
</mgrwt>
</event>
<event>
12    1  0.1663913E-007  0.2374989E+04  0.7818608E-02  0.8448927E-01
          2   -1    0    0  501    0  0.00000000000E+00  0.00000000000E+00  0.71659792113E+03  0.71659792113E+03  0.00000000000E+00 0. -1.
         -2   -1    0    0    0  501 -0.00000000000E+00 -0.00000000000E+00 -0.19678307543E+04  0.19678307543E+04  0.00000000000E+00 0.  1.
         23    2    1    2    0    0 -0.53170698370E+03  0.86048499021E+03 -0.45292977112E+03  0.11121451780E+04  0.92600131697E+02 0.  0.
        254    2    1    2    0    0  0.53170698370E+03 -0.86048499021E+03 -0.79830306204E+03  0.15722834975E+04  0.90091114027E+03 0.  0.
        -24    2    4    4    0    0  0.82264245458E+02  0.12638212652E+03  0.66773871567E+02  0.18282976848E+03  0.78918479046E+02 0.  0.
         24    2    4    4    0    0  0.44944273825E+03 -0.98686711673E+03 -0.86507693361E+03  0.13894537290E+04  0.79486369199E+02 0.  0.
         13    1    3    3    0    0 -0.69229392463E+02  0.13405395203E+03 -0.10261383800E+03  0.18246306636E+03  0.00000000000E+00 0. -1.
        -13    1    3    3    0    0 -0.46247759124E+03  0.72643103818E+03 -0.35031593313E+03  0.92968211160E+03  0.00000000000E+00 0.  1.
          4    1    6    6  502    0  0.44866521930E+03 -0.98256833061E+03 -0.85220692332E+03  0.13758625089E+04  0.00000000000E+00 0. -1.
          1    1    5    5  503    0  0.78590712032E+02  0.13739280500E+03  0.64905204105E+02  0.17107299145E+03  0.00000000000E+00 0. -1.
         -2    1    5    5    0  503  0.36735334262E+01 -0.11010678473E+02  0.18686674624E+01  0.11756777039E+02  0.00000000000E+00 0.  1.
         -3    1    6    6    0  502  0.77751894695E+00 -0.42987861211E+01 -0.12870010286E+02  0.13591220055E+02  0.00000000000E+00 0.  1.
<mgrwt>
<rscale>  0 0.23749892E+04</rscale>
<asrwt>0</asrwt>
<pdfrwt beam="1">  1        2 0.11024583E+00 0.23749892E+04</pdfrwt>
<pdfrwt beam="2">  1       -2 0.30274320E+00 0.23749892E+04</pdfrwt>
<totfact> 0.10960767E+00</totfact>
</mgrwt>
</event>
<event>
12    1  0.1663913E-007  0.3077840E+04  0.7818608E-02  0.8221846E-01
         -1   -1    0    0    0  501 -0.00000000000E+00  0.00000000000E+00  0.20934572671E+04  0.20934572671E+04  0.00000000000E+00 0.  1.
          1   -1    0    0  501    0  0.00000000000E+00 -0.00000000000E+00 -0.11312744912E+04  0.11312744912E+04  0.00000000000E+00 0. -1.
         23    2    1    2    0    0 -0.77045588595E+03 -0.66253665315E+03 -0.57775131260E+03  0.11724715038E+04  0.91300378302E+02 0.  0.
        254    2    1    2    0    0  0.77045588595E+03  0.66253665315E+03  0.15399340885E+04  0.20522602544E+04  0.89878699711E+03 0.  0.
        -24    2    4    4    0    0 -0.16162023321E+03 -0.21457839388E+01  0.84696083897E+02  0.19880783611E+03  0.78901361827E+02 0.  0.
         24    2    4    4    0    0  0.93207611916E+03  0.66468243709E+03  0.14552380046E+04  0.18534524183E+04  0.83663510431E+02 0.  0.
         13    1    3    3    0    0 -0.13094298344E+03 -0.14332389515E+03 -0.79650077832E+02  0.20983788679E+03  0.00000000000E+00 0.  1.
        -13    1    3    3    0    0 -0.63951290250E+03 -0.51921275800E+03 -0.49810123476E+03  0.96263361702E+03  0.00000000000E+00 0. -1.
          4    1    6    6  502    0  0.34300141503E+03  0.27340627485E+03  0.50404137556E+03  0.66817562820E+03  0.00000000000E+00 0. -1.
          3    1    5    5  503    0 -0.13157531026E+03 -0.32058186936E+02  0.76789654169E+02  0.15568057235E+03  0.00000000000E+00 0. -1.
         -4    1    5    5    0  503 -0.30044922955E+02  0.29912402997E+02  0.79064297282E+01  0.43127263761E+02  0.00000000000E+00 0.  1.
         -3    1    6    6    0  502  0.58907470413E+03  0.39127616224E+03  0.95119662902E+03  0.11852767901E+04  0.00000000000E+00 0.  1.
<mgrwt>
<rscale>  0 0.30778400E+04</rscale>
<asrwt>0</asrwt>
<pdfrwt beam="1">  1        1 0.17404223E+00 0.30778400E+04</pdfrwt>
<pdfrwt beam="2">  1       -1 0.32207035E+00 0.30778400E+04</pdfrwt>
<totfact> 0.24087780E-01</totfact>
</mgrwt>
</event>
<event>
12    1  0.1663913E-007  0.2782694E+04  0.7818608E-02  0.8308661E-01
          1   -1    0    0  501    0  0.00000000000E+00  0.00000000000E+00  0.68993888594E+03  0.68993888594E+03  0.00000000000E+00 0. -1.
         -1   -1    0    0    0  501 -0.00000000000E+00 -0.00000000000E+00 -0.28058235189E+04  0.28058235189E+04  0.00000000000E+00 0.  1.
         23    2    1    2    0    0  0.99921428787E+03  0.36558478718E+03 -0.17478150326E+04  0.20481695790E+04  0.89776423819E+02 0.  0.
        254    2    1    2    0    0 -0.99921428787E+03 -0.36558478718E+03 -0.36806960039E+03  0.14475928259E+04  0.90992765054E+03 0.  0.
        -24    2    4    4    0    0 -0.54850815246E+03 -0.58881349743E+03  0.17570187737E+02  0.80867902400E+03  0.78041811146E+02 0.  0.
         24    2    4    4    0    0 -0.45070613540E+03  0.22322871025E+03 -0.38563978813E+03  0.63891380192E+03  0.80781944299E+02 0.  0.
         13    1    3    3    0    0  0.26515479249E+03  0.62094642135E+02 -0.48808148876E+03  0.55891533190E+03  0.00000000000E+00 0. -1.
        -13    1    3    3    0    0  0.73405949538E+03  0.30349014505E+03 -0.12597335438E+04  0.14892542471E+04  0.00000000000E+00 0.  1.
          2    1    6    6  502    0 -0.25236598496E+03  0.16702054067E+03 -0.24481870784E+03  0.38925653634E+03  0.00000000000E+00 0. -1.
          1    1    5    5  503    0 -0.35113648275E+03 -0.35725828456E+03 -0.24485274542E+02  0.50152750680E+03  0.00000000000E+00 0. -1.
         -2    1    5    5    0  503 -0.19737166971E+03 -0.23155521287E+03  0.42055462280E+02  0.30715151720E+03  0.00000000000E+00 0.  1.
         -1    1    6    6    0  502 -0.19834015044E+03  0.56208169576E+02 -0.14082108028E+03  0.24965726558E+03  0.00000000000E+00 0.  1.
<mgrwt>
<rscale>  0 0.27826942E+04</rscale>
<asrwt>0</asrwt>
<pdfrwt beam="1">  1        1 0.10614444E+00 0.27826942E+04</pdfrwt>
<pdfrwt beam="2">  1       -1 0.43166516E+00 0.27826942E+04</pdfrwt>
<totfact> 0.10450141E-01</totfact>
</mgrwt>
</event>
<event>
12    1  0.1663913E-007  0.1967699E+04  0.7818608E-02  0.8621873E-01
         -1   -1    0    0    0  501 -0.00000000000E+00  0.00000000000E+00  0.37848839403E+03  0.37848839403E+03  0.00000000000E+00 0.  1.
          1   -1    0    0  501    0  0.00000000000E+00 -0.00000000000E+00 -0.25574348255E+04  0.25574348255E+04  0.00000000000E+00 0. -1.
         23    2    1    2    0    0 -0.17249607259E+03  0.14502314244E+03  0.23452899663E+03  0.33774459053E+03  0.90999732279E+02 0.  0.
        254    2    1    2    0    0  0.17249607259E+03 -0.14502314244E+03 -0.24134754281E+04  0.25981786290E+04  0.93535123842E+03 0.  0.
        -24    2    4    4    0    0 -0.22274146761E+03  0.26085006516E+03 -0.58706079766E+03  0.68433030740E+03  0.77531100755E+02 0.  0.
         24    2    4    4    0    0  0.39523754020E+03 -0.40587320759E+03 -0.18264146305E+04  0.19138483216E+04  0.77969365554E+02 0.  0.
         11    1    3    3    0    0  0.64598346842E+01  0.21091441497E+02  0.77016715275E+01  0.23364377006E+02  0.00000000000E+00 0. -1.
        -11    1    3    3    0    0 -0.17895590727E+03  0.12393170094E+03  0.22682732510E+03  0.31438021353E+03  0.00000000000E+00 0.  1.
          4    1    6    6  502    0  0.11472382045E+03 -0.12807746008E+03 -0.67827072728E+03  0.69972606800E+03  0.00000000000E+00 0. -1.
          3    1    5    5  503    0 -0.51460541795E+02  0.11047132419E+03 -0.17189951010E+03  0.21071673498E+03  0.00000000000E+00 0. -1.
         -4    1    5    5    0  503 -0.17128092582E+03  0.15037874097E+03 -0.41516128756E+03  0.47361357241E+03  0.00000000000E+00 0.  1.
         -3    1    6    6    0  502  0.28051371976E+03 -0.27779574751E+03 -0.11481439032E+04  0.12141222536E+04  0.00000000000E+00 0.  1.
<mgrwt>
<rscale>  0 0.19676986E+04</rscale>
<asrwt>0</asrwt>
<pdfrwt beam="1">  1        1 0.39345151E+00 0.19676986E+04</pdfrwt>
<pdfrwt beam="2">  1       -1 0.58228983E-01 0.19676986E+04</pdfrwt>
<totfact> 0.34371729E+00</totfact>
</mgrwt>
</event>
<event>
12    1  0.1663913E-007  0.1444200E+04  0.7818608E-02  0.8922431E-01
          2   -1    0    0  501    0  0.00000000000E+00  0.00000000000E+00  0.11995810340E+04  0.11995810340E+04  0.00000000000E+00 0. -1.
         -2   -1    0    0    0  501 -0.00000000000E+00 -0.00000000000E+00 -0.43467571655E+03  0.43467571655E+03  0.00000000000E+00 0.  1.
         23    2    1    2    0    0 -0.36008899722E+03  0.22382787886E+03  0.33803945612E+03  0.55092924872E+03  0.97413335476E+02 0.  0.
        254    2    1    2    0    0  0.36008899722E+03 -0.22382787886E+03  0.42686586129E+03  0.10833275018E+04  0.90090010952E+03 0.  0.
        -24    2    4    4    0    0 -0.28357359311E+02 -0.47463129047E+03  0.54464364058E+02  0.48440421779E+03  0.74847027612E+02 0.  0.
         24    2    4    4    0    0  0.38844635653E+03  0.25080341161E+03  0.37240149723E+03  0.59892328400E+03  0.78951262188E+02 0.  0.
         13    1    3    3    0    0 -0.24987032864E+03  0.19963322943E+03  0.27421734274E+03  0.42128821308E+03  0.00000000000E+00 0. -1.
        -13    1    3    3    0    0 -0.11021866858E+03  0.24194649437E+02  0.63822113386E+02  0.12964103564E+03  0.00000000000E+00 0.  1.
          2    1    6    6  502    0  0.16821966442E+03  0.93450030974E+02  0.20250005139E+03  0.27935109558E+03  0.00000000000E+00 0. -1.
          1    1    5    5  503    0  0.21497799611E+02 -0.61375325377E+02  0.97220708511E+01  0.65754122417E+02  0.00000000000E+00 0. -1.
         -2    1    5    5    0  503 -0.49855158922E+02 -0.41325596509E+03  0.44742293207E+02  0.41865009537E+03  0.00000000000E+00 0.  1.
         -1    1    6    6    0  502  0.22022669211E+03  0.15735338063E+03  0.16990144584E+03  0.31957218842E+03  0.00000000000E+00 0.  1.
<mgrwt>
<rscale>  0 0.14442005E+04</rscale>
<asrwt>0</asrwt>
<pdfrwt beam="1">  1        2 0.18455093E+00 0.14442005E+04</pdfrwt>
<pdfrwt beam="2">  1       -2 0.66873188E-01 0.14442005E+04</pdfrwt>
<totfact> 0.37755467E+01</totfact>
</mgrwt>
</event>
<event>
12    1  0.1663913E-007  0.2134949E+04  0.7818608E-02  0.8546003E-01
         -1   -1    0    0    0  501 -0.00000000000E+00  0.00000000000E+00  0.68079467890E+03  0.68079467890E+03  0.00000000000E+00 0.  1.
          1   -1    0    0  501    0  0.00000000000E+00 -0.00000000000E+00 -0.16737814332E+04  0.16737814332E+04  0.00000000000E+00 0. -1.
         23    2    1    2    0    0 -0.65468807429E+03  0.57266007086E+03 -0.66916449474E+03  0.11010552615E+04  0.89361828982E+02 0.  0.
        254    2    1    2    0    0  0.65468807429E+03 -0.57266007086E+03 -0.32382225954E+03  0.12535208506E+04  0.84255423309E+03 0.  0.
        -24    2    4    4    0    0  0.49656088496E+03  0.28853285679E+02  0.75934385037E+02  0.50951379853E+03  0.80206330771E+02 0.  0.
         24    2    4    4    0    0  0.15812718933E+03 -0.60151335654E+03 -0.39975664457E+03  0.74400705205E+03  0.83178077169E+02 0.  0.
         11    1    3    3    0    0 -0.14573050620E+03  0.15044335150E+03 -0.11945907481E+03  0.24112455911E+03  0.00000000000E+00 0.  1.
        -11    1    3    3    0    0 -0.50895756809E+03  0.42221671936E+03 -0.54970541993E+03  0.85993070240E+03  0.00000000000E+00 0. -1.
          4    1    6    6  502    0  0.13379954012E+03 -0.37109627973E+03 -0.22842157957E+03  0.45584118263E+03  0.00000000000E+00 0. -1.
          3    1    5    5  503    0  0.42014471651E+03  0.51941453741E+02  0.54338653825E+02  0.42681633840E+03  0.00000000000E+00 0. -1.
         -4    1    5    5    0  503  0.76416168448E+02 -0.23088168062E+02  0.21595731212E+02  0.82697460127E+02  0.00000000000E+00 0.  1.
         -3    1    6    6    0  502  0.24327649211E+02 -0.23041707681E+03 -0.17133506501E+03  0.28816586942E+03  0.00000000000E+00 0.  1.
<mgrwt>
<rscale>  0 0.21349487E+04</rscale>
<asrwt>0</asrwt>
<pdfrwt beam="1">  1        1 0.25750483E+00 0.21349487E+04</pdfrwt>
<pdfrwt beam="2">  1       -1 0.10473764E+00 0.21349487E+04</pdfrwt>
<totfact> 0.38993851E+00</totfact>
</mgrwt>
</event>
<event>
12    1  0.1663913E-007  0.3210406E+04  0.7818608E-02  0.8186074E-01
          2   -1    0    0  501    0  0.00000000000E+00  0.00000000000E+00  0.33869669581E+04  0.33869669581E+04  0.00000000000E+00 0. -1.
         -2   -1    0    0    0  501 -0.00000000000E+00 -0.00000000000E+00 -0.76076205228E+03  0.76076205228E+03  0.00000000000E+00 0.  1.
         23    2    1    2    0    0  0.94626598092E+02 -0.49974262197E+03  0.30144226725E+04  0.30583871139E+04  0.91053878021E+02 0.  0.
        254    2    1    2    0    0 -0.94626598092E+02  0.49974262197E+03 -0.38821776668E+03  0.10893418965E+04  0.88162114979E+03 0.  0.
        -24    2    4    4    0    0 -0.26843624260E+03  0.24203028068E+03 -0.59898706036E+03  0.70410836322E+03  0.79664393327E+02 0.  0.
         24    2    4    4    0    0  0.17380964451E+03  0.25771234130E+03  0.21076929368E+03  0.38523353326E+03  0.85765591041E+02 0.  0.
         11    1    3    3    0    0 -0.14823061789E+02 -0.11590708063E+03  0.75264876480E+03  0.76166550247E+03  0.00000000000E+00 0.  1.
        -11    1    3    3    0    0  0.10944965988E+03 -0.38383554135E+03  0.22617739077E+04  0.22967216114E+04  0.00000000000E+00 0. -1.
          2    1    6    6  502    0  0.14595024226E+03  0.22640865228E+03  0.14150586405E+03  0.30427990502E+03  0.00000000000E+00 0. -1.
          3    1    5    5  503    0 -0.17412733705E+02 -0.47790945041E+01 -0.27602976231E+02  0.32984349867E+02  0.00000000000E+00 0. -1.
         -4    1    5    5    0  503 -0.25102350890E+03  0.24680937518E+03 -0.57138408413E+03  0.67112401335E+03  0.00000000000E+00 0.  1.
         -1    1    6    6    0  502  0.27859402250E+02  0.31303689020E+02  0.69263429630E+02  0.80953628233E+02  0.00000000000E+00 0.  1.
<mgrwt>
<rscale>  0 0.32104055E+04</rscale>
<asrwt>0</asrwt>
<pdfrwt beam="1">  1        2 0.52107183E+00 0.32104055E+04</pdfrwt>
<pdfrwt beam="2">  1       -2 0.11704032E+00 0.32104055E+04</pdfrwt>
<totfact> 0.46188171E-01</totfact>
</mgrwt>
</event>
<event>
12    1  0.1663913E-007  0.1790048E+04  0.7818608E-02  0.8711610E-01
         -2   -1    0    0    0  501 -0.00000000000E+00  0.00000000000E+00  0.74593193831E+03  0.74593193831E+03  0.00000000000E+00 0.  1.
          2   -1    0    0  501    0  0.00000000000E+00 -0.00000000000E+00 -0.10739150683E+04  0.10739150683E+04  0.00000000000E+00 0. -1.
         23    2    1    2    0    0 -0.23930398443E+03  0.59184352433E+03 -0.37452964613E+03  0.74573357614E+03  0.91109585086E+02 0.  0.
        254    2    1    2    0    0  0.23930398443E+03 -0.59184352433E+03  0.46546516188E+02  0.10741134304E+04  0.86255894233E+03 0.  0.
        -24    2    4    4    0    0 -0.23446632282E+03  0.25927261081E+02  0.14068476593E+03  0.28631391587E+03  0.80850328734E+02 0.  0.
         24    2    4    4    0    0  0.47377030725E+03 -0.61777078541E+03 -0.94138249738E+02  0.78779951455E+03  0.75279597001E+02 0.  0.
         13    1    3    3    0    0 -0.41961248996E+02  0.79785045112E+02 -0.19799314738E+02  0.92295247466E+02  0.00000000000E+00 0. -1.
        -13    1    3    3    0    0 -0.19734273543E+03  0.51205847921E+03 -0.35473033140E+03  0.65343832867E+03  0.00000000000E+00 0.  1.
          4    1    6    6  502    0  0.46369336723E+03 -0.59074870989E+03 -0.78758019465E+02  0.75511482748E+03  0.00000000000E+00 0. -1.
          1    1    5    5  503    0 -0.10134213387E+03  0.40563162371E+02  0.31761207271E+02  0.11368541035E+03  0.00000000000E+00 0. -1.
         -2    1    5    5    0  503 -0.13312418894E+03 -0.14635901289E+02  0.10892355866E+03  0.17262850552E+03  0.00000000000E+00 0.  1.
         -3    1    6    6    0  502  0.10076940014E+02 -0.27022075514E+02 -0.15380230273E+02  0.32684687062E+02  0.00000000000E+00 0.  1.
<mgrwt>
<rscale>  0 0.17900475E+04</rscale>
<asrwt>0</asrwt>
<pdfrwt beam="1">  1        2 0.16521770E+00 0.17900475E+04</pdfrwt>
<pdfrwt beam="2">  1       -2 0.11475876E+00 0.17900475E+04</pdfrwt>
<totfact> 0.12664999E+01</totfact>
</mgrwt>
</event>
<event>
12    1  0.1663913E-007  0.1502434E+04  0.7818608E-02  0.8882836E-01
          2   -1    0    0  501    0  0.00000000000E+00  0.00000000000E+00  0.33196253926E+04  0.33196253926E+04  0.00000000000E+00 0. -1.
         -2   -1    0    0    0  501 -0.00000000000E+00 -0.00000000000E+00 -0.16999714740E+03  0.16999714740E+03  0.00000000000E+00 0.  1.
         23    2    1    2    0    0  0.86440430149E+02  0.30593312106E+03  0.18664499273E+04  0.18951477123E+04  0.82960821401E+02 0.  0.
        254    2    1    2    0    0 -0.86440430149E+02 -0.30593312106E+03  0.12831783179E+04  0.15944748276E+04  0.89147986965E+03 0.  0.
        -24    2    4    4    0    0  0.35938399745E+03  0.50078586119E+02  0.51109190131E+03  0.63111793571E+03  0.73689855381E+02 0.  0.
         24    2    4    4    0    0 -0.44582442760E+03 -0.35601170718E+03  0.77208641656E+03  0.96335689192E+03  0.80220388161E+02 0.  0.
         13    1    3    3    0    0  0.29802495155E+02  0.11183448743E+03  0.46498500503E+03  0.47917240759E+03  0.00000000000E+00 0. -1.
        -13    1    3    3    0    0  0.56637934994E+02  0.19409863363E+03  0.14014649223E+04  0.14159753047E+04  0.00000000000E+00 0.  1.
          2    1    6    6  502    0 -0.26455950574E+03 -0.25281844945E+03  0.52596282701E+03  0.64073847696E+03  0.00000000000E+00 0. -1.
          3    1    5    5  503    0  0.11876985631E+03  0.50191361416E+02  0.19723431792E+03  0.23564131152E+03  0.00000000000E+00 0. -1.
         -4    1    5    5    0  503  0.24061414114E+03 -0.11277529701E+00  0.31385758339E+03  0.39547662420E+03  0.00000000000E+00 0.  1.
         -1    1    6    6    0  502 -0.18126492186E+03 -0.10319325773E+03  0.24612358955E+03  0.32261841497E+03  0.00000000000E+00 0.  1.
<mgrwt>
<rscale>  0 0.15024338E+04</rscale>
<asrwt>0</asrwt>
<pdfrwt beam="1">  1        2 0.51071155E+00 0.15024338E+04</pdfrwt>
<pdfrwt beam="2">  1       -2 0.26153410E-01 0.15024338E+04</pdfrwt>
<totfact> 0.13953216E+01</totfact>
</mgrwt>
</event>
<event>
12    1  0.1726861E-007  0.2833305E+04  0.7818608E-02  0.8293002E-01
          2   -1    0    0  501    0  0.00000000000E+00  0.00000000000E+00  0.10081211904E+04  0.10081211904E+04  0.00000000000E+00 0. -1.
         -2   -1    0    0    0  501 -0.00000000000E+00 -0.00000000000E+00 -0.19907374863E+04  0.19907374863E+04  0.00000000000E+00 0.  1.
         23    2    1    2    0    0 -0.64420157281E+02  0.54922772862E+03  0.77198672081E+03  0.95393755671E+03  0.90732080577E+02 0.  0.
        254    2    1    2    0    0  0.64420157281E+02 -0.54922772862E+03 -0.17546030167E+04  0.20449211200E+04  0.89289953873E+03 0.  0.
        -24    2    4    4    0    0  0.72357125211E+02 -0.25542369315E+03 -0.17165783050E+04  0.17388369857E+04  0.80225737214E+02 0.  0.
         24    2    4    4    0    0 -0.79369679303E+01 -0.29380403547E+03 -0.38024711674E+02  0.30608413431E+03  0.76536343402E+02 0.  0.
         11    1    3    3    0    0 -0.68067873173E+02  0.44318285232E+03  0.56461111726E+03  0.72099236451E+03  0.00000000000E+00 0. -1.
        -11    1    3    3    0    0  0.36477158916E+01  0.10604487630E+03  0.20737560355E+03  0.23294519220E+03  0.00000000000E+00 0.  1.
          2    1    6    6  502    0 -0.17052239170E+02 -0.49285698699E+02 -0.32269151019E+02  0.61328272961E+02  0.00000000000E+00 0. -1.
          1    1    5    5  503    0  0.53694706631E+02 -0.61731027069E+02 -0.44557540573E+03  0.45302459471E+03  0.00000000000E+00 0. -1.
         -2    1    5    5    0  503  0.18662418580E+02 -0.19369266608E+03 -0.12710028993E+04  0.12858123910E+04  0.00000000000E+00 0.  1.
         -1    1    6    6    0  502  0.91152712400E+01 -0.24451833677E+03 -0.57555606551E+01  0.24475586135E+03  0.00000000000E+00 0.  1.
<mgrwt>
<rscale>  0 0.28333052E+04</rscale>
<asrwt>0</asrwt>
<pdfrwt beam="1">  1        2 0.15509557E+00 0.28333052E+04</pdfrwt>
<pdfrwt beam="2">  1       -2 0.30626730E+00 0.28333052E+04</pdfrwt>
<totfact> 0.62828820E-01</totfact>
</mgrwt>
</event>
<event>
12    1  0.1663913E-007  0.2191809E+04  0.7818608E-02  0.8521845E-01
         -2   -1    0    0    0  501 -0.00000000000E+00  0.00000000000E+00  0.88619912650E+03  0.88619912650E+03  0.00000000000E+00 0. -1.
          2   -1    0    0  501    0  0.00000000000E+00 -0.00000000000E+00 -0.13552331835E+04  0.13552331835E+04  0.00000000000E+00 0.  1.
         23    2    1    2    0    0 -0.26712933275E+03 -0.42330188797E+03 -0.10017237579E+04  0.11234961262E+04  0.90832205639E+02 0.  0.
        254    2    1    2    0    0  0.26712933275E+03  0.42330188797E+03  0.53268970085E+03  0.11179361839E+04  0.84586075987E+03 0.  0.
        -24    2    4    4    0    0  0.30411653261E+03  0.65179285069E+03  0.47638979932E+03  0.86632731789E+03  0.79088527633E+02 0.  0.
         24    2    4    4    0    0 -0.36987199859E+02 -0.22849096272E+03  0.56299901524E+02  0.25160886601E+03  0.81001046560E+02 0.  0.
         13    1    3    3    0    0 -0.25532231434E+03 -0.42461238284E+03 -0.98849788024E+03  0.11057184176E+04  0.00000000000E+00 0.  1.
        -13    1    3    3    0    0 -0.11807018414E+02  0.13104948616E+01 -0.13225877655E+02  0.17777708524E+02  0.00000000000E+00 0. -1.
          4    1    6    6  502    0 -0.53948239162E+02 -0.16468210237E+03  0.15477129167E+02  0.17398318561E+03  0.00000000000E+00 0. -1.
          1    1    5    5  503    0  0.23183807139E+03  0.41162080720E+03  0.32399178160E+03  0.57284487848E+03  0.00000000000E+00 0. -1.
         -2    1    5    5    0  503  0.72278461226E+02  0.24017204350E+03  0.15239801772E+03  0.29348243941E+03  0.00000000000E+00 0.  1.
         -3    1    6    6    0  502  0.16961039303E+02 -0.63808860349E+02  0.40822772357E+02  0.77625680391E+02  0.00000000000E+00 0.  1.
<mgrwt>
<rscale>  0 0.21918088E+04</rscale>
<asrwt>0</asrwt>
<pdfrwt beam="1">  1        2 0.20849741E+00 0.21918088E+04</pdfrwt>
<pdfrwt beam="2">  1       -2 0.13633833E+00 0.21918088E+04</pdfrwt>
<totfact> 0.54033447E+00</totfact>
</mgrwt>
</event>
<event>
12    1  0.1663913E-007  0.3156307E+04  0.7818608E-02  0.8200453E-01
          2   -1    0    0  501    0  0.00000000000E+00  0.00000000000E+00  0.41547793623E+04  0.41547793623E+04  0.00000000000E+00 0.  1.
         -2   -1    0    0    0  501 -0.00000000000E+00 -0.00000000000E+00 -0.59944649683E+03  0.59944649683E+03  0.00000000000E+00 0. -1.
         23    2    1    2    0    0  0.68856369615E+03  0.12268451773E+04  0.12011529417E+04  0.18521991766E+04  0.92759622542E+02 0.  0.
        254    2    1    2    0    0 -0.68856369615E+03 -0.12268451773E+04  0.23541799237E+04  0.29020266825E+04  0.94885546847E+03 0.  0.
        -24    2    4    4    0    0 -0.84244957219E+03 -0.10872023452E+04  0.22854696102E+04  0.26686731866E+04  0.81945204249E+02 0.  0.
         24    2    4    4    0    0  0.15388587604E+03 -0.13964283216E+03  0.68710313505E+02  0.23335349595E+03  0.80942964309E+02 0.  0.
         13    1    3    3    0    0  0.53007254227E+03  0.95293263389E+03  0.87892364440E+03  0.14005585591E+04  0.00000000000E+00 0.  1.
        -13    1    3    3    0    0  0.15849115388E+03  0.27391254343E+03  0.32222929731E+03  0.45164061747E+03  0.00000000000E+00 0. -1.
          4    1    6    6  502    0 -0.72614581106E+01 -0.22137315741E+02  0.10781826102E+02  0.25671721723E+02  0.00000000000E+00 0. -1.
          3    1    5    5  503    0 -0.56223354914E+01 -0.24010414398E+02  0.35715980778E+02  0.43402096019E+02  0.00000000000E+00 0. -1.
         -4    1    5    5    0  503 -0.83682723670E+03 -0.10631919308E+04  0.22497536295E+04  0.26252710906E+04  0.00000000000E+00 0.  1.
         -3    1    6    6    0  502  0.16114733415E+03 -0.11750551642E+03  0.57928487404E+02  0.20768177423E+03  0.00000000000E+00 0.  1.
<mgrwt>
<rscale>  0 0.31563067E+04</rscale>
<asrwt>0</asrwt>
<pdfrwt beam="1">  1        2 0.63919681E+00 0.31563067E+04</pdfrwt>
<pdfrwt beam="2">  1       -2 0.92222541E-01 0.31563067E+04</pdfrwt>
<totfact> 0.21433105E-01</totfact>
</mgrwt>
</event>
<event>
12    1  0.1663913E-007  0.1573112E+04  0.7818608E-02  0.8837239E-01
          2   -1    0    0  501    0  0.00000000000E+00  0.00000000000E+00  0.96488693516E+03  0.96488693516E+03  0.00000000000E+00 0. -1.
         -2   -1    0    0    0  501 -0.00000000000E+00 -0.00000000000E+00 -0.64118454581E+03  0.64118454581E+03  0.00000000000E+00 0.  1.
         23    2    1    2    0    0  0.27414813949E+03  0.19314509134E+03 -0.30470413133E+03  0.46130421082E+03  0.86572158241E+02 0.  0.
        254    2    1    2    0    0 -0.27414813949E+03 -0.19314509134E+03  0.62840652068E+03  0.11447672702E+04  0.89617806204E+03 0.  0.
        -24    2    4    4    0    0 -0.14846283538E+03 -0.53743480044E+03  0.26258636517E+03  0.62225563899E+03  0.85866773957E+02 0.  0.
         24    2    4    4    0    0 -0.12568530411E+03  0.34428970910E+03  0.36582015551E+03  0.52251163116E+03  0.69726745653E+02 0.  0.
         13    1    3    3    0    0  0.45586946576E+02  0.58162922302E+01 -0.70846387215E+02  0.84446489181E+02  0.00000000000E+00 0. -1.
        -13    1    3    3    0    0  0.22856119291E+03  0.18732879911E+03 -0.23385774411E+03  0.37685772164E+03  0.00000000000E+00 0.  1.
          2    1    6    6  502    0 -0.11826660184E+03  0.27006912098E+03  0.31931848353E+03  0.43461317645E+03  0.00000000000E+00 0. -1.
          3    1    5    5  503    0 -0.13786937224E+03 -0.41363370745E+03  0.17299751105E+03  0.46907243211E+03  0.00000000000E+00 0. -1.
         -4    1    5    5    0  503 -0.10593463141E+02 -0.12380109299E+03  0.89588854114E+02  0.15318320688E+03  0.00000000000E+00 0.  1.
         -1    1    6    6    0  502 -0.74187022728E+01  0.74220588120E+02  0.46501671983E+02  0.87898454716E+02  0.00000000000E+00 0.  1.
<mgrwt>
<rscale>  0 0.15731123E+04</rscale>
<asrwt>0</asrwt>
<pdfrwt beam="1">  1        2 0.14844414E+00 0.15731123E+04</pdfrwt>
<pdfrwt beam="2">  1       -2 0.98643776E-01 0.15731123E+04</pdfrwt>
<totfact> 0.21765276E+01</totfact>
</mgrwt>
</event>
<event>
12    1  0.1663913E-007  0.1275722E+04  0.7818608E-02  0.9049043E-01
          2   -1    0    0  501    0  0.00000000000E+00  0.00000000000E+00  0.82070449722E+03  0.82070449722E+03  0.00000000000E+00 0. -1.
         -2   -1    0    0    0  501 -0.00000000000E+00 -0.00000000000E+00 -0.49575270981E+03  0.49575270981E+03  0.00000000000E+00 0.  1.
         23    2    1    2    0    0  0.31405608684E+03  0.24655899898E+02  0.71500287022E+01  0.32824202713E+03  0.91937839768E+02 0.  0.
        254    2    1    2    0    0 -0.31405608684E+03 -0.24655899898E+02  0.31780175871E+03  0.98821517991E+03  0.88109712568E+03 0.  0.
        -24    2    4    4    0    0  0.21593464916E+03 -0.20567933785E+03  0.28605999389E+03  0.42146136817E+03  0.82870996280E+02 0.  0.
         24    2    4    4    0    0 -0.52999073600E+03  0.18102343795E+03  0.31741764821E+02  0.56675381174E+03  0.80886823132E+02 0.  0.
         13    1    3    3    0    0  0.30671101843E+03  0.57061729686E+01  0.13167177143E+02  0.30704654987E+03  0.00000000000E+00 0.  1.
        -13    1    3    3    0    0  0.73450684121E+01  0.18949726929E+02 -0.60171484410E+01  0.21195477254E+02  0.00000000000E+00 0. -1.
          4    1    6    6  502    0 -0.28078172611E+03  0.13367559684E+03  0.35968818630E+02  0.31305159131E+03  0.00000000000E+00 0. -1.
          1    1    5    5  503    0  0.18718262254E+03 -0.15675096755E+03  0.26651428238E+03  0.36143887827E+03  0.00000000000E+00 0. -1.
         -2    1    5    5    0  503  0.28752026619E+02 -0.48928370305E+02  0.19545711507E+02  0.60022489899E+02  0.00000000000E+00 0.  1.
         -1    1    6    6    0  502 -0.24920900989E+03  0.47347841111E+02 -0.42270538091E+01  0.25370222043E+03  0.00000000000E+00 0.  1.
<mgrwt>
<rscale>  0 0.12757217E+04</rscale>
<asrwt>0</asrwt>
<pdfrwt beam="1">  1        2 0.12626223E+00 0.12757217E+04</pdfrwt>
<pdfrwt beam="2">  1       -2 0.76269648E-01 0.12757217E+04</pdfrwt>
<totfact> 0.50293829E+01</totfact>
</mgrwt>
</event>
<event>
12    1  0.1663913E-007  0.3129402E+04  0.7818608E-02  0.8207715E-01
         -1   -1    0    0    0  501 -0.00000000000E+00  0.00000000000E+00  0.51347454414E+03  0.51347454414E+03  0.00000000000E+00 0.  1.
          1   -1    0    0  501    0  0.00000000000E+00 -0.00000000000E+00 -0.47680828271E+04  0.47680828271E+04  0.00000000000E+00 0. -1.
         23    2    1    2    0    0 -0.59844890555E+03 -0.62742335573E+03 -0.38695360932E+04  0.39664630030E+04  0.87852248686E+02 0.  0.
        254    2    1    2    0    0  0.59844890555E+03  0.62742335573E+03 -0.38507218980E+03  0.13150943683E+04  0.91070930944E+03 0.  0.
        -24    2    4    4    0    0 -0.19302554669E+03 -0.24756229003E+02 -0.15693221250E+03  0.26131499426E+03  0.76066249755E+02 0.  0.
         24    2    4    4    0    0  0.79147445224E+03  0.65217958474E+03 -0.22813997730E+03  0.10537793740E+04  0.81443849461E+02 0.  0.
         11    1    3    3    0    0 -0.41869154934E+02 -0.16526812219E+02 -0.18920067574E+03  0.19448150904E+03  0.00000000000E+00 0.  1.
        -11    1    3    3    0    0 -0.55657975062E+03 -0.61089654351E+03 -0.36803354175E+04  0.37719814939E+04  0.00000000000E+00 0. -1.
          4    1    6    6  502    0  0.37855017237E+03  0.27224455344E+03 -0.76347995312E+02  0.47248951974E+03  0.00000000000E+00 0. -1.
          3    1    5    5  503    0 -0.11834895695E+03 -0.88153513262E+00 -0.13576134413E+03  0.18010662196E+03  0.00000000000E+00 0. -1.
         -4    1    5    5    0  503 -0.74676589743E+02 -0.23874693870E+02 -0.21170868377E+02  0.81208372296E+02  0.00000000000E+00 0.  1.
         -3    1    6    6    0  502  0.41292427987E+03  0.37993503130E+03 -0.15179198199E+03  0.58128985430E+03  0.00000000000E+00 0.  1.
<mgrwt>
<rscale>  0 0.31294020E+04</rscale>
<asrwt>0</asrwt>
<pdfrwt beam="1">  1        1 0.73355122E+00 0.31294020E+04</pdfrwt>
<pdfrwt beam="2">  1       -1 0.78996082E-01 0.31294020E+04</pdfrwt>
<totfact> 0.22217760E-02</totfact>
</mgrwt>
</event>
<event>
12    1  0.1663913E-007  0.1496968E+04  0.7818608E-02  0.8886472E-01
          2   -1    0    0  501    0  0.00000000000E+00  0.00000000000E+00  0.15487901108E+04  0.15487901108E+04  0.00000000000E+00 0.  1.
         -2   -1    0    0    0  501 -0.00000000000E+00 -0.00000000000E+00 -0.36171977606E+03  0.36171977606E+03  0.00000000000E+00 0. -1.
         23    2    1    2    0    0 -0.21226712778E+03  0.27720223791E+03 -0.24657893395E+02  0.36200111422E+03  0.92403358976E+02 0.  0.
        254    2    1    2    0    0  0.21226712778E+03 -0.27720223791E+03  0.12117282281E+04  0.15485087726E+04  0.89871892481E+03 0.  0.
        -24    2    4    4    0    0 -0.13325656375E+03  0.24304163827E+03  0.18103816038E+03  0.34075421469E+03  0.80697395266E+02 0.  0.
         24    2    4    4    0    0  0.34552369153E+03 -0.52024387618E+03  0.10306900677E+04  0.12077545579E+04  0.79427604345E+02 0.  0.
         11    1    3    3    0    0 -0.11434819470E+03  0.19175853546E+03 -0.51906384844E+02  0.22921849476E+03  0.00000000000E+00 0. -1.
        -11    1    3    3    0    0 -0.97918933078E+02  0.85443702454E+02  0.27248491449E+02  0.13278261946E+03  0.00000000000E+00 0.  1.
          4    1    6    6  502    0  0.29883687561E+03 -0.39130162143E+03  0.81333551702E+03  0.95075501598E+03  0.00000000000E+00 0. -1.
          3    1    5    5  503    0 -0.13014713698E+03  0.21844540138E+03  0.18653508976E+03  0.31536012804E+03  0.00000000000E+00 0. -1.
         -4    1    5    5    0  503 -0.31094267677E+01  0.24596236893E+02 -0.54969293836E+01  0.25394086649E+02  0.00000000000E+00 0.  1.
         -3    1    6    6    0  502  0.46686815912E+02 -0.12894225476E+03  0.21735455072E+03  0.25699954195E+03  0.00000000000E+00 0.  1.
<mgrwt>
<rscale>  0 0.14969676E+04</rscale>
<asrwt>0</asrwt>
<pdfrwt beam="1">  1        2 0.23827540E+00 0.14969676E+04</pdfrwt>
<pdfrwt beam="2">  1       -2 0.55649197E-01 0.14969676E+04</pdfrwt>
<totfact> 0.34927946E+01</totfact>
</mgrwt>
</event>
<event>
12    1  0.1663913E-007  0.1584879E+04  0.7818608E-02  0.8829892E-01
         -2   -1    0    0    0  501 -0.00000000000E+00  0.00000000000E+00  0.90941150903E+03  0.90941150903E+03  0.00000000000E+00 0.  1.
          2   -1    0    0  501    0  0.00000000000E+00 -0.00000000000E+00 -0.69051283783E+03  0.69051283783E+03  0.00000000000E+00 0. -1.
         23    2    1    2    0    0 -0.43311621235E+03  0.25521146654E+03 -0.95937761975E+02  0.52004579546E+03  0.92309420658E+02 0.  0.
        254    2    1    2    0    0  0.43311621235E+03 -0.25521146654E+03  0.31483643318E+03  0.10798785514E+04  0.90238193692E+03 0.  0.
        -24    2    4    4    0    0  0.50010093557E+03 -0.42343008632E+03  0.48519885497E+03  0.81917229271E+03  0.78938789716E+02 0.  0.
         24    2    4    4    0    0 -0.66984723219E+02  0.16821861978E+03 -0.17036242179E+03  0.26070625870E+03  0.78485294034E+02 0.  0.
         11    1    3    3    0    0 -0.37988573002E+02 -0.41321268087E+01 -0.27580985502E+01  0.38312051085E+02  0.00000000000E+00 0.  1.
        -11    1    3    3    0    0 -0.39512763935E+03  0.25934359335E+03 -0.93179663425E+02  0.48173374437E+03  0.00000000000E+00 0. -1.
          2    1    6    6  502    0 -0.80197947716E+02  0.12450568575E+03 -0.14971362291E+03  0.21058856922E+03  0.00000000000E+00 0. -1.
          3    1    5    5  503    0  0.34106440106E+03 -0.29417151528E+03  0.37736730366E+03  0.58759500334E+03  0.00000000000E+00 0. -1.
         -4    1    5    5    0  503  0.15903653451E+03 -0.12925857104E+03  0.10783155131E+03  0.23157728938E+03  0.00000000000E+00 0.  1.
         -1    1    6    6    0  502  0.13213224498E+02  0.43712934031E+02 -0.20648798884E+02  0.50117689478E+02  0.00000000000E+00 0.  1.
<mgrwt>
<rscale>  0 0.15848790E+04</rscale>
<asrwt>0</asrwt>
<pdfrwt beam="1">  1        2 0.10623274E+00 0.15848790E+04</pdfrwt>
<pdfrwt beam="2">  1       -2 0.13990946E+00 0.15848790E+04</pdfrwt>
<totfact> 0.14391606E+01</totfact>
</mgrwt>
</event>
<event>
12    1  0.1663913E-007  0.1613233E+04  0.7818608E-02  0.8812460E-01
          4   -1    0    0  501    0  0.00000000000E+00  0.00000000000E+00  0.15371652279E+04  0.15371652279E+04  0.00000000000E+00 0. -1.
         -4   -1    0    0    0  501 -0.00000000000E+00 -0.00000000000E+00 -0.42326615358E+03  0.42326615358E+03  0.00000000000E+00 0.  1.
         23    2    1    2    0    0 -0.46339995373E+03  0.28526386851E+03  0.35931733470E+03  0.65827759802E+03  0.90030312917E+02 0.  0.
        254    2    1    2    0    0  0.46339995373E+03 -0.28526386851E+03  0.75458173966E+03  0.13021537835E+04  0.91109597861E+03 0.  0.
        -24    2    4    4    0    0  0.18224121091E+03  0.12108055480E+02  0.85145315614E+03  0.87423557378E+03  0.77180939332E+02 0.  0.
         24    2    4    4    0    0  0.28115874282E+03 -0.29737192399E+03 -0.96871416484E+02  0.42791820971E+03  0.79054557327E+02 0.  0.
         11    1    3    3    0    0 -0.58274251913E+02  0.43433634900E+01  0.42577005528E+02  0.72301830144E+02  0.00000000000E+00 0. -1.
        -11    1    3    3    0    0 -0.40512570181E+03  0.28092050502E+03  0.31674032917E+03  0.58597576787E+03  0.00000000000E+00 0.  1.
          4    1    6    6  502    0  0.28368857313E+02 -0.47627999697E+02  0.11076349892E+02  0.56532326569E+02  0.00000000000E+00 0. -1.
          1    1    5    5  503    0  0.11702322300E+03  0.42144231772E+02  0.47627268871E+03  0.49224612239E+03  0.00000000000E+00 0. -1.
         -2    1    5    5    0  503  0.65217987905E+02 -0.30036176292E+02  0.37518046743E+03  0.38198945139E+03  0.00000000000E+00 0.  1.
         -3    1    6    6    0  502  0.25278988550E+03 -0.24974392429E+03 -0.10794776638E+03  0.37138588314E+03  0.00000000000E+00 0.  1.
<mgrwt>
<rscale>  0 0.16132328E+04</rscale>
<asrwt>0</asrwt>
<pdfrwt beam="1">  1        4 0.23648695E+00 0.16132328E+04</pdfrwt>
<pdfrwt beam="2">  1       -4 0.65117871E-01 0.16132328E+04</pdfrwt>
<totfact> 0.32304893E-01</totfact>
</mgrwt>
</event>
<event>
12    1  0.1663913E-007  0.2529920E+04  0.7818608E-02  0.8392403E-01
          2   -1    0    0  501    0  0.00000000000E+00  0.00000000000E+00  0.16658524647E+04  0.16658524647E+04  0.00000000000E+00 0. -1.
         -2   -1    0    0    0  501 -0.00000000000E+00 -0.00000000000E+00 -0.96054345209E+03  0.96054345209E+03  0.00000000000E+00 0.  1.
         23    2    1    2    0    0  0.19060526928E+03  0.10426186066E+04 -0.80810281926E+01  0.10637907435E+04  0.90562219239E+02 0.  0.
        254    2    1    2    0    0 -0.19060526928E+03 -0.10426186066E+04  0.71339004085E+03  0.15626051733E+04  0.89968086003E+03 0.  0.
        -24    2    4    4    0    0 -0.11581611677E+03 -0.86241240792E+03  0.60119362846E+02  0.87596587958E+03  0.80829141791E+02 0.  0.
         24    2    4    4    0    0 -0.74789152517E+02 -0.18020619863E+03  0.65327067800E+03  0.68663929374E+03  0.81506132368E+02 0.  0.
         11    1    3    3    0    0  0.61344906185E+02  0.19059961810E+03 -0.25505322212E+02  0.20184631133E+03  0.00000000000E+00 0. -1.
        -11    1    3    3    0    0  0.12926036310E+03  0.85201898845E+03  0.17424294019E+02  0.86194443218E+03  0.00000000000E+00 0.  1.
          4    1    6    6  502    0 -0.85613450150E+02 -0.10555134812E+03  0.40953685089E+03  0.43149876265E+03  0.00000000000E+00 0. -1.
          1    1    5    5  503    0 -0.98777516961E+02 -0.69422211892E+03  0.16634242463E+02  0.70141146717E+03  0.00000000000E+00 0. -1.
         -2    1    5    5    0  503 -0.17038599805E+02 -0.16819028900E+03  0.43485120384E+02  0.17455441241E+03  0.00000000000E+00 0.  1.
         -3    1    6    6    0  502  0.10824297633E+02 -0.74654850513E+02  0.24373382711E+03  0.25514053108E+03  0.00000000000E+00 0.  1.
<mgrwt>
<rscale>  0 0.25299199E+04</rscale>
<asrwt>0</asrwt>
<pdfrwt beam="1">  1        2 0.25628500E+00 0.25299199E+04</pdfrwt>
<pdfrwt beam="2">  1       -2 0.14777592E+00 0.25299199E+04</pdfrwt>
<totfact> 0.28419151E+00</totfact>
</mgrwt>
</event>
<event>
12    1  0.1663913E-007  0.1374679E+04  0.7818608E-02  0.8972354E-01
         -1   -1    0    0    0  501 -0.00000000000E+00  0.00000000000E+00  0.37965031923E+03  0.37965031923E+03  0.00000000000E+00 0.  1.
          1   -1    0    0  501    0  0.00000000000E+00 -0.00000000000E+00 -0.12443959565E+04  0.12443959565E+04  0.00000000000E+00 0. -1.
         23    2    1    2    0    0  0.32138100132E+03 -0.71313289302E+02 -0.46949930629E+03  0.58059273368E+03  0.91032909139E+02 0.  0.
        254    2    1    2    0    0 -0.32138100132E+03  0.71313289302E+02 -0.39524633096E+03  0.10434535420E+04  0.90785698159E+03 0.  0.
        -24    2    4    4    0    0 -0.59333423560E+03  0.53720851151E+01 -0.44715729412E+03  0.74693338028E+03  0.76716715665E+02 0.  0.
         24    2    4    4    0    0  0.27195323427E+03  0.65941204187E+02  0.51910963153E+02  0.29652016177E+03  0.83202489130E+02 0.  0.
         11    1    3    3    0    0  0.13371424249E+03 -0.72958059409E+02 -0.18303791120E+03  0.23812865014E+03  0.00000000000E+00 0.  1.
        -11    1    3    3    0    0  0.18766675883E+03  0.16447701069E+01 -0.28646139509E+03  0.34246408354E+03  0.00000000000E+00 0. -1.
          2    1    6    6  502    0  0.78982017916E+01  0.15104938778E+02  0.19135081255E+02  0.25626004403E+02  0.00000000000E+00 0. -1.
          1    1    5    5  503    0 -0.22577677256E+03 -0.24348313046E+02 -0.13802136007E+03  0.26574026268E+03  0.00000000000E+00 0. -1.
         -2    1    5    5    0  503 -0.36755746304E+03  0.29720398161E+02 -0.30913593405E+03  0.48119311760E+03  0.00000000000E+00 0.  1.
         -1    1    6    6    0  502  0.26405503248E+03  0.50836265409E+02  0.32775881898E+02  0.27089415737E+03  0.00000000000E+00 0.  1.
<mgrwt>
<rscale>  0 0.13746786E+04</rscale>
<asrwt>0</asrwt>
<pdfrwt beam="1">  1        1 0.19144553E+00 0.13746786E+04</pdfrwt>
<pdfrwt beam="2">  1       -1 0.58407742E-01 0.13746786E+04</pdfrwt>
<totfact> 0.28782353E+01</totfact>
</mgrwt>
</event>
<event>
12    1  0.1663913E-007  0.2970283E+04  0.7818608E-02  0.8252268E-01
          1   -1    0    0  501    0  0.00000000000E+00  0.00000000000E+00  0.15152895320E+04  0.15152895320E+04  0.00000000000E+00 0. -1.
         -1   -1    0    0    0  501 -0.00000000000E+00 -0.00000000000E+00 -0.14555928223E+04  0.14555928223E+04  0.00000000000E+00 0.  1.
         23    2    1    2    0    0 -0.13272049279E+04  0.17435936472E+03  0.15249120672E+03  0.13522094583E+04  0.11551078775E+03 0.  0.
        254    2    1    2    0    0  0.13272049279E+04 -0.17435936472E+03 -0.92794497002E+02  0.16186728961E+04  0.90532702219E+03 0.  0.
        -24    2    4    4    0    0  0.93918480557E+03 -0.45957600295E+02  0.35375227250E+03  0.10080627360E+04  0.82883106361E+02 0.  0.
         24    2    4    4    0    0  0.38802012237E+03 -0.12840176443E+03 -0.44654676951E+03  0.61061016013E+03  0.79963252984E+02 0.  0.
         13    1    3    3    0    0 -0.52310830958E+01 -0.67540699189E+01  0.46364494088E+01  0.97199976309E+01  0.00000000000E+00 0. -1.
        -13    1    3    3    0    0 -0.13219738448E+04  0.18111343464E+03  0.14785475731E+03  0.13424894606E+04  0.00000000000E+00 0.  1.
          4    1    6    6  502    0  0.11323388044E+02  0.83874714688E+01 -0.68194361879E+01  0.15654823677E+02  0.00000000000E+00 0. -1.
          1    1    5    5  503    0  0.20459617136E+03  0.21878153602E+02  0.90494262471E+02  0.22478313656E+03  0.00000000000E+00 0. -1.
         -2    1    5    5    0  503  0.73458863421E+03 -0.67835753897E+02  0.26325801003E+03  0.78327959941E+03  0.00000000000E+00 0.  1.
         -3    1    6    6    0  502  0.37669673432E+03 -0.13678923590E+03 -0.43972733332E+03  0.59495533645E+03  0.00000000000E+00 0.  1.
<mgrwt>
<rscale>  0 0.29702825E+04</rscale>
<asrwt>0</asrwt>
<pdfrwt beam="1">  1        1 0.23312147E+00 0.29702825E+04</pdfrwt>
<pdfrwt beam="2">  1       -1 0.22393736E+00 0.29702825E+04</pdfrwt>
<totfact> 0.56418681E-01</totfact>
</mgrwt>
</event>
<event>
12    1  0.1663913E-007  0.2504886E+04  0.7818608E-02  0.8401247E-01
          1   -1    0    0  501    0  0.00000000000E+00  0.00000000000E+00  0.15486684032E+04  0.15486684032E+04  0.00000000000E+00 0. -1.
         -1   -1    0    0    0  501 -0.00000000000E+00 -0.00000000000E+00 -0.10128788242E+04  0.10128788242E+04  0.00000000000E+00 0.  1.
         23    2    1    2    0    0  0.58063524479E+03 -0.84613323815E+03 -0.14438184906E+03  0.10402921890E+04  0.91010855808E+02 0.  0.
        254    2    1    2    0    0 -0.58063524479E+03  0.84613323815E+03  0.68017142810E+03  0.15212550385E+04  0.89359105651E+03 0.  0.
        -24    2    4    4    0    0 -0.12304898028E+03  0.34899545108E+03 -0.18451686599E+03  0.42107515826E+03  0.79491752064E+02 0.  0.
         24    2    4    4    0    0 -0.45758626451E+03  0.49713778707E+03  0.86468829409E+03  0.11001798802E+04  0.78605051200E+02 0.  0.
         11    1    3    3    0    0  0.31552986304E+03 -0.40415043488E+03 -0.10517455667E+03  0.52341031309E+03  0.00000000000E+00 0.  1.
        -11    1    3    3    0    0  0.26510538175E+03 -0.44198280327E+03 -0.39207292390E+02  0.51688187586E+03  0.00000000000E+00 0. -1.
          2    1    6    6  502    0 -0.23261593341E+03  0.19895637695E+03  0.36644930619E+03  0.47747136711E+03  0.00000000000E+00 0. -1.
          1    1    5    5  503    0 -0.77825897527E+02  0.11319366296E+03 -0.82210070461E+02  0.16008801125E+03  0.00000000000E+00 0. -1.
         -2    1    5    5    0  503 -0.45223082751E+02  0.23580178812E+03 -0.10230679553E+03  0.26098714701E+03  0.00000000000E+00 0.  1.
         -1    1    6    6    0  502 -0.22497033110E+03  0.29818141012E+03  0.49823898790E+03  0.62270851310E+03  0.00000000000E+00 0.  1.
<mgrwt>
<rscale>  0 0.25048860E+04</rscale>
<asrwt>0</asrwt>
<pdfrwt beam="1">  1        1 0.23825668E+00 0.25048860E+04</pdfrwt>
<pdfrwt beam="2">  1       -1 0.15582751E+00 0.25048860E+04</pdfrwt>
<totfact> 0.16906034E+00</totfact>
</mgrwt>
</event>
<event>
12    1  0.1663913E-007  0.3432940E+04  0.7818608E-02  0.8129869E-01
         -2   -1    0    0    0  501 -0.00000000000E+00  0.00000000000E+00  0.18244249277E+04  0.18244249277E+04  0.00000000000E+00 0. -1.
          2   -1    0    0  501    0  0.00000000000E+00 -0.00000000000E+00 -0.16149029280E+04  0.16149029280E+04  0.00000000000E+00 0.  1.
         23    2    1    2    0    0 -0.57385669318E+03 -0.40491135564E+03 -0.13763483485E+04  0.15478459312E+04  0.90705787651E+02 0.  0.
        254    2    1    2    0    0  0.57385669318E+03  0.40491135564E+03  0.15858703482E+04  0.18914819246E+04  0.75462202422E+03 0.  0.
        -24    2    4    4    0    0 -0.15739652382E+02 -0.14673352882E+03  0.91953972097E+02  0.19155713804E+03  0.80374989956E+02 0.  0.
         24    2    4    4    0    0  0.58959634556E+03  0.55164488446E+03  0.14939163761E+04  0.16999247866E+04  0.77602911192E+02 0.  0.
         13    1    3    3    0    0 -0.56590633780E+03 -0.40363850918E+03 -0.13733733547E+04  0.15392622911E+04  0.00000000000E+00 0.  1.
        -13    1    3    3    0    0 -0.79503553868E+01 -0.12728464618E+01 -0.29749937666E+01  0.85836400672E+01  0.00000000000E+00 0. -1.
          2    1    6    6  502    0  0.57787216376E+03  0.53148250606E+03  0.14699537994E+04  0.16664855427E+04  0.00000000000E+00 0. -1.
          3    1    5    5  503    0  0.22838654832E+02 -0.11660868496E+03  0.60106601164E+02  0.13316152998E+03  0.00000000000E+00 0. -1.
         -4    1    5    5    0  503 -0.38578307213E+02 -0.30124843863E+02  0.31847370933E+02  0.58395608059E+02  0.00000000000E+00 0.  1.
         -1    1    6    6    0  502  0.11724181799E+02  0.20162378402E+02  0.23962576767E+02  0.33439243816E+02  0.00000000000E+00 0.  1.
<mgrwt>
<rscale>  0 0.34329399E+04</rscale>
<asrwt>0</asrwt>
<pdfrwt beam="1">  1        2 0.24844661E+00 0.34329399E+04</pdfrwt>
<pdfrwt beam="2">  1       -2 0.28068076E+00 0.34329399E+04</pdfrwt>
<totfact> 0.37700654E-01</totfact>
</mgrwt>
</event>
<event>
12    1  0.1663913E-007  0.1075138E+04  0.7818608E-02  0.9229768E-01
         -2   -1    0    0    0  501 -0.00000000000E+00  0.00000000000E+00  0.12905091190E+03  0.12905091190E+03  0.00000000000E+00 0.  1.
          2   -1    0    0  501    0  0.00000000000E+00 -0.00000000000E+00 -0.22392753560E+04  0.22392753560E+04  0.00000000000E+00 0. -1.
         23    2    1    2    0    0  0.10229543220E+03  0.17343494647E+02 -0.10275227075E+03  0.17038398897E+03  0.87792495680E+02 0.  0.
        254    2    1    2    0    0 -0.10229543220E+03 -0.17343494647E+02 -0.20074721733E+04  0.21979422789E+04  0.88895476965E+03 0.  0.
        -24    2    4    4    0    0 -0.12923460405E+02  0.42215615281E+03 -0.11277157605E+04  0.12068396064E+04  0.79600037587E+02 0.  0.
         24    2    4    4    0    0 -0.89371971791E+02 -0.43949964746E+03 -0.87975641285E+03  0.99110267250E+03  0.84651473871E+02 0.  0.
         11    1    3    3    0    0  0.54322841923E+02 -0.92612161843E+01 -0.10152236838E+03  0.11551420935E+03  0.00000000000E+00 0. -1.
        -11    1    3    3    0    0  0.47972590274E+02  0.26604710831E+02 -0.12299023719E+01  0.54869779623E+02  0.00000000000E+00 0.  1.
          2    1    6    6  502    0 -0.58541510204E+02 -0.17615980220E+03 -0.44069324816E+03  0.47819444089E+03  0.00000000000E+00 0. -1.
          3    1    5    5  503    0  0.30984607428E+02  0.10170419754E+03 -0.28453233546E+03  0.30374732857E+03  0.00000000000E+00 0. -1.
         -4    1    5    5    0  503 -0.43908067834E+02  0.32045195527E+03 -0.84318342500E+03  0.90309227781E+03  0.00000000000E+00 0.  1.
         -1    1    6    6    0  502 -0.30830461587E+02 -0.26333984526E+03 -0.43906316470E+03  0.51290823161E+03  0.00000000000E+00 0.  1.
<mgrwt>
<rscale>  0 0.10751382E+04</rscale>
<asrwt>0</asrwt>
<pdfrwt beam="1">  1        2 0.34450389E+00 0.10751382E+04</pdfrwt>
<pdfrwt beam="2">  1       -2 0.19853987E-01 0.10751382E+04</pdfrwt>
<totfact> 0.10621519E+02</totfact>
</mgrwt>
</event>
<event>
12    1  0.1663913E-007  0.1114029E+04  0.7818608E-02  0.9191626E-01
          2   -1    0    0  501    0  0.00000000000E+00  0.00000000000E+00  0.23145457106E+04  0.23145457106E+04  0.00000000000E+00 0. -1.
         -2   -1    0    0    0  501 -0.00000000000E+00 -0.00000000000E+00 -0.13405003614E+03  0.13405003614E+03  0.00000000000E+00 0.  1.
         23    2    1    2    0    0 -0.16702182354E+02 -0.57650789367E+02  0.76675531846E+03  0.77475772447E+03  0.93451788844E+02 0.  0.
        254    2    1    2    0    0  0.16702182354E+02  0.57650789367E+02  0.14137403560E+04  0.16738380223E+04  0.89413050178E+03 0.  0.
        -24    2    4    4    0    0 -0.14307339247E+03 -0.11665580553E+03 -0.34129928617E+02  0.20474878944E+03  0.81722959761E+02 0.  0.
         24    2    4    4    0    0  0.15977557483E+03  0.17430659490E+03  0.14478702846E+04  0.14690892328E+04  0.77354958510E+02 0.  0.
         13    1    3    3    0    0 -0.16667035678E+02 -0.49621498592E+02  0.76467321760E+03  0.76646279291E+03  0.00000000000E+00 0. -1.
        -13    1    3    3    0    0 -0.35146675943E-01 -0.80292907751E+01  0.20821008561E+01  0.82949315618E+01  0.00000000000E+00 0.  1.
          2    1    6    6  502    0  0.12127227499E+03  0.10534339843E+03  0.11393867329E+04  0.11506547368E+04  0.00000000000E+00 0. -1.
          3    1    5    5  503    0 -0.21268409921E+02 -0.23663764444E+02 -0.40340996818E+02  0.51378157153E+02  0.00000000000E+00 0. -1.
         -4    1    5    5    0  503 -0.12180498255E+03 -0.92992041090E+02  0.62110682001E+01  0.15337063229E+03  0.00000000000E+00 0.  1.
         -1    1    6    6    0  502  0.38503299839E+02  0.68963196471E+02  0.30848355174E+03  0.31843449603E+03  0.00000000000E+00 0.  1.
<mgrwt>
<rscale>  0 0.11140286E+04</rscale>
<asrwt>0</asrwt>
<pdfrwt beam="1">  1        2 0.35608393E+00 0.11140286E+04</pdfrwt>
<pdfrwt beam="2">  1       -2 0.20623084E-01 0.11140286E+04</pdfrwt>
<totfact> 0.89861378E+01</totfact>
</mgrwt>
</event>
<event>
12    1  0.1663913E-007  0.2164036E+04  0.7818608E-02  0.8533548E-01
         -2   -1    0    0    0  501 -0.00000000000E+00  0.00000000000E+00  0.62520401709E+03  0.62520401709E+03  0.00000000000E+00 0.  1.
          2   -1    0    0  501    0  0.00000000000E+00 -0.00000000000E+00 -0.18726088432E+04  0.18726088432E+04  0.00000000000E+00 0. -1.
         23    2    1    2    0    0 -0.58733893646E+03 -0.64193943675E+03 -0.28828422530E+03  0.92099731020E+03  0.89860915350E+02 0.  0.
        254    2    1    2    0    0  0.58733893646E+03  0.64193943675E+03 -0.95912060083E+03  0.15768155501E+04  0.89965642629E+03 0.  0.
        -24    2    4    4    0    0  0.42344622554E+03  0.43290106649E+03 -0.11055979123E+04  0.12631471967E+04  0.80523645228E+02 0.  0.
         24    2    4    4    0    0  0.16389271092E+03  0.20903837025E+03  0.14647731147E+03  0.31366835344E+03  0.79839665845E+02 0.  0.
         11    1    3    3    0    0 -0.34621839081E+03 -0.35984964319E+03 -0.12027548624E+03  0.51363910719E+03  0.00000000000E+00 0.  1.
        -11    1    3    3    0    0 -0.24112054565E+03 -0.28208979355E+03 -0.16800873906E+03  0.40735820301E+03  0.00000000000E+00 0. -1.
          2    1    6    6  502    0  0.63697281403E+02  0.12760522642E+03  0.45323929843E+02  0.14964857529E+03  0.00000000000E+00 0. -1.
          1    1    5    5  503    0  0.24406770232E+03  0.21986309935E+03 -0.52671936096E+03  0.62075930197E+03  0.00000000000E+00 0. -1.
         -2    1    5    5    0  503  0.17937852322E+03  0.21303796714E+03 -0.57887855134E+03  0.64238789469E+03  0.00000000000E+00 0.  1.
         -1    1    6    6    0  502  0.10019542952E+03  0.81433143829E+02  0.10115338163E+03  0.16401977815E+03  0.00000000000E+00 0.  1.
<mgrwt>
<rscale>  0 0.21640356E+04</rscale>
<asrwt>0</asrwt>
<pdfrwt beam="1">  1        2 0.28809366E+00 0.21640356E+04</pdfrwt>
<pdfrwt beam="2">  1       -2 0.96185236E-01 0.21640356E+04</pdfrwt>
<totfact> 0.65265250E+00</totfact>
</mgrwt>
</event>
<event>
12    1  0.1663913E-007  0.3071644E+04  0.7818608E-02  0.8223563E-01
          2   -1    0    0  501    0  0.00000000000E+00  0.00000000000E+00  0.14368186210E+04  0.14368186210E+04  0.00000000000E+00 0. -1.
         -2   -1    0    0    0  501 -0.00000000000E+00 -0.00000000000E+00 -0.16416470054E+04  0.16416470054E+04  0.00000000000E+00 0.  1.
         23    2    1    2    0    0 -0.95899518706E+03 -0.33469530292E+03 -0.10601369402E+04  0.14710592539E+04  0.91827457014E+02 0.  0.
        254    2    1    2    0    0  0.95899518706E+03  0.33469530292E+03  0.85530855575E+03  0.16074063725E+04  0.90581996349E+03 0.  0.
        -24    2    4    4    0    0  0.26184473538E+03  0.47579427376E+03  0.84527123060E+02  0.55552868656E+03  0.80773947977E+02 0.  0.
         24    2    4    4    0    0  0.69715045168E+03 -0.14109897084E+03  0.77078143269E+03  0.10518776859E+04  0.80093553868E+02 0.  0.
         13    1    3    3    0    0 -0.35160365756E+03 -0.11942283239E+03 -0.32505972700E+03  0.49350863318E+03  0.00000000000E+00 0. -1.
        -13    1    3    3    0    0 -0.60739152950E+03 -0.21527247053E+03 -0.73507721318E+03  0.97755062069E+03  0.00000000000E+00 0.  1.
          4    1    6    6  502    0  0.40441531551E+03 -0.51449152406E+02  0.40148667929E+03  0.57218031804E+03  0.00000000000E+00 0. -1.
          3    1    5    5  503    0  0.25115148780E+03  0.39857449133E+03  0.72485505111E+02  0.47664750436E+03  0.00000000000E+00 0. -1.
         -4    1    5    5    0  503  0.10693247577E+02  0.77219782429E+02  0.12041617948E+02  0.78881182197E+02  0.00000000000E+00 0.  1.
         -3    1    6    6    0  502  0.29273513617E+03 -0.89649818432E+02  0.36929475340E+03  0.47969736791E+03  0.00000000000E+00 0.  1.
<mgrwt>
<rscale>  0 0.30716439E+04</rscale>
<asrwt>0</asrwt>
<pdfrwt beam="1">  1        2 0.22104902E+00 0.30716439E+04</pdfrwt>
<pdfrwt beam="2">  1       -2 0.25256108E+00 0.30716439E+04</pdfrwt>
<totfact> 0.72708069E-01</totfact>
</mgrwt>
</event>
<event>
12    1  0.1663913E-007  0.1379450E+04  0.7818608E-02  0.8968829E-01
          1   -1    0    0  501    0  0.00000000000E+00  0.00000000000E+00  0.18501185772E+04  0.18501185772E+04  0.00000000000E+00 0. -1.
         -1   -1    0    0    0  501 -0.00000000000E+00 -0.00000000000E+00 -0.25712993245E+03  0.25712993245E+03  0.00000000000E+00 0.  1.
         23    2    1    2    0    0 -0.36308796777E+03  0.13016842545E+03  0.38199411200E+03  0.55078186568E+03  0.93083138251E+02 0.  0.
        254    2    1    2    0    0  0.36308796777E+03 -0.13016842545E+03  0.12109945327E+04  0.15564666440E+04  0.89850095389E+03 0.  0.
        -24    2    4    4    0    0  0.36838073568E+03  0.33420725679E+03  0.56781241765E+03  0.75910462425E+03  0.80187480337E+02 0.  0.
         24    2    4    4    0    0 -0.52927679090E+01 -0.46437568224E+03  0.64318211507E+03  0.79736201971E+03  0.80188338802E+02 0.  0.
         11    1    3    3    0    0 -0.14661530048E+03  0.93514103575E+02  0.20460102479E+03  0.26851911151E+03  0.00000000000E+00 0. -1.
        -11    1    3    3    0    0 -0.21647266729E+03  0.36654321877E+02  0.17739308722E+03  0.28226275417E+03  0.00000000000E+00 0.  1.
          4    1    6    6  502    0 -0.10963471174E+02 -0.12073805571E+03  0.11430159421E+03  0.16662151793E+03  0.00000000000E+00 0. -1.
          3    1    5    5  503    0  0.27225778760E+03  0.23395964993E+03  0.35411869297E+03  0.50424346245E+03  0.00000000000E+00 0. -1.
         -4    1    5    5    0  503  0.96122948080E+02  0.10024760685E+03  0.21369372468E+03  0.25486116180E+03  0.00000000000E+00 0.  1.
         -3    1    6    6    0  502  0.56707032651E+01 -0.34363762652E+03  0.52888052087E+03  0.63074050178E+03  0.00000000000E+00 0.  1.
<mgrwt>
<rscale>  0 0.13794504E+04</rscale>
<asrwt>0</asrwt>
<pdfrwt beam="1">  1        1 0.28463362E+00 0.13794504E+04</pdfrwt>
<pdfrwt beam="2">  1       -1 0.39558452E-01 0.13794504E+04</pdfrwt>
<totfact> 0.22877808E+01</totfact>
</mgrwt>
</event>
<event>
12    1  0.1663913E-007  0.5222622E+04  0.7818608E-02  0.7795054E-01
         -1   -1    0    0    0  501 -0.00000000000E+00  0.00000000000E+00  0.26724288718E+04  0.26724288718E+04  0.00000000000E+00 0.  1.
          1   -1    0    0  501    0  0.00000000000E+00 -0.00000000000E+00 -0.25515909290E+04  0.25515909290E+04  0.00000000000E+00 0. -1.
         23    2    1    2    0    0  0.73396288915E+03 -0.17055342573E+04 -0.16642617772E+04  0.24958357755E+04  0.10899692453E+03 0.  0.
        254    2    1    2    0    0 -0.73396288915E+03  0.17055342573E+04  0.17850997201E+04  0.27281840254E+04  0.89936557652E+03 0.  0.
        -24    2    4    4    0    0 -0.99434324261E+02  0.90491013881E+03  0.38130446258E+03  0.99022670336E+03  0.80039282277E+02 0.  0.
         24    2    4    4    0    0 -0.63452856489E+03  0.80062411850E+03  0.14037952575E+04  0.17379573220E+04  0.78924327281E+02 0.  0.
         13    1    3    3    0    0  0.40977132346E+03 -0.96798317448E+03 -0.10137798503E+04  0.14603607597E+04  0.00000000000E+00 0. -1.
        -13    1    3    3    0    0  0.32419156568E+03 -0.73755108282E+03 -0.65048192686E+03  0.10354750157E+04  0.00000000000E+00 0.  1.
          4    1    6    6  502    0 -0.42223698060E+03  0.48210811703E+03  0.91522784109E+03  0.11172977694E+04  0.00000000000E+00 0. -1.
          1    1    5    5  503    0 -0.72291271131E+02  0.56161897704E+03  0.27727088123E+03  0.63049270007E+03  0.00000000000E+00 0. -1.
         -2    1    5    5    0  503 -0.27143053129E+02  0.34329116176E+03  0.10403358135E+03  0.35973400329E+03  0.00000000000E+00 0.  1.
         -3    1    6    6    0  502 -0.21229158428E+03  0.31851600148E+03  0.48856741638E+03  0.62065955266E+03  0.00000000000E+00 0.  1.
<mgrwt>
<rscale>  0 0.52226220E+04</rscale>
<asrwt>0</asrwt>
<pdfrwt beam="1">  1        1 0.39255245E+00 0.52226220E+04</pdfrwt>
<pdfrwt beam="2">  1       -1 0.41114290E+00 0.52226220E+04</pdfrwt>
<totfact> 0.53138589E-03</totfact>
</mgrwt>
</event>
<event>
12    1  0.1663913E-007  0.2357531E+04  0.7818608E-02  0.8455577E-01
         -1   -1    0    0    0  501 -0.00000000000E+00  0.00000000000E+00  0.84221973428E+03  0.84221973428E+03  0.00000000000E+00 0.  1.
          1   -1    0    0  501    0  0.00000000000E+00 -0.00000000000E+00 -0.16497929700E+04  0.16497929700E+04  0.00000000000E+00 0. -1.
         23    2    1    2    0    0 -0.59475292703E+03  0.12238017513E+03  0.50312661156E+03  0.79448385735E+03  0.96748441111E+02 0.  0.
        254    2    1    2    0    0  0.59475292703E+03 -0.12238017513E+03 -0.13106998472E+04  0.16975288469E+04  0.89160649673E+03 0.  0.
        -24    2    4    4    0    0 -0.87435565022E+01  0.22819622242E+03 -0.37438235685E+02  0.24337763919E+03  0.75372992913E+02 0.  0.
         24    2    4    4    0    0  0.60349648353E+03 -0.35057639756E+03 -0.12732616115E+04  0.14541512077E+04  0.79049270952E+02 0.  0.
         13    1    3    3    0    0 -0.53963124050E+03  0.10070108653E+03  0.48508899451E+03  0.73256666396E+03  0.00000000000E+00 0.  1.
        -13    1    3    3    0    0 -0.55121686532E+02  0.21679088601E+02  0.18037617048E+02  0.61917193392E+02  0.00000000000E+00 0. -1.
          2    1    6    6  502    0  0.38751672112E+03 -0.22121813034E+03 -0.73345247937E+03  0.85852152555E+03  0.00000000000E+00 0. -1.
          3    1    5    5  503    0  0.83470466300E+00  0.78439821918E+02 -0.49621789439E+02  0.92821465091E+02  0.00000000000E+00 0. -1.
         -4    1    5    5    0  503 -0.95782611652E+01  0.14975640050E+03  0.12183553754E+02  0.15055617410E+03  0.00000000000E+00 0.  1.
         -1    1    6    6    0  502  0.21597976241E+03 -0.12935826722E+03 -0.53980913218E+03  0.59562968215E+03  0.00000000000E+00 0.  1.
<mgrwt>
<rscale>  0 0.23575311E+04</rscale>
<asrwt>0</asrwt>
<pdfrwt beam="1">  1        1 0.25381430E+00 0.23575311E+04</pdfrwt>
<pdfrwt beam="2">  1       -1 0.12957227E+00 0.23575311E+04</pdfrwt>
<totfact> 0.23723443E+00</totfact>
</mgrwt>
</event>
<event>
12    1  0.1663913E-007  0.1539304E+04  0.7818608E-02  0.8858729E-01
          1   -1    0    0  501    0  0.00000000000E+00  0.00000000000E+00  0.14230344504E+04  0.14230344504E+04  0.00000000000E+00 0. -1.
         -1   -1    0    0    0  501 -0.00000000000E+00 -0.00000000000E+00 -0.41626844975E+03  0.41626844975E+03  0.00000000000E+00 0.  1.
         23    2    1    2    0    0 -0.12865970515E+03  0.34951200466E+03 -0.66405849570E+02  0.38881768524E+03  0.89763546963E+02 0.  0.
        254    2    1    2    0    0  0.12865970515E+03 -0.34951200466E+03  0.10731718502E+04  0.14504852149E+04  0.90194100551E+03 0.  0.
        -24    2    4    4    0    0 -0.27923851120E+03 -0.35999653570E+01  0.52559197815E+02  0.29548463588E+03  0.81003672029E+02 0.  0.
         24    2    4    4    0    0  0.40789821635E+03 -0.34591203931E+03  0.10206126524E+04  0.11550005790E+04  0.79624477837E+02 0.  0.
         11    1    3    3    0    0 -0.35590700510E+02  0.10138792604E+03  0.21559903885E+02  0.10959488567E+03  0.00000000000E+00 0. -1.
        -11    1    3    3    0    0 -0.93069004641E+02  0.24812407862E+03 -0.87965753456E+02  0.27922279957E+03  0.00000000000E+00 0.  1.
          2    1    6    6  502    0  0.38330568391E+03 -0.29337838320E+03  0.90813510189E+03  0.10284471237E+04  0.00000000000E+00 0. -1.
          3    1    5    5  503    0 -0.22839061750E+03  0.27134356460E+02  0.30061407563E+02  0.23195308941E+03  0.00000000000E+00 0. -1.
         -4    1    5    5    0  503 -0.50847893695E+02 -0.30734321817E+02  0.22497790251E+02  0.63531546470E+02  0.00000000000E+00 0.  1.
         -1    1    6    6    0  502  0.24592532441E+02 -0.52533656105E+02  0.11247755047E+03  0.12655345525E+03  0.00000000000E+00 0.  1.
<mgrwt>
<rscale>  0 0.15393042E+04</rscale>
<asrwt>0</asrwt>
<pdfrwt beam="1">  1        1 0.21892837E+00 0.15393042E+04</pdfrwt>
<pdfrwt beam="2">  1       -1 0.64041301E-01 0.15393042E+04</pdfrwt>
<totfact> 0.17648208E+01</totfact>
</mgrwt>
</event>
<event>
12    1  0.1663913E-007  0.1520709E+04  0.7818608E-02  0.8870797E-01
          2   -1    0    0  501    0  0.00000000000E+00  0.00000000000E+00  0.17743264180E+04  0.17743264180E+04  0.00000000000E+00 0. -1.
         -2   -1    0    0    0  501 -0.00000000000E+00 -0.00000000000E+00 -0.32583595241E+03  0.32583595241E+03  0.00000000000E+00 0.  1.
         23    2    1    2    0    0  0.22057034975E+03  0.37394699618E+03  0.18733040297E+03  0.48238629702E+03  0.95478921956E+02 0.  0.
        254    2    1    2    0    0 -0.22057034975E+03 -0.37394699618E+03  0.12611600626E+04  0.16177760734E+04  0.91552557854E+03 0.  0.
        -24    2    4    4    0    0 -0.52663566725E+03 -0.32703047013E+03  0.10864481837E+04  0.12533680398E+04  0.79169014421E+02 0.  0.
         24    2    4    4    0    0  0.30606531750E+03 -0.46916526048E+02  0.17471187893E+03  0.36440803363E+03  0.79948954593E+02 0.  0.
         11    1    3    3    0    0  0.15164282252E+03  0.26523476465E+03  0.82740272759E+02  0.31652958588E+03  0.00000000000E+00 0.  1.
        -11    1    3    3    0    0  0.68927527235E+02  0.10871223153E+03  0.10459013021E+03  0.16585671115E+03  0.00000000000E+00 0. -1.
          4    1    6    6  502    0  0.16814088210E+03 -0.11642770243E+02  0.13682365415E+03  0.21708897408E+03  0.00000000000E+00 0. -1.
          1    1    5    5  503    0 -0.14302522787E+03 -0.11537380114E+03  0.37981044176E+03  0.42192807617E+03  0.00000000000E+00 0. -1.
         -2    1    5    5    0  503 -0.38361043938E+03 -0.21165666900E+03  0.70663774194E+03  0.83143996360E+03  0.00000000000E+00 0.  1.
         -3    1    6    6    0  502  0.13792443540E+03 -0.35273755804E+02  0.37888224780E+02  0.14731905955E+03  0.00000000000E+00 0.  1.
<mgrwt>
<rscale>  0 0.15207095E+04</rscale>
<asrwt>0</asrwt>
<pdfrwt beam="1">  1        2 0.27297329E+00 0.15207095E+04</pdfrwt>
<pdfrwt beam="2">  1       -2 0.50128609E-01 0.15207095E+04</pdfrwt>
<totfact> 0.32379259E+01</totfact>
</mgrwt>
</event>
<event>
12    1  0.1663913E-007  0.1485851E+04  0.7818608E-02  0.8893917E-01
          1   -1    0    0  501    0  0.00000000000E+00  0.00000000000E+00  0.44679334417E+04  0.44679334417E+04  0.00000000000E+00 0.  1.
         -1   -1    0    0    0  501 -0.00000000000E+00 -0.00000000000E+00 -0.12353329030E+03  0.12353329030E+03  0.00000000000E+00 0. -1.
         23    2    1    2    0    0 -0.19287408398E+03  0.37151410316E+03  0.76179069014E+03  0.87405990531E+03  0.91828761158E+02 0.  0.
        254    2    1    2    0    0  0.19287408398E+03 -0.37151410316E+03  0.35826094613E+04  0.37174068267E+04  0.89933298729E+03 0.  0.
        -24    2    4    4    0    0  0.47206690470E+03 -0.46142414825E+03  0.20573881345E+04  0.21621809581E+04  0.80132093198E+02 0.  0.
         24    2    4    4    0    0 -0.27919282073E+03  0.89910045093E+02  0.15252213268E+04  0.15552258686E+04  0.79968490242E+02 0.  0.
         11    1    3    3    0    0 -0.87557478888E+02  0.26131523927E+03  0.46950907547E+03  0.54441779759E+03  0.00000000000E+00 0. -1.
        -11    1    3    3    0    0 -0.10531660509E+03  0.11019886389E+03  0.29228161466E+03  0.32964210772E+03  0.00000000000E+00 0.  1.
          2    1    6    6  502    0 -0.23980921685E+03  0.10505758479E+03  0.13090071762E+04  0.13349327113E+04  0.00000000000E+00 0. -1.
          3    1    5    5  503    0  0.29690496638E+03 -0.30084003515E+03  0.11902911560E+04  0.12631113656E+04  0.00000000000E+00 0. -1.
         -4    1    5    5    0  503  0.17516193832E+03 -0.16058411310E+03  0.86709697844E+03  0.89906959243E+03  0.00000000000E+00 0.  1.
         -1    1    6    6    0  502 -0.39383603877E+02 -0.15147539692E+02  0.21621415062E+03  0.22029315728E+03  0.00000000000E+00 0.  1.
<mgrwt>
<rscale>  0 0.14858513E+04</rscale>
<asrwt>0</asrwt>
<pdfrwt beam="1">  1        1 0.68737425E+00 0.14858513E+04</pdfrwt>
<pdfrwt beam="2">  1       -1 0.19005125E-01 0.14858513E+04</pdfrwt>
<totfact> 0.77223137E-01</totfact>
</mgrwt>
</event>
<event>
12    1  0.1663913E-007  0.1347965E+04  0.7818608E-02  0.8992370E-01
          2   -1    0    0  501    0  0.00000000000E+00  0.00000000000E+00  0.16284695967E+04  0.16284695967E+04  0.00000000000E+00 0. -1.
         -2   -1    0    0    0  501 -0.00000000000E+00 -0.00000000000E+00 -0.27894428174E+03  0.27894428174E+03  0.00000000000E+00 0.  1.
         23    2    1    2    0    0 -0.16741315985E+03 -0.29200751473E+03  0.24252823324E+03  0.42522052550E+03  0.93257689435E+02 0.  0.
        254    2    1    2    0    0  0.16741315985E+03  0.29200751473E+03  0.11069970817E+04  0.14821933529E+04  0.92636873963E+03 0.  0.
        -24    2    4    4    0    0 -0.31740045162E+03  0.51150582096E+02  0.77307881833E+03  0.84139726307E+03  0.83301057676E+02 0.  0.
         24    2    4    4    0    0  0.48481361147E+03  0.24085693263E+03  0.33391826335E+03  0.64079608983E+03  0.77858347525E+02 0.  0.
         11    1    3    3    0    0 -0.14951906976E+03 -0.27944484704E+03  0.24829263385E+03  0.40260974502E+03  0.00000000000E+00 0.  1.
        -11    1    3    3    0    0 -0.17894090090E+02 -0.12562667687E+02 -0.57644006096E+01  0.22610780481E+02  0.00000000000E+00 0. -1.
          2    1    6    6  502    0  0.10159020865E+02  0.51596836892E+01  0.24765084792E+02  0.27260547783E+02  0.00000000000E+00 0. -1.
          3    1    5    5  503    0 -0.79951080911E+02  0.43401663229E+02  0.27289959704E+03  0.28766311855E+03  0.00000000000E+00 0. -1.
         -4    1    5    5    0  503 -0.23744937070E+03  0.77489188668E+01  0.50017922129E+03  0.55373414452E+03  0.00000000000E+00 0.  1.
         -1    1    6    6    0  502  0.47465459060E+03  0.23569724894E+03  0.30915317856E+03  0.61353554204E+03  0.00000000000E+00 0.  1.
<mgrwt>
<rscale>  0 0.13479648E+04</rscale>
<asrwt>0</asrwt>
<pdfrwt beam="1">  1        2 0.25053378E+00 0.13479648E+04</pdfrwt>
<pdfrwt beam="2">  1       -2 0.42914506E-01 0.13479648E+04</pdfrwt>
<totfact> 0.54052835E+01</totfact>
</mgrwt>
</event>
<event>
12    1  0.1663913E-007  0.2300457E+04  0.7818608E-02  0.8477741E-01
          1   -1    0    0  501    0  0.00000000000E+00  0.00000000000E+00  0.32764618648E+04  0.32764618648E+04  0.00000000000E+00 0. -1.
         -1   -1    0    0    0  501 -0.00000000000E+00 -0.00000000000E+00 -0.40379706300E+03  0.40379706300E+03  0.00000000000E+00 0.  1.
         23    2    1    2    0    0 -0.66688839521E+03 -0.40525465055E+03  0.21403581136E+04  0.22800760272E+04  0.92964357701E+02 0.  0.
        254    2    1    2    0    0  0.66688839521E+03  0.40525465055E+03  0.73230668823E+03  0.14001829007E+04  0.90292170548E+03 0.  0.
        -24    2    4    4    0    0  0.70904607835E+02  0.37025476867E+03  0.69729032552E+03  0.79663439619E+03  0.79350526154E+02 0.  0.
         24    2    4    4    0    0  0.59598378737E+03  0.34999881882E+02  0.35016362713E+02  0.60354850447E+03  0.81381724277E+02 0.  0.
         11    1    3    3    0    0 -0.53120612819E+03 -0.35845903552E+03  0.18009821051E+04  0.19115986435E+04  0.00000000000E+00 0. -1.
        -11    1    3    3    0    0 -0.13568226701E+03 -0.46795615038E+02  0.33937600846E+03  0.36847738369E+03  0.00000000000E+00 0.  1.
          4    1    6    6  502    0  0.29519714538E+03  0.48994282132E+02 -0.82197748583E+01  0.29934822368E+03  0.00000000000E+00 0. -1.
          1    1    5    5  503    0  0.73863198005E+02  0.37326613616E+03  0.68429591027E+03  0.78297143833E+03  0.00000000000E+00 0. -1.
         -2    1    5    5    0  503 -0.29585901703E+01 -0.30113674919E+01  0.12994415252E+02  0.13662957868E+02  0.00000000000E+00 0.  1.
         -3    1    6    6    0  502  0.30078664199E+03 -0.13994400250E+02  0.43236137571E+02  0.30420028079E+03  0.00000000000E+00 0.  1.
<mgrwt>
<rscale>  0 0.23004571E+04</rscale>
<asrwt>0</asrwt>
<pdfrwt beam="1">  1        1 0.50407104E+00 0.23004571E+04</pdfrwt>
<pdfrwt beam="2">  1       -1 0.62122627E-01 0.23004571E+04</pdfrwt>
<totfact> 0.88520341E-01</totfact>
</mgrwt>
</event>
<event>
12    1  0.1663913E-007  0.1684893E+04  0.7818608E-02  0.8770027E-01
          2   -1    0    0  501    0  0.00000000000E+00  0.00000000000E+00  0.27538175647E+04  0.27538175647E+04  0.00000000000E+00 0. -1.
         -2   -1    0    0    0  501 -0.00000000000E+00 -0.00000000000E+00 -0.25772089012E+03  0.25772089012E+03  0.00000000000E+00 0.  1.
         23    2    1    2    0    0 -0.56539222633E+02 -0.52041513085E+03  0.13748972494E+04  0.14737400335E+04  0.86825387792E+02 0.  0.
        254    2    1    2    0    0  0.56539222633E+02  0.52041513085E+03  0.11211994252E+04  0.15377984213E+04  0.91307570409E+03 0.  0.
        -24    2    4    4    0    0  0.10609389042E+03  0.74153775972E+03  0.10399553255E+04  0.12840577327E+04  0.78504899064E+02 0.  0.
         24    2    4    4    0    0 -0.49554667782E+02 -0.22112262887E+03  0.81244099739E+02  0.25374068865E+03  0.80205057416E+02 0.  0.
         11    1    3    3    0    0 -0.35838393374E+02 -0.41475354394E+03  0.11769382926E+04  0.12483944237E+04  0.00000000000E+00 0. -1.
        -11    1    3    3    0    0 -0.20700829259E+02 -0.10566158691E+03  0.19795895678E+03  0.22534560979E+03  0.00000000000E+00 0.  1.
          4    1    6    6  502    0 -0.50218364107E+02 -0.14527595702E+03  0.88797151879E+02  0.17751597665E+03  0.00000000000E+00 0. -1.
          3    1    5    5  503    0 -0.14649180664E+00  0.69701574278E+01  0.73798708269E+00  0.70106475701E+01  0.00000000000E+00 0. -1.
         -4    1    5    5    0  503  0.10624038222E+03  0.73456760229E+03  0.10392173384E+04  0.12770470851E+04  0.00000000000E+00 0.  1.
         -3    1    6    6    0  502  0.66369632450E+00 -0.75846671846E+02 -0.75530521399E+01  0.76224712000E+02  0.00000000000E+00 0.  1.
<mgrwt>
<rscale>  0 0.16848932E+04</rscale>
<asrwt>0</asrwt>
<pdfrwt beam="1">  1        2 0.42366422E+00 0.16848932E+04</pdfrwt>
<pdfrwt beam="2">  1       -2 0.39649370E-01 0.16848932E+04</pdfrwt>
<totfact> 0.14178765E+01</totfact>
</mgrwt>
</event>
<event>
12    1  0.1663913E-007  0.1707116E+04  0.7818608E-02  0.8757316E-01
         -1   -1    0    0    0  501 -0.00000000000E+00  0.00000000000E+00  0.91501984707E+03  0.91501984707E+03  0.00000000000E+00 0.  1.
          1   -1    0    0  501    0  0.00000000000E+00 -0.00000000000E+00 -0.79622445879E+03  0.79622445879E+03  0.00000000000E+00 0. -1.
         23    2    1    2    0    0 -0.40384633942E+03 -0.10694600927E+03 -0.40523738238E+03  0.58878485327E+03  0.88999733677E+02 0.  0.
        254    2    1    2    0    0  0.40384633942E+03  0.10694600927E+03  0.52403277067E+03  0.11224594526E+04  0.90043076538E+03 0.  0.
        -24    2    4    4    0    0  0.64165904287E+03  0.22999102495E+03  0.48558193894E+03  0.84068298598E+03  0.79598144679E+02 0.  0.
         24    2    4    4    0    0 -0.23781270345E+03 -0.12304501568E+03  0.38450831725E+02  0.28177646662E+03  0.78895835593E+02 0.  0.
         11    1    3    3    0    0 -0.31152438439E+03 -0.88419726786E+02 -0.36033103730E+03  0.48446253374E+03  0.00000000000E+00 0. -1.
        -11    1    3    3    0    0 -0.92321955023E+02 -0.18526282489E+02 -0.44906345079E+02  0.10432231952E+03  0.00000000000E+00 0.  1.
          4    1    6    6  502    0 -0.10338818143E+03 -0.87590520451E+02  0.44499795945E+02  0.14262344538E+03  0.00000000000E+00 0. -1.
          1    1    5    5  503    0  0.62780637645E+03  0.22881891344E+03  0.48680472075E+03  0.82672714822E+03  0.00000000000E+00 0. -1.
         -2    1    5    5    0  503  0.13852666417E+02  0.11721115131E+01 -0.12227818057E+01  0.13955837761E+02  0.00000000000E+00 0.  1.
         -3    1    6    6    0  502 -0.13442452202E+03 -0.35454495225E+02 -0.60489642206E+01  0.13915302124E+03  0.00000000000E+00 0.  1.
<mgrwt>
<rscale>  0 0.17071159E+04</rscale>
<asrwt>0</asrwt>
<pdfrwt beam="1">  1        1 0.12249607E+00 0.17071159E+04</pdfrwt>
<pdfrwt beam="2">  1       -1 0.14077228E+00 0.17071159E+04</pdfrwt>
<totfact> 0.87549732E+00</totfact>
</mgrwt>
</event>
<event>
12    1  0.1663913E-007  0.1530516E+04  0.7818608E-02  0.8864410E-01
         -2   -1    0    0    0  501 -0.00000000000E+00  0.00000000000E+00  0.10300213216E+04  0.10300213216E+04  0.00000000000E+00 0.  1.
          2   -1    0    0  501    0  0.00000000000E+00 -0.00000000000E+00 -0.56855103542E+03  0.56855103542E+03  0.00000000000E+00 0. -1.
         23    2    1    2    0    0  0.34488236166E+03 -0.70719743186E+01 -0.22791474268E+03  0.42322253233E+03  0.90434096103E+02 0.  0.
        254    2    1    2    0    0 -0.34488236166E+03  0.70719743186E+01  0.68938502882E+03  0.11753498246E+04  0.88724384255E+03 0.  0.
        -24    2    4    4    0    0 -0.58418734987E+03  0.13826295105E+03  0.64980723127E+03  0.88828927073E+03  0.80105476131E+02 0.  0.
         24    2    4    4    0    0  0.23930498821E+03 -0.13119097674E+03  0.39577797545E+02  0.28706055391E+03  0.79745907702E+02 0.  0.
         11    1    3    3    0    0  0.85232077031E+02  0.34487372859E+02 -0.77745302807E+02  0.12040854600E+03  0.00000000000E+00 0.  1.
        -11    1    3    3    0    0  0.25965028462E+03 -0.41559347178E+02 -0.15016943987E+03  0.30281398633E+03  0.00000000000E+00 0. -1.
          4    1    6    6  502    0  0.23648777826E+03 -0.12518241388E+03  0.22243423523E+02  0.26849930336E+03  0.00000000000E+00 0. -1.
          3    1    5    5  503    0 -0.53862708821E+03  0.10386425470E+03  0.59000364934E+03  0.80561233220E+03  0.00000000000E+00 0. -1.
         -2    1    5    5    0  503 -0.45560261659E+02  0.34398696357E+02  0.59803581926E+02  0.82676938530E+02  0.00000000000E+00 0.  1.
         -3    1    6    6    0  502  0.28172099471E+01 -0.60085628544E+01  0.17334374023E+02  0.18561250556E+02  0.00000000000E+00 0.  1.
<mgrwt>
<rscale>  0 0.15305158E+04</rscale>
<asrwt>0</asrwt>
<pdfrwt beam="1">  1        2 0.87469391E-01 0.15305158E+04</pdfrwt>
<pdfrwt beam="2">  1       -2 0.15846482E+00 0.15305158E+04</pdfrwt>
<totfact> 0.13179552E+01</totfact>
</mgrwt>
</event>
<event>
12    1  0.1663913E-007  0.1397642E+04  0.7818608E-02  0.8955527E-01
          2   -1    0    0  501    0  0.00000000000E+00  0.00000000000E+00  0.17923631428E+04  0.17923631428E+04  0.00000000000E+00 0. -1.
         -2   -1    0    0    0  501 -0.00000000000E+00 -0.00000000000E+00 -0.27246199447E+03  0.27246199447E+03  0.00000000000E+00 0.  1.
         23    2    1    2    0    0 -0.28356027022E+03 -0.22899029152E+03  0.70014731875E+03  0.79365531946E+03  0.82701376583E+02 0.  0.
        254    2    1    2    0    0  0.28356027022E+03  0.22899029152E+03  0.81975382961E+03  0.12711698178E+04  0.90057391934E+03 0.  0.
        -24    2    4    4    0    0  0.39770337174E+03 -0.16272892622E+03  0.72214959703E+03  0.84425969602E+03  0.81398516625E+02 0.  0.
         24    2    4    4    0    0 -0.11414310152E+03  0.39171921775E+03  0.97604232572E+02  0.42691012183E+03  0.79076372735E+02 0.  0.
         11    1    3    3    0    0 -0.18843396002E+03 -0.11580873974E+03  0.35626787073E+03  0.41933973959E+03  0.00000000000E+00 0. -1.
        -11    1    3    3    0    0 -0.95126310202E+02 -0.11318155179E+03  0.34387944802E+03  0.37431557987E+03  0.00000000000E+00 0.  1.
          2    1    6    6  502    0 -0.60247081512E+02  0.15918923816E+03  0.32381788441E+01  0.17023927331E+03  0.00000000000E+00 0. -1.
          3    1    5    5  503    0  0.21710915565E+03 -0.53504008661E+02  0.41809306988E+03  0.47413171112E+03  0.00000000000E+00 0. -1.
         -4    1    5    5    0  503  0.18059421609E+03 -0.10922491756E+03  0.30405652715E+03  0.37012798490E+03  0.00000000000E+00 0.  1.
         -1    1    6    6    0  502 -0.53896020011E+02  0.23252997959E+03  0.94366053728E+02  0.25667084851E+03  0.00000000000E+00 0.  1.
<mgrwt>
<rscale>  0 0.13976421E+04</rscale>
<asrwt>0</asrwt>
<pdfrwt beam="1">  1        2 0.27574817E+00 0.13976421E+04</pdfrwt>
<pdfrwt beam="2">  1       -2 0.41917231E-01 0.13976421E+04</pdfrwt>
<totfact> 0.45750235E+01</totfact>
</mgrwt>
</event>
<event>
12    1  0.1663913E-007  0.2005836E+04  0.7818608E-02  0.8603897E-01
          2   -1    0    0  501    0  0.00000000000E+00  0.00000000000E+00  0.19905568940E+04  0.19905568940E+04  0.00000000000E+00 0. -1.
         -2   -1    0    0    0  501 -0.00000000000E+00 -0.00000000000E+00 -0.50530800983E+03  0.50530800983E+03  0.00000000000E+00 0.  1.
         23    2    1    2    0    0  0.28021767354E+03  0.54137434207E+03 -0.66855107178E+02  0.61999202832E+03  0.91172292991E+02 0.  0.
        254    2    1    2    0    0 -0.28021767354E+03 -0.54137434207E+03  0.15521039913E+04  0.18758728755E+04  0.85922297588E+03 0.  0.
        -24    2    4    4    0    0  0.17836001375E+03  0.51693939826E+02  0.74161199832E+02  0.21667089237E+03  0.83437606155E+02 0.  0.
         24    2    4    4    0    0 -0.45857768729E+03 -0.59306828190E+03  0.14779427915E+04  0.16592019831E+04  0.81319392399E+02 0.  0.
         11    1    3    3    0    0  0.20717980946E+03  0.32120945095E+03 -0.66836221721E+02  0.38802843370E+03  0.00000000000E+00 0.  1.
        -11    1    3    3    0    0  0.73037864077E+02  0.22016489112E+03 -0.18885456258E-01  0.23196359462E+03  0.00000000000E+00 0. -1.
          4    1    6    6  502    0 -0.36284894379E+03 -0.45482841246E+03  0.12143807133E+04  0.13465692547E+04  0.00000000000E+00 0. -1.
          1    1    5    5  503    0  0.16082707220E+03  0.41172611132E+02  0.30961161115E+02  0.16887606272E+03  0.00000000000E+00 0. -1.
         -2    1    5    5    0  503  0.17532941549E+02  0.10521328694E+02  0.43200038717E+02  0.47794829658E+02  0.00000000000E+00 0.  1.
         -3    1    6    6    0  502 -0.95728743494E+02 -0.13823986943E+03  0.26356207818E+03  0.31263272843E+03  0.00000000000E+00 0.  1.
<mgrwt>
<rscale>  0 0.20058358E+04</rscale>
<asrwt>0</asrwt>
<pdfrwt beam="1">  1        2 0.30623952E+00 0.20058358E+04</pdfrwt>
<pdfrwt beam="2">  1       -2 0.77739695E-01 0.20058358E+04</pdfrwt>
<totfact> 0.92564992E+00</totfact>
</mgrwt>
</event>
<event>
12    1  0.1663913E-007  0.2466754E+04  0.7818608E-02  0.8414926E-01
          2   -1    0    0  501    0  0.00000000000E+00  0.00000000000E+00  0.73225767455E+03  0.73225767455E+03  0.00000000000E+00 0. -1.
         -2   -1    0    0    0  501 -0.00000000000E+00 -0.00000000000E+00 -0.20774357941E+04  0.20774357941E+04  0.00000000000E+00 0.  1.
         23    2    1    2    0    0 -0.48178327633E+03  0.60975433363E+03 -0.14103969621E+04  0.16132665788E+04  0.97437111275E+02 0.  0.
        254    2    1    2    0    0  0.48178327633E+03 -0.60975433363E+03  0.65218842541E+02  0.11964268899E+04  0.90734135405E+03 0.  0.
        -24    2    4    4    0    0  0.25639437684E+03 -0.17255454250E+03  0.46044922111E+03  0.56021117797E+03  0.79435080938E+02 0.  0.
         24    2    4    4    0    0  0.22538889949E+03 -0.43719979113E+03 -0.39523037857E+03  0.63621571195E+03  0.81360719100E+02 0.  0.
         13    1    3    3    0    0 -0.86817511149E+02  0.17328004542E+03 -0.38036314642E+03  0.42689504276E+03  0.00000000000E+00 0. -1.
        -13    1    3    3    0    0 -0.39496576518E+03  0.43647428822E+03 -0.10300338157E+04  0.11863715360E+04  0.00000000000E+00 0.  1.
          4    1    6    6  502    0  0.23220768658E+03 -0.41972959385E+03 -0.38300401955E+03  0.61382849449E+03  0.00000000000E+00 0. -1.
          1    1    5    5  503    0  0.18171665057E+03 -0.10052449230E+03  0.36112591700E+03  0.41657897520E+03  0.00000000000E+00 0. -1.
         -2    1    5    5    0  503  0.74677726274E+02 -0.72030050203E+02  0.99323304113E+02  0.14363220277E+03  0.00000000000E+00 0.  1.
         -1    1    6    6    0  502 -0.68187870989E+01 -0.17470197285E+02 -0.12226359024E+02  0.22387217461E+02  0.00000000000E+00 0.  1.
<mgrwt>
<rscale>  0 0.24667536E+04</rscale>
<asrwt>0</asrwt>
<pdfrwt beam="1">  1        2 0.11265503E+00 0.24667536E+04</pdfrwt>
<pdfrwt beam="2">  1       -2 0.31960550E+00 0.24667536E+04</pdfrwt>
<totfact> 0.83325864E-01</totfact>
</mgrwt>
</event>
<event>
12    1  0.1663913E-007  0.1414934E+04  0.7818608E-02  0.8943079E-01
         -2   -1    0    0    0  501 -0.00000000000E+00  0.00000000000E+00  0.29249579975E+03  0.29249579975E+03  0.00000000000E+00 0.  1.
          2   -1    0    0  501    0  0.00000000000E+00 -0.00000000000E+00 -0.17111678619E+04  0.17111678619E+04  0.00000000000E+00 0. -1.
         23    2    1    2    0    0 -0.20462023360E+03  0.23516993504E+03 -0.80509158030E+03  0.86814014207E+03  0.91216858416E+02 0.  0.
        254    2    1    2    0    0  0.20462023360E+03 -0.23516993504E+03 -0.61358048184E+03  0.11355235196E+04  0.90319339982E+03 0.  0.
        -24    2    4    4    0    0 -0.24180270595E+03  0.11129914107E+03 -0.47177708035E+03  0.54753285849E+03  0.79765720508E+02 0.  0.
         24    2    4    4    0    0  0.44642293955E+03 -0.34646907611E+03 -0.14180340149E+03  0.58799066109E+03  0.79312995176E+02 0.  0.
         11    1    3    3    0    0 -0.22689360346E+02  0.54737842732E+02 -0.83358908664E+02  0.10227290039E+03  0.00000000000E+00 0.  1.
        -11    1    3    3    0    0 -0.18193087325E+03  0.18043209231E+03 -0.72173267163E+03  0.76586724168E+03  0.00000000000E+00 0. -1.
          2    1    6    6  502    0  0.26127588247E+03 -0.16552056862E+03 -0.10428294094E+03  0.32640017949E+03  0.00000000000E+00 0. -1.
          1    1    5    5  503    0 -0.17204181379E+03  0.37600757007E+02 -0.31142381908E+03  0.35776668054E+03  0.00000000000E+00 0. -1.
         -2    1    5    5    0  503 -0.69760892164E+02  0.73698384068E+02 -0.16035326128E+03  0.18976617794E+03  0.00000000000E+00 0.  1.
         -1    1    6    6    0  502  0.18514705708E+03 -0.18094850749E+03 -0.37520460546E+02  0.26159048161E+03  0.00000000000E+00 0.  1.
<mgrwt>
<rscale>  0 0.14149338E+04</rscale>
<asrwt>0</asrwt>
<pdfrwt beam="1">  1        2 0.26325660E+00 0.14149338E+04</pdfrwt>
<pdfrwt beam="2">  1       -2 0.44999352E-01 0.14149338E+04</pdfrwt>
<totfact> 0.44015260E+01</totfact>
</mgrwt>
</event>
<event>
12    1  0.1663913E-007  0.1984433E+04  0.7818608E-02  0.8613934E-01
         -1   -1    0    0    0  501 -0.00000000000E+00  0.00000000000E+00  0.78010850669E+03  0.78010850669E+03  0.00000000000E+00 0.  1.
          1   -1    0    0  501    0  0.00000000000E+00 -0.00000000000E+00 -0.12619953399E+04  0.12619953399E+04  0.00000000000E+00 0. -1.
         23    2    1    2    0    0  0.43167394586E+03  0.17907900141E+03  0.45827795172E+03  0.66081671015E+03  0.90820477337E+02 0.  0.
        254    2    1    2    0    0 -0.43167394586E+03 -0.17907900141E+03 -0.94016478496E+03  0.13812871365E+04  0.89757041298E+03 0.  0.
        -24    2    4    4    0    0 -0.35665655435E+03  0.24821997122E+03 -0.80702411579E+03  0.92033759642E+03  0.83164391596E+02 0.  0.
         24    2    4    4    0    0 -0.75017391506E+02 -0.42729897262E+03 -0.13314066916E+03  0.46094954006E+03  0.80845653353E+02 0.  0.
         11    1    3    3    0    0  0.76278102503E+01 -0.77957902466E+01  0.21058382005E+02  0.23715254320E+02  0.00000000000E+00 0. -1.
        -11    1    3    3    0    0  0.42404613561E+03  0.18687479166E+03  0.43721956971E+03  0.63710145583E+03  0.00000000000E+00 0.  1.
          2    1    6    6  502    0  0.57044148001E+01 -0.53355752626E+01 -0.12461049367E+02  0.14706680894E+02  0.00000000000E+00 0. -1.
          1    1    5    5  503    0 -0.26771295722E+03  0.17547705290E+03 -0.51318288868E+03  0.60482981143E+03  0.00000000000E+00 0. -1.
         -2    1    5    5    0  503 -0.88943597132E+02  0.72742918319E+02 -0.29384122711E+03  0.31550778499E+03  0.00000000000E+00 0.  1.
         -1    1    6    6    0  502 -0.80721806306E+02 -0.42196339736E+03 -0.12067961980E+03  0.44624285917E+03  0.00000000000E+00 0.  1.
<mgrwt>
<rscale>  0 0.19844327E+04</rscale>
<asrwt>0</asrwt>
<pdfrwt beam="1">  1        1 0.19415313E+00 0.19844327E+04</pdfrwt>
<pdfrwt beam="2">  1       -1 0.12001670E+00 0.19844327E+04</pdfrwt>
<totfact> 0.55378935E+00</totfact>
</mgrwt>
</event>
<event>
12    1  0.1663913E-007  0.1173159E+04  0.7818608E-02  0.9136680E-01
         -2   -1    0    0    0  501 -0.00000000000E+00  0.00000000000E+00  0.34926442493E+03  0.34926442493E+03  0.00000000000E+00 0.  1.
          2   -1    0    0  501    0  0.00000000000E+00 -0.00000000000E+00 -0.98514328124E+03  0.98514328124E+03  0.00000000000E+00 0. -1.
         23    2    1    2    0    0  0.63467002479E+02 -0.91277949141E+02 -0.36168923059E+03  0.38941509362E+03  0.92007017169E+02 0.  0.
        254    2    1    2    0    0 -0.63467002479E+02  0.91277949141E+02 -0.27418962571E+03  0.94499261255E+03  0.89748056387E+03 0.  0.
        -24    2    4    4    0    0  0.18695460902E+03  0.42748860009E+03 -0.94702585241E+02  0.48192849667E+03  0.74752707017E+02 0.  0.
         24    2    4    4    0    0 -0.25042161150E+03 -0.33621065095E+03 -0.17948704047E+03  0.46306411589E+03  0.80400201518E+02 0.  0.
         11    1    3    3    0    0 -0.15086279052E+02 -0.50894578154E+02 -0.17522641397E+03  0.18309055152E+03  0.00000000000E+00 0.  1.
        -11    1    3    3    0    0  0.78553281531E+02 -0.40383370987E+02 -0.18646281662E+03  0.20632454210E+03  0.00000000000E+00 0. -1.
          2    1    6    6  502    0 -0.22753561211E+03 -0.27768491187E+03 -0.12577329099E+03  0.38039490767E+03  0.00000000000E+00 0. -1.
          1    1    5    5  503    0  0.19102898868E+03  0.38548092919E+03 -0.83269120497E+02  0.43820242778E+03  0.00000000000E+00 0. -1.
         -2    1    5    5    0  503 -0.40743796580E+01  0.42007670905E+02 -0.11433464744E+02  0.43726068889E+02  0.00000000000E+00 0.  1.
         -1    1    6    6    0  502 -0.22885999393E+02 -0.58525739086E+02 -0.53713749479E+02  0.82669208215E+02  0.00000000000E+00 0.  1.
<mgrwt>
<rscale>  0 0.11731590E+04</rscale>
<asrwt>0</asrwt>
<pdfrwt beam="1">  1        2 0.15156050E+00 0.11731590E+04</pdfrwt>
<pdfrwt beam="2">  1       -2 0.53732989E-01 0.11731590E+04</pdfrwt>
<totfact> 0.83055643E+01</totfact>
</mgrwt>
</event>
<event>
12    1  0.1663913E-007  0.1851756E+04  0.7818608E-02  0.8679251E-01
          1   -1    0    0  501    0  0.00000000000E+00  0.00000000000E+00  0.23672246972E+04  0.23672246972E+04  0.00000000000E+00 0. -1.
         -1   -1    0    0    0  501 -0.00000000000E+00 -0.00000000000E+00 -0.36213276522E+03  0.36213276522E+03  0.00000000000E+00 0.  1.
         23    2    1    2    0    0 -0.29870768086E+03 -0.60690892797E+03  0.49884252727E+03  0.84546172843E+03  0.91634828407E+02 0.  0.
        254    2    1    2    0    0  0.29870768086E+03  0.60690892797E+03  0.15062494047E+04  0.18838957340E+04  0.90703425621E+03 0.  0.
        -24    2    4    4    0    0  0.16383717815E+01 -0.55096427834E+02  0.97785807503E+03  0.98272456222E+03  0.80640248329E+02 0.  0.
         24    2    4    4    0    0  0.29706930908E+03  0.66200535580E+03  0.52839132971E+03  0.90117117181E+03  0.80067584502E+02 0.  0.
         11    1    3    3    0    0 -0.30088847642E+03 -0.57294660739E+03  0.48501251802E+03  0.80872667373E+03  0.00000000000E+00 0.  1.
        -11    1    3    3    0    0  0.21807955604E+01 -0.33962320575E+02  0.13830009252E+02  0.36735054703E+02  0.00000000000E+00 0. -1.
          2    1    6    6  502    0  0.59990308375E+02  0.76290661439E+02  0.87596964244E+02  0.13073763906E+03  0.00000000000E+00 0. -1.
          1    1    5    5  503    0  0.90597323180E+01  0.19617249660E+02  0.28235378974E+03  0.28317940923E+03  0.00000000000E+00 0. -1.
         -2    1    5    5    0  503 -0.74213605365E+01 -0.74713677494E+02  0.69550428529E+03  0.69954515298E+03  0.00000000000E+00 0.  1.
         -1    1    6    6    0  502  0.23707900070E+03  0.58571469436E+03  0.44079436546E+03  0.77043353275E+03  0.00000000000E+00 0.  1.
<mgrwt>
<rscale>  0 0.18517555E+04</rscale>
<asrwt>0</asrwt>
<pdfrwt beam="1">  1        1 0.36418841E+00 0.18517555E+04</pdfrwt>
<pdfrwt beam="2">  1       -1 0.55712734E-01 0.18517555E+04</pdfrwt>
<totfact> 0.51256647E+00</totfact>
</mgrwt>
</event>
<event>
12    1  0.1663913E-007  0.2536321E+04  0.7818608E-02  0.8390159E-01
         -2   -1    0    0    0  501 -0.00000000000E+00  0.00000000000E+00  0.21081072541E+04  0.21081072541E+04  0.00000000000E+00 0.  1.
          2   -1    0    0  501    0  0.00000000000E+00 -0.00000000000E+00 -0.76287919218E+03  0.76287919218E+03  0.00000000000E+00 0. -1.
         23    2    1    2    0    0 -0.14886381437E+03 -0.89301559816E+03 -0.12945229538E+03  0.91912466343E+03  0.91623994442E+02 0.  0.
        254    2    1    2    0    0  0.14886381437E+03  0.89301559816E+03  0.14746803573E+04  0.19518617828E+04  0.90301991635E+03 0.  0.
        -24    2    4    4    0    0  0.40212892715E+03  0.91017740339E+03  0.10400562788E+04  0.14418055276E+04  0.83399859821E+02 0.  0.
         24    2    4    4    0    0 -0.25326511278E+03 -0.17161805230E+02  0.43462407851E+03  0.51005625526E+03  0.82592669162E+02 0.  0.
         13    1    3    3    0    0  0.10961959325E+02 -0.12575737583E+03 -0.17588733453E+02  0.12745370011E+03  0.00000000000E+00 0.  1.
        -13    1    3    3    0    0 -0.15982577370E+03 -0.76725822233E+03 -0.11186356193E+03  0.79167096331E+03  0.00000000000E+00 0. -1.
          2    1    6    6  502    0 -0.53383741871E+02 -0.14699923286E+02  0.16752780732E+03  0.17644114562E+03  0.00000000000E+00 0. -1.
          3    1    5    5  503    0  0.16186086714E+03  0.35481840947E+03  0.34997657706E+03  0.52400252719E+03  0.00000000000E+00 0. -1.
         -2    1    5    5    0  503  0.24026806001E+03  0.55535899392E+03  0.69007970170E+03  0.91780300037E+03  0.00000000000E+00 0.  1.
         -1    1    6    6    0  502 -0.19988137091E+03 -0.24618819442E+01  0.26709627119E+03  0.33361510964E+03  0.00000000000E+00 0.  1.
<mgrwt>
<rscale>  0 0.25363211E+04</rscale>
<asrwt>0</asrwt>
<pdfrwt beam="1">  1        2 0.11736603E+00 0.25363211E+04</pdfrwt>
<pdfrwt beam="2">  1       -2 0.32432419E+00 0.25363211E+04</pdfrwt>
<totfact> 0.73445330E-01</totfact>
</mgrwt>
</event>
<event>
12    1  0.1663913E-007  0.1373602E+04  0.7818608E-02  0.8973152E-01
         -2   -1    0    0    0  501 -0.00000000000E+00  0.00000000000E+00  0.86427710527E+03  0.86427710527E+03  0.00000000000E+00 0.  1.
          2   -1    0    0  501    0  0.00000000000E+00 -0.00000000000E+00 -0.54576899561E+03  0.54576899561E+03  0.00000000000E+00 0. -1.
         23    2    1    2    0    0  0.48346711224E+02  0.30918390061E+02 -0.29660257313E+03  0.31543643895E+03  0.90739788963E+02 0.  0.
        254    2    1    2    0    0 -0.48346711224E+02 -0.30918390061E+02  0.61511068279E+03  0.10946096619E+04  0.90361264300E+03 0.  0.
        -24    2    4    4    0    0 -0.26443820074E+03  0.10234077984E+03  0.74317483426E+03  0.79945067611E+03  0.80070918697E+02 0.  0.
         24    2    4    4    0    0  0.21609148952E+03 -0.13325916990E+03 -0.12806415147E+03  0.29515898583E+03  0.79150880098E+02 0.  0.
         13    1    3    3    0    0  0.69753837716E+02  0.43760696729E+02 -0.22321440169E+03  0.23791861124E+03  0.00000000000E+00 0. -1.
        -13    1    3    3    0    0 -0.21407126493E+02 -0.12842306668E+02 -0.73388171436E+02  0.77517827704E+02  0.00000000000E+00 0.  1.
          4    1    6    6  502    0  0.67424048883E+02 -0.87297538200E+02 -0.51538934400E+02  0.12175025381E+03  0.00000000000E+00 0. -1.
          1    1    5    5  503    0 -0.14579262525E+02  0.90011178366E+00  0.11385080634E+03  0.11478401980E+03  0.00000000000E+00 0. -1.
         -2    1    5    5    0  503 -0.24985893822E+03  0.10144066806E+03  0.62932402792E+03  0.68466665631E+03  0.00000000000E+00 0.  1.
         -3    1    6    6    0  502  0.14866744064E+03 -0.45961631700E+02 -0.76525217068E+02  0.17340873202E+03  0.00000000000E+00 0.  1.
<mgrwt>
<rscale>  0 0.13736020E+04</rscale>
<asrwt>0</asrwt>
<pdfrwt beam="1">  1        2 0.83964461E-01 0.13736020E+04</pdfrwt>
<pdfrwt beam="2">  1       -2 0.13296571E+00 0.13736020E+04</pdfrwt>
<totfact> 0.22206587E+01</totfact>
</mgrwt>
</event>
<event>
12    1  0.1663913E-007  0.1178578E+04  0.7818608E-02  0.9131816E-01
          2   -1    0    0  501    0  0.00000000000E+00  0.00000000000E+00  0.12208818260E+04  0.12208818260E+04  0.00000000000E+00 0. -1.
         -2   -1    0    0    0  501 -0.00000000000E+00 -0.00000000000E+00 -0.28443508843E+03  0.28443508843E+03  0.00000000000E+00 0.  1.
         23    2    1    2    0    0  0.11306305613E+03  0.19458765198E+03  0.11588345140E+03  0.27341995125E+03  0.10335321219E+03 0.  0.
        254    2    1    2    0    0 -0.11306305613E+03 -0.19458765198E+03  0.82056328620E+03  0.12318969632E+04  0.89084140695E+03 0.  0.
        -24    2    4    4    0    0  0.33059825499E+02 -0.47062469901E+03  0.76863812680E+03  0.90524922395E+03  0.78045039061E+02 0.  0.
         24    2    4    4    0    0 -0.14612288162E+03  0.27603704702E+03  0.51925159404E+02  0.32664773926E+03  0.80337883455E+02 0.  0.
         11    1    3    3    0    0 -0.75206726397E+01 -0.44779089915E+01 -0.60829070617E+01  0.10658984202E+02  0.00000000000E+00 0.  1.
        -11    1    3    3    0    0  0.12058372877E+03  0.19906556097E+03  0.12196635846E+03  0.26276096705E+03  0.00000000000E+00 0. -1.
          2    1    6    6  502    0 -0.12959105678E+03  0.18234732249E+03  0.58670771144E+02  0.23127180417E+03  0.00000000000E+00 0. -1.
          3    1    5    5  503    0  0.56048470992E+02 -0.40031818137E+03  0.65105729694E+03  0.76633653270E+03  0.00000000000E+00 0. -1.
         -4    1    5    5    0  503 -0.22988645493E+02 -0.70306517633E+02  0.11758082985E+03  0.13891269126E+03  0.00000000000E+00 0.  1.
         -1    1    6    6    0  502 -0.16531824840E+02  0.93689724531E+02 -0.67456117396E+01  0.95375935083E+02  0.00000000000E+00 0.  1.
<mgrwt>
<rscale>  0 0.11785782E+04</rscale>
<asrwt>0</asrwt>
<pdfrwt beam="1">  1        2 0.18782797E+00 0.11785782E+04</pdfrwt>
<pdfrwt beam="2">  1       -2 0.43759245E-01 0.11785782E+04</pdfrwt>
<totfact> 0.90012544E+01</totfact>
</mgrwt>
</event>
<event>
12    1  0.1663913E-007  0.1620099E+04  0.7818608E-02  0.8808295E-01
          1   -1    0    0  501    0  0.00000000000E+00  0.00000000000E+00  0.14640055328E+04  0.14640055328E+04  0.00000000000E+00 0. -1.
         -1   -1    0    0    0  501 -0.00000000000E+00 -0.00000000000E+00 -0.44820898407E+03  0.44820898407E+03  0.00000000000E+00 0.  1.
         23    2    1    2    0    0 -0.35877462149E+03  0.24706677427E+03 -0.55912288601E+02  0.44849326966E+03  0.90877989302E+02 0.  0.
        254    2    1    2    0    0  0.35877462149E+03 -0.24706677427E+03  0.10717088373E+04  0.14637212472E+04  0.89674903823E+03 0.  0.
        -24    2    4    4    0    0  0.39220373581E+03 -0.16540811199E+03  0.51192602298E+02  0.43624127861E+03  0.80635951883E+02 0.  0.
         24    2    4    4    0    0 -0.33429114322E+02 -0.81658662278E+02  0.10205162350E+04  0.10274799686E+04  0.80473953073E+02 0.  0.
         11    1    3    3    0    0 -0.52451331283E+02  0.79179516549E+02 -0.16554109554E+01  0.94990938408E+02  0.00000000000E+00 0. -1.
        -11    1    3    3    0    0 -0.30632329020E+03  0.16788725772E+03 -0.54256877646E+02  0.35350233125E+03  0.00000000000E+00 0.  1.
          2    1    6    6  502    0 -0.45884813867E+02 -0.15583575130E+02  0.55823997283E+03  0.56033930009E+03  0.00000000000E+00 0. -1.
          3    1    5    5  503    0  0.86707532377E+02 -0.12327486852E+02  0.34500161242E+02  0.94129826456E+02  0.00000000000E+00 0. -1.
         -4    1    5    5    0  503  0.30549620343E+03 -0.15308062514E+03  0.16692441056E+02  0.34211145215E+03  0.00000000000E+00 0.  1.
         -1    1    6    6    0  502  0.12455699545E+02 -0.66075087148E+02  0.46227626218E+03  0.46714066851E+03  0.00000000000E+00 0.  1.
<mgrwt>
<rscale>  0 0.16200993E+04</rscale>
<asrwt>0</asrwt>
<pdfrwt beam="1">  1        1 0.22523162E+00 0.16200993E+04</pdfrwt>
<pdfrwt beam="2">  1       -1 0.68955229E-01 0.16200993E+04</pdfrwt>
<totfact> 0.14125511E+01</totfact>
</mgrwt>
</event>
<event>
12    1  0.1663913E-007  0.1679836E+04  0.7818608E-02  0.8772949E-01
          1   -1    0    0  501    0  0.00000000000E+00  0.00000000000E+00  0.16563768167E+04  0.16563768167E+04  0.00000000000E+00 0. -1.
         -1   -1    0    0    0  501 -0.00000000000E+00 -0.00000000000E+00 -0.42590707833E+03  0.42590707833E+03  0.00000000000E+00 0.  1.
         23    2    1    2    0    0 -0.35289171333E+03 -0.71003463021E+02  0.10257091145E+04  0.10908312870E+04  0.90882649904E+02 0.  0.
        254    2    1    2    0    0  0.35289171333E+03  0.71003463021E+02  0.20476062394E+03  0.99145260809E+03  0.90082035272E+03 0.  0.
        -24    2    4    4    0    0  0.55388684778E+03  0.29034732508E+03  0.25302978636E+03  0.67940935184E+03  0.80503324516E+02 0.  0.
         24    2    4    4    0    0 -0.20099513445E+03 -0.21934386206E+03 -0.48269162423E+02  0.31204325625E+03  0.80810320085E+02 0.  0.
         11    1    3    3    0    0 -0.17288949541E+03 -0.40462269185E+02  0.63863439547E+03  0.66285885672E+03  0.00000000000E+00 0. -1.
        -11    1    3    3    0    0 -0.18000221792E+03 -0.30541193836E+02  0.38707471899E+03  0.42797243025E+03  0.00000000000E+00 0.  1.
          4    1    6    6  502    0 -0.10854310835E+03 -0.14615782150E+03 -0.64234634018E+02  0.19305388720E+03  0.00000000000E+00 0. -1.
          1    1    5    5  503    0  0.21168987287E+03  0.14498476051E+03  0.13111409456E+03  0.28813900959E+03  0.00000000000E+00 0. -1.
         -2    1    5    5    0  503  0.34219697492E+03  0.14536256457E+03  0.12191569180E+03  0.39127034225E+03  0.00000000000E+00 0.  1.
         -3    1    6    6    0  502 -0.92452026098E+02 -0.73186040557E+02  0.15965471595E+02  0.11898936904E+03  0.00000000000E+00 0.  1.
<mgrwt>
<rscale>  0 0.16798364E+04</rscale>
<asrwt>0</asrwt>
<pdfrwt beam="1">  1        1 0.25482720E+00 0.16798364E+04</pdfrwt>
<pdfrwt beam="2">  1       -1 0.65524167E-01 0.16798364E+04</pdfrwt>
<totfact> 0.11488305E+01</totfact>
</mgrwt>
</event>
<event>
12    1  0.1663913E-007  0.2661213E+04  0.7818608E-02  0.8347701E-01
          2   -1    0    0  501    0  0.00000000000E+00  0.00000000000E+00  0.23749547921E+04  0.23749547921E+04  0.00000000000E+00 0. -1.
         -2   -1    0    0    0  501 -0.00000000000E+00 -0.00000000000E+00 -0.74549344677E+03  0.74549344677E+03  0.00000000000E+00 0.  1.
         23    2    1    2    0    0 -0.58166908543E+03  0.85167711267E+03  0.55161353084E+02  0.10369803964E+04  0.92697025073E+02 0.  0.
        254    2    1    2    0    0  0.58166908543E+03 -0.85167711267E+03  0.15742999922E+04  0.20834678424E+04  0.89371413536E+03 0.  0.
        -24    2    4    4    0    0  0.54525495415E+03 -0.53749579111E+02  0.75755487755E+03  0.93837401564E+03  0.80401607259E+02 0.  0.
         24    2    4    4    0    0  0.36414131280E+02 -0.79792753356E+03  0.81674511466E+03  0.11450938268E+04  0.78440754990E+02 0.  0.
         11    1    3    3    0    0  0.28212146952E+01  0.11059530069E+02  0.30105026212E+01  0.11804049463E+02  0.00000000000E+00 0. -1.
        -11    1    3    3    0    0 -0.58449030013E+03  0.84061758260E+03  0.52150850462E+02  0.10251763469E+04  0.00000000000E+00 0.  1.
          2    1    6    6  502    0  0.20775236846E+02 -0.33367861323E+03  0.28779554223E+03  0.44113410832E+03  0.00000000000E+00 0. -1.
          1    1    5    5  503    0  0.25841704020E+03 -0.65420305245E+02  0.37456056166E+03  0.45973339812E+03  0.00000000000E+00 0. -1.
         -2    1    5    5    0  503  0.28683791396E+03  0.11670726134E+02  0.38299431589E+03  0.47864061752E+03  0.00000000000E+00 0.  1.
         -1    1    6    6    0  502  0.15638894434E+02 -0.46424892033E+03  0.52894957244E+03  0.70395971847E+03  0.00000000000E+00 0.  1.
<mgrwt>
<rscale>  0 0.26612127E+04</rscale>
<asrwt>0</asrwt>
<pdfrwt beam="1">  1        2 0.36537766E+00 0.26612127E+04</pdfrwt>
<pdfrwt beam="2">  1       -2 0.11469130E+00 0.26612127E+04</pdfrwt>
<totfact> 0.21460165E+00</totfact>
</mgrwt>
</event>
<event>
12    1  0.1663913E-007  0.1409867E+04  0.7818608E-02  0.8946707E-01
         -2   -1    0    0    0  501 -0.00000000000E+00  0.00000000000E+00  0.41220678871E+03  0.41220678871E+03  0.00000000000E+00 0.  1.
          2   -1    0    0  501    0  0.00000000000E+00 -0.00000000000E+00 -0.12055390636E+04  0.12055390636E+04  0.00000000000E+00 0. -1.
         23    2    1    2    0    0  0.31096974692E+02  0.34068846344E+03 -0.48422797819E+03  0.59969786530E+03  0.90139579742E+02 0.  0.
        254    2    1    2    0    0 -0.31096974692E+02 -0.34068846344E+03 -0.30910429669E+03  0.10180479870E+04  0.90765664578E+03 0.  0.
        -24    2    4    4    0    0 -0.36622452488E+03  0.12036559229E+03 -0.14833885805E+03  0.42088261003E+03  0.80805174306E+02 0.  0.
         24    2    4    4    0    0  0.33512755018E+03 -0.46105405572E+03 -0.16076543865E+03  0.59716537696E+03  0.76678836602E+02 0.  0.
         11    1    3    3    0    0  0.31865326824E+02  0.30023149840E+03 -0.46614073487E+03  0.55537513123E+03  0.00000000000E+00 0. -1.
        -11    1    3    3    0    0 -0.76835213133E+00  0.40456965034E+02 -0.18087243320E+02  0.44322734073E+02  0.00000000000E+00 0.  1.
          4    1    6    6  502    0  0.12155736897E+03 -0.16730458050E+03 -0.20411819842E+02  0.20780678284E+03  0.00000000000E+00 0. -1.
          1    1    5    5  503    0 -0.25947696097E+02 -0.10979808513E+02 -0.33418280184E+01  0.28372644259E+02  0.00000000000E+00 0. -1.
         -2    1    5    5    0  503 -0.34027682878E+03  0.13134540080E+03 -0.14499703003E+03  0.39250996577E+03  0.00000000000E+00 0.  1.
         -3    1    6    6    0  502  0.21357018121E+03 -0.29374947523E+03 -0.14035361881E+03  0.38935859412E+03  0.00000000000E+00 0.  1.
<mgrwt>
<rscale>  0 0.14098672E+04</rscale>
<asrwt>0</asrwt>
<pdfrwt beam="1">  1        2 0.18546755E+00 0.14098672E+04</pdfrwt>
<pdfrwt beam="2">  1       -2 0.63416429E-01 0.14098672E+04</pdfrwt>
<totfact> 0.42084311E+01</totfact>
</mgrwt>
</event>
<event>
12    1  0.1663913E-007  0.1659507E+04  0.7818608E-02  0.8784802E-01
         -2   -1    0    0    0  501 -0.00000000000E+00  0.00000000000E+00  0.50860292856E+03  0.50860292856E+03  0.00000000000E+00 0.  1.
          2   -1    0    0  501    0  0.00000000000E+00 -0.00000000000E+00 -0.13536904900E+04  0.13536904900E+04  0.00000000000E+00 0. -1.
         23    2    1    2    0    0  0.62086617488E+02  0.59498982958E+03 -0.35448886057E+03  0.70132832938E+03  0.91276656086E+02 0.  0.
        254    2    1    2    0    0 -0.62086617488E+02 -0.59498982958E+03 -0.49059870087E+03  0.11609650892E+04  0.86561261986E+03 0.  0.
        -24    2    4    4    0    0 -0.12610824770E+03 -0.39168842837E+03 -0.72282647614E+03  0.83558111307E+03  0.79966035588E+02 0.  0.
         24    2    4    4    0    0  0.64021630216E+02 -0.20330140121E+03  0.23222777527E+03  0.32538397613E+03  0.80714084554E+02 0.  0.
         11    1    3    3    0    0  0.83021494795E+01  0.36130452813E+03 -0.25180955346E+03  0.44047467458E+03  0.00000000000E+00 0. -1.
        -11    1    3    3    0    0  0.53784468009E+02  0.23368530145E+03 -0.10267930711E+03  0.26085365480E+03  0.00000000000E+00 0.  1.
          4    1    6    6  502    0  0.47165873748E+02 -0.10987390158E+03  0.73267000290E+02  0.14023176254E+03  0.00000000000E+00 0. -1.
          1    1    5    5  503    0 -0.12017074528E+03 -0.38456641660E+03 -0.72127769569E+03  0.82618027760E+03  0.00000000000E+00 0. -1.
         -2    1    5    5    0  503 -0.59375024198E+01 -0.71220117671E+01 -0.15487804547E+01  0.94008354678E+01  0.00000000000E+00 0.  1.
         -1    1    6    6    0  502  0.16855756469E+02 -0.93427499629E+02  0.15896077498E+03  0.18515221359E+03  0.00000000000E+00 0.  1.
<mgrwt>
<rscale>  0 0.16595071E+04</rscale>
<asrwt>0</asrwt>
<pdfrwt beam="1">  1        2 0.20826007E+00 0.16595071E+04</pdfrwt>
<pdfrwt beam="2">  1       -2 0.78246607E-01 0.16595071E+04</pdfrwt>
<totfact> 0.21338493E+01</totfact>
</mgrwt>
</event>
<event>
12    1  0.1663913E-007  0.1817288E+04  0.7818608E-02  0.8697160E-01
          2   -1    0    0  501    0  0.00000000000E+00  0.00000000000E+00  0.16696483947E+04  0.16696483947E+04  0.00000000000E+00 0. -1.
         -2   -1    0    0    0  501 -0.00000000000E+00 -0.00000000000E+00 -0.49449569798E+03  0.49449569798E+03  0.00000000000E+00 0.  1.
         23    2    1    2    0    0 -0.78228793347E+02  0.26546976549E+03  0.10436472023E+04  0.10836289160E+04  0.91968495116E+02 0.  0.
        254    2    1    2    0    0  0.78228793347E+02 -0.26546976549E+03  0.13150549444E+03  0.10805151767E+04  0.10361589702E+04 0.  0.
        -24    2    4    4    0    0 -0.25207703985E+03 -0.10606441807E+03  0.48627007631E+03  0.56363248043E+03  0.80190342791E+02 0.  0.
         24    2    4    4    0    0  0.33030583320E+03 -0.15940534742E+03 -0.35476458188E+03  0.51688269632E+03  0.82448802118E+02 0.  0.
         11    1    3    3    0    0 -0.83421975119E+02  0.25503246481E+03  0.89075992445E+03  0.93029781632E+03  0.00000000000E+00 0. -1.
        -11    1    3    3    0    0  0.51931817723E+01  0.10437300680E+02  0.15288727788E+03  0.15333109965E+03  0.00000000000E+00 0.  1.
          2    1    6    6  502    0  0.14691552498E+03 -0.49258482960E+02 -0.10093509864E+03  0.18492826653E+03  0.00000000000E+00 0. -1.
          3    1    5    5  503    0 -0.13398998544E+02  0.31162799795E+01  0.71377387894E+02  0.72690961374E+02  0.00000000000E+00 0. -1.
         -4    1    5    5    0  503 -0.23867804131E+03 -0.10918069805E+03  0.41489268842E+03  0.49094151905E+03  0.00000000000E+00 0.  1.
         -1    1    6    6    0  502  0.18339030822E+03 -0.11014686446E+03 -0.25382948323E+03  0.33195442979E+03  0.00000000000E+00 0.  1.
<mgrwt>
<rscale>  0 0.18172880E+04</rscale>
<asrwt>0</asrwt>
<pdfrwt beam="1">  1        2 0.25686898E+00 0.18172880E+04</pdfrwt>
<pdfrwt beam="2">  1       -2 0.76076262E-01 0.18172880E+04</pdfrwt>
<totfact> 0.14869876E+01</totfact>
</mgrwt>
</event>
<event>
12    1  0.1663913E-007  0.1857861E+04  0.7818608E-02  0.8676121E-01
         -2   -1    0    0    0  501 -0.00000000000E+00  0.00000000000E+00  0.54722932832E+03  0.54722932832E+03  0.00000000000E+00 0.  1.
          2   -1    0    0  501    0  0.00000000000E+00 -0.00000000000E+00 -0.15768740970E+04  0.15768740970E+04  0.00000000000E+00 0. -1.
         23    2    1    2    0    0 -0.26354556563E+03 -0.54430432112E+03 -0.81500776037E+03  0.10189960132E+04  0.91606583886E+02 0.  0.
        254    2    1    2    0    0  0.26354556563E+03  0.54430432112E+03 -0.21463700827E+03  0.11051074121E+04  0.89970544507E+03 0.  0.
        -24    2    4    4    0    0  0.39802965674E+03 -0.94072082421E+02 -0.13209227649E+02  0.41671143472E+03  0.78719576936E+02 0.  0.
         24    2    4    4    0    0 -0.13448409111E+03  0.63837640354E+03 -0.20142778063E+03  0.68839597742E+03  0.87780792667E+02 0.  0.
         13    1    3    3    0    0 -0.48388444195E+02 -0.40573877962E+02 -0.10037372513E+03  0.11858568969E+03  0.00000000000E+00 0.  1.
        -13    1    3    3    0    0 -0.21515712144E+03 -0.50373044316E+03 -0.71463403524E+03  0.90041032346E+03  0.00000000000E+00 0. -1.
          4    1    6    6  502    0 -0.32454898428E+02  0.97928356557E+02 -0.64301742459E+02  0.12156478739E+03  0.00000000000E+00 0. -1.
          1    1    5    5  503    0  0.37168618371E+02 -0.26044820362E+02  0.16506622080E+02  0.48293968897E+02  0.00000000000E+00 0. -1.
         -2    1    5    5    0  503  0.36086103837E+03 -0.68027262058E+02 -0.29715849730E+02  0.36841746582E+03  0.00000000000E+00 0.  1.
         -3    1    6    6    0  502 -0.10202919269E+03  0.54044804698E+03 -0.13712603817E+03  0.56683119003E+03  0.00000000000E+00 0.  1.
<mgrwt>
<rscale>  0 0.18578609E+04</rscale>
<asrwt>0</asrwt>
<pdfrwt beam="1">  1        2 0.24259601E+00 0.18578609E+04</pdfrwt>
<pdfrwt beam="2">  1       -2 0.84189129E-01 0.18578609E+04</pdfrwt>
<totfact> 0.13296486E+01</totfact>
</mgrwt>
</event>
<event>
12    1  0.1663913E-007  0.1720906E+04  0.7818608E-02  0.8749530E-01
          2   -1    0    0  501    0  0.00000000000E+00  0.00000000000E+00  0.88516261762E+03  0.88516261762E+03  0.00000000000E+00 0.  1.
         -2   -1    0    0    0  501 -0.00000000000E+00 -0.00000000000E+00 -0.83643284360E+03  0.83643284360E+03  0.00000000000E+00 0. -1.
         23    2    1    2    0    0 -0.44940526917E+03 -0.19621943639E+02 -0.41106091197E+03  0.61596240530E+03  0.89936059264E+02 0.  0.
        254    2    1    2    0    0  0.44940526917E+03  0.19621943639E+02  0.45979068600E+03  0.11056330559E+04  0.89925906322E+03 0.  0.
        -24    2    4    4    0    0  0.52469596349E+01 -0.37479224977E+03  0.29533740322E+03  0.48388343215E+03  0.80138836359E+02 0.  0.
         24    2    4    4    0    0  0.44415830954E+03  0.39441419341E+03  0.16445328279E+03  0.62174962377E+03  0.81783571371E+02 0.  0.
         13    1    3    3    0    0 -0.33531567507E+03 -0.24071315498E+02 -0.35446099781E+03  0.48852699940E+03  0.00000000000E+00 0. -1.
        -13    1    3    3    0    0 -0.11408959410E+03  0.44493718597E+01 -0.56599914166E+02  0.12743540590E+03  0.00000000000E+00 0.  1.
          2    1    6    6  502    0  0.30753660667E+03  0.22178321164E+03  0.94723630921E+02  0.39081853035E+03  0.00000000000E+00 0. -1.
          1    1    5    5  503    0 -0.20046798515E+02 -0.23704840858E+03  0.22381685867E+03  0.32663099725E+03  0.00000000000E+00 0. -1.
         -2    1    5    5    0  503  0.25293758150E+02 -0.13774384120E+03  0.71520544542E+02  0.15725243489E+03  0.00000000000E+00 0.  1.
         -1    1    6    6    0  502  0.13662170287E+03  0.17263098177E+03  0.69729651867E+02  0.23093109342E+03  0.00000000000E+00 0.  1.
<mgrwt>
<rscale>  0 0.17209057E+04</rscale>
<asrwt>0</asrwt>
<pdfrwt beam="1">  1        2 0.13617886E+00 0.17209057E+04</pdfrwt>
<pdfrwt beam="2">  1       -2 0.12868198E+00 0.17209057E+04</pdfrwt>
<totfact> 0.12704687E+01</totfact>
</mgrwt>
</event>
<event>
12    1  0.1663913E-007  0.1727300E+04  0.7818608E-02  0.8745946E-01
         -2   -1    0    0    0  501 -0.00000000000E+00  0.00000000000E+00  0.61795514004E+03  0.61795514004E+03  0.00000000000E+00 0.  1.
          2   -1    0    0  501    0  0.00000000000E+00 -0.00000000000E+00 -0.12070308391E+04  0.12070308391E+04  0.00000000000E+00 0. -1.
         23    2    1    2    0    0 -0.49029120550E+03  0.34708817970E+03 -0.31986530910E+02  0.60846487607E+03  0.91382145812E+02 0.  0.
        254    2    1    2    0    0  0.49029120550E+03 -0.34708817970E+03 -0.55708916816E+03  0.12165211031E+04  0.89928837549E+03 0.  0.
        -24    2    4    4    0    0  0.71498473665E+02 -0.83700828738E+02 -0.68573755036E+03  0.69915129147E+03  0.80365912666E+02 0.  0.
         24    2    4    4    0    0  0.41879273183E+03 -0.26338735096E+03  0.12864838220E+03  0.51736981162E+03  0.79755042774E+02 0.  0.
         13    1    3    3    0    0 -0.13732313746E+02 -0.47491851112E+01  0.37983601534E+01  0.15018613115E+02  0.00000000000E+00 0. -1.
        -13    1    3    3    0    0 -0.47655889175E+03  0.35183736481E+03 -0.35784891064E+02  0.59344626295E+03  0.00000000000E+00 0.  1.
          2    1    6    6  502    0  0.12965112856E+03 -0.11945704461E+03  0.24374361432E+02  0.17797053166E+03  0.00000000000E+00 0. -1.
          1    1    5    5  503    0  0.95748840859E+01 -0.34107950941E+02 -0.71330321847E+02  0.79643239119E+02  0.00000000000E+00 0. -1.
         -4    1    5    5    0  503  0.61923589579E+02 -0.49592877797E+02 -0.61440722851E+03  0.61950805235E+03  0.00000000000E+00 0.  1.
         -3    1    6    6    0  502  0.28914160327E+03 -0.14393030635E+03  0.10427402077E+03  0.33939927995E+03  0.00000000000E+00 0.  1.
<mgrwt>
<rscale>  0 0.17272995E+04</rscale>
<asrwt>0</asrwt>
<pdfrwt beam="1">  1        2 0.18569705E+00 0.17272995E+04</pdfrwt>
<pdfrwt beam="2">  1       -2 0.95070023E-01 0.17272995E+04</pdfrwt>
<totfact> 0.16574507E+01</totfact>
</mgrwt>
</event>
<event>
12    1  0.1663913E-007  0.2011821E+04  0.7818608E-02  0.8601114E-01
         -3   -1    0    0    0  501 -0.00000000000E+00  0.00000000000E+00  0.18466616671E+04  0.18466616671E+04  0.00000000000E+00 0.  1.
          3   -1    0    0  501    0  0.00000000000E+00 -0.00000000000E+00 -0.54793768399E+03  0.54793768399E+03  0.00000000000E+00 0. -1.
         23    2    1    2    0    0  0.76034420877E+03 -0.25189145731E+03  0.57159973762E+03  0.98809329163E+03  0.89607314687E+02 0.  0.
        254    2    1    2    0    0 -0.76034420877E+03  0.25189145731E+03  0.72712424545E+03  0.14065060594E+04  0.89887541115E+03 0.  0.
        -24    2    4    4    0    0 -0.94787701053E+03  0.25510987359E+03  0.67781735506E+03  0.11955524593E+04  0.79733565664E+02 0.  0.
         24    2    4    4    0    0  0.18753280176E+03 -0.32184162820E+01  0.49306890396E+02  0.21095360009E+03  0.83014107309E+02 0.  0.
         13    1    3    3    0    0  0.35121267186E+03 -0.15162607947E+03  0.23571813242E+03  0.44933711933E+03  0.00000000000E+00 0. -1.
        -13    1    3    3    0    0  0.40913153691E+03 -0.10026537783E+03  0.33588160520E+03  0.53875617231E+03  0.00000000000E+00 0.  1.
          4    1    6    6  502    0  0.10285086386E+03 -0.42419664898E+02  0.34421203836E+02  0.11645835067E+03  0.00000000000E+00 0. -1.
          1    1    5    5  503    0 -0.68059279200E+03  0.20575871252E+03  0.45547528751E+03  0.84439382627E+03  0.00000000000E+00 0. -1.
         -2    1    5    5    0  503 -0.26728421852E+03  0.49351161068E+02  0.22234206754E+03  0.35115863306E+03  0.00000000000E+00 0.  1.
         -3    1    6    6    0  502  0.84681937893E+02  0.39201248616E+02  0.14885686560E+02  0.94495249419E+02  0.00000000000E+00 0.  1.
<mgrwt>
<rscale>  0 0.20118206E+04</rscale>
<asrwt>0</asrwt>
<pdfrwt beam="1">  1        3 0.84298106E-01 0.20118206E+04</pdfrwt>
<pdfrwt beam="2">  1       -3 0.28410179E+00 0.20118206E+04</pdfrwt>
<totfact> 0.14663448E-01</totfact>
</mgrwt>
</event>
<event>
12    1  0.1663913E-007  0.2305736E+04  0.7818608E-02  0.8475663E-01
          2   -1    0    0  501    0  0.00000000000E+00  0.00000000000E+00  0.24268131756E+04  0.24268131756E+04  0.00000000000E+00 0. -1.
         -2   -1    0    0    0  501 -0.00000000000E+00 -0.00000000000E+00 -0.54767468909E+03  0.54767468909E+03  0.00000000000E+00 0.  1.
         23    2    1    2    0    0  0.19357978495E+03  0.56490123408E+03  0.17957937497E+04  0.18944601397E+04  0.86703471301E+02 0.  0.
        254    2    1    2    0    0 -0.19357978495E+03 -0.56490123408E+03  0.83344736801E+02  0.10800277250E+04  0.89606194217E+03 0.  0.
        -24    2    4    4    0    0 -0.34800083288E+03 -0.28963574674E+03 -0.32160911092E+03  0.56088703865E+03  0.78539190352E+02 0.  0.
         24    2    4    4    0    0  0.15442104792E+03 -0.27526548734E+03  0.40495384772E+03  0.51914068635E+03  0.76827630957E+02 0.  0.
         11    1    3    3    0    0  0.12570959688E+03  0.47128657526E+03  0.14460181347E+04  0.15260676212E+04  0.00000000000E+00 0. -1.
        -11    1    3    3    0    0  0.67870188076E+02  0.93614658822E+02  0.34977561501E+03  0.36839251843E+03  0.00000000000E+00 0.  1.
          2    1    6    6  502    0  0.64953589478E+02 -0.15827666542E+03  0.26844438900E+03  0.31832822933E+03  0.00000000000E+00 0. -1.
          1    1    5    5  503    0 -0.31067535236E+03 -0.28243006231E+03 -0.30713797474E+03  0.52021115923E+03  0.00000000000E+00 0. -1.
         -2    1    5    5    0  503 -0.37325480523E+02 -0.72056844387E+01 -0.14471136179E+02  0.40675879423E+02  0.00000000000E+00 0.  1.
         -1    1    6    6    0  502  0.89467458447E+02 -0.11698882192E+03  0.13650945873E+03  0.20081245702E+03  0.00000000000E+00 0.  1.
<mgrwt>
<rscale>  0 0.23057356E+04</rscale>
<asrwt>0</asrwt>
<pdfrwt beam="1">  1        2 0.37335587E+00 0.23057356E+04</pdfrwt>
<pdfrwt beam="2">  1       -2 0.84257646E-01 0.23057356E+04</pdfrwt>
<totfact> 0.42737150E+00</totfact>
</mgrwt>
</event>
<event>
12    1  0.1663913E-007  0.3564385E+04  0.7818608E-02  0.8098699E-01
          1   -1    0    0  501    0  0.00000000000E+00  0.00000000000E+00  0.18400478897E+04  0.18400478897E+04  0.00000000000E+00 0.  1.
         -1   -1    0    0    0  501 -0.00000000000E+00 -0.00000000000E+00 -0.17261561819E+04  0.17261561819E+04  0.00000000000E+00 0. -1.
         23    2    1    2    0    0 -0.22141630003E+03  0.10447875465E+04 -0.12333731886E+04  0.16340614426E+04  0.91330063450E+02 0.  0.
        254    2    1    2    0    0  0.22141630003E+03 -0.10447875465E+04  0.13472648964E+04  0.19321426291E+04  0.88172912091E+03 0.  0.
        -24    2    4    4    0    0  0.55503362384E+03 -0.70721292193E+03  0.88968296734E+03  0.12675018565E+04  0.82539282768E+02 0.  0.
         24    2    4    4    0    0 -0.33361732381E+03 -0.33757462457E+03  0.45758192910E+03  0.66464077262E+03  0.84314820122E+02 0.  0.
         13    1    3    3    0    0 -0.72322188083E+02  0.22364520974E+03 -0.31658580795E+03  0.39430223500E+03  0.00000000000E+00 0.  1.
        -13    1    3    3    0    0 -0.14909411195E+03  0.82114233675E+03 -0.91678738063E+03  0.12397592076E+04  0.00000000000E+00 0. -1.
          4    1    6    6  502    0 -0.31648719259E+03 -0.31450581863E+03  0.39552010349E+03  0.59625011974E+03  0.00000000000E+00 0. -1.
          1    1    5    5  503    0  0.29574295312E+03 -0.43343308908E+03  0.54683030281E+03  0.75785982682E+03  0.00000000000E+00 0. -1.
         -2    1    5    5    0  503  0.25929067072E+03 -0.27377983285E+03  0.34285266453E+03  0.50964202964E+03  0.00000000000E+00 0.  1.
         -3    1    6    6    0  502 -0.17130131215E+02 -0.23068805936E+02  0.62061825612E+02  0.68390652878E+02  0.00000000000E+00 0.  1.
<mgrwt>
<rscale>  0 0.35643850E+04</rscale>
<asrwt>0</asrwt>
<pdfrwt beam="1">  1        1 0.28308429E+00 0.35643850E+04</pdfrwt>
<pdfrwt beam="2">  1       -1 0.26556249E+00 0.35643850E+04</pdfrwt>
<totfact> 0.17144280E-01</totfact>
</mgrwt>
</event>
<event>
12    1  0.1663913E-007  0.2198673E+04  0.7818608E-02  0.8518981E-01
          1   -1    0    0  501    0  0.00000000000E+00  0.00000000000E+00  0.21842645813E+04  0.21842645813E+04  0.00000000000E+00 0.  1.
         -1   -1    0    0    0  501 -0.00000000000E+00 -0.00000000000E+00 -0.55329405448E+03  0.55329405448E+03  0.00000000000E+00 0. -1.
         23    2    1    2    0    0  0.69787187022E+03  0.19883831598E+03 -0.14450031972E+02  0.73151695054E+03  0.91358756375E+02 0.  0.
        254    2    1    2    0    0 -0.69787187022E+03 -0.19883831598E+03  0.16454205588E+04  0.20060416852E+04  0.88895028232E+03 0.  0.
        -24    2    4    4    0    0 -0.18959160991E+03 -0.19050172804E+03 -0.12564770230E+01  0.28077808099E+03  0.81233398898E+02 0.  0.
         24    2    4    4    0    0 -0.50828026031E+03 -0.83365879389E+01  0.16466770358E+04  0.17252636042E+04  0.81061224462E+02 0.  0.
         11    1    3    3    0    0  0.27872512938E+03  0.12111365301E+03 -0.26495960934E+02  0.30505450437E+03  0.00000000000E+00 0.  1.
        -11    1    3    3    0    0  0.41914674084E+03  0.77724662971E+02  0.12045928962E+02  0.42646244617E+03  0.00000000000E+00 0. -1.
          4    1    6    6  502    0 -0.40874677230E+03 -0.34389083511E+02  0.13693241141E+04  0.14294422207E+04  0.00000000000E+00 0. -1.
          1    1    5    5  503    0 -0.14027358693E+03 -0.18060172619E+03 -0.13265687078E+02  0.22906252672E+03  0.00000000000E+00 0. -1.
         -4    1    5    5    0  503 -0.49318022987E+02 -0.99000018474E+01  0.12009210055E+02  0.51715554276E+02  0.00000000000E+00 0.  1.
         -3    1    6    6    0  502 -0.99533488007E+02  0.26052495572E+02  0.27735292169E+03  0.29582138349E+03  0.00000000000E+00 0.  1.
<mgrwt>
<rscale>  0 0.21986729E+04</rscale>
<asrwt>0</asrwt>
<pdfrwt beam="1">  1        1 0.33604070E+00 0.21986729E+04</pdfrwt>
<pdfrwt beam="2">  1       -1 0.85122163E-01 0.21986729E+04</pdfrwt>
<totfact> 0.27785623E+00</totfact>
</mgrwt>
</event>
<event>
12    1  0.1663913E-007  0.1357577E+04  0.7818608E-02  0.8985113E-01
          1   -1    0    0  501    0  0.00000000000E+00  0.00000000000E+00  0.67225078505E+03  0.67225078505E+03  0.00000000000E+00 0. -1.
         -1   -1    0    0    0  501 -0.00000000000E+00 -0.00000000000E+00 -0.68538932517E+03  0.68538932517E+03  0.00000000000E+00 0.  1.
         23    2    1    2    0    0 -0.95445140049E+02 -0.13247097915E+03  0.33016086539E+03  0.37939504748E+03  0.90972907741E+02 0.  0.
        254    2    1    2    0    0  0.95445140049E+02  0.13247097915E+03 -0.34329940551E+03  0.97824506273E+03  0.90136040842E+03 0.  0.
        -24    2    4    4    0    0  0.47008066352E+03 -0.52338838646E+02 -0.10399703757E+03  0.49079054976E+03  0.79654225663E+02 0.  0.
         24    2    4    4    0    0 -0.37463552347E+03  0.18480981780E+03 -0.23930236794E+03  0.48745451298E+03  0.76418811297E+02 0.  0.
         11    1    3    3    0    0 -0.94410121111E+02 -0.14506216863E+03  0.31686818163E+03  0.36105643363E+03  0.00000000000E+00 0. -1.
        -11    1    3    3    0    0 -0.10350189375E+01  0.12591189474E+02  0.13292683760E+02  0.18338613854E+02  0.00000000000E+00 0.  1.
          4    1    6    6  502    0 -0.19430439380E+03  0.10099391336E+03 -0.16871840657E+03  0.27644143811E+03  0.00000000000E+00 0. -1.
          1    1    5    5  503    0  0.33268607124E+03 -0.25633496984E+02 -0.37315389587E+02  0.33575219503E+03  0.00000000000E+00 0. -1.
         -2    1    5    5    0  503  0.13739459227E+03 -0.26705341662E+02 -0.66681647986E+02  0.15503835473E+03  0.00000000000E+00 0.  1.
         -3    1    6    6    0  502 -0.18033112966E+03  0.83815904440E+02 -0.70583961368E+02  0.21101307487E+03  0.00000000000E+00 0.  1.
<mgrwt>
<rscale>  0 0.13575765E+04</rscale>
<asrwt>0</asrwt>
<pdfrwt beam="1">  1        1 0.10342320E+00 0.13575765E+04</pdfrwt>
<pdfrwt beam="2">  1       -1 0.10544451E+00 0.13575765E+04</pdfrwt>
<totfact> 0.23896417E+01</totfact>
</mgrwt>
</event>
<event>
12    1  0.1663913E-007  0.1711075E+04  0.7818608E-02  0.8755073E-01
          1   -1    0    0  501    0  0.00000000000E+00  0.00000000000E+00  0.15519096070E+04  0.15519096070E+04  0.00000000000E+00 0. -1.
         -1   -1    0    0    0  501 -0.00000000000E+00 -0.00000000000E+00 -0.47164140240E+03  0.47164140240E+03  0.00000000000E+00 0.  1.
         23    2    1    2    0    0  0.36431605373E+03 -0.35815285796E+03  0.79943777418E+03  0.95300065482E+03  0.90054631292E+02 0.  0.
        254    2    1    2    0    0 -0.36431605373E+03  0.35815285796E+03  0.28083043042E+03  0.10705503546E+04  0.89789346493E+03 0.  0.
        -24    2    4    4    0    0  0.49767658497E+02  0.22045893584E+03 -0.27145899597E+03  0.36221519282E+03  0.80192874959E+02 0.  0.
         24    2    4    4    0    0 -0.41408371223E+03  0.13769392212E+03  0.55228942639E+03  0.70833516177E+03  0.79310490915E+02 0.  0.
         13    1    3    3    0    0  0.40310755785E+02 -0.21889179403E+02  0.12090649929E+03  0.12931540813E+03  0.00000000000E+00 0.  1.
        -13    1    3    3    0    0  0.32400529795E+03 -0.33626367856E+03  0.67853127489E+03  0.82368524669E+03  0.00000000000E+00 0. -1.
          4    1    6    6  502    0 -0.30070196690E+03  0.13474555043E+03  0.42650587625E+03  0.53896688093E+03  0.00000000000E+00 0. -1.
          1    1    5    5  503    0  0.36285646924E+01  0.11163582706E+03 -0.18372420911E+03  0.21501234703E+03  0.00000000000E+00 0. -1.
         -2    1    5    5    0  503  0.46139093804E+02  0.10882310878E+03 -0.87734786855E+02  0.14720284578E+03  0.00000000000E+00 0.  1.
         -3    1    6    6    0  502 -0.11338174533E+03  0.29483716950E+01  0.12578355014E+03  0.16936828084E+03  0.00000000000E+00 0.  1.
<mgrwt>
<rscale>  0 0.17110755E+04</rscale>
<asrwt>0</asrwt>
<pdfrwt beam="1">  1        1 0.23875532E+00 0.17110755E+04</pdfrwt>
<pdfrwt beam="2">  1       -1 0.72560216E-01 0.17110755E+04</pdfrwt>
<totfact> 0.10967374E+01</totfact>
</mgrwt>
</event>
<event>
12    1  0.1663913E-007  0.1587132E+04  0.7818608E-02  0.8828492E-01
          2   -1    0    0  501    0  0.00000000000E+00  0.00000000000E+00  0.17817724426E+04  0.17817724426E+04  0.00000000000E+00 0. -1.
         -2   -1    0    0    0  501 -0.00000000000E+00 -0.00000000000E+00 -0.35343858332E+03  0.35343858332E+03  0.00000000000E+00 0.  1.
         23    2    1    2    0    0 -0.48171256399E+03  0.15363313516E+03  0.74024731770E+03  0.90107135487E+03  0.91177632510E+02 0.  0.
        254    2    1    2    0    0  0.48171256399E+03 -0.15363313516E+03  0.68808654162E+03  0.12341396711E+04  0.89105976483E+03 0.  0.
        -24    2    4    4    0    0  0.37640641844E+03  0.14701177946E+03 -0.60821524610E+02  0.41656428653E+03  0.80822594714E+02 0.  0.
         24    2    4    4    0    0  0.10530614555E+03 -0.30064491462E+03  0.74890806623E+03  0.81757538457E+03  0.78035048573E+02 0.  0.
         13    1    3    3    0    0 -0.39476829268E+03  0.11282778215E+03  0.65280262889E+03  0.77118310770E+03  0.00000000000E+00 0. -1.
        -13    1    3    3    0    0 -0.86944271314E+02  0.40805353015E+02  0.87444688817E+02  0.12988824716E+03  0.00000000000E+00 0.  1.
          4    1    6    6  502    0  0.94581383466E+02 -0.17901148963E+03  0.40827782595E+03  0.45572089559E+03  0.00000000000E+00 0. -1.
          1    1    5    5  503    0  0.26421370844E+03  0.62305523135E+02 -0.43463443907E+02  0.27491804760E+03  0.00000000000E+00 0. -1.
         -2    1    5    5    0  503  0.11219271000E+03  0.84706256324E+02 -0.17358080703E+02  0.14164623893E+03  0.00000000000E+00 0.  1.
         -3    1    6    6    0  502  0.10724762087E+02 -0.12163342499E+03  0.34063024028E+03  0.36185448898E+03  0.00000000000E+00 0.  1.
<mgrwt>
<rscale>  0 0.15871322E+04</rscale>
<asrwt>0</asrwt>
<pdfrwt beam="1">  1        2 0.27411883E+00 0.15871322E+04</pdfrwt>
<pdfrwt beam="2">  1       -2 0.54375168E-01 0.15871322E+04</pdfrwt>
<totfact> 0.26989157E+01</totfact>
</mgrwt>
</event>
<event>
12    1  0.1663913E-007  0.1350794E+04  0.7818608E-02  0.8990227E-01
          1   -1    0    0  501    0  0.00000000000E+00  0.00000000000E+00  0.12082615324E+04  0.12082615324E+04  0.00000000000E+00 0. -1.
         -1   -1    0    0    0  501 -0.00000000000E+00 -0.00000000000E+00 -0.37753517477E+03  0.37753517477E+03  0.00000000000E+00 0.  1.
         23    2    1    2    0    0 -0.15407406037E+03 -0.91400498579E+02  0.60646825922E+03  0.63897882439E+03  0.91636899584E+02 0.  0.
        254    2    1    2    0    0  0.15407406037E+03  0.91400498579E+02  0.22425809842E+03  0.94681788278E+03  0.90226356528E+03 0.  0.
        -24    2    4    4    0    0  0.42524608689E+03 -0.20843478704E+03  0.23370644930E+03  0.53437314323E+03  0.81588337989E+02 0.  0.
         24    2    4    4    0    0 -0.27117202652E+03  0.29983528562E+03 -0.94483508818E+01  0.41244473955E+03  0.81153714534E+02 0.  0.
         13    1    3    3    0    0 -0.27240049336E+01 -0.21920884923E+02  0.21723475349E+02  0.30981523203E+02  0.00000000000E+00 0.  1.
        -13    1    3    3    0    0 -0.15135005544E+03 -0.69479613655E+02  0.58474478387E+03  0.60799730119E+03  0.00000000000E+00 0. -1.
          2    1    6    6  502    0 -0.20417036797E+03  0.20260427183E+03  0.26914518366E+02  0.28889171227E+03  0.00000000000E+00 0. -1.
          1    1    5    5  503    0  0.33380810293E+03 -0.15115044602E+03  0.14277515230E+03  0.39326714969E+03  0.00000000000E+00 0. -1.
         -2    1    5    5    0  503  0.91437983959E+02 -0.57284341017E+02  0.90931297009E+02  0.14110599354E+03  0.00000000000E+00 0.  1.
         -1    1    6    6    0  502 -0.67001658555E+02  0.97231013786E+02 -0.36362869248E+02  0.12355302728E+03  0.00000000000E+00 0.  1.
<mgrwt>
<rscale>  0 0.13507942E+04</rscale>
<asrwt>0</asrwt>
<pdfrwt beam="1">  1        1 0.18588639E+00 0.13507942E+04</pdfrwt>
<pdfrwt beam="2">  1       -1 0.58082335E-01 0.13507942E+04</pdfrwt>
<totfact> 0.30973326E+01</totfact>
</mgrwt>
</event>
<event>
12    1  0.1663913E-007  0.1195078E+04  0.7818608E-02  0.9117176E-01
         -2   -1    0    0    0  501 -0.00000000000E+00  0.00000000000E+00  0.82062818802E+02  0.82062818802E+02  0.00000000000E+00 0.  1.
          2   -1    0    0  501    0  0.00000000000E+00 -0.00000000000E+00 -0.43509677027E+04  0.43509677027E+04  0.00000000000E+00 0. -1.
         23    2    1    2    0    0  0.67918627076E+02 -0.10898495446E+03 -0.13097730806E+03  0.20373529127E+03  0.88669913052E+02 0.  0.
        254    2    1    2    0    0 -0.67918627076E+02  0.10898495446E+03 -0.41379275759E+04  0.42292952302E+04  0.86487158662E+03 0.  0.
        -24    2    4    4    0    0  0.19954549035E+03  0.40586485740E+03 -0.19173413581E+04  0.19715754068E+04  0.79793582632E+02 0.  0.
         24    2    4    4    0    0 -0.26746411742E+03 -0.29687990294E+03 -0.22205862177E+04  0.22577198235E+04  0.81369036123E+02 0.  0.
         13    1    3    3    0    0  0.27450581684E+02 -0.40625930872E+02 -0.11170456853E+03  0.12199143956E+03  0.00000000000E+00 0. -1.
        -13    1    3    3    0    0  0.40468045391E+02 -0.68359023591E+02 -0.19272739520E+02  0.81743851712E+02  0.00000000000E+00 0.  1.
          2    1    6    6  502    0 -0.14937182274E+03 -0.18878669693E+03 -0.11224224101E+04  0.11479479191E+04  0.00000000000E+00 0. -1.
          3    1    5    5  503    0  0.13929176684E+03  0.24516280597E+03 -0.13358756540E+04  0.13653097673E+04  0.00000000000E+00 0. -1.
         -4    1    5    5    0  503  0.60253723510E+02  0.16070205143E+03 -0.58146570409E+03  0.60626563944E+03  0.00000000000E+00 0.  1.
         -1    1    6    6    0  502 -0.11809229469E+03 -0.10809320601E+03 -0.10981638076E+04  0.11097719043E+04  0.00000000000E+00 0.  1.
<mgrwt>
<rscale>  0 0.11950777E+04</rscale>
<asrwt>0</asrwt>
<pdfrwt beam="1">  1        2 0.66937990E+00 0.11950777E+04</pdfrwt>
<pdfrwt beam="2">  1       -2 0.12625044E-01 0.11950777E+04</pdfrwt>
<totfact> 0.83151017E+00</totfact>
</mgrwt>
</event>
<event>
12    1  0.1663913E-007  0.1255361E+04  0.7818608E-02  0.9065733E-01
          2   -1    0    0  501    0  0.00000000000E+00  0.00000000000E+00  0.16922649459E+04  0.16922649459E+04  0.00000000000E+00 0. -1.
         -2   -1    0    0    0  501 -0.00000000000E+00 -0.00000000000E+00 -0.23281397246E+03  0.23281397246E+03  0.00000000000E+00 0.  1.
         23    2    1    2    0    0 -0.20313593392E+01  0.49612654397E+02  0.79696237596E+03  0.80377142634E+03  0.91836459010E+02 0.  0.
        254    2    1    2    0    0  0.20313593392E+01 -0.49612654397E+02  0.66248859746E+03  0.11213074920E+04  0.90331268559E+03 0.  0.
        -24    2    4    4    0    0  0.39604737745E+02  0.12329497842E+03 -0.19169969695E+03  0.24532579520E+03  0.81644259008E+02 0.  0.
         24    2    4    4    0    0 -0.37573378406E+02 -0.17290763281E+03  0.85418829441E+03  0.87598169680E+03  0.79984264517E+02 0.  0.
         13    1    3    3    0    0 -0.41872707057E+02  0.41476370086E+02  0.34642947196E+03  0.35140715974E+03  0.00000000000E+00 0. -1.
        -13    1    3    3    0    0  0.39841347718E+02  0.81362843104E+01  0.45053290400E+03  0.45236426660E+03  0.00000000000E+00 0.  1.
          2    1    6    6  502    0  0.25222327468E+02 -0.42744439213E+02  0.22523663030E+03  0.23063996297E+03  0.00000000000E+00 0. -1.
          3    1    5    5  503    0 -0.56564067383E+01 -0.10075033942E+02 -0.21512226345E+02  0.24418786384E+02  0.00000000000E+00 0. -1.
         -4    1    5    5    0  503  0.45261144484E+02  0.13337001236E+03 -0.17018747060E+03  0.22090700882E+03  0.00000000000E+00 0.  1.
         -1    1    6    6    0  502 -0.62795705874E+02 -0.13016319360E+03  0.62895166410E+03  0.64534173383E+03  0.00000000000E+00 0.  1.
<mgrwt>
<rscale>  0 0.12553612E+04</rscale>
<asrwt>0</asrwt>
<pdfrwt beam="1">  1        2 0.26034845E+00 0.12553612E+04</pdfrwt>
<pdfrwt beam="2">  1       -2 0.35817535E-01 0.12553612E+04</pdfrwt>
<totfact> 0.71351364E+01</totfact>
</mgrwt>
</event>
<event>
12    1  0.1663913E-007  0.1526922E+04  0.7818608E-02  0.8866745E-01
         -2   -1    0    0    0  501 -0.00000000000E+00  0.00000000000E+00  0.64230003704E+03  0.64230003704E+03  0.00000000000E+00 0.  1.
          2   -1    0    0  501    0  0.00000000000E+00 -0.00000000000E+00 -0.90747738130E+03  0.90747738130E+03  0.00000000000E+00 0. -1.
         23    2    1    2    0    0  0.42612980245E+03 -0.65431066556E+02  0.15511136719E+03  0.46789648617E+03  0.94867025485E+02 0.  0.
        254    2    1    2    0    0 -0.42612980245E+03  0.65431066556E+02 -0.42028871145E+03  0.10818809322E+04  0.89886368122E+03 0.  0.
        -24    2    4    4    0    0  0.11063501186E+03  0.32445255380E+03 -0.55092801186E+01  0.35138853164E+03  0.77032347014E+02 0.  0.
         24    2    4    4    0    0 -0.53676481432E+03 -0.25902148724E+03 -0.41477943133E+03  0.73049240053E+03  0.79803344701E+02 0.  0.
         11    1    3    3    0    0  0.13959092589E+03 -0.48343079641E+02  0.91878074268E+02  0.17396626245E+03  0.00000000000E+00 0.  1.
        -11    1    3    3    0    0  0.28653887656E+03 -0.17087986915E+02  0.63233292927E+02  0.29393022372E+03  0.00000000000E+00 0. -1.
          4    1    6    6  502    0 -0.62655305421E+02 -0.12630682776E+02 -0.22963825612E+02  0.67915820922E+02  0.00000000000E+00 0. -1.
          3    1    5    5  503    0  0.32774141201E+02  0.43639491271E+02  0.21660257073E+02  0.58717256972E+02  0.00000000000E+00 0. -1.
         -4    1    5    5    0  503  0.77860870662E+02  0.28081306253E+03 -0.27169537191E+02  0.29267127467E+03  0.00000000000E+00 0.  1.
         -3    1    6    6    0  502 -0.47410950890E+03 -0.24639080447E+03 -0.39181560572E+03  0.66257657960E+03  0.00000000000E+00 0.  1.
<mgrwt>
<rscale>  0 0.15269221E+04</rscale>
<asrwt>0</asrwt>
<pdfrwt beam="1">  1        2 0.13961190E+00 0.15269221E+04</pdfrwt>
<pdfrwt beam="2">  1       -2 0.98815391E-01 0.15269221E+04</pdfrwt>
<totfact> 0.23748667E+01</totfact>
</mgrwt>
</event>
<event>
12    1  0.1663913E-007  0.1156901E+04  0.7818608E-02  0.9151441E-01
         -2   -1    0    0    0  501 -0.00000000000E+00  0.00000000000E+00  0.24168837039E+03  0.24168837039E+03  0.00000000000E+00 0.  1.
          2   -1    0    0  501    0  0.00000000000E+00 -0.00000000000E+00 -0.13844478504E+04  0.13844478504E+04  0.00000000000E+00 0. -1.
         23    2    1    2    0    0 -0.17961472902E+02  0.12227755516E+03  0.46466791710E+00  0.15499767030E+03  0.93539547142E+02 0.  0.
        254    2    1    2    0    0  0.17961472902E+02 -0.12227755516E+03 -0.11432241480E+04  0.14711385505E+04  0.91761253660E+03 0.  0.
        -24    2    4    4    0    0  0.17622644644E+03 -0.24273569600E+03 -0.12076870753E+04  0.12469532321E+04  0.80049438120E+02 0.  0.
         24    2    4    4    0    0 -0.15826497354E+03  0.12045814085E+03  0.64462927345E+02  0.22418531845E+03  0.80905021242E+02 0.  0.
         11    1    3    3    0    0  0.60637908525E+01  0.46758063586E+02  0.44074665899E+02  0.64541941743E+02  0.00000000000E+00 0.  1.
        -11    1    3    3    0    0 -0.24025263755E+02  0.75519491572E+02 -0.43609997982E+02  0.90455728562E+02  0.00000000000E+00 0. -1.
          2    1    6    6  502    0 -0.12290398338E+03  0.10236647933E+03  0.83168137717E+02  0.18028095949E+03  0.00000000000E+00 0. -1.
          1    1    5    5  503    0  0.84522454689E+02 -0.86030107222E+02 -0.62875471023E+03  0.64021692444E+03  0.00000000000E+00 0. -1.
         -2    1    5    5    0  503  0.91703991753E+02 -0.15670558878E+03 -0.57893236507E+03  0.60673630762E+03  0.00000000000E+00 0.  1.
         -1    1    6    6    0  502 -0.35360990155E+02  0.18091661517E+02 -0.18705210372E+02  0.43904358966E+02  0.00000000000E+00 0.  1.
<mgrwt>
<rscale>  0 0.11569009E+04</rscale>
<asrwt>0</asrwt>
<pdfrwt beam="1">  1        2 0.21299197E+00 0.11569009E+04</pdfrwt>
<pdfrwt beam="2">  1       -2 0.37182827E-01 0.11569009E+04</pdfrwt>
<totfact> 0.99577959E+01</totfact>
</mgrwt>
</event>
<event>
12    1  0.1663913E-007  0.2408363E+04  0.7818608E-02  0.8436379E-01
         -2   -1    0    0    0  501 -0.00000000000E+00  0.00000000000E+00  0.58103427163E+03  0.58103427163E+03  0.00000000000E+00 0.  1.
          2   -1    0    0  501    0  0.00000000000E+00 -0.00000000000E+00 -0.24956420697E+04  0.24956420697E+04  0.00000000000E+00 0. -1.
         23    2    1    2    0    0 -0.24842831951E+03 -0.92884901293E+02 -0.21069277044E+04  0.21256044676E+04  0.93304695868E+02 0.  0.
        254    2    1    2    0    0  0.24842831951E+03  0.92884901293E+02  0.19231990632E+03  0.95107187375E+03  0.89286422699E+03 0.  0.
        -24    2    4    4    0    0  0.26223338313E+03 -0.30774928207E+03  0.32025631005E+03  0.52175483990E+03  0.78664102281E+02 0.  0.
         24    2    4    4    0    0 -0.13805063615E+02  0.40063418337E+03 -0.12793640373E+03  0.42931703385E+03  0.85129686300E+02 0.  0.
         13    1    3    3    0    0 -0.23196922732E+03 -0.54265016869E+02 -0.18486822353E+04  0.18639689970E+04  0.00000000000E+00 0. -1.
        -13    1    3    3    0    0 -0.16459092188E+02 -0.38619884424E+02 -0.25824546901E+03  0.26163547056E+03  0.00000000000E+00 0.  1.
          4    1    6    6  502    0  0.78142443723E+00  0.12024903124E+03  0.12489388625E+01  0.12025805581E+03  0.00000000000E+00 0. -1.
          3    1    5    5  503    0  0.35427956572E+02 -0.99430795517E+01  0.38276965563E+02  0.53095489738E+02  0.00000000000E+00 0. -1.
         -4    1    5    5    0  503  0.22680542655E+03 -0.29780620252E+03  0.28197934449E+03  0.46865935016E+03  0.00000000000E+00 0.  1.
         -3    1    6    6    0  502 -0.14586488052E+02  0.28038515212E+03 -0.12918534259E+03  0.30905897804E+03  0.00000000000E+00 0.  1.
<mgrwt>
<rscale>  0 0.24083634E+04</rscale>
<asrwt>0</asrwt>
<pdfrwt beam="1">  1        2 0.38394493E+00 0.24083634E+04</pdfrwt>
<pdfrwt beam="2">  1       -2 0.89389890E-01 0.24083634E+04</pdfrwt>
<totfact> 0.33774016E+00</totfact>
</mgrwt>
</event>
<event>
12    1  0.1663913E-007  0.1758111E+04  0.7818608E-02  0.8728898E-01
         -2   -1    0    0    0  501 -0.00000000000E+00  0.00000000000E+00  0.82956053223E+03  0.82956053223E+03  0.00000000000E+00 0. -1.
          2   -1    0    0  501    0  0.00000000000E+00 -0.00000000000E+00 -0.93150371313E+03  0.93150371313E+03  0.00000000000E+00 0.  1.
         23    2    1    2    0    0  0.16073211173E+03  0.49548356106E+03  0.33806733833E+03  0.62768791783E+03  0.91453955215E+02 0.  0.
        254    2    1    2    0    0 -0.16073211173E+03 -0.49548356106E+03 -0.44001051923E+03  0.11333763275E+04  0.90531423925E+03 0.  0.
        -24    2    4    4    0    0 -0.35677762714E+03 -0.67138249622E+03 -0.37261707426E+03  0.85049354336E+03  0.80318440089E+02 0.  0.
         24    2    4    4    0    0  0.19604551541E+03  0.17589893516E+03 -0.67393444973E+02  0.28288278418E+03  0.78144185051E+02 0.  0.
         13    1    3    3    0    0  0.59063492212E+02  0.23467244200E+03  0.20765553490E+03  0.31887375609E+03  0.00000000000E+00 0.  1.
        -13    1    3    3    0    0  0.10166861951E+03  0.26081111905E+03  0.13041180342E+03  0.30881416173E+03  0.00000000000E+00 0. -1.
          4    1    6    6  502    0  0.88994714558E+02  0.83728814712E+02 -0.71476653938E+02  0.14156089040E+03  0.00000000000E+00 0. -1.
          3    1    5    5  503    0 -0.35725909955E+03 -0.64648664166E+03 -0.36776652339E+03  0.82512499525E+03  0.00000000000E+00 0. -1.
         -4    1    5    5    0  503  0.48147240853E+00 -0.24895854551E+02 -0.48505508670E+01  0.25368548111E+02  0.00000000000E+00 0.  1.
         -3    1    6    6    0  502  0.10705080085E+03  0.92170120449E+02  0.40832089646E+01  0.14132189378E+03  0.00000000000E+00 0.  1.
<mgrwt>
<rscale>  0 0.17581112E+04</rscale>
<asrwt>0</asrwt>
<pdfrwt beam="1">  1        2 0.14330826E+00 0.17581112E+04</pdfrwt>
<pdfrwt beam="2">  1       -2 0.12762470E+00 0.17581112E+04</pdfrwt>
<totfact> 0.12036588E+01</totfact>
</mgrwt>
</event>
<event>
12    1  0.1663913E-007  0.1094549E+04  0.7818608E-02  0.9210521E-01
          2   -1    0    0  501    0  0.00000000000E+00  0.00000000000E+00  0.52912279016E+03  0.52912279016E+03  0.00000000000E+00 0. -1.
         -2   -1    0    0    0  501 -0.00000000000E+00 -0.00000000000E+00 -0.56604889697E+03  0.56604889697E+03  0.00000000000E+00 0.  1.
         23    2    1    2    0    0  0.13236647585E+03 -0.77926490234E+02  0.73720040427E+00  0.17830947721E+03  0.90555532075E+02 0.  0.
        254    2    1    2    0    0 -0.13236647585E+03  0.77926490234E+02 -0.37663307224E+02  0.91686220992E+03  0.90311924210E+03 0.  0.
        -24    2    4    4    0    0 -0.37211874529E+03  0.23641540973E+03  0.24109483208E+03  0.50870099508E+03  0.79280374576E+02 0.  0.
         24    2    4    4    0    0  0.23975226944E+03 -0.15848891949E+03 -0.27875813930E+03  0.40816121484E+03  0.79306927607E+02 0.  0.
         11    1    3    3    0    0  0.70483965016E+02 -0.79303144192E+02 -0.28491183701E+02  0.10985775144E+03  0.00000000000E+00 0.  1.
        -11    1    3    3    0    0  0.61882510835E+02  0.13766539579E+01  0.29228384106E+02  0.68451725769E+02  0.00000000000E+00 0. -1.
          2    1    6    6  502    0  0.65816040207E+02 -0.54826941088E+01 -0.52825362574E+02  0.84571449167E+02  0.00000000000E+00 0. -1.
          1    1    5    5  503    0 -0.97487140705E+02  0.23076899514E+02  0.54088967050E+02  0.11385035024E+03  0.00000000000E+00 0. -1.
         -2    1    5    5    0  503 -0.27463160458E+03  0.21333851021E+03  0.18700586503E+03  0.39485064484E+03  0.00000000000E+00 0.  1.
         -1    1    6    6    0  502  0.17393622923E+03 -0.15300622538E+03 -0.22593277673E+03  0.32358976567E+03  0.00000000000E+00 0.  1.
<mgrwt>
<rscale>  0 0.10945490E+04</rscale>
<asrwt>0</asrwt>
<pdfrwt beam="1">  1        2 0.81403506E-01 0.10945490E+04</pdfrwt>
<pdfrwt beam="2">  1       -2 0.87084446E-01 0.10945490E+04</pdfrwt>
<totfact> 0.65284629E+01</totfact>
</mgrwt>
</event>
<event>
12    1  0.1663913E-007  0.3387423E+04  0.7818608E-02  0.8141000E-01
          2   -1    0    0  501    0  0.00000000000E+00  0.00000000000E+00  0.23213861161E+04  0.23213861161E+04  0.00000000000E+00 0.  1.
         -2   -1    0    0    0  501 -0.00000000000E+00 -0.00000000000E+00 -0.12357521354E+04  0.12357521354E+04  0.00000000000E+00 0. -1.
         23    2    1    2    0    0  0.10857422993E+04 -0.10894116465E+04  0.84313534136E+03  0.17564401231E+04  0.92469595136E+02 0.  0.
        254    2    1    2    0    0 -0.10857422993E+04  0.10894116465E+04  0.24249863931E+03  0.18006981283E+04  0.90446342278E+03 0.  0.
        -24    2    4    4    0    0 -0.72317336778E+02 -0.66364661373E+02  0.22889793772E+03  0.26122979399E+03  0.78820516996E+02 0.  0.
         24    2    4    4    0    0 -0.10134249626E+04  0.11557763079E+04  0.13600701592E+02  0.15394683343E+04  0.83239081593E+02 0.  0.
         11    1    3    3    0    0  0.28140194903E+03 -0.34016347297E+03  0.25190262225E+03  0.50828454271E+03  0.00000000000E+00 0. -1.
        -11    1    3    3    0    0  0.80434035032E+03 -0.74924817355E+03  0.59123271911E+03  0.12481555804E+04  0.00000000000E+00 0.  1.
          4    1    6    6  502    0 -0.59078970932E+03  0.73463798496E+03  0.14186076697E+02  0.94282909074E+03  0.00000000000E+00 0. -1.
          3    1    5    5  503    0 -0.73359426492E+02 -0.71606970790E+02  0.14732583730E+03  0.17948277370E+03  0.00000000000E+00 0. -1.
         -4    1    5    5    0  503  0.10420897137E+01  0.52423094171E+01  0.81572100418E+02  0.81747020286E+02  0.00000000000E+00 0.  1.
         -3    1    6    6    0  502 -0.42263525325E+03  0.42113832294E+03 -0.58537510442E+00  0.59663924360E+03  0.00000000000E+00 0.  1.
<mgrwt>
<rscale>  0 0.33874225E+04</rscale>
<asrwt>0</asrwt>
<pdfrwt beam="1">  1        2 0.35713633E+00 0.33874225E+04</pdfrwt>
<pdfrwt beam="2">  1       -2 0.19011571E+00 0.33874225E+04</pdfrwt>
<totfact> 0.56563586E-01</totfact>
</mgrwt>
</event>
<event>
12    1  0.1663913E-007  0.1467210E+04  0.7818608E-02  0.8906556E-01
          4   -1    0    0  501    0  0.00000000000E+00  0.00000000000E+00  0.12802223715E+04  0.12802223715E+04  0.00000000000E+00 0. -1.
         -4   -1    0    0    0  501 -0.00000000000E+00 -0.00000000000E+00 -0.42037713311E+03  0.42037713311E+03  0.00000000000E+00 0.  1.
         23    2    1    2    0    0 -0.21886648166E+03  0.12929535272E+01  0.74438294095E+03  0.78117317146E+03  0.90671674217E+02 0.  0.
        254    2    1    2    0    0  0.21886648166E+03 -0.12929535272E+01  0.11546229742E+03  0.91942633313E+03  0.88549931191E+03 0.  0.
        -24    2    4    4    0    0  0.21694511404E+03  0.35713621434E+03 -0.16723619077E+03  0.45680460473E+03  0.78045149085E+02 0.  0.
         24    2    4    4    0    0  0.19213676214E+01 -0.35842916787E+03  0.28269848819E+03  0.46262172840E+03  0.75001788849E+02 0.  0.
         13    1    3    3    0    0 -0.18527420717E+02 -0.26247153903E+02  0.68008505546E+02  0.75215259310E+02  0.00000000000E+00 0.  1.
        -13    1    3    3    0    0 -0.20033906094E+03  0.27540107430E+02  0.67637443540E+03  0.70595791215E+03  0.00000000000E+00 0. -1.
          2    1    6    6  502    0  0.22648185347E+02 -0.33097237322E+03  0.25389359532E+03  0.41775304891E+03  0.00000000000E+00 0. -1.
          1    1    5    5  503    0  0.21729781829E+03  0.32724818655E+03 -0.14204840281E+03  0.41771696898E+03  0.00000000000E+00 0. -1.
         -2    1    5    5    0  503 -0.35270425542E+00  0.29888027794E+02 -0.25187787963E+02  0.39087635745E+02  0.00000000000E+00 0.  1.
         -1    1    6    6    0  502 -0.20726817725E+02 -0.27456794650E+02  0.28804892873E+02  0.44868679487E+02  0.00000000000E+00 0.  1.
<mgrwt>
<rscale>  0 0.14672099E+04</rscale>
<asrwt>0</asrwt>
<pdfrwt beam="1">  1        4 0.19695729E+00 0.14672099E+04</pdfrwt>
<pdfrwt beam="2">  1       -4 0.64673406E-01 0.14672099E+04</pdfrwt>
<totfact> 0.59495970E-01</totfact>
</mgrwt>
</event>
<event>
12    1  0.1663913E-007  0.1392817E+04  0.7818608E-02  0.8959035E-01
         -2   -1    0    0    0  501 -0.00000000000E+00  0.00000000000E+00  0.16548269541E+03  0.16548269541E+03  0.00000000000E+00 0.  1.
          2   -1    0    0  501    0  0.00000000000E+00 -0.00000000000E+00 -0.29307270109E+04  0.29307270109E+04  0.00000000000E+00 0. -1.
         23    2    1    2    0    0  0.11812761125E+03 -0.37926619806E+03 -0.97474339301E+03  0.10566390218E+04  0.92543820123E+02 0.  0.
        254    2    1    2    0    0 -0.11812761125E+03  0.37926619806E+03 -0.17905009225E+04  0.20395706846E+04  0.89227688653E+03 0.  0.
        -24    2    4    4    0    0  0.20248505067E+03  0.35974710218E+03 -0.30893474713E+03  0.52154010827E+03  0.78391538305E+02 0.  0.
         24    2    4    4    0    0 -0.32061266192E+03  0.19519095871E+02 -0.14815661754E+04  0.15180305763E+04  0.78771977219E+02 0.  0.
         13    1    3    3    0    0  0.56251179928E+02 -0.12489428685E+03 -0.44725833953E+03  0.46776361596E+03  0.00000000000E+00 0. -1.
        -13    1    3    3    0    0  0.61876431325E+02 -0.25437191120E+03 -0.52748505347E+03  0.58887540584E+03  0.00000000000E+00 0.  1.
          4    1    6    6  502    0 -0.28988857227E+03  0.33581781865E+02 -0.13929472090E+04  0.14231883388E+04  0.00000000000E+00 0. -1.
          3    1    5    5  503    0  0.18166169437E+03  0.28757511104E+03 -0.21984263566E+03  0.40500765442E+03  0.00000000000E+00 0. -1.
         -2    1    5    5    0  503  0.20823356305E+02  0.72171991148E+02 -0.89092111470E+02  0.11653245385E+03  0.00000000000E+00 0.  1.
         -3    1    6    6    0  502 -0.30724089657E+02 -0.14062685994E+02 -0.88618966339E+02  0.94842237519E+02  0.00000000000E+00 0.  1.
<mgrwt>
<rscale>  0 0.13928167E+04</rscale>
<asrwt>0</asrwt>
<pdfrwt beam="1">  1        2 0.45088104E+00 0.13928167E+04</pdfrwt>
<pdfrwt beam="2">  1       -2 0.25458879E-01 0.13928167E+04</pdfrwt>
<totfact> 0.26212030E+01</totfact>
</mgrwt>
</event>
<event>
12    1  0.1663913E-007  0.2025299E+04  0.7818608E-02  0.8594883E-01
         -1   -1    0    0    0  501 -0.00000000000E+00  0.00000000000E+00  0.55634000331E+03  0.55634000331E+03  0.00000000000E+00 0.  1.
          1   -1    0    0  501    0  0.00000000000E+00 -0.00000000000E+00 -0.18432230886E+04  0.18432230886E+04  0.00000000000E+00 0. -1.
         23    2    1    2    0    0 -0.41152617899E+03 -0.20304284929E+03 -0.12925377284E+04  0.13746303354E+04  0.91512759159E+02 0.  0.
        254    2    1    2    0    0  0.41152617899E+03  0.20304284929E+03  0.56546430867E+01  0.10249327565E+04  0.91644693559E+03 0.  0.
        -24    2    4    4    0    0  0.57593955098E+03 -0.18989116445E+02 -0.25604514353E+03  0.63576150055E+03  0.81034666219E+02 0.  0.
         24    2    4    4    0    0 -0.16441337200E+03  0.22203196574E+03  0.26169978661E+03  0.38917125596E+03  0.81471083552E+02 0.  0.
         13    1    3    3    0    0 -0.24646020483E+02 -0.40257413155E+02 -0.10579092857E+03  0.11584388722E+03  0.00000000000E+00 0.  1.
        -13    1    3    3    0    0 -0.38688015850E+03 -0.16278543614E+03 -0.11867467999E+04  0.12587864482E+04  0.00000000000E+00 0. -1.
          2    1    6    6  502    0 -0.22302646828E+02 -0.11369782354E+01  0.30572025361E+02  0.37859602609E+02  0.00000000000E+00 0. -1.
          1    1    5    5  503    0  0.32460674411E+03 -0.47121997927E+02 -0.12594692345E+03  0.35135829084E+03  0.00000000000E+00 0. -1.
         -2    1    5    5    0  503  0.25133280687E+03  0.28132881482E+02 -0.13009822007E+03  0.28440320972E+03  0.00000000000E+00 0.  1.
         -1    1    6    6    0  502 -0.14211072517E+03  0.22316894397E+03  0.23112776125E+03  0.35131165336E+03  0.00000000000E+00 0.  1.
<mgrwt>
<rscale>  0 0.20252987E+04</rscale>
<asrwt>0</asrwt>
<pdfrwt beam="1">  1        1 0.28357278E+00 0.20252987E+04</pdfrwt>
<pdfrwt beam="2">  1       -1 0.85590770E-01 0.20252987E+04</pdfrwt>
<totfact> 0.47525381E+00</totfact>
</mgrwt>
</event>
<event>
12    1  0.1663913E-007  0.2463807E+04  0.7818608E-02  0.8415994E-01
          2   -1    0    0  501    0  0.00000000000E+00  0.00000000000E+00  0.32265086135E+04  0.32265086135E+04  0.00000000000E+00 0. -1.
         -2   -1    0    0    0  501 -0.00000000000E+00 -0.00000000000E+00 -0.47034946406E+03  0.47034946406E+03  0.00000000000E+00 0.  1.
         23    2    1    2    0    0  0.65950803486E+03 -0.80712349196E+03  0.83104813850E+03  0.13362694265E+04  0.92605573592E+02 0.  0.
        254    2    1    2    0    0 -0.65950803486E+03  0.80712349196E+03  0.19251110109E+04  0.23605886511E+04  0.88313486849E+03 0.  0.
        -24    2    4    4    0    0 -0.75639054605E+03  0.90344594783E+03  0.15160263351E+04  0.19217275130E+04  0.79746766677E+02 0.  0.
         24    2    4    4    0    0  0.96882511188E+02 -0.96322455865E+02  0.40908467582E+03  0.43886113806E+03  0.81145486825E+02 0.  0.
         13    1    3    3    0    0  0.33254180059E+02 -0.29633864917E+02  0.15506227862E+02  0.47164070476E+02  0.00000000000E+00 0. -1.
        -13    1    3    3    0    0  0.62625385481E+03 -0.77748962704E+03  0.81554191063E+03  0.12891053560E+04  0.00000000000E+00 0.  1.
          4    1    6    6  502    0 -0.86158360196E+01 -0.86488531845E+01  0.71141789632E+01  0.14129643805E+02  0.00000000000E+00 0. -1.
          1    1    5    5  503    0 -0.18303178825E+03  0.17093817712E+03  0.33994646709E+03  0.42223701448E+03  0.00000000000E+00 0. -1.
         -2    1    5    5    0  503 -0.57335875780E+03  0.73250777071E+03  0.11760798680E+04  0.14994904985E+04  0.00000000000E+00 0.  1.
         -3    1    6    6    0  502  0.10549834721E+03 -0.87673602680E+02  0.40197049685E+03  0.42473149425E+03  0.00000000000E+00 0.  1.
<mgrwt>
<rscale>  0 0.24638073E+04</rscale>
<asrwt>0</asrwt>
<pdfrwt beam="1">  1        2 0.49638593E+00 0.24638073E+04</pdfrwt>
<pdfrwt beam="2">  1       -2 0.72361458E-01 0.24638073E+04</pdfrwt>
<totfact> 0.19277507E+00</totfact>
</mgrwt>
</event>
<event>
12    1  0.1663913E-007  0.2428516E+04  0.7818608E-02  0.8428904E-01
         -2   -1    0    0    0  501 -0.00000000000E+00  0.00000000000E+00  0.14764630406E+04  0.14764630406E+04  0.00000000000E+00 0.  1.
          2   -1    0    0  501    0  0.00000000000E+00 -0.00000000000E+00 -0.99861794830E+03  0.99861794830E+03  0.00000000000E+00 0. -1.
         23    2    1    2    0    0 -0.22701500850E+01  0.70849829818E+03 -0.57562285998E+03  0.91733739432E+03  0.90505391994E+02 0.  0.
        254    2    1    2    0    0  0.22701500850E+01 -0.70849829818E+03  0.10534679523E+04  0.15577435946E+04  0.90266017298E+03 0.  0.
        -24    2    4    4    0    0  0.17090396605E+03 -0.80463979196E+03  0.50058769302E+03  0.96624391044E+03  0.79911799106E+02 0.  0.
         24    2    4    4    0    0 -0.16863381597E+03  0.96141493777E+02  0.55288025929E+03  0.59149968417E+03  0.80713967499E+02 0.  0.
         13    1    3    3    0    0 -0.13683170938E+02  0.61238803849E+03 -0.53142788417E+03  0.81093892183E+03  0.00000000000E+00 0. -1.
        -13    1    3    3    0    0  0.11413020853E+02  0.96110259692E+02 -0.44194975805E+02  0.10639847250E+03  0.00000000000E+00 0.  1.
          2    1    6    6  502    0 -0.98972239631E+02  0.95789987787E+02  0.31900599282E+03  0.34747093322E+03  0.00000000000E+00 0. -1.
          3    1    5    5  503    0  0.15816603004E+03 -0.77470817127E+03  0.49602272904E+03  0.93339583855E+03  0.00000000000E+00 0. -1.
         -4    1    5    5    0  503  0.12737936006E+02 -0.29931620686E+02  0.45649639822E+01  0.32848071888E+02  0.00000000000E+00 0.  1.
         -1    1    6    6    0  502 -0.69661576335E+02  0.35150599006E+00  0.23387426647E+03  0.24402875095E+03  0.00000000000E+00 0.  1.
<mgrwt>
<rscale>  0 0.24285160E+04</rscale>
<asrwt>0</asrwt>
<pdfrwt beam="1">  1        2 0.15363353E+00 0.24285160E+04</pdfrwt>
<pdfrwt beam="2">  1       -2 0.22714816E+00 0.24285160E+04</pdfrwt>
<totfact> 0.20169946E+00</totfact>
</mgrwt>
</event>
<event>
12    1  0.1663913E-007  0.1992295E+04  0.7818608E-02  0.8610232E-01
          1   -1    0    0  501    0  0.00000000000E+00  0.00000000000E+00  0.19361902353E+04  0.19361902353E+04  0.00000000000E+00 0. -1.
         -1   -1    0    0    0  501 -0.00000000000E+00 -0.00000000000E+00 -0.51250630902E+03  0.51250630902E+03  0.00000000000E+00 0.  1.
         23    2    1    2    0    0  0.45083719253E+02 -0.18294775500E+03 -0.36991106980E+03  0.42588208853E+03  0.95073292642E+02 0.  0.
        254    2    1    2    0    0 -0.45083719253E+02  0.18294775500E+03  0.17935949961E+04  0.20228144558E+04  0.91612929753E+03 0.  0.
        -24    2    4    4    0    0  0.25023589872E+03  0.41633150826E+03  0.64148027683E+03  0.80807836424E+03  0.74456479998E+02 0.  0.
         24    2    4    4    0    0 -0.29531961798E+03 -0.23338375326E+03  0.11521147193E+04  0.12147360916E+04  0.80831879528E+02 0.  0.
         13    1    3    3    0    0  0.47701832715E+02 -0.30767672214E+02 -0.75529877847E+02  0.94482151465E+02  0.00000000000E+00 0. -1.
        -13    1    3    3    0    0 -0.26181134625E+01 -0.15218008278E+03 -0.29438119195E+03  0.33139993707E+03  0.00000000000E+00 0.  1.
          4    1    6    6  502    0 -0.13528170886E+03 -0.14541342986E+03  0.51520239847E+03  0.55215914166E+03  0.00000000000E+00 0. -1.
          1    1    5    5  503    0  0.11157996692E+02  0.10019758088E+01  0.23710783405E+02  0.26224150995E+02  0.00000000000E+00 0. -1.
         -2    1    5    5    0  503  0.23907790203E+03  0.41532953245E+03  0.61776949342E+03  0.78185421324E+03  0.00000000000E+00 0.  1.
         -3    1    6    6    0  502 -0.16003790912E+03 -0.87970323404E+02  0.63691232081E+03  0.66257694991E+03  0.00000000000E+00 0.  1.
<mgrwt>
<rscale>  0 0.19922949E+04</rscale>
<asrwt>0</asrwt>
<pdfrwt beam="1">  1        1 0.29787542E+00 0.19922949E+04</pdfrwt>
<pdfrwt beam="2">  1       -1 0.78847125E-01 0.19922949E+04</pdfrwt>
<totfact> 0.49167160E+00</totfact>
</mgrwt>
</event>
<event>
12    1  0.2739672E-007  0.1324396E+04  0.7818608E-02  0.9010440E-01
         -2   -1    0    0    0  501 -0.00000000000E+00  0.00000000000E+00  0.17490251020E+03  0.17490251020E+03  0.00000000000E+00 0. -1.
          2   -1    0    0  501    0  0.00000000000E+00 -0.00000000000E+00 -0.25071464941E+04  0.25071464941E+04  0.00000000000E+00 0.  1.
         23    2    1    2    0    0 -0.16783086997E+03  0.25479402058E+03 -0.28295320966E+03  0.42639845864E+03  0.93090992217E+02 0.  0.
        254    2    1    2    0    0  0.16783086997E+03 -0.25479402058E+03 -0.20492907742E+04  0.22556505456E+04  0.89178445429E+03 0.  0.
        -24    2    4    4    0    0  0.28829542118E+02  0.28599270444E+03 -0.32347236339E+03  0.44031178717E+03  0.81345747029E+02 0.  0.
         24    2    4    4    0    0  0.13900132785E+03 -0.54078672502E+03 -0.17258184108E+04  0.18153387584E+04  0.72346179702E+02 0.  0.
         13    1    3    3    0    0 -0.59926996034E+02  0.95399765010E+02 -0.16776091363E+03  0.20207940063E+03  0.00000000000E+00 0. -1.
        -13    1    3    3    0    0 -0.10790387394E+03  0.15939425557E+03 -0.11519229603E+03  0.22431905801E+03  0.00000000000E+00 0.  1.
          2    1    6    6  502    0  0.26978989785E+02 -0.14273056811E+03 -0.35694391498E+03  0.38536844630E+03  0.00000000000E+00 0. -1.
          3    1    5    5  503    0 -0.44708817796E+01  0.40567660851E+01 -0.35207528223E+02  0.35721368654E+02  0.00000000000E+00 0. -1.
         -4    1    5    5    0  503  0.33300423898E+02  0.28193593835E+03 -0.28826483516E+03  0.40459041852E+03  0.00000000000E+00 0.  1.
         -1    1    6    6    0  502  0.11202233807E+03 -0.39805615692E+03 -0.13688744958E+04  0.14299703121E+04  0.00000000000E+00 0.  1.
<mgrwt>
<rscale>  0 0.13243960E+04</rscale>
<asrwt>0</asrwt>
<pdfrwt beam="1">  1        2 0.38571485E+00 0.13243960E+04</pdfrwt>
<pdfrwt beam="2">  1       -2 0.26908078E-01 0.13243960E+04</pdfrwt>
<totfact> 0.42514403E+01</totfact>
</mgrwt>
</event>
<event>
12    1  0.1663913E-007  0.1573665E+04  0.7818608E-02  0.8836892E-01
         -1   -1    0    0    0  501 -0.00000000000E+00  0.00000000000E+00  0.66143804914E+03  0.66143804914E+03  0.00000000000E+00 0.  1.
          1   -1    0    0  501    0  0.00000000000E+00 -0.00000000000E+00 -0.93599873310E+03  0.93599873310E+03  0.00000000000E+00 0. -1.
         23    2    1    2    0    0 -0.25646593369E+03 -0.20809339568E+03 -0.49575087063E+03  0.60327575891E+03  0.95368124057E+02 0.  0.
        254    2    1    2    0    0  0.25646593369E+03  0.20809339568E+03  0.22119018666E+03  0.99416102333E+03  0.91123729356E+03 0.  0.
        -24    2    4    4    0    0 -0.21305859921E+03  0.23819135770E+03 -0.17654726601E+03  0.37325040223E+03  0.77574712707E+02 0.  0.
         24    2    4    4    0    0  0.46952453290E+03 -0.30097962018E+02  0.39773745267E+03  0.62091062110E+03  0.77302935468E+02 0.  0.
         13    1    3    3    0    0 -0.51153596110E+02 -0.57621442684E+02 -0.19252158613E+03  0.20736798735E+03  0.00000000000E+00 0.  1.
        -13    1    3    3    0    0 -0.20531233758E+03 -0.15047195300E+03 -0.30322928450E+03  0.39590777156E+03  0.00000000000E+00 0. -1.
          4    1    6    6  502    0  0.11204335137E+03 -0.21810731559E+02  0.59579679927E+02  0.12876008254E+03  0.00000000000E+00 0. -1.
          3    1    5    5  503    0 -0.46232420602E+02  0.43578504094E+02 -0.28217727464E+01  0.63596266677E+02  0.00000000000E+00 0. -1.
         -4    1    5    5    0  503 -0.16682617860E+03  0.19461285361E+03 -0.17372549326E+03  0.30965413556E+03  0.00000000000E+00 0.  1.
         -3    1    6    6    0  502  0.35748118153E+03 -0.82872304592E+01  0.33815777274E+03  0.49215053856E+03  0.00000000000E+00 0.  1.
<mgrwt>
<rscale>  0 0.15736647E+04</rscale>
<asrwt>0</asrwt>
<pdfrwt beam="1">  1        1 0.14399981E+00 0.15736647E+04</pdfrwt>
<pdfrwt beam="2">  1       -1 0.10175970E+00 0.15736647E+04</pdfrwt>
<totfact> 0.14980303E+01</totfact>
</mgrwt>
</event>
<event>
12    1  0.1663913E-007  0.2093305E+04  0.7818608E-02  0.8564198E-01
          2   -1    0    0  501    0  0.00000000000E+00  0.00000000000E+00  0.94962798874E+03  0.94962798874E+03  0.00000000000E+00 0.  1.
         -2   -1    0    0    0  501 -0.00000000000E+00 -0.00000000000E+00 -0.11535900256E+04  0.11535900256E+04  0.00000000000E+00 0. -1.
         23    2    1    2    0    0 -0.34706162170E+03 -0.24813790851E+03 -0.82188972568E+03  0.93045700744E+03  0.90682581685E+02 0.  0.
        254    2    1    2    0    0  0.34706162170E+03  0.24813790851E+03  0.61792768885E+03  0.11727610069E+04  0.90083825391E+03 0.  0.
        -24    2    4    4    0    0 -0.43089314521E+02  0.10513089452E+03 -0.20460985391E+03  0.24780000829E+03  0.81427622965E+02 0.  0.
         24    2    4    4    0    0  0.39015093622E+03  0.14300701398E+03  0.82253754276E+03  0.92496099859E+03  0.79473772950E+02 0.  0.
         11    1    3    3    0    0 -0.16644446939E+03 -0.16453952481E+03 -0.49892042605E+03  0.55108856652E+03  0.00000000000E+00 0.  1.
        -11    1    3    3    0    0 -0.18061715231E+03 -0.83598383696E+02 -0.32296929963E+03  0.37936844092E+03  0.00000000000E+00 0. -1.
          2    1    6    6  502    0  0.25157129549E+03  0.12882279086E+03  0.51851164050E+03  0.59054021836E+03  0.00000000000E+00 0. -1.
          1    1    5    5  503    0 -0.71369964204E+01  0.91380348546E+02 -0.18033720151E+03  0.20229387303E+03  0.00000000000E+00 0. -1.
         -4    1    5    5    0  503 -0.35952318100E+02  0.13750545976E+02 -0.24272652403E+02  0.45506135258E+02  0.00000000000E+00 0.  1.
         -1    1    6    6    0  502  0.13857964072E+03  0.14184223122E+02  0.30402590226E+03  0.33442078024E+03  0.00000000000E+00 0.  1.
<mgrwt>
<rscale>  0 0.20933049E+04</rscale>
<asrwt>0</asrwt>
<pdfrwt beam="1">  1        2 0.14609661E+00 0.20933049E+04</pdfrwt>
<pdfrwt beam="2">  1       -2 0.17747539E+00 0.20933049E+04</pdfrwt>
<totfact> 0.47276203E+00</totfact>
</mgrwt>
</event>
<event>
12    1  0.1663913E-007  0.2871261E+04  0.7818608E-02  0.8281480E-01
         -2   -1    0    0    0  501 -0.00000000000E+00  0.00000000000E+00  0.35497162517E+04  0.35497162517E+04  0.00000000000E+00 0.  1.
          2   -1    0    0  501    0  0.00000000000E+00 -0.00000000000E+00 -0.58061956076E+03  0.58061956076E+03  0.00000000000E+00 0. -1.
         23    2    1    2    0    0  0.73752648870E+03  0.24282522059E+03 -0.14205177850E+03  0.79870720635E+03  0.12184040549E+03 0.  0.
        254    2    1    2    0    0 -0.73752648870E+03 -0.24282522059E+03  0.31111484694E+04  0.33316286061E+04  0.90420957798E+03 0.  0.
        -24    2    4    4    0    0  0.18521740461E+03 -0.87625580163E+02  0.33052502036E+03  0.39668857026E+03  0.78302639957E+02 0.  0.
         24    2    4    4    0    0 -0.92274389331E+03 -0.15519964042E+03  0.27806234490E+04  0.29349400358E+04  0.80392956449E+02 0.  0.
         11    1    3    3    0    0  0.72123474151E+03  0.21640594547E+03 -0.14717276613E+03  0.76724892225E+03  0.00000000000E+00 0. -1.
        -11    1    3    3    0    0  0.16291747189E+02  0.26419275120E+02  0.51209876345E+01  0.31458284103E+02  0.00000000000E+00 0.  1.
          4    1    6    6  502    0 -0.10186392721E+03  0.80874250623E+01  0.29966922293E+03  0.31661223805E+03  0.00000000000E+00 0. -1.
          1    1    5    5  503    0  0.24353442770E+02 -0.47535502632E+02  0.87088353665E+02  0.10216210417E+03  0.00000000000E+00 0. -1.
         -2    1    5    5    0  503  0.16086396184E+03 -0.40090077532E+02  0.24343666669E+03  0.29452646609E+03  0.00000000000E+00 0.  1.
         -3    1    6    6    0  502 -0.82087996611E+03 -0.16328706548E+03  0.24809542261E+04  0.26183277978E+04  0.00000000000E+00 0.  1.
<mgrwt>
<rscale>  0 0.28712608E+04</rscale>
<asrwt>0</asrwt>
<pdfrwt beam="1">  1        2 0.89326088E-01 0.28712608E+04</pdfrwt>
<pdfrwt beam="2">  1       -2 0.54611018E+00 0.28712608E+04</pdfrwt>
<totfact> 0.39600381E-02</totfact>
</mgrwt>
</event>
<event>
12    1  0.1663913E-007  0.2375077E+04  0.7818608E-02  0.8448894E-01
          2   -1    0    0  501    0  0.00000000000E+00  0.00000000000E+00  0.12467691844E+04  0.12467691844E+04  0.00000000000E+00 0. -1.
         -2   -1    0    0    0  501 -0.00000000000E+00 -0.00000000000E+00 -0.11311218204E+04  0.11311218204E+04  0.00000000000E+00 0.  1.
         23    2    1    2    0    0  0.23379989365E+02 -0.10119548226E+04 -0.22900606016E+02  0.10164478431E+04  0.89680505910E+02 0.  0.
        254    2    1    2    0    0 -0.23379989365E+02  0.10119548226E+04  0.13854797003E+03  0.13614431617E+04  0.89985151864E+03 0.  0.
        -24    2    4    4    0    0 -0.33384472692E+03  0.69835391683E+03  0.36441802638E+03  0.85913552750E+03  0.78503896759E+02 0.  0.
         24    2    4    4    0    0  0.31046473755E+03  0.31360090579E+03 -0.22587005635E+03  0.50230763421E+03  0.81004911247E+02 0.  0.
         11    1    3    3    0    0  0.86488566384E+01 -0.67354022284E+03  0.26568854114E+02  0.67411952836E+03  0.00000000000E+00 0. -1.
        -11    1    3    3    0    0  0.14731132727E+02 -0.33841459979E+03 -0.49469460130E+02  0.34232831479E+03  0.00000000000E+00 0.  1.
          4    1    6    6  502    0  0.13325327704E+03  0.13760205365E+03 -0.14342251406E+03  0.23929224507E+03  0.00000000000E+00 0. -1.
          1    1    5    5  503    0 -0.39129579106E+02  0.98716453194E+02  0.80090801074E+02  0.13300600930E+03  0.00000000000E+00 0. -1.
         -2    1    5    5    0  503 -0.29471514781E+03  0.59963746364E+03  0.28432722531E+03  0.72612951820E+03  0.00000000000E+00 0.  1.
         -1    1    6    6    0  502  0.17721146051E+03  0.17599885215E+03 -0.82447542292E+02  0.26301538914E+03  0.00000000000E+00 0.  1.
<mgrwt>
<rscale>  0 0.23750771E+04</rscale>
<asrwt>0</asrwt>
<pdfrwt beam="1">  1        2 0.19181064E+00 0.23750771E+04</pdfrwt>
<pdfrwt beam="2">  1       -2 0.17401874E+00 0.23750771E+04</pdfrwt>
<totfact> 0.31957996E+00</totfact>
</mgrwt>
</event>
<event>
12    1  0.1663913E-007  0.1826922E+04  0.7818608E-02  0.8692112E-01
         -1   -1    0    0    0  501 -0.00000000000E+00  0.00000000000E+00  0.31816363632E+03  0.31816363632E+03  0.00000000000E+00 0.  1.
          1   -1    0    0  501    0  0.00000000000E+00 -0.00000000000E+00 -0.26225848162E+04  0.26225848162E+04  0.00000000000E+00 0. -1.
         23    2    1    2    0    0  0.15837109092E+03 -0.20452304941E+03  0.15373070317E+03  0.31323442756E+03  0.87014925938E+02 0.  0.
        254    2    1    2    0    0 -0.15837109092E+03  0.20452304941E+03 -0.24581518830E+04  0.26275140249E+04  0.89129579323E+03 0.  0.
        -24    2    4    4    0    0 -0.24126869875E+03 -0.19632253640E+03 -0.19167043272E+04  0.19433966160E+04  0.79257843617E+02 0.  0.
         24    2    4    4    0    0  0.82897607834E+02  0.40084558581E+03 -0.54144755581E+03  0.68411740894E+03  0.85451603173E+02 0.  0.
         13    1    3    3    0    0  0.52558159225E+02 -0.24445434341E+02  0.79077282381E+01  0.58501893364E+02  0.00000000000E+00 0. -1.
        -13    1    3    3    0    0  0.10581293169E+03 -0.18007761507E+03  0.14582297493E+03  0.25473253420E+03  0.00000000000E+00 0.  1.
          4    1    6    6  502    0  0.78212398538E+02  0.22249494867E+03 -0.26140046451E+03  0.35206730083E+03  0.00000000000E+00 0. -1.
          3    1    5    5  503    0 -0.22936034224E+03 -0.15614393328E+03 -0.17243034288E+04  0.17464848723E+04  0.00000000000E+00 0. -1.
         -4    1    5    5    0  503 -0.11908356506E+02 -0.40178603122E+02 -0.19240089840E+03  0.19691174370E+03  0.00000000000E+00 0.  1.
         -3    1    6    6    0  502  0.46852092955E+01  0.17835063714E+03 -0.28004709130E+03  0.33205010812E+03  0.00000000000E+00 0.  1.
<mgrwt>
<rscale>  0 0.18269221E+04</rscale>
<asrwt>0</asrwt>
<pdfrwt beam="1">  1        1 0.40347459E+00 0.18269221E+04</pdfrwt>
<pdfrwt beam="2">  1       -1 0.48948251E-01 0.18269221E+04</pdfrwt>
<totfact> 0.43837279E+00</totfact>
</mgrwt>
</event>
<event>
12    1  0.1663913E-007  0.1684629E+04  0.7818608E-02  0.8770180E-01
         -2   -1    0    0    0  501 -0.00000000000E+00  0.00000000000E+00  0.26151930506E+03  0.26151930506E+03  0.00000000000E+00 0.  1.
          2   -1    0    0  501    0  0.00000000000E+00 -0.00000000000E+00 -0.27129683133E+04  0.27129683133E+04  0.00000000000E+00 0. -1.
         23    2    1    2    0    0  0.18339091498E+03  0.39323958725E+02  0.11677855906E+03  0.23970342427E+03  0.92961811099E+02 0.  0.
        254    2    1    2    0    0 -0.18339091498E+03 -0.39323958725E+02 -0.25682275673E+04  0.27347841941E+04  0.92090887137E+03 0.  0.
        -24    2    4    4    0    0  0.65164584559E+02  0.15712309829E+03 -0.23102047432E+04  0.23178800992E+04  0.81167158147E+02 0.  0.
         24    2    4    4    0    0 -0.24855549954E+03 -0.19644705701E+03 -0.25802282406E+03  0.41690409488E+03  0.82836972577E+02 0.  0.
         11    1    3    3    0    0  0.18616737455E+03  0.53478501657E+02  0.11475572377E+03  0.22513799685E+03  0.00000000000E+00 0.  1.
        -11    1    3    3    0    0 -0.27764595684E+01 -0.14154542932E+02  0.20228352887E+01  0.14565427421E+02  0.00000000000E+00 0. -1.
          2    1    6    6  502    0 -0.16279124144E+03 -0.17107615132E+03 -0.16657220890E+03  0.28898847489E+03  0.00000000000E+00 0. -1.
          1    1    5    5  503    0  0.77505742190E+02  0.84437838257E+02 -0.14477991630E+04  0.14523289245E+04  0.00000000000E+00 0. -1.
         -2    1    5    5    0  503 -0.12341157631E+02  0.72685260033E+02 -0.86240558018E+03  0.86555117464E+03  0.00000000000E+00 0.  1.
         -1    1    6    6    0  502 -0.85764258106E+02 -0.25370905694E+02 -0.91450615162E+02  0.12791561999E+03  0.00000000000E+00 0.  1.
<mgrwt>
<rscale>  0 0.16846288E+04</rscale>
<asrwt>0</asrwt>
<pdfrwt beam="1">  1        2 0.41737972E+00 0.16846288E+04</pdfrwt>
<pdfrwt beam="2">  1       -2 0.40233741E-01 0.16846288E+04</pdfrwt>
<totfact> 0.14573282E+01</totfact>
</mgrwt>
</event>
<event>
12    1  0.1663913E-007  0.1284321E+04  0.7818608E-02  0.9042092E-01
         -1   -1    0    0    0  501 -0.00000000000E+00  0.00000000000E+00  0.37863221662E+03  0.37863221662E+03  0.00000000000E+00 0.  1.
          1   -1    0    0  501    0  0.00000000000E+00 -0.00000000000E+00 -0.10891048168E+04  0.10891048168E+04  0.00000000000E+00 0. -1.
         23    2    1    2    0    0  0.28481049076E+02 -0.31652123923E+03 -0.11272653187E+03  0.34921300686E+03  0.90805220844E+02 0.  0.
        254    2    1    2    0    0 -0.28481049076E+02  0.31652123923E+03 -0.59774606830E+03  0.11185240266E+04  0.89039248131E+03 0.  0.
        -24    2    4    4    0    0  0.13200464722E+03 -0.28136828888E+03 -0.19484829235E+03  0.37557503106E+03  0.80606488852E+02 0.  0.
         24    2    4    4    0    0 -0.16048569630E+03  0.59788952810E+03 -0.40289777595E+03  0.74294899550E+03  0.80118946072E+02 0.  0.
         11    1    3    3    0    0  0.14197431209E+02 -0.33722817312E+02 -0.45126882909E+02  0.58096738476E+02  0.00000000000E+00 0. -1.
        -11    1    3    3    0    0  0.14283617866E+02 -0.28279842191E+03 -0.67599648963E+02  0.29111626838E+03  0.00000000000E+00 0.  1.
          2    1    6    6  502    0 -0.24526897135E+01  0.12427378252E+03 -0.67183660916E+02  0.14129272098E+03  0.00000000000E+00 0. -1.
          3    1    5    5  503    0  0.28959461682E+02 -0.14659864849E+03 -0.11219090114E+03  0.18685987386E+03  0.00000000000E+00 0. -1.
         -4    1    5    5    0  503  0.10304518554E+03 -0.13476964038E+03 -0.82657391213E+02  0.18871515719E+03  0.00000000000E+00 0.  1.
         -1    1    6    6    0  502 -0.15803300659E+03  0.47361574558E+03 -0.33571411503E+03  0.60165627451E+03  0.00000000000E+00 0.  1.
<mgrwt>
<rscale>  0 0.12843211E+04</rscale>
<asrwt>0</asrwt>
<pdfrwt beam="1">  1        1 0.16755458E+00 0.12843211E+04</pdfrwt>
<pdfrwt beam="2">  1       -1 0.58251111E-01 0.12843211E+04</pdfrwt>
<totfact> 0.37951832E+01</totfact>
</mgrwt>
</event>
<event>
12    1  0.1663913E-007  0.1710278E+04  0.7818608E-02  0.8755524E-01
          2   -1    0    0  501    0  0.00000000000E+00  0.00000000000E+00  0.25770719997E+04  0.25770719997E+04  0.00000000000E+00 0. -1.
         -2   -1    0    0    0  501 -0.00000000000E+00 -0.00000000000E+00 -0.28375725890E+03  0.28375725890E+03  0.00000000000E+00 0.  1.
         23    2    1    2    0    0 -0.10452384129E+02  0.50282881641E+03  0.14221801129E+04  0.15115787600E+04  0.96581587798E+02 0.  0.
        254    2    1    2    0    0  0.10452384129E+02 -0.50282881641E+03  0.87113462783E+03  0.13492504986E+04  0.89925263255E+03 0.  0.
        -24    2    4    4    0    0  0.77134659450E+02 -0.75239993752E+03  0.65380598547E+03  0.10030287602E+04  0.80925926476E+02 0.  0.
         24    2    4    4    0    0 -0.66682275321E+02  0.24957112111E+03  0.21732864236E+03  0.34622173832E+03  0.76847140227E+02 0.  0.
         11    1    3    3    0    0 -0.10090655308E+02  0.28422729765E+03  0.94164492289E+03  0.98365753129E+03  0.00000000000E+00 0.  1.
        -11    1    3    3    0    0 -0.36172882168E+00  0.21860151875E+03  0.48053519005E+03  0.52792122871E+03  0.00000000000E+00 0. -1.
          4    1    6    6  502    0 -0.31889973221E+02  0.59857122364E+02  0.98788174746E+02  0.11982883192E+03  0.00000000000E+00 0. -1.
          3    1    5    5  503    0  0.44816775075E+02 -0.54073519577E+03  0.42127466578E+03  0.68693190296E+03  0.00000000000E+00 0. -1.
         -2    1    5    5    0  503  0.32317884376E+02 -0.21166474175E+03  0.23253131969E+03  0.31609685729E+03  0.00000000000E+00 0.  1.
         -3    1    6    6    0  502 -0.34792302100E+02  0.18971399875E+03  0.11854046761E+03  0.22639290640E+03  0.00000000000E+00 0.  1.
<mgrwt>
<rscale>  0 0.17102782E+04</rscale>
<asrwt>0</asrwt>
<pdfrwt beam="1">  1        2 0.39647260E+00 0.17102782E+04</pdfrwt>
<pdfrwt beam="2">  1       -2 0.43654965E-01 0.17102782E+04</pdfrwt>
<totfact> 0.14879409E+01</totfact>
</mgrwt>
</event>
<event>
12    1  0.1663913E-007  0.2142018E+04  0.7818608E-02  0.8542957E-01
          1   -1    0    0  501    0  0.00000000000E+00  0.00000000000E+00  0.18544382081E+04  0.18544382081E+04  0.00000000000E+00 0. -1.
         -1   -1    0    0    0  501 -0.00000000000E+00 -0.00000000000E+00 -0.61854881031E+03  0.61854881031E+03  0.00000000000E+00 0.  1.
         23    2    1    2    0    0 -0.70198955032E+03 -0.55363797535E+03  0.55974869626E+03  0.10585038497E+04  0.88359834533E+02 0.  0.
        254    2    1    2    0    0  0.70198955032E+03  0.55363797535E+03  0.67614070153E+03  0.14144831687E+04  0.86272362306E+03 0.  0.
        -24    2    4    4    0    0  0.61512694618E+03  0.70644175385E+03  0.29126641149E+03  0.98416081152E+03  0.79342731008E+02 0.  0.
         24    2    4    4    0    0  0.86862604139E+02 -0.15280377850E+03  0.38487429003E+03  0.43032235719E+03  0.78453841492E+02 0.  0.
         13    1    3    3    0    0 -0.65447018125E+03 -0.52320276250E+03  0.54703304958E+03  0.10006585362E+04  0.00000000000E+00 0. -1.
        -13    1    3    3    0    0 -0.47519369075E+02 -0.30435212846E+02  0.12715646684E+02  0.57845313456E+02  0.00000000000E+00 0.  1.
          4    1    6    6  502    0  0.51183393232E+02 -0.12021391755E+03  0.34053434325E+03  0.36473931053E+03  0.00000000000E+00 0. -1.
          3    1    5    5  503    0  0.16728626058E+03  0.14587525338E+03  0.84151027247E+02  0.23737244556E+03  0.00000000000E+00 0. -1.
         -4    1    5    5    0  503  0.44784068560E+03  0.56056650048E+03  0.20711538425E+03  0.74678836596E+03  0.00000000000E+00 0.  1.
         -3    1    6    6    0  502  0.35679210907E+02 -0.32589860954E+02  0.44339946785E+02  0.65583046657E+02  0.00000000000E+00 0.  1.
<mgrwt>
<rscale>  0 0.21420183E+04</rscale>
<asrwt>0</asrwt>
<pdfrwt beam="1">  1        1 0.28529818E+00 0.21420183E+04</pdfrwt>
<pdfrwt beam="2">  1       -1 0.95161356E-01 0.21420183E+04</pdfrwt>
<totfact> 0.36563943E+00</totfact>
</mgrwt>
</event>
<event>
12    1  0.1663913E-007  0.1499968E+04  0.7818608E-02  0.8884474E-01
          2   -1    0    0  501    0  0.00000000000E+00  0.00000000000E+00  0.17424648545E+04  0.17424648545E+04  0.00000000000E+00 0. -1.
         -2   -1    0    0    0  501 -0.00000000000E+00 -0.00000000000E+00 -0.32280481750E+03  0.32280481750E+03  0.00000000000E+00 0.  1.
         23    2    1    2    0    0  0.14000380741E+03 -0.40998302290E+03  0.79549543412E+03  0.91070279259E+03  0.94230810082E+02 0.  0.
        254    2    1    2    0    0 -0.14000380741E+03  0.40998302290E+03  0.62416460287E+03  0.11545668794E+04  0.86934232750E+03 0.  0.
        -24    2    4    4    0    0 -0.40744781411E+03 -0.84167123429E+00  0.89445588962E+02  0.42483145260E+03  0.80416541253E+02 0.  0.
         24    2    4    4    0    0  0.26744400670E+03  0.41082469413E+03  0.53471901391E+03  0.72973542680E+03  0.79285202038E+02 0.  0.
         13    1    3    3    0    0 -0.26708873061E+00 -0.71135475024E+01  0.60212069969E+02  0.60631404935E+02  0.00000000000E+00 0.  1.
        -13    1    3    3    0    0  0.14027089614E+03 -0.40286947540E+03  0.73528336416E+03  0.85007138766E+03  0.00000000000E+00 0. -1.
          4    1    6    6  502    0  0.12288101463E+03  0.17531239795E+03  0.29103919118E+03  0.36130041715E+03  0.00000000000E+00 0. -1.
          1    1    5    5  503    0 -0.58069553790E+02 -0.12798953625E+02 -0.12343534154E+02  0.60730956905E+02  0.00000000000E+00 0. -1.
         -2    1    5    5    0  503 -0.34937826032E+03  0.11957282390E+02  0.10178912312E+03  0.36410049570E+03  0.00000000000E+00 0.  1.
         -3    1    6    6    0  502  0.14456299207E+03  0.23551229618E+03  0.24367982273E+03  0.36843500965E+03  0.00000000000E+00 0.  1.
<mgrwt>
<rscale>  0 0.14999681E+04</rscale>
<asrwt>0</asrwt>
<pdfrwt beam="1">  1        2 0.26807151E+00 0.14999681E+04</pdfrwt>
<pdfrwt beam="2">  1       -2 0.49662281E-01 0.14999681E+04</pdfrwt>
<totfact> 0.34429105E+01</totfact>
</mgrwt>
</event>
<event>
12    1  0.1663913E-007  0.1483701E+04  0.7818608E-02  0.8895364E-01
          2   -1    0    0  501    0  0.00000000000E+00  0.00000000000E+00  0.72504281004E+03  0.72504281004E+03  0.00000000000E+00 0. -1.
         -2   -1    0    0    0  501 -0.00000000000E+00 -0.00000000000E+00 -0.75904790704E+03  0.75904790704E+03  0.00000000000E+00 0.  1.
         23    2    1    2    0    0 -0.56180636981E+02 -0.30794058397E+03  0.32561593539E+03  0.46163300720E+03  0.95371005673E+02 0.  0.
        254    2    1    2    0    0  0.56180636981E+02  0.30794058397E+03 -0.35962103240E+03  0.10224577099E+04  0.90449367843E+03 0.  0.
        -24    2    4    4    0    0 -0.47035875294E+01  0.28226020213E+03 -0.65043480699E+03  0.71349126398E+03  0.79444321348E+02 0.  0.
         24    2    4    4    0    0  0.60884224511E+02  0.25680381844E+02  0.29081377459E+03  0.30896644590E+03  0.80754209777E+02 0.  0.
         11    1    3    3    0    0 -0.16385781509E+02 -0.10240357739E+03  0.48932470534E+02  0.11467071627E+03  0.00000000000E+00 0. -1.
        -11    1    3    3    0    0 -0.39794855472E+02 -0.20553700658E+03  0.27668346486E+03  0.34696229092E+03  0.00000000000E+00 0.  1.
          4    1    6    6  502    0  0.68510392322E+02  0.12923124343E+02  0.28432651179E+03  0.29274945996E+03  0.00000000000E+00 0. -1.
          3    1    5    5  503    0  0.95896093390E+01  0.25989276712E+03 -0.62401170365E+03  0.67603758572E+03  0.00000000000E+00 0. -1.
         -4    1    5    5    0  503 -0.14293196868E+02  0.22367435005E+02 -0.26423103335E+02  0.37453678261E+02  0.00000000000E+00 0.  1.
         -3    1    6    6    0  502 -0.76261678111E+01  0.12757257502E+02  0.64872627964E+01  0.16216985942E+02  0.00000000000E+00 0.  1.
<mgrwt>
<rscale>  0 0.14837011E+04</rscale>
<asrwt>0</asrwt>
<pdfrwt beam="1">  1        2 0.11154505E+00 0.14837011E+04</pdfrwt>
<pdfrwt beam="2">  1       -2 0.11677660E+00 0.14837011E+04</pdfrwt>
<totfact> 0.21521909E+01</totfact>
</mgrwt>
</event>
<event>
12    1  0.1663913E-007  0.1730180E+04  0.7818608E-02  0.8744337E-01
         -2   -1    0    0    0  501 -0.00000000000E+00  0.00000000000E+00  0.65939648406E+03  0.65939648406E+03  0.00000000000E+00 0.  1.
          2   -1    0    0  501    0  0.00000000000E+00 -0.00000000000E+00 -0.11349474183E+04  0.11349474183E+04  0.00000000000E+00 0. -1.
         23    2    1    2    0    0 -0.17403484353E+03 -0.42478768105E+03  0.26982574070E+03  0.54031672695E+03  0.91670793265E+02 0.  0.
        254    2    1    2    0    0  0.17403484353E+03  0.42478768105E+03 -0.74537667498E+03  0.12540271754E+04  0.89792264054E+03 0.  0.
        -24    2    4    4    0    0 -0.48359509697E+02  0.24652180437E+03  0.15573544880E+03  0.30547620730E+03  0.77139749819E+02 0.  0.
         24    2    4    4    0    0  0.22239435323E+03  0.17826587668E+03 -0.90111212377E+03  0.94855096815E+03  0.80671608505E+02 0.  0.
         11    1    3    3    0    0 -0.13349669109E+03 -0.24023036109E+03  0.12338644308E+03  0.30125770904E+03  0.00000000000E+00 0. -1.
        -11    1    3    3    0    0 -0.40538152446E+02 -0.18455731996E+03  0.14643929762E+03  0.23905901791E+03  0.00000000000E+00 0.  1.
          4    1    6    6  502    0  0.37377671529E+02  0.13655743716E+02 -0.62115409264E+02  0.73769192306E+02  0.00000000000E+00 0. -1.
          1    1    5    5  503    0 -0.20064044110E+02  0.41730649402E+02 -0.56133458957E+00  0.46306890006E+02  0.00000000000E+00 0. -1.
         -2    1    5    5    0  503 -0.28295465587E+02  0.20479115497E+03  0.15629678339E+03  0.25916931729E+03  0.00000000000E+00 0.  1.
         -3    1    6    6    0  502  0.18501668170E+03  0.16461013296E+03 -0.83899671451E+03  0.87478177584E+03  0.00000000000E+00 0.  1.
<mgrwt>
<rscale>  0 0.17301796E+04</rscale>
<asrwt>0</asrwt>
<pdfrwt beam="1">  1        2 0.17460730E+00 0.17301796E+04</pdfrwt>
<pdfrwt beam="2">  1       -2 0.10144561E+00 0.17301796E+04</pdfrwt>
<totfact> 0.15715979E+01</totfact>
</mgrwt>
</event>
<event>
12    1  0.1663913E-007  0.1255195E+04  0.7818608E-02  0.9065871E-01
          3   -1    0    0  501    0  0.00000000000E+00  0.00000000000E+00  0.87191760787E+03  0.87191760787E+03  0.00000000000E+00 0. -1.
         -3   -1    0    0    0  501 -0.00000000000E+00 -0.00000000000E+00 -0.45173815214E+03  0.45173815214E+03  0.00000000000E+00 0.  1.
         23    2    1    2    0    0  0.13769315815E+03 -0.25265982075E+03  0.15171670654E+03  0.33877113277E+03  0.94612528406E+02 0.  0.
        254    2    1    2    0    0 -0.13769315815E+03  0.25265982075E+03  0.26846274920E+03  0.98488462724E+03  0.90284499802E+03 0.  0.
        -24    2    4    4    0    0  0.68638684321E+02 -0.22124574608E+03  0.37777605016E+03  0.45048076684E+03  0.80976713150E+02 0.  0.
         24    2    4    4    0    0 -0.20633184247E+03  0.47390556683E+03 -0.10931330096E+03  0.53440386040E+03  0.80490824050E+02 0.  0.
         11    1    3    3    0    0  0.54070994241E+02 -0.16810957393E+03  0.53441960569E+02  0.18450079787E+03  0.00000000000E+00 0.  1.
        -11    1    3    3    0    0  0.83622163905E+02 -0.84550246819E+02  0.98274745971E+02  0.15427033490E+03  0.00000000000E+00 0. -1.
          2    1    6    6  502    0 -0.82351677911E+02  0.10795772657E+03 -0.14440531727E+02  0.13654742230E+03  0.00000000000E+00 0. -1.
          3    1    5    5  503    0  0.73800726666E+02 -0.10728388522E+03  0.18001157411E+03  0.22217233423E+03  0.00000000000E+00 0. -1.
         -4    1    5    5    0  503 -0.51620423447E+01 -0.11396186086E+03  0.19776447605E+03  0.22830843261E+03  0.00000000000E+00 0.  1.
         -1    1    6    6    0  502 -0.12398016456E+03  0.36594784026E+03 -0.94872769232E+02  0.39785643810E+03  0.00000000000E+00 0.  1.
<mgrwt>
<rscale>  0 0.12551947E+04</rscale>
<asrwt>0</asrwt>
<pdfrwt beam="1">  1        3 0.13414117E+00 0.12551947E+04</pdfrwt>
<pdfrwt beam="2">  1       -3 0.69498178E-01 0.12551947E+04</pdfrwt>
<totfact> 0.21972526E+00</totfact>
</mgrwt>
</event>
<event>
12    1  0.1663913E-007  0.1301534E+04  0.7818608E-02  0.9028350E-01
         -2   -1    0    0    0  501 -0.00000000000E+00  0.00000000000E+00  0.43974303037E+03  0.43974303037E+03  0.00000000000E+00 0.  1.
          2   -1    0    0  501    0  0.00000000000E+00 -0.00000000000E+00 -0.96305722986E+03  0.96305722986E+03  0.00000000000E+00 0. -1.
         23    2    1    2    0    0  0.19651225919E+03 -0.25195841304E+03 -0.51581318958E+02  0.33561283238E+03  0.88742497592E+02 0.  0.
        254    2    1    2    0    0 -0.19651225919E+03  0.25195841304E+03 -0.47173288054E+03  0.10671874279E+04  0.90236189286E+03 0.  0.
        -24    2    4    4    0    0  0.15996850229E+03  0.38478914558E+03 -0.52487922452E+03  0.67531299750E+03  0.83047191268E+02 0.  0.
         24    2    4    4    0    0 -0.35648076148E+03 -0.13283073254E+03  0.53146343986E+02  0.39187443036E+03  0.77578982152E+02 0.  0.
         11    1    3    3    0    0  0.14428276524E+03 -0.15585389172E+03 -0.72167260045E+02  0.22431242794E+03  0.00000000000E+00 0. -1.
        -11    1    3    3    0    0  0.52229493959E+02 -0.96104521319E+02  0.20585941087E+02  0.11130040444E+03  0.00000000000E+00 0.  1.
          2    1    6    6  502    0 -0.23059665493E+03 -0.11745833134E+03  0.57022668800E+02  0.26499596529E+03  0.00000000000E+00 0. -1.
          1    1    5    5  503    0  0.52245840197E+02  0.18296979915E+03 -0.18334613772E+03  0.26424114259E+03  0.00000000000E+00 0. -1.
         -2    1    5    5    0  503  0.10772266209E+03  0.20181934643E+03 -0.34153308680E+03  0.41107185491E+03  0.00000000000E+00 0.  1.
         -1    1    6    6    0  502 -0.12588410656E+03 -0.15372401200E+02 -0.38763248134E+01  0.12687846506E+03  0.00000000000E+00 0.  1.
<mgrwt>
<rscale>  0 0.13015340E+04</rscale>
<asrwt>0</asrwt>
<pdfrwt beam="1">  1        2 0.14816265E+00 0.13015340E+04</pdfrwt>
<pdfrwt beam="2">  1       -2 0.67652774E-01 0.13015340E+04</pdfrwt>
<totfact> 0.52250185E+01</totfact>
</mgrwt>
</event>
<event>
12    1  0.1663913E-007  0.1516420E+04  0.7818608E-02  0.8873606E-01
          2   -1    0    0  501    0  0.00000000000E+00  0.00000000000E+00  0.64085867842E+03  0.64085867842E+03  0.00000000000E+00 0. -1.
         -2   -1    0    0    0  501 -0.00000000000E+00 -0.00000000000E+00 -0.89705060876E+03  0.89705060876E+03  0.00000000000E+00 0.  1.
         23    2    1    2    0    0 -0.11979706176E+03  0.35688135710E+03  0.22963253580E+03  0.45015607285E+03  0.90519331494E+02 0.  0.
        254    2    1    2    0    0  0.11979706176E+03 -0.35688135710E+03 -0.48582446615E+03  0.10877532143E+04  0.89747757872E+03 0.  0.
        -24    2    4    4    0    0  0.30510968207E+03 -0.58682883384E+03 -0.35615921191E+03  0.75536877875E+03  0.79199806518E+02 0.  0.
         24    2    4    4    0    0 -0.18531262031E+03  0.22994747674E+03 -0.12966525423E+03  0.33238443558E+03  0.80310183383E+02 0.  0.
         11    1    3    3    0    0 -0.11018848439E+03  0.35969189870E+03  0.21793346974E+03  0.43475827918E+03  0.00000000000E+00 0. -1.
        -11    1    3    3    0    0 -0.96085773694E+01 -0.28105416009E+01  0.11699066067E+02  0.15397793673E+02  0.00000000000E+00 0.  1.
          2    1    6    6  502    0 -0.72352659592E+02  0.35364851763E+02 -0.25726256728E+02  0.84542417611E+02  0.00000000000E+00 0. -1.
          1    1    5    5  503    0  0.93799675514E+02 -0.20542120338E+03 -0.16279308663E+03  0.27838433681E+03  0.00000000000E+00 0. -1.
         -2    1    5    5    0  503  0.21131000656E+03 -0.38140763046E+03 -0.19336612528E+03  0.47698444194E+03  0.00000000000E+00 0.  1.
         -1    1    6    6    0  502 -0.11295996072E+03  0.19458262498E+03 -0.10393899750E+03  0.24784201797E+03  0.00000000000E+00 0.  1.
<mgrwt>
<rscale>  0 0.15164203E+04</rscale>
<asrwt>0</asrwt>
<pdfrwt beam="1">  1        2 0.98593643E-01 0.15164203E+04</pdfrwt>
<pdfrwt beam="2">  1       -2 0.13800779E+00 0.15164203E+04</pdfrwt>
<totfact> 0.16451921E+01</totfact>
</mgrwt>
</event>
<event>
12    1  0.1663913E-007  0.1297740E+04  0.7818608E-02  0.9031359E-01
          1   -1    0    0  501    0  0.00000000000E+00  0.00000000000E+00  0.10032500386E+04  0.10032500386E+04  0.00000000000E+00 0. -1.
         -1   -1    0    0    0  501 -0.00000000000E+00 -0.00000000000E+00 -0.41966858847E+03  0.41966858847E+03  0.00000000000E+00 0.  1.
         23    2    1    2    0    0  0.31661424507E+03  0.22788249337E+02  0.62987765191E+02  0.33723563715E+03  0.94850049609E+02 0.  0.
        254    2    1    2    0    0 -0.31661424507E+03 -0.22788249337E+02  0.52059368490E+03  0.10856829899E+04  0.89829053500E+03 0.  0.
        -24    2    4    4    0    0  0.30138306928E+03 -0.73343536899E+02  0.11573852147E+03  0.34066035146E+03  0.80268554542E+02 0.  0.
         24    2    4    4    0    0 -0.61799731435E+03  0.50555287562E+02  0.40485516343E+03  0.74502263842E+03  0.81697679042E+02 0.  0.
         11    1    3    3    0    0  0.97194214330E+02  0.36874563380E+02 -0.12642516506E+02  0.10472001694E+03  0.00000000000E+00 0. -1.
        -11    1    3    3    0    0  0.21942003074E+03 -0.14086314043E+02  0.75630281697E+02  0.23251562021E+03  0.00000000000E+00 0.  1.
          2    1    6    6  502    0 -0.25747797548E+03  0.61278600186E+02  0.17695475870E+03  0.31837550365E+03  0.00000000000E+00 0. -1.
          3    1    5    5  503    0  0.16846769353E+03 -0.53822321941E+02  0.25163881612E+02  0.17863769770E+03  0.00000000000E+00 0. -1.
         -4    1    5    5    0  503  0.13291537575E+03 -0.19521214959E+02  0.90574639857E+02  0.16202265376E+03  0.00000000000E+00 0.  1.
         -1    1    6    6    0  502 -0.36051933887E+03 -0.10723312623E+02  0.22790040473E+03  0.42664713477E+03  0.00000000000E+00 0.  1.
<mgrwt>
<rscale>  0 0.12977404E+04</rscale>
<asrwt>0</asrwt>
<pdfrwt beam="1">  1        1 0.15434616E+00 0.12977404E+04</pdfrwt>
<pdfrwt beam="2">  1       -1 0.64564398E-01 0.12977404E+04</pdfrwt>
<totfact> 0.35961005E+01</totfact>
</mgrwt>
</event>
<event>
12    1  0.1663913E-007  0.1861779E+04  0.7818608E-02  0.8674119E-01
         -2   -1    0    0    0  501 -0.00000000000E+00  0.00000000000E+00  0.42207853520E+03  0.42207853520E+03  0.00000000000E+00 0.  1.
          2   -1    0    0  501    0  0.00000000000E+00 -0.00000000000E+00 -0.20530659750E+04  0.20530659750E+04  0.00000000000E+00 0. -1.
         23    2    1    2    0    0  0.19306244786E+03 -0.67956818545E+03 -0.70665930172E+03  0.10030843079E+04  0.87890458357E+02 0.  0.
        254    2    1    2    0    0 -0.19306244786E+03  0.67956818545E+03 -0.92432813812E+03  0.14720602023E+04  0.90193830434E+03 0.  0.
        -24    2    4    4    0    0  0.15021534966E+02  0.73333589033E+03 -0.98901766141E+03  0.12339557684E+04  0.80521607525E+02 0.  0.
         24    2    4    4    0    0 -0.20808398282E+03 -0.53767704882E+02  0.64689523289E+02  0.23810443388E+03  0.79492622397E+02 0.  0.
         13    1    3    3    0    0  0.50053004596E+01 -0.66353299772E+02 -0.38438286790E+02  0.76846049441E+02  0.00000000000E+00 0. -1.
        -13    1    3    3    0    0  0.18805714740E+03 -0.61321488568E+03 -0.66822101493E+03  0.92623825850E+03  0.00000000000E+00 0.  1.
          4    1    6    6  502    0 -0.11705668613E+03  0.38966230660E+01  0.56503765676E+02  0.13003894407E+03  0.00000000000E+00 0. -1.
          3    1    5    5  503    0 -0.38218793012E+01  0.36132064726E+03 -0.55172777294E+03  0.65952312494E+03  0.00000000000E+00 0. -1.
         -4    1    5    5    0  503  0.18843414267E+02  0.37201524307E+03 -0.43728988847E+03  0.57443264348E+03  0.00000000000E+00 0.  1.
         -3    1    6    6    0  502 -0.91027296694E+02 -0.57664327948E+02  0.81857576125E+01  0.10806548981E+03  0.00000000000E+00 0.  1.
<mgrwt>
<rscale>  0 0.18617788E+04</rscale>
<asrwt>0</asrwt>
<pdfrwt beam="1">  1        2 0.31585630E+00 0.18617788E+04</pdfrwt>
<pdfrwt beam="2">  1       -2 0.64935161E-01 0.18617788E+04</pdfrwt>
<totfact> 0.12828096E+01</totfact>
</mgrwt>
</event>
<event>
12    1  0.1663913E-007  0.1991604E+04  0.7818608E-02  0.8610556E-01
          1   -1    0    0  501    0  0.00000000000E+00  0.00000000000E+00  0.33274444657E+04  0.33274444657E+04  0.00000000000E+00 0. -1.
         -1   -1    0    0    0  501 -0.00000000000E+00 -0.00000000000E+00 -0.29801310882E+03  0.29801310882E+03  0.00000000000E+00 0.  1.
         23    2    1    2    0    0  0.28972940859E+03  0.28508905679E+03  0.24279161143E+04  0.24634067947E+04  0.91528560190E+02 0.  0.
        254    2    1    2    0    0 -0.28972940859E+03 -0.28508905679E+03  0.60151524258E+03  0.11620507799E+04  0.90737121811E+03 0.  0.
        -24    2    4    4    0    0 -0.19733055649E+03 -0.38296066617E+03  0.79837813525E+03  0.91067581342E+03  0.79527164737E+02 0.  0.
         24    2    4    4    0    0 -0.92398852099E+02  0.97871609384E+02 -0.19686289267E+03  0.25137496646E+03  0.79485693418E+02 0.  0.
         11    1    3    3    0    0  0.23255742881E+03  0.17100356311E+03  0.17311960024E+04  0.17550967993E+04  0.00000000000E+00 0. -1.
        -11    1    3    3    0    0  0.57171979773E+02  0.11408549368E+03  0.69672011194E+03  0.70830999535E+03  0.00000000000E+00 0.  1.
          2    1    6    6  502    0 -0.10065358587E+03  0.84477098218E+02 -0.13845746967E+03  0.19088738926E+03  0.00000000000E+00 0. -1.
          1    1    5    5  503    0 -0.21964903031E+02 -0.15038977896E+02  0.85047843372E+02  0.89116572441E+02  0.00000000000E+00 0. -1.
         -2    1    5    5    0  503 -0.17536565346E+03 -0.36792168828E+03  0.71333029188E+03  0.82155924098E+03  0.00000000000E+00 0.  1.
         -1    1    6    6    0  502  0.82547337709E+01  0.13394511165E+02 -0.58405423004E+02  0.60487577198E+02  0.00000000000E+00 0.  1.
<mgrwt>
<rscale>  0 0.19916044E+04</rscale>
<asrwt>0</asrwt>
<pdfrwt beam="1">  1        1 0.51191451E+00 0.19916044E+04</pdfrwt>
<pdfrwt beam="2">  1       -1 0.45848173E-01 0.19916044E+04</pdfrwt>
<totfact> 0.14991165E+00</totfact>
</mgrwt>
</event>
<event>
12    1  0.1663913E-007  0.3190582E+04  0.7818608E-02  0.8191309E-01
          1   -1    0    0  501    0  0.00000000000E+00  0.00000000000E+00  0.16795488167E+04  0.16795488167E+04  0.00000000000E+00 0. -1.
         -1   -1    0    0    0  501 -0.00000000000E+00 -0.00000000000E+00 -0.15152602903E+04  0.15152602903E+04  0.00000000000E+00 0.  1.
         23    2    1    2    0    0  0.72608970836E+03  0.31474313899E+03 -0.11603337421E+04  0.14073743261E+04  0.89769663811E+02 0.  0.
        254    2    1    2    0    0 -0.72608970836E+03 -0.31474313899E+03  0.13246222685E+04  0.17874347809E+04  0.90223579713E+03 0.  0.
        -24    2    4    4    0    0  0.18562945311E+03 -0.10837498538E+03  0.11626872391E+03  0.25772834599E+03  0.81866066533E+02 0.  0.
         24    2    4    4    0    0 -0.91171916147E+03 -0.20636815361E+03  0.12083535446E+04  0.15297064349E+04  0.77870688075E+02 0.  0.
         13    1    3    3    0    0  0.47720988390E+03  0.22140818106E+03 -0.69752164580E+03  0.87366315150E+03  0.00000000000E+00 0.  1.
        -13    1    3    3    0    0  0.24887982446E+03  0.93334957931E+02 -0.46281209627E+03  0.53371117456E+03  0.00000000000E+00 0. -1.
          4    1    6    6  502    0 -0.71782731634E+03 -0.17061336718E+03  0.90104712348E+03  0.11645904413E+04  0.00000000000E+00 0. -1.
          1    1    5    5  503    0  0.18716332377E+03 -0.84143137776E+02  0.98391158230E+02  0.22757635514E+03  0.00000000000E+00 0. -1.
         -2    1    5    5    0  503 -0.15338706674E+01 -0.24231847602E+02  0.17877565683E+02  0.30151990849E+02  0.00000000000E+00 0.  1.
         -3    1    6    6    0  502 -0.19389184512E+03 -0.35754786437E+02  0.30730642114E+03  0.36511599367E+03  0.00000000000E+00 0.  1.
<mgrwt>
<rscale>  0 0.31905822E+04</rscale>
<asrwt>0</asrwt>
<pdfrwt beam="1">  1        1 0.25839213E+00 0.31905822E+04</pdfrwt>
<pdfrwt beam="2">  1       -1 0.23311697E+00 0.31905822E+04</pdfrwt>
<totfact> 0.37095426E-01</totfact>
</mgrwt>
</event>
<event>
12    1  0.1663913E-007  0.1453315E+04  0.7818608E-02  0.8916105E-01
         -1   -1    0    0    0  501 -0.00000000000E+00  0.00000000000E+00  0.12389462906E+04  0.12389462906E+04  0.00000000000E+00 0.  1.
          1   -1    0    0  501    0  0.00000000000E+00 -0.00000000000E+00 -0.42619383612E+03  0.42619383612E+03  0.00000000000E+00 0. -1.
         23    2    1    2    0    0  0.24328726958E+03  0.32743054359E+03  0.80667763003E+02  0.42771188076E+03  0.10015342499E+03 0.  0.
        254    2    1    2    0    0 -0.24328726958E+03 -0.32743054359E+03  0.73208469148E+03  0.12374282460E+04  0.91042913617E+03 0.  0.
        -24    2    4    4    0    0 -0.44831609281E+03 -0.39759273845E+02  0.74644926761E+03  0.87541305512E+03  0.81199686196E+02 0.  0.
         24    2    4    4    0    0  0.20502882323E+03 -0.28767126974E+03 -0.14364576128E+02  0.36201519084E+03  0.77827241762E+02 0.  0.
         13    1    3    3    0    0  0.16342885010E+01  0.41839214388E+02  0.26874863933E+02  0.49753884984E+02  0.00000000000E+00 0. -1.
        -13    1    3    3    0    0  0.24165298107E+03  0.28559132920E+03  0.53792899070E+02  0.37795799577E+03  0.00000000000E+00 0.  1.
          4    1    6    6  502    0  0.96746506109E+02 -0.17676431444E+03 -0.38479561279E+02  0.20514917972E+03  0.00000000000E+00 0. -1.
          3    1    5    5  503    0 -0.37943959253E+03 -0.26128885675E+02  0.67778575896E+03  0.77720695963E+03  0.00000000000E+00 0. -1.
         -4    1    5    5    0  503 -0.68876500278E+02 -0.13630388170E+02  0.68663508647E+02  0.98206095493E+02  0.00000000000E+00 0.  1.
         -3    1    6    6    0  502  0.10828231712E+03 -0.11090695531E+03  0.24114985151E+02  0.15686601113E+03  0.00000000000E+00 0.  1.
<mgrwt>
<rscale>  0 0.14533152E+04</rscale>
<asrwt>0</asrwt>
<pdfrwt beam="1">  1        1 0.65568283E-01 0.14533152E+04</pdfrwt>
<pdfrwt beam="2">  1       -1 0.19060712E+00 0.14533152E+04</pdfrwt>
<totfact> 0.93609076E+00</totfact>
</mgrwt>
</event>
<event>
12    1  0.1663913E-007  0.1512836E+04  0.7818608E-02  0.8875962E-01
         -2   -1    0    0    0  501 -0.00000000000E+00  0.00000000000E+00  0.34170758298E+03  0.34170758298E+03  0.00000000000E+00 0.  1.
          2   -1    0    0  501    0  0.00000000000E+00 -0.00000000000E+00 -0.16744386306E+04  0.16744386306E+04  0.00000000000E+00 0. -1.
         23    2    1    2    0    0  0.32745148195E+03  0.18788803254E+03 -0.24927891110E+02  0.38887662658E+03  0.89873495208E+02 0.  0.
        254    2    1    2    0    0 -0.32745148195E+03 -0.18788803254E+03 -0.13078031565E+04  0.16272695870E+04  0.89170108603E+03 0.  0.
        -24    2    4    4    0    0  0.14567241597E+02 -0.39810925400E+03 -0.10894111456E+04  0.11628354437E+04  0.81648284789E+02 0.  0.
         24    2    4    4    0    0 -0.34201872355E+03  0.21022122146E+03 -0.21839201097E+03  0.46443414332E+03  0.82669424932E+02 0.  0.
         13    1    3    3    0    0  0.22376617314E+03  0.14985687564E+03  0.19092200041E+02  0.26998684324E+03  0.00000000000E+00 0.  1.
        -13    1    3    3    0    0  0.10368530881E+03  0.38031156900E+02 -0.44020091151E+02  0.11888978334E+03  0.00000000000E+00 0. -1.
          2    1    6    6  502    0 -0.11647561351E+03  0.28814962396E+02 -0.54176190943E+02  0.13165078908E+03  0.00000000000E+00 0. -1.
          3    1    5    5  503    0  0.22650544929E+02 -0.10065617326E+03 -0.37494289836E+03  0.38887901645E+03  0.00000000000E+00 0. -1.
         -2    1    5    5    0  503 -0.80833033323E+01 -0.29745308074E+03 -0.71446824722E+03  0.77395642727E+03  0.00000000000E+00 0.  1.
         -1    1    6    6    0  502 -0.22554311003E+03  0.18140625906E+03 -0.16421582002E+03  0.33278335424E+03  0.00000000000E+00 0.  1.
<mgrwt>
<rscale>  0 0.15128362E+04</rscale>
<asrwt>0</asrwt>
<pdfrwt beam="1">  1        2 0.25760594E+00 0.15128362E+04</pdfrwt>
<pdfrwt beam="2">  1       -2 0.52570398E-01 0.15128362E+04</pdfrwt>
<totfact> 0.33391540E+01</totfact>
</mgrwt>
</event>
<event>
12    1  0.1663913E-007  0.1384152E+04  0.7818608E-02  0.8965371E-01
          2   -1    0    0  501    0  0.00000000000E+00  0.00000000000E+00  0.12305681368E+04  0.12305681368E+04  0.00000000000E+00 0. -1.
         -2   -1    0    0    0  501 -0.00000000000E+00 -0.00000000000E+00 -0.38922578419E+03  0.38922578419E+03  0.00000000000E+00 0.  1.
         23    2    1    2    0    0 -0.37628090333E+03 -0.11215817057E+03  0.32884816563E+03  0.52022963288E+03  0.91274210260E+02 0.  0.
        254    2    1    2    0    0  0.37628090333E+03  0.11215817057E+03  0.51249418696E+03  0.10995642881E+04  0.89006997395E+03 0.  0.
        -24    2    4    4    0    0 -0.19217800969E+03 -0.21296701881E+03  0.68904491331E+02  0.30476333470E+03  0.76456018382E+02 0.  0.
         24    2    4    4    0    0  0.56845891302E+03  0.32512518938E+03  0.44358969563E+03  0.79480095338E+03  0.78005210516E+02 0.  0.
         11    1    3    3    0    0 -0.69773608492E+01 -0.20208418264E+01 -0.62156084851E+01  0.95603951250E+01  0.00000000000E+00 0.  1.
        -11    1    3    3    0    0 -0.36930354248E+03 -0.11013732875E+03  0.33506377411E+03  0.51066923776E+03  0.00000000000E+00 0. -1.
          2    1    6    6  502    0  0.42119149266E+03  0.27825261438E+03  0.34666651891E+03  0.61237608235E+03  0.00000000000E+00 0. -1.
          1    1    5    5  503    0 -0.14806655831E+03 -0.19939384611E+03  0.71776109519E+02  0.25852160733E+03  0.00000000000E+00 0. -1.
         -2    1    5    5    0  503 -0.44111451379E+02 -0.13573172694E+02 -0.28716181885E+01  0.46241727377E+02  0.00000000000E+00 0.  1.
         -1    1    6    6    0  502  0.14726742036E+03  0.46872574998E+02  0.96923176725E+02  0.18242487104E+03  0.00000000000E+00 0.  1.
<mgrwt>
<rscale>  0 0.13841515E+04</rscale>
<asrwt>0</asrwt>
<pdfrwt beam="1">  1        2 0.18931817E+00 0.13841515E+04</pdfrwt>
<pdfrwt beam="2">  1       -2 0.59880890E-01 0.13841515E+04</pdfrwt>
<totfact> 0.46028266E+01</totfact>
</mgrwt>
</event>
<event>
12    1  0.1663913E-007  0.1692268E+04  0.7818608E-02  0.8765786E-01
         -2   -1    0    0    0  501 -0.00000000000E+00  0.00000000000E+00  0.64168316871E+03  0.64168316871E+03  0.00000000000E+00 0.  1.
          2   -1    0    0  501    0  0.00000000000E+00 -0.00000000000E+00 -0.11157268012E+04  0.11157268012E+04  0.00000000000E+00 0. -1.
         23    2    1    2    0    0  0.23118503541E+03  0.36084363493E+03 -0.61144734570E+03  0.75199209814E+03  0.89272670164E+02 0.  0.
        254    2    1    2    0    0 -0.23118503541E+03 -0.36084363493E+03  0.13740371320E+03  0.10054178718E+04  0.89907211445E+03 0.  0.
        -24    2    4    4    0    0  0.30612316535E+03 -0.29100095277E+03 -0.38188742455E+02  0.43143889345E+03  0.79298120151E+02 0.  0.
         24    2    4    4    0    0 -0.53730820076E+03 -0.69842682164E+02  0.17559245566E+03  0.57397897831E+03  0.71000381721E+02 0.  0.
         13    1    3    3    0    0  0.20591488669E+03  0.34016542787E+03 -0.59444845596E+03  0.71517999529E+03  0.00000000000E+00 0. -1.
        -13    1    3    3    0    0  0.25270148722E+02  0.20678207065E+02 -0.16998889741E+02  0.36812102850E+02  0.00000000000E+00 0.  1.
          4    1    6    6  502    0 -0.30130359741E+03 -0.68619485528E+02  0.78903030393E+02  0.31893287665E+03  0.00000000000E+00 0. -1.
          1    1    5    5  503    0  0.17929592645E+02 -0.55376524624E+01  0.12640248383E+02  0.22625467208E+02  0.00000000000E+00 0. -1.
         -2    1    5    5    0  503  0.28819357270E+03 -0.28546330030E+03 -0.50828990838E+02  0.40881342624E+03  0.00000000000E+00 0.  1.
         -3    1    6    6    0  502 -0.23600460335E+03 -0.12231966364E+01  0.96689425265E+02  0.25504610166E+03  0.00000000000E+00 0.  1.
<mgrwt>
<rscale>  0 0.16922684E+04</rscale>
<asrwt>0</asrwt>
<pdfrwt beam="1">  1        2 0.17165028E+00 0.16922684E+04</pdfrwt>
<pdfrwt beam="2">  1       -2 0.98720488E-01 0.16922684E+04</pdfrwt>
<totfact> 0.17277302E+01</totfact>
</mgrwt>
</event>
<event>
12    1  0.1663913E-007  0.2061231E+04  0.7818608E-02  0.8578516E-01
          2   -1    0    0  501    0  0.00000000000E+00  0.00000000000E+00  0.14068958448E+04  0.14068958448E+04  0.00000000000E+00 0. -1.
         -2   -1    0    0    0  501 -0.00000000000E+00 -0.00000000000E+00 -0.75497300544E+03  0.75497300544E+03  0.00000000000E+00 0.  1.
         23    2    1    2    0    0 -0.58610460014E+03 -0.51219765949E+03  0.57347181911E+03  0.97109193565E+03  0.91019643369E+02 0.  0.
        254    2    1    2    0    0  0.58610460014E+03  0.51219765949E+03  0.78451020275E+02  0.11907769146E+04  0.89773607095E+03 0.  0.
        -24    2    4    4    0    0 -0.33259988979E+02  0.55495046870E+03  0.13624458252E+02  0.56180720106E+03  0.79783806157E+02 0.  0.
         24    2    4    4    0    0  0.61936458912E+03 -0.42752809207E+02  0.64826562023E+02  0.62896971355E+03  0.77201816456E+02 0.  0.
         11    1    3    3    0    0 -0.38876743779E+03 -0.34171267039E+03  0.32681843142E+03  0.61214210516E+03  0.00000000000E+00 0. -1.
        -11    1    3    3    0    0 -0.19733716236E+03 -0.17048498910E+03  0.24665338768E+03  0.35894983050E+03  0.00000000000E+00 0.  1.
          2    1    6    6  502    0  0.29094567308E+03 -0.25522179716E+02  0.68874892468E+02  0.30007418609E+03  0.00000000000E+00 0. -1.
          1    1    5    5  503    0 -0.27907708676E+02  0.54397041263E+03  0.16307377056E+01  0.54468826802E+03  0.00000000000E+00 0. -1.
         -2    1    5    5    0  503 -0.53522803036E+01  0.10980056073E+02  0.11993720546E+02  0.17118933038E+02  0.00000000000E+00 0.  1.
         -1    1    6    6    0  502  0.32841891604E+03 -0.17230629491E+02 -0.40483304450E+01  0.32889552746E+03  0.00000000000E+00 0.  1.
<mgrwt>
<rscale>  0 0.20612311E+04</rscale>
<asrwt>0</asrwt>
<pdfrwt beam="1">  1        2 0.21644551E+00 0.20612311E+04</pdfrwt>
<pdfrwt beam="2">  1       -2 0.11614969E+00 0.20612311E+04</pdfrwt>
<totfact> 0.76300510E+00</totfact>
</mgrwt>
</event>
<event>
12    1  0.1663913E-007  0.1968072E+04  0.7818608E-02  0.8621695E-01
         -2   -1    0    0    0  501 -0.00000000000E+00  0.00000000000E+00  0.10325100870E+04  0.10325100870E+04  0.00000000000E+00 0. -1.
          2   -1    0    0  501    0  0.00000000000E+00 -0.00000000000E+00 -0.93783802158E+03  0.93783802158E+03  0.00000000000E+00 0.  1.
         23    2    1    2    0    0 -0.63403001691E+03  0.34334894467E+03 -0.24191896566E+03  0.76647719238E+03  0.95288720911E+02 0.  0.
        254    2    1    2    0    0  0.63403001691E+03 -0.34334894467E+03  0.33659103111E+03  0.12038709162E+04  0.90339863878E+03 0.  0.
        -24    2    4    4    0    0  0.71868803930E+03 -0.54407267052E+03  0.35012655515E+03  0.97027566862E+03  0.79490250036E+02 0.  0.
         24    2    4    4    0    0 -0.84658022387E+02  0.20072372584E+03 -0.13535524048E+02  0.23359524760E+03  0.83225803819E+02 0.  0.
         13    1    3    3    0    0 -0.60405848176E+03  0.30039991977E+03 -0.23005216842E+03  0.71277679633E+03  0.00000000000E+00 0.  1.
        -13    1    3    3    0    0 -0.29971535153E+02  0.42949024900E+02 -0.11866797241E+02  0.53700396051E+02  0.00000000000E+00 0. -1.
          2    1    6    6  502    0 -0.55079095237E+02  0.14406173521E+03  0.28841656858E+02  0.15690548574E+03  0.00000000000E+00 0. -1.
          3    1    5    5  503    0  0.49394209375E+02 -0.45631670158E+02  0.57006756144E+01  0.67487294683E+02  0.00000000000E+00 0. -1.
         -2    1    5    5    0  503  0.66929382993E+03 -0.49844100036E+03  0.34442587954E+03  0.90278837393E+03  0.00000000000E+00 0.  1.
         -1    1    6    6    0  502 -0.29578927149E+02  0.56661990633E+02 -0.42377180906E+02  0.76689761868E+02  0.00000000000E+00 0.  1.
<mgrwt>
<rscale>  0 0.19680724E+04</rscale>
<asrwt>0</asrwt>
<pdfrwt beam="1">  1        2 0.14428277E+00 0.19680724E+04</pdfrwt>
<pdfrwt beam="2">  1       -2 0.15884771E+00 0.19680724E+04</pdfrwt>
<totfact> 0.66166293E+00</totfact>
</mgrwt>
</event>
<event>
12    1  0.1663913E-007  0.1796668E+04  0.7818608E-02  0.8708073E-01
          2   -1    0    0  501    0  0.00000000000E+00  0.00000000000E+00  0.76069245797E+03  0.76069245797E+03  0.00000000000E+00 0. -1.
         -2   -1    0    0    0  501 -0.00000000000E+00 -0.00000000000E+00 -0.10608812697E+04  0.10608812697E+04  0.00000000000E+00 0.  1.
         23    2    1    2    0    0 -0.26853795512E+03 -0.16746827349E+03 -0.70804906719E+03  0.77959843997E+03  0.79259006405E+02 0.  0.
        254    2    1    2    0    0  0.26853795512E+03  0.16746827349E+03  0.40786025544E+03  0.10419752877E+04  0.90509903120E+03 0.  0.
        -24    2    4    4    0    0 -0.14152415165E+03  0.30850851632E+03  0.48204397364E+03  0.59479842336E+03  0.78817395098E+02 0.  0.
         24    2    4    4    0    0  0.41006210677E+03 -0.14104024283E+03 -0.74183718195E+02  0.44717686436E+03  0.80128911550E+02 0.  0.
         11    1    3    3    0    0 -0.11434902585E+03 -0.96882815681E+02 -0.41212005364E+03  0.43852584679E+03  0.00000000000E+00 0.  1.
        -11    1    3    3    0    0 -0.15418892927E+03 -0.70585457805E+02 -0.29592901355E+03  0.34107259319E+03  0.00000000000E+00 0. -1.
          2    1    6    6  502    0  0.23893289595E+03 -0.42077538042E+02 -0.53278543111E+02  0.24839092401E+03  0.00000000000E+00 0. -1.
          1    1    5    5  503    0 -0.71937860898E+02  0.15523719310E+03  0.31014462081E+03  0.35420802894E+03  0.00000000000E+00 0. -1.
         -2    1    5    5    0  503 -0.69586290749E+02  0.15327132322E+03  0.17189935283E+03  0.24059039441E+03  0.00000000000E+00 0.  1.
         -1    1    6    6    0  502  0.17112921082E+03 -0.98962704790E+02 -0.20905175084E+02  0.19878594035E+03  0.00000000000E+00 0.  1.
<mgrwt>
<rscale>  0 0.17966685E+04</rscale>
<asrwt>0</asrwt>
<pdfrwt beam="1">  1        2 0.11702961E+00 0.17966685E+04</pdfrwt>
<pdfrwt beam="2">  1       -2 0.16321250E+00 0.17966685E+04</pdfrwt>
<totfact> 0.82889446E+00</totfact>
</mgrwt>
</event>
<event>
12    1  0.1663913E-007  0.1849703E+04  0.7818608E-02  0.8680305E-01
         -3   -1    0    0    0  501 -0.00000000000E+00  0.00000000000E+00  0.32385483339E+04  0.32385483339E+04  0.00000000000E+00 0.  1.
          3   -1    0    0  501    0  0.00000000000E+00 -0.00000000000E+00 -0.26411539666E+03  0.26411539666E+03  0.00000000000E+00 0. -1.
         23    2    1    2    0    0 -0.65584399232E+03 -0.22567823941E+03  0.95739617055E+03  0.11858379659E+04  0.92424260223E+02 0.  0.
        254    2    1    2    0    0  0.65584399232E+03  0.22567823941E+03  0.20170367667E+04  0.23168257647E+04  0.90453429774E+03 0.  0.
        -24    2    4    4    0    0  0.13373377778E+01 -0.27677224181E+03  0.33975575711E+03  0.44578817367E+03  0.81782999402E+02 0.  0.
         24    2    4    4    0    0  0.65450665455E+03  0.50245048122E+03  0.16772810096E+04  0.18710375910E+04  0.81698439436E+02 0.  0.
         11    1    3    3    0    0 -0.36797621315E+03 -0.12808510425E+03  0.45910160241E+03  0.60215161604E+03  0.00000000000E+00 0. -1.
        -11    1    3    3    0    0 -0.28786777918E+03 -0.97593135162E+02  0.49829456814E+03  0.58368634981E+03  0.00000000000E+00 0.  1.
          2    1    6    6  502    0  0.11068033833E+03  0.89648990708E+02  0.22535285698E+03  0.26659142705E+03  0.00000000000E+00 0. -1.
          1    1    5    5  503    0 -0.25086654808E+02 -0.75553732298E+02  0.13984574051E+03  0.16091779843E+03  0.00000000000E+00 0. -1.
         -2    1    5    5    0  503  0.26423992586E+02 -0.20121850951E+03  0.19991001660E+03  0.28487037524E+03  0.00000000000E+00 0.  1.
         -1    1    6    6    0  502  0.54382631622E+03  0.41280149051E+03  0.14519281526E+04  0.16044461640E+04  0.00000000000E+00 0.  1.
<mgrwt>
<rscale>  0 0.18497032E+04</rscale>
<asrwt>0</asrwt>
<pdfrwt beam="1">  1        3 0.40633140E-01 0.18497032E+04</pdfrwt>
<pdfrwt beam="2">  1       -3 0.49823818E+00 0.18497032E+04</pdfrwt>
<totfact> 0.46300403E-02</totfact>
</mgrwt>
</event>
<event>
12    1  0.1663913E-007  0.1491498E+04  0.7818608E-02  0.8890126E-01
         -2   -1    0    0    0  501 -0.00000000000E+00  0.00000000000E+00  0.16634562472E+03  0.16634562472E+03  0.00000000000E+00 0.  1.
          2   -1    0    0  501    0  0.00000000000E+00 -0.00000000000E+00 -0.33432904912E+04  0.33432904912E+04  0.00000000000E+00 0. -1.
         23    2    1    2    0    0 -0.18736506697E+03 -0.37073434791E+03 -0.15277889989E+04  0.15857994223E+04  0.89838508505E+02 0.  0.
        254    2    1    2    0    0  0.18736506697E+03  0.37073434791E+03 -0.16491558676E+04  0.19238366936E+04  0.89937918757E+03 0.  0.
        -24    2    4    4    0    0  0.27348821962E+03  0.10360309892E+03 -0.63605305548E+02  0.31111668871E+03  0.84962054625E+02 0.  0.
         24    2    4    4    0    0 -0.86123152653E+02  0.26713124900E+03 -0.15855505621E+04  0.16127200049E+04  0.90105093032E+02 0.  0.
         13    1    3    3    0    0 -0.16853703785E+02 -0.80267060247E+01 -0.30163865874E+02  0.35473005868E+02  0.00000000000E+00 0.  1.
        -13    1    3    3    0    0 -0.17051136318E+03 -0.36270764189E+03 -0.14976251330E+04  0.15503264164E+04  0.00000000000E+00 0. -1.
          4    1    6    6  502    0 -0.22159134218E+02  0.72374590368E+02 -0.24025092475E+03  0.25189207094E+03  0.00000000000E+00 0. -1.
          3    1    5    5  503    0 -0.23552320508E+01  0.33518237880E+01 -0.12564602470E+02  0.13215561886E+02  0.00000000000E+00 0. -1.
         -4    1    5    5    0  503  0.27584345167E+03  0.10025127513E+03 -0.51040703078E+02  0.29790112683E+03  0.00000000000E+00 0.  1.
         -3    1    6    6    0  502 -0.63964018435E+02  0.19475665863E+03 -0.13452996373E+04  0.13608279340E+04  0.00000000000E+00 0.  1.
<mgrwt>
<rscale>  0 0.14914982E+04</rscale>
<asrwt>0</asrwt>
<pdfrwt beam="1">  1        2 0.51435235E+00 0.14914982E+04</pdfrwt>
<pdfrwt beam="2">  1       -2 0.25591636E-01 0.14914982E+04</pdfrwt>
<totfact> 0.14014745E+01</totfact>
</mgrwt>
</event>
<event>
12    1  0.1663913E-007  0.1629822E+04  0.7818608E-02  0.8802434E-01
         -2   -1    0    0    0  501 -0.00000000000E+00  0.00000000000E+00  0.39247944309E+03  0.39247944309E+03  0.00000000000E+00 0. -1.
          2   -1    0    0  501    0  0.00000000000E+00 -0.00000000000E+00 -0.16920113346E+04  0.16920113346E+04  0.00000000000E+00 0.  1.
         23    2    1    2    0    0 -0.25558063069E+03  0.20484752915E+03  0.12939923254E+03  0.36429577728E+03  0.93184134774E+02 0.  0.
        254    2    1    2    0    0  0.25558063069E+03 -0.20484752915E+03 -0.14289311240E+04  0.17201950004E+04  0.89996817341E+03 0.  0.
        -24    2    4    4    0    0 -0.11658436922E+03 -0.44991000462E+03 -0.95611209191E+03  0.10657683709E+04  0.75504707125E+02 0.  0.
         24    2    4    4    0    0  0.37216499991E+03  0.24506247547E+03 -0.47281903212E+03  0.65442662944E+03  0.78447257150E+02 0.  0.
         13    1    3    3    0    0 -0.19539040974E+03  0.16100593492E+03  0.13963101602E+03  0.28913170689E+03  0.00000000000E+00 0. -1.
        -13    1    3    3    0    0 -0.60190220951E+02  0.43841594238E+02 -0.10231783476E+02  0.75164070383E+02  0.00000000000E+00 0.  1.
          2    1    6    6  502    0  0.12543129333E+03  0.46104340325E+02 -0.11390170581E+03  0.17559105367E+03  0.00000000000E+00 0. -1.
          3    1    5    5  503    0  0.41041192782E+01 -0.54386120189E+02 -0.15326396151E+03  0.16267924196E+03  0.00000000000E+00 0. -1.
         -4    1    5    5    0  503 -0.12068848849E+03 -0.39552388443E+03 -0.80284813040E+03  0.90308912899E+03  0.00000000000E+00 0.  1.
         -1    1    6    6    0  502  0.24673370658E+03  0.19895813514E+03 -0.35891732631E+03  0.47883557577E+03  0.00000000000E+00 0.  1.
<mgrwt>
<rscale>  0 0.16298217E+04</rscale>
<asrwt>0</asrwt>
<pdfrwt beam="1">  1        2 0.26030944E+00 0.16298217E+04</pdfrwt>
<pdfrwt beam="2">  1       -2 0.60381452E-01 0.16298217E+04</pdfrwt>
<totfact> 0.24220573E+01</totfact>
</mgrwt>
</event>
<event>
12    1  0.1663913E-007  0.1388618E+04  0.7818608E-02  0.8962099E-01
          2   -1    0    0  501    0  0.00000000000E+00  0.00000000000E+00  0.19823027598E+04  0.19823027598E+04  0.00000000000E+00 0. -1.
         -2   -1    0    0    0  501 -0.00000000000E+00 -0.00000000000E+00 -0.24318427778E+03  0.24318427778E+03  0.00000000000E+00 0.  1.
         23    2    1    2    0    0  0.26556992150E+03 -0.73413417004E+02  0.92920964636E+03  0.97344695552E+03  0.90837741720E+02 0.  0.
        254    2    1    2    0    0 -0.26556992150E+03  0.73413417004E+02  0.80990883562E+03  0.12520400820E+04  0.91418550194E+03 0.  0.
        -24    2    4    4    0    0 -0.49021608891E+03 -0.12997568674E+02  0.86105730196E+03  0.99426357472E+03  0.81606544614E+02 0.  0.
         24    2    4    4    0    0  0.22464616742E+03  0.86410985678E+02 -0.51148466343E+02  0.25777650730E+03  0.76810175913E+02 0.  0.
         13    1    3    3    0    0  0.11426098618E+03 -0.11846952415E+02  0.25417593886E+03  0.27892889979E+03  0.00000000000E+00 0. -1.
        -13    1    3    3    0    0  0.15130893532E+03 -0.61566464589E+02  0.67503370750E+03  0.69451805573E+03  0.00000000000E+00 0.  1.
          2    1    6    6  502    0  0.20360740154E+03  0.63508188634E+02 -0.66072069628E+02  0.22328184514E+03  0.00000000000E+00 0. -1.
          1    1    5    5  503    0 -0.31471865531E+03 -0.45860922465E+02  0.57347247703E+03  0.65576042738E+03  0.00000000000E+00 0. -1.
         -2    1    5    5    0  503 -0.17549743360E+03  0.32863353791E+02  0.28758482493E+03  0.33850314733E+03  0.00000000000E+00 0.  1.
         -1    1    6    6    0  502  0.21038765877E+02  0.22902797045E+02  0.14923603285E+02  0.34494662154E+02  0.00000000000E+00 0.  1.
<mgrwt>
<rscale>  0 0.13886178E+04</rscale>
<asrwt>0</asrwt>
<pdfrwt beam="1">  1        2 0.30496964E+00 0.13886178E+04</pdfrwt>
<pdfrwt beam="2">  1       -2 0.37412967E-01 0.13886178E+04</pdfrwt>
<totfact> 0.44879620E+01</totfact>
</mgrwt>
</event>
<event>
12    1  0.1663913E-007  0.2141214E+04  0.7818608E-02  0.8543303E-01
         -2   -1    0    0    0  501 -0.00000000000E+00  0.00000000000E+00  0.24751846331E+04  0.24751846331E+04  0.00000000000E+00 0.  1.
          2   -1    0    0  501    0  0.00000000000E+00 -0.00000000000E+00 -0.46307610938E+03  0.46307610938E+03  0.00000000000E+00 0. -1.
         23    2    1    2    0    0 -0.21255293424E+03 -0.14545412243E+03 -0.32502392122E+03  0.42089479466E+03  0.71946002123E+02 0.  0.
        254    2    1    2    0    0  0.21255293424E+03  0.14545412243E+03  0.23371324450E+04  0.25173659478E+04  0.89922611090E+03 0.  0.
        -24    2    4    4    0    0  0.18060386795E+03 -0.29492514051E+03  0.42737799258E+03  0.55561889717E+03  0.80385413656E+02 0.  0.
         24    2    4    4    0    0  0.31949066288E+02  0.44037926294E+03  0.19097544524E+04  0.19617470507E+04  0.79591358803E+02 0.  0.
         13    1    3    3    0    0 -0.21569042313E+03 -0.14798730500E+03 -0.31139077292E+03  0.40667777728E+03  0.00000000000E+00 0. -1.
        -13    1    3    3    0    0  0.31374888964E+01  0.25331825766E+01 -0.13633148304E+02  0.14217017381E+02  0.00000000000E+00 0.  1.
          2    1    6    6  502    0  0.23782900248E+02  0.43420627564E+03  0.18912506504E+04  0.19406003552E+04  0.00000000000E+00 0. -1.
          3    1    5    5  503    0  0.13635459188E+03 -0.25618334899E+03  0.31193834571E+03  0.42606104557E+03  0.00000000000E+00 0. -1.
         -4    1    5    5    0  503  0.44249276072E+02 -0.38741791525E+02  0.11543964687E+03  0.12955785161E+03  0.00000000000E+00 0.  1.
         -1    1    6    6    0  502  0.81661660399E+01  0.61729872964E+01  0.18503801995E+02  0.21146695444E+02  0.00000000000E+00 0.  1.
<mgrwt>
<rscale>  0 0.21412136E+04</rscale>
<asrwt>0</asrwt>
<pdfrwt beam="1">  1        2 0.71242480E-01 0.21412136E+04</pdfrwt>
<pdfrwt beam="2">  1       -2 0.38079763E+00 0.21412136E+04</pdfrwt>
<totfact> 0.61277589E-01</totfact>
</mgrwt>
</event>
<event>
12    1  0.1663913E-007  0.1629888E+04  0.7818608E-02  0.8802394E-01
         -1   -1    0    0    0  501 -0.00000000000E+00  0.00000000000E+00  0.11726054152E+04  0.11726054152E+04  0.00000000000E+00 0.  1.
          1   -1    0    0  501    0  0.00000000000E+00 -0.00000000000E+00 -0.56637469771E+03  0.56637469771E+03  0.00000000000E+00 0. -1.
         23    2    1    2    0    0  0.44887244430E+03 -0.20944152639E+03  0.43993294569E+03  0.66875551634E+03  0.91327540825E+02 0.  0.
        254    2    1    2    0    0 -0.44887244430E+03  0.20944152639E+03  0.16629777181E+03  0.10702245966E+04  0.93400937574E+03 0.  0.
        -24    2    4    4    0    0 -0.52967203329E+02 -0.35157342788E+03  0.31480941922E+02  0.36592202470E+03  0.80613141840E+02 0.  0.
         24    2    4    4    0    0 -0.39590524097E+03  0.56101495427E+03  0.13481682989E+03  0.70430257187E+03  0.79923690995E+02 0.  0.
         13    1    3    3    0    0  0.12745135059E+03 -0.57996879574E+02  0.72720415789E+02  0.15778385114E+03  0.00000000000E+00 0. -1.
        -13    1    3    3    0    0  0.32142109371E+03 -0.15144464682E+03  0.36721252990E+03  0.51097166521E+03  0.00000000000E+00 0.  1.
          2    1    6    6  502    0 -0.30354731910E+03  0.44705099840E+03  0.73613468924E+02  0.54535723422E+03  0.00000000000E+00 0. -1.
          1    1    5    5  503    0 -0.73665038302E+02 -0.29123133390E+03  0.19687443910E+02  0.30104787520E+03  0.00000000000E+00 0. -1.
         -2    1    5    5    0  503  0.20697834973E+02 -0.60342093977E+02  0.11793498012E+02  0.64874149501E+02  0.00000000000E+00 0.  1.
         -1    1    6    6    0  502 -0.92357921864E+02  0.11396395587E+03  0.61203360965E+02  0.15894533766E+03  0.00000000000E+00 0.  1.
<mgrwt>
<rscale>  0 0.16298884E+04</rscale>
<asrwt>0</asrwt>
<pdfrwt beam="1">  1        1 0.87134569E-01 0.16298884E+04</pdfrwt>
<pdfrwt beam="2">  1       -1 0.18040083E+00 0.16298884E+04</pdfrwt>
<totfact> 0.73616718E+00</totfact>
</mgrwt>
</event>
<event>
12    1  0.1663913E-007  0.1873069E+04  0.7818608E-02  0.8668379E-01
          1   -1    0    0  501    0  0.00000000000E+00  0.00000000000E+00  0.10345695117E+04  0.10345695117E+04  0.00000000000E+00 0. -1.
         -1   -1    0    0    0  501 -0.00000000000E+00 -0.00000000000E+00 -0.84778954052E+03  0.84778954052E+03  0.00000000000E+00 0.  1.
         23    2    1    2    0    0  0.32561806562E+02  0.34422933120E+03 -0.55721261842E+03  0.66218357862E+03  0.91908029891E+02 0.  0.
        254    2    1    2    0    0 -0.32561806562E+02 -0.34422933120E+03  0.74399258956E+03  0.12201754736E+04  0.90318830222E+03 0.  0.
        -24    2    4    4    0    0  0.16333398841E+03  0.15491901064E+03  0.61876834910E+03  0.66379559822E+03  0.84097768907E+02 0.  0.
         24    2    4    4    0    0 -0.19589579497E+03 -0.49914834184E+03  0.12522424046E+03  0.55637987535E+03  0.79707124190E+02 0.  0.
         11    1    3    3    0    0 -0.25276308591E+02  0.19691077376E+03 -0.28553270617E+03  0.34776669031E+03  0.00000000000E+00 0.  1.
        -11    1    3    3    0    0  0.57838115153E+02  0.14731855745E+03 -0.27167991225E+03  0.31441688831E+03  0.00000000000E+00 0. -1.
          4    1    6    6  502    0 -0.96970435899E+02 -0.14778061809E+03  0.31897550190E+02  0.17961021750E+03  0.00000000000E+00 0. -1.
          3    1    5    5  503    0 -0.41264674465E+01  0.83173735317E+01  0.42431439829E+01  0.10208364556E+02  0.00000000000E+00 0. -1.
         -4    1    5    5    0  503  0.16746045586E+03  0.14660163711E+03  0.61452520512E+03  0.65358723366E+03  0.00000000000E+00 0.  1.
         -3    1    6    6    0  502 -0.98925359072E+02 -0.35136772376E+03  0.93326690271E+02  0.37676965786E+03  0.00000000000E+00 0.  1.
<mgrwt>
<rscale>  0 0.18730694E+04</rscale>
<asrwt>0</asrwt>
<pdfrwt beam="1">  1        1 0.15916454E+00 0.18730694E+04</pdfrwt>
<pdfrwt beam="2">  1       -1 0.13042916E+00 0.18730694E+04</pdfrwt>
<totfact> 0.67088780E+00</totfact>
</mgrwt>
</event>
<event>
12    1  0.1663913E-007  0.1820678E+04  0.7818608E-02  0.8695380E-01
          1   -1    0    0  501    0  0.00000000000E+00  0.00000000000E+00  0.10671565314E+04  0.10671565314E+04  0.00000000000E+00 0. -1.
         -1   -1    0    0    0  501 -0.00000000000E+00 -0.00000000000E+00 -0.77656603877E+03  0.77656603877E+03  0.00000000000E+00 0.  1.
         23    2    1    2    0    0 -0.25977107053E+03 -0.34385972364E+03 -0.42398601993E+03  0.61053689603E+03  0.85268034408E+02 0.  0.
        254    2    1    2    0    0  0.25977107053E+03  0.34385972364E+03  0.71457651254E+03  0.12331856741E+04  0.90796849942E+03 0.  0.
        -24    2    4    4    0    0 -0.74188022283E+02 -0.21991824237E+03  0.46878887572E+03  0.52881086990E+03  0.77524384192E+02 0.  0.
         24    2    4    4    0    0  0.33395909281E+03  0.56377796601E+03  0.24578763682E+03  0.70437480422E+03  0.79737267170E+02 0.  0.
         13    1    3    3    0    0 -0.22383382787E+03 -0.25867061810E+03 -0.29418606667E+03  0.45117348435E+03  0.00000000000E+00 0.  1.
        -13    1    3    3    0    0 -0.35937242662E+02 -0.85189105544E+02 -0.12979995326E+03  0.15936341168E+03  0.00000000000E+00 0. -1.
          2    1    6    6  502    0  0.23487303020E+03  0.46069450028E+03  0.19366347407E+03  0.55218683803E+03  0.00000000000E+00 0. -1.
          1    1    5    5  503    0 -0.38876559619E+02 -0.19822016068E+03  0.36718792682E+03  0.41908184474E+03  0.00000000000E+00 0. -1.
         -2    1    5    5    0  503 -0.35311462665E+02 -0.21698081690E+02  0.10160094890E+03  0.10972902516E+03  0.00000000000E+00 0.  1.
         -1    1    6    6    0  502  0.99086062610E+02  0.10308346573E+03  0.52124162742E+02  0.15218796618E+03  0.00000000000E+00 0.  1.
<mgrwt>
<rscale>  0 0.18206785E+04</rscale>
<asrwt>0</asrwt>
<pdfrwt beam="1">  1        1 0.16417793E+00 0.18206785E+04</pdfrwt>
<pdfrwt beam="2">  1       -1 0.11947170E+00 0.18206785E+04</pdfrwt>
<totfact> 0.79163268E+00</totfact>
</mgrwt>
</event>
<event>
12    1  0.1663913E-007  0.3658890E+04  0.7818608E-02  0.8077134E-01
         -2   -1    0    0    0  501 -0.00000000000E+00  0.00000000000E+00  0.21849004796E+04  0.21849004796E+04  0.00000000000E+00 0.  1.
          2   -1    0    0  501    0  0.00000000000E+00 -0.00000000000E+00 -0.15318173675E+04  0.15318173675E+04  0.00000000000E+00 0. -1.
         23    2    1    2    0    0 -0.16509965382E+04  0.16399412503E+02  0.78919254044E+03  0.18321708035E+04  0.89255125582E+02 0.  0.
        254    2    1    2    0    0  0.16509965382E+04 -0.16399412503E+02 -0.13610942836E+03  0.18845470436E+04  0.89829464723E+03 0.  0.
        -24    2    4    4    0    0  0.52381805967E+03  0.40093725262E+03 -0.14420919367E+03  0.67998950510E+03  0.80333027671E+02 0.  0.
         24    2    4    4    0    0  0.11271784786E+04 -0.41733666512E+03  0.80997653094E+01  0.12045575385E+04  0.78689534709E+02 0.  0.
         13    1    3    3    0    0 -0.60718785241E+03 -0.32898559255E+02  0.27002430584E+03  0.66533640292E+03  0.00000000000E+00 0. -1.
        -13    1    3    3    0    0 -0.10438086858E+04  0.49297971758E+02  0.51916823460E+03  0.11668344006E+04  0.00000000000E+00 0.  1.
          2    1    6    6  502    0  0.53741459296E+03 -0.16104717381E+03  0.20374795948E+02  0.56139626756E+03  0.00000000000E+00 0. -1.
          1    1    5    5  503    0  0.89623101094E+02  0.90817080378E+02 -0.55293485607E+02  0.13905902304E+03  0.00000000000E+00 0. -1.
         -2    1    5    5    0  503  0.43419495857E+03  0.31012017224E+03 -0.88915708067E+02  0.54093048206E+03  0.00000000000E+00 0.  1.
         -1    1    6    6    0  502  0.58976388560E+03 -0.25628949131E+03 -0.12275030638E+02  0.64316127098E+03  0.00000000000E+00 0.  1.
<mgrwt>
<rscale>  0 0.36588897E+04</rscale>
<asrwt>0</asrwt>
<pdfrwt beam="1">  1        2 0.23566421E+00 0.36588897E+04</pdfrwt>
<pdfrwt beam="2">  1       -2 0.33613854E+00 0.36588897E+04</pdfrwt>
<totfact> 0.18773758E-01</totfact>
</mgrwt>
</event>
<event>
12    1  0.1663913E-007  0.1936387E+04  0.7818608E-02  0.8636953E-01
         -1   -1    0    0    0  501 -0.00000000000E+00  0.00000000000E+00  0.33352518002E+03  0.33352518002E+03  0.00000000000E+00 0.  1.
          1   -1    0    0  501    0  0.00000000000E+00 -0.00000000000E+00 -0.28105781875E+04  0.28105781875E+04  0.00000000000E+00 0. -1.
         23    2    1    2    0    0 -0.48756017390E+03 -0.48169539432E+03 -0.45942592828E+03  0.82911374767E+03  0.81314493920E+02 0.  0.
        254    2    1    2    0    0  0.48756017390E+03  0.48169539432E+03 -0.20176270792E+04  0.23149896198E+04  0.90477208910E+03 0.  0.
        -24    2    4    4    0    0  0.53199548080E+03  0.59685205839E+03 -0.98073933653E+03  0.12677086460E+04  0.77356278659E+02 0.  0.
         24    2    4    4    0    0 -0.44435306897E+02 -0.11515666407E+03 -0.10368877427E+04  0.10472809738E+04  0.80160423027E+02 0.  0.
         13    1    3    3    0    0 -0.94542291541E+02 -0.52511622562E+02 -0.67085656435E+02  0.12726429465E+03  0.00000000000E+00 0. -1.
        -13    1    3    3    0    0 -0.39301788236E+03 -0.42918377176E+03 -0.39234027185E+03  0.70184945302E+03  0.00000000000E+00 0.  1.
          4    1    6    6  502    0  0.15215642351E+02  0.87684232667E+00 -0.16249740357E+03  0.16321057193E+03  0.00000000000E+00 0. -1.
          1    1    5    5  503    0  0.14469081885E+03  0.20683408990E+03 -0.34125877915E+03  0.42446828874E+03  0.00000000000E+00 0. -1.
         -2    1    5    5    0  503  0.38730466195E+03  0.39001796850E+03 -0.63948055738E+03  0.84324035730E+03  0.00000000000E+00 0.  1.
         -1    1    6    6    0  502 -0.59650949248E+02 -0.11603350640E+03 -0.87439033909E+03  0.88407040186E+03  0.00000000000E+00 0.  1.
<mgrwt>
<rscale>  0 0.19363869E+04</rscale>
<asrwt>0</asrwt>
<pdfrwt beam="1">  1        1 0.43239666E+00 0.19363869E+04</pdfrwt>
<pdfrwt beam="2">  1       -1 0.51311565E-01 0.19363869E+04</pdfrwt>
<totfact> 0.29226533E+00</totfact>
</mgrwt>
</event>
<event>
12    1  0.2522151E-007  0.1994265E+04  0.7818608E-02  0.8609307E-01
          3   -1    0    0  501    0  0.00000000000E+00  0.00000000000E+00  0.15711230807E+04  0.15711230807E+04  0.00000000000E+00 0. -1.
         -3   -1    0    0    0  501 -0.00000000000E+00 -0.00000000000E+00 -0.63284211969E+03  0.63284211969E+03  0.00000000000E+00 0.  1.
         23    2    1    2    0    0 -0.74442116730E+03  0.41392871324E+02  0.10022168077E+03  0.75800797830E+03  0.93034755556E+02 0.  0.
        254    2    1    2    0    0  0.74442116730E+03 -0.41392871324E+02  0.83805928024E+03  0.14459572221E+04  0.91245421079E+03 0.  0.
        -24    2    4    4    0    0  0.26227853951E+03  0.16946073464E+03  0.85495691495E+03  0.91356802303E+03  0.78410671502E+02 0.  0.
         24    2    4    4    0    0  0.48214262779E+03 -0.21085360597E+03 -0.16897634710E+02  0.53238919906E+03  0.78942843441E+02 0.  0.
         11    1    3    3    0    0 -0.17279462130E+03  0.13675308411E+02  0.63258853829E+02  0.18451741868E+03  0.00000000000E+00 0. -1.
        -11    1    3    3    0    0 -0.57162654601E+03  0.27717562914E+02  0.36962826939E+02  0.57349055962E+03  0.00000000000E+00 0.  1.
          4    1    6    6  502    0  0.48209898544E+03 -0.21462013566E+03 -0.19038514445E+02  0.52805653052E+03  0.00000000000E+00 0. -1.
          3    1    5    5  503    0  0.24393154867E+03  0.16305513911E+03  0.83762950362E+03  0.88753183839E+03  0.00000000000E+00 0. -1.
         -4    1    5    5    0  503  0.18346990841E+02  0.64055955349E+01  0.17327411337E+02  0.26036184642E+02  0.00000000000E+00 0.  1.
         -3    1    6    6    0  502  0.43642353364E-01  0.37665296963E+01  0.21408797352E+01  0.43326685367E+01  0.00000000000E+00 0.  1.
<mgrwt>
<rscale>  0 0.19942646E+04</rscale>
<asrwt>0</asrwt>
<pdfrwt beam="1">  1        3 0.24171124E+00 0.19942646E+04</pdfrwt>
<pdfrwt beam="2">  1       -3 0.97360327E-01 0.19942646E+04</pdfrwt>
<totfact> 0.18643438E-01</totfact>
</mgrwt>
</event>
<event>
12    1  0.1663913E-007  0.1495170E+04  0.7818608E-02  0.8887671E-01
         -1   -1    0    0    0  501 -0.00000000000E+00  0.00000000000E+00  0.95048977155E+03  0.95048977155E+03  0.00000000000E+00 0.  1.
          1   -1    0    0  501    0  0.00000000000E+00 -0.00000000000E+00 -0.58799548825E+03  0.58799548825E+03  0.00000000000E+00 0. -1.
         23    2    1    2    0    0 -0.30588580924E+03 -0.23454070513E+03 -0.16123880488E+03  0.42764858096E+03  0.91158575814E+02 0.  0.
        254    2    1    2    0    0  0.30588580924E+03  0.23454070513E+03  0.52373308817E+03  0.11108366788E+04  0.90060330265E+03 0.  0.
        -24    2    4    4    0    0  0.31925457338E+03  0.52656140029E+03  0.51651098964E+03  0.80768855987E+03  0.79917560164E+02 0.  0.
         24    2    4    4    0    0 -0.13368764144E+02 -0.29202069516E+03  0.72220985365E+01  0.30314811897E+03  0.79948815322E+02 0.  0.
         13    1    3    3    0    0 -0.29556432632E+03 -0.21916360484E+03 -0.17206263942E+03  0.40619762254E+03  0.00000000000E+00 0.  1.
        -13    1    3    3    0    0 -0.10321482919E+02 -0.15377100290E+02  0.10823834536E+02  0.21450958418E+02  0.00000000000E+00 0. -1.
          4    1    6    6  502    0 -0.43542788373E+02 -0.14733581227E+03 -0.12011229635E+02  0.15410413892E+03  0.00000000000E+00 0. -1.
          3    1    5    5  503    0  0.94014247863E+02  0.10787687810E+03  0.90440488706E+02  0.16927959601E+03  0.00000000000E+00 0. -1.
         -4    1    5    5    0  503  0.22524032552E+03  0.41868452219E+03  0.42607050093E+03  0.63840896385E+03  0.00000000000E+00 0.  1.
         -3    1    6    6    0  502  0.30174024229E+02 -0.14468488289E+03  0.19233328172E+02  0.14904398005E+03  0.00000000000E+00 0.  1.
<mgrwt>
<rscale>  0 0.14951705E+04</rscale>
<asrwt>0</asrwt>
<pdfrwt beam="1">  1        1 0.90460844E-01 0.14951705E+04</pdfrwt>
<pdfrwt beam="2">  1       -1 0.14622920E+00 0.14951705E+04</pdfrwt>
<totfact> 0.12749829E+01</totfact>
</mgrwt>
</event>
<event>
12    1  0.1663913E-007  0.1475675E+04  0.7818608E-02  0.8900792E-01
         -2   -1    0    0    0  501 -0.00000000000E+00  0.00000000000E+00  0.20834355702E+03  0.20834355702E+03  0.00000000000E+00 0. -1.
          2   -1    0    0  501    0  0.00000000000E+00 -0.00000000000E+00 -0.26130105542E+04  0.26130105542E+04  0.00000000000E+00 0.  1.
         23    2    1    2    0    0 -0.44315358825E+03  0.11563000803E+03 -0.69787089057E+03  0.83994491065E+03  0.93425218718E+02 0.  0.
        254    2    1    2    0    0  0.44315358825E+03 -0.11563000803E+03 -0.17067961066E+04  0.19814092006E+04  0.89614400018E+03 0.  0.
        -24    2    4    4    0    0  0.64340048812E+02 -0.20787666041E+03 -0.26734586885E+01  0.23142201222E+03  0.78718819449E+02 0.  0.
         24    2    4    4    0    0  0.37881353943E+03  0.92246652379E+02 -0.17041226480E+04  0.17499871884E+04  0.80075075394E+02 0.  0.
         11    1    3    3    0    0 -0.24227331957E+03  0.38461618597E+02 -0.29922193062E+03  0.38692301721E+03  0.00000000000E+00 0. -1.
        -11    1    3    3    0    0 -0.20088026868E+03  0.77168389433E+02 -0.39864895995E+03  0.45302189344E+03  0.00000000000E+00 0.  1.
          2    1    6    6  502    0  0.35176850242E+03  0.61750150357E+02 -0.15418285117E+04  0.15826526214E+04  0.00000000000E+00 0. -1.
          1    1    5    5  503    0  0.50750594403E+01 -0.14367233617E+03  0.37455036832E+01  0.14381072703E+03  0.00000000000E+00 0. -1.
         -2    1    5    5    0  503  0.59264989371E+02 -0.64204324236E+02 -0.64189623718E+01  0.87611285196E+02  0.00000000000E+00 0.  1.
         -1    1    6    6    0  502  0.27045037017E+02  0.30496502022E+02 -0.16229413621E+03  0.16733456699E+03  0.00000000000E+00 0.  1.
<mgrwt>
<rscale>  0 0.14756746E+04</rscale>
<asrwt>0</asrwt>
<pdfrwt beam="1">  1        2 0.40200160E+00 0.14756746E+04</pdfrwt>
<pdfrwt beam="2">  1       -2 0.32052857E-01 0.14756746E+04</pdfrwt>
<totfact> 0.26311240E+01</totfact>
</mgrwt>
</event>
<event>
12    1  0.1663913E-007  0.3024869E+04  0.7818608E-02  0.8236665E-01
          1   -1    0    0  501    0  0.00000000000E+00  0.00000000000E+00  0.33808890744E+04  0.33808890744E+04  0.00000000000E+00 0. -1.
         -1   -1    0    0    0  501 -0.00000000000E+00 -0.00000000000E+00 -0.67658493916E+03  0.67658493916E+03  0.00000000000E+00 0.  1.
         23    2    1    2    0    0 -0.13182557577E+04  0.34136322964E+03  0.94663992815E+03  0.16610720425E+04  0.93306374504E+02 0.  0.
        254    2    1    2    0    0  0.13182557577E+04 -0.34136322964E+03  0.17576642071E+04  0.23964019711E+04  0.89388581210E+03 0.  0.
        -24    2    4    4    0    0  0.14602594304E+03 -0.41146175303E+03  0.37173905404E+03  0.57809394428E+03  0.73337124752E+02 0.  0.
         24    2    4    4    0    0  0.11722298146E+04  0.70098523393E+02  0.13859251531E+04  0.18183080268E+04  0.80118719884E+02 0.  0.
         11    1    3    3    0    0 -0.57523270894E+02  0.28800219807E+02  0.28069214889E+02  0.70187322073E+02  0.00000000000E+00 0.  1.
        -11    1    3    3    0    0 -0.12607324868E+04  0.31256300983E+03  0.91857071326E+03  0.15908847204E+04  0.00000000000E+00 0. -1.
          4    1    6    6  502    0  0.18588358698E+03  0.35802297028E+02  0.24851344062E+03  0.31239949191E+03  0.00000000000E+00 0. -1.
          3    1    5    5  503    0  0.12700462210E+03 -0.38623826903E+03  0.31972308782E+03  0.51723594943E+03  0.00000000000E+00 0. -1.
         -4    1    5    5    0  503  0.19021320932E+02 -0.25223484003E+02  0.52015966220E+02  0.60857994849E+02  0.00000000000E+00 0.  1.
         -3    1    6    6    0  502  0.98634622764E+03  0.34296226365E+02  0.11374117125E+04  0.15059085349E+04  0.00000000000E+00 0.  1.
<mgrwt>
<rscale>  0 0.30248693E+04</rscale>
<asrwt>0</asrwt>
<pdfrwt beam="1">  1        1 0.52013677E+00 0.30248693E+04</pdfrwt>
<pdfrwt beam="2">  1       -1 0.10408999E+00 0.30248693E+04</pdfrwt>
<totfact> 0.22819377E-01</totfact>
</mgrwt>
</event>
<event>
12    1  0.1663913E-007  0.3608444E+04  0.7818608E-02  0.8088560E-01
          2   -1    0    0  501    0  0.00000000000E+00  0.00000000000E+00  0.47963747370E+04  0.47963747370E+04  0.00000000000E+00 0. -1.
         -2   -1    0    0    0  501 -0.00000000000E+00 -0.00000000000E+00 -0.67868261150E+03  0.67868261150E+03  0.00000000000E+00 0.  1.
         23    2    1    2    0    0  0.12862500982E+03 -0.50958154378E+03  0.43709354255E+04  0.44033786422E+04  0.91919694620E+02 0.  0.
        254    2    1    2    0    0 -0.12862500982E+03  0.50958154378E+03 -0.25324329992E+03  0.10716787063E+04  0.89896904158E+03 0.  0.
        -24    2    4    4    0    0 -0.71858933593E+02 -0.14311864254E+03  0.20151274656E+03  0.26976877962E+03  0.80753670213E+02 0.  0.
         24    2    4    4    0    0 -0.56766076232E+02  0.65270018632E+03 -0.45475604648E+03  0.80190992670E+03  0.83764838044E+02 0.  0.
         11    1    3    3    0    0  0.96424374253E+02 -0.37486558901E+03  0.28530779178E+04  0.28792143850E+04  0.00000000000E+00 0.  1.
        -11    1    3    3    0    0  0.32200635572E+02 -0.13471595477E+03  0.15178575076E+04  0.15241642572E+04  0.00000000000E+00 0. -1.
          2    1    6    6  502    0  0.19068922318E+02  0.17884980890E+03 -0.10715881239E+03  0.20936544370E+03  0.00000000000E+00 0. -1.
          3    1    5    5  503    0 -0.81338194219E+02 -0.77387879509E+02  0.13770103991E+03  0.17766924924E+03  0.00000000000E+00 0. -1.
         -4    1    5    5    0  503  0.94792606265E+01 -0.65730763032E+02  0.63811706652E+02  0.92099530382E+02  0.00000000000E+00 0.  1.
         -1    1    6    6    0  502 -0.75834998550E+02  0.47385037742E+03 -0.34759723409E+03  0.59254448300E+03  0.00000000000E+00 0.  1.
<mgrwt>
<rscale>  0 0.36084435E+04</rscale>
<asrwt>0</asrwt>
<pdfrwt beam="1">  1        2 0.73790378E+00 0.36084435E+04</pdfrwt>
<pdfrwt beam="2">  1       -2 0.10441271E+00 0.36084435E+04</pdfrwt>
<totfact> 0.36203437E-02</totfact>
</mgrwt>
</event>
<event>
12    1  0.1663913E-007  0.1592277E+04  0.7818608E-02  0.8825307E-01
         -2   -1    0    0    0  501 -0.00000000000E+00  0.00000000000E+00  0.18181365457E+03  0.18181365457E+03  0.00000000000E+00 0. -1.
          2   -1    0    0  501    0  0.00000000000E+00 -0.00000000000E+00 -0.34861868388E+04  0.34861868388E+04  0.00000000000E+00 0.  1.
         23    2    1    2    0    0 -0.43214950031E+02 -0.24786439784E+03 -0.38569396404E+02  0.27030216215E+03  0.90947066477E+02 0.  0.
        254    2    1    2    0    0  0.43214950031E+02  0.24786439784E+03 -0.32658037878E+04  0.33976983312E+04  0.90309206497E+03 0.  0.
        -24    2    4    4    0    0 -0.20422277024E+03  0.45494379664E+03 -0.26519250764E+04  0.26995957681E+04  0.80186672410E+02 0.  0.
         24    2    4    4    0    0  0.24743772027E+03 -0.20707939880E+03 -0.61387871143E+03  0.69810256311E+03  0.79955071454E+02 0.  0.
         11    1    3    3    0    0  0.25988997092E+02 -0.47259775955E+02 -0.19052041931E+02  0.57200478100E+02  0.00000000000E+00 0.  1.
        -11    1    3    3    0    0 -0.69203947123E+02 -0.20060462188E+03 -0.19517354473E+02  0.21310168405E+03  0.00000000000E+00 0. -1.
          4    1    6    6  502    0  0.21537121006E+02 -0.95172520121E+01 -0.14129427277E+02  0.27460269159E+02  0.00000000000E+00 0. -1.
          3    1    5    5  503    0 -0.11543406776E+03  0.32883452346E+03 -0.19535990992E+04  0.19844411324E+04  0.00000000000E+00 0. -1.
         -4    1    5    5    0  503 -0.88788702479E+02  0.12610927318E+03 -0.69832597720E+03  0.71515463566E+03  0.00000000000E+00 0.  1.
         -3    1    6    6    0  502  0.22590059927E+03 -0.19756214679E+03 -0.59974928416E+03  0.67064229395E+03  0.00000000000E+00 0.  1.
<mgrwt>
<rscale>  0 0.15922768E+04</rscale>
<asrwt>0</asrwt>
<pdfrwt beam="1">  1        2 0.53633647E+00 0.15922768E+04</pdfrwt>
<pdfrwt beam="2">  1       -2 0.27971330E-01 0.15922768E+04</pdfrwt>
<totfact> 0.94262951E+00</totfact>
</mgrwt>
</event>
<event>
12    1  0.1663913E-007  0.1694627E+04  0.7818608E-02  0.8764435E-01
          2   -1    0    0  501    0  0.00000000000E+00  0.00000000000E+00  0.15058232899E+04  0.15058232899E+04  0.00000000000E+00 0. -1.
         -2   -1    0    0    0  501 -0.00000000000E+00 -0.00000000000E+00 -0.47677564700E+03  0.47677564700E+03  0.00000000000E+00 0.  1.
         23    2    1    2    0    0  0.11881293282E+02  0.24114152471E+03 -0.26559046495E+03  0.36972212374E+03  0.88689084122E+02 0.  0.
        254    2    1    2    0    0 -0.11881293282E+02 -0.24114152471E+03  0.12946381079E+04  0.16128768132E+04  0.93112479511E+03 0.  0.
        -24    2    4    4    0    0 -0.20719901384E+03  0.49577630217E+02  0.12281025633E+04  0.12489686456E+04  0.79356151154E+02 0.  0.
         24    2    4    4    0    0  0.19531772056E+03 -0.29071915493E+03  0.66535544528E+02  0.36390816763E+03  0.73044758675E+02 0.  0.
         11    1    3    3    0    0 -0.26038910586E+02  0.15348440029E+03 -0.20180127982E+03  0.25487103118E+03  0.00000000000E+00 0.  1.
        -11    1    3    3    0    0  0.37920203868E+02  0.87657124429E+02 -0.63789185124E+02  0.11485109256E+03  0.00000000000E+00 0. -1.
          2    1    6    6  502    0  0.10078116469E+03 -0.11163721185E+03  0.58096268084E+02  0.16122929818E+03  0.00000000000E+00 0. -1.
          3    1    5    5  503    0 -0.49771996923E+02  0.40130080100E+01  0.14097351075E+03  0.14955563060E+03  0.00000000000E+00 0. -1.
         -4    1    5    5    0  503 -0.15742701692E+03  0.45564622207E+02  0.10871290526E+04  0.10994130150E+04  0.00000000000E+00 0.  1.
         -1    1    6    6    0  502  0.94536555873E+02 -0.17908194308E+03  0.84392764436E+01  0.20267886945E+03  0.00000000000E+00 0.  1.
<mgrwt>
<rscale>  0 0.16946267E+04</rscale>
<asrwt>0</asrwt>
<pdfrwt beam="1">  1        2 0.23166512E+00 0.16946267E+04</pdfrwt>
<pdfrwt beam="2">  1       -2 0.73350100E-01 0.16946267E+04</pdfrwt>
<totfact> 0.20115764E+01</totfact>
</mgrwt>
</event>
<event>
12    1  0.1663913E-007  0.1603348E+04  0.7818608E-02  0.8818494E-01
          1   -1    0    0  501    0  0.00000000000E+00  0.00000000000E+00  0.24046721070E+03  0.24046721070E+03  0.00000000000E+00 0. -1.
         -1   -1    0    0    0  501 -0.00000000000E+00 -0.00000000000E+00 -0.26726352824E+04  0.26726352824E+04  0.00000000000E+00 0.  1.
         23    2    1    2    0    0  0.13339182668E+03 -0.55658535008E+02 -0.17432016227E+04  0.17515935903E+04  0.91852905245E+02 0.  0.
        254    2    1    2    0    0 -0.13339182668E+03  0.55658535008E+02 -0.68896644898E+03  0.11615089028E+04  0.92387061405E+03 0.  0.
        -24    2    4    4    0    0 -0.17828508305E+03 -0.39254774312E+03 -0.50414929096E+03  0.66817715313E+03  0.80093064186E+02 0.  0.
         24    2    4    4    0    0  0.44893256373E+02  0.44820627812E+03 -0.18481715802E+03  0.49333174966E+03  0.79464212740E+02 0.  0.
         13    1    3    3    0    0  0.97993706269E+01 -0.32458682617E+02 -0.16841007100E+03  0.17178924808E+03  0.00000000000E+00 0. -1.
        -13    1    3    3    0    0  0.12359245605E+03 -0.23199852391E+02 -0.15747915517E+04  0.15798043422E+04  0.00000000000E+00 0.  1.
          4    1    6    6  502    0 -0.50758899503E+01  0.26196801871E+03 -0.80538491443E+02  0.27411577133E+03  0.00000000000E+00 0. -1.
          3    1    5    5  503    0 -0.17706320898E+03 -0.39297754793E+03 -0.48446895839E+03  0.64845424264E+03  0.00000000000E+00 0. -1.
         -4    1    5    5    0  503 -0.12218740695E+01  0.42980481278E+00 -0.19680332567E+02  0.19722910494E+02  0.00000000000E+00 0.  1.
         -3    1    6    6    0  502  0.49969146323E+02  0.18623825941E+03 -0.10427866658E+03  0.21921597833E+03  0.00000000000E+00 0.  1.
<mgrwt>
<rscale>  0 0.16033479E+04</rscale>
<asrwt>0</asrwt>
<pdfrwt beam="1">  1        1 0.36994954E-01 0.16033479E+04</pdfrwt>
<pdfrwt beam="2">  1       -1 0.41117467E+00 0.16033479E+04</pdfrwt>
<totfact> 0.67659400E-01</totfact>
</mgrwt>
</event>
<event>
12    1  0.1663913E-007  0.3447793E+04  0.7818608E-02  0.8126275E-01
         -2   -1    0    0    0  501 -0.00000000000E+00  0.00000000000E+00  0.12525252243E+04  0.12525252243E+04  0.00000000000E+00 0.  1.
          2   -1    0    0  501    0  0.00000000000E+00 -0.00000000000E+00 -0.23726621004E+04  0.23726621004E+04  0.00000000000E+00 0. -1.
         23    2    1    2    0    0 -0.77984105434E+03  0.79613920140E+03  0.69300497154E+03  0.13155909695E+04  0.92379707831E+02 0.  0.
        254    2    1    2    0    0  0.77984105434E+03 -0.79613920140E+03 -0.18131418476E+04  0.23095963552E+04  0.89708542861E+03 0.  0.
        -24    2    4    4    0    0  0.76119172861E+03 -0.71352388502E+03 -0.87446846626E+03  0.13636855913E+04  0.80088146802E+02 0.  0.
         24    2    4    4    0    0  0.18649325738E+02 -0.82615316382E+02 -0.93867338133E+03  0.94591076385E+03  0.80413733311E+02 0.  0.
         13    1    3    3    0    0 -0.67441028226E+03  0.70452993765E+03  0.57106578576E+03  0.11301804252E+04  0.00000000000E+00 0.  1.
        -13    1    3    3    0    0 -0.10543077209E+03  0.91609263748E+02  0.12193918578E+03  0.18541054430E+03  0.00000000000E+00 0. -1.
          4    1    6    6  502    0 -0.67292382199E+01 -0.67210658670E+02 -0.34817665271E+03  0.35466820661E+03  0.00000000000E+00 0. -1.
          3    1    5    5  503    0  0.45633387068E+03 -0.37332254631E+03 -0.49197295625E+03  0.76788522241E+03  0.00000000000E+00 0. -1.
         -4    1    5    5    0  503  0.30485785793E+03 -0.34020133871E+03 -0.38249551001E+03  0.59580036890E+03  0.00000000000E+00 0.  1.
         -3    1    6    6    0  502  0.25378563957E+02 -0.15404657712E+02 -0.59049672862E+03  0.59124255724E+03  0.00000000000E+00 0.  1.
<mgrwt>
<rscale>  0 0.34477930E+04</rscale>
<asrwt>0</asrwt>
<pdfrwt beam="1">  1        2 0.36502493E+00 0.34477930E+04</pdfrwt>
<pdfrwt beam="2">  1       -2 0.19269619E+00 0.34477930E+04</pdfrwt>
<totfact> 0.50566963E-01</totfact>
</mgrwt>
</event>
<event>
12    1  0.1663913E-007  0.2642072E+04  0.7818608E-02  0.8354049E-01
          2   -1    0    0  501    0  0.00000000000E+00  0.00000000000E+00  0.14157877933E+04  0.14157877933E+04  0.00000000000E+00 0. -1.
         -2   -1    0    0    0  501 -0.00000000000E+00 -0.00000000000E+00 -0.12326250695E+04  0.12326250695E+04  0.00000000000E+00 0.  1.
         23    2    1    2    0    0 -0.27879623319E+03 -0.73693031919E+03  0.94204878905E+03  0.12316161123E+04  0.92890753226E+02 0.  0.
        254    2    1    2    0    0  0.27879623319E+03  0.73693031919E+03 -0.75888606519E+03  0.14167967506E+04  0.90033956787E+03 0.  0.
        -24    2    4    4    0    0  0.43308887180E+03  0.83273943449E+03 -0.77295315435E+03  0.12183579601E+04  0.76932460904E+02 0.  0.
         24    2    4    4    0    0 -0.15429263861E+03 -0.95809115303E+02  0.14067089162E+02  0.19843879043E+03  0.78704927724E+02 0.  0.
         13    1    3    3    0    0 -0.14031946573E+03 -0.34705389571E+03  0.37698164611E+03  0.53127311291E+03  0.00000000000E+00 0. -1.
        -13    1    3    3    0    0 -0.13847676746E+03 -0.38987642347E+03  0.56506714293E+03  0.70034299935E+03  0.00000000000E+00 0.  1.
          2    1    6    6  502    0 -0.71010320375E+02 -0.92064265749E+01  0.29220248467E+02  0.77337227844E+02  0.00000000000E+00 0. -1.
          1    1    5    5  503    0  0.33857391911E+03  0.62156684411E+03 -0.62060382598E+03  0.94134305607E+03  0.00000000000E+00 0. -1.
         -2    1    5    5    0  503  0.94514952687E+02  0.21117259038E+03 -0.15234932837E+03  0.27701490405E+03  0.00000000000E+00 0.  1.
         -1    1    6    6    0  502 -0.83282318231E+02 -0.86602688728E+02 -0.15153159305E+02  0.12110156259E+03  0.00000000000E+00 0.  1.
<mgrwt>
<rscale>  0 0.26420716E+04</rscale>
<asrwt>0</asrwt>
<pdfrwt beam="1">  1        2 0.21781351E+00 0.26420716E+04</pdfrwt>
<pdfrwt beam="2">  1       -2 0.18963463E+00 0.26420716E+04</pdfrwt>
<totfact> 0.19476236E+00</totfact>
</mgrwt>
</event>
<event>
12    1  0.1663913E-007  0.1887156E+04  0.7818608E-02  0.8661276E-01
         -1   -1    0    0    0  501 -0.00000000000E+00  0.00000000000E+00  0.60344282690E+03  0.60344282690E+03  0.00000000000E+00 0.  1.
          1   -1    0    0  501    0  0.00000000000E+00 -0.00000000000E+00 -0.14754336193E+04  0.14754336193E+04  0.00000000000E+00 0. -1.
         23    2    1    2    0    0 -0.22262135829E+03 -0.25833070072E+03  0.36657986342E+03  0.50874231957E+03  0.90238192312E+02 0.  0.
        254    2    1    2    0    0  0.22262135829E+03  0.25833070072E+03 -0.12385706558E+04  0.15701341266E+04  0.90275627168E+03 0.  0.
        -24    2    4    4    0    0 -0.31920442942E+02 -0.29458607631E+03 -0.20814630159E+03  0.37063704810E+03  0.79038392730E+02 0.  0.
         24    2    4    4    0    0  0.25454180123E+03  0.55291677703E+03 -0.10304243542E+04  0.11994970785E+04  0.80687054178E+02 0.  0.
         13    1    3    3    0    0 -0.84082571083E+02 -0.14552015871E+03  0.22470038821E+03  0.28059982148E+03  0.00000000000E+00 0. -1.
        -13    1    3    3    0    0 -0.13853878721E+03 -0.11281054201E+03  0.14187947522E+03  0.22814249809E+03  0.00000000000E+00 0.  1.
          4    1    6    6  502    0  0.25294013223E+03  0.52204999404E+03 -0.94723680792E+03  0.11107531126E+04  0.00000000000E+00 0. -1.
          1    1    5    5  503    0 -0.17254920936E+02 -0.28117074699E+03 -0.20896615638E+03  0.35074431681E+03  0.00000000000E+00 0. -1.
         -2    1    5    5    0  503 -0.14665522006E+02 -0.13415329324E+02  0.81985479001E+00  0.19892731297E+02  0.00000000000E+00 0.  1.
         -3    1    6    6    0  502  0.16016690007E+01  0.30866782998E+02 -0.83187546322E+02  0.88743965989E+02  0.00000000000E+00 0.  1.
<mgrwt>
<rscale>  0 0.18871564E+04</rscale>
<asrwt>0</asrwt>
<pdfrwt beam="1">  1        1 0.22698978E+00 0.18871564E+04</pdfrwt>
<pdfrwt beam="2">  1       -1 0.92837360E-01 0.18871564E+04</pdfrwt>
<totfact> 0.71849024E+00</totfact>
</mgrwt>
</event>
<event>
12    1  0.1663913E-007  0.2657635E+04  0.7818608E-02  0.8348883E-01
         -1   -1    0    0    0  501 -0.00000000000E+00  0.00000000000E+00  0.47016206719E+03  0.47016206719E+03  0.00000000000E+00 0. -1.
          1   -1    0    0  501    0  0.00000000000E+00 -0.00000000000E+00 -0.37556337060E+04  0.37556337060E+04  0.00000000000E+00 0.  1.
         23    2    1    2    0    0 -0.79298915729E+03 -0.85315012376E+03 -0.15432217755E+04  0.19355893597E+04  0.90971335654E+02 0.  0.
        254    2    1    2    0    0  0.79298915729E+03  0.85315012376E+03 -0.17422498633E+04  0.22902064134E+04  0.92353337393E+03 0.  0.
        -24    2    4    4    0    0  0.72305273402E+03  0.92395545175E+03 -0.17996626995E+04  0.21497887049E+04  0.79414802077E+02 0.  0.
         24    2    4    4    0    0  0.69936423270E+02 -0.70805327991E+02  0.57412836225E+02  0.14041770851E+03  0.80724230123E+02 0.  0.
         11    1    3    3    0    0 -0.76249021206E+03 -0.81029382567E+03 -0.14403366928E+04  0.18200376908E+04  0.00000000000E+00 0.  1.
        -11    1    3    3    0    0 -0.30498945226E+02 -0.42856298089E+02 -0.10288508270E+03  0.11555166891E+03  0.00000000000E+00 0. -1.
          4    1    6    6  502    0 -0.17034508381E+02 -0.16195094211E+02  0.20816018181E+02  0.31396849606E+02  0.00000000000E+00 0. -1.
          1    1    5    5  503    0  0.29038796938E+03  0.42292550271E+03 -0.82802120479E+03  0.97406892425E+03  0.00000000000E+00 0. -1.
         -2    1    5    5    0  503  0.43266476464E+03  0.50102994904E+03 -0.97164149474E+03  0.11757197807E+04  0.00000000000E+00 0.  1.
         -3    1    6    6    0  502  0.86970931651E+02 -0.54610233780E+02  0.36596818043E+02  0.10902085891E+03  0.00000000000E+00 0.  1.
<mgrwt>
<rscale>  0 0.26576354E+04</rscale>
<asrwt>0</asrwt>
<pdfrwt beam="1">  1        1 0.57778978E+00 0.26576354E+04</pdfrwt>
<pdfrwt beam="2">  1       -1 0.72332628E-01 0.26576354E+04</pdfrwt>
<totfact> 0.26244105E-01</totfact>
</mgrwt>
</event>
<event>
12    1  0.1663913E-007  0.1047294E+04  0.7818608E-02  0.9258142E-01
         -1   -1    0    0    0  501 -0.00000000000E+00  0.00000000000E+00  0.12373556459E+03  0.12373556459E+03  0.00000000000E+00 0.  1.
          1   -1    0    0  501    0  0.00000000000E+00 -0.00000000000E+00 -0.22160677252E+04  0.22160677252E+04  0.00000000000E+00 0. -1.
         23    2    1    2    0    0  0.34883559974E+02  0.57943384065E+02 -0.34995837962E+03  0.36783449165E+03  0.90868296273E+02 0.  0.
        254    2    1    2    0    0 -0.34883559974E+02 -0.57943384065E+02 -0.17423737810E+04  0.19719687981E+04  0.92098873478E+03 0.  0.
        -24    2    4    4    0    0  0.35534801657E+03 -0.23750530897E+03 -0.54271582898E+03  0.69542257120E+03  0.79944335927E+02 0.  0.
         24    2    4    4    0    0 -0.39023157655E+03  0.17956192490E+03 -0.11996579520E+04  0.12765462269E+04  0.76602215679E+02 0.  0.
         11    1    3    3    0    0 -0.18437303801E+02 -0.49872067670E+01 -0.15462649215E+03  0.15580166391E+03  0.00000000000E+00 0.  1.
        -11    1    3    3    0    0  0.53320863776E+02  0.62930590832E+02 -0.19533188747E+03  0.21203282774E+03  0.00000000000E+00 0. -1.
          2    1    6    6  502    0 -0.23324740139E+03  0.12896768809E+03 -0.64539891152E+03  0.69826697603E+03  0.00000000000E+00 0. -1.
          1    1    5    5  503    0  0.31390786982E+03 -0.20970176553E+03 -0.43028465183E+03  0.57241406587E+03  0.00000000000E+00 0. -1.
         -2    1    5    5    0  503  0.41440146754E+02 -0.27803543432E+02 -0.11243117714E+03  0.12300850533E+03  0.00000000000E+00 0.  1.
         -1    1    6    6    0  502 -0.15698417516E+03  0.50594236807E+02 -0.55425904046E+03  0.57827925086E+03  0.00000000000E+00 0.  1.
<mgrwt>
<rscale>  0 0.10472944E+04</rscale>
<asrwt>0</asrwt>
<pdfrwt beam="1">  1        1 0.34093350E+00 0.10472944E+04</pdfrwt>
<pdfrwt beam="2">  1       -1 0.19036241E-01 0.10472944E+04</pdfrwt>
<totfact> 0.47484309E+01</totfact>
</mgrwt>
</event>
<event>
12    1  0.2036138E-007  0.2184540E+04  0.7818608E-02  0.8524890E-01
          2   -1    0    0  501    0  0.00000000000E+00  0.00000000000E+00  0.19036618590E+04  0.19036618590E+04  0.00000000000E+00 0. -1.
         -2   -1    0    0    0  501 -0.00000000000E+00 -0.00000000000E+00 -0.62671535301E+03  0.62671535301E+03  0.00000000000E+00 0.  1.
         23    2    1    2    0    0 -0.60538140023E+03  0.53415997783E+03  0.98670864047E+02  0.81866581189E+03  0.93081955653E+02 0.  0.
        254    2    1    2    0    0  0.60538140023E+03 -0.53415997783E+03  0.11782756420E+04  0.17117114002E+04  0.94329682884E+03 0.  0.
        -24    2    4    4    0    0 -0.62471408160E+01  0.11645719280E+03 -0.83032891447E+02  0.16421266514E+03  0.80436520364E+02 0.  0.
         24    2    4    4    0    0  0.61162854105E+03 -0.65061717064E+03  0.12613085334E+04  0.15474987350E+04  0.80379994050E+02 0.  0.
         11    1    3    3    0    0 -0.11111225746E+02  0.33399295632E+01 -0.88889483928E+01  0.14616014183E+02  0.00000000000E+00 0. -1.
        -11    1    3    3    0    0 -0.59427017449E+03  0.53082004827E+03  0.10755981244E+03  0.80404979770E+03  0.00000000000E+00 0.  1.
          4    1    6    6  502    0  0.40648082354E+03 -0.38283404117E+03  0.75304857083E+03  0.93748104675E+03  0.00000000000E+00 0. -1.
          3    1    5    5  503    0 -0.41642171830E+02  0.83492413647E+02 -0.55286563720E+02  0.10845117675E+03  0.00000000000E+00 0. -1.
         -4    1    5    5    0  503  0.35395031014E+02  0.32964779154E+02 -0.27746327726E+02  0.55761488390E+02  0.00000000000E+00 0.  1.
         -3    1    6    6    0  502  0.20514771751E+03 -0.26778312946E+03  0.50825996259E+03  0.61001768826E+03  0.00000000000E+00 0.  1.
<mgrwt>
<rscale>  0 0.21845403E+04</rscale>
<asrwt>0</asrwt>
<pdfrwt beam="1">  1        2 0.29287105E+00 0.21845403E+04</pdfrwt>
<pdfrwt beam="2">  1       -2 0.96417748E-01 0.21845403E+04</pdfrwt>
<totfact> 0.62265472E+00</totfact>
</mgrwt>
</event>
<event>
12    1  0.1663913E-007  0.1315064E+04  0.7818608E-02  0.9017704E-01
          4   -1    0    0  501    0  0.00000000000E+00  0.00000000000E+00  0.39820676172E+03  0.39820676172E+03  0.00000000000E+00 0. -1.
         -4   -1    0    0    0  501 -0.00000000000E+00 -0.00000000000E+00 -0.10857381274E+04  0.10857381274E+04  0.00000000000E+00 0.  1.
         23    2    1    2    0    0  0.18595904094E+02 -0.30918405052E+03 -0.36084368471E+03  0.48444772274E+03  0.92416700468E+02 0.  0.
        254    2    1    2    0    0 -0.18595904094E+02  0.30918405052E+03 -0.32668768093E+03  0.99949716635E+03  0.89237276959E+03 0.  0.
        -24    2    4    4    0    0  0.25237224204E+03  0.45574549946E+03 -0.41262794744E+03  0.66957572538E+03  0.81695288607E+02 0.  0.
         24    2    4    4    0    0 -0.27096814614E+03 -0.14656144894E+03  0.85940266508E+02  0.32992144096E+03  0.80984154411E+02 0.  0.
         13    1    3    3    0    0 -0.93086445760E+01  0.27136935608E+01 -0.71223975813E+01  0.12030941106E+02  0.00000000000E+00 0. -1.
        -13    1    3    3    0    0  0.27904548670E+02 -0.31189774408E+03 -0.35372128713E+03  0.47241678164E+03  0.00000000000E+00 0.  1.
          4    1    6    6  502    0 -0.34911887370E+02 -0.21708546270E+01  0.33197589788E+02  0.48224811635E+02  0.00000000000E+00 0. -1.
          1    1    5    5  503    0  0.47233342711E+02  0.36851984109E+02 -0.34515715630E+02  0.69140379098E+02  0.00000000000E+00 0. -1.
         -2    1    5    5    0  503  0.20513889933E+03  0.41889351535E+03 -0.37811223181E+03  0.60043534628E+03  0.00000000000E+00 0.  1.
         -3    1    6    6    0  502 -0.23605625877E+03 -0.14439059431E+03  0.52742676721E+02  0.28169662933E+03  0.00000000000E+00 0.  1.
<mgrwt>
<rscale>  0 0.13150639E+04</rscale>
<asrwt>0</asrwt>
<pdfrwt beam="1">  1        4 0.61262579E-01 0.13150639E+04</pdfrwt>
<pdfrwt beam="2">  1       -4 0.16703663E+00 0.13150639E+04</pdfrwt>
<totfact> 0.10889044E+00</totfact>
</mgrwt>
</event>
<event>
12    1  0.1663913E-007  0.1191095E+04  0.7818608E-02  0.9120687E-01
          2   -1    0    0  501    0  0.00000000000E+00  0.00000000000E+00  0.17059727265E+04  0.17059727265E+04  0.00000000000E+00 0. -1.
         -2   -1    0    0    0  501 -0.00000000000E+00 -0.00000000000E+00 -0.20790282953E+03  0.20790282953E+03  0.00000000000E+00 0.  1.
         23    2    1    2    0    0  0.20602654620E+02  0.74602069364E+02  0.69684554904E+03  0.70666573466E+03  0.88276855363E+02 0.  0.
        254    2    1    2    0    0 -0.20602654620E+02 -0.74602069364E+02  0.80122434797E+03  0.12072098214E+04  0.89966947207E+03 0.  0.
        -24    2    4    4    0    0 -0.36830500048E+03  0.29675177255E+02  0.67614011930E+02  0.38467833110E+03  0.82925112501E+02 0.  0.
         24    2    4    4    0    0  0.34770234586E+03 -0.10427724662E+03  0.73361033604E+03  0.82253149030E+03  0.81260457251E+02 0.  0.
         11    1    3    3    0    0  0.14848723393E+02  0.76346888344E+02  0.69629770440E+03  0.70062816465E+03  0.00000000000E+00 0. -1.
        -11    1    3    3    0    0  0.57539312269E+01 -0.17448189805E+01  0.54784463684E+00  0.60375700066E+01  0.00000000000E+00 0.  1.
          2    1    6    6  502    0  0.32263941679E+03 -0.87444185160E+02  0.70797574763E+03  0.78292549966E+03  0.00000000000E+00 0. -1.
          1    1    5    5  503    0 -0.31762112110E+03  0.53358074003E+02  0.49364586330E+02  0.32583296797E+03  0.00000000000E+00 0. -1.
         -2    1    5    5    0  503 -0.50683879381E+02 -0.23682896748E+02  0.18249425599E+02  0.58845363132E+02  0.00000000000E+00 0.  1.
         -1    1    6    6    0  502  0.25062929074E+02 -0.16833061459E+02  0.25634588410E+02  0.39605990643E+02  0.00000000000E+00 0.  1.
<mgrwt>
<rscale>  0 0.11910946E+04</rscale>
<asrwt>0</asrwt>
<pdfrwt beam="1">  1        2 0.26245733E+00 0.11910946E+04</pdfrwt>
<pdfrwt beam="2">  1       -2 0.31985052E-01 0.11910946E+04</pdfrwt>
<totfact> 0.87351023E+01</totfact>
</mgrwt>
</event>
<event>
12    1  0.1663913E-007  0.1942125E+04  0.7818608E-02  0.8634168E-01
          2   -1    0    0  501    0  0.00000000000E+00  0.00000000000E+00  0.10512359515E+04  0.10512359515E+04  0.00000000000E+00 0. -1.
         -2   -1    0    0    0  501 -0.00000000000E+00 -0.00000000000E+00 -0.89700354315E+03  0.89700354315E+03  0.00000000000E+00 0.  1.
         23    2    1    2    0    0  0.52488833095E+03 -0.38702609306E+02  0.61220867452E+03  0.81292826477E+03  0.95117036152E+02 0.  0.
        254    2    1    2    0    0 -0.52488833095E+03  0.38702609306E+02 -0.45797626615E+03  0.11353112299E+04  0.89564707137E+03 0.  0.
        -24    2    4    4    0    0 -0.20468226900E+03  0.10273680584E+02  0.26207406430E+03  0.34255597407E+03  0.81617402766E+02 0.  0.
         24    2    4    4    0    0 -0.32020606195E+03  0.28428928721E+02 -0.72005033045E+03  0.79275525583E+03  0.81537053959E+02 0.  0.
         11    1    3    3    0    0  0.10537010377E+03  0.29720481858E+02  0.13651067394E+03  0.17498951372E+03  0.00000000000E+00 0.  1.
        -11    1    3    3    0    0  0.41951822717E+03 -0.68423091163E+02  0.47569800058E+03  0.63793875105E+03  0.00000000000E+00 0. -1.
          2    1    6    6  502    0 -0.66276007151E+02 -0.25394762961E+01 -0.82881261138E+02  0.10615206786E+03  0.00000000000E+00 0. -1.
          1    1    5    5  503    0 -0.20962813924E+02 -0.25850037036E+02  0.42822480343E+02  0.54234940814E+02  0.00000000000E+00 0. -1.
         -2    1    5    5    0  503 -0.18371945508E+03  0.36123717620E+02  0.21925158396E+03  0.28832103326E+03  0.00000000000E+00 0.  1.
         -1    1    6    6    0  502 -0.25393005480E+03  0.30968405018E+02 -0.63716906931E+03  0.68660318797E+03  0.00000000000E+00 0.  1.
<mgrwt>
<rscale>  0 0.19421250E+04</rscale>
<asrwt>0</asrwt>
<pdfrwt beam="1">  1        2 0.16172861E+00 0.19421250E+04</pdfrwt>
<pdfrwt beam="2">  1       -2 0.13800055E+00 0.19421250E+04</pdfrwt>
<totfact> 0.81314852E+00</totfact>
</mgrwt>
</event>
<event>
12    1  0.1663913E-007  0.2357709E+04  0.7818608E-02  0.8455509E-01
         -2   -1    0    0    0  501 -0.00000000000E+00  0.00000000000E+00  0.20039171936E+04  0.20039171936E+04  0.00000000000E+00 0.  1.
          2   -1    0    0  501    0  0.00000000000E+00 -0.00000000000E+00 -0.69349064510E+03  0.69349064510E+03  0.00000000000E+00 0. -1.
         23    2    1    2    0    0  0.28214718883E+03  0.33641393098E+03  0.16004938589E+04  0.16622014460E+04  0.92475325029E+02 0.  0.
        254    2    1    2    0    0 -0.28214718883E+03 -0.33641393098E+03 -0.29006731039E+03  0.10352063927E+04  0.89147734785E+03 0.  0.
        -24    2    4    4    0    0 -0.43899924883E+03 -0.55063148621E+03 -0.14952440260E+03  0.72422162080E+03  0.78892553408E+02 0.  0.
         24    2    4    4    0    0  0.15685206000E+03  0.21421755523E+03 -0.14054290780E+03  0.31098477186E+03  0.80420704433E+02 0.  0.
         13    1    3    3    0    0  0.23087082177E+03  0.23319671327E+03  0.10633458330E+04  0.11128281107E+04  0.00000000000E+00 0.  1.
        -13    1    3    3    0    0  0.51276367060E+02  0.10321721771E+03  0.53714802593E+03  0.54937333537E+03  0.00000000000E+00 0. -1.
          2    1    6    6  502    0  0.14014356883E+03  0.16760406578E+03 -0.14348545541E+03  0.26137983600E+03  0.00000000000E+00 0. -1.
          1    1    5    5  503    0 -0.32485772842E+03 -0.39494189016E+03 -0.14326948417E+03  0.53107229772E+03  0.00000000000E+00 0. -1.
         -2    1    5    5    0  503 -0.11414152041E+03 -0.15568959605E+03 -0.62549184296E+01  0.19314932308E+03  0.00000000000E+00 0.  1.
         -1    1    6    6    0  502  0.16708491165E+02  0.46613489448E+02  0.29425476089E+01  0.49604935863E+02  0.00000000000E+00 0.  1.
<mgrwt>
<rscale>  0 0.23577089E+04</rscale>
<asrwt>0</asrwt>
<pdfrwt beam="1">  1        2 0.10669087E+00 0.23577089E+04</pdfrwt>
<pdfrwt beam="2">  1       -2 0.30829495E+00 0.23577089E+04</pdfrwt>
<totfact> 0.10580690E+00</totfact>
</mgrwt>
</event>
<event>
12    1  0.1663913E-007  0.1602967E+04  0.7818608E-02  0.8818728E-01
         -1   -1    0    0    0  501 -0.00000000000E+00  0.00000000000E+00  0.61463372466E+03  0.61463372466E+03  0.00000000000E+00 0.  1.
          1   -1    0    0  501    0  0.00000000000E+00 -0.00000000000E+00 -0.10451356024E+04  0.10451356024E+04  0.00000000000E+00 0. -1.
         23    2    1    2    0    0  0.52616598171E+03 -0.11761812365E+03 -0.19941422801E+03  0.58182675306E+03  0.89842489499E+02 0.  0.
        254    2    1    2    0    0 -0.52616598171E+03  0.11761812365E+03 -0.23108764969E+03  0.10779425740E+04  0.90436388009E+03 0.  0.
        -24    2    4    4    0    0 -0.12799885657E+03  0.32886020024E+03 -0.44427573325E+03  0.57309854564E+03  0.80797755355E+02 0.  0.
         24    2    4    4    0    0 -0.39816712514E+03 -0.21124207659E+03  0.21318808356E+03  0.50484402833E+03  0.79107897827E+02 0.  0.
         11    1    3    3    0    0  0.51845717761E+02 -0.59394177802E+01 -0.49677660245E+02  0.72049462602E+02  0.00000000000E+00 0.  1.
        -11    1    3    3    0    0  0.47432026395E+03 -0.11167870587E+03 -0.14973656777E+03  0.50977729046E+03  0.00000000000E+00 0. -1.
          2    1    6    6  502    0 -0.29091861890E+03 -0.12115457183E+03  0.17111139854E+03  0.35859612911E+03  0.00000000000E+00 0. -1.
          1    1    5    5  503    0 -0.62546689224E+02  0.25836075789E+03 -0.32682224671E+03  0.42127799669E+03  0.00000000000E+00 0. -1.
         -2    1    5    5    0  503 -0.65452167348E+02  0.70499442354E+02 -0.11745348654E+03  0.15182054895E+03  0.00000000000E+00 0.  1.
         -1    1    6    6    0  502 -0.10724850624E+03 -0.90087504757E+02  0.42076685025E+02  0.14624789922E+03  0.00000000000E+00 0.  1.
<mgrwt>
<rscale>  0 0.16029667E+04</rscale>
<asrwt>0</asrwt>
<pdfrwt beam="1">  1        1 0.16079009E+00 0.16029667E+04</pdfrwt>
<pdfrwt beam="2">  1       -1 0.94559036E-01 0.16029667E+04</pdfrwt>
<totfact> 0.14491934E+01</totfact>
</mgrwt>
</event>
<event>
12    1  0.1663913E-007  0.3298856E+04  0.7818608E-02  0.8163187E-01
         -2   -1    0    0    0  501 -0.00000000000E+00  0.00000000000E+00  0.72232782537E+03  0.72232782537E+03  0.00000000000E+00 0.  1.
          2   -1    0    0  501    0  0.00000000000E+00 -0.00000000000E+00 -0.37664510012E+04  0.37664510012E+04  0.00000000000E+00 0. -1.
         23    2    1    2    0    0 -0.28200960110E+03  0.20384099287E+03  0.61056785091E+03  0.70830907110E+03  0.88476404490E+02 0.  0.
        254    2    1    2    0    0  0.28200960110E+03 -0.20384099287E+03 -0.36546910267E+04  0.37804697555E+04  0.90227739946E+03 0.  0.
        -24    2    4    4    0    0 -0.14787695625E+03 -0.17435196036E+03 -0.25146928895E+03  0.34915442176E+03  0.80036283507E+02 0.  0.
         24    2    4    4    0    0  0.42988655735E+03 -0.29489032510E+02 -0.34032217378E+04  0.34313153337E+04  0.79590624561E+02 0.  0.
         13    1    3    3    0    0 -0.20517512418E+03  0.18019435075E+03  0.51904244449E+03  0.58649117198E+03  0.00000000000E+00 0.  1.
        -13    1    3    3    0    0 -0.76834476912E+02  0.23646642124E+02  0.91525406419E+02  0.12181789912E+03  0.00000000000E+00 0. -1.
          2    1    6    6  502    0  0.22115003100E+03 -0.52119833972E+02 -0.18851837437E+04  0.18988263641E+04  0.00000000000E+00 0. -1.
          3    1    5    5  503    0 -0.13761991676E+03 -0.18271201847E+03 -0.24109753164E+03  0.33234160580E+03  0.00000000000E+00 0. -1.
         -4    1    5    5    0  503 -0.10257039497E+02  0.83600581108E+01 -0.10371757306E+02  0.16812815959E+02  0.00000000000E+00 0.  1.
         -3    1    6    6    0  502  0.20873652635E+03  0.22630801461E+02 -0.15180379941E+04  0.15324889696E+04  0.00000000000E+00 0.  1.
<mgrwt>
<rscale>  0 0.32988558E+04</rscale>
<asrwt>0</asrwt>
<pdfrwt beam="1">  1        2 0.57945399E+00 0.32988558E+04</pdfrwt>
<pdfrwt beam="2">  1       -2 0.11112736E+00 0.32988558E+04</pdfrwt>
<totfact> 0.27828668E-01</totfact>
</mgrwt>
</event>
<event>
12    1  0.1663913E-007  0.1828823E+04  0.7818608E-02  0.8691120E-01
         -1   -1    0    0    0  501 -0.00000000000E+00  0.00000000000E+00  0.13247403383E+04  0.13247403383E+04  0.00000000000E+00 0.  1.
          1   -1    0    0  501    0  0.00000000000E+00 -0.00000000000E+00 -0.63117938797E+03  0.63117938797E+03  0.00000000000E+00 0. -1.
         23    2    1    2    0    0  0.22135243895E+03 -0.58395159964E+03  0.57840894131E+03  0.85615590009E+03  0.91921971864E+02 0.  0.
        254    2    1    2    0    0 -0.22135243895E+03  0.58395159964E+03  0.11515200901E+03  0.10997638262E+04  0.89789983586E+03 0.  0.
        -24    2    4    4    0    0 -0.48194594297E+03  0.15434010019E+03 -0.14024036696E+03  0.53124549504E+03  0.80384432571E+02 0.  0.
         24    2    4    4    0    0  0.26059350402E+03  0.42961149945E+03  0.25539237596E+03  0.56851833114E+03  0.74248315420E+02 0.  0.
         11    1    3    3    0    0  0.83068702745E+02 -0.22718059269E+03  0.16476017215E+03  0.29267276162E+03  0.00000000000E+00 0. -1.
        -11    1    3    3    0    0  0.13828373621E+03 -0.35677100695E+03  0.41364876917E+03  0.56348313846E+03  0.00000000000E+00 0.  1.
          2    1    6    6  502    0  0.12957185289E+03  0.27865034081E+03  0.16957834947E+03  0.35098674349E+03  0.00000000000E+00 0. -1.
          3    1    5    5  503    0 -0.24822447426E+03  0.52327192122E+02 -0.10182887781E+03  0.27335443112E+03  0.00000000000E+00 0. -1.
         -4    1    5    5    0  503 -0.23372146872E+03  0.10201290807E+03 -0.38411489143E+02  0.25789106392E+03  0.00000000000E+00 0.  1.
         -1    1    6    6    0  502  0.13102165113E+03  0.15096115863E+03  0.85814026495E+02  0.21753158765E+03  0.00000000000E+00 0.  1.
<mgrwt>
<rscale>  0 0.18288234E+04</rscale>
<asrwt>0</asrwt>
<pdfrwt beam="1">  1        1 0.97104521E-01 0.18288234E+04</pdfrwt>
<pdfrwt beam="2">  1       -1 0.20380621E+00 0.18288234E+04</pdfrwt>
<totfact> 0.42416973E+00</totfact>
</mgrwt>
</event>
<event>
12    1  0.1663913E-007  0.1272288E+04  0.7818608E-02  0.9051834E-01
         -2   -1    0    0    0  501 -0.00000000000E+00  0.00000000000E+00  0.36044680297E+03  0.36044680297E+03  0.00000000000E+00 0.  1.
          2   -1    0    0  501    0  0.00000000000E+00 -0.00000000000E+00 -0.11227161502E+04  0.11227161502E+04  0.00000000000E+00 0. -1.
         23    2    1    2    0    0 -0.22657772239E+03 -0.20281493682E+03 -0.23274530458E+03  0.39381120519E+03  0.91899541071E+02 0.  0.
        254    2    1    2    0    0  0.22657772239E+03  0.20281493682E+03 -0.52952404266E+03  0.10893517480E+04  0.90211981257E+03 0.  0.
        -24    2    4    4    0    0 -0.25190770642E+02  0.52720502312E+03 -0.28938333603E+03  0.60694552200E+03  0.77848828934E+02 0.  0.
         24    2    4    4    0    0  0.25176849304E+03 -0.32439008631E+03 -0.24014070663E+03  0.48240622600E+03  0.80199162883E+02 0.  0.
         11    1    3    3    0    0 -0.23427974247E+00  0.54934137457E+01 -0.17576083077E+02  0.18416057610E+02  0.00000000000E+00 0.  1.
        -11    1    3    3    0    0 -0.22634344265E+03 -0.20830835056E+03 -0.21516922151E+03  0.37539514758E+03  0.00000000000E+00 0. -1.
          2    1    6    6  502    0  0.13967754071E+03 -0.11532675810E+03 -0.10087628604E+03  0.20733089880E+03  0.00000000000E+00 0. -1.
          1    1    5    5  503    0  0.23068666350E+02  0.31659573993E+03 -0.17002209032E+03  0.36010073189E+03  0.00000000000E+00 0. -1.
         -2    1    5    5    0  503 -0.48259436992E+02  0.21060928319E+03 -0.11936124572E+03  0.24684479011E+03  0.00000000000E+00 0.  1.
         -1    1    6    6    0  502  0.11209095233E+03 -0.20906332821E+03 -0.13926442058E+03  0.27507532720E+03  0.00000000000E+00 0.  1.
<mgrwt>
<rscale>  0 0.12722884E+04</rscale>
<asrwt>0</asrwt>
<pdfrwt beam="1">  1        2 0.17272556E+00 0.12722884E+04</pdfrwt>
<pdfrwt beam="2">  1       -2 0.55453355E-01 0.12722884E+04</pdfrwt>
<totfact> 0.63311422E+01</totfact>
</mgrwt>
</event>
<event>
12    1  0.1663913E-007  0.4680732E+04  0.7818608E-02  0.7879738E-01
          2   -1    0    0  501    0  0.00000000000E+00  0.00000000000E+00  0.25414631848E+04  0.25414631848E+04  0.00000000000E+00 0. -1.
         -2   -1    0    0    0  501 -0.00000000000E+00 -0.00000000000E+00 -0.21551813039E+04  0.21551813039E+04  0.00000000000E+00 0.  1.
         23    2    1    2    0    0 -0.22248499047E+04  0.13305720479E+01  0.53870262217E+03  0.22909626806E+04  0.91381725433E+02 0.  0.
        254    2    1    2    0    0  0.22248499047E+04 -0.13305720479E+01 -0.15242074121E+03  0.24056818081E+04  0.90228266670E+03 0.  0.
        -24    2    4    4    0    0  0.47566384942E+03 -0.30542918822E+03  0.17857324812E+03  0.59794078405E+03  0.78113312747E+02 0.  0.
         24    2    4    4    0    0  0.17491860553E+04  0.30409861617E+03 -0.33099398933E+03  0.18077410241E+04  0.79011168261E+02 0.  0.
         13    1    3    3    0    0 -0.73498732005E+03  0.35086954452E+02  0.15194496880E+03  0.75134860654E+03  0.00000000000E+00 0.  1.
        -13    1    3    3    0    0 -0.14898625847E+04 -0.33756382404E+02  0.38675765338E+03  0.15396140740E+04  0.00000000000E+00 0. -1.
          2    1    6    6  502    0  0.71956547649E+03  0.85689539346E+02 -0.13477792595E+03  0.73707683550E+03  0.00000000000E+00 0. -1.
          3    1    5    5  503    0  0.42130252708E+03 -0.29573667979E+03  0.16984689693E+03  0.54203687282E+03  0.00000000000E+00 0. -1.
         -2    1    5    5    0  503  0.54361322343E+02 -0.96925084289E+01  0.87263511889E+01  0.55903911237E+02  0.00000000000E+00 0.  1.
         -1    1    6    6    0  502  0.10296205788E+04  0.21840907683E+03 -0.19621606338E+03  0.10706641886E+04  0.00000000000E+00 0.  1.
<mgrwt>
<rscale>  0 0.46807324E+04</rscale>
<asrwt>0</asrwt>
<pdfrwt beam="1">  1        2 0.39099434E+00 0.46807324E+04</pdfrwt>
<pdfrwt beam="2">  1       -2 0.33156635E+00 0.46807324E+04</pdfrwt>
<totfact> 0.49913912E-02</totfact>
</mgrwt>
</event>
<event>
12    1  0.1663913E-007  0.1540588E+04  0.7818608E-02  0.8857902E-01
         -1   -1    0    0    0  501 -0.00000000000E+00  0.00000000000E+00  0.57639702986E+03  0.57639702986E+03  0.00000000000E+00 0.  1.
          1   -1    0    0  501    0  0.00000000000E+00 -0.00000000000E+00 -0.10294164083E+04  0.10294164083E+04  0.00000000000E+00 0. -1.
         23    2    1    2    0    0 -0.60794262043E+02  0.32627133138E+03 -0.54002382865E+03  0.64050012052E+03  0.92009482642E+02 0.  0.
        254    2    1    2    0    0  0.60794262043E+02 -0.32627133138E+03  0.87004450198E+02  0.96531331764E+03  0.90228105537E+03 0.  0.
        -24    2    4    4    0    0 -0.32880046529E+03 -0.27720500801E+03  0.28200859658E+03  0.51974585118E+03  0.75196667730E+02 0.  0.
         24    2    4    4    0    0  0.38959472733E+03 -0.49066323371E+02 -0.19500414638E+03  0.44556746646E+03  0.79449319764E+02 0.  0.
         11    1    3    3    0    0 -0.38096592734E+02  0.33629868024E+02 -0.84282692878E+02  0.98416922935E+02  0.00000000000E+00 0.  1.
        -11    1    3    3    0    0 -0.22697669310E+02  0.29264146336E+03 -0.45574113577E+03  0.54208319758E+03  0.00000000000E+00 0. -1.
          2    1    6    6  502    0  0.27933284346E+03 -0.20628904513E+02 -0.17410562520E+03  0.32979563045E+03  0.00000000000E+00 0. -1.
          3    1    5    5  503    0 -0.30633113802E+03 -0.26185922264E+03  0.23807621008E+03  0.46806976020E+03  0.00000000000E+00 0. -1.
         -4    1    5    5    0  503 -0.22469327270E+02 -0.15345785366E+02  0.43932386493E+02  0.51676090984E+02  0.00000000000E+00 0.  1.
         -3    1    6    6    0  502  0.11026188387E+03 -0.28437418858E+02 -0.20898521177E+02  0.11577183601E+03  0.00000000000E+00 0.  1.
<mgrwt>
<rscale>  0 0.15405876E+04</rscale>
<asrwt>0</asrwt>
<pdfrwt beam="1">  1        1 0.15837175E+00 0.15405876E+04</pdfrwt>
<pdfrwt beam="2">  1       -1 0.88676466E-01 0.15405876E+04</pdfrwt>
<totfact> 0.17276830E+01</totfact>
</mgrwt>
</event>
<event>
12    1  0.1663913E-007  0.1801608E+04  0.7818608E-02  0.8705445E-01
         -2   -1    0    0    0  501 -0.00000000000E+00  0.00000000000E+00  0.72910471627E+03  0.72910471627E+03  0.00000000000E+00 0.  1.
          2   -1    0    0  501    0  0.00000000000E+00 -0.00000000000E+00 -0.11129376339E+04  0.11129376339E+04  0.00000000000E+00 0. -1.
         23    2    1    2    0    0 -0.67093128523E+03 -0.33166048226E+02 -0.13608895956E+03  0.69128241171E+03  0.90013285470E+02 0.  0.
        254    2    1    2    0    0  0.67093128523E+03  0.33166048226E+02 -0.24774395802E+03  0.11507599384E+04  0.90090098838E+03 0.  0.
        -24    2    4    4    0    0  0.58562578131E+03 -0.82859920732E+02 -0.54611215050E+03  0.80959635491E+03  0.85932850294E+02 0.  0.
         24    2    4    4    0    0  0.85305503921E+02  0.11602596896E+03  0.29836819247E+03  0.34116358350E+03  0.81424553777E+02 0.  0.
         13    1    3    3    0    0 -0.37269851842E+03 -0.15214501814E+02 -0.12094338458E+03  0.39212621562E+03  0.00000000000E+00 0. -1.
        -13    1    3    3    0    0 -0.29823276681E+03 -0.17951546411E+02 -0.15145574983E+02  0.29915619609E+03  0.00000000000E+00 0.  1.
          4    1    6    6  502    0  0.54271814897E+02  0.73572928123E+02  0.26128137218E+03  0.27681466922E+03  0.00000000000E+00 0. -1.
          3    1    5    5  503    0  0.52319747557E+03 -0.58439732293E+02 -0.45090068291E+03  0.69315382607E+03  0.00000000000E+00 0. -1.
         -4    1    5    5    0  503  0.62428305746E+02 -0.24420188439E+02 -0.95211467589E+02  0.11644252884E+03  0.00000000000E+00 0.  1.
         -3    1    6    6    0  502  0.31033689024E+02  0.42453040834E+02  0.37086820291E+02  0.64348914287E+02  0.00000000000E+00 0.  1.
<mgrwt>
<rscale>  0 0.18016083E+04</rscale>
<asrwt>0</asrwt>
<pdfrwt beam="1">  1        2 0.17122117E+00 0.18016083E+04</pdfrwt>
<pdfrwt beam="2">  1       -2 0.11216996E+00 0.18016083E+04</pdfrwt>
<totfact> 0.12653088E+01</totfact>
</mgrwt>
</event>
<event>
12    1  0.1663913E-007  0.1778682E+04  0.7818608E-02  0.8717719E-01
          2   -1    0    0  501    0  0.00000000000E+00  0.00000000000E+00  0.26843670348E+04  0.26843670348E+04  0.00000000000E+00 0. -1.
         -2   -1    0    0    0  501 -0.00000000000E+00 -0.00000000000E+00 -0.29464193407E+03  0.29464193407E+03  0.00000000000E+00 0.  1.
         23    2    1    2    0    0 -0.44830546121E+03  0.49090724071E+03  0.87048621560E+03  0.10991443804E+04  0.91675579020E+02 0.  0.
        254    2    1    2    0    0  0.44830546121E+03 -0.49090724071E+03  0.15192388852E+04  0.18798645885E+04  0.88534534253E+03 0.  0.
        -24    2    4    4    0    0 -0.21781145337E+03 -0.99001104125E+01  0.60518936390E+03  0.64835032116E+03  0.81019327087E+02 0.  0.
         24    2    4    4    0    0  0.66611691458E+03 -0.48100713030E+03  0.91404952126E+03  0.12315142674E+04  0.77854095404E+02 0.  0.
         11    1    3    3    0    0 -0.39546068176E+03  0.43485786512E+03  0.81204928961E+03  0.10024542695E+04  0.00000000000E+00 0.  1.
        -11    1    3    3    0    0 -0.52844779453E+02  0.56049375589E+02  0.58436925992E+02  0.96690110863E+02  0.00000000000E+00 0. -1.
          2    1    6    6  502    0  0.50800898412E+03 -0.39306463672E+03  0.67571215669E+03  0.93228743169E+03  0.00000000000E+00 0. -1.
          1    1    5    5  503    0 -0.13133195735E+03 -0.28465306719E+02  0.45097948547E+03  0.47057502379E+03  0.00000000000E+00 0. -1.
         -2    1    5    5    0  503 -0.86479496020E+02  0.18565196307E+02  0.15420987843E+03  0.17777529736E+03  0.00000000000E+00 0.  1.
         -1    1    6    6    0  502  0.15810793046E+03 -0.87942493582E+02  0.23833736457E+03  0.29922683570E+03  0.00000000000E+00 0.  1.
<mgrwt>
<rscale>  0 0.17786816E+04</rscale>
<asrwt>0</asrwt>
<pdfrwt beam="1">  1        2 0.41297953E+00 0.17786816E+04</pdfrwt>
<pdfrwt beam="2">  1       -2 0.45329530E-01 0.17786816E+04</pdfrwt>
<totfact> 0.11866037E+01</totfact>
</mgrwt>
</event>
<event>
12    1  0.1663913E-007  0.1211119E+04  0.7818608E-02  0.9103179E-01
          2   -1    0    0  501    0  0.00000000000E+00  0.00000000000E+00  0.35629612079E+04  0.35629612079E+04  0.00000000000E+00 0. -1.
         -2   -1    0    0    0  501 -0.00000000000E+00 -0.00000000000E+00 -0.10292064042E+03  0.10292064042E+03  0.00000000000E+00 0.  1.
         23    2    1    2    0    0  0.21680502848E+03  0.18168207192E+02  0.12106885938E+04  0.12335339281E+04  0.92220260983E+02 0.  0.
        254    2    1    2    0    0 -0.21680502848E+03 -0.18168207192E+02  0.22493519737E+04  0.24323479202E+04  0.89966527067E+03 0.  0.
        -24    2    4    4    0    0 -0.40794388007E+03 -0.29948059969E+03  0.17463417307E+04  0.18199737543E+04  0.80549284579E+02 0.  0.
         24    2    4    4    0    0  0.19113885159E+03  0.28131239249E+03  0.50301024299E+03  0.61237416586E+03  0.79448673388E+02 0.  0.
         11    1    3    3    0    0  0.13912304620E+03  0.28267379008E+02  0.97217026265E+03  0.98248118876E+03  0.00000000000E+00 0. -1.
        -11    1    3    3    0    0  0.77681982274E+02 -0.10099171816E+02  0.23851833118E+03  0.25105273938E+03  0.00000000000E+00 0.  1.
          4    1    6    6  502    0  0.23243015418E+02  0.26565616490E+01  0.25873590100E+02  0.34881768163E+02  0.00000000000E+00 0. -1.
          1    1    5    5  503    0 -0.96619886391E+02 -0.57211714052E+02  0.51031970707E+03  0.52252730655E+03  0.00000000000E+00 0. -1.
         -2    1    5    5    0  503 -0.31132399367E+03 -0.24226888563E+03  0.12360220236E+04  0.12974464478E+04  0.00000000000E+00 0.  1.
         -3    1    6    6    0  502  0.16789583617E+03  0.27865583084E+03  0.47713665289E+03  0.57749239770E+03  0.00000000000E+00 0.  1.
<mgrwt>
<rscale>  0 0.12111189E+04</rscale>
<asrwt>0</asrwt>
<pdfrwt beam="1">  1        2 0.54814778E+00 0.12111189E+04</pdfrwt>
<pdfrwt beam="2">  1       -2 0.15833947E-01 0.12111189E+04</pdfrwt>
<totfact> 0.23804613E+01</totfact>
</mgrwt>
</event>
<event>
12    1  0.1663913E-007  0.1747242E+04  0.7818608E-02  0.8734870E-01
          2   -1    0    0  501    0  0.00000000000E+00  0.00000000000E+00  0.19855381777E+04  0.19855381777E+04  0.00000000000E+00 0.  1.
         -2   -1    0    0    0  501 -0.00000000000E+00 -0.00000000000E+00 -0.38438643191E+03  0.38438643191E+03  0.00000000000E+00 0. -1.
         23    2    1    2    0    0  0.21027770364E+03  0.29555801680E+03 -0.12918326539E+03  0.39594011137E+03  0.92244250723E+02 0.  0.
        254    2    1    2    0    0 -0.21027770364E+03 -0.29555801680E+03  0.17303350112E+04  0.19739844982E+04  0.87805711342E+03 0.  0.
        -24    2    4    4    0    0  0.25362946928E+03 -0.27274928213E+03  0.35545167913E+03  0.52061358641E+03  0.77282155581E+02 0.  0.
         24    2    4    4    0    0 -0.46390717292E+03 -0.22808734673E+02  0.13748833321E+04  0.14533709118E+04  0.79074187439E+02 0.  0.
         13    1    3    3    0    0  0.16653622583E+03  0.27979186981E+03 -0.12667270480E+03  0.34937627147E+03  0.00000000000E+00 0. -1.
        -13    1    3    3    0    0  0.43741477804E+02  0.15766146990E+02 -0.25105605929E+01  0.46563839896E+02  0.00000000000E+00 0.  1.
          2    1    6    6  502    0 -0.22921257951E+03 -0.54298260358E+01  0.79933844873E+03  0.83157070970E+03  0.00000000000E+00 0. -1.
          3    1    5    5  503    0  0.25026087857E+03 -0.23896886967E+03  0.31649941241E+03  0.46894403298E+03  0.00000000000E+00 0. -1.
         -4    1    5    5    0  503  0.33685907162E+01 -0.33780412460E+02  0.38952266716E+02  0.51669553431E+02  0.00000000000E+00 0.  1.
         -1    1    6    6    0  502 -0.23469459341E+03 -0.17378908637E+02  0.57554488333E+03  0.62180020213E+03  0.00000000000E+00 0.  1.
<mgrwt>
<rscale>  0 0.17472423E+04</rscale>
<asrwt>0</asrwt>
<pdfrwt beam="1">  1        2 0.30546741E+00 0.17472423E+04</pdfrwt>
<pdfrwt beam="2">  1       -2 0.59136375E-01 0.17472423E+04</pdfrwt>
<totfact> 0.17232158E+01</totfact>
</mgrwt>
</event>
<event>
12    1  0.1663913E-007  0.3806142E+04  0.7818608E-02  0.8044838E-01
          2   -1    0    0  501    0  0.00000000000E+00  0.00000000000E+00  0.18838620379E+04  0.18838620379E+04  0.00000000000E+00 0.  1.
         -2   -1    0    0    0  501 -0.00000000000E+00 -0.00000000000E+00 -0.19224756762E+04  0.19224756762E+04  0.00000000000E+00 0. -1.
         23    2    1    2    0    0  0.78373524592E+03 -0.11818227116E+04 -0.11165395370E+04  0.18071679992E+04  0.90828312803E+02 0.  0.
        254    2    1    2    0    0 -0.78373524592E+03  0.11818227116E+04  0.10779258987E+04  0.19991697149E+04  0.90763949256E+03 0.  0.
        -24    2    4    4    0    0 -0.27073623657E+03 -0.90892664368E+02  0.28942871072E+03  0.41458426579E+03  0.80941637158E+02 0.  0.
         24    2    4    4    0    0 -0.51299900935E+03  0.12727153759E+04  0.78849718803E+03  0.15845854491E+04  0.78808744603E+02 0.  0.
         11    1    3    3    0    0  0.55336379737E+03 -0.85891735795E+03 -0.75447317109E+03  0.12701103440E+04  0.00000000000E+00 0. -1.
        -11    1    3    3    0    0  0.23037144855E+03 -0.32290535362E+03 -0.36206636590E+03  0.53705765521E+03  0.00000000000E+00 0.  1.
          2    1    6    6  502    0 -0.31079705523E+03  0.68921210988E+03  0.40569980237E+03  0.85802125358E+03  0.00000000000E+00 0. -1.
          3    1    5    5  503    0 -0.21218637666E+03 -0.10334129763E+03  0.24374313979E+03  0.33928336303E+03  0.00000000000E+00 0. -1.
         -4    1    5    5    0  503 -0.58549859908E+02  0.12448633259E+02  0.45685570929E+02  0.75300902759E+02  0.00000000000E+00 0.  1.
         -1    1    6    6    0  502 -0.20220195412E+03  0.58350326605E+03  0.38279738566E+03  0.72656419552E+03  0.00000000000E+00 0.  1.
<mgrwt>
<rscale>  0 0.38061418E+04</rscale>
<asrwt>0</asrwt>
<pdfrwt beam="1">  1        2 0.28982493E+00 0.38061418E+04</pdfrwt>
<pdfrwt beam="2">  1       -2 0.29576549E+00 0.38061418E+04</pdfrwt>
<totfact> 0.20958952E-01</totfact>
</mgrwt>
</event>
<event>
12    1  0.1663913E-007  0.1296636E+04  0.7818608E-02  0.9032237E-01
          2   -1    0    0  501    0  0.00000000000E+00  0.00000000000E+00  0.17833164539E+04  0.17833164539E+04  0.00000000000E+00 0. -1.
         -2   -1    0    0    0  501 -0.00000000000E+00 -0.00000000000E+00 -0.23569342758E+03  0.23569342758E+03  0.00000000000E+00 0.  1.
         23    2    1    2    0    0  0.21136308751E+03 -0.60610428650E+02  0.17443695909E+02  0.23817689854E+03  0.89866421142E+02 0.  0.
        254    2    1    2    0    0 -0.21136308751E+03  0.60610428650E+02  0.15301793305E+04  0.17808329830E+04  0.88406411029E+03 0.  0.
        -24    2    4    4    0    0 -0.52270838405E+03  0.16229690300E+03  0.11274779647E+04  0.12557588524E+04  0.78481813161E+02 0.  0.
         24    2    4    4    0    0  0.31134529654E+03 -0.10168647435E+03  0.40270136574E+03  0.52507413058E+03  0.79110175625E+02 0.  0.
         13    1    3    3    0    0  0.11010503129E+02  0.88106578052E+00 -0.22280977858E+02  0.24868643517E+02  0.00000000000E+00 0. -1.
        -13    1    3    3    0    0  0.20035258438E+03 -0.61491494431E+02  0.39724673768E+02  0.21330825502E+03  0.00000000000E+00 0.  1.
          2    1    6    6  502    0  0.29826927249E+03 -0.10656351364E+03  0.35682017905E+03  0.47711736662E+03  0.00000000000E+00 0. -1.
          3    1    5    5  503    0 -0.48943556226E+03  0.15342659832E+03  0.10912124234E+04  0.12057493287E+04  0.00000000000E+00 0. -1.
         -4    1    5    5    0  503 -0.33272821789E+02  0.88703046844E+01  0.36265541347E+02  0.50009523735E+02  0.00000000000E+00 0.  1.
         -1    1    6    6    0  502  0.13076024050E+02  0.48770392874E+01  0.45881186694E+02  0.47956763961E+02  0.00000000000E+00 0.  1.
<mgrwt>
<rscale>  0 0.12966356E+04</rscale>
<asrwt>0</asrwt>
<pdfrwt beam="1">  1        2 0.27435637E+00 0.12966356E+04</pdfrwt>
<pdfrwt beam="2">  1       -2 0.36260528E-01 0.12966356E+04</pdfrwt>
<totfact> 0.61856763E+01</totfact>
</mgrwt>
</event>
<event>
12    1  0.1663913E-007  0.1582775E+04  0.7818608E-02  0.8831200E-01
          2   -1    0    0  501    0  0.00000000000E+00  0.00000000000E+00  0.13071638592E+04  0.13071638592E+04  0.00000000000E+00 0. -1.
         -2   -1    0    0    0  501 -0.00000000000E+00 -0.00000000000E+00 -0.47912468913E+03  0.47912468913E+03  0.00000000000E+00 0.  1.
         23    2    1    2    0    0  0.50945388661E+03  0.11886668465E+03  0.37692130605E+03  0.65110801235E+03  0.90550657094E+02 0.  0.
        254    2    1    2    0    0 -0.50945388661E+03 -0.11886668465E+03  0.45111786398E+03  0.11351805359E+04  0.90080795438E+03 0.  0.
        -24    2    4    4    0    0 -0.36766866701E+03 -0.21383124594E+03  0.69991186872E+03  0.82301043517E+03  0.81027785252E+02 0.  0.
         24    2    4    4    0    0 -0.14178521960E+03  0.94964561289E+02 -0.24879400474E+03  0.31217010077E+03  0.80189766335E+02 0.  0.
         11    1    3    3    0    0  0.55991579185E+02  0.25600267342E+02  0.14720553051E+02  0.63301858659E+02  0.00000000000E+00 0.  1.
        -11    1    3    3    0    0  0.45346230742E+03  0.93266417306E+02  0.36220075299E+03  0.58780615369E+03  0.00000000000E+00 0. -1.
          4    1    6    6  502    0 -0.10192995919E+02  0.46792973278E+02 -0.73903365380E+02  0.88063539155E+02  0.00000000000E+00 0. -1.
          3    1    5    5  503    0 -0.43301080750E+02 -0.47783250492E+02  0.69119747130E+02  0.94529159866E+02  0.00000000000E+00 0. -1.
         -4    1    5    5    0  503 -0.32436758626E+03 -0.16604799545E+03  0.63079212159E+03  0.72848127530E+03  0.00000000000E+00 0.  1.
         -3    1    6    6    0  502 -0.13159222368E+03  0.48171588011E+02 -0.17489063936E+03  0.22410656162E+03  0.00000000000E+00 0.  1.
<mgrwt>
<rscale>  0 0.15827754E+04</rscale>
<asrwt>0</asrwt>
<pdfrwt beam="1">  1        2 0.20110213E+00 0.15827754E+04</pdfrwt>
<pdfrwt beam="2">  1       -2 0.73711491E-01 0.15827754E+04</pdfrwt>
<totfact> 0.26087428E+01</totfact>
</mgrwt>
</event>
<event>
12    1  0.1663913E-007  0.1305263E+04  0.7818608E-02  0.9025402E-01
         -1   -1    0    0    0  501 -0.00000000000E+00  0.00000000000E+00  0.13837042989E+03  0.13837042989E+03  0.00000000000E+00 0.  1.
          1   -1    0    0  501    0  0.00000000000E+00 -0.00000000000E+00 -0.30781707932E+04  0.30781707932E+04  0.00000000000E+00 0. -1.
         23    2    1    2    0    0 -0.19547056967E+03 -0.87542666504E+02 -0.14157686699E+04  0.14347544778E+04  0.90813120645E+02 0.  0.
        254    2    1    2    0    0  0.19547056967E+03  0.87542666504E+02 -0.15240316934E+04  0.17817867453E+04  0.89789695458E+03 0.  0.
        -24    2    4    4    0    0 -0.20486761388E+03 -0.22018102826E+03 -0.10094450099E+04  0.10564041619E+04  0.80994450096E+02 0.  0.
         24    2    4    4    0    0  0.40033818355E+03  0.30772369477E+03 -0.51458668358E+03  0.72538258338E+03  0.80099337296E+02 0.  0.
         13    1    3    3    0    0 -0.63818442508E+02 -0.47868073811E+01 -0.22667350570E+03  0.23553467964E+03  0.00000000000E+00 0.  1.
        -13    1    3    3    0    0 -0.13165212716E+03 -0.82755859123E+02 -0.11890951642E+04  0.11992197982E+04  0.00000000000E+00 0. -1.
          4    1    6    6  502    0  0.13889950006E+03  0.99645981375E+02 -0.12290760363E+03  0.21054375259E+03  0.00000000000E+00 0. -1.
          1    1    5    5  503    0 -0.16794024390E+02 -0.17445682220E+01 -0.12594939476E+03  0.12707609064E+03  0.00000000000E+00 0. -1.
         -4    1    5    5    0  503 -0.18807358949E+03 -0.21843646004E+03 -0.88349561510E+03  0.92932807127E+03  0.00000000000E+00 0.  1.
         -3    1    6    6    0  502  0.26143868348E+03  0.20807771339E+03 -0.39167907994E+03  0.51483883080E+03  0.00000000000E+00 0.  1.
<mgrwt>
<rscale>  0 0.13052629E+04</rscale>
<asrwt>0</asrwt>
<pdfrwt beam="1">  1        1 0.47356470E+00 0.13052629E+04</pdfrwt>
<pdfrwt beam="2">  1       -1 0.21287760E-01 0.13052629E+04</pdfrwt>
<totfact> 0.95785531E+00</totfact>
</mgrwt>
</event>
<event>
12    1  0.1663913E-007  0.1572074E+04  0.7818608E-02  0.8837890E-01
          2   -1    0    0  501    0  0.00000000000E+00  0.00000000000E+00  0.23980410045E+04  0.23980410045E+04  0.00000000000E+00 0. -1.
         -2   -1    0    0    0  501 -0.00000000000E+00 -0.00000000000E+00 -0.25764939845E+03  0.25764939845E+03  0.00000000000E+00 0.  1.
         23    2    1    2    0    0  0.72857877234E+02  0.27640185365E+03  0.14714472386E+04  0.15017227644E+04  0.91148396324E+02 0.  0.
        254    2    1    2    0    0 -0.72857877234E+02 -0.27640185365E+03  0.66894436750E+03  0.11539676386E+04  0.89579489234E+03 0.  0.
        -24    2    4    4    0    0 -0.21644740235E+03 -0.50942529519E+03  0.66498679500E+03  0.86890272775E+03  0.80130539715E+02 0.  0.
         24    2    4    4    0    0  0.14358952512E+03  0.23302344153E+03  0.39575724936E+01  0.28506491085E+03  0.79551649831E+02 0.  0.
         11    1    3    3    0    0  0.48127464893E+02  0.23561777517E+03  0.13498756910E+04  0.13711295964E+04  0.00000000000E+00 0. -1.
        -11    1    3    3    0    0  0.24730412341E+02  0.40784078490E+02  0.12157154753E+03  0.13059316798E+03  0.00000000000E+00 0.  1.
          4    1    6    6  502    0  0.68304605660E+02  0.17813224947E+03 -0.90319471480E+01  0.19099265307E+03  0.00000000000E+00 0. -1.
          3    1    5    5  503    0 -0.17421181099E+03 -0.46850753290E+03  0.60695162257E+03  0.78628196954E+03  0.00000000000E+00 0. -1.
         -4    1    5    5    0  503 -0.42235591363E+02 -0.40917762285E+02  0.58035172431E+02  0.82620758210E+02  0.00000000000E+00 0.  1.
         -3    1    6    6    0  502  0.75284919460E+02  0.54891192057E+02  0.12989519642E+02  0.94072257781E+02  0.00000000000E+00 0.  1.
<mgrwt>
<rscale>  0 0.15720736E+04</rscale>
<asrwt>0</asrwt>
<pdfrwt beam="1">  1        2 0.36892937E+00 0.15720736E+04</pdfrwt>
<pdfrwt beam="2">  1       -2 0.39638370E-01 0.15720736E+04</pdfrwt>
<totfact> 0.23099678E+01</totfact>
</mgrwt>
</event>
<event>
12    1  0.1663913E-007  0.1973731E+04  0.7818608E-02  0.8619002E-01
          1   -1    0    0  501    0  0.00000000000E+00  0.00000000000E+00  0.76201114967E+03  0.76201114967E+03  0.00000000000E+00 0. -1.
         -1   -1    0    0    0  501 -0.00000000000E+00 -0.00000000000E+00 -0.12780697741E+04  0.12780697741E+04  0.00000000000E+00 0.  1.
         23    2    1    2    0    0  0.64132701419E+03 -0.43368045952E+03 -0.14269887789E+03  0.79267602845E+03  0.92699709960E+02 0.  0.
        254    2    1    2    0    0 -0.64132701419E+03  0.43368045952E+03 -0.37335974656E+03  0.12474048953E+04  0.90401459749E+03 0.  0.
        -24    2    4    4    0    0 -0.42087971558E+03  0.34404918004E+03 -0.66472835644E+03  0.86231476530E+03  0.78825080571E+02 0.  0.
         24    2    4    4    0    0 -0.22044729861E+03  0.89631279482E+02  0.29136860988E+03  0.38509013004E+03  0.82267634610E+02 0.  0.
         13    1    3    3    0    0  0.30174412738E+02 -0.38016844159E+02  0.80042654622E+01  0.49191908781E+02  0.00000000000E+00 0. -1.
        -13    1    3    3    0    0  0.61115260145E+03 -0.39566361536E+03 -0.15070314335E+03  0.74348411967E+03  0.00000000000E+00 0.  1.
          2    1    6    6  502    0 -0.22502272667E+03  0.77479920960E+02  0.28240987824E+03  0.36931518381E+03  0.00000000000E+00 0. -1.
          3    1    5    5  503    0 -0.41884993236E+03  0.34591740500E+03 -0.66585473185E+03  0.85933499920E+03  0.00000000000E+00 0. -1.
         -4    1    5    5    0  503 -0.20297832224E+01 -0.18682249630E+01  0.11263754127E+01  0.29797661003E+01  0.00000000000E+00 0.  1.
         -1    1    6    6    0  502  0.45754280571E+01  0.12151358522E+02  0.89587316470E+01  0.15774946230E+02  0.00000000000E+00 0.  1.
<mgrwt>
<rscale>  0 0.19737309E+04</rscale>
<asrwt>0</asrwt>
<pdfrwt beam="1">  1        1 0.11723249E+00 0.19737309E+04</pdfrwt>
<pdfrwt beam="2">  1       -1 0.19662612E+00 0.19737309E+04</pdfrwt>
<totfact> 0.35272729E+00</totfact>
</mgrwt>
</event>
<event>
12    1  0.1663913E-007  0.1480056E+04  0.7818608E-02  0.8897825E-01
          2   -1    0    0  501    0  0.00000000000E+00  0.00000000000E+00  0.30857262495E+04  0.30857262495E+04  0.00000000000E+00 0. -1.
         -2   -1    0    0    0  501 -0.00000000000E+00 -0.00000000000E+00 -0.17747574221E+03  0.17747574221E+03  0.00000000000E+00 0.  1.
         23    2    1    2    0    0 -0.45554730196E+03  0.11592816593E+02  0.10197269482E+04  0.11206309182E+04  0.91174932171E+02 0.  0.
        254    2    1    2    0    0  0.45554730196E+03 -0.11592816593E+02  0.18885235591E+04  0.21425710735E+04  0.90356617578E+03 0.  0.
        -24    2    4    4    0    0  0.30060346041E+03 -0.92098691070E+02  0.19215981572E+04  0.19487574785E+04  0.79193579767E+02 0.  0.
         24    2    4    4    0    0  0.15494384156E+03  0.80505874478E+02 -0.33074598019E+02  0.19381359505E+03  0.77336865263E+02 0.  0.
         13    1    3    3    0    0 -0.68322648565E+01  0.13531607522E+02  0.22876177886E+02  0.27442736012E+02  0.00000000000E+00 0. -1.
        -13    1    3    3    0    0 -0.44871503711E+03 -0.19387909290E+01  0.99685077028E+03  0.10931881822E+04  0.00000000000E+00 0.  1.
          2    1    6    6  502    0  0.55490336196E+02 -0.28699183967E+01  0.11216109476E+02  0.56685226951E+02  0.00000000000E+00 0. -1.
          1    1    5    5  503    0  0.70062267324E+02 -0.29735147378E+02  0.29222233365E+03  0.30197150954E+03  0.00000000000E+00 0. -1.
         -2    1    5    5    0  503  0.23054119308E+03 -0.62363543693E+02  0.16293758235E+04  0.16467859689E+04  0.00000000000E+00 0.  1.
         -1    1    6    6    0  502  0.99453505363E+02  0.83375792874E+02 -0.44290707494E+02  0.13712836810E+03  0.00000000000E+00 0.  1.
<mgrwt>
<rscale>  0 0.14800562E+04</rscale>
<asrwt>0</asrwt>
<pdfrwt beam="1">  1        2 0.47472708E+00 0.14800562E+04</pdfrwt>
<pdfrwt beam="2">  1       -2 0.27303963E-01 0.14800562E+04</pdfrwt>
<totfact> 0.18317250E+01</totfact>
</mgrwt>
</event>
<event>
12    1  0.1663913E-007  0.1439896E+04  0.7818608E-02  0.8925435E-01
          1   -1    0    0  501    0  0.00000000000E+00  0.00000000000E+00  0.78244093407E+03  0.78244093407E+03  0.00000000000E+00 0. -1.
         -1   -1    0    0    0  501 -0.00000000000E+00 -0.00000000000E+00 -0.66244657464E+03  0.66244657464E+03  0.00000000000E+00 0.  1.
         23    2    1    2    0    0  0.24158739754E+03 -0.23302326651E+03 -0.23074203375E+03  0.41616699412E+03  0.85374278737E+02 0.  0.
        254    2    1    2    0    0 -0.24158739754E+03  0.23302326651E+03  0.35073639319E+03  0.10287205146E+04  0.90696503032E+03 0.  0.
        -24    2    4    4    0    0  0.10761531782E+03 -0.26370011262E+03 -0.45020023433E+02  0.29936080835E+03  0.80444297748E+02 0.  0.
         24    2    4    4    0    0 -0.34920271536E+03  0.49672337913E+03  0.39575641662E+03  0.72935970623E+03  0.81644277110E+02 0.  0.
         13    1    3    3    0    0  0.21807559414E+03 -0.23714342098E+03 -0.21024035045E+03  0.38470114612E+03  0.00000000000E+00 0.  1.
        -13    1    3    3    0    0  0.23511803405E+02  0.41201544635E+01 -0.20501683303E+02  0.31465848001E+02  0.00000000000E+00 0. -1.
          2    1    6    6  502    0 -0.24687609497E+03  0.33609385878E+03  0.22648393045E+03  0.47455437932E+03  0.00000000000E+00 0. -1.
          1    1    5    5  503    0  0.64598272424E+01  0.16178209860E+01  0.81015647727E+01  0.10487233406E+02  0.00000000000E+00 0. -1.
         -2    1    5    5    0  503  0.10115549058E+03 -0.26531793361E+03 -0.53121588206E+02  0.28887357494E+03  0.00000000000E+00 0.  1.
         -1    1    6    6    0  502 -0.10232662039E+03  0.16062952035E+03  0.16927248617E+03  0.25480532691E+03  0.00000000000E+00 0.  1.
<mgrwt>
<rscale>  0 0.14398963E+04</rscale>
<asrwt>0</asrwt>
<pdfrwt beam="1">  1        1 0.12037553E+00 0.14398963E+04</pdfrwt>
<pdfrwt beam="2">  1       -1 0.10191486E+00 0.14398963E+04</pdfrwt>
<totfact> 0.20325254E+01</totfact>
</mgrwt>
</event>
<event>
12    1  0.1663913E-007  0.4084706E+04  0.7818608E-02  0.7987673E-01
         -1   -1    0    0    0  501 -0.00000000000E+00  0.00000000000E+00  0.22424335173E+04  0.22424335173E+04  0.00000000000E+00 0.  1.
          1   -1    0    0  501    0  0.00000000000E+00 -0.00000000000E+00 -0.18601242384E+04  0.18601242384E+04  0.00000000000E+00 0. -1.
         23    2    1    2    0    0 -0.17139119435E+04  0.98229631581E+02  0.10847837957E+04  0.20328485964E+04  0.92597634314E+02 0.  0.
        254    2    1    2    0    0  0.17139119435E+04 -0.98229631581E+02 -0.70247451676E+03  0.20697091592E+04  0.91819515693E+03 0.  0.
        -24    2    4    4    0    0  0.23522926719E+03  0.13537078976E+03  0.17471112179E+03  0.33270405782E+03  0.80684293078E+02 0.  0.
         24    2    4    4    0    0  0.14786826764E+04 -0.23360042134E+03 -0.87718563855E+03  0.17370051014E+04  0.81611662992E+02 0.  0.
         11    1    3    3    0    0 -0.26557623397E+03  0.24711423070E+02  0.13142706173E+03  0.29734569617E+03  0.00000000000E+00 0. -1.
        -11    1    3    3    0    0 -0.14483357096E+04  0.73518208511E+02  0.95335673393E+03  0.17355029002E+04  0.00000000000E+00 0.  1.
          2    1    6    6  502    0  0.23517801266E+03 -0.55563968346E+02 -0.16976455434E+03  0.29532364641E+03  0.00000000000E+00 0. -1.
          1    1    5    5  503    0  0.16612529365E+03  0.50434906412E+02  0.10474964532E+03  0.20276533523E+03  0.00000000000E+00 0. -1.
         -2    1    5    5    0  503  0.69103973538E+02  0.84935883345E+02  0.69961476470E+02  0.12993872259E+03  0.00000000000E+00 0.  1.
         -1    1    6    6    0  502  0.12435046637E+04 -0.17803645299E+03 -0.70742108421E+03  0.14416814550E+04  0.00000000000E+00 0.  1.
<mgrwt>
<rscale>  0 0.40847056E+04</rscale>
<asrwt>0</asrwt>
<pdfrwt beam="1">  1        1 0.28617296E+00 0.40847056E+04</pdfrwt>
<pdfrwt beam="2">  1       -1 0.34498977E+00 0.40847056E+04</pdfrwt>
<totfact> 0.48325761E-02</totfact>
</mgrwt>
</event>
<event>
12    1  0.1663913E-007  0.1536209E+04  0.7818608E-02  0.8860725E-01
         -2   -1    0    0    0  501 -0.00000000000E+00  0.00000000000E+00  0.45487698192E+03  0.45487698192E+03  0.00000000000E+00 0. -1.
          2   -1    0    0  501    0  0.00000000000E+00 -0.00000000000E+00 -0.12970204761E+04  0.12970204761E+04  0.00000000000E+00 0.  1.
         23    2    1    2    0    0  0.44673761873E+03 -0.26541293039E+02 -0.37003984897E+03  0.58796091176E+03  0.92139045493E+02 0.  0.
        254    2    1    2    0    0 -0.44673761873E+03  0.26541293039E+02 -0.47210364523E+03  0.11639365463E+04  0.96518780125E+03 0.  0.
        -24    2    4    4    0    0 -0.45467748747E+03  0.33033002923E+02  0.18670542687E+03  0.50018872951E+03  0.86643244487E+02 0.  0.
         24    2    4    4    0    0  0.79398687401E+01 -0.64917098835E+01 -0.65880907209E+03  0.66374781676E+03  0.80165996296E+02 0.  0.
         11    1    3    3    0    0  0.18096443338E+03 -0.18691073824E+02 -0.94324941838E+02  0.20492602822E+03  0.00000000000E+00 0. -1.
        -11    1    3    3    0    0  0.26577318536E+03 -0.78502192156E+01 -0.27571490713E+03  0.38303488354E+03  0.00000000000E+00 0.  1.
          2    1    6    6  502    0  0.68226896042E+01  0.36211230040E+02 -0.24778471314E+03  0.25050961327E+03  0.00000000000E+00 0. -1.
          1    1    5    5  503    0 -0.11275180432E+03 -0.19091232913E+02  0.19462979957E+02  0.11600108681E+03  0.00000000000E+00 0. -1.
         -2    1    5    5    0  503 -0.34192568315E+03  0.52124235836E+02  0.16724244691E+03  0.38418764271E+03  0.00000000000E+00 0.  1.
         -1    1    6    6    0  502  0.11171791359E+01 -0.42702939924E+02 -0.41102435895E+03  0.41323820348E+03  0.00000000000E+00 0.  1.
<mgrwt>
<rscale>  0 0.15362093E+04</rscale>
<asrwt>0</asrwt>
<pdfrwt beam="1">  1        2 0.19954161E+00 0.15362093E+04</pdfrwt>
<pdfrwt beam="2">  1       -2 0.69981075E-01 0.15362093E+04</pdfrwt>
<totfact> 0.29748340E+01</totfact>
</mgrwt>
</event>
<event>
12    1  0.1663913E-007  0.2232431E+04  0.7818608E-02  0.8505050E-01
         -2   -1    0    0    0  501 -0.00000000000E+00  0.00000000000E+00  0.17674706717E+04  0.17674706717E+04  0.00000000000E+00 0.  1.
          2   -1    0    0  501    0  0.00000000000E+00 -0.00000000000E+00 -0.70492667572E+03  0.70492667572E+03  0.00000000000E+00 0. -1.
         23    2    1    2    0    0 -0.61118047374E+03 -0.14231304206E+03 -0.35853966306E+03  0.72857797611E+03  0.92090194164E+02 0.  0.
        254    2    1    2    0    0  0.61118047374E+03  0.14231304206E+03  0.14210836590E+04  0.17438193713E+04  0.79223270593E+03 0.  0.
        -24    2    4    4    0    0  0.53367287459E+03  0.28880965072E+03  0.45984767115E+03  0.76548501026E+03  0.79307432496E+02 0.  0.
         24    2    4    4    0    0  0.77507599155E+02 -0.14649660866E+03  0.96123598787E+03  0.97833436103E+03  0.75463986952E+02 0.  0.
         13    1    3    3    0    0 -0.34331050688E+03 -0.11594689065E+03 -0.23886980168E+03  0.43400987055E+03  0.00000000000E+00 0. -1.
        -13    1    3    3    0    0 -0.26786996687E+03 -0.26366151409E+02 -0.11966986139E+03  0.29456810556E+03  0.00000000000E+00 0.  1.
          4    1    6    6  502    0  0.35748292141E+02 -0.69266349043E+01  0.18775429436E+03  0.19125269596E+03  0.00000000000E+00 0. -1.
          3    1    5    5  503    0  0.11030864311E+03  0.29348027223E+02  0.10585751705E+03  0.15567632242E+03  0.00000000000E+00 0. -1.
         -4    1    5    5    0  503  0.42336423148E+03  0.25946162350E+03  0.35399015411E+03  0.60980868784E+03  0.00000000000E+00 0.  1.
         -3    1    6    6    0  502  0.41759307014E+02 -0.13956997376E+03  0.77348169351E+03  0.78708166507E+03  0.00000000000E+00 0.  1.
<mgrwt>
<rscale>  0 0.22324312E+04</rscale>
<asrwt>0</asrwt>
<pdfrwt beam="1">  1        2 0.10845026E+00 0.22324312E+04</pdfrwt>
<pdfrwt beam="2">  1       -2 0.27191856E+00 0.22324312E+04</pdfrwt>
<totfact> 0.17465941E+00</totfact>
</mgrwt>
</event>
<event>
12    1  0.1663913E-007  0.2807598E+04  0.7818608E-02  0.8300913E-01
         -2   -1    0    0    0  501 -0.00000000000E+00  0.00000000000E+00  0.12026605058E+04  0.12026605058E+04  0.00000000000E+00 0.  1.
          2   -1    0    0  501    0  0.00000000000E+00 -0.00000000000E+00 -0.16385770613E+04  0.16385770613E+04  0.00000000000E+00 0. -1.
         23    2    1    2    0    0  0.80108009793E+03 -0.22174451006E+03 -0.11585024199E+04  0.14287006789E+04  0.90320662159E+02 0.  0.
        254    2    1    2    0    0 -0.80108009793E+03  0.22174451006E+03  0.72258586439E+03  0.14125368882E+04  0.88443777506E+03 0.  0.
        -24    2    4    4    0    0  0.14776275056E+03  0.13771544271E+02 -0.38501738150E+02  0.17600243623E+03  0.86434876249E+02 0.  0.
         24    2    4    4    0    0 -0.94884284849E+03  0.20797296579E+03  0.76108760254E+03  0.12365344519E+04  0.78788364999E+02 0.  0.
         11    1    3    3    0    0  0.39019895190E+03 -0.84613783638E+02 -0.48908473457E+03  0.63136248862E+03  0.00000000000E+00 0.  1.
        -11    1    3    3    0    0  0.41088114603E+03 -0.13713072642E+03 -0.66941768534E+03  0.79733819032E+03  0.00000000000E+00 0. -1.
          4    1    6    6  502    0 -0.85592416438E+03  0.21080585601E+03  0.69347655088E+03  0.11215859355E+04  0.00000000000E+00 0. -1.
          3    1    5    5  503    0  0.10590491250E+03  0.86011096312E+01 -0.66528914514E+02  0.12536317659E+03  0.00000000000E+00 0. -1.
         -4    1    5    5    0  503  0.41857838055E+02  0.51704346400E+01  0.28027176364E+02  0.50639259631E+02  0.00000000000E+00 0.  1.
         -3    1    6    6    0  502 -0.92918684104E+02 -0.28328902264E+01  0.67611051653E+02  0.11494851642E+03  0.00000000000E+00 0.  1.
<mgrwt>
<rscale>  0 0.28075982E+04</rscale>
<asrwt>0</asrwt>
<pdfrwt beam="1">  1        2 0.25208878E+00 0.28075982E+04</pdfrwt>
<pdfrwt beam="2">  1       -2 0.18502469E+00 0.28075982E+04</pdfrwt>
<totfact> 0.15457830E+00</totfact>
</mgrwt>
</event>
<event>
12    1  0.1663913E-007  0.1692181E+04  0.7818608E-02  0.8765836E-01
         -2   -1    0    0    0  501 -0.00000000000E+00  0.00000000000E+00  0.27074602098E+03  0.27074602098E+03  0.00000000000E+00 0.  1.
          2   -1    0    0  501    0  0.00000000000E+00 -0.00000000000E+00 -0.26440624589E+04  0.26440624589E+04  0.00000000000E+00 0. -1.
         23    2    1    2    0    0  0.39623410964E+03 -0.34385050796E+03 -0.34962526602E+03  0.63753021693E+03  0.94722275055E+02 0.  0.
        254    2    1    2    0    0 -0.39623410964E+03  0.34385050796E+03 -0.20236911719E+04  0.22772782629E+04  0.90301477628E+03 0.  0.
        -24    2    4    4    0    0 -0.14360659475E+03  0.54826142284E+03 -0.17563783356E+04  0.18472624181E+04  0.79373434046E+02 0.  0.
         24    2    4    4    0    0 -0.25262751489E+03 -0.20441091488E+03 -0.26731283629E+03  0.43001584476E+03  0.88617102705E+02 0.  0.
         13    1    3    3    0    0  0.73958312794E+01 -0.68503789575E+01 -0.30329528217E+02  0.31961012094E+02  0.00000000000E+00 0. -1.
        -13    1    3    3    0    0  0.38883827836E+03 -0.33700012900E+03 -0.31929573781E+03  0.60556920484E+03  0.00000000000E+00 0.  1.
          2    1    6    6  502    0 -0.30340920787E+02  0.57400376458E+01 -0.22292869945E+02  0.38085319438E+02  0.00000000000E+00 0. -1.
          1    1    5    5  503    0 -0.31742881861E+02  0.27553920281E+03 -0.83007734443E+03  0.87519018538E+03  0.00000000000E+00 0. -1.
         -2    1    5    5    0  503 -0.11186371289E+03  0.27272222002E+03 -0.92630099112E+03  0.97207223276E+03  0.00000000000E+00 0.  1.
         -1    1    6    6    0  502 -0.22228659411E+03 -0.21015095253E+03 -0.24501996635E+03  0.39193052532E+03  0.00000000000E+00 0.  1.
<mgrwt>
<rscale>  0 0.16921813E+04</rscale>
<asrwt>0</asrwt>
<pdfrwt beam="1">  1        2 0.40677882E+00 0.16921813E+04</pdfrwt>
<pdfrwt beam="2">  1       -2 0.41653236E-01 0.16921813E+04</pdfrwt>
<totfact> 0.14941864E+01</totfact>
</mgrwt>
</event>
<event>
12    1  0.1663913E-007  0.1248785E+04  0.7818608E-02  0.9071195E-01
          2   -1    0    0  501    0  0.00000000000E+00  0.00000000000E+00  0.12250609304E+04  0.12250609304E+04  0.00000000000E+00 0. -1.
         -2   -1    0    0    0  501 -0.00000000000E+00 -0.00000000000E+00 -0.31824232957E+03  0.31824232957E+03  0.00000000000E+00 0.  1.
         23    2    1    2    0    0  0.12070695478E+03  0.26773039808E+03  0.21480672388E+03  0.37554734051E+03  0.92973874565E+02 0.  0.
        254    2    1    2    0    0 -0.12070695478E+03 -0.26773039808E+03  0.69201187699E+03  0.11677559195E+04  0.89360154133E+03 0.  0.
        -24    2    4    4    0    0  0.17572939249E+03  0.26364845966E+03  0.23088013130E+03  0.40017370246E+03  0.80262241712E+02 0.  0.
         24    2    4    4    0    0 -0.29643634727E+03 -0.53137885775E+03  0.46113174568E+03  0.76758221704E+03  0.79384977164E+02 0.  0.
         11    1    3    3    0    0  0.79742489091E+01  0.10152262198E+03  0.10657915414E+03  0.14740945531E+03  0.00000000000E+00 0. -1.
        -11    1    3    3    0    0  0.11273270587E+03  0.16620777610E+03  0.10822756974E+03  0.22813788520E+03  0.00000000000E+00 0.  1.
          4    1    6    6  502    0 -0.23910719238E+03 -0.43102643027E+03  0.41028191046E+03  0.64131683207E+03  0.00000000000E+00 0. -1.
          3    1    5    5  503    0  0.93722976503E+02  0.13291109497E+03  0.69445926988E+02  0.17683917062E+03  0.00000000000E+00 0. -1.
         -4    1    5    5    0  503  0.82006415985E+02  0.13073736469E+03  0.16143420432E+03  0.22333453184E+03  0.00000000000E+00 0.  1.
         -3    1    6    6    0  502 -0.57329154884E+02 -0.10035242748E+03  0.50849835218E+02  0.12626538497E+03  0.00000000000E+00 0.  1.
<mgrwt>
<rscale>  0 0.12487854E+04</rscale>
<asrwt>0</asrwt>
<pdfrwt beam="1">  1        2 0.18847091E+00 0.12487854E+04</pdfrwt>
<pdfrwt beam="2">  1       -2 0.48960359E-01 0.12487854E+04</pdfrwt>
<totfact> 0.71074774E+01</totfact>
</mgrwt>
</event>
<event>
12    1  0.1663913E-007  0.1591064E+04  0.7818608E-02  0.8826057E-01
         -1   -1    0    0    0  501 -0.00000000000E+00  0.00000000000E+00  0.40673491734E+03  0.40673491734E+03  0.00000000000E+00 0.  1.
          1   -1    0    0  501    0  0.00000000000E+00 -0.00000000000E+00 -0.15559797528E+04  0.15559797528E+04  0.00000000000E+00 0. -1.
         23    2    1    2    0    0  0.21892747488E+03 -0.52793771561E+02  0.20959042577E+03  0.32066138179E+03  0.90438673269E+02 0.  0.
        254    2    1    2    0    0 -0.21892747488E+03  0.52793771561E+02 -0.13588352612E+04  0.16420532883E+04  0.89397388835E+03 0.  0.
        -24    2    4    4    0    0 -0.55120733742E+03 -0.11341005011E+02 -0.98875037654E+03  0.11347778993E+04  0.78328963395E+02 0.  0.
         24    2    4    4    0    0  0.33227986255E+03  0.64134776572E+02 -0.37008488469E+03  0.50727538901E+03  0.76435082246E+02 0.  0.
         13    1    3    3    0    0  0.27473258698E+02 -0.23315653774E+02  0.10708701045E+01  0.36049222144E+02  0.00000000000E+00 0. -1.
        -13    1    3    3    0    0  0.19145421618E+03 -0.29478117787E+02  0.20851955567E+03  0.28461215964E+03  0.00000000000E+00 0.  1.
          4    1    6    6  502    0  0.31050802218E+03  0.72388566648E+02 -0.36255141869E+03  0.48280313546E+03  0.00000000000E+00 0. -1.
          3    1    5    5  503    0 -0.32322625912E+03  0.96753993462E+01 -0.50624911034E+03  0.60071373354E+03  0.00000000000E+00 0. -1.
         -4    1    5    5    0  503 -0.22798107830E+03 -0.21016404357E+02 -0.48250126620E+03  0.53406416581E+03  0.00000000000E+00 0.  1.
         -3    1    6    6    0  502  0.21771840372E+02 -0.82537900763E+01 -0.75334660020E+01  0.24472253550E+02  0.00000000000E+00 0.  1.
<mgrwt>
<rscale>  0 0.15910642E+04</rscale>
<asrwt>0</asrwt>
<pdfrwt beam="1">  1        1 0.23938150E+00 0.15910642E+04</pdfrwt>
<pdfrwt beam="2">  1       -1 0.62574602E-01 0.15910642E+04</pdfrwt>
<totfact> 0.14882573E+01</totfact>
</mgrwt>
</event>
<event>
12    1  0.1663913E-007  0.1890218E+04  0.7818608E-02  0.8659741E-01
          1   -1    0    0  501    0  0.00000000000E+00  0.00000000000E+00  0.10209628592E+04  0.10209628592E+04  0.00000000000E+00 0. -1.
         -1   -1    0    0    0  501 -0.00000000000E+00 -0.00000000000E+00 -0.87489086418E+03  0.87489086418E+03  0.00000000000E+00 0.  1.
         23    2    1    2    0    0  0.12256405366E+03  0.59977268925E+03 -0.34023837117E+03  0.70626799972E+03  0.91121414570E+02 0.  0.
        254    2    1    2    0    0 -0.12256405366E+03 -0.59977268925E+03  0.48631036615E+03  0.11895857236E+04  0.89658641279E+03 0.  0.
        -24    2    4    4    0    0  0.48397102956E+02 -0.61810226971E+03  0.67650088675E+03  0.92102164291E+03  0.78960252873E+02 0.  0.
         24    2    4    4    0    0 -0.17096115661E+03  0.18329580463E+02 -0.19019052059E+03  0.26856408072E+03  0.79940857741E+02 0.  0.
         11    1    3    3    0    0  0.72319695148E+02  0.47882897580E+03 -0.29825349113E+03  0.56873761203E+03  0.00000000000E+00 0.  1.
        -11    1    3    3    0    0  0.50244358508E+02  0.12094371345E+03 -0.41984880044E+02  0.13753038769E+03  0.00000000000E+00 0. -1.
          2    1    6    6  502    0  0.36746595859E+01  0.14456536576E+02 -0.13904489546E+02  0.20391895507E+02  0.00000000000E+00 0. -1.
          3    1    5    5  503    0 -0.74260956006E+01 -0.12021387596E+03  0.17234301890E+03  0.21025850526E+03  0.00000000000E+00 0. -1.
         -4    1    5    5    0  503  0.55823198557E+02 -0.49788839375E+03  0.50415786785E+03  0.71076313765E+03  0.00000000000E+00 0.  1.
         -1    1    6    6    0  502 -0.17463581620E+03  0.38730438873E+01 -0.17628603105E+03  0.24817218521E+03  0.00000000000E+00 0.  1.
<mgrwt>
<rscale>  0 0.18902181E+04</rscale>
<asrwt>0</asrwt>
<pdfrwt beam="1">  1        1 0.15707121E+00 0.18902181E+04</pdfrwt>
<pdfrwt beam="2">  1       -1 0.13459859E+00 0.18902181E+04</pdfrwt>
<totfact> 0.63346286E+00</totfact>
</mgrwt>
</event>
<event>
12    1  0.1663913E-007  0.2022727E+04  0.7818608E-02  0.8596068E-01
          2   -1    0    0  501    0  0.00000000000E+00  0.00000000000E+00  0.27871682460E+04  0.27871682460E+04  0.00000000000E+00 0. -1.
         -2   -1    0    0    0  501 -0.00000000000E+00 -0.00000000000E+00 -0.36698763423E+03  0.36698763423E+03  0.00000000000E+00 0.  1.
         23    2    1    2    0    0  0.37192870548E+03  0.52015714116E+03  0.17592907362E+04  0.18740841370E+04  0.90515438695E+02 0.  0.
        254    2    1    2    0    0 -0.37192870548E+03 -0.52015714116E+03  0.66088987552E+03  0.12800717432E+04  0.89045708862E+03 0.  0.
        -24    2    4    4    0    0 -0.65667616842E+03 -0.36108366650E+03  0.39179002432E+03  0.84943893572E+03  0.80262556493E+02 0.  0.
         24    2    4    4    0    0  0.28474746294E+03 -0.15907347465E+03  0.26909985119E+03  0.43063280746E+03  0.81513170439E+02 0.  0.
         11    1    3    3    0    0  0.23269616764E+02  0.15136264133E+02  0.41179532039E+02  0.49662213152E+02  0.00000000000E+00 0.  1.
        -11    1    3    3    0    0  0.34865908871E+03  0.50502087702E+03  0.17181112042E+04  0.18244219239E+04  0.00000000000E+00 0. -1.
          4    1    6    6  502    0  0.22748186307E+03 -0.15007097375E+03  0.18854702654E+03  0.33138991597E+03  0.00000000000E+00 0. -1.
          1    1    5    5  503    0 -0.59003134112E+03 -0.31110376454E+03  0.32159503384E+03  0.74050381606E+03  0.00000000000E+00 0. -1.
         -2    1    5    5    0  503 -0.66644827302E+02 -0.49979901967E+02  0.70194990480E+02  0.10893511966E+03  0.00000000000E+00 0.  1.
         -3    1    6    6    0  502  0.57265599876E+02 -0.90025009019E+01  0.80552824655E+02  0.99242891491E+02  0.00000000000E+00 0.  1.
<mgrwt>
<rscale>  0 0.20227271E+04</rscale>
<asrwt>0</asrwt>
<pdfrwt beam="1">  1        2 0.42879510E+00 0.20227271E+04</pdfrwt>
<pdfrwt beam="2">  1       -2 0.56459638E-01 0.20227271E+04</pdfrwt>
<totfact> 0.64348241E+00</totfact>
</mgrwt>
</event>
<event>
12    1  0.1663913E-007  0.2531750E+04  0.7818608E-02  0.8391761E-01
         -1   -1    0    0    0  501 -0.00000000000E+00  0.00000000000E+00  0.12883640918E+04  0.12883640918E+04  0.00000000000E+00 0.  1.
          1   -1    0    0  501    0  0.00000000000E+00 -0.00000000000E+00 -0.12437782536E+04  0.12437782536E+04  0.00000000000E+00 0. -1.
         23    2    1    2    0    0  0.66673157555E+03  0.32833235016E+03 -0.79977748086E+03  0.10955665307E+04  0.91043277554E+02 0.  0.
        254    2    1    2    0    0 -0.66673157555E+03 -0.32833235016E+03  0.84436331900E+03  0.14365758147E+04  0.89357010404E+03 0.  0.
        -24    2    4    4    0    0 -0.13426073566E+03  0.14271831453E+03 -0.11376121605E+03  0.24079654401E+03  0.81528515793E+02 0.  0.
         24    2    4    4    0    0 -0.53247083989E+03 -0.47105066470E+03  0.95812453506E+03  0.11957792707E+04  0.80445729686E+02 0.  0.
         13    1    3    3    0    0  0.53653499651E+02  0.11739998040E+02 -0.91745096682E+02  0.10692842627E+03  0.00000000000E+00 0.  1.
        -13    1    3    3    0    0  0.61307807590E+03  0.31659235212E+03 -0.70803238418E+03  0.98863810447E+03  0.00000000000E+00 0. -1.
          2    1    6    6  502    0 -0.36488984865E+03 -0.27736414689E+03  0.64460269205E+03  0.79094127609E+03  0.00000000000E+00 0. -1.
          3    1    5    5  503    0 -0.39001902006E+02  0.14152311135E+02 -0.58073982063E+02  0.71372429293E+02  0.00000000000E+00 0. -1.
         -4    1    5    5    0  503 -0.95258833654E+02  0.12856600340E+03 -0.55687233990E+02  0.16942411472E+03  0.00000000000E+00 0.  1.
         -1    1    6    6    0  502 -0.16758099124E+03 -0.19368651781E+03  0.31352184300E+03  0.40483799457E+03  0.00000000000E+00 0.  1.
<mgrwt>
<rscale>  0 0.25317498E+04</rscale>
<asrwt>0</asrwt>
<pdfrwt beam="1">  1        1 0.19135050E+00 0.25317498E+04</pdfrwt>
<pdfrwt beam="2">  1       -1 0.19820986E+00 0.25317498E+04</pdfrwt>
<totfact> 0.13623155E+00</totfact>
</mgrwt>
</event>
<event>
12    1  0.1663913E-007  0.1226873E+04  0.7818608E-02  0.9089654E-01
         -1   -1    0    0    0  501 -0.00000000000E+00  0.00000000000E+00  0.20436736343E+03  0.20436736343E+03  0.00000000000E+00 0.  1.
          1   -1    0    0  501    0  0.00000000000E+00 -0.00000000000E+00 -0.18413145753E+04  0.18413145753E+04  0.00000000000E+00 0. -1.
         23    2    1    2    0    0  0.13207040074E+03 -0.21759516525E+03 -0.22367091183E+03  0.35008361094E+03  0.87975059854E+02 0.  0.
        254    2    1    2    0    0 -0.13207040074E+03  0.21759516525E+03 -0.14132763001E+04  0.16955983278E+04  0.90161718165E+03 0.  0.
        -24    2    4    4    0    0 -0.75966313252E+02  0.52551598341E+03 -0.11838547489E+04  0.12999322744E+04  0.79836846602E+02 0.  0.
         24    2    4    4    0    0 -0.56104087492E+02 -0.30792081815E+03 -0.22942155116E+03  0.39566605336E+03  0.77165269148E+02 0.  0.
         13    1    3    3    0    0  0.12737219835E+03 -0.20885015397E+03 -0.23198583796E+03  0.33713423549E+03  0.00000000000E+00 0.  1.
        -13    1    3    3    0    0  0.46982023917E+01 -0.87450112848E+01  0.83149261277E+01  0.12949375452E+02  0.00000000000E+00 0. -1.
          2    1    6    6  502    0  0.19598203914E+02 -0.68138993557E+02 -0.51917693064E+02  0.87877522113E+02  0.00000000000E+00 0. -1.
          1    1    5    5  503    0 -0.73351892425E+02  0.25327501063E+03 -0.62234394678E+03  0.67589993285E+03  0.00000000000E+00 0. -1.
         -2    1    5    5    0  503 -0.26144208267E+01  0.27224097278E+03 -0.56151080212E+03  0.62403234160E+03  0.00000000000E+00 0.  1.
         -1    1    6    6    0  502 -0.75702291406E+02 -0.23978182460E+03 -0.17750385809E+03  0.30778853125E+03  0.00000000000E+00 0.  1.
<mgrwt>
<rscale>  0 0.12268734E+04</rscale>
<asrwt>0</asrwt>
<pdfrwt beam="1">  1        1 0.28327915E+00 0.12268734E+04</pdfrwt>
<pdfrwt beam="2">  1       -1 0.31441134E-01 0.12268734E+04</pdfrwt>
<totfact> 0.35466739E+01</totfact>
</mgrwt>
</event>
<event>
12    1  0.1663913E-007  0.2185766E+04  0.7818608E-02  0.8524376E-01
          1   -1    0    0  501    0  0.00000000000E+00  0.00000000000E+00  0.13486016210E+04  0.13486016210E+04  0.00000000000E+00 0. -1.
         -1   -1    0    0    0  501 -0.00000000000E+00 -0.00000000000E+00 -0.88565339833E+03  0.88565339833E+03  0.00000000000E+00 0.  1.
         23    2    1    2    0    0 -0.68803478730E+02  0.69201695689E+03 -0.42205902783E+03  0.81750015941E+03  0.80940103490E+02 0.  0.
        254    2    1    2    0    0  0.68803478730E+02 -0.69201695689E+03  0.88500725049E+03  0.14167548599E+04  0.86042728478E+03 0.  0.
        -24    2    4    4    0    0 -0.19405647790E+03  0.11835087703E+03  0.27898212986E+03  0.36822183507E+03  0.78047705467E+02 0.  0.
         24    2    4    4    0    0  0.26285995663E+03 -0.81036783391E+03  0.60602512063E+03  0.10485330249E+04  0.79772641535E+02 0.  0.
         11    1    3    3    0    0 -0.61136416900E+02  0.46936194701E+03 -0.32690409890E+03  0.57524306919E+03  0.00000000000E+00 0.  1.
        -11    1    3    3    0    0 -0.76670618299E+01  0.22265500988E+03 -0.95154928923E+02  0.24225709022E+03  0.00000000000E+00 0. -1.
          2    1    6    6  502    0  0.10763208549E+02 -0.30158055282E+02  0.61785994669E+01  0.32611808414E+02  0.00000000000E+00 0. -1.
          3    1    5    5  503    0 -0.46910431658E+02  0.30226810176E+02  0.12832419890E+03  0.13993337227E+03  0.00000000000E+00 0. -1.
         -4    1    5    5    0  503 -0.14714604625E+03  0.88124066850E+02  0.15065793096E+03  0.22828846279E+03  0.00000000000E+00 0.  1.
         -1    1    6    6    0  502  0.25209674808E+03 -0.78020977863E+03  0.59984652116E+03  0.10159212164E+04  0.00000000000E+00 0.  1.
<mgrwt>
<rscale>  0 0.21857663E+04</rscale>
<asrwt>0</asrwt>
<pdfrwt beam="1">  1        1 0.20747717E+00 0.21857663E+04</pdfrwt>
<pdfrwt beam="2">  1       -1 0.13625437E+00 0.21857663E+04</pdfrwt>
<totfact> 0.34298467E+00</totfact>
</mgrwt>
</event>
<event>
12    1  0.1663913E-007  0.3158600E+04  0.7818608E-02  0.8199837E-01
          1   -1    0    0  501    0  0.00000000000E+00  0.00000000000E+00  0.86368511611E+03  0.86368511611E+03  0.00000000000E+00 0. -1.
         -1   -1    0    0    0  501 -0.00000000000E+00 -0.00000000000E+00 -0.28878440415E+04  0.28878440415E+04  0.00000000000E+00 0.  1.
         23    2    1    2    0    0 -0.12099178389E+04  0.69604936528E+03 -0.13667976553E+04  0.19555257165E+04  0.86943095517E+02 0.  0.
        254    2    1    2    0    0  0.12099178389E+04 -0.69604936528E+03 -0.65736127014E+03  0.17960034411E+04  0.91930333687E+03 0.  0.
        -24    2    4    4    0    0  0.25259049348E+01 -0.40983648786E+03 -0.77859692070E+02  0.42431647711E+03  0.77524280823E+02 0.  0.
         24    2    4    4    0    0  0.12073919339E+04 -0.28621287742E+03 -0.57950157807E+03  0.13716869640E+04  0.77394798438E+02 0.  0.
         13    1    3    3    0    0 -0.92946648810E+02  0.77495091715E+02 -0.13670545974E+03  0.18257314010E+03  0.00000000000E+00 0.  1.
        -13    1    3    3    0    0 -0.11169711901E+04  0.61855427356E+03 -0.12300921955E+04  0.17729525764E+04  0.00000000000E+00 0. -1.
          2    1    6    6  502    0  0.31331573334E+03 -0.41924452660E+02 -0.13419894417E+03  0.34341485860E+03  0.00000000000E+00 0. -1.
          3    1    5    5  503    0  0.16795292693E+02 -0.36304633675E+03 -0.88941161672E+02  0.37415939748E+03  0.00000000000E+00 0. -1.
         -4    1    5    5    0  503 -0.14269387758E+02 -0.46790151117E+02  0.11081469603E+02  0.50157079631E+02  0.00000000000E+00 0.  1.
         -1    1    6    6    0  502  0.89407620060E+03 -0.24428842476E+03 -0.44530263390E+03  0.10282721054E+04  0.00000000000E+00 0.  1.
<mgrwt>
<rscale>  0 0.31585996E+04</rscale>
<asrwt>0</asrwt>
<pdfrwt beam="1">  1        1 0.13287464E+00 0.31585996E+04</pdfrwt>
<pdfrwt beam="2">  1       -1 0.44428369E+00 0.31585996E+04</pdfrwt>
<totfact> 0.57962472E-02</totfact>
</mgrwt>
</event>
<event>
12    1  0.1663913E-007  0.1741517E+04  0.7818608E-02  0.8738033E-01
          2   -1    0    0  501    0  0.00000000000E+00  0.00000000000E+00  0.63784039844E+03  0.63784039844E+03  0.00000000000E+00 0. -1.
         -2   -1    0    0    0  501 -0.00000000000E+00 -0.00000000000E+00 -0.11887310485E+04  0.11887310485E+04  0.00000000000E+00 0.  1.
         23    2    1    2    0    0  0.13090037615E+03  0.22200330138E+03 -0.81080805543E+03  0.85567158233E+03  0.91344292443E+02 0.  0.
        254    2    1    2    0    0 -0.13090037615E+03 -0.22200330138E+03  0.25991740539E+03  0.97089986459E+03  0.89926031556E+03 0.  0.
        -24    2    4    4    0    0 -0.39510483943E+03  0.93672724010E+02 -0.90910183934E+02  0.42367968584E+03  0.79733313516E+02 0.  0.
         24    2    4    4    0    0  0.26420446328E+03 -0.31567602539E+03  0.35082758932E+03  0.54722017876E+03  0.83153924675E+02 0.  0.
         13    1    3    3    0    0  0.56723766904E+02  0.15146723947E+03 -0.59860709794E+03  0.62007287319E+03  0.00000000000E+00 0. -1.
        -13    1    3    3    0    0  0.74176609249E+02  0.70536061904E+02 -0.21220095749E+03  0.23559870914E+03  0.00000000000E+00 0.  1.
          2    1    6    6  502    0  0.48900201509E+02 -0.48905321483E+02  0.10357673082E+03  0.12454356404E+03  0.00000000000E+00 0. -1.
          1    1    5    5  503    0 -0.48713204721E+02  0.12046425224E+01 -0.36877680578E+02  0.61109662105E+02  0.00000000000E+00 0. -1.
         -2    1    5    5    0  503 -0.34639163471E+03  0.92468081488E+02 -0.54032503356E+02  0.36257002373E+03  0.00000000000E+00 0.  1.
         -1    1    6    6    0  502  0.21530426177E+03 -0.26677070390E+03  0.24725085851E+03  0.42267661472E+03  0.00000000000E+00 0.  1.
<mgrwt>
<rscale>  0 0.17415174E+04</rscale>
<asrwt>0</asrwt>
<pdfrwt beam="1">  1        2 0.98129293E-01 0.17415174E+04</pdfrwt>
<pdfrwt beam="2">  1       -2 0.18288170E+00 0.17415174E+04</pdfrwt>
<totfact> 0.75554607E+00</totfact>
</mgrwt>
</event>
<event>
12    1  0.1663913E-007  0.1618466E+04  0.7818608E-02  0.8809283E-01
         -1   -1    0    0    0  501 -0.00000000000E+00  0.00000000000E+00  0.92562653353E+03  0.92562653353E+03  0.00000000000E+00 0.  1.
          1   -1    0    0  501    0  0.00000000000E+00 -0.00000000000E+00 -0.70747527513E+03  0.70747527513E+03  0.00000000000E+00 0. -1.
         23    2    1    2    0    0  0.52720542624E+03 -0.11838754111E+03 -0.42441735004E+02  0.55270850648E+03  0.10827844159E+03 0.  0.
        254    2    1    2    0    0 -0.52720542624E+03  0.11838754111E+03  0.26059299341E+03  0.10803933022E+04  0.89854315858E+03 0.  0.
        -24    2    4    4    0    0 -0.56424099943E+03  0.21333585908E+03  0.51407912561E+03  0.79655063134E+03  0.79595644970E+02 0.  0.
         24    2    4    4    0    0  0.37035573192E+02 -0.94948317964E+02 -0.25348613220E+03  0.28384267084E+03  0.76971590884E+02 0.  0.
         11    1    3    3    0    0  0.17751269656E+03  0.11568880673E+02 -0.81498488802E+01  0.17807587281E+03  0.00000000000E+00 0.  1.
        -11    1    3    3    0    0  0.34969272968E+03 -0.12995642179E+03 -0.34291886124E+02  0.37463263367E+03  0.00000000000E+00 0. -1.
          2    1    6    6  502    0  0.17173032555E+01 -0.76046273821E+02 -0.10254954397E+03  0.12768082809E+03  0.00000000000E+00 0. -1.
          1    1    5    5  503    0 -0.38116953059E+03  0.18283621814E+03  0.35034075502E+03  0.54905185396E+03  0.00000000000E+00 0. -1.
         -4    1    5    5    0  503 -0.18307146885E+03  0.30499640942E+02  0.16373837059E+03  0.24749877738E+03  0.00000000000E+00 0.  1.
         -1    1    6    6    0  502  0.35318269936E+02 -0.18902044143E+02 -0.15093658823E+03  0.15616184275E+03  0.00000000000E+00 0.  1.
<mgrwt>
<rscale>  0 0.16184658E+04</rscale>
<asrwt>0</asrwt>
<pdfrwt beam="1">  1        1 0.10884235E+00 0.16184658E+04</pdfrwt>
<pdfrwt beam="2">  1       -1 0.14240408E+00 0.16184658E+04</pdfrwt>
<totfact> 0.10295054E+01</totfact>
</mgrwt>
</event>
<event>
12    1  0.1663913E-007  0.1564748E+04  0.7818608E-02  0.8842502E-01
         -1   -1    0    0    0  501 -0.00000000000E+00  0.00000000000E+00  0.32136531109E+03  0.32136531109E+03  0.00000000000E+00 0.  1.
          1   -1    0    0  501    0  0.00000000000E+00 -0.00000000000E+00 -0.19047143513E+04  0.19047143513E+04  0.00000000000E+00 0. -1.
         23    2    1    2    0    0  0.41095761546E+03  0.29221949123E+03 -0.44856444655E+03  0.68115778928E+03  0.92127511807E+02 0.  0.
        254    2    1    2    0    0 -0.41095761546E+03 -0.29221949123E+03 -0.11347845936E+04  0.15449218731E+04  0.91911322874E+03 0.  0.
        -24    2    4    4    0    0  0.75598364621E+01  0.23460504382E+03 -0.69393288834E+03  0.73653400825E+03  0.76438302423E+02 0.  0.
         24    2    4    4    0    0 -0.41851745192E+03 -0.52682453505E+03 -0.44085170529E+03  0.80838786484E+03  0.80248150573E+02 0.  0.
         11    1    3    3    0    0  0.18494820104E+03  0.15618498783E+03 -0.26991347835E+03  0.36256430228E+03  0.00000000000E+00 0. -1.
        -11    1    3    3    0    0  0.22600941442E+03  0.13603450340E+03 -0.17865096820E+03  0.31859348700E+03  0.00000000000E+00 0.  1.
          4    1    6    6  502    0 -0.11907642005E+03 -0.15314857744E+03 -0.17177651534E+03  0.25911551827E+03  0.00000000000E+00 0. -1.
          3    1    5    5  503    0 -0.32268223738E+02  0.13180397574E+03 -0.35107541923E+03  0.37638740185E+03  0.00000000000E+00 0. -1.
         -4    1    5    5    0  503  0.39828060200E+02  0.10280106808E+03 -0.34285746910E+03  0.36014660639E+03  0.00000000000E+00 0.  1.
         -3    1    6    6    0  502 -0.29944103187E+03 -0.37367595761E+03 -0.26907518995E+03  0.54927234657E+03  0.00000000000E+00 0.  1.
<mgrwt>
<rscale>  0 0.15647481E+04</rscale>
<asrwt>0</asrwt>
<pdfrwt beam="1">  1        1 0.29303298E+00 0.15647481E+04</pdfrwt>
<pdfrwt beam="2">  1       -1 0.49440817E-01 0.15647481E+04</pdfrwt>
<totfact> 0.13652062E+01</totfact>
</mgrwt>
</event>
<event>
12    1  0.1663913E-007  0.1290715E+04  0.7818608E-02  0.9036961E-01
          2   -1    0    0  501    0  0.00000000000E+00  0.00000000000E+00  0.11685315747E+04  0.11685315747E+04  0.00000000000E+00 0. -1.
         -2   -1    0    0    0  501 -0.00000000000E+00 -0.00000000000E+00 -0.35641870726E+03  0.35641870726E+03  0.00000000000E+00 0.  1.
         23    2    1    2    0    0 -0.91438132599E+02  0.17244926353E+03 -0.99933065616E+02  0.23584961040E+03  0.86825920881E+02 0.  0.
        254    2    1    2    0    0  0.91438132599E+02 -0.17244926353E+03  0.91204593306E+03  0.12891006716E+04  0.88986126831E+03 0.  0.
        -24    2    4    4    0    0  0.37207867486E+03 -0.87014757317E+02  0.90418543048E+03  0.98484796844E+03  0.79750360328E+02 0.  0.
         24    2    4    4    0    0 -0.28064054227E+03 -0.85434506215E+02  0.78605025865E+01  0.30425270313E+03  0.80310342091E+02 0.  0.
         13    1    3    3    0    0 -0.63981540063E+02  0.17347053639E+03 -0.77914184434E+02  0.20063968850E+03  0.00000000000E+00 0. -1.
        -13    1    3    3    0    0 -0.27456592536E+02 -0.10212728584E+01 -0.22018881181E+02  0.35209921903E+02  0.00000000000E+00 0.  1.
          4    1    6    6  502    0 -0.39289003552E+02 -0.36630526852E+02 -0.18024239955E+02  0.56659461024E+02  0.00000000000E+00 0. -1.
          3    1    5    5  503    0  0.28671007125E+02  0.12157115292E+02  0.10159575511E+03  0.10626156200E+03  0.00000000000E+00 0. -1.
         -2    1    5    5    0  503  0.34340766774E+03 -0.99171872609E+02  0.80258967537E+03  0.87858640644E+03  0.00000000000E+00 0.  1.
         -3    1    6    6    0  502 -0.24135153871E+03 -0.48803979363E+02  0.25884742542E+02  0.24759324211E+03  0.00000000000E+00 0.  1.
<mgrwt>
<rscale>  0 0.12907153E+04</rscale>
<asrwt>0</asrwt>
<pdfrwt beam="1">  1        2 0.17977409E+00 0.12907153E+04</pdfrwt>
<pdfrwt beam="2">  1       -2 0.54833648E-01 0.12907153E+04</pdfrwt>
<totfact> 0.60702982E+01</totfact>
</mgrwt>
</event>
<event>
12    1  0.1663913E-007  0.2453933E+04  0.7818608E-02  0.8419583E-01
          2   -1    0    0  501    0  0.00000000000E+00  0.00000000000E+00  0.59917862036E+03  0.59917862036E+03  0.00000000000E+00 0. -1.
         -2   -1    0    0    0  501 -0.00000000000E+00 -0.00000000000E+00 -0.25125180142E+04  0.25125180142E+04  0.00000000000E+00 0.  1.
         23    2    1    2    0    0 -0.95468372108E+03 -0.16686166438E+03 -0.29114020542E+03  0.10159735457E+04  0.90420152790E+02 0.  0.
        254    2    1    2    0    0  0.95468372108E+03  0.16686166438E+03 -0.16221991884E+04  0.20957230888E+04  0.90623464724E+03 0.  0.
        -24    2    4    4    0    0  0.57497580110E+03  0.45202294676E+03 -0.13628719161E+04  0.15490004292E+04  0.84027100307E+02 0.  0.
         24    2    4    4    0    0  0.37970791998E+03 -0.28516128238E+03 -0.25932727228E+03  0.54672265965E+03  0.78485482530E+02 0.  0.
         11    1    3    3    0    0 -0.93850031391E+03 -0.16129827220E+03 -0.27209949183E+03  0.99037271028E+03  0.00000000000E+00 0. -1.
        -11    1    3    3    0    0 -0.16183407173E+02 -0.55633921843E+01 -0.19040713596E+02  0.25600835427E+02  0.00000000000E+00 0.  1.
          4    1    6    6  502    0  0.11559274535E+03 -0.46232873470E+02 -0.79874055896E+02  0.14791560490E+03  0.00000000000E+00 0. -1.
          1    1    5    5  503    0  0.17684906062E+03  0.18413257247E+03 -0.51278329123E+03  0.57282379337E+03  0.00000000000E+00 0. -1.
         -2    1    5    5    0  503  0.39812674048E+03  0.26789037429E+03 -0.85008862487E+03  0.97617663578E+03  0.00000000000E+00 0.  1.
         -3    1    6    6    0  502  0.26411517463E+03 -0.23892840890E+03 -0.17945321638E+03  0.39880705475E+03  0.00000000000E+00 0.  1.
<mgrwt>
<rscale>  0 0.24539332E+04</rscale>
<asrwt>0</asrwt>
<pdfrwt beam="1">  1        2 0.92181326E-01 0.24539332E+04</pdfrwt>
<pdfrwt beam="2">  1       -2 0.38654123E+00 0.24539332E+04</pdfrwt>
<totfact> 0.40419751E-01</totfact>
</mgrwt>
</event>
<event>
12    1  0.1663913E-007  0.1391941E+04  0.7818608E-02  0.8959673E-01
          1   -1    0    0  501    0  0.00000000000E+00  0.00000000000E+00  0.30156089709E+04  0.30156089709E+04  0.00000000000E+00 0. -1.
         -1   -1    0    0    0  501 -0.00000000000E+00 -0.00000000000E+00 -0.16062262592E+03  0.16062262592E+03  0.00000000000E+00 0.  1.
         23    2    1    2    0    0  0.42921544798E+02  0.52012101167E+02 -0.57872247937E+02  0.12806515414E+03  0.92216966696E+02 0.  0.
        254    2    1    2    0    0 -0.42921544798E+02 -0.52012101167E+02  0.29128585929E+04  0.30481664427E+04  0.89555902225E+03 0.  0.
        -24    2    4    4    0    0  0.23701205166E+03  0.33231949491E+03  0.13866308788E+04  0.14476641471E+04  0.79845659797E+02 0.  0.
         24    2    4    4    0    0 -0.27993359646E+03 -0.38433159608E+03  0.15262277141E+04  0.16005022955E+04  0.78504577747E+02 0.  0.
         13    1    3    3    0    0  0.39000666601E+02  0.75960438455E+02 -0.58972879579E+02  0.10377302507E+03  0.00000000000E+00 0.  1.
        -13    1    3    3    0    0  0.39208781974E+01 -0.23948337288E+02  0.11006316422E+01  0.24292129069E+02  0.00000000000E+00 0. -1.
          2    1    6    6  502    0 -0.37045848417E+02 -0.30144688613E+02  0.23245916939E+03  0.23731490171E+03  0.00000000000E+00 0. -1.
          3    1    5    5  503    0  0.75964877659E+02  0.62817362652E+02  0.25833026503E+03  0.27649811847E+03  0.00000000000E+00 0. -1.
         -4    1    5    5    0  503  0.16104717400E+03  0.26950213226E+03  0.11283006138E+04  0.11711660287E+04  0.00000000000E+00 0.  1.
         -1    1    6    6    0  502 -0.24288774804E+03 -0.35418690746E+03  0.12937685447E+04  0.13631873938E+04  0.00000000000E+00 0.  1.
<mgrwt>
<rscale>  0 0.13919411E+04</rscale>
<asrwt>0</asrwt>
<pdfrwt beam="1">  1        1 0.46393980E+00 0.13919411E+04</pdfrwt>
<pdfrwt beam="2">  1       -1 0.24711176E-01 0.13919411E+04</pdfrwt>
<totfact> 0.81848207E+00</totfact>
</mgrwt>
</event>
<event>
12    1  0.1663913E-007  0.1422168E+04  0.7818608E-02  0.8937926E-01
         -2   -1    0    0    0  501 -0.00000000000E+00  0.00000000000E+00  0.13104840124E+04  0.13104840124E+04  0.00000000000E+00 0.  1.
          2   -1    0    0  501    0  0.00000000000E+00 -0.00000000000E+00 -0.38584275125E+03  0.38584275125E+03  0.00000000000E+00 0. -1.
         23    2    1    2    0    0 -0.54332687513E+02  0.31574146002E+03 -0.45746945696E+02  0.33619486678E+03  0.91046663304E+02 0.  0.
        254    2    1    2    0    0  0.54332687513E+02 -0.31574146002E+03  0.97038820688E+03  0.13601318969E+04  0.89758609306E+03 0.  0.
        -24    2    4    4    0    0 -0.21163831959E+03  0.24139913945E+03  0.34204557050E+03  0.47573243999E+03  0.79131910850E+02 0.  0.
         24    2    4    4    0    0  0.26597100710E+03 -0.55714059947E+03  0.62834263638E+03  0.88439945693E+03  0.78750914430E+02 0.  0.
         11    1    3    3    0    0 -0.39675017837E+02  0.16629839571E+03  0.20270606152E+02  0.17216318111E+03  0.00000000000E+00 0. -1.
        -11    1    3    3    0    0 -0.14657669675E+02  0.14944306431E+03 -0.66017551849E+02  0.16403168566E+03  0.00000000000E+00 0.  1.
          4    1    6    6  502    0  0.58286111605E+02 -0.20219031366E+03  0.23280913470E+03  0.31381250285E+03  0.00000000000E+00 0. -1.
          1    1    5    5  503    0 -0.26738302013E+02  0.75824029073E+02  0.10752687190E+03  0.13426186488E+03  0.00000000000E+00 0. -1.
         -2    1    5    5    0  503 -0.18490001757E+03  0.16557511038E+03  0.23451869860E+03  0.34147057511E+03  0.00000000000E+00 0.  1.
         -3    1    6    6    0  502  0.20768489549E+03 -0.35495028581E+03  0.39553350168E+03  0.57058695408E+03  0.00000000000E+00 0.  1.
<mgrwt>
<rscale>  0 0.14221684E+04</rscale>
<asrwt>0</asrwt>
<pdfrwt beam="1">  1        2 0.59360424E-01 0.14221684E+04</pdfrwt>
<pdfrwt beam="2">  1       -2 0.20161292E+00 0.14221684E+04</pdfrwt>
<totfact> 0.10436215E+01</totfact>
</mgrwt>
</event>
<event>
12    1  0.1663913E-007  0.1921846E+04  0.7818608E-02  0.8644058E-01
          1   -1    0    0  501    0  0.00000000000E+00  0.00000000000E+00  0.53684467666E+03  0.53684467666E+03  0.00000000000E+00 0. -1.
         -1   -1    0    0    0  501 -0.00000000000E+00 -0.00000000000E+00 -0.17199995863E+04  0.17199995863E+04  0.00000000000E+00 0.  1.
         23    2    1    2    0    0 -0.33154202938E+03  0.24568049919E+03  0.26898348915E+03  0.50187153656E+03  0.96145186304E+02 0.  0.
        254    2    1    2    0    0  0.33154202938E+03 -0.24568049919E+03 -0.14521383988E+04  0.17549727264E+04  0.89495492414E+03 0.  0.
        -24    2    4    4    0    0  0.62288371136E+03 -0.25247637827E+03 -0.91347331506E+03  0.11369580689E+04  0.80695189941E+02 0.  0.
         24    2    4    4    0    0 -0.29134168198E+03  0.67958790740E+01 -0.53866508378E+03  0.61801465753E+03  0.82800270554E+02 0.  0.
         11    1    3    3    0    0 -0.47092978567E+02  0.38182782379E+01  0.12445963063E+02  0.48859286483E+02  0.00000000000E+00 0.  1.
        -11    1    3    3    0    0 -0.28444905081E+03  0.24186222095E+03  0.25653752608E+03  0.45301225008E+03  0.00000000000E+00 0. -1.
          2    1    6    6  502    0 -0.40991531487E+02 -0.21012457756E+02 -0.48336825541E+02  0.66770335763E+02  0.00000000000E+00 0. -1.
          1    1    5    5  503    0  0.34531047823E+02 -0.26476892054E+02 -0.90033429634E+02  0.99997187602E+02  0.00000000000E+00 0. -1.
         -2    1    5    5    0  503  0.58835266354E+03 -0.22599948621E+03 -0.82343988542E+03  0.10369608813E+04  0.00000000000E+00 0.  1.
         -1    1    6    6    0  502 -0.25035015050E+03  0.27808336830E+02 -0.49032825824E+03  0.55124432177E+03  0.00000000000E+00 0.  1.
<mgrwt>
<rscale>  0 0.19218456E+04</rscale>
<asrwt>0</asrwt>
<pdfrwt beam="1">  1        1 0.82591490E-01 0.19218456E+04</pdfrwt>
<pdfrwt beam="2">  1       -1 0.26461532E+00 0.19218456E+04</pdfrwt>
<totfact> 0.20995553E+00</totfact>
</mgrwt>
</event>
<event>
12    1  0.1663913E-007  0.1409393E+04  0.7818608E-02  0.8947047E-01
         -2   -1    0    0    0  501 -0.00000000000E+00  0.00000000000E+00  0.15610170091E+03  0.15610170091E+03  0.00000000000E+00 0. -1.
          2   -1    0    0  501    0  0.00000000000E+00 -0.00000000000E+00 -0.31812429061E+04  0.31812429061E+04  0.00000000000E+00 0.  1.
         23    2    1    2    0    0  0.15988630454E+03 -0.29872382276E+03 -0.33901805561E+03  0.48759368350E+03  0.89525446078E+02 0.  0.
        254    2    1    2    0    0 -0.15988630454E+03  0.29872382276E+03 -0.26861231496E+04  0.28497509235E+04  0.88939484971E+03 0.  0.
        -24    2    4    4    0    0 -0.48497149591E+03  0.36174386666E+03 -0.17701957364E+04  0.18726146074E+04  0.83884120756E+02 0.  0.
         24    2    4    4    0    0  0.32508519136E+03 -0.63020043894E+02 -0.91592741317E+03  0.97713631612E+03  0.78869807336E+02 0.  0.
         11    1    3    3    0    0  0.16680756486E+02 -0.98270895378E+02 -0.64401631141E+02  0.11867175995E+03  0.00000000000E+00 0. -1.
        -11    1    3    3    0    0  0.14320554806E+03 -0.20045292738E+03 -0.27461642447E+03  0.36892192356E+03  0.00000000000E+00 0.  1.
          2    1    6    6  502    0  0.30704388715E+03 -0.68400684473E+02 -0.89648007922E+03  0.95006901576E+03  0.00000000000E+00 0. -1.
          1    1    5    5  503    0 -0.31178299919E+03  0.25167807251E+03 -0.12784583360E+04  0.13397784173E+04  0.00000000000E+00 0. -1.
         -2    1    5    5    0  503 -0.17318849672E+03  0.11006579415E+03 -0.49173740041E+03  0.53283619003E+03  0.00000000000E+00 0.  1.
         -1    1    6    6    0  502  0.18041304219E+02  0.53806405787E+01 -0.19447333943E+02  0.27067300354E+02  0.00000000000E+00 0.  1.
<mgrwt>
<rscale>  0 0.14093934E+04</rscale>
<asrwt>0</asrwt>
<pdfrwt beam="1">  1        2 0.48942203E+00 0.14093934E+04</pdfrwt>
<pdfrwt beam="2">  1       -2 0.24015644E-01 0.14093934E+04</pdfrwt>
<totfact> 0.20247613E+01</totfact>
</mgrwt>
</event>
<event>
12    1  0.1663913E-007  0.1809719E+04  0.7818608E-02  0.8701148E-01
         -2   -1    0    0    0  501 -0.00000000000E+00  0.00000000000E+00  0.62196360875E+03  0.62196360875E+03  0.00000000000E+00 0.  1.
          2   -1    0    0  501    0  0.00000000000E+00 -0.00000000000E+00 -0.13164289288E+04  0.13164289288E+04  0.00000000000E+00 0. -1.
         23    2    1    2    0    0  0.63716714618E+03  0.17840922043E+02 -0.51956646912E+03  0.82780234831E+03  0.94905960609E+02 0.  0.
        254    2    1    2    0    0 -0.63716714618E+03 -0.17840922043E+02 -0.17489885097E+03  0.11105901893E+04  0.89248007809E+03 0.  0.
        -24    2    4    4    0    0 -0.21033680362E+03  0.41986318973E+03 -0.12333179489E+03  0.49201455036E+03  0.79629875558E+02 0.  0.
         24    2    4    4    0    0 -0.42683034257E+03 -0.43770411178E+03 -0.51567056074E+02  0.61857563893E+03  0.78788508037E+02 0.  0.
         13    1    3    3    0    0  0.49252188105E+03  0.42573153715E+02 -0.36374357838E+03  0.61375863948E+03  0.00000000000E+00 0. -1.
        -13    1    3    3    0    0  0.14464526514E+03 -0.24732231672E+02 -0.15582289074E+03  0.21404370883E+03  0.00000000000E+00 0.  1.
          2    1    6    6  502    0 -0.22378832351E+03 -0.28400904397E+03 -0.37740689219E+02  0.36354739776E+03  0.00000000000E+00 0. -1.
          3    1    5    5  503    0 -0.16767610045E+03  0.32381106900E+03 -0.60695991940E+02  0.36966591202E+03  0.00000000000E+00 0. -1.
         -2    1    5    5    0  503 -0.42660703163E+02  0.96052120735E+02 -0.62635802951E+02  0.12234863834E+03  0.00000000000E+00 0.  1.
         -1    1    6    6    0  502 -0.20304201906E+03 -0.15369506781E+03 -0.13826366855E+02  0.25502824117E+03  0.00000000000E+00 0.  1.
<mgrwt>
<rscale>  0 0.18097192E+04</rscale>
<asrwt>0</asrwt>
<pdfrwt beam="1">  1        2 0.20252753E+00 0.18097192E+04</pdfrwt>
<pdfrwt beam="2">  1       -2 0.95686709E-01 0.18097192E+04</pdfrwt>
<totfact> 0.13981627E+01</totfact>
</mgrwt>
</event>
<event>
12    1  0.1663913E-007  0.2073298E+04  0.7818608E-02  0.8573098E-01
          2   -1    0    0  501    0  0.00000000000E+00  0.00000000000E+00  0.10053069960E+04  0.10053069960E+04  0.00000000000E+00 0.  1.
         -2   -1    0    0    0  501 -0.00000000000E+00 -0.00000000000E+00 -0.10689680504E+04  0.10689680504E+04  0.00000000000E+00 0. -1.
         23    2    1    2    0    0 -0.11536546666E+03 -0.79854898332E+03 -0.27728871032E+03  0.85801418019E+03  0.91157198700E+02 0.  0.
        254    2    1    2    0    0  0.11536546666E+03  0.79854898332E+03  0.21362765590E+03  0.12162608662E+04  0.88468302208E+03 0.  0.
        -24    2    4    4    0    0  0.20503841068E+03  0.89497787769E+03  0.37280748289E+03  0.99399314362E+03  0.77529341838E+02 0.  0.
         24    2    4    4    0    0 -0.89672944023E+02 -0.96428894367E+02 -0.15917982700E+03  0.22226772255E+03  0.82005820571E+02 0.  0.
         13    1    3    3    0    0 -0.10022837111E+03 -0.55057651467E+03 -0.15266764820E+03  0.58007554309E+03  0.00000000000E+00 0.  1.
        -13    1    3    3    0    0 -0.15137095550E+02 -0.24797246865E+03 -0.12462106212E+03  0.27793863710E+03  0.00000000000E+00 0. -1.
          4    1    6    6  502    0 -0.70040702590E+02 -0.19946709668E+02 -0.53587755147E+02  0.90416916269E+02  0.00000000000E+00 0. -1.
          3    1    5    5  503    0  0.13001826266E+02  0.19899971514E+03  0.77858287884E+02  0.21408373854E+03  0.00000000000E+00 0. -1.
         -4    1    5    5    0  503  0.19203658442E+03  0.69597816255E+03  0.29494919501E+03  0.77990940508E+03  0.00000000000E+00 0.  1.
         -3    1    6    6    0  502 -0.19632241432E+02 -0.76482184700E+02 -0.10559207185E+03  0.13185080628E+03  0.00000000000E+00 0.  1.
<mgrwt>
<rscale>  0 0.20732979E+04</rscale>
<asrwt>0</asrwt>
<pdfrwt beam="1">  1        2 0.15466261E+00 0.20732979E+04</pdfrwt>
<pdfrwt beam="2">  1       -2 0.16445662E+00 0.20732979E+04</pdfrwt>
<totfact> 0.53915519E+00</totfact>
</mgrwt>
</event>
<event>
12    1  0.1663913E-007  0.2079364E+04  0.7818608E-02  0.8570388E-01
          2   -1    0    0  501    0  0.00000000000E+00  0.00000000000E+00  0.17346036629E+04  0.17346036629E+04  0.00000000000E+00 0. -1.
         -2   -1    0    0    0  501 -0.00000000000E+00 -0.00000000000E+00 -0.62316189802E+03  0.62316189802E+03  0.00000000000E+00 0.  1.
         23    2    1    2    0    0 -0.18143373184E+03 -0.72698089558E+03  0.87699248109E+03  0.11569843392E+04  0.89875067492E+02 0.  0.
        254    2    1    2    0    0  0.18143373184E+03  0.72698089558E+03  0.23444928379E+03  0.12007812217E+04  0.90856461196E+03 0.  0.
        -24    2    4    4    0    0 -0.12360680975E+03 -0.17170374417E+03  0.34604607969E+02  0.22773342448E+03  0.76838887002E+02 0.  0.
         24    2    4    4    0    0  0.30504054159E+03  0.89868463975E+03  0.19984467582E+03  0.97304779720E+03  0.78742031090E+02 0.  0.
         13    1    3    3    0    0 -0.14335662521E+03 -0.52337827847E+03  0.69091996427E+03  0.87854785948E+03  0.00000000000E+00 0. -1.
        -13    1    3    3    0    0 -0.38077106629E+02 -0.20360261710E+03  0.18607251681E+03  0.27843647975E+03  0.00000000000E+00 0.  1.
          2    1    6    6  502    0  0.22934919093E+03  0.68935279528E+03  0.11877975879E+03  0.73615009260E+03  0.00000000000E+00 0. -1.
          1    1    5    5  503    0 -0.52638239030E+02 -0.10969105554E+03  0.51266151812E+02  0.13202700555E+03  0.00000000000E+00 0. -1.
         -2    1    5    5    0  503 -0.70968570721E+02 -0.62012688627E+02 -0.16661543843E+02  0.95706418929E+02  0.00000000000E+00 0.  1.
         -1    1    6    6    0  502  0.75691350664E+02  0.20933184447E+03  0.81064917029E+02  0.23689770461E+03  0.00000000000E+00 0.  1.
<mgrwt>
<rscale>  0 0.20793642E+04</rscale>
<asrwt>0</asrwt>
<pdfrwt beam="1">  1        2 0.26686210E+00 0.20793642E+04</pdfrwt>
<pdfrwt beam="2">  1       -2 0.95871062E-01 0.20793642E+04</pdfrwt>
<totfact> 0.79008087E+00</totfact>
</mgrwt>
</event>
<event>
12    1  0.1663913E-007  0.1435394E+04  0.7818608E-02  0.8928590E-01
          1   -1    0    0  501    0  0.00000000000E+00  0.00000000000E+00  0.79101959587E+03  0.79101959587E+03  0.00000000000E+00 0. -1.
         -1   -1    0    0    0  501 -0.00000000000E+00 -0.00000000000E+00 -0.65117107017E+03  0.65117107017E+03  0.00000000000E+00 0.  1.
         23    2    1    2    0    0  0.30662397147E+03  0.84247092932E+02  0.34217538022E+03  0.47607898952E+03  0.91931392265E+02 0.  0.
        254    2    1    2    0    0 -0.30662397147E+03 -0.84247092932E+02 -0.20232685452E+03  0.96611167652E+03  0.88956156779E+03 0.  0.
        -24    2    4    4    0    0 -0.51361607697E+03 -0.32395375509E+03 -0.79706919235E+02  0.61740961266E+03  0.78063607818E+02 0.  0.
         24    2    4    4    0    0  0.20699210550E+03  0.23970666216E+03 -0.12261993529E+03  0.34870206386E+03  0.79072531189E+02 0.  0.
         13    1    3    3    0    0  0.18546189127E+03  0.95965604736E+02  0.22817689213E+03  0.30930600464E+03  0.00000000000E+00 0. -1.
        -13    1    3    3    0    0  0.12116208020E+03 -0.11718511804E+02  0.11399848810E+03  0.16677298488E+03  0.00000000000E+00 0.  1.
          4    1    6    6  502    0  0.96966893437E+02  0.96135795270E+02 -0.93503839940E+02  0.16549210748E+03  0.00000000000E+00 0. -1.
          3    1    5    5  503    0 -0.70710188185E+02 -0.60707072713E+02  0.12376946333E+02  0.94013127760E+02  0.00000000000E+00 0. -1.
         -4    1    5    5    0  503 -0.44290588879E+03 -0.26324668238E+03 -0.92083865568E+02  0.52339648490E+03  0.00000000000E+00 0.  1.
         -3    1    6    6    0  502  0.11002521206E+03  0.14357086689E+03 -0.29116095349E+02  0.18320995638E+03  0.00000000000E+00 0.  1.
<mgrwt>
<rscale>  0 0.14353941E+04</rscale>
<asrwt>0</asrwt>
<pdfrwt beam="1">  1        1 0.12169532E+00 0.14353941E+04</pdfrwt>
<pdfrwt beam="2">  1       -1 0.10018016E+00 0.14353941E+04</pdfrwt>
<totfact> 0.20787478E+01</totfact>
</mgrwt>
</event>
<event>
12    1  0.1663913E-007  0.2113036E+04  0.7818608E-02  0.8555523E-01
         -1   -1    0    0    0  501 -0.00000000000E+00  0.00000000000E+00  0.12328715256E+04  0.12328715256E+04  0.00000000000E+00 0.  1.
          1   -1    0    0  501    0  0.00000000000E+00 -0.00000000000E+00 -0.90539057714E+03  0.90539057714E+03  0.00000000000E+00 0. -1.
         23    2    1    2    0    0  0.32306590541E+03 -0.13250044248E+03 -0.64645414130E+03  0.74045122556E+03  0.91853764982E+02 0.  0.
        254    2    1    2    0    0 -0.32306590541E+03  0.13250044248E+03  0.97393508980E+03  0.13978108772E+04  0.93989241025E+03 0.  0.
        -24    2    4    4    0    0 -0.57234657544E+03  0.33726000408E+03  0.67802350743E+03  0.95247036340E+03  0.78479320584E+02 0.  0.
         24    2    4    4    0    0  0.24928067003E+03 -0.20475956160E+03  0.29591158237E+03  0.44534051382E+03  0.81836288743E+02 0.  0.
         11    1    3    3    0    0  0.23667488003E+03 -0.56061000159E+02 -0.47745283337E+03  0.53583490244E+03  0.00000000000E+00 0. -1.
        -11    1    3    3    0    0  0.86391025375E+02 -0.76439442320E+02 -0.16900130792E+03  0.20461632312E+03  0.00000000000E+00 0.  1.
          2    1    6    6  502    0  0.13827413153E+01 -0.13303732931E+01  0.26330854557E+02  0.26400677422E+02  0.00000000000E+00 0. -1.
          3    1    5    5  503    0 -0.27388868463E+03  0.16037858129E+03  0.37994463788E+03  0.49506992310E+03  0.00000000000E+00 0. -1.
         -2    1    5    5    0  503 -0.29845789081E+03  0.17688142279E+03  0.29807886955E+03  0.45740044030E+03  0.00000000000E+00 0.  1.
         -1    1    6    6    0  502  0.24789792871E+03 -0.20342918831E+03  0.26958072781E+03  0.41893983640E+03  0.00000000000E+00 0.  1.
<mgrwt>
<rscale>  0 0.21130360E+04</rscale>
<asrwt>0</asrwt>
<pdfrwt beam="1">  1        1 0.13929086E+00 0.21130360E+04</pdfrwt>
<pdfrwt beam="2">  1       -1 0.18967254E+00 0.21130360E+04</pdfrwt>
<totfact> 0.29392136E+00</totfact>
</mgrwt>
</event>
<event>
12    1  0.1663913E-007  0.1397512E+04  0.7818608E-02  0.8955621E-01
          2   -1    0    0  501    0  0.00000000000E+00  0.00000000000E+00  0.30862168729E+04  0.30862168729E+04  0.00000000000E+00 0. -1.
         -2   -1    0    0    0  501 -0.00000000000E+00 -0.00000000000E+00 -0.15820667043E+03  0.15820667043E+03  0.00000000000E+00 0.  1.
         23    2    1    2    0    0 -0.77735759707E+02  0.33384507134E+03  0.37918012011E+03  0.51930129307E+03  0.91656366388E+02 0.  0.
        254    2    1    2    0    0  0.77735759707E+02 -0.33384507134E+03  0.25488300824E+04  0.27251222503E+04  0.90125529686E+03 0.  0.
        -24    2    4    4    0    0  0.61767298080E+02 -0.33172410779E+03  0.26035444323E+04  0.26265382436E+04  0.80021567462E+02 0.  0.
         24    2    4    4    0    0  0.15968461627E+02 -0.21209635528E+01 -0.54714349904E+02  0.98584006709E+02  0.80409303194E+02 0.  0.
         11    1    3    3    0    0 -0.75993610357E+02  0.17504557574E+03  0.25047433424E+03  0.31488628822E+03  0.00000000000E+00 0. -1.
        -11    1    3    3    0    0 -0.17421493497E+01  0.15879949560E+03  0.12870578588E+03  0.20441500485E+03  0.00000000000E+00 0.  1.
          2    1    6    6  502    0  0.16929168268E+02 -0.23104253443E+02  0.10161982391E+02  0.30391925762E+02  0.00000000000E+00 0. -1.
          3    1    5    5  503    0  0.18963218188E+02 -0.12197921532E+02  0.11408825208E+03  0.11629497924E+03  0.00000000000E+00 0. -1.
         -2    1    5    5    0  503  0.42804079893E+02 -0.31952618626E+03  0.24894561802E+04  0.25102432643E+04  0.00000000000E+00 0.  1.
         -3    1    6    6    0  502 -0.96070664161E+00  0.20983289890E+02 -0.64876332295E+02  0.68192080947E+02  0.00000000000E+00 0.  1.
<mgrwt>
<rscale>  0 0.13975122E+04</rscale>
<asrwt>0</asrwt>
<pdfrwt beam="1">  1        2 0.47480255E+00 0.13975122E+04</pdfrwt>
<pdfrwt beam="2">  1       -2 0.24339490E-01 0.13975122E+04</pdfrwt>
<totfact> 0.22748640E+01</totfact>
</mgrwt>
</event>
<event>
12    1  0.1663913E-007  0.1385125E+04  0.7818608E-02  0.8964657E-01
         -2   -1    0    0    0  501 -0.00000000000E+00  0.00000000000E+00  0.25454343528E+03  0.25454343528E+03  0.00000000000E+00 0.  1.
          2   -1    0    0  501    0  0.00000000000E+00 -0.00000000000E+00 -0.18843261102E+04  0.18843261102E+04  0.00000000000E+00 0. -1.
         23    2    1    2    0    0 -0.36303914747E+03  0.13545295994E+03 -0.37001212123E+03  0.54430638482E+03  0.95997623661E+02 0.  0.
        254    2    1    2    0    0  0.36303914747E+03 -0.13545295994E+03 -0.12597705537E+04  0.15945631606E+04  0.89747696261E+03 0.  0.
        -24    2    4    4    0    0  0.16108216248E+03  0.26409129136E+02 -0.13073265453E+04  0.13197503543E+04  0.77417028514E+02 0.  0.
         24    2    4    4    0    0  0.20195698498E+03 -0.16186208907E+03  0.47555991675E+02  0.27481280635E+03  0.79212035255E+02 0.  0.
         11    1    3    3    0    0 -0.22394385573E+03  0.56320689886E+02 -0.27135739036E+03  0.35631124587E+03  0.00000000000E+00 0. -1.
        -11    1    3    3    0    0 -0.13909529173E+03  0.79132270051E+02 -0.98654730870E+02  0.18799513895E+03  0.00000000000E+00 0.  1.
          4    1    6    6  502    0  0.16656136660E+03 -0.96972046643E+02  0.55252744394E+02  0.20049721304E+03  0.00000000000E+00 0. -1.
          3    1    5    5  503    0  0.10893639876E+03 -0.91104100338E+01 -0.10038424976E+04  0.10097771529E+04  0.00000000000E+00 0. -1.
         -4    1    5    5    0  503  0.52145763727E+02  0.35519539170E+02 -0.30348404770E+03  0.30997320134E+03  0.00000000000E+00 0.  1.
         -3    1    6    6    0  502  0.35395618386E+02 -0.64890042430E+02 -0.76967527192E+01  0.74315593316E+02  0.00000000000E+00 0.  1.
<mgrwt>
<rscale>  0 0.13851250E+04</rscale>
<asrwt>0</asrwt>
<pdfrwt beam="1">  1        2 0.28989633E+00 0.13851250E+04</pdfrwt>
<pdfrwt beam="2">  1       -2 0.39160528E-01 0.13851250E+04</pdfrwt>
<totfact> 0.46546942E+01</totfact>
</mgrwt>
</event>
<event>
12    1  0.1663913E-007  0.1633140E+04  0.7818608E-02  0.8800444E-01
          1   -1    0    0  501    0  0.00000000000E+00  0.00000000000E+00  0.18699733595E+04  0.18699733595E+04  0.00000000000E+00 0. -1.
         -1   -1    0    0    0  501 -0.00000000000E+00 -0.00000000000E+00 -0.35657546461E+03  0.35657546461E+03  0.00000000000E+00 0.  1.
         23    2    1    2    0    0  0.34436044421E+03  0.45256660655E+03  0.58072323949E+03  0.81862423177E+03  0.97496169423E+02 0.  0.
        254    2    1    2    0    0 -0.34436044421E+03 -0.45256660655E+03  0.93267465545E+03  0.14079245924E+04  0.88823926734E+03 0.  0.
        -24    2    4    4    0    0 -0.43539347061E+03  0.90637716498E+02  0.62755876619E+03  0.77331771807E+03  0.80047599310E+02 0.  0.
         24    2    4    4    0    0  0.91033026396E+02 -0.54320432305E+03  0.30511588926E+03  0.63460687432E+03  0.79197415256E+02 0.  0.
         11    1    3    3    0    0  0.32915234043E+03  0.44339310364E+03  0.58001847492E+03  0.80084963558E+03  0.00000000000E+00 0.  1.
        -11    1    3    3    0    0  0.15208103788E+02  0.91735029122E+01  0.70476456843E+00  0.17774596187E+02  0.00000000000E+00 0. -1.
          2    1    6    6  502    0  0.56369038986E+02 -0.46280325308E+03  0.27860821957E+03  0.54312692773E+03  0.00000000000E+00 0. -1.
          1    1    5    5  503    0 -0.42135500743E+03  0.73426767037E+02  0.61000350059E+03  0.74500725039E+03  0.00000000000E+00 0. -1.
         -2    1    5    5    0  503 -0.14038463183E+02  0.17210949461E+02  0.17555265598E+02  0.28310467677E+02  0.00000000000E+00 0.  1.
         -1    1    6    6    0  502  0.34663987409E+02 -0.80401069970E+02  0.26507669690E+02  0.91479946588E+02  0.00000000000E+00 0.  1.
<mgrwt>
<rscale>  0 0.16331401E+04</rscale>
<asrwt>0</asrwt>
<pdfrwt beam="1">  1        1 0.28768820E+00 0.16331401E+04</pdfrwt>
<pdfrwt beam="2">  1       -1 0.54857765E-01 0.16331401E+04</pdfrwt>
<totfact> 0.11735389E+01</totfact>
</mgrwt>
</event>
<event>
12    1  0.1663913E-007  0.1637783E+04  0.7818608E-02  0.8797667E-01
          1   -1    0    0  501    0  0.00000000000E+00  0.00000000000E+00  0.11848821083E+04  0.11848821083E+04  0.00000000000E+00 0. -1.
         -1   -1    0    0    0  501 -0.00000000000E+00 -0.00000000000E+00 -0.56594952539E+03  0.56594952539E+03  0.00000000000E+00 0.  1.
         23    2    1    2    0    0  0.30615333102E+03 -0.32084992937E+03 -0.16350621923E+03  0.48008388958E+03  0.84093507727E+02 0.  0.
        254    2    1    2    0    0 -0.30615333102E+03  0.32084992937E+03  0.78243880215E+03  0.12707477441E+04  0.89772758161E+03 0.  0.
        -24    2    4    4    0    0  0.25501985212E+02  0.57026858213E+03  0.39712526787E+03  0.69997659785E+03  0.80013449788E+02 0.  0.
         24    2    4    4    0    0 -0.33165531623E+03 -0.24941865276E+03  0.38531353428E+03  0.57077114626E+03  0.71472152441E+02 0.  0.
         13    1    3    3    0    0  0.38054326654E+02 -0.28060509892E+02 -0.46242039582E+02  0.66135090665E+02  0.00000000000E+00 0. -1.
        -13    1    3    3    0    0  0.26809900436E+03 -0.29278941948E+03 -0.11726417965E+03  0.41394879892E+03  0.00000000000E+00 0.  1.
          4    1    6    6  502    0 -0.88169213209E+02 -0.97349755744E+02  0.92039430518E+02  0.16038092739E+03  0.00000000000E+00 0. -1.
          1    1    5    5  503    0 -0.15626422608E+02  0.39075363213E+03  0.24873635881E+03  0.46346775756E+03  0.00000000000E+00 0. -1.
         -2    1    5    5    0  503  0.41128407821E+02  0.17951495000E+03  0.14838890906E+03  0.23650884029E+03  0.00000000000E+00 0.  1.
         -3    1    6    6    0  502 -0.24348610302E+03 -0.15206889702E+03  0.29327410376E+03  0.41039021886E+03  0.00000000000E+00 0.  1.
<mgrwt>
<rscale>  0 0.16377832E+04</rscale>
<asrwt>0</asrwt>
<pdfrwt beam="1">  1        1 0.18228955E+00 0.16377832E+04</pdfrwt>
<pdfrwt beam="2">  1       -1 0.87069158E-01 0.16377832E+04</pdfrwt>
<totfact> 0.13624358E+01</totfact>
</mgrwt>
</event>
<event>
12    1  0.1663913E-007  0.1740715E+04  0.7818608E-02  0.8738478E-01
          2   -1    0    0  501    0  0.00000000000E+00  0.00000000000E+00  0.64584860936E+03  0.64584860936E+03  0.00000000000E+00 0. -1.
         -2   -1    0    0    0  501 -0.00000000000E+00 -0.00000000000E+00 -0.11729104875E+04  0.11729104875E+04  0.00000000000E+00 0.  1.
         23    2    1    2    0    0  0.12504467878E+03  0.16208720961E+03 -0.82411136368E+03  0.85407260730E+03  0.91498871991E+02 0.  0.
        254    2    1    2    0    0 -0.12504467878E+03 -0.16208720961E+03  0.29704948558E+03  0.96468648952E+03  0.89469167369E+03 0.  0.
        -24    2    4    4    0    0 -0.14147295528E+03 -0.51300577067E+03  0.27366331005E+03  0.60345066775E+03  0.77920365233E+02 0.  0.
         24    2    4    4    0    0  0.16428276503E+02  0.35091856106E+03  0.23386175522E+02  0.36123582177E+03  0.80812628714E+02 0.  0.
         13    1    3    3    0    0  0.75408872739E+02  0.14764084017E+03 -0.52584495191E+03  0.55135943741E+03  0.00000000000E+00 0. -1.
        -13    1    3    3    0    0  0.49635806038E+02  0.14446369442E+02 -0.29826641177E+03  0.30271316988E+03  0.00000000000E+00 0.  1.
          4    1    6    6  502    0  0.11136668087E+02  0.35193524563E+03  0.29186346392E+02  0.35331895691E+03  0.00000000000E+00 0. -1.
          3    1    5    5  503    0 -0.15115619345E+03 -0.47635029755E+03  0.25053336280E+03  0.55903914591E+03  0.00000000000E+00 0. -1.
         -4    1    5    5    0  503  0.96832381693E+01 -0.36655473125E+02  0.23129947254E+02  0.44411521832E+02  0.00000000000E+00 0.  1.
         -3    1    6    6    0  502  0.52916084161E+01 -0.10166845720E+01 -0.58001708703E+01  0.79168648639E+01  0.00000000000E+00 0.  1.
<mgrwt>
<rscale>  0 0.17407155E+04</rscale>
<asrwt>0</asrwt>
<pdfrwt beam="1">  1        2 0.99361325E-01 0.17407155E+04</pdfrwt>
<pdfrwt beam="2">  1       -2 0.18044777E+00 0.17407155E+04</pdfrwt>
<totfact> 0.77330324E+00</totfact>
</mgrwt>
</event>
<event>
12    1  0.1663913E-007  0.2206220E+04  0.7818608E-02  0.8515843E-01
         -1   -1    0    0    0  501 -0.00000000000E+00  0.00000000000E+00  0.56322223691E+03  0.56322223691E+03  0.00000000000E+00 0.  1.
          1   -1    0    0  501    0  0.00000000000E+00 -0.00000000000E+00 -0.21605187553E+04  0.21605187553E+04  0.00000000000E+00 0. -1.
         23    2    1    2    0    0 -0.22295029186E+03  0.61077622042E+03 -0.13890270313E+04  0.15364134093E+04  0.91736833864E+02 0.  0.
        254    2    1    2    0    0  0.22295029186E+03 -0.61077622042E+03 -0.20826948707E+03  0.11873275828E+04  0.97139908671E+03 0.  0.
        -24    2    4    4    0    0  0.22098247340E+03  0.20990884072E+03 -0.17663299297E+03  0.36203693599E+03  0.83525767616E+02 0.  0.
         24    2    4    4    0    0  0.19678184672E+01 -0.82068506114E+03 -0.31636494102E+02  0.82529064685E+03  0.81092182969E+02 0.  0.
         13    1    3    3    0    0 -0.61313123105E+02  0.20103490966E+03 -0.35622400249E+03  0.41360594038E+03  0.00000000000E+00 0.  1.
        -13    1    3    3    0    0 -0.16163716876E+03  0.40974131077E+03 -0.10328030288E+04  0.11228074690E+04  0.00000000000E+00 0. -1.
          2    1    6    6  502    0 -0.13976551086E+02 -0.77918137905E+03 -0.38724352206E+02  0.78026824932E+03  0.00000000000E+00 0. -1.
          1    1    5    5  503    0  0.12652945958E+03  0.16025110355E+03 -0.84207646221E+02  0.22086432037E+03  0.00000000000E+00 0. -1.
         -2    1    5    5    0  503  0.94453013812E+02  0.49657737168E+02 -0.92425346748E+02  0.14117261562E+03  0.00000000000E+00 0.  1.
         -1    1    6    6    0  502  0.15944369553E+02 -0.41503682084E+02  0.70878581047E+01  0.45022397531E+02  0.00000000000E+00 0.  1.
<mgrwt>
<rscale>  0 0.22062205E+04</rscale>
<asrwt>0</asrwt>
<pdfrwt beam="1">  1        1 0.33238750E+00 0.22062205E+04</pdfrwt>
<pdfrwt beam="2">  1       -1 0.86649576E-01 0.22062205E+04</pdfrwt>
<totfact> 0.27726035E+00</totfact>
</mgrwt>
</event>
<event>
12    1  0.1663913E-007  0.1636840E+04  0.7818608E-02  0.8798230E-01
          2   -1    0    0  501    0  0.00000000000E+00  0.00000000000E+00  0.83965093780E+03  0.83965093780E+03  0.00000000000E+00 0. -1.
         -2   -1    0    0    0  501 -0.00000000000E+00 -0.00000000000E+00 -0.79772597280E+03  0.79772597280E+03  0.00000000000E+00 0.  1.
         23    2    1    2    0    0  0.48759038354E+03  0.28365822108E+03 -0.40949485153E+02  0.57248582691E+03  0.88638553516E+02 0.  0.
        254    2    1    2    0    0 -0.48759038354E+03 -0.28365822108E+03  0.82874450151E+02  0.10648910837E+04  0.89939895326E+03 0.  0.
        -24    2    4    4    0    0  0.45944997391E+02  0.23211803181E+03  0.18556234237E+03  0.31150364247E+03  0.81310595164E+02 0.  0.
         24    2    4    4    0    0 -0.53353538093E+03 -0.51577625289E+03 -0.10268789222E+03  0.75338744122E+03  0.79766456773E+02 0.  0.
         13    1    3    3    0    0  0.15864206781E+03  0.10042086346E+03 -0.55121787496E+02  0.19567847851E+03  0.00000000000E+00 0. -1.
        -13    1    3    3    0    0  0.32894831573E+03  0.18323735761E+03  0.14172302343E+02  0.37680734839E+03  0.00000000000E+00 0.  1.
          2    1    6    6  502    0 -0.33351359994E+03 -0.36753605469E+03 -0.49129524745E+02  0.49872616038E+03  0.00000000000E+00 0. -1.
          3    1    5    5  503    0  0.27048302337E+02  0.19615763204E+03  0.11206215932E+03  0.22752440489E+03  0.00000000000E+00 0. -1.
         -4    1    5    5    0  503  0.18896695053E+02  0.35960399771E+02  0.73500183056E+02  0.83979237582E+02  0.00000000000E+00 0.  1.
         -1    1    6    6    0  502 -0.20002178099E+03 -0.14824019820E+03 -0.53558367476E+02  0.25466128084E+03  0.00000000000E+00 0.  1.
<mgrwt>
<rscale>  0 0.16368401E+04</rscale>
<asrwt>0</asrwt>
<pdfrwt beam="1">  1        2 0.12917707E+00 0.16368401E+04</pdfrwt>
<pdfrwt beam="2">  1       -2 0.12272707E+00 0.16368401E+04</pdfrwt>
<totfact> 0.15492786E+01</totfact>
</mgrwt>
</event>
<event>
12    1  0.1663913E-007  0.1645227E+04  0.7818608E-02  0.8793235E-01
          1   -1    0    0  501    0  0.00000000000E+00  0.00000000000E+00  0.11313091033E+04  0.11313091033E+04  0.00000000000E+00 0. -1.
         -1   -1    0    0    0  501 -0.00000000000E+00 -0.00000000000E+00 -0.59815051981E+03  0.59815051981E+03  0.00000000000E+00 0.  1.
         23    2    1    2    0    0  0.16340631101E+03  0.17278439868E+03  0.73734267886E+03  0.78000775479E+03  0.90453305930E+02 0.  0.
        254    2    1    2    0    0 -0.16340631101E+03 -0.17278439868E+03 -0.20418409539E+03  0.94945186830E+03  0.89622075099E+03 0.  0.
        -24    2    4    4    0    0  0.13575888808E+03  0.16129414059E+03 -0.39518893741E+03  0.45485489628E+03  0.79198516040E+02 0.  0.
         24    2    4    4    0    0 -0.29916519908E+03 -0.33407853928E+03  0.19100484202E+03  0.49459697202E+03  0.83875075595E+02 0.  0.
         11    1    3    3    0    0  0.70470318948E+02  0.10997551707E+03  0.27782129341E+03  0.30699405740E+03  0.00000000000E+00 0.  1.
        -11    1    3    3    0    0  0.92935992058E+02  0.62808881616E+02  0.45952138545E+03  0.47301369739E+03  0.00000000000E+00 0. -1.
          2    1    6    6  502    0 -0.19105318531E+02 -0.36663902711E+02  0.44142805295E+02  0.60480097698E+02  0.00000000000E+00 0. -1.
          3    1    5    5  503    0 -0.41378949413E+01  0.39229019083E+02 -0.64265503182E+02  0.75406186828E+02  0.00000000000E+00 0. -1.
         -4    1    5    5    0  503  0.13989678302E+03  0.12206512151E+03 -0.33092343422E+03  0.37944870946E+03  0.00000000000E+00 0.  1.
         -1    1    6    6    0  502 -0.28005988055E+03 -0.29741463657E+03  0.14686203672E+03  0.43411687432E+03  0.00000000000E+00 0.  1.
<mgrwt>
<rscale>  0 0.16452272E+04</rscale>
<asrwt>0</asrwt>
<pdfrwt beam="1">  1        1 0.17404755E+00 0.16452272E+04</pdfrwt>
<pdfrwt beam="2">  1       -1 0.92023157E-01 0.16452272E+04</pdfrwt>
<totfact> 0.13204441E+01</totfact>
</mgrwt>
</event>
<event>
12    1  0.1663913E-007  0.1452909E+04  0.7818608E-02  0.8916386E-01
          1   -1    0    0  501    0  0.00000000000E+00  0.00000000000E+00  0.16081964450E+04  0.16081964450E+04  0.00000000000E+00 0.  1.
         -1   -1    0    0    0  501 -0.00000000000E+00 -0.00000000000E+00 -0.32815395215E+03  0.32815395215E+03  0.00000000000E+00 0. -1.
         23    2    1    2    0    0 -0.27308083248E+03 -0.26252127814E+03  0.69736988900E+03  0.79873160860E+03  0.90315325130E+02 0.  0.
        254    2    1    2    0    0  0.27308083248E+03  0.26252127814E+03  0.58267260386E+03  0.11376187886E+04  0.90065452991E+03 0.  0.
        -24    2    4    4    0    0  0.34939712664E+02  0.50856637979E+03  0.59300139739E+03  0.78594387361E+03  0.78718288754E+02 0.  0.
         24    2    4    4    0    0  0.23814111981E+03 -0.24604510164E+03 -0.10328793535E+02  0.35167491495E+03  0.79493250275E+02 0.  0.
         13    1    3    3    0    0 -0.17443216789E+03 -0.19063011068E+03  0.38814625871E+03  0.46628739898E+03  0.00000000000E+00 0. -1.
        -13    1    3    3    0    0 -0.98648664584E+02 -0.71891167455E+02  0.30922363029E+03  0.33244420963E+03  0.00000000000E+00 0.  1.
          2    1    6    6  502    0  0.11288054971E+03 -0.74910685380E+02 -0.29768381159E+02  0.13870755496E+03  0.00000000000E+00 0. -1.
          1    1    5    5  503    0 -0.22106108140E+01  0.60616938377E+01 -0.15103878305E+01  0.66266283849E+01  0.00000000000E+00 0. -1.
         -2    1    5    5    0  503  0.37150323478E+02  0.50250468595E+03  0.59451178522E+03  0.77931724522E+03  0.00000000000E+00 0.  1.
         -1    1    6    6    0  502  0.12526057011E+03 -0.17113441627E+03  0.19439587624E+02  0.21296735999E+03  0.00000000000E+00 0.  1.
<mgrwt>
<rscale>  0 0.14529088E+04</rscale>
<asrwt>0</asrwt>
<pdfrwt beam="1">  1        1 0.24741483E+00 0.14529088E+04</pdfrwt>
<pdfrwt beam="2">  1       -1 0.50485224E-01 0.14529088E+04</pdfrwt>
<totfact> 0.21076232E+01</totfact>
</mgrwt>
</event>
<event>
12    1  0.1663913E-007  0.1564016E+04  0.7818608E-02  0.8842964E-01
          1   -1    0    0  501    0  0.00000000000E+00  0.00000000000E+00  0.17932657677E+04  0.17932657677E+04  0.00000000000E+00 0. -1.
         -1   -1    0    0    0  501 -0.00000000000E+00 -0.00000000000E+00 -0.34101845574E+03  0.34101845574E+03  0.00000000000E+00 0.  1.
         23    2    1    2    0    0  0.22034548802E+03  0.42066174857E+03  0.78245308700E+03  0.91937365600E+03  0.86640897913E+02 0.  0.
        254    2    1    2    0    0 -0.22034548802E+03 -0.42066174857E+03  0.66979422491E+03  0.12149105674E+04  0.89547470218E+03 0.  0.
        -24    2    4    4    0    0 -0.22833399400E+03  0.23564660399E+03  0.13277729917E+03  0.36301738783E+03  0.80536190048E+02 0.  0.
         24    2    4    4    0    0  0.79885059829E+01 -0.65630835255E+03  0.53701692574E+03  0.85189317956E+03  0.80810525242E+02 0.  0.
         11    1    3    3    0    0  0.16464916482E+01  0.26222402740E+01 -0.22043659065E+01  0.38008298899E+01  0.00000000000E+00 0.  1.
        -11    1    3    3    0    0  0.21869899637E+03  0.41803950829E+03  0.78465745290E+03  0.91557282611E+03  0.00000000000E+00 0. -1.
          2    1    6    6  502    0 -0.17675245055E+01 -0.15079013462E+03  0.16919031408E+03  0.22664101840E+03  0.00000000000E+00 0. -1.
          3    1    5    5  503    0 -0.70099955930E+02  0.45527767157E+02  0.66846137278E+02  0.10702890952E+03  0.00000000000E+00 0. -1.
         -4    1    5    5    0  503 -0.15823403807E+03  0.19011883683E+03  0.65931161895E+02  0.25598847831E+03  0.00000000000E+00 0.  1.
         -1    1    6    6    0  502  0.97560304884E+01 -0.50551821793E+03  0.36782661166E+03  0.62525216116E+03  0.00000000000E+00 0.  1.
<mgrwt>
<rscale>  0 0.15640163E+04</rscale>
<asrwt>0</asrwt>
<pdfrwt beam="1">  1        1 0.27588703E+00 0.15640163E+04</pdfrwt>
<pdfrwt beam="2">  1       -1 0.52464379E-01 0.15640163E+04</pdfrwt>
<totfact> 0.14505388E+01</totfact>
</mgrwt>
</event>
<event>
12    1  0.1663913E-007  0.2459784E+04  0.7818608E-02  0.8417454E-01
          2   -1    0    0  501    0  0.00000000000E+00  0.00000000000E+00  0.49082722429E+03  0.49082722429E+03  0.00000000000E+00 0.  1.
         -2   -1    0    0    0  501 -0.00000000000E+00 -0.00000000000E+00 -0.30818064783E+04  0.30818064783E+04  0.00000000000E+00 0. -1.
         23    2    1    2    0    0  0.90174198194E+03 -0.20358614636E+03 -0.18970889877E+04  0.21122215614E+04  0.89148059174E+02 0.  0.
        254    2    1    2    0    0 -0.90174198194E+03  0.20358614636E+03 -0.69389026638E+03  0.14604121412E+04  0.89259957395E+03 0.  0.
        -24    2    4    4    0    0 -0.12152933336E+03 -0.18973827347E+03  0.11657718816E+03  0.26606522016E+03  0.80190206982E+02 0.  0.
         24    2    4    4    0    0 -0.78021264857E+03  0.39332441983E+03 -0.81046745454E+03  0.11943469210E+04  0.78556964713E+02 0.  0.
         11    1    3    3    0    0  0.83024589663E+02 -0.46077847071E+02 -0.18795241082E+03  0.21057625510E+03  0.00000000000E+00 0. -1.
        -11    1    3    3    0    0  0.81871739227E+03 -0.15750829929E+03 -0.17091365768E+04  0.19016453063E+04  0.00000000000E+00 0.  1.
          2    1    6    6  502    0 -0.55134872125E+03  0.30913117227E+03 -0.55498224641E+03  0.84116157064E+03  0.00000000000E+00 0. -1.
          1    1    5    5  503    0 -0.45927637559E+02 -0.10713626685E+03  0.20154747202E+02  0.11829514530E+03  0.00000000000E+00 0. -1.
         -2    1    5    5    0  503 -0.75601695804E+02 -0.82602006615E+02  0.96422440956E+02  0.14777007486E+03  0.00000000000E+00 0.  1.
         -1    1    6    6    0  502 -0.22886392732E+03  0.84193247563E+02 -0.25548520813E+03  0.35318535040E+03  0.00000000000E+00 0.  1.
<mgrwt>
<rscale>  0 0.24597842E+04</rscale>
<asrwt>0</asrwt>
<pdfrwt beam="1">  1        2 0.75511881E-01 0.24597842E+04</pdfrwt>
<pdfrwt beam="2">  1       -2 0.47412407E+00 0.24597842E+04</pdfrwt>
<totfact> 0.13543318E-01</totfact>
</mgrwt>
</event>
<event>
12    1  0.1663913E-007  0.1454584E+04  0.7818608E-02  0.8915229E-01
         -2   -1    0    0    0  501 -0.00000000000E+00  0.00000000000E+00  0.29928283957E+03  0.29928283957E+03  0.00000000000E+00 0.  1.
          2   -1    0    0  501    0  0.00000000000E+00 -0.00000000000E+00 -0.17674042972E+04  0.17674042972E+04  0.00000000000E+00 0. -1.
         23    2    1    2    0    0 -0.83712409437E+02 -0.10971526472E+03 -0.10444350788E+04  0.10575151057E+04  0.91914951135E+02 0.  0.
        254    2    1    2    0    0  0.83712409437E+02  0.10971526472E+03 -0.42368637881E+03  0.10091720310E+04  0.90546829528E+03 0.  0.
        -24    2    4    4    0    0 -0.31832912289E+03 -0.21205416016E+03 -0.22417008793E+03  0.45118788866E+03  0.83772819105E+02 0.  0.
         24    2    4    4    0    0  0.40204153233E+03  0.32176942488E+03 -0.19951629087E+03  0.55798414234E+03  0.79790953606E+02 0.  0.
         13    1    3    3    0    0 -0.16363274541E+02 -0.47192818371E+02 -0.14428282878E+03  0.15268416271E+03  0.00000000000E+00 0.  1.
        -13    1    3    3    0    0 -0.67349134896E+02 -0.62522446347E+02 -0.90015225002E+03  0.90483094304E+03  0.00000000000E+00 0. -1.
          2    1    6    6  502    0  0.39849169357E+03  0.30880844666E+03 -0.20395104011E+03  0.54383298294E+03  0.00000000000E+00 0. -1.
          3    1    5    5  503    0 -0.23930874411E+03 -0.15464483298E+03 -0.12232390067E+03  0.31007553282E+03  0.00000000000E+00 0. -1.
         -4    1    5    5    0  503 -0.79020378785E+02 -0.57409327176E+02 -0.10184618727E+03  0.14111235584E+03  0.00000000000E+00 0.  1.
         -1    1    6    6    0  502  0.35498387658E+01  0.12960978216E+02  0.44347492427E+01  0.14151159402E+02  0.00000000000E+00 0.  1.
<mgrwt>
<rscale>  0 0.14545842E+04</rscale>
<asrwt>0</asrwt>
<pdfrwt beam="1">  1        2 0.27190836E+00 0.14545842E+04</pdfrwt>
<pdfrwt beam="2">  1       -2 0.46043513E-01 0.14545842E+04</pdfrwt>
<totfact> 0.39004597E+01</totfact>
</mgrwt>
</event>
<event>
12    1  0.1663913E-007  0.1564453E+04  0.7818608E-02  0.8842689E-01
          2   -1    0    0  501    0  0.00000000000E+00  0.00000000000E+00  0.12233550660E+04  0.12233550660E+04  0.00000000000E+00 0. -1.
         -2   -1    0    0    0  501 -0.00000000000E+00 -0.00000000000E+00 -0.50016398215E+03  0.50016398215E+03  0.00000000000E+00 0.  1.
         23    2    1    2    0    0  0.26457747893E+03  0.10972659653E+03 -0.23874969942E+03  0.38418325297E+03  0.92488834716E+02 0.  0.
        254    2    1    2    0    0 -0.26457747893E+03 -0.10972659653E+03  0.96194078326E+03  0.13393357952E+04  0.88681967354E+03 0.  0.
        -24    2    4    4    0    0  0.26256452726E+03  0.12318215999E+03  0.13935318976E+03  0.33166635806E+03  0.80431872136E+02 0.  0.
         24    2    4    4    0    0 -0.52714200619E+03 -0.23290875653E+03  0.82258759349E+03  0.10076694371E+04  0.81376667096E+02 0.  0.
         13    1    3    3    0    0 -0.51928248798E+01  0.38914700892E+01 -0.20214351123E+02  0.21230378259E+02  0.00000000000E+00 0. -1.
        -13    1    3    3    0    0  0.26977030381E+03  0.10583512644E+03 -0.21853534830E+03  0.36295287471E+03  0.00000000000E+00 0.  1.
          4    1    6    6  502    0 -0.12456288686E+03 -0.60337135842E+02  0.26141925589E+03  0.29579809008E+03  0.00000000000E+00 0. -1.
          3    1    5    5  503    0  0.87282889296E+02  0.58433315334E+02  0.90199423677E+02  0.13845104238E+03  0.00000000000E+00 0. -1.
         -4    1    5    5    0  503  0.17528163797E+03  0.64748844658E+02  0.49153766087E+02  0.19321531568E+03  0.00000000000E+00 0.  1.
         -3    1    6    6    0  502 -0.40257911933E+03 -0.17257162068E+03  0.56116833761E+03  0.71187134703E+03  0.00000000000E+00 0.  1.
<mgrwt>
<rscale>  0 0.15644528E+04</rscale>
<asrwt>0</asrwt>
<pdfrwt beam="1">  1        2 0.18820847E+00 0.15644528E+04</pdfrwt>
<pdfrwt beam="2">  1       -2 0.76948305E-01 0.15644528E+04</pdfrwt>
<totfact> 0.26603251E+01</totfact>
</mgrwt>
</event>
<event>
12    1  0.1663913E-007  0.1652788E+04  0.7818608E-02  0.8788759E-01
         -2   -1    0    0    0  501 -0.00000000000E+00  0.00000000000E+00  0.27025048060E+03  0.27025048060E+03  0.00000000000E+00 0.  1.
          2   -1    0    0  501    0  0.00000000000E+00 -0.00000000000E+00 -0.25270135899E+04  0.25270135899E+04  0.00000000000E+00 0. -1.
         23    2    1    2    0    0 -0.11510510335E+03  0.51899234439E+03 -0.43272619162E+03  0.69234855435E+03  0.97428565853E+02 0.  0.
        254    2    1    2    0    0  0.11510510335E+03 -0.51899234439E+03 -0.18240369177E+04  0.21049155161E+04  0.90606645159E+03 0.  0.
        -24    2    4    4    0    0  0.45526029354E+03 -0.12660327782E+03 -0.11789915807E+04  0.12727523936E+04  0.81161463767E+02 0.  0.
         24    2    4    4    0    0 -0.34015519019E+03 -0.39238906657E+03 -0.64504533692E+03  0.83216312250E+03  0.82080709021E+02 0.  0.
         11    1    3    3    0    0 -0.57898964122E+02  0.28634218788E+03 -0.17535128744E+03  0.34072307320E+03  0.00000000000E+00 0. -1.
        -11    1    3    3    0    0 -0.57206139225E+02  0.23265015651E+03 -0.25737490418E+03  0.35162548114E+03  0.00000000000E+00 0.  1.
          2    1    6    6  502    0 -0.15748931729E+03 -0.14233773716E+03 -0.31230812729E+03  0.37762320222E+03  0.00000000000E+00 0. -1.
          3    1    5    5  503    0  0.16671935749E+03 -0.27918687194E+02 -0.33242224939E+03  0.37293343796E+03  0.00000000000E+00 0. -1.
         -4    1    5    5    0  503  0.28854093605E+03 -0.98684590629E+02 -0.84656933135E+03  0.89981895567E+03  0.00000000000E+00 0.  1.
         -1    1    6    6    0  502 -0.18266587290E+03 -0.25005132940E+03 -0.33273720963E+03  0.45453992028E+03  0.00000000000E+00 0.  1.
<mgrwt>
<rscale>  0 0.16527875E+04</rscale>
<asrwt>0</asrwt>
<pdfrwt beam="1">  1        2 0.38877133E+00 0.16527875E+04</pdfrwt>
<pdfrwt beam="2">  1       -2 0.41576996E-01 0.16527875E+04</pdfrwt>
<totfact> 0.17610981E+01</totfact>
</mgrwt>
</event>
<event>
12    1  0.1663913E-007  0.1191972E+04  0.7818608E-02  0.9119913E-01
          2   -1    0    0  501    0  0.00000000000E+00  0.00000000000E+00  0.14386993051E+04  0.14386993051E+04  0.00000000000E+00 0. -1.
         -2   -1    0    0    0  501 -0.00000000000E+00 -0.00000000000E+00 -0.24688905067E+03  0.24688905067E+03  0.00000000000E+00 0.  1.
         23    2    1    2    0    0 -0.18679170312E+03 -0.13833418576E+03  0.35279119303E+03  0.43204322797E+03  0.90400429481E+02 0.  0.
        254    2    1    2    0    0  0.18679170312E+03  0.13833418576E+03  0.83901906143E+03  0.12535451278E+04  0.90188409165E+03 0.  0.
        -24    2    4    4    0    0  0.34477458610E+03 -0.18412565030E+03  0.74457185834E+02  0.40496740394E+03  0.75385379326E+02 0.  0.
         24    2    4    4    0    0 -0.15798288298E+03  0.32245983606E+03  0.76456187559E+03  0.84857772390E+03  0.81180999572E+02 0.  0.
         13    1    3    3    0    0 -0.18190310713E+03 -0.94323723879E+02  0.28306871487E+03  0.34944756775E+03  0.00000000000E+00 0. -1.
        -13    1    3    3    0    0 -0.48885959876E+01 -0.44010461881E+02  0.69722478166E+02  0.82595660221E+02  0.00000000000E+00 0.  1.
          4    1    6    6  502    0 -0.83926616362E+02  0.16082796349E+03  0.29299572603E+03  0.34460964328E+03  0.00000000000E+00 0. -1.
          1    1    5    5  503    0  0.31529916921E+02 -0.45339179460E+02  0.56499185563E+01  0.55513047429E+02  0.00000000000E+00 0. -1.
         -2    1    5    5    0  503  0.31324466918E+03 -0.13878647084E+03  0.68807267277E+02  0.34945435651E+03  0.00000000000E+00 0.  1.
         -3    1    6    6    0  502 -0.74056266616E+02  0.16163187257E+03  0.47156614957E+03  0.50396808061E+03  0.00000000000E+00 0.  1.
<mgrwt>
<rscale>  0 0.11919717E+04</rscale>
<asrwt>0</asrwt>
<pdfrwt beam="1">  1        2 0.22133835E+00 0.11919717E+04</pdfrwt>
<pdfrwt beam="2">  1       -2 0.37982932E-01 0.11919717E+04</pdfrwt>
<totfact> 0.88774069E+01</totfact>
</mgrwt>
</event>
<event>
12    1  0.1663913E-007  0.1182940E+04  0.7818608E-02  0.9127922E-01
          2   -1    0    0  501    0  0.00000000000E+00  0.00000000000E+00  0.76856862810E+03  0.76856862810E+03  0.00000000000E+00 0.  1.
         -2   -1    0    0    0  501 -0.00000000000E+00 -0.00000000000E+00 -0.45517955464E+03  0.45517955464E+03  0.00000000000E+00 0. -1.
         23    2    1    2    0    0 -0.14642871090E+03  0.66180860731E+02 -0.11626153409E+03  0.20776488177E+03  0.61872676399E+02 0.  0.
        254    2    1    2    0    0  0.14642871090E+03 -0.66180860731E+02  0.42965060756E+03  0.10159833010E+04  0.90653248677E+03 0.  0.
        -24    2    4    4    0    0 -0.39690494275E+02  0.30756068160E+03 -0.10074051110E+03  0.33570419967E+03  0.79873342855E+02 0.  0.
         24    2    4    4    0    0  0.18611920518E+03 -0.37374154233E+03  0.53039111865E+03  0.68027910130E+03  0.84509277119E+02 0.  0.
         13    1    3    3    0    0 -0.11073932260E+03  0.19991458626E+02 -0.88324335906E+02  0.14305259278E+03  0.00000000000E+00 0. -1.
        -13    1    3    3    0    0 -0.35689388306E+02  0.46189402105E+02 -0.27937198187E+02  0.64712288995E+02  0.00000000000E+00 0.  1.
          4    1    6    6  502    0  0.14537580539E+03 -0.22915152410E+03  0.38654151134E+03  0.47229110279E+03  0.00000000000E+00 0. -1.
          1    1    5    5  503    0 -0.39416548481E+02  0.27778433341E+03 -0.62862953320E+02  0.28752313139E+03  0.00000000000E+00 0. -1.
         -2    1    5    5    0  503 -0.27394579392E+00  0.29776348189E+02 -0.37877557778E+02  0.48181068284E+02  0.00000000000E+00 0.  1.
         -3    1    6    6    0  502  0.40743399792E+02 -0.14459001823E+03  0.14384960732E+03  0.20798799851E+03  0.00000000000E+00 0.  1.
<mgrwt>
<rscale>  0 0.11829399E+04</rscale>
<asrwt>0</asrwt>
<pdfrwt beam="1">  1        2 0.11824133E+00 0.11829399E+04</pdfrwt>
<pdfrwt beam="2">  1       -2 0.70027624E-01 0.11829399E+04</pdfrwt>
<totfact> 0.66670804E+01</totfact>
</mgrwt>
</event>
<event>
12    1  0.1663913E-007  0.1342073E+04  0.7818608E-02  0.8996851E-01
         -2   -1    0    0    0  501 -0.00000000000E+00  0.00000000000E+00  0.10370227742E+04  0.10370227742E+04  0.00000000000E+00 0.  1.
          2   -1    0    0  501    0  0.00000000000E+00 -0.00000000000E+00 -0.43421407052E+03  0.43421407052E+03  0.00000000000E+00 0. -1.
         23    2    1    2    0    0 -0.17586900731E+03  0.24873951002E+03  0.36962865132E+03  0.48883794780E+03  0.97652177413E+02 0.  0.
        254    2    1    2    0    0  0.17586900731E+03 -0.24873951002E+03  0.23318005238E+03  0.98239889693E+03  0.90439670736E+03 0.  0.
        -24    2    4    4    0    0  0.36962258317E+03  0.38801311897E+02  0.43125814312E+03  0.57577528481E+03  0.86065073038E+02 0.  0.
         24    2    4    4    0    0 -0.19375357586E+03 -0.28754082192E+03 -0.19807809074E+03  0.40662361212E+03  0.76731085451E+02 0.  0.
         11    1    3    3    0    0  0.89148939791E+01  0.20863180633E+02  0.50403053356E+02  0.55274003188E+02  0.00000000000E+00 0. -1.
        -11    1    3    3    0    0 -0.18478390129E+03  0.22787632939E+03  0.31922559797E+03  0.43356394461E+03  0.00000000000E+00 0.  1.
          4    1    6    6  502    0 -0.38478986716E+02 -0.60591435827E+02 -0.77436530388E+01  0.72193619362E+02  0.00000000000E+00 0. -1.
          3    1    5    5  503    0  0.13035913145E+03 -0.27452680777E+02  0.15169569739E+03  0.20188793287E+03  0.00000000000E+00 0. -1.
         -4    1    5    5    0  503  0.23926345173E+03  0.66253992674E+02  0.27956244573E+03  0.37388735194E+03  0.00000000000E+00 0.  1.
         -3    1    6    6    0  502 -0.15527458915E+03 -0.22694938609E+03 -0.19033443770E+03  0.33442999276E+03  0.00000000000E+00 0.  1.
<mgrwt>
<rscale>  0 0.13420728E+04</rscale>
<asrwt>0</asrwt>
<pdfrwt beam="1">  1        2 0.66802165E-01 0.13420728E+04</pdfrwt>
<pdfrwt beam="2">  1       -2 0.15954196E+00 0.13420728E+04</pdfrwt>
<totfact> 0.17954668E+01</totfact>
</mgrwt>
</event>
<event>
12    1  0.1663913E-007  0.1516994E+04  0.7818608E-02  0.8873230E-01
         -2   -1    0    0    0  501 -0.00000000000E+00  0.00000000000E+00  0.65414994465E+03  0.65414994465E+03  0.00000000000E+00 0.  1.
          2   -1    0    0  501    0  0.00000000000E+00 -0.00000000000E+00 -0.87948847890E+03  0.87948847890E+03  0.00000000000E+00 0. -1.
         23    2    1    2    0    0 -0.20870258927E+03 -0.22215054248E+03 -0.46228772972E+03  0.56058914267E+03  0.87422008327E+02 0.  0.
        254    2    1    2    0    0  0.20870258927E+03  0.22215054248E+03  0.23694919548E+03  0.97304928088E+03  0.89318102728E+03 0.  0.
        -24    2    4    4    0    0  0.49840866620E+03  0.34990601681E+03  0.19200302258E+03  0.64344332494E+03  0.79427530437E+02 0.  0.
         24    2    4    4    0    0 -0.28970607693E+03 -0.12775547432E+03  0.44946172895E+02  0.32960595594E+03  0.79805109507E+02 0.  0.
         13    1    3    3    0    0 -0.50194345380E+02 -0.24117943328E+02 -0.13848298125E+03  0.14926045556E+03  0.00000000000E+00 0.  1.
        -13    1    3    3    0    0 -0.15850824389E+03 -0.19803259916E+03 -0.32380474847E+03  0.41132868711E+03  0.00000000000E+00 0. -1.
          4    1    6    6  502    0 -0.27053129737E+03 -0.13082901434E+03  0.24647987009E+02  0.30151440615E+03  0.00000000000E+00 0. -1.
          3    1    5    5  503    0  0.19347829260E+03  0.15270663334E+03  0.11610033906E+03  0.27245633468E+03  0.00000000000E+00 0. -1.
         -4    1    5    5    0  503  0.30493037359E+03  0.19719938347E+03  0.75902683518E+02  0.37098699026E+03  0.00000000000E+00 0.  1.
         -3    1    6    6    0  502 -0.19174779554E+02  0.30735400198E+01  0.20298185886E+02  0.28091549787E+02  0.00000000000E+00 0.  1.
<mgrwt>
<rscale>  0 0.15169935E+04</rscale>
<asrwt>0</asrwt>
<pdfrwt beam="1">  1        2 0.13530592E+00 0.15169935E+04</pdfrwt>
<pdfrwt beam="2">  1       -2 0.10063845E+00 0.15169935E+04</pdfrwt>
<totfact> 0.23778551E+01</totfact>
</mgrwt>
</event>
<event>
12    1  0.1663913E-007  0.2101538E+04  0.7818608E-02  0.8560566E-01
          2   -1    0    0  501    0  0.00000000000E+00  0.00000000000E+00  0.12103264910E+04  0.12103264910E+04  0.00000000000E+00 0. -1.
         -2   -1    0    0    0  501 -0.00000000000E+00 -0.00000000000E+00 -0.91224623290E+03  0.91224623290E+03  0.00000000000E+00 0.  1.
         23    2    1    2    0    0  0.69534555759E+03  0.36447721810E+03 -0.21550872247E+03  0.81931906745E+03  0.92144657213E+02 0.  0.
        254    2    1    2    0    0 -0.69534555759E+03 -0.36447721810E+03  0.51358898054E+03  0.13032536564E+04  0.90462553859E+03 0.  0.
        -24    2    4    4    0    0  0.44816415283E+02  0.37368106511E+02 -0.18275393676E+03  0.20751911793E+03  0.79122035110E+02 0.  0.
         24    2    4    4    0    0 -0.74016197288E+03 -0.40184532461E+03  0.69634291731E+03  0.10957345385E+04  0.80133072839E+02 0.  0.
         11    1    3    3    0    0  0.52877858397E+02  0.40240657531E+02  0.50241109775E+01  0.66637978048E+02  0.00000000000E+00 0.  1.
        -11    1    3    3    0    0  0.64246769920E+03  0.32423656057E+03 -0.22053283344E+03  0.75268108940E+03  0.00000000000E+00 0. -1.
          2    1    6    6  502    0 -0.36933515762E+03 -0.24453196270E+03  0.37798399927E+03  0.58230253575E+03  0.00000000000E+00 0. -1.
          3    1    5    5  503    0  0.23974651024E+02  0.61533524329E+02 -0.11464883715E+03  0.13230840627E+03  0.00000000000E+00 0. -1.
         -4    1    5    5    0  503  0.20841764259E+02 -0.24165417818E+02 -0.68105099612E+02  0.75210711663E+02  0.00000000000E+00 0.  1.
         -1    1    6    6    0  502 -0.37082681525E+03 -0.15731336191E+03  0.31835891804E+03  0.51343200274E+03  0.00000000000E+00 0.  1.
<mgrwt>
<rscale>  0 0.21015383E+04</rscale>
<asrwt>0</asrwt>
<pdfrwt beam="1">  1        2 0.18620408E+00 0.21015383E+04</pdfrwt>
<pdfrwt beam="2">  1       -2 0.14034557E+00 0.21015383E+04</pdfrwt>
<totfact> 0.61410664E+00</totfact>
</mgrwt>
</event>
<event>
12    1  0.1663913E-007  0.1528850E+04  0.7818608E-02  0.8865491E-01
          2   -1    0    0  501    0  0.00000000000E+00  0.00000000000E+00  0.90203903253E+03  0.90203903253E+03  0.00000000000E+00 0. -1.
         -2   -1    0    0    0  501 -0.00000000000E+00 -0.00000000000E+00 -0.64780558802E+03  0.64780558802E+03  0.00000000000E+00 0.  1.
         23    2    1    2    0    0 -0.93120531205E+02  0.46802210863E+03  0.21247649414E+03  0.52937718230E+03  0.85894197013E+02 0.  0.
        254    2    1    2    0    0  0.93120531205E+02 -0.46802210863E+03  0.41756950366E+02  0.10204674383E+04  0.90105162014E+03 0.  0.
        -24    2    4    4    0    0 -0.15252727827E+03 -0.45690060273E+03  0.36282617115E+03  0.60836994376E+03  0.80302095879E+02 0.  0.
         24    2    4    4    0    0  0.24564780948E+03 -0.11121505893E+02 -0.32106922078E+03  0.41209749450E+03  0.79198271764E+02 0.  0.
         13    1    3    3    0    0 -0.83985007687E+02  0.45589181706E+03  0.21919218531E+03  0.51277289757E+03  0.00000000000E+00 0.  1.
        -13    1    3    3    0    0 -0.91355235185E+01  0.12130291568E+02 -0.67156911732E+01  0.16604284730E+02  0.00000000000E+00 0. -1.
          4    1    6    6  502    0  0.51066225304E+02 -0.10631697280E+02 -0.12692984306E+03  0.13722965209E+03  0.00000000000E+00 0. -1.
          3    1    5    5  503    0 -0.28988321881E+02 -0.18994002594E+03  0.17080825148E+03  0.25708557920E+03  0.00000000000E+00 0. -1.
         -4    1    5    5    0  503 -0.12353895639E+03 -0.26696057679E+03  0.19201791966E+03  0.35128436455E+03  0.00000000000E+00 0.  1.
         -3    1    6    6    0  502  0.19458158417E+03 -0.48980861299E+00 -0.19413937772E+03  0.27486784241E+03  0.00000000000E+00 0.  1.
<mgrwt>
<rscale>  0 0.15288505E+04</rscale>
<asrwt>0</asrwt>
<pdfrwt beam="1">  1        2 0.13877524E+00 0.15288505E+04</pdfrwt>
<pdfrwt beam="2">  1       -2 0.99662398E-01 0.15288505E+04</pdfrwt>
<totfact> 0.23468613E+01</totfact>
</mgrwt>
</event>
<event>
12    1  0.1663913E-007  0.1356828E+04  0.7818608E-02  0.8985676E-01
         -1   -1    0    0    0  501 -0.00000000000E+00  0.00000000000E+00  0.22655633216E+03  0.22655633216E+03  0.00000000000E+00 0.  1.
          1   -1    0    0  501    0  0.00000000000E+00 -0.00000000000E+00 -0.20314830661E+04  0.20314830661E+04  0.00000000000E+00 0. -1.
         23    2    1    2    0    0 -0.17150443263E+03  0.50512937482E+02 -0.11706695413E+04  0.11873336527E+04  0.85607830400E+02 0.  0.
        254    2    1    2    0    0  0.17150443263E+03 -0.50512937482E+02 -0.63425719272E+03  0.10707057456E+04  0.84389767150E+03 0.  0.
        -24    2    4    4    0    0  0.33652858017E+03 -0.11980442915E+03  0.40664291170E+02  0.36796138273E+03  0.78341611459E+02 0.  0.
         24    2    4    4    0    0 -0.16502414755E+03  0.69291491666E+02 -0.67492148389E+03  0.70274436291E+03  0.79349543762E+02 0.  0.
         13    1    3    3    0    0 -0.12792531863E+03  0.17270066053E+02 -0.99427838953E+03  0.10026228893E+04  0.00000000000E+00 0. -1.
        -13    1    3    3    0    0 -0.43579114000E+02  0.33242871429E+02 -0.17639115172E+03  0.18471076331E+03  0.00000000000E+00 0.  1.
          2    1    6    6  502    0 -0.14673964843E+03  0.84177003253E+02 -0.54331585742E+03  0.56904341945E+03  0.00000000000E+00 0. -1.
          1    1    5    5  503    0  0.18926022709E+03 -0.10202339119E+03  0.34874146741E+01  0.21503573650E+03  0.00000000000E+00 0. -1.
         -2    1    5    5    0  503  0.14726835308E+03 -0.17781037960E+02  0.37176876496E+02  0.15292564623E+03  0.00000000000E+00 0.  1.
         -1    1    6    6    0  502 -0.18284499121E+02 -0.14885511587E+02 -0.13160562647E+03  0.13370094346E+03  0.00000000000E+00 0.  1.
<mgrwt>
<rscale>  0 0.13568277E+04</rscale>
<asrwt>0</asrwt>
<pdfrwt beam="1">  1        1 0.31253584E+00 0.13568277E+04</pdfrwt>
<pdfrwt beam="2">  1       -1 0.34854822E-01 0.13568277E+04</pdfrwt>
<totfact> 0.21723475E+01</totfact>
</mgrwt>
</event>
<event>
12    1  0.1663913E-007  0.2482450E+04  0.7818608E-02  0.8409265E-01
         -1   -1    0    0    0  501 -0.00000000000E+00  0.00000000000E+00  0.52591304309E+03  0.52591304309E+03  0.00000000000E+00 0.  1.
          1   -1    0    0  501    0  0.00000000000E+00 -0.00000000000E+00 -0.29294560674E+04  0.29294560674E+04  0.00000000000E+00 0. -1.
         23    2    1    2    0    0 -0.23706525681E+03 -0.89159604743E+03 -0.18283213965E+04  0.20497144116E+04  0.86177677782E+02 0.  0.
        254    2    1    2    0    0  0.23706525681E+03  0.89159604743E+03 -0.57522162776E+03  0.14056546989E+04  0.89097798163E+03 0.  0.
        -24    2    4    4    0    0  0.30395345776E+03 -0.36181471730E+02 -0.28780572248E+03  0.42884060915E+03  0.85879746052E+02 0.  0.
         24    2    4    4    0    0 -0.66888200949E+02  0.92777751916E+03 -0.28741590528E+03  0.97681408976E+03  0.79452544726E+02 0.  0.
         11    1    3    3    0    0 -0.22007213893E+03 -0.87101737206E+03 -0.17926167012E+04  0.20051378123E+04  0.00000000000E+00 0. -1.
        -11    1    3    3    0    0 -0.16993117886E+02 -0.20578675368E+02 -0.35704695325E+02  0.44576599283E+02  0.00000000000E+00 0.  1.
          2    1    6    6  502    0 -0.13229691077E+02  0.19662484911E+03 -0.27474327710E+02  0.19897536203E+03  0.00000000000E+00 0. -1.
          3    1    5    5  503    0  0.14682326633E+03 -0.24023811193E+02 -0.82822283673E+02  0.17027549945E+03  0.00000000000E+00 0. -1.
         -4    1    5    5    0  503  0.15713019143E+03 -0.12157660536E+02 -0.20498343881E+03  0.25856510970E+03  0.00000000000E+00 0.  1.
         -1    1    6    6    0  502 -0.53658509872E+02  0.73115267006E+03 -0.25994157757E+03  0.77783872773E+03  0.00000000000E+00 0.  1.
<mgrwt>
<rscale>  0 0.24824497E+04</rscale>
<asrwt>0</asrwt>
<pdfrwt beam="1">  1        1 0.45068555E+00 0.24824497E+04</pdfrwt>
<pdfrwt beam="2">  1       -1 0.80909698E-01 0.24824497E+04</pdfrwt>
<totfact> 0.91130334E-01</totfact>
</mgrwt>
</event>
<event>
12    1  0.1663913E-007  0.2982900E+04  0.7818608E-02  0.8248631E-01
          1   -1    0    0  501    0  0.00000000000E+00  0.00000000000E+00  0.17681936697E+04  0.17681936697E+04  0.00000000000E+00 0. -1.
         -1   -1    0    0    0  501 -0.00000000000E+00 -0.00000000000E+00 -0.12580199025E+04  0.12580199025E+04  0.00000000000E+00 0.  1.
         23    2    1    2    0    0 -0.26141480587E+03  0.12054211101E+02 -0.11151986900E+04  0.11493159623E+04  0.93680618543E+02 0.  0.
        254    2    1    2    0    0  0.26141480587E+03 -0.12054211101E+02  0.16253724572E+04  0.18768976100E+04  0.90134677506E+03 0.  0.
        -24    2    4    4    0    0  0.21637783117E+03 -0.12221588339E+03  0.16966169318E+04  0.17167473270E+04  0.83404337032E+02 0.  0.
         24    2    4    4    0    0  0.45036974704E+02  0.11016167229E+03 -0.71244474605E+02  0.16015028298E+03  0.80052575500E+02 0.  0.
         11    1    3    3    0    0 -0.17233453226E+03  0.51325522462E+02 -0.68128012490E+03  0.70461060796E+03  0.00000000000E+00 0. -1.
        -11    1    3    3    0    0 -0.89080273615E+02 -0.39271311361E+02 -0.43391856510E+03  0.44470535435E+03  0.00000000000E+00 0.  1.
          4    1    6    6  502    0 -0.17495767984E+02  0.23458169005E+02  0.38403608073E+01  0.29515012478E+02  0.00000000000E+00 0. -1.
          3    1    5    5  503    0  0.52644998496E+02 -0.21643504256E+01  0.21910556448E+03  0.22535178869E+03  0.00000000000E+00 0. -1.
         -4    1    5    5    0  503  0.16373283267E+03 -0.12005153296E+03  0.14775113673E+04  0.14913955383E+04  0.00000000000E+00 0.  1.
         -3    1    6    6    0  502  0.62532742688E+02  0.86703503283E+02 -0.75084835412E+02  0.13063527050E+03  0.00000000000E+00 0.  1.
<mgrwt>
<rscale>  0 0.29828998E+04</rscale>
<asrwt>0</asrwt>
<pdfrwt beam="1">  1        1 0.27202980E+00 0.29828998E+04</pdfrwt>
<pdfrwt beam="2">  1       -1 0.19354152E+00 0.29828998E+04</pdfrwt>
<totfact> 0.60911208E-01</totfact>
</mgrwt>
</event>
<event>
12    1  0.1663913E-007  0.1211071E+04  0.7818608E-02  0.9103221E-01
          1   -1    0    0  501    0  0.00000000000E+00  0.00000000000E+00  0.63249668455E+03  0.63249668455E+03  0.00000000000E+00 0.  1.
         -1   -1    0    0    0  501 -0.00000000000E+00 -0.00000000000E+00 -0.57972316324E+03  0.57972316324E+03  0.00000000000E+00 0. -1.
         23    2    1    2    0    0  0.18626196988E+03  0.17970075499E+03  0.35097507386E+02  0.27924125435E+03  0.98782388816E+02 0.  0.
        254    2    1    2    0    0 -0.18626196988E+03 -0.17970075499E+03  0.17676013917E+02  0.93297859344E+03  0.89618677271E+03 0.  0.
        -24    2    4    4    0    0 -0.21290758112E+03 -0.56397075957E+02  0.43215563874E+03  0.49170652097E+03  0.80663116693E+02 0.  0.
         24    2    4    4    0    0  0.26645611236E+02 -0.12330367903E+03 -0.41447962482E+03  0.44127207248E+03  0.83749010102E+02 0.  0.
         13    1    3    3    0    0  0.14701344217E+03  0.15119661201E+03 -0.12532644455E+02  0.21125916510E+03  0.00000000000E+00 0. -1.
        -13    1    3    3    0    0  0.39248527710E+02  0.28504142973E+02  0.47630151841E+02  0.67982089248E+02  0.00000000000E+00 0.  1.
          2    1    6    6  502    0 -0.47123622242E+01 -0.20451910309E+02 -0.10970463541E+02  0.23682019832E+02  0.00000000000E+00 0. -1.
          1    1    5    5  503    0 -0.12461143599E+03 -0.57967254882E+02  0.19435644136E+03  0.23803915417E+03  0.00000000000E+00 0. -1.
         -2    1    5    5    0  503 -0.88296145126E+02  0.15701789251E+01  0.23779919737E+03  0.25366736680E+03  0.00000000000E+00 0.  1.
         -1    1    6    6    0  502  0.31357973461E+02 -0.10285176872E+03 -0.40350916128E+03  0.41759005264E+03  0.00000000000E+00 0.  1.
<mgrwt>
<rscale>  0 0.12110706E+04</rscale>
<asrwt>0</asrwt>
<pdfrwt beam="1">  1        1 0.97307182E-01 0.12110706E+04</pdfrwt>
<pdfrwt beam="2">  1       -1 0.89188179E-01 0.12110706E+04</pdfrwt>
<totfact> 0.38667406E+01</totfact>
</mgrwt>
</event>
<event>
12    1  0.1663913E-007  0.1263616E+04  0.7818608E-02  0.9058926E-01
          1   -1    0    0  501    0  0.00000000000E+00  0.00000000000E+00  0.99712288145E+03  0.99712288145E+03  0.00000000000E+00 0. -1.
         -1   -1    0    0    0  501 -0.00000000000E+00 -0.00000000000E+00 -0.40033344684E+03  0.40033344684E+03  0.00000000000E+00 0.  1.
         23    2    1    2    0    0  0.92622230095E+02  0.99512023257E+02 -0.14507856675E+03  0.21921754987E+03  0.92341883012E+02 0.  0.
        254    2    1    2    0    0 -0.92622230095E+02 -0.99512023257E+02  0.74186800136E+03  0.11782387784E+04  0.90520548345E+03 0.  0.
        -24    2    4    4    0    0 -0.22707271377E+03  0.31327849193E+03  0.59235149348E+03  0.71200724038E+03  0.79803431519E+02 0.  0.
         24    2    4    4    0    0  0.13445048367E+03 -0.41279051519E+03  0.14951650789E+03  0.46623153805E+03  0.80893256532E+02 0.  0.
         11    1    3    3    0    0  0.65454285489E+02  0.75173932476E+02 -0.15231555085E+03  0.18203134522E+03  0.00000000000E+00 0.  1.
        -11    1    3    3    0    0  0.27167944606E+02  0.24338090781E+02  0.72369840979E+01  0.37186204644E+02  0.00000000000E+00 0. -1.
          4    1    6    6  502    0  0.14168558154E+03 -0.34104347042E+03  0.13013091720E+03  0.39156035083E+03  0.00000000000E+00 0. -1.
          1    1    5    5  503    0 -0.21637432497E+03  0.24968150622E+03  0.50337115037E+03  0.60211395772E+03  0.00000000000E+00 0. -1.
         -2    1    5    5    0  503 -0.10698388801E+02  0.63596985715E+02  0.88980343108E+02  0.10989328266E+03  0.00000000000E+00 0.  1.
         -3    1    6    6    0  502 -0.72350978682E+01 -0.71747044772E+02  0.19385590689E+02  0.74671187221E+02  0.00000000000E+00 0.  1.
<mgrwt>
<rscale>  0 0.12636165E+04</rscale>
<asrwt>0</asrwt>
<pdfrwt beam="1">  1        1 0.15340352E+00 0.12636165E+04</pdfrwt>
<pdfrwt beam="2">  1       -1 0.61589761E-01 0.12636165E+04</pdfrwt>
<totfact> 0.40066418E+01</totfact>
</mgrwt>
</event>
<event>
12    1  0.1663913E-007  0.1438031E+04  0.7818608E-02  0.8926741E-01
          2   -1    0    0  501    0  0.00000000000E+00  0.00000000000E+00  0.99420846325E+03  0.99420846325E+03  0.00000000000E+00 0. -1.
         -2   -1    0    0    0  501 -0.00000000000E+00 -0.00000000000E+00 -0.51999465633E+03  0.51999465633E+03  0.00000000000E+00 0.  1.
         23    2    1    2    0    0 -0.39749792373E+03  0.14153959188E+03  0.15169159095E+03  0.45754099527E+03  0.91078911659E+02 0.  0.
        254    2    1    2    0    0  0.39749792373E+03 -0.14153959188E+03  0.32252221597E+03  0.10566621243E+04  0.91349669389E+03 0.  0.
        -24    2    4    4    0    0  0.25714943883E+03 -0.28568864068E+03 -0.23579346886E+03  0.45791340726E+03  0.79638528874E+02 0.  0.
         24    2    4    4    0    0  0.14034848490E+03  0.14414904880E+03  0.55831568483E+03  0.59874871706E+03  0.79416476681E+02 0.  0.
         13    1    3    3    0    0 -0.21868145735E+03  0.60524535205E+02  0.36190121503E+02  0.22977059004E+03  0.00000000000E+00 0. -1.
        -13    1    3    3    0    0 -0.17881646638E+03  0.81015056672E+02  0.11550146945E+03  0.22777040523E+03  0.00000000000E+00 0.  1.
          4    1    6    6  502    0  0.10088081538E+03  0.13873263704E+03  0.49564544597E+03  0.52448840940E+03  0.00000000000E+00 0. -1.
          3    1    5    5  503    0  0.24459295702E+03 -0.23235653913E+03 -0.19566940057E+03  0.39000229515E+03  0.00000000000E+00 0. -1.
         -4    1    5    5    0  503  0.12556481807E+02 -0.53332101552E+02 -0.40124068296E+02  0.67911112109E+02  0.00000000000E+00 0.  1.
         -3    1    6    6    0  502  0.39467669526E+02  0.54164117657E+01  0.62670238869E+02  0.74260307662E+02  0.00000000000E+00 0.  1.
<mgrwt>
<rscale>  0 0.14380307E+04</rscale>
<asrwt>0</asrwt>
<pdfrwt beam="1">  1        2 0.15295515E+00 0.14380307E+04</pdfrwt>
<pdfrwt beam="2">  1       -2 0.79999178E-01 0.14380307E+04</pdfrwt>
<totfact> 0.34096608E+01</totfact>
</mgrwt>
</event>
<event>
12    1  0.1663913E-007  0.2908720E+04  0.7818608E-02  0.8270288E-01
          2   -1    0    0  501    0  0.00000000000E+00  0.00000000000E+00  0.17711337660E+04  0.17711337660E+04  0.00000000000E+00 0.  1.
         -2   -1    0    0    0  501 -0.00000000000E+00 -0.00000000000E+00 -0.11942423823E+04  0.11942423823E+04  0.00000000000E+00 0. -1.
         23    2    1    2    0    0  0.40181998363E+03  0.90239144671E+03 -0.62037874192E+03  0.11700052052E+04  0.90954793363E+02 0.  0.
        254    2    1    2    0    0 -0.40181998363E+03 -0.90239144671E+03  0.11972701257E+04  0.17953709431E+04  0.90229232914E+03 0.  0.
        -24    2    4    4    0    0  0.49056021000E+02  0.13825915466E+03  0.31501957776E+03  0.35623733814E+03  0.78394002780E+02 0.  0.
         24    2    4    4    0    0 -0.45087600463E+03 -0.10406506014E+04  0.88225054789E+03  0.14391336050E+04  0.80601848538E+02 0.  0.
         11    1    3    3    0    0  0.54720669951E+02  0.87982786693E+02 -0.94916857644E+02  0.14051523881E+03  0.00000000000E+00 0.  1.
        -11    1    3    3    0    0  0.34709931367E+03  0.81440866002E+03 -0.52546188428E+03  0.10294899664E+04  0.00000000000E+00 0. -1.
          2    1    6    6  502    0 -0.20531419490E+03 -0.45025101994E+03  0.33598597280E+03  0.59813583198E+03  0.00000000000E+00 0. -1.
          3    1    5    5  503    0  0.56728219201E+02  0.72862025700E+02  0.23573504254E+03  0.25317578068E+03  0.00000000000E+00 0. -1.
         -4    1    5    5    0  503 -0.76721982009E+01  0.65397128959E+02  0.79284535224E+02  0.10306155746E+03  0.00000000000E+00 0.  1.
         -1    1    6    6    0  502 -0.24556180972E+03 -0.59039958143E+03  0.54626457510E+03  0.84099777298E+03  0.00000000000E+00 0.  1.
<mgrwt>
<rscale>  0 0.29087200E+04</rscale>
<asrwt>0</asrwt>
<pdfrwt beam="1">  1        2 0.27248212E+00 0.29087200E+04</pdfrwt>
<pdfrwt beam="2">  1       -2 0.18372960E+00 0.29087200E+04</pdfrwt>
<totfact> 0.13200499E+00</totfact>
</mgrwt>
</event>
<event>
12    1  0.1663913E-007  0.1991492E+04  0.7818608E-02  0.8610609E-01
          2   -1    0    0  501    0  0.00000000000E+00  0.00000000000E+00  0.43053456358E+04  0.43053456358E+04  0.00000000000E+00 0. -1.
         -2   -1    0    0    0  501 -0.00000000000E+00 -0.00000000000E+00 -0.23029744418E+03  0.23029744418E+03  0.00000000000E+00 0.  1.
         23    2    1    2    0    0 -0.60694517696E+03 -0.45006484886E+02  0.48528752484E+03  0.78382964659E+03  0.92070090612E+02 0.  0.
        254    2    1    2    0    0  0.60694517696E+03  0.45006484886E+02  0.35897606667E+04  0.37518134334E+04  0.90515985478E+03 0.  0.
        -24    2    4    4    0    0  0.11062481843E+03 -0.17568293684E+03  0.26807619324E+04  0.26899545906E+04  0.79175856432E+02 0.  0.
         24    2    4    4    0    0  0.49632035853E+03  0.22068942173E+03  0.90899873430E+03  0.10618588428E+04  0.78916309183E+02 0.  0.
         11    1    3    3    0    0 -0.52222837033E+03 -0.52782401714E+02  0.37763165727E+03  0.64661744585E+03  0.00000000000E+00 0.  1.
        -11    1    3    3    0    0 -0.84716806633E+02  0.77759168276E+01  0.10765586757E+03  0.13721220074E+03  0.00000000000E+00 0. -1.
          2    1    6    6  502    0  0.39700469250E+03  0.15624489186E+03  0.65608788356E+03  0.78260878033E+03  0.00000000000E+00 0. -1.
          3    1    5    5  503    0  0.51844027579E+02 -0.27852436419E+02  0.98110854312E+03  0.98287208466E+03  0.00000000000E+00 0. -1.
         -4    1    5    5    0  503  0.58780790855E+02 -0.14783050042E+03  0.16996533893E+04  0.17070825059E+04  0.00000000000E+00 0.  1.
         -1    1    6    6    0  502  0.99315666028E+02  0.64444529868E+02  0.25291085074E+03  0.27925006244E+03  0.00000000000E+00 0.  1.
<mgrwt>
<rscale>  0 0.19914920E+04</rscale>
<asrwt>0</asrwt>
<pdfrwt beam="1">  1        2 0.66236081E+00 0.19914920E+04</pdfrwt>
<pdfrwt beam="2">  1       -2 0.35430379E-01 0.19914920E+04</pdfrwt>
<totfact> 0.13238636E+00</totfact>
</mgrwt>
</event>
<event>
12    1  0.1663913E-007  0.2082901E+04  0.7818608E-02  0.8568813E-01
         -1   -1    0    0    0  501 -0.00000000000E+00  0.00000000000E+00  0.54699525350E+03  0.54699525350E+03  0.00000000000E+00 0.  1.
          1   -1    0    0  501    0  0.00000000000E+00 -0.00000000000E+00 -0.19828674508E+04  0.19828674508E+04  0.00000000000E+00 0. -1.
         23    2    1    2    0    0  0.36707635982E+03 -0.66866213125E+03 -0.16748817781E+03  0.78800372407E+03  0.10508796195E+03 0.  0.
        254    2    1    2    0    0 -0.36707635982E+03  0.66866213125E+03 -0.12683840195E+04  0.17418589803E+04  0.91837932602E+03 0.  0.
        -24    2    4    4    0    0 -0.37556958572E+03  0.26193010759E+03 -0.65848462183E+02  0.46991013321E+03  0.82580980497E+02 0.  0.
         24    2    4    4    0    0  0.84932258973E+01  0.40673202366E+03 -0.12025355573E+04  0.12719488471E+04  0.79114024806E+02 0.  0.
         11    1    3    3    0    0  0.36853415851E+03 -0.62137943896E+03 -0.15235823003E+03  0.73833790598E+03  0.00000000000E+00 0.  1.
        -11    1    3    3    0    0 -0.14577986920E+01 -0.47282692287E+02 -0.15129947779E+02  0.49665818092E+02  0.00000000000E+00 0. -1.
          2    1    6    6  502    0  0.36597558303E+02  0.34084893984E+03 -0.99193569489E+03  0.10495016931E+04  0.00000000000E+00 0. -1.
          1    1    5    5  503    0 -0.31681936833E+03  0.24587432827E+03 -0.75979651602E+02  0.40816859863E+03  0.00000000000E+00 0. -1.
         -2    1    5    5    0  503 -0.58750217383E+02  0.16055779319E+02  0.10131189419E+02  0.61741534571E+02  0.00000000000E+00 0.  1.
         -1    1    6    6    0  502 -0.28104332406E+02  0.65883083821E+02 -0.21059986245E+03  0.22244715395E+03  0.00000000000E+00 0.  1.
<mgrwt>
<rscale>  0 0.20829009E+04</rscale>
<asrwt>0</asrwt>
<pdfrwt beam="1">  1        1 0.30505653E+00 0.20829009E+04</pdfrwt>
<pdfrwt beam="2">  1       -1 0.84153115E-01 0.20829009E+04</pdfrwt>
<totfact> 0.39439744E+00</totfact>
</mgrwt>
</event>
<event>
12    1  0.1663913E-007  0.1381036E+04  0.7818608E-02  0.8967661E-01
          2   -1    0    0  501    0  0.00000000000E+00  0.00000000000E+00  0.26577535995E+03  0.26577535995E+03  0.00000000000E+00 0. -1.
         -2   -1    0    0    0  501 -0.00000000000E+00 -0.00000000000E+00 -0.17940533918E+04  0.17940533918E+04  0.00000000000E+00 0.  1.
         23    2    1    2    0    0 -0.32089066565E+03 -0.13137391389E+03 -0.77078305738E+03  0.84970042807E+03  0.87489264364E+02 0.  0.
        254    2    1    2    0    0  0.32089066565E+03  0.13137391389E+03 -0.75749497451E+03  0.12101283237E+04  0.87771407582E+03 0.  0.
        -24    2    4    4    0    0  0.35151805641E+03  0.46950726038E+03 -0.42768849176E+03  0.72996682994E+03  0.77020226499E+02 0.  0.
         24    2    4    4    0    0 -0.30627390759E+02 -0.33813334650E+03 -0.32980648274E+03  0.48016149377E+03  0.80687960456E+02 0.  0.
         11    1    3    3    0    0 -0.26512836788E+03 -0.11455254304E+03 -0.70483923758E+03  0.76171759033E+03  0.00000000000E+00 0.  1.
        -11    1    3    3    0    0 -0.55762297768E+02 -0.16821370844E+02 -0.65943819793E+02  0.87982837749E+02  0.00000000000E+00 0. -1.
          4    1    6    6  502    0 -0.55741975141E+01 -0.16659554568E+02  0.17634079014E+01  0.17655651892E+02  0.00000000000E+00 0. -1.
          1    1    5    5  503    0  0.32154892332E+03  0.41252653078E+03 -0.40568036499E+03  0.66192779608E+03  0.00000000000E+00 0. -1.
         -2    1    5    5    0  503  0.29969133091E+02  0.56980729601E+02 -0.22008126770E+02  0.68039033856E+02  0.00000000000E+00 0.  1.
         -3    1    6    6    0  502 -0.25053193245E+02 -0.32147379193E+03 -0.33156989065E+03  0.46250584188E+03  0.00000000000E+00 0.  1.
<mgrwt>
<rscale>  0 0.13810361E+04</rscale>
<asrwt>0</asrwt>
<pdfrwt beam="1">  1        2 0.40888519E-01 0.13810361E+04</pdfrwt>
<pdfrwt beam="2">  1       -2 0.27600820E+00 0.13810361E+04</pdfrwt>
<totfact> 0.54732625E+00</totfact>
</mgrwt>
</event>
<event>
12    1  0.1663913E-007  0.1619573E+04  0.7818608E-02  0.8808613E-01
          2   -1    0    0  501    0  0.00000000000E+00  0.00000000000E+00  0.25342713097E+04  0.25342713097E+04  0.00000000000E+00 0. -1.
         -2   -1    0    0    0  501 -0.00000000000E+00 -0.00000000000E+00 -0.25875460592E+03  0.25875460592E+03  0.00000000000E+00 0.  1.
         23    2    1    2    0    0  0.30230979372E+03 -0.13724048324E+03  0.23779851813E+02  0.34498687642E+03  0.90687937069E+02 0.  0.
        254    2    1    2    0    0 -0.30230979372E+03  0.13724048324E+03  0.22517368520E+04  0.24480390392E+04  0.90130467950E+03 0.  0.
        -24    2    4    4    0    0 -0.53725849432E+03  0.67821444792E+02  0.77365500530E+03  0.94765069335E+03  0.79078007690E+02 0.  0.
         24    2    4    4    0    0  0.23494870059E+03  0.69419038443E+02  0.14780818467E+04  0.15003883458E+04  0.80120834175E+02 0.  0.
         11    1    3    3    0    0  0.25625066203E+03 -0.11318965728E+03 -0.14402245302E+02  0.28050619418E+03  0.00000000000E+00 0.  1.
        -11    1    3    3    0    0  0.46059131695E+02 -0.24050825955E+02  0.38182097115E+02  0.64480682236E+02  0.00000000000E+00 0. -1.
          2    1    6    6  502    0  0.73373345238E+02  0.61762327855E+02  0.56989588898E+03  0.57790964451E+03  0.00000000000E+00 0. -1.
          1    1    5    5  503    0 -0.16379276978E+03  0.20081456200E+02  0.17577121964E+03  0.24109512224E+03  0.00000000000E+00 0. -1.
         -2    1    5    5    0  503 -0.37346572454E+03  0.47739988592E+02  0.59788378566E+03  0.70655557111E+03  0.00000000000E+00 0.  1.
         -1    1    6    6    0  502  0.16157535536E+03  0.76567105885E+01  0.90818595769E+03  0.92247870134E+03  0.00000000000E+00 0.  1.
<mgrwt>
<rscale>  0 0.16195732E+04</rscale>
<asrwt>0</asrwt>
<pdfrwt beam="1">  1        2 0.38988788E+00 0.16195732E+04</pdfrwt>
<pdfrwt beam="2">  1       -2 0.39808403E-01 0.16195732E+04</pdfrwt>
<totfact> 0.19049839E+01</totfact>
</mgrwt>
</event>
<event>
12    1  0.1663913E-007  0.2160959E+04  0.7818608E-02  0.8534856E-01
          2   -1    0    0  501    0  0.00000000000E+00  0.00000000000E+00  0.16929632495E+04  0.16929632495E+04  0.00000000000E+00 0. -1.
         -2   -1    0    0    0  501 -0.00000000000E+00 -0.00000000000E+00 -0.68958115795E+03  0.68958115795E+03  0.00000000000E+00 0.  1.
         23    2    1    2    0    0 -0.52848526350E+03 -0.32017845294E+03 -0.28820075369E+03  0.68796510286E+03  0.91789938816E+02 0.  0.
        254    2    1    2    0    0  0.52848526350E+03  0.32017845294E+03  0.12915828453E+04  0.16945793046E+04  0.90642256038E+03 0.  0.
        -24    2    4    4    0    0  0.51456884913E+03 -0.20202035749E+03  0.77586850141E+03  0.95598825485E+03  0.79676135667E+02 0.  0.
         24    2    4    4    0    0  0.13916414365E+02  0.52219881043E+03  0.51571434387E+03  0.73859104977E+03  0.81671231913E+02 0.  0.
         13    1    3    3    0    0 -0.28658084686E+03 -0.16673644348E+03 -0.10439795966E+03  0.34760402378E+03  0.00000000000E+00 0. -1.
        -13    1    3    3    0    0 -0.24190441664E+03 -0.15344200946E+03 -0.18380279404E+03  0.34036107908E+03  0.00000000000E+00 0.  1.
          4    1    6    6  502    0 -0.30585562438E+01  0.81471793221E+02  0.43388470674E+02  0.92355656266E+02  0.00000000000E+00 0. -1.
          3    1    5    5  503    0  0.58021596031E+02 -0.21799667123E+02  0.13676364513E+03  0.15015334070E+03  0.00000000000E+00 0. -1.
         -2    1    5    5    0  503  0.45654725310E+03 -0.18022069037E+03  0.63910485627E+03  0.80583491415E+03  0.00000000000E+00 0.  1.
         -3    1    6    6    0  502  0.16974970609E+02  0.44072701721E+03  0.47232587320E+03  0.64623539350E+03  0.00000000000E+00 0.  1.
<mgrwt>
<rscale>  0 0.21609586E+04</rscale>
<asrwt>0</asrwt>
<pdfrwt beam="1">  1        2 0.26045588E+00 0.21609586E+04</pdfrwt>
<pdfrwt beam="2">  1       -2 0.10608941E+00 0.21609586E+04</pdfrwt>
<totfact> 0.65071510E+00</totfact>
</mgrwt>
</event>
<event>
12    1  0.1663913E-007  0.1311759E+04  0.7818608E-02  0.9020292E-01
         -1   -1    0    0    0  501 -0.00000000000E+00  0.00000000000E+00  0.16997271734E+03  0.16997271734E+03  0.00000000000E+00 0. -1.
          1   -1    0    0  501    0  0.00000000000E+00 -0.00000000000E+00 -0.25308632296E+04  0.25308632296E+04  0.00000000000E+00 0.  1.
         23    2    1    2    0    0 -0.17971377206E+03  0.17687887181E+03 -0.68696771914E+03  0.73648249073E+03  0.83058033075E+02 0.  0.
        254    2    1    2    0    0  0.17971377206E+03 -0.17687887181E+03 -0.16739227931E+04  0.19643534562E+04  0.99653590424E+03 0.  0.
        -24    2    4    4    0    0 -0.39365727401E+03 -0.19867068080E+03 -0.76192944071E+03  0.88444750069E+03  0.85292555745E+02 0.  0.
         24    2    4    4    0    0  0.57337104607E+03  0.21791808991E+02 -0.91199335243E+03  0.10799059555E+04  0.72358541440E+02 0.  0.
         13    1    3    3    0    0 -0.16288129677E+03  0.17474059375E+03 -0.67413622147E+03  0.71520922606E+03  0.00000000000E+00 0.  1.
        -13    1    3    3    0    0 -0.16832475294E+02  0.21382780599E+01 -0.12831497670E+02  0.21273264677E+02  0.00000000000E+00 0. -1.
          2    1    6    6  502    0  0.16796195940E+03  0.14388766913E+02 -0.21080342781E+03  0.26991913899E+03  0.00000000000E+00 0. -1.
          1    1    5    5  503    0 -0.25332235957E+03 -0.13389230966E+03 -0.57046856656E+03  0.63838370427E+03  0.00000000000E+00 0. -1.
         -2    1    5    5    0  503 -0.14033491444E+03 -0.64778371137E+02 -0.19146087415E+03  0.24606379642E+03  0.00000000000E+00 0.  1.
         -1    1    6    6    0  502  0.40540908668E+03  0.74030420783E+01 -0.70118992462E+03  0.80998681655E+03  0.00000000000E+00 0.  1.
<mgrwt>
<rscale>  0 0.13117587E+04</rscale>
<asrwt>0</asrwt>
<pdfrwt beam="1">  1        1 0.38936355E+00 0.13117587E+04</pdfrwt>
<pdfrwt beam="2">  1       -1 0.26149650E-01 0.13117587E+04</pdfrwt>
<totfact> 0.16487345E+01</totfact>
</mgrwt>
</event>
<event>
12    1  0.1663913E-007  0.1488178E+04  0.7818608E-02  0.8892353E-01
          2   -1    0    0  501    0  0.00000000000E+00  0.00000000000E+00  0.96797318658E+03  0.96797318658E+03  0.00000000000E+00 0.  1.
         -2   -1    0    0    0  501 -0.00000000000E+00 -0.00000000000E+00 -0.57198711990E+03  0.57198711990E+03  0.00000000000E+00 0. -1.
         23    2    1    2    0    0  0.15527746258E+02 -0.65844546713E+02 -0.34738769279E+03  0.36684469826E+03  0.96541225921E+02 0.  0.
        254    2    1    2    0    0 -0.15527746258E+02  0.65844546713E+02  0.74337375948E+03  0.11731156082E+04  0.90499672305E+03 0.  0.
        -24    2    4    4    0    0  0.12166667102E+03 -0.37918827231E+03  0.48818113748E+03  0.63503531166E+03  0.79765276705E+02 0.  0.
         24    2    4    4    0    0 -0.13719441728E+03  0.44503281902E+03  0.25519262200E+03  0.53808029657E+03  0.86779105154E+02 0.  0.
         13    1    3    3    0    0  0.18641503405E+02 -0.86778206364E+02 -0.32085418784E+03  0.33290444966E+03  0.00000000000E+00 0. -1.
        -13    1    3    3    0    0 -0.31137571469E+01  0.20933659650E+02 -0.26533504947E+02  0.33940248595E+02  0.00000000000E+00 0.  1.
          4    1    6    6  502    0 -0.56746279708E+01  0.40430285043E+02  0.53369822048E+02  0.67194845462E+02  0.00000000000E+00 0. -1.
          1    1    5    5  503    0  0.56750021494E+02 -0.26901251722E+03  0.29393720210E+03  0.40247655601E+03  0.00000000000E+00 0. -1.
         -2    1    5    5    0  503  0.64916649530E+02 -0.11017575508E+03  0.19424393538E+03  0.23255875564E+03  0.00000000000E+00 0.  1.
         -3    1    6    6    0  502 -0.13151978931E+03  0.40460253398E+03  0.20182279995E+03  0.47088545110E+03  0.00000000000E+00 0.  1.
<mgrwt>
<rscale>  0 0.14881777E+04</rscale>
<asrwt>0</asrwt>
<pdfrwt beam="1">  1        2 0.14891895E+00 0.14881777E+04</pdfrwt>
<pdfrwt beam="2">  1       -2 0.87998019E-01 0.14881777E+04</pdfrwt>
<totfact> 0.28446691E+01</totfact>
</mgrwt>
</event>
<event>
12    1  0.1663913E-007  0.2203388E+04  0.7818608E-02  0.8517019E-01
         -2   -1    0    0    0  501 -0.00000000000E+00  0.00000000000E+00  0.35124060117E+03  0.35124060117E+03  0.00000000000E+00 0.  1.
          2   -1    0    0  501    0  0.00000000000E+00 -0.00000000000E+00 -0.34555495778E+04  0.34555495778E+04  0.00000000000E+00 0. -1.
         23    2    1    2    0    0  0.25783754059E+03 -0.61495851267E+03 -0.23656717791E+04  0.24595927893E+04  0.92409704291E+02 0.  0.
        254    2    1    2    0    0 -0.25783754059E+03  0.61495851267E+03 -0.73863719757E+03  0.13471973896E+04  0.90813089772E+03 0.  0.
        -24    2    4    4    0    0  0.12468967166E+03 -0.16612303038E+03 -0.28989059363E+03  0.36515157590E+03  0.78452161616E+02 0.  0.
         24    2    4    4    0    0 -0.38252721225E+03  0.78108154305E+03 -0.44874660394E+03  0.98204581374E+03  0.81394230398E+02 0.  0.
         11    1    3    3    0    0  0.14609493515E+03 -0.36222541166E+03 -0.15469152454E+04  0.15954616120E+04  0.00000000000E+00 0. -1.
        -11    1    3    3    0    0  0.11174260543E+03 -0.25273310100E+03 -0.81875653362E+03  0.86413117728E+03  0.00000000000E+00 0.  1.
          4    1    6    6  502    0 -0.33539054292E+03  0.66308128624E+03 -0.41257791449E+03  0.84993184665E+03  0.00000000000E+00 0. -1.
          1    1    5    5  503    0  0.12479002955E+03 -0.12227535200E+03 -0.20304118876E+03  0.26786104142E+03  0.00000000000E+00 0. -1.
         -2    1    5    5    0  503 -0.10035788267E+00 -0.43847678387E+02 -0.86849404878E+02  0.97290534479E+02  0.00000000000E+00 0.  1.
         -3    1    6    6    0  502 -0.47136669333E+02  0.11800025681E+03 -0.36168689455E+02  0.13211396709E+03  0.00000000000E+00 0.  1.
<mgrwt>
<rscale>  0 0.22033877E+04</rscale>
<asrwt>0</asrwt>
<pdfrwt beam="1">  1        2 0.53162298E+00 0.22033877E+04</pdfrwt>
<pdfrwt beam="2">  1       -2 0.54037019E-01 0.22033877E+04</pdfrwt>
<totfact> 0.25814066E+00</totfact>
</mgrwt>
</event>
<event>
12    1  0.1663913E-007  0.1476004E+04  0.7818608E-02  0.8900569E-01
          1   -1    0    0  501    0  0.00000000000E+00  0.00000000000E+00  0.15650912435E+04  0.15650912435E+04  0.00000000000E+00 0. -1.
         -1   -1    0    0    0  501 -0.00000000000E+00 -0.00000000000E+00 -0.34799674671E+03  0.34799674671E+03  0.00000000000E+00 0.  1.
         23    2    1    2    0    0 -0.38487343374E+03 -0.24076296147E+03  0.46393723391E+03  0.65570694752E+03  0.92841156873E+02 0.  0.
        254    2    1    2    0    0  0.38487343374E+03  0.24076296147E+03  0.75315726283E+03  0.12573810426E+04  0.89870287650E+03 0.  0.
        -24    2    4    4    0    0  0.14559468342E+03 -0.64365378975E+02  0.83433537588E+03  0.85308550802E+03  0.79364039133E+02 0.  0.
         24    2    4    4    0    0  0.23927875032E+03  0.30512834044E+03 -0.81178113046E+02  0.40429553462E+03  0.80668263782E+02 0.  0.
         13    1    3    3    0    0 -0.21312402117E+03 -0.15249675539E+03  0.32662312309E+03  0.41875980387E+03  0.00000000000E+00 0.  1.
        -13    1    3    3    0    0 -0.17174941257E+03 -0.88266206082E+02  0.13731411082E+03  0.23694714365E+03  0.00000000000E+00 0. -1.
          4    1    6    6  502    0  0.17833644516E+03  0.23612943771E+03 -0.95916929289E+02  0.31106439261E+03  0.00000000000E+00 0. -1.
          3    1    5    5  503    0  0.12487907918E+03 -0.17419330390E+02  0.62027592937E+03  0.63296164658E+03  0.00000000000E+00 0. -1.
         -4    1    5    5    0  503  0.20715604243E+02 -0.46946048585E+02  0.21405944651E+03  0.22012386145E+03  0.00000000000E+00 0.  1.
         -1    1    6    6    0  502  0.60942305163E+02  0.68998902729E+02  0.14738816244E+02  0.93231142011E+02  0.00000000000E+00 0.  1.
<mgrwt>
<rscale>  0 0.14760036E+04</rscale>
<asrwt>0</asrwt>
<pdfrwt beam="1">  1        1 0.24078326E+00 0.14760036E+04</pdfrwt>
<pdfrwt beam="2">  1       -1 0.53537962E-01 0.14760036E+04</pdfrwt>
<totfact> 0.20120771E+01</totfact>
</mgrwt>
</event>
<event>
12    1  0.1663913E-007  0.2370241E+04  0.7818608E-02  0.8450730E-01
         -1   -1    0    0    0  501 -0.00000000000E+00  0.00000000000E+00  0.24731182946E+03  0.24731182946E+03  0.00000000000E+00 0.  1.
          1   -1    0    0  501    0  0.00000000000E+00 -0.00000000000E+00 -0.56791084106E+04  0.56791084106E+04  0.00000000000E+00 0. -1.
         23    2    1    2    0    0 -0.47726161621E+03  0.85714886911E+03 -0.16994522195E+04  0.19644515700E+04  0.91920020151E+02 0.  0.
        254    2    1    2    0    0  0.47726161621E+03 -0.85714886911E+03 -0.37323443616E+04  0.39619686701E+04  0.89683804291E+03 0.  0.
        -24    2    4    4    0    0 -0.10110842600E+03 -0.64547239857E+03 -0.24496938249E+04  0.25365490344E+04  0.78890032540E+02 0.  0.
         24    2    4    4    0    0  0.57837004221E+03 -0.21167647054E+03 -0.12826505367E+04  0.14254196357E+04  0.85497979741E+02 0.  0.
         11    1    3    3    0    0 -0.42713219005E+03  0.80170708960E+03 -0.15318534861E+04  0.17809411186E+04  0.00000000000E+00 0. -1.
        -11    1    3    3    0    0 -0.50129426160E+02  0.55441779511E+02 -0.16759873347E+03  0.18351045132E+03  0.00000000000E+00 0.  1.
          4    1    6    6  502    0  0.28163337321E+03 -0.58168037669E+02 -0.57910184620E+03  0.64657546024E+03  0.00000000000E+00 0. -1.
          1    1    5    5  503    0 -0.14437313394E+02 -0.19221928485E+03 -0.60240697816E+03  0.63249573660E+03  0.00000000000E+00 0. -1.
         -2    1    5    5    0  503 -0.86671112604E+02 -0.45325311372E+03 -0.18472868467E+04  0.19040532978E+04  0.00000000000E+00 0.  1.
         -3    1    6    6    0  502  0.29673666900E+03 -0.15350843287E+03 -0.70354869049E+03  0.77884417541E+03  0.00000000000E+00 0.  1.
<mgrwt>
<rscale>  0 0.23702411E+04</rscale>
<asrwt>0</asrwt>
<pdfrwt beam="1">  1        1 0.87370902E+00 0.23702411E+04</pdfrwt>
<pdfrwt beam="2">  1       -1 0.38047972E-01 0.23702411E+04</pdfrwt>
<totfact> 0.41122243E-03</totfact>
</mgrwt>
</event>
<event>
12    1  0.2938554E-007  0.2127879E+04  0.7818608E-02  0.8549061E-01
         -2   -1    0    0    0  501 -0.00000000000E+00  0.00000000000E+00  0.40240816308E+03  0.40240816308E+03  0.00000000000E+00 0.  1.
          2   -1    0    0  501    0  0.00000000000E+00 -0.00000000000E+00 -0.28129820059E+04  0.28129820059E+04  0.00000000000E+00 0. -1.
         23    2    1    2    0    0  0.21974599610E+03 -0.24371177274E+03 -0.21792340136E+04  0.22057609752E+04  0.92934723190E+02 0.  0.
        254    2    1    2    0    0 -0.21974599610E+03  0.24371177274E+03 -0.23133982926E+03  0.10096291938E+04  0.92636346074E+03 0.  0.
        -24    2    4    4    0    0 -0.94519908244E+02 -0.13550118116E+01  0.34462647144E+03  0.36627182001E+03  0.80323049045E+02 0.  0.
         24    2    4    4    0    0 -0.12522608785E+03  0.24506678455E+03 -0.57596630070E+03  0.64335737379E+03  0.80201177642E+02 0.  0.
         13    1    3    3    0    0  0.20608191852E+03 -0.25145427115E+03 -0.20600600506E+04  0.20855566211E+04  0.00000000000E+00 0. -1.
        -13    1    3    3    0    0  0.13664077578E+02  0.77424984098E+01 -0.11917396291E+03  0.12020435405E+03  0.00000000000E+00 0.  1.
          4    1    6    6  502    0  0.11446300808E+02  0.12947310183E+02 -0.33676049582E+02  0.37851379878E+02  0.00000000000E+00 0. -1.
          1    1    5    5  503    0 -0.10117329464E+02  0.30023513944E+02  0.61661045367E+02  0.69324283341E+02  0.00000000000E+00 0. -1.
         -2    1    5    5    0  503 -0.84402578780E+02 -0.31378525756E+02  0.28296542607E+03  0.29694753667E+03  0.00000000000E+00 0.  1.
         -3    1    6    6    0  502 -0.13667238866E+03  0.23211947437E+03 -0.54229025112E+03  0.60550599391E+03  0.00000000000E+00 0.  1.
<mgrwt>
<rscale>  0 0.21278787E+04</rscale>
<asrwt>0</asrwt>
<pdfrwt beam="1">  1        2 0.43276646E+00 0.21278787E+04</pdfrwt>
<pdfrwt beam="2">  1       -2 0.61908949E-01 0.21278787E+04</pdfrwt>
<totfact> 0.50646520E+00</totfact>
</mgrwt>
</event>
<event>
12    1  0.1663913E-007  0.1214707E+04  0.7818608E-02  0.9100080E-01
          2   -1    0    0  501    0  0.00000000000E+00  0.00000000000E+00  0.15772089792E+04  0.15772089792E+04  0.00000000000E+00 0. -1.
         -2   -1    0    0    0  501 -0.00000000000E+00 -0.00000000000E+00 -0.23388049664E+03  0.23388049664E+03  0.00000000000E+00 0.  1.
         23    2    1    2    0    0 -0.35405815219E+02  0.65662712495E+02  0.66477993232E+03  0.67838914985E+03  0.11275777868E+03 0.  0.
        254    2    1    2    0    0  0.35405815219E+02 -0.65662712495E+02  0.67854855025E+03  0.11327003260E+04  0.90388977753E+03 0.  0.
        -24    2    4    4    0    0 -0.11096263996E+02 -0.88188193990E+02  0.89140505211E+03  0.89938064763E+03  0.79889284492E+02 0.  0.
         24    2    4    4    0    0  0.46502079215E+02  0.22525481494E+02 -0.21285650186E+03  0.23331967837E+03  0.80376247995E+02 0.  0.
         11    1    3    3    0    0 -0.17244850608E+02  0.48109393202E+02  0.64302930770E+03  0.64505704332E+03  0.00000000000E+00 0. -1.
        -11    1    3    3    0    0 -0.18160964611E+02  0.17553319294E+02  0.21750624626E+02  0.33332106526E+02  0.00000000000E+00 0.  1.
          4    1    6    6  502    0 -0.48918419354E+01  0.33928234517E+02 -0.13536454845E+03  0.13963744552E+03  0.00000000000E+00 0. -1.
          3    1    5    5  503    0  0.33878467683E+02 -0.28869686720E+02  0.29256927026E+03  0.29593578237E+03  0.00000000000E+00 0. -1.
         -4    1    5    5    0  503 -0.44974731680E+02 -0.59318507270E+02  0.59883578185E+03  0.60344486527E+03  0.00000000000E+00 0.  1.
         -3    1    6    6    0  502  0.51393921151E+02 -0.11402753023E+02 -0.77491953415E+02  0.93682232850E+02  0.00000000000E+00 0.  1.
<mgrwt>
<rscale>  0 0.12147072E+04</rscale>
<asrwt>0</asrwt>
<pdfrwt beam="1">  1        2 0.24264753E+00 0.12147072E+04</pdfrwt>
<pdfrwt beam="2">  1       -2 0.35981616E-01 0.12147072E+04</pdfrwt>
<totfact> 0.82210540E+01</totfact>
</mgrwt>
</event>
<event>
12    1  0.1663913E-007  0.1523655E+04  0.7818608E-02  0.8868873E-01
         -2   -1    0    0    0  501 -0.00000000000E+00  0.00000000000E+00  0.27627574517E+03  0.27627574517E+03  0.00000000000E+00 0.  1.
          2   -1    0    0  501    0  0.00000000000E+00 -0.00000000000E+00 -0.21007324992E+04  0.21007324992E+04  0.00000000000E+00 0. -1.
         23    2    1    2    0    0  0.38018800801E+03  0.24502028817E+03 -0.11334207633E+04  0.12237502486E+04  0.91346489974E+02 0.  0.
        254    2    1    2    0    0 -0.38018800801E+03 -0.24502028817E+03 -0.69103599068E+03  0.11532579957E+04  0.80491949983E+03 0.  0.
        -24    2    4    4    0    0  0.76631093168E+02 -0.54269094982E+02  0.13960687587E+03  0.18294678648E+03  0.71846974751E+02 0.  0.
         24    2    4    4    0    0 -0.45681910118E+03 -0.19075119319E+03 -0.83064286655E+03  0.97031120923E+03  0.80414937054E+02 0.  0.
         11    1    3    3    0    0  0.19925008041E+03  0.88304865492E+02 -0.62215231452E+03  0.65922063550E+03  0.00000000000E+00 0. -1.
        -11    1    3    3    0    0  0.18093792761E+03  0.15671542268E+03 -0.51126844883E+03  0.56452961315E+03  0.00000000000E+00 0.  1.
          4    1    6    6  502    0 -0.23309156215E+03 -0.56877830080E+02 -0.42685197886E+03  0.48966251210E+03  0.00000000000E+00 0. -1.
          1    1    5    5  503    0  0.67014794726E+02 -0.67608091177E+02  0.13617442700E+03  0.16614846155E+03  0.00000000000E+00 0. -1.
         -2    1    5    5    0  503  0.96162984419E+01  0.13338996194E+02  0.34324488693E+01  0.16798324929E+02  0.00000000000E+00 0.  1.
         -3    1    6    6    0  502 -0.22372753903E+03 -0.13387336311E+03 -0.40379088769E+03  0.48064869713E+03  0.00000000000E+00 0.  1.
<mgrwt>
<rscale>  0 0.15236554E+04</rscale>
<asrwt>0</asrwt>
<pdfrwt beam="1">  1        2 0.32318962E+00 0.15236554E+04</pdfrwt>
<pdfrwt beam="2">  1       -2 0.42503960E-01 0.15236554E+04</pdfrwt>
<totfact> 0.29726632E+01</totfact>
</mgrwt>
</event>
<event>
12    1  0.1663913E-007  0.1497067E+04  0.7818608E-02  0.8886406E-01
          1   -1    0    0  501    0  0.00000000000E+00  0.00000000000E+00  0.14287959047E+04  0.14287959047E+04  0.00000000000E+00 0. -1.
         -1   -1    0    0    0  501 -0.00000000000E+00 -0.00000000000E+00 -0.39214999651E+03  0.39214999651E+03  0.00000000000E+00 0.  1.
         23    2    1    2    0    0 -0.13631214838E+03  0.42580619437E+03  0.14627262921E+03  0.48084985618E+03  0.99644293200E+02 0.  0.
        254    2    1    2    0    0  0.13631214838E+03 -0.42580619437E+03  0.89037327899E+03  0.13400960450E+04  0.89621477172E+03 0.  0.
        -24    2    4    4    0    0 -0.83302575454E+02 -0.65904576940E+03  0.63722153333E+03  0.92396083274E+03  0.79822882991E+02 0.  0.
         24    2    4    4    0    0  0.21961472384E+03  0.23323957503E+03  0.25315174566E+03  0.41613521231E+03  0.80320497471E+02 0.  0.
         11    1    3    3    0    0 -0.80179566697E+02  0.28680505983E+03  0.14432152648E+03  0.33092991443E+03  0.00000000000E+00 0. -1.
        -11    1    3    3    0    0 -0.56132581685E+02  0.13900113455E+03  0.19511027259E+01  0.14991994175E+03  0.00000000000E+00 0.  1.
          2    1    6    6  502    0  0.71904153783E+02  0.64438566498E+02  0.12451031293E+03  0.15756063661E+03  0.00000000000E+00 0. -1.
          1    1    5    5  503    0 -0.73398511165E+02 -0.29392638146E+03  0.26563516496E+03  0.40291698899E+03  0.00000000000E+00 0. -1.
         -2    1    5    5    0  503 -0.99040642896E+01 -0.36511938794E+03  0.37158636838E+03  0.52104384374E+03  0.00000000000E+00 0.  1.
         -1    1    6    6    0  502  0.14771057005E+03  0.16880100853E+03  0.12864143273E+03  0.25857457570E+03  0.00000000000E+00 0.  1.
<mgrwt>
<rscale>  0 0.14970669E+04</rscale>
<asrwt>0</asrwt>
<pdfrwt beam="1">  1        1 0.21981475E+00 0.14970669E+04</pdfrwt>
<pdfrwt beam="2">  1       -1 0.60330770E-01 0.14970669E+04</pdfrwt>
<totfact> 0.19767619E+01</totfact>
</mgrwt>
</event>
<event>
12    1  0.2196870E-007  0.1629545E+04  0.7818608E-02  0.8802600E-01
          2   -1    0    0  501    0  0.00000000000E+00  0.00000000000E+00  0.30115741619E+04  0.30115741619E+04  0.00000000000E+00 0. -1.
         -2   -1    0    0    0  501 -0.00000000000E+00 -0.00000000000E+00 -0.22043429946E+03  0.22043429946E+03  0.00000000000E+00 0.  1.
         23    2    1    2    0    0 -0.27750661185E+03  0.64665304709E+02  0.19562398291E+04  0.19792248289E+04  0.96255562155E+02 0.  0.
        254    2    1    2    0    0  0.27750661185E+03 -0.64665304709E+02  0.83490003337E+03  0.12527836325E+04  0.88950393073E+03 0.  0.
        -24    2    4    4    0    0 -0.13874452808E+02 -0.38725265340E+03  0.12265418930E+03  0.41397032725E+03  0.78551025975E+02 0.  0.
         24    2    4    4    0    0  0.29138106466E+03  0.32258734869E+03  0.71224584407E+03  0.83881330521E+03  0.85721037239E+02 0.  0.
         11    1    3    3    0    0 -0.24790132887E+02 -0.18618473467E+01  0.58307828555E+02  0.63386276392E+02  0.00000000000E+00 0.  1.
        -11    1    3    3    0    0 -0.25271647896E+03  0.66527152056E+02  0.18979320005E+04  0.19158385525E+04  0.00000000000E+00 0. -1.
          4    1    6    6  502    0  0.33174684585E+01 -0.14583573151E+01 -0.13149537258E+01  0.38550624291E+01  0.00000000000E+00 0. -1.
          3    1    5    5  503    0  0.63397819784E+01 -0.13329285588E+02  0.21500536353E+02  0.26079412441E+02  0.00000000000E+00 0. -1.
         -4    1    5    5    0  503 -0.20214234787E+02 -0.37392336781E+03  0.10115365294E+03  0.38789091481E+03  0.00000000000E+00 0.  1.
         -3    1    6    6    0  502  0.28806359620E+03  0.32404570601E+03  0.71356079780E+03  0.83495824278E+03  0.00000000000E+00 0.  1.
<mgrwt>
<rscale>  0 0.16295450E+04</rscale>
<asrwt>0</asrwt>
<pdfrwt beam="1">  1        2 0.46331907E+00 0.16295450E+04</pdfrwt>
<pdfrwt beam="2">  1       -2 0.33912971E-01 0.16295450E+04</pdfrwt>
<totfact> 0.13406533E+01</totfact>
</mgrwt>
</event>
<event>
12    1  0.1663913E-007  0.2207447E+04  0.7818608E-02  0.8515335E-01
          2   -1    0    0  501    0  0.00000000000E+00  0.00000000000E+00  0.16206321025E+04  0.16206321025E+04  0.00000000000E+00 0. -1.
         -2   -1    0    0    0  501 -0.00000000000E+00 -0.00000000000E+00 -0.75168512628E+03  0.75168512628E+03  0.00000000000E+00 0.  1.
         23    2    1    2    0    0 -0.44793055581E+03  0.73881191267E+02 -0.49483449278E+03  0.67761807700E+03  0.90580736301E+02 0.  0.
        254    2    1    2    0    0  0.44793055581E+03 -0.73881191267E+02  0.13637814690E+04  0.16946991518E+04  0.89777787154E+03 0.  0.
        -24    2    4    4    0    0 -0.12482994652E+03  0.19068559422E+03  0.67681756240E+02  0.25076141755E+03  0.79730527485E+02 0.  0.
         24    2    4    4    0    0  0.57276050232E+03 -0.26456678549E+03  0.12960997128E+04  0.14439377343E+04  0.83854266058E+02 0.  0.
         11    1    3    3    0    0 -0.38059766250E+03  0.60447019259E+02 -0.46165955757E+03  0.60136342584E+03  0.00000000000E+00 0.  1.
        -11    1    3    3    0    0 -0.67332893306E+02  0.13434172007E+02 -0.33174935212E+02  0.76254651168E+02  0.00000000000E+00 0. -1.
          2    1    6    6  502    0  0.23114915406E+03 -0.62907545574E+02  0.50614397529E+03  0.55997233363E+03  0.00000000000E+00 0. -1.
          1    1    5    5  503    0 -0.20059568692E+02 -0.39158796284E+01  0.61367359245E+01  0.21339633014E+02  0.00000000000E+00 0. -1.
         -2    1    5    5    0  503 -0.10477037782E+03  0.19460147385E+03  0.61545020315E+02  0.22942178453E+03  0.00000000000E+00 0.  1.
         -1    1    6    6    0  502  0.34161134827E+03 -0.20165923991E+03  0.78995573748E+03  0.88396540062E+03  0.00000000000E+00 0.  1.
<mgrwt>
<rscale>  0 0.22074465E+04</rscale>
<asrwt>0</asrwt>
<pdfrwt beam="1">  1        2 0.24932801E+00 0.22074465E+04</pdfrwt>
<pdfrwt beam="2">  1       -2 0.11564387E+00 0.22074465E+04</pdfrwt>
<totfact> 0.57706451E+00</totfact>
</mgrwt>
</event>
<event>
12    1  0.1663913E-007  0.2457194E+04  0.7818608E-02  0.8418396E-01
          1   -1    0    0  501    0  0.00000000000E+00  0.00000000000E+00  0.19821503172E+04  0.19821503172E+04  0.00000000000E+00 0. -1.
         -1   -1    0    0    0  501 -0.00000000000E+00 -0.00000000000E+00 -0.76152185315E+03  0.76152185315E+03  0.00000000000E+00 0.  1.
         23    2    1    2    0    0 -0.86523355382E+03  0.38956557899E+03  0.10333698539E+04  0.14057276808E+04  0.88468157206E+02 0.  0.
        254    2    1    2    0    0  0.86523355382E+03 -0.38956557899E+03  0.18725861023E+03  0.13379444895E+04  0.92446699618E+03 0.  0.
        -24    2    4    4    0    0 -0.76567465181E+02  0.18195584339E+03  0.74591810603E+02  0.22759279027E+03  0.85229304264E+02 0.  0.
         24    2    4    4    0    0  0.94180101900E+03 -0.57152142237E+03  0.11266679963E+03  0.11103516993E+04  0.81001189739E+02 0.  0.
         11    1    3    3    0    0 -0.75213128730E+03  0.31909054614E+03  0.92331772136E+03  0.12328973455E+04  0.00000000000E+00 0. -1.
        -11    1    3    3    0    0 -0.11310226652E+03  0.70475032848E+02  0.11005213251E+03  0.17283033535E+03  0.00000000000E+00 0.  1.
          4    1    6    6  502    0  0.80622302211E+03 -0.47215092494E+03  0.69972085048E+02  0.93691950027E+03  0.00000000000E+00 0. -1.
          3    1    5    5  503    0 -0.61263463453E+02  0.11433812123E+03  0.56783772794E+01  0.12984090992E+03  0.00000000000E+00 0. -1.
         -4    1    5    5    0  503 -0.15304001728E+02  0.67617722156E+02  0.68913433323E+02  0.97751880345E+02  0.00000000000E+00 0.  1.
         -3    1    6    6    0  502  0.13557799689E+03 -0.99370497436E+02  0.42694714577E+02  0.17343219901E+03  0.00000000000E+00 0.  1.
<mgrwt>
<rscale>  0 0.24571942E+04</rscale>
<asrwt>0</asrwt>
<pdfrwt beam="1">  1        1 0.30494620E+00 0.24571942E+04</pdfrwt>
<pdfrwt beam="2">  1       -1 0.11715721E+00 0.24571942E+04</pdfrwt>
<totfact> 0.17930880E+00</totfact>
</mgrwt>
</event>
<event>
12    1  0.1663913E-007  0.2079883E+04  0.7818608E-02  0.8570157E-01
          1   -1    0    0  501    0  0.00000000000E+00  0.00000000000E+00  0.11658728919E+04  0.11658728919E+04  0.00000000000E+00 0. -1.
         -1   -1    0    0    0  501 -0.00000000000E+00 -0.00000000000E+00 -0.92761278008E+03  0.92761278008E+03  0.00000000000E+00 0.  1.
         23    2    1    2    0    0 -0.84174155538E+03  0.19689592779E+02  0.55844489833E+02  0.84874208415E+03  0.91257833897E+02 0.  0.
        254    2    1    2    0    0  0.84174155538E+03 -0.19689592779E+02  0.18241562201E+03  0.12447435879E+04  0.89844010053E+03 0.  0.
        -24    2    4    4    0    0  0.88697803531E+03  0.58846018992E+02 -0.13765714052E+03  0.90304484818E+03  0.79671955028E+02 0.  0.
         24    2    4    4    0    0 -0.45236479926E+02 -0.78535611770E+02  0.32007276253E+03  0.34169873968E+03  0.78085043077E+02 0.  0.
         13    1    3    3    0    0 -0.68283305184E+02 -0.13731238958E+02  0.24820977004E+02  0.73940770821E+02  0.00000000000E+00 0. -1.
        -13    1    3    3    0    0 -0.77345825020E+03  0.33420831737E+02  0.31023512829E+02  0.77480131333E+03  0.00000000000E+00 0.  1.
          2    1    6    6  502    0 -0.57895128889E+02 -0.22408551951E+02  0.16864508019E+03  0.17970852017E+03  0.00000000000E+00 0. -1.
          1    1    5    5  503    0  0.59362491572E+02  0.78528349337E+01  0.10310751732E+02  0.60760875762E+02  0.00000000000E+00 0. -1.
         -2    1    5    5    0  503  0.82761554374E+03  0.50993184058E+02 -0.14796789225E+03  0.84228397242E+03  0.00000000000E+00 0.  1.
         -1    1    6    6    0  502  0.12658648963E+02 -0.56127059819E+02  0.15142768234E+03  0.16199021951E+03  0.00000000000E+00 0.  1.
<mgrwt>
<rscale>  0 0.20798833E+04</rscale>
<asrwt>0</asrwt>
<pdfrwt beam="1">  1        1 0.17936506E+00 0.20798833E+04</pdfrwt>
<pdfrwt beam="2">  1       -1 0.14270966E+00 0.20798833E+04</pdfrwt>
<totfact> 0.41573900E+00</totfact>
</mgrwt>
</event>
<event>
12    1  0.1663913E-007  0.1289263E+04  0.7818608E-02  0.9038123E-01
         -1   -1    0    0    0  501 -0.00000000000E+00  0.00000000000E+00  0.75422324450E+03  0.75422324450E+03  0.00000000000E+00 0.  1.
          1   -1    0    0  501    0  0.00000000000E+00 -0.00000000000E+00 -0.55096426822E+03  0.55096426822E+03  0.00000000000E+00 0. -1.
         23    2    1    2    0    0  0.19764871554E+03 -0.10713243378E+03  0.13293278651E+03  0.27648625946E+03  0.90725700997E+02 0.  0.
        254    2    1    2    0    0 -0.19764871554E+03  0.10713243378E+03  0.70326189775E+02  0.10287012533E+04  0.10013681253E+04 0.  0.
        -24    2    4    4    0    0  0.19647424274E+03 -0.20328283333E+03  0.34350931667E+03  0.45187786937E+03  0.79176510429E+02 0.  0.
         24    2    4    4    0    0 -0.39412295827E+03  0.31041526711E+03 -0.27318312689E+03  0.57682338389E+03  0.80035311479E+02 0.  0.
         13    1    3    3    0    0 -0.27425526534E+01 -0.25424030836E+02  0.90401376793E+01  0.27122445102E+02  0.00000000000E+00 0. -1.
        -13    1    3    3    0    0  0.20039126819E+03 -0.81708402946E+02  0.12389264883E+03  0.24936381436E+03  0.00000000000E+00 0.  1.
          2    1    6    6  502    0 -0.38514296785E+01  0.12337692658E+02  0.31900813192E+01  0.13312730355E+02  0.00000000000E+00 0. -1.
          1    1    5    5  503    0  0.10192239696E+02 -0.38486333835E+02  0.22297525584E+02  0.45631779378E+02  0.00000000000E+00 0. -1.
         -2    1    5    5    0  503  0.18628200304E+03 -0.16479649950E+03  0.32121179109E+03  0.40624608999E+03  0.00000000000E+00 0.  1.
         -1    1    6    6    0  502 -0.39027152860E+03  0.29807757446E+03 -0.27637320821E+03  0.56351065353E+03  0.00000000000E+00 0.  1.
<mgrwt>
<rscale>  0 0.12892634E+04</rscale>
<asrwt>0</asrwt>
<pdfrwt beam="1">  1        1 0.84763733E-01 0.12892634E+04</pdfrwt>
<pdfrwt beam="2">  1       -1 0.11603435E+00 0.12892634E+04</pdfrwt>
<totfact> 0.25571117E+01</totfact>
</mgrwt>
</event>
<event>
12    1  0.1663913E-007  0.1443438E+04  0.7818608E-02  0.8922963E-01
         -2   -1    0    0    0  501 -0.00000000000E+00  0.00000000000E+00  0.37514658811E+03  0.37514658811E+03  0.00000000000E+00 0.  1.
          2   -1    0    0  501    0  0.00000000000E+00 -0.00000000000E+00 -0.13884657340E+04  0.13884657340E+04  0.00000000000E+00 0. -1.
         23    2    1    2    0    0 -0.24612404192E+03  0.50470367453E+02 -0.74281111620E+03  0.78960187257E+03  0.92619980688E+02 0.  0.
        254    2    1    2    0    0  0.24612404192E+03 -0.50470367453E+02 -0.27050802968E+03  0.97401044952E+03  0.90133093792E+03 0.  0.
        -24    2    4    4    0    0 -0.16622651123E+03 -0.17407596310E+02 -0.47162933222E+03  0.50628470751E+03  0.77173185758E+02 0.  0.
         24    2    4    4    0    0  0.41235055315E+03 -0.33062771143E+02  0.20112130255E+03  0.46772574201E+03  0.84802511095E+02 0.  0.
         13    1    3    3    0    0  0.71721384712E+00  0.95330943217E+01 -0.89595901068E+02  0.90104493624E+02  0.00000000000E+00 0.  1.
        -13    1    3    3    0    0 -0.24684125577E+03  0.40937273131E+02 -0.65321521513E+03  0.69949737895E+03  0.00000000000E+00 0. -1.
          4    1    6    6  502    0  0.17576550645E+03 -0.87512966108E+01  0.40045295406E+02  0.18048192190E+03  0.00000000000E+00 0. -1.
          3    1    5    5  503    0 -0.11504355546E+03  0.61291993946E+01 -0.21904308609E+03  0.24749234392E+03  0.00000000000E+00 0. -1.
         -4    1    5    5    0  503 -0.51182955767E+02 -0.23536795705E+02 -0.25258624614E+03  0.25879236359E+03  0.00000000000E+00 0.  1.
         -3    1    6    6    0  502  0.23658504669E+03 -0.24311474532E+02  0.16107600714E+03  0.28724382011E+03  0.00000000000E+00 0.  1.
<mgrwt>
<rscale>  0 0.14434378E+04</rscale>
<asrwt>0</asrwt>
<pdfrwt beam="1">  1        2 0.21361011E+00 0.14434378E+04</pdfrwt>
<pdfrwt beam="2">  1       -2 0.57714860E-01 0.14434378E+04</pdfrwt>
<totfact> 0.40066639E+01</totfact>
</mgrwt>
</event>
<event>
12    1  0.1663913E-007  0.2730964E+04  0.7818608E-02  0.8325028E-01
          1   -1    0    0  501    0  0.00000000000E+00  0.00000000000E+00  0.12529147911E+04  0.12529147911E+04  0.00000000000E+00 0. -1.
         -1   -1    0    0    0  501 -0.00000000000E+00 -0.00000000000E+00 -0.14881625955E+04  0.14881625955E+04  0.00000000000E+00 0.  1.
         23    2    1    2    0    0  0.11361750923E+04  0.43814686177E+03 -0.96532208863E+02  0.12248734496E+04  0.90166442716E+02 0.  0.
        254    2    1    2    0    0 -0.11361750923E+04 -0.43814686177E+03 -0.13871559551E+03  0.15162039370E+04  0.89261741489E+03 0.  0.
        -24    2    4    4    0    0 -0.95760031940E+03 -0.12161091444E+03  0.22673196264E+03  0.99472539426E+03  0.79269419541E+02 0.  0.
         24    2    4    4    0    0 -0.17857477291E+03 -0.31653594732E+03 -0.36544755815E+03  0.52147854277E+03  0.79397716255E+02 0.  0.
         13    1    3    3    0    0  0.48128571835E+03  0.18679916866E+03  0.37211345072E+01  0.51627872215E+03  0.00000000000E+00 0.  1.
        -13    1    3    3    0    0  0.65488937396E+03  0.25134769310E+03 -0.10025334337E+03  0.70859472748E+03  0.00000000000E+00 0. -1.
          2    1    6    6  502    0 -0.39006212466E+02 -0.80850094678E+02 -0.46633911251E+02  0.10115801550E+03  0.00000000000E+00 0. -1.
          3    1    5    5  503    0 -0.14351917079E+03 -0.34551596120E+02  0.10846162069E+02  0.14801758142E+03  0.00000000000E+00 0. -1.
         -4    1    5    5    0  503 -0.81408114861E+03 -0.87059318323E+02  0.21588580058E+03  0.84670781283E+03  0.00000000000E+00 0.  1.
         -1    1    6    6    0  502 -0.13956856045E+03 -0.23568585265E+03 -0.31881364690E+03  0.42032052728E+03  0.00000000000E+00 0.  1.
<mgrwt>
<rscale>  0 0.27309639E+04</rscale>
<asrwt>0</asrwt>
<pdfrwt beam="1">  1        1 0.19275612E+00 0.27309639E+04</pdfrwt>
<pdfrwt beam="2">  1       -1 0.22894809E+00 0.27309639E+04</pdfrwt>
<totfact> 0.81689995E-01</totfact>
</mgrwt>
</event>
<event>
12    1  0.1663913E-007  0.1506203E+04  0.7818608E-02  0.8880339E-01
         -1   -1    0    0    0  501 -0.00000000000E+00  0.00000000000E+00  0.21390934546E+04  0.21390934546E+04  0.00000000000E+00 0.  1.
          1   -1    0    0  501    0  0.00000000000E+00 -0.00000000000E+00 -0.26514118175E+03  0.26514118175E+03  0.00000000000E+00 0. -1.
         23    2    1    2    0    0  0.92892233731E+02  0.22816436773E+03  0.12798025221E+04  0.13064677913E+04  0.90970590918E+02 0.  0.
        254    2    1    2    0    0 -0.92892233731E+02 -0.22816436773E+03  0.59414975071E+03  0.10977668450E+04  0.88960113191E+03 0.  0.
        -24    2    4    4    0    0  0.12828337886E+03  0.28169823994E+03  0.38270598658E+03  0.49804657277E+03  0.75999952623E+02 0.  0.
         24    2    4    4    0    0 -0.22117561260E+03 -0.50986260767E+03  0.21144376413E+03  0.59972027222E+03  0.77957739977E+02 0.  0.
         11    1    3    3    0    0  0.57921316323E+02  0.42441957060E+02  0.28770646797E+03  0.29653197183E+03  0.00000000000E+00 0. -1.
        -11    1    3    3    0    0  0.34970917409E+02  0.18572241067E+03  0.99209605414E+03  0.10099358195E+04  0.00000000000E+00 0.  1.
          4    1    6    6  502    0 -0.20606962323E+03 -0.40623696318E+03  0.18547643742E+03  0.49182788525E+03  0.00000000000E+00 0. -1.
          3    1    5    5  503    0  0.12878300327E+03  0.23655884305E+03  0.29538193405E+03  0.39974446228E+03  0.00000000000E+00 0. -1.
         -4    1    5    5    0  503 -0.49962440740E+00  0.45139396891E+02  0.87324052528E+02  0.98302110487E+02  0.00000000000E+00 0.  1.
         -3    1    6    6    0  502 -0.15105989363E+02 -0.10362564449E+03  0.25967326708E+02  0.10789238697E+03  0.00000000000E+00 0.  1.
<mgrwt>
<rscale>  0 0.15062029E+04</rscale>
<asrwt>0</asrwt>
<pdfrwt beam="1">  1        1 0.40790952E-01 0.15062029E+04</pdfrwt>
<pdfrwt beam="2">  1       -1 0.32909129E+00 0.15062029E+04</pdfrwt>
<totfact> 0.21340400E+00</totfact>
</mgrwt>
</event>
<event>
12    1  0.1663913E-007  0.2254661E+04  0.7818608E-02  0.8496015E-01
         -2   -1    0    0    0  501 -0.00000000000E+00  0.00000000000E+00  0.33246604401E+03  0.33246604401E+03  0.00000000000E+00 0.  1.
          2   -1    0    0  501    0  0.00000000000E+00 -0.00000000000E+00 -0.38225689186E+04  0.38225689186E+04  0.00000000000E+00 0. -1.
         23    2    1    2    0    0  0.24262811649E+03 -0.59912615995E+03 -0.27475054337E+04  0.28238839808E+04  0.87829779570E+02 0.  0.
        254    2    1    2    0    0 -0.24262811649E+03  0.59912615995E+03 -0.74259744080E+03  0.13311509818E+04  0.89593047648E+03 0.  0.
        -24    2    4    4    0    0  0.22639334440E+03  0.26781070414E+03  0.34176048728E+02  0.36222248657E+03  0.84027423075E+02 0.  0.
         24    2    4    4    0    0 -0.46902146089E+03  0.33131545581E+03 -0.77677348953E+03  0.96892849519E+03  0.75460670004E+02 0.  0.
         11    1    3    3    0    0  0.91775786388E+02 -0.29984817697E+03 -0.14767138824E+04  0.15096408893E+04  0.00000000000E+00 0. -1.
        -11    1    3    3    0    0  0.15085233010E+03 -0.29927798298E+03 -0.12707915513E+04  0.13142430915E+04  0.00000000000E+00 0.  1.
          2    1    6    6  502    0 -0.38386567483E+03  0.25309355974E+03 -0.57338614364E+03  0.73496998307E+03  0.00000000000E+00 0. -1.
          3    1    5    5  503    0  0.21348678144E+02 -0.15691478870E+01 -0.31301802084E+01  0.21633915775E+02  0.00000000000E+00 0. -1.
         -4    1    5    5    0  503  0.20504466625E+03  0.26937985203E+03  0.37306228936E+02  0.34058857079E+03  0.00000000000E+00 0.  1.
         -1    1    6    6    0  502 -0.85155786053E+02  0.78221896066E+02 -0.20338734589E+03  0.23395851212E+03  0.00000000000E+00 0.  1.
<mgrwt>
<rscale>  0 0.22546613E+04</rscale>
<asrwt>0</asrwt>
<pdfrwt beam="1">  1        2 0.58808756E+00 0.22546613E+04</pdfrwt>
<pdfrwt beam="2">  1       -2 0.51148619E-01 0.22546613E+04</pdfrwt>
<totfact> 0.15594050E+00</totfact>
</mgrwt>
</event>
<event>
12    1  0.1663913E-007  0.3715767E+04  0.7818608E-02  0.8064477E-01
          2   -1    0    0  501    0  0.00000000000E+00  0.00000000000E+00  0.30071972052E+04  0.30071972052E+04  0.00000000000E+00 0. -1.
         -2   -1    0    0    0  501 -0.00000000000E+00 -0.00000000000E+00 -0.11478233823E+04  0.11478233823E+04  0.00000000000E+00 0.  1.
         23    2    1    2    0    0 -0.11574849710E+04  0.12470803211E+04  0.13271852280E+04  0.21597377014E+04  0.89808261362E+02 0.  0.
        254    2    1    2    0    0  0.11574849710E+04 -0.12470803211E+04  0.53218859484E+03  0.19952828861E+04  0.89607383046E+03 0.  0.
        -24    2    4    4    0    0  0.81496003763E+03 -0.28971450162E+03  0.43315248760E+03  0.97054644634E+03  0.79025132682E+02 0.  0.
         24    2    4    4    0    0  0.34252493340E+03 -0.95736581946E+03  0.99036107237E+02  0.10247364397E+04  0.80024859489E+02 0.  0.
         13    1    3    3    0    0 -0.60233164093E+03  0.61087109478E+03  0.71533998744E+03  0.11169951646E+04  0.00000000000E+00 0. -1.
        -13    1    3    3    0    0 -0.55515333010E+03  0.63620922630E+03  0.61184524059E+03  0.10427425368E+04  0.00000000000E+00 0.  1.
          2    1    6    6  502    0  0.56185071820E+02 -0.23463828335E+03  0.45389571607E+02  0.24550376681E+03  0.00000000000E+00 0. -1.
          3    1    5    5  503    0  0.49918982273E+03 -0.21781513790E+03  0.27576211221E+03  0.61047412390E+03  0.00000000000E+00 0. -1.
         -4    1    5    5    0  503  0.31577021490E+03 -0.71899363722E+02  0.15739037539E+03  0.36007232244E+03  0.00000000000E+00 0.  1.
         -1    1    6    6    0  502  0.28633986158E+03 -0.72272753612E+03  0.53646535630E+02  0.77923267294E+03  0.00000000000E+00 0.  1.
<mgrwt>
<rscale>  0 0.37157671E+04</rscale>
<asrwt>0</asrwt>
<pdfrwt beam="1">  1        2 0.46264572E+00 0.37157671E+04</pdfrwt>
<pdfrwt beam="2">  1       -2 0.17658821E+00 0.37157671E+04</pdfrwt>
<totfact> 0.26624120E-01</totfact>
</mgrwt>
</event>
<event>
12    1  0.1663913E-007  0.1345704E+04  0.7818608E-02  0.8994086E-01
          1   -1    0    0  501    0  0.00000000000E+00  0.00000000000E+00  0.46752054714E+03  0.46752054714E+03  0.00000000000E+00 0. -1.
         -1   -1    0    0    0  501 -0.00000000000E+00 -0.00000000000E+00 -0.96836354349E+03  0.96836354349E+03  0.00000000000E+00 0.  1.
         23    2    1    2    0    0  0.14084959162E+03  0.16476711496E+03  0.17483688932E+03  0.29259804728E+03  0.89771207952E+02 0.  0.
        254    2    1    2    0    0 -0.14084959162E+03 -0.16476711496E+03 -0.67567988566E+03  0.11432860433E+04  0.89642225507E+03 0.  0.
        -24    2    4    4    0    0 -0.26735273331E+03 -0.18863345763E+03  0.10126618548E+03  0.35165371500E+03  0.79658204878E+02 0.  0.
         24    2    4    4    0    0  0.12650314169E+03  0.23866342667E+02 -0.77694607114E+03  0.79163232834E+03  0.80398374641E+02 0.  0.
         11    1    3    3    0    0  0.10097886720E+01  0.19690013730E+02 -0.72567477226E+01  0.21008967166E+02  0.00000000000E+00 0.  1.
        -11    1    3    3    0    0  0.13983980295E+03  0.14507710123E+03  0.18209363704E+03  0.27158908012E+03  0.00000000000E+00 0. -1.
          4    1    6    6  502    0  0.73121329716E+02  0.46204470323E-01 -0.61739709253E+03  0.62171207231E+03  0.00000000000E+00 0. -1.
          3    1    5    5  503    0 -0.87626631215E+02 -0.57787810119E+02  0.72316884465E+02  0.12746603185E+03  0.00000000000E+00 0. -1.
         -4    1    5    5    0  503 -0.17972610210E+03 -0.13084564751E+03  0.28949301016E+02  0.22418768315E+03  0.00000000000E+00 0.  1.
         -3    1    6    6    0  502  0.53381811976E+02  0.23820138196E+02 -0.15954897861E+03  0.16992025603E+03  0.00000000000E+00 0.  1.
<mgrwt>
<rscale>  0 0.13457041E+04</rscale>
<asrwt>0</asrwt>
<pdfrwt beam="1">  1        1 0.71926238E-01 0.13457041E+04</pdfrwt>
<pdfrwt beam="2">  1       -1 0.14897901E+00 0.13457041E+04</pdfrwt>
<totfact> 0.16916147E+01</totfact>
</mgrwt>
</event>
<event>
12    1  0.1663913E-007  0.1439634E+04  0.7818608E-02  0.8925619E-01
          3   -1    0    0  501    0  0.00000000000E+00  0.00000000000E+00  0.24819844631E+04  0.24819844631E+04  0.00000000000E+00 0. -1.
         -3   -1    0    0    0  501 -0.00000000000E+00 -0.00000000000E+00 -0.20875889633E+03  0.20875889633E+03  0.00000000000E+00 0.  1.
         23    2    1    2    0    0 -0.16064209022E+02 -0.40756592256E+03  0.42998425303E+03  0.60026114539E+03  0.95178489043E+02 0.  0.
        254    2    1    2    0    0  0.16064209022E+02  0.40756592256E+03  0.18432413137E+04  0.20904822140E+04  0.89789158947E+03 0.  0.
        -24    2    4    4    0    0  0.28897219699E+03  0.57970597440E+03  0.11847331233E+04  0.13529477887E+04  0.85505544421E+02 0.  0.
         24    2    4    4    0    0 -0.27290798796E+03 -0.17214005184E+03  0.65850819048E+03  0.73753442536E+03  0.78822739885E+02 0.  0.
         13    1    3    3    0    0  0.35465248176E+02 -0.12326274717E+03  0.15735629094E+03  0.20300859825E+03  0.00000000000E+00 0. -1.
        -13    1    3    3    0    0 -0.51529457199E+02 -0.28430317539E+03  0.27262796209E+03  0.39725254714E+03  0.00000000000E+00 0.  1.
          4    1    6    6  502    0 -0.22855455146E+03 -0.16486807330E+03  0.51385384188E+03  0.58605838907E+03  0.00000000000E+00 0. -1.
          3    1    5    5  503    0  0.28471384203E+03  0.51472839796E+03  0.10637923685E+04  0.12155910080E+04  0.00000000000E+00 0. -1.
         -4    1    5    5    0  503  0.42583549554E+01  0.64977576440E+02  0.12094075479E+03  0.13735678067E+03  0.00000000000E+00 0.  1.
         -3    1    6    6    0  502 -0.44353436505E+02 -0.72719785411E+01  0.14465434859E+03  0.15147603628E+03  0.00000000000E+00 0.  1.
<mgrwt>
<rscale>  0 0.14396338E+04</rscale>
<asrwt>0</asrwt>
<pdfrwt beam="1">  1        3 0.38184374E+00 0.14396338E+04</pdfrwt>
<pdfrwt beam="2">  1       -3 0.32116755E-01 0.14396338E+04</pdfrwt>
<totfact> 0.34033508E-01</totfact>
</mgrwt>
</event>
<event>
12    1  0.1663913E-007  0.1955469E+04  0.7818608E-02  0.8627728E-01
          2   -1    0    0  501    0  0.00000000000E+00  0.00000000000E+00  0.25359117364E+04  0.25359117364E+04  0.00000000000E+00 0.  1.
         -2   -1    0    0    0  501 -0.00000000000E+00 -0.00000000000E+00 -0.37697078557E+03  0.37697078557E+03  0.00000000000E+00 0. -1.
         23    2    1    2    0    0  0.34918528083E+03  0.66484224044E+03  0.11564656221E+04  0.13820698526E+04  0.93588340068E+02 0.  0.
        254    2    1    2    0    0 -0.34918528083E+03 -0.66484224044E+03  0.10024753288E+04  0.15308126694E+04  0.88004833897E+03 0.  0.
        -24    2    4    4    0    0 -0.50730245325E+03 -0.17338087275E+03  0.80983338961E+03  0.97424193926E+03  0.76814915000E+02 0.  0.
         24    2    4    4    0    0  0.15811717242E+03 -0.49146136769E+03  0.19264193914E+03  0.55657073011E+03  0.78260748503E+02 0.  0.
         11    1    3    3    0    0  0.14112751557E+03  0.30113259535E+03  0.43232246933E+03  0.54543609444E+03  0.00000000000E+00 0. -1.
        -11    1    3    3    0    0  0.20805776527E+03  0.36370964509E+03  0.72414315276E+03  0.83663375817E+03  0.00000000000E+00 0.  1.
          4    1    6    6  502    0  0.19419093963E+02 -0.16006930540E+03  0.80550028365E+02  0.18024314359E+03  0.00000000000E+00 0. -1.
          1    1    5    5  503    0 -0.60608153477E+02  0.44647475172E+01  0.88305518465E+02  0.10719676688E+03  0.00000000000E+00 0. -1.
         -2    1    5    5    0  503 -0.44669429978E+03 -0.17784562027E+03  0.72152787115E+03  0.86704517238E+03  0.00000000000E+00 0.  1.
         -3    1    6    6    0  502  0.13869807846E+03 -0.33139206229E+03  0.11209191078E+03  0.37632758652E+03  0.00000000000E+00 0.  1.
<mgrwt>
<rscale>  0 0.19554689E+04</rscale>
<asrwt>0</asrwt>
<pdfrwt beam="1">  1        2 0.39014026E+00 0.19554689E+04</pdfrwt>
<pdfrwt beam="2">  1       -2 0.57995507E-01 0.19554689E+04</pdfrwt>
<totfact> 0.86139903E+00</totfact>
</mgrwt>
</event>
<event>
12    1  0.1974736E-007  0.1766256E+04  0.7818608E-02  0.8724453E-01
          2   -1    0    0  501    0  0.00000000000E+00  0.00000000000E+00  0.17872226773E+04  0.17872226773E+04  0.00000000000E+00 0. -1.
         -2   -1    0    0    0  501 -0.00000000000E+00 -0.00000000000E+00 -0.43638384218E+03  0.43638384218E+03  0.00000000000E+00 0.  1.
         23    2    1    2    0    0  0.17735830114E+03  0.55367365119E+03  0.13149524516E+03  0.60382939525E+03  0.96480361049E+02 0.  0.
        254    2    1    2    0    0 -0.17735830114E+03 -0.55367365119E+03  0.12193435900E+04  0.16197771242E+04  0.89379453052E+03 0.  0.
        -24    2    4    4    0    0  0.31597406010E+03 -0.42100469328E+02  0.54852948751E+03  0.63956645293E+03  0.80923376557E+02 0.  0.
         24    2    4    4    0    0 -0.49333236124E+03 -0.51157318186E+03  0.67081410245E+03  0.98021067130E+03  0.75746029845E+02 0.  0.
         13    1    3    3    0    0  0.54279673047E+01  0.69512026549E+02 -0.11157117135E+02  0.70610664398E+02  0.00000000000E+00 0.  1.
        -13    1    3    3    0    0  0.17193033383E+03  0.48416162464E+03  0.14265236229E+03  0.53321873086E+03  0.00000000000E+00 0. -1.
          2    1    6    6  502    0 -0.46482022257E+02 -0.84026116792E+02  0.99154938941E+02  0.13803140444E+03  0.00000000000E+00 0. -1.
          3    1    5    5  503    0  0.36787427513E+01 -0.14333209429E+02  0.33312041550E+02  0.36450873144E+02  0.00000000000E+00 0. -1.
         -4    1    5    5    0  503  0.31229531735E+03 -0.27767259899E+02  0.51521744596E+03  0.60311557979E+03  0.00000000000E+00 0.  1.
         -1    1    6    6    0  502 -0.44685033898E+03 -0.42754706507E+03  0.57165916351E+03  0.84217926686E+03  0.00000000000E+00 0.  1.
<mgrwt>
<rscale>  0 0.17662560E+04</rscale>
<asrwt>0</asrwt>
<pdfrwt beam="1">  1        2 0.27495733E+00 0.17662560E+04</pdfrwt>
<pdfrwt beam="2">  1       -2 0.67135977E-01 0.17662560E+04</pdfrwt>
<totfact> 0.16901404E+01</totfact>
</mgrwt>
</event>
<event>
12    1  0.1663913E-007  0.1862097E+04  0.7818608E-02  0.8673957E-01
          1   -1    0    0  501    0  0.00000000000E+00  0.00000000000E+00  0.28664328920E+04  0.28664328920E+04  0.00000000000E+00 0. -1.
         -1   -1    0    0    0  501 -0.00000000000E+00 -0.00000000000E+00 -0.30241468954E+03  0.30241468954E+03  0.00000000000E+00 0.  1.
         23    2    1    2    0    0  0.36978356662E+02  0.56671912460E+03  0.26079237629E+03  0.63225655151E+03  0.95904735828E+02 0.  0.
        254    2    1    2    0    0 -0.36978356662E+02 -0.56671912460E+03  0.23032258261E+04  0.25365910300E+04  0.89827995761E+03 0.  0.
        -24    2    4    4    0    0 -0.33425165986E+03  0.73577821521E+02  0.74439792512E+03  0.82344089510E+03  0.82393985575E+02 0.  0.
         24    2    4    4    0    0  0.29727330320E+03 -0.64029694612E+03  0.15588279010E+04  0.17131501349E+04  0.81162575860E+02 0.  0.
         11    1    3    3    0    0  0.19508719265E+01  0.43591354195E+03  0.16374438691E+03  0.46565721964E+03  0.00000000000E+00 0.  1.
        -11    1    3    3    0    0  0.35027484735E+02  0.13080558265E+03  0.97047989376E+02  0.16659933187E+03  0.00000000000E+00 0. -1.
          4    1    6    6  502    0  0.27166101048E+01 -0.45230576470E+02  0.12754374773E+03  0.13535358363E+03  0.00000000000E+00 0. -1.
          3    1    5    5  503    0 -0.19918273774E+03  0.35521786103E+02  0.52893087228E+03  0.56630683199E+03  0.00000000000E+00 0. -1.
         -4    1    5    5    0  503 -0.13506892211E+03  0.38056035417E+02  0.21546705284E+03  0.25713406311E+03  0.00000000000E+00 0.  1.
         -3    1    6    6    0  502  0.29455669309E+03 -0.59506636965E+03  0.14312841533E+04  0.15777965513E+04  0.00000000000E+00 0.  1.
<mgrwt>
<rscale>  0 0.18620971E+04</rscale>
<asrwt>0</asrwt>
<pdfrwt beam="1">  1        1 0.44098966E+00 0.18620971E+04</pdfrwt>
<pdfrwt beam="2">  1       -1 0.46525339E-01 0.18620971E+04</pdfrwt>
<totfact> 0.32321488E+00</totfact>
</mgrwt>
</event>
<event>
12    1  0.1663913E-007  0.3245055E+04  0.7818608E-02  0.8177019E-01
          1   -1    0    0  501    0  0.00000000000E+00  0.00000000000E+00  0.22724630602E+04  0.22724630602E+04  0.00000000000E+00 0. -1.
         -1   -1    0    0    0  501 -0.00000000000E+00 -0.00000000000E+00 -0.11584765805E+04  0.11584765805E+04  0.00000000000E+00 0.  1.
         23    2    1    2    0    0  0.14672848100E+04  0.21805489409E+03  0.30672106811E+03  0.15173813739E+04  0.88858144834E+02 0.  0.
        254    2    1    2    0    0 -0.14672848100E+04 -0.21805489409E+03  0.80726541160E+03  0.19135582667E+04  0.89975282437E+03 0.  0.
        -24    2    4    4    0    0 -0.67918530276E+03  0.33557012928E+03  0.27304342982E+03  0.80922405474E+03  0.79942911139E+02 0.  0.
         24    2    4    4    0    0 -0.78809950720E+03 -0.55362502337E+03  0.53422198178E+03  0.11043342120E+04  0.80990284514E+02 0.  0.
         11    1    3    3    0    0  0.14338920920E+04  0.19906876482E+03  0.29858312023E+03  0.14781159577E+04  0.00000000000E+00 0.  1.
        -11    1    3    3    0    0  0.33392717963E+02  0.18986129266E+02  0.81379478740E+01  0.39265416247E+02  0.00000000000E+00 0. -1.
          2    1    6    6  502    0 -0.54515452910E+03 -0.41853629439E+03  0.40555587504E+03  0.79802359495E+03  0.00000000000E+00 0. -1.
          3    1    5    5  503    0 -0.64673075624E+03  0.30568035441E+03  0.27135086798E+03  0.76507022141E+03  0.00000000000E+00 0. -1.
         -4    1    5    5    0  503 -0.32454546526E+02  0.29889774869E+02  0.16925618464E+01  0.44153833328E+02  0.00000000000E+00 0.  1.
         -1    1    6    6    0  502 -0.24294497810E+03 -0.13508872898E+03  0.12866610673E+03  0.30631061703E+03  0.00000000000E+00 0.  1.
<mgrwt>
<rscale>  0 0.32450548E+04</rscale>
<asrwt>0</asrwt>
<pdfrwt beam="1">  1        1 0.34960970E+00 0.32450548E+04</pdfrwt>
<pdfrwt beam="2">  1       -1 0.17822717E+00 0.32450548E+04</pdfrwt>
<totfact> 0.34717694E-01</totfact>
</mgrwt>
</event>
<event>
12    1  0.1663913E-007  0.1383474E+04  0.7818608E-02  0.8965868E-01
         -1   -1    0    0    0  501 -0.00000000000E+00  0.00000000000E+00  0.29536367586E+03  0.29536367586E+03  0.00000000000E+00 0.  1.
          1   -1    0    0  501    0  0.00000000000E+00 -0.00000000000E+00 -0.16200371883E+04  0.16200371883E+04  0.00000000000E+00 0. -1.
         23    2    1    2    0    0  0.26297858340E+03  0.21832660022E+03 -0.11234815088E+03  0.37130501935E+03  0.91766391968E+02 0.  0.
        254    2    1    2    0    0 -0.26297858340E+03 -0.21832660022E+03 -0.12123253616E+04  0.15440958448E+04  0.89312650616E+03 0.  0.
        -24    2    4    4    0    0 -0.34969904625E+03  0.84045939950E+02 -0.11577333890E+04  0.12149603460E+04  0.80180416744E+02 0.  0.
         24    2    4    4    0    0  0.86720462854E+02 -0.30237254017E+03 -0.54591972549E+02  0.32913549886E+03  0.80001883838E+02 0.  0.
         11    1    3    3    0    0  0.49900719218E+02  0.48851030343E+02 -0.64128927691E+02  0.94810465196E+02  0.00000000000E+00 0. -1.
        -11    1    3    3    0    0  0.21307786418E+03  0.16947556988E+03 -0.48219223191E+02  0.27649455415E+03  0.00000000000E+00 0.  1.
          2    1    6    6  502    0  0.53364270970E+02 -0.20196886538E+03  0.24997919918E+01  0.20891485576E+03  0.00000000000E+00 0. -1.
          3    1    5    5  503    0 -0.24249633282E+03  0.75111925011E+02 -0.91281553207E+03  0.94745895336E+03  0.00000000000E+00 0. -1.
         -4    1    5    5    0  503 -0.10720271344E+03  0.89340149392E+01 -0.24491785695E+03  0.26750139260E+03  0.00000000000E+00 0.  1.
         -1    1    6    6    0  502  0.33356191884E+02 -0.10040367479E+03 -0.57091764541E+02  0.12022064310E+03  0.00000000000E+00 0.  1.
<mgrwt>
<rscale>  0 0.13834741E+04</rscale>
<asrwt>0</asrwt>
<pdfrwt beam="1">  1        1 0.24923650E+00 0.13834741E+04</pdfrwt>
<pdfrwt beam="2">  1       -1 0.45440564E-01 0.13834741E+04</pdfrwt>
<totfact> 0.25382179E+01</totfact>
</mgrwt>
</event>
<event>
12    1  0.1663913E-007  0.1729967E+04  0.7818608E-02  0.8744455E-01
          1   -1    0    0  501    0  0.00000000000E+00  0.00000000000E+00  0.14688431983E+04  0.14688431983E+04  0.00000000000E+00 0. -1.
         -1   -1    0    0    0  501 -0.00000000000E+00 -0.00000000000E+00 -0.50937814182E+03  0.50937814182E+03  0.00000000000E+00 0.  1.
         23    2    1    2    0    0  0.38040944890E+03  0.40349271229E+03  0.74492112950E+01  0.56201477773E+03  0.91035168797E+02 0.  0.
        254    2    1    2    0    0 -0.38040944890E+03 -0.40349271229E+03  0.95201584521E+03  0.14162065624E+04  0.88982534254E+03 0.  0.
        -24    2    4    4    0    0 -0.17498543705E+03 -0.37554175854E+02 -0.14160997421E+03  0.24211333185E+03  0.80840963376E+02 0.  0.
         24    2    4    4    0    0 -0.20542401185E+03 -0.36593853644E+03  0.10936258194E+04  0.11740932306E+04  0.79796265907E+02 0.  0.
         11    1    3    3    0    0  0.66884287195E+02  0.27652019134E+02 -0.33552106718E+01  0.72452739593E+02  0.00000000000E+00 0. -1.
        -11    1    3    3    0    0  0.31352516170E+03  0.37584069316E+03  0.10804421967E+02  0.48956203814E+03  0.00000000000E+00 0.  1.
          2    1    6    6  502    0 -0.69141020876E+02 -0.13174388833E+03  0.28869530101E+03  0.32477978648E+03  0.00000000000E+00 0. -1.
          1    1    5    5  503    0 -0.92866190360E+02  0.21355685165E+02 -0.70724424959E+02  0.11866818818E+03  0.00000000000E+00 0. -1.
         -2    1    5    5    0  503 -0.82119246691E+02 -0.58909861018E+02 -0.70885549256E+02  0.12344514367E+03  0.00000000000E+00 0.  1.
         -1    1    6    6    0  502 -0.13628299097E+03 -0.23419464811E+03  0.80493051841E+03  0.84931344409E+03  0.00000000000E+00 0.  1.
<mgrwt>
<rscale>  0 0.17299672E+04</rscale>
<asrwt>0</asrwt>
<pdfrwt beam="1">  1        1 0.22597587E+00 0.17299672E+04</pdfrwt>
<pdfrwt beam="2">  1       -1 0.78365869E-01 0.17299672E+04</pdfrwt>
<totfact> 0.10638038E+01</totfact>
</mgrwt>
</event>
<event>
12    1  0.1663913E-007  0.3266871E+04  0.7818608E-02  0.8171377E-01
         -1   -1    0    0    0  501 -0.00000000000E+00  0.00000000000E+00  0.16412415442E+04  0.16412415442E+04  0.00000000000E+00 0.  1.
          1   -1    0    0  501    0  0.00000000000E+00 -0.00000000000E+00 -0.16256666323E+04  0.16256666323E+04  0.00000000000E+00 0. -1.
         23    2    1    2    0    0 -0.11374010333E+04 -0.85293363167E+03  0.50554811527E+03  0.15118498711E+04  0.94521136907E+02 0.  0.
        254    2    1    2    0    0  0.11374010333E+04  0.85293363167E+03 -0.48997320340E+03  0.17550583054E+04  0.90497459904E+03 0.  0.
        -24    2    4    4    0    0  0.55361743410E+03  0.80538451023E+02  0.15864329637E+03  0.58690971105E+03  0.79477091095E+02 0.  0.
         24    2    4    4    0    0  0.58378359915E+03  0.77239518065E+03 -0.64861649977E+03  0.11681485944E+04  0.80437360906E+02 0.  0.
         13    1    3    3    0    0 -0.48998036366E+03 -0.37163070822E+03  0.16926672407E+03  0.63784117454E+03  0.00000000000E+00 0. -1.
        -13    1    3    3    0    0 -0.64742066959E+03 -0.48130292345E+03  0.33628139120E+03  0.87400869653E+03  0.00000000000E+00 0.  1.
          2    1    6    6  502    0  0.10894891206E+03  0.12410865932E+03 -0.78391550869E+02  0.18280607212E+03  0.00000000000E+00 0. -1.
          3    1    5    5  503    0  0.45121340859E+02 -0.13668254749E+02  0.21918573685E+02  0.51992119222E+02  0.00000000000E+00 0. -1.
         -4    1    5    5    0  503  0.50849609325E+03  0.94206705772E+02  0.13672472269E+03  0.53491759183E+03  0.00000000000E+00 0.  1.
         -1    1    6    6    0  502  0.47483468709E+03  0.64828652133E+03 -0.57022494890E+03  0.98534252225E+03  0.00000000000E+00 0.  1.
<mgrwt>
<rscale>  0 0.32668710E+04</rscale>
<asrwt>0</asrwt>
<pdfrwt beam="1">  1        1 0.25010256E+00 0.32668710E+04</pdfrwt>
<pdfrwt beam="2">  1       -1 0.25249870E+00 0.32668710E+04</pdfrwt>
<totfact> 0.29932290E-01</totfact>
</mgrwt>
</event>
<event>
12    1  0.1663913E-007  0.1281067E+04  0.7818608E-02  0.9044716E-01
         -2   -1    0    0    0  501 -0.00000000000E+00  0.00000000000E+00  0.91475957228E+03  0.91475957228E+03  0.00000000000E+00 0.  1.
          2   -1    0    0  501    0  0.00000000000E+00 -0.00000000000E+00 -0.44851465854E+03  0.44851465854E+03  0.00000000000E+00 0. -1.
         23    2    1    2    0    0  0.14315767961E+03 -0.14199095712E+03  0.18534753723E+03  0.28819248826E+03  0.89697533952E+02 0.  0.
        254    2    1    2    0    0 -0.14315767961E+03  0.14199095712E+03  0.28089737650E+03  0.10750817426E+04  0.10179596573E+04 0.  0.
        -24    2    4    4    0    0 -0.38818265676E+03  0.61541358091E+02 -0.25463702390E+03  0.47518149565E+03  0.80525313455E+02 0.  0.
         24    2    4    4    0    0  0.24502497715E+03  0.80449599024E+02  0.53553440040E+03  0.59990024690E+03  0.81079188537E+02 0.  0.
         13    1    3    3    0    0 -0.83465512305E+01 -0.12428907035E+01 -0.25173660540E+01  0.88060676011E+01  0.00000000000E+00 0.  1.
        -13    1    3    3    0    0  0.15150423084E+03 -0.14074806641E+03  0.18786490329E+03  0.27938642066E+03  0.00000000000E+00 0. -1.
          2    1    6    6  502    0  0.23137794405E+03  0.83736871046E+02  0.44692476726E+03  0.51018561736E+03  0.00000000000E+00 0. -1.
          1    1    5    5  503    0 -0.37475675343E+03  0.63820281442E+02 -0.25998434573E+03  0.46055131374E+03  0.00000000000E+00 0. -1.
         -2    1    5    5    0  503 -0.13425903330E+02 -0.22789233510E+01  0.53473218367E+01  0.14630181909E+02  0.00000000000E+00 0.  1.
         -1    1    6    6    0  502  0.13647033095E+02 -0.32872720216E+01  0.88609633141E+02  0.89714629548E+02  0.00000000000E+00 0.  1.
<mgrwt>
<rscale>  0 0.12810669E+04</rscale>
<asrwt>0</asrwt>
<pdfrwt beam="1">  1        2 0.69002255E-01 0.12810669E+04</pdfrwt>
<pdfrwt beam="2">  1       -2 0.14073224E+00 0.12810669E+04</pdfrwt>
<totfact> 0.24256516E+01</totfact>
</mgrwt>
</event>
<event>
12    1  0.1663913E-007  0.2556883E+04  0.7818608E-02  0.8382996E-01
          2   -1    0    0  501    0  0.00000000000E+00  0.00000000000E+00  0.16304228409E+04  0.16304228409E+04  0.00000000000E+00 0. -1.
         -2   -1    0    0    0  501 -0.00000000000E+00 -0.00000000000E+00 -0.10024469457E+04  0.10024469457E+04  0.00000000000E+00 0.  1.
         23    2    1    2    0    0  0.70286744350E+03  0.86010824776E+03  0.16747587899E+03  0.11269760279E+04  0.90652944662E+02 0.  0.
        254    2    1    2    0    0 -0.70286744350E+03 -0.86010824776E+03  0.46050001623E+03  0.15058937587E+04  0.90655772384E+03 0.  0.
        -24    2    4    4    0    0 -0.48069092966E+03 -0.44987684404E+02 -0.85159273532E+02  0.49688681297E+03  0.80973708269E+02 0.  0.
         24    2    4    4    0    0 -0.22217651384E+03 -0.81512056336E+03  0.54565928976E+03  0.10090069458E+04  0.81037151912E+02 0.  0.
         11    1    3    3    0    0  0.65080386823E+03  0.76145968643E+03  0.16651246296E+03  0.10154274614E+04  0.00000000000E+00 0. -1.
        -11    1    3    3    0    0  0.52063575266E+02  0.98648561327E+02  0.96341602968E+00  0.11154856652E+03  0.00000000000E+00 0.  1.
          2    1    6    6  502    0 -0.16889670532E+03 -0.47456883431E+03  0.31048064125E+03  0.59172620709E+03  0.00000000000E+00 0. -1.
          1    1    5    5  503    0 -0.16215517458E+02  0.11344105401E+02 -0.12481127053E+02  0.23396800343E+02  0.00000000000E+00 0. -1.
         -2    1    5    5    0  503 -0.46447541220E+03 -0.56331789805E+02 -0.72678146479E+02  0.47349001263E+03  0.00000000000E+00 0.  1.
         -1    1    6    6    0  502 -0.53279808515E+02 -0.34055172905E+03  0.23517864851E+03  0.41728073867E+03  0.00000000000E+00 0.  1.
<mgrwt>
<rscale>  0 0.25568828E+04</rscale>
<asrwt>0</asrwt>
<pdfrwt beam="1">  1        2 0.25083428E+00 0.25568828E+04</pdfrwt>
<pdfrwt beam="2">  1       -2 0.15422261E+00 0.25568828E+04</pdfrwt>
<totfact> 0.26491686E+00</totfact>
</mgrwt>
</event>
<event>
12    1  0.1663913E-007  0.1701543E+04  0.7818608E-02  0.8760485E-01
          2   -1    0    0  501    0  0.00000000000E+00  0.00000000000E+00  0.13272132231E+04  0.13272132231E+04  0.00000000000E+00 0. -1.
         -2   -1    0    0    0  501 -0.00000000000E+00 -0.00000000000E+00 -0.54536250362E+03  0.54536250362E+03  0.00000000000E+00 0.  1.
         23    2    1    2    0    0 -0.36130335150E+03  0.47985309458E+03  0.20929045637E+03  0.64748277428E+03  0.12096422480E+03 0.  0.
        254    2    1    2    0    0  0.36130335150E+03 -0.47985309458E+03  0.57256026311E+03  0.12250929524E+04  0.90123714028E+03 0.  0.
        -24    2    4    4    0    0  0.12615380282E+03  0.17598413982E+02  0.64705702733E+03  0.66422003047E+03  0.79252546438E+02 0.  0.
         24    2    4    4    0    0  0.23514954868E+03 -0.49745150856E+03 -0.74496764216E+02  0.56087292197E+03  0.79217126315E+02 0.  0.
         11    1    3    3    0    0 -0.11062788538E+03  0.12926185401E+03  0.42169661472E+01  0.17019088909E+03  0.00000000000E+00 0.  1.
        -11    1    3    3    0    0 -0.25067546612E+03  0.35059124057E+03  0.20507349022E+03  0.47729188519E+03  0.00000000000E+00 0. -1.
          2    1    6    6  502    0  0.14817435104E+03 -0.38147324521E+03 -0.74157425153E+02  0.41590479538E+03  0.00000000000E+00 0. -1.
          1    1    5    5  503    0  0.12021808309E+03 -0.92728294828E+01  0.56322515639E+03  0.57598693532E+03  0.00000000000E+00 0. -1.
         -2    1    5    5    0  503  0.59357197270E+01  0.26871243465E+02  0.83831870943E+02  0.88233095151E+02  0.00000000000E+00 0.  1.
         -1    1    6    6    0  502  0.86975197636E+02 -0.11597826336E+03 -0.33933906243E+00  0.14496812659E+03  0.00000000000E+00 0.  1.
<mgrwt>
<rscale>  0 0.17015432E+04</rscale>
<asrwt>0</asrwt>
<pdfrwt beam="1">  1        2 0.20418665E+00 0.17015432E+04</pdfrwt>
<pdfrwt beam="2">  1       -2 0.83901924E-01 0.17015432E+04</pdfrwt>
<totfact> 0.18822986E+01</totfact>
</mgrwt>
</event>
<event>
12    1  0.1663913E-007  0.3496314E+04  0.7818608E-02  0.8114664E-01
         -2   -1    0    0    0  501 -0.00000000000E+00  0.00000000000E+00  0.93998180786E+03  0.93998180786E+03  0.00000000000E+00 0.  1.
          2   -1    0    0  501    0  0.00000000000E+00 -0.00000000000E+00 -0.32511827091E+04  0.32511827091E+04  0.00000000000E+00 0. -1.
         23    2    1    2    0    0 -0.15629758816E+03  0.53952263844E+03 -0.29183291807E+04  0.29732734383E+04  0.90532414145E+02 0.  0.
        254    2    1    2    0    0  0.15629758816E+03 -0.53952263844E+03  0.60712827953E+03  0.12178910787E+04  0.89394648512E+03 0.  0.
        -24    2    4    4    0    0  0.18529970709E+03  0.17573348744E+03  0.37569993857E+03  0.46149947166E+03  0.81320836448E+02 0.  0.
         24    2    4    4    0    0 -0.29002118932E+02 -0.71525612588E+03  0.23142834096E+03  0.75639160702E+03  0.78337332476E+02 0.  0.
         11    1    3    3    0    0 -0.36649980023E+02  0.12956508760E+03 -0.51591125845E+03  0.53319298529E+03  0.00000000000E+00 0.  1.
        -11    1    3    3    0    0 -0.11964760814E+03  0.40995755084E+03 -0.24024179223E+04  0.24400804530E+04  0.00000000000E+00 0. -1.
          4    1    6    6  502    0  0.18880189307E+02 -0.45676071041E+03  0.15214608393E+03  0.48180415002E+03  0.00000000000E+00 0. -1.
          1    1    5    5  503    0  0.38211677255E+02  0.80112464540E+02  0.16468405845E+03  0.18708013888E+03  0.00000000000E+00 0. -1.
         -2    1    5    5    0  503  0.14708802984E+03  0.95621022901E+02  0.21101588012E+03  0.27441933278E+03  0.00000000000E+00 0.  1.
         -3    1    6    6    0  502 -0.47882308239E+02 -0.25849541547E+03  0.79282257032E+02  0.27458745700E+03  0.00000000000E+00 0.  1.
<mgrwt>
<rscale>  0 0.34963138E+04</rscale>
<asrwt>0</asrwt>
<pdfrwt beam="1">  1        2 0.50018196E+00 0.34963138E+04</pdfrwt>
<pdfrwt beam="2">  1       -2 0.14461258E+00 0.34963138E+04</pdfrwt>
<totfact> 0.32516306E-01</totfact>
</mgrwt>
</event>
<event>
12    1  0.1663913E-007  0.1188988E+04  0.7818608E-02  0.9122550E-01
         -3   -1    0    0    0  501 -0.00000000000E+00  0.00000000000E+00  0.24089087578E+04  0.24089087578E+04  0.00000000000E+00 0.  1.
          3   -1    0    0  501    0  0.00000000000E+00 -0.00000000000E+00 -0.14671502910E+03  0.14671502910E+03  0.00000000000E+00 0. -1.
         23    2    1    2    0    0  0.14685963656E+03  0.83930740410E+02  0.87808432861E+03  0.89924470686E+03  0.94851634849E+02 0.  0.
        254    2    1    2    0    0 -0.14685963656E+03 -0.83930740410E+02  0.13841094001E+04  0.16563790800E+04  0.89399144479E+03 0.  0.
        -24    2    4    4    0    0  0.26783090308E+03 -0.32009188991E+03  0.69217114146E+03  0.81217791621E+03  0.79623287330E+02 0.  0.
         24    2    4    4    0    0 -0.41469053964E+03  0.23616114950E+03  0.69193825863E+03  0.84420116383E+03  0.78464763100E+02 0.  0.
         13    1    3    3    0    0  0.52564915394E+02 -0.94235338306E+01  0.15132347343E+03  0.16047014342E+03  0.00000000000E+00 0. -1.
        -13    1    3    3    0    0  0.94294721165E+02  0.93354274241E+02  0.72676085518E+03  0.73877456344E+03  0.00000000000E+00 0.  1.
          4    1    6    6  502    0 -0.70469356255E+02  0.33389075681E+02  0.16898490301E+03  0.18610926358E+03  0.00000000000E+00 0. -1.
          1    1    5    5  503    0  0.12035919428E+02 -0.15245110366E+02  0.86732247312E+01  0.21272084378E+02  0.00000000000E+00 0. -1.
         -2    1    5    5    0  503  0.25579498365E+03 -0.30484677955E+03  0.68349791673E+03  0.79090583184E+03  0.00000000000E+00 0.  1.
         -3    1    6    6    0  502 -0.34422118339E+03  0.20277207382E+03  0.52295335562E+03  0.65809190025E+03  0.00000000000E+00 0.  1.
<mgrwt>
<rscale>  0 0.11889880E+04</rscale>
<asrwt>0</asrwt>
<pdfrwt beam="1">  1        3 0.22571545E-01 0.11889880E+04</pdfrwt>
<pdfrwt beam="2">  1       -3 0.37060132E+00 0.11889880E+04</pdfrwt>
<totfact> 0.74669560E-01</totfact>
</mgrwt>
</event>
<event>
12    1  0.1663913E-007  0.1919178E+04  0.7818608E-02  0.8645369E-01
         -2   -1    0    0    0  501 -0.00000000000E+00  0.00000000000E+00  0.74842140122E+03  0.74842140122E+03  0.00000000000E+00 0. -1.
          2   -1    0    0  501    0  0.00000000000E+00 -0.00000000000E+00 -0.12303373230E+04  0.12303373230E+04  0.00000000000E+00 0.  1.
         23    2    1    2    0    0  0.18826218397E+03  0.30490940057E+03  0.48170659664E+03  0.60744744149E+03  0.92405391929E+02 0.  0.
        254    2    1    2    0    0 -0.18826218397E+03 -0.30490940057E+03 -0.96362251841E+03  0.13713112827E+04  0.90747665738E+03 0.  0.
        -24    2    4    4    0    0 -0.48085965486E+03 -0.47138161698E+02 -0.24032430815E+03  0.54569680095E+03  0.81124666469E+02 0.  0.
         24    2    4    4    0    0  0.29259747089E+03 -0.25777123887E+03 -0.72329821026E+03  0.82561448179E+03  0.80122905632E+02 0.  0.
         13    1    3    3    0    0  0.19618541852E+03  0.29902306285E+03  0.47782329901E+03  0.59684052781E+03  0.00000000000E+00 0. -1.
        -13    1    3    3    0    0 -0.79232345444E+01  0.58863377160E+01  0.38832976247E+01  0.10606913679E+02  0.00000000000E+00 0.  1.
          2    1    6    6  502    0  0.75645053531E+02 -0.91585213347E+02 -0.28933189379E+03  0.31276663855E+03  0.00000000000E+00 0. -1.
          1    1    5    5  503    0 -0.17787475387E+03  0.58872048381E+01 -0.53606028071E+02  0.18587009843E+03  0.00000000000E+00 0. -1.
         -4    1    5    5    0  503 -0.30298490099E+03 -0.53025366536E+02 -0.18671828008E+03  0.35982670251E+03  0.00000000000E+00 0.  1.
         -1    1    6    6    0  502  0.21695241736E+03 -0.16618602552E+03 -0.43396631647E+03  0.51284784324E+03  0.00000000000E+00 0.  1.
<mgrwt>
<rscale>  0 0.19191777E+04</rscale>
<asrwt>0</asrwt>
<pdfrwt beam="1">  1        2 0.18928266E+00 0.19191777E+04</pdfrwt>
<pdfrwt beam="2">  1       -2 0.11514176E+00 0.19191777E+04</pdfrwt>
<totfact> 0.99895722E+00</totfact>
</mgrwt>
</event>
<event>
12    1  0.1663913E-007  0.1332281E+04  0.7818608E-02  0.9004351E-01
          1   -1    0    0  501    0  0.00000000000E+00  0.00000000000E+00  0.18086773505E+04  0.18086773505E+04  0.00000000000E+00 0. -1.
         -1   -1    0    0    0  501 -0.00000000000E+00 -0.00000000000E+00 -0.24534125686E+03  0.24534125686E+03  0.00000000000E+00 0.  1.
         23    2    1    2    0    0  0.87920792491E+02 -0.21070637407E+03  0.85097218312E+03  0.88577861775E+03  0.91229717728E+02 0.  0.
        254    2    1    2    0    0 -0.87920792491E+02  0.21070637407E+03  0.71236391052E+03  0.11682399896E+04  0.89732663534E+03 0.  0.
        -24    2    4    4    0    0  0.29690090847E+03  0.37493625651E+03  0.27570014782E+03  0.55775308155E+03  0.79690542591E+02 0.  0.
         24    2    4    4    0    0 -0.38482170096E+03 -0.16422988245E+03  0.43666376270E+03  0.61048690805E+03  0.83425580225E+02 0.  0.
         11    1    3    3    0    0  0.10449483264E+03 -0.18504954731E+03  0.78167553538E+03  0.81004885508E+03  0.00000000000E+00 0. -1.
        -11    1    3    3    0    0 -0.16574040145E+02 -0.25656826760E+02  0.69296647742E+02  0.75729762672E+02  0.00000000000E+00 0.  1.
          4    1    6    6  502    0 -0.20964038090E+03 -0.13390840415E+03  0.26092112415E+03  0.36050018451E+03  0.00000000000E+00 0. -1.
          1    1    5    5  503    0  0.52434271787E+02  0.12133190998E+03  0.85707916558E+02  0.15753295591E+03  0.00000000000E+00 0. -1.
         -4    1    5    5    0  503  0.24446663668E+03  0.25360434653E+03  0.18999223126E+03  0.40022012564E+03  0.00000000000E+00 0.  1.
         -3    1    6    6    0  502 -0.17518132006E+03 -0.30321478294E+02  0.17574263855E+03  0.24998672354E+03  0.00000000000E+00 0.  1.
<mgrwt>
<rscale>  0 0.13322810E+04</rscale>
<asrwt>0</asrwt>
<pdfrwt beam="1">  1        1 0.27825805E+00 0.13322810E+04</pdfrwt>
<pdfrwt beam="2">  1       -1 0.37744810E-01 0.13322810E+04</pdfrwt>
<totfact> 0.26685102E+01</totfact>
</mgrwt>
</event>
<event>
12    1  0.1663913E-007  0.1862837E+04  0.7818608E-02  0.8673579E-01
         -1   -1    0    0    0  501 -0.00000000000E+00  0.00000000000E+00  0.11759614465E+04  0.11759614465E+04  0.00000000000E+00 0.  1.
          1   -1    0    0  501    0  0.00000000000E+00 -0.00000000000E+00 -0.73772865367E+03  0.73772865367E+03  0.00000000000E+00 0. -1.
         23    2    1    2    0    0  0.34373145975E+03 -0.42730258599E+03  0.63115934202E+03  0.84092398016E+03  0.89734101515E+02 0.  0.
        254    2    1    2    0    0 -0.34373145975E+03  0.42730258599E+03 -0.19292654922E+03  0.10727661200E+04  0.90159174707E+03 0.  0.
        -24    2    4    4    0    0 -0.38104593168E+03  0.59670536029E+03 -0.37821396474E+03  0.80664150574E+03  0.79821216626E+02 0.  0.
         24    2    4    4    0    0  0.37314471924E+02 -0.16940277430E+03  0.18528741552E+03  0.26612461424E+03  0.80007588395E+02 0.  0.
         11    1    3    3    0    0  0.20852817680E+03 -0.30843112760E+03  0.46738377062E+03  0.59754610703E+03  0.00000000000E+00 0.  1.
        -11    1    3    3    0    0  0.13520328295E+03 -0.11887145839E+03  0.16377557140E+03  0.24337787313E+03  0.00000000000E+00 0. -1.
          4    1    6    6  502    0  0.54294134692E+02 -0.15955875152E+03  0.17814211104E+03  0.24523755824E+03  0.00000000000E+00 0. -1.
          3    1    5    5  503    0 -0.30293156608E+03  0.40736582775E+03 -0.26865735332E+03  0.57436158022E+03  0.00000000000E+00 0. -1.
         -4    1    5    5    0  503 -0.78114365601E+02  0.18933953254E+03 -0.10955661142E+03  0.23227992552E+03  0.00000000000E+00 0.  1.
         -3    1    6    6    0  502 -0.16979662768E+02 -0.98440227816E+01  0.71453044830E+01  0.20887056001E+02  0.00000000000E+00 0.  1.
<mgrwt>
<rscale>  0 0.18628370E+04</rscale>
<asrwt>0</asrwt>
<pdfrwt beam="1">  1        1 0.11349672E+00 0.18628370E+04</pdfrwt>
<pdfrwt beam="2">  1       -1 0.18091715E+00 0.18628370E+04</pdfrwt>
<totfact> 0.48343647E+00</totfact>
</mgrwt>
</event>
<event>
12    1  0.1663913E-007  0.1105322E+04  0.7818608E-02  0.9200020E-01
          2   -1    0    0  501    0  0.00000000000E+00  0.00000000000E+00  0.44053687012E+03  0.44053687012E+03  0.00000000000E+00 0. -1.
         -2   -1    0    0    0  501 -0.00000000000E+00 -0.00000000000E+00 -0.69332265223E+03  0.69332265223E+03  0.00000000000E+00 0.  1.
         23    2    1    2    0    0  0.12927807496E+03 -0.69346029804E+02  0.59162856636E+02  0.18252432076E+03  0.91066961893E+02 0.  0.
        254    2    1    2    0    0 -0.12927807496E+03  0.69346029804E+02 -0.31194863875E+03  0.95133520159E+03  0.88668202872E+03 0.  0.
        -24    2    4    4    0    0 -0.29836836409E+03  0.81182666746E+02 -0.55769369003E+03  0.64233107217E+03  0.77153407652E+02 0.  0.
         24    2    4    4    0    0  0.16909028913E+03 -0.11836636942E+02  0.24574505128E+03  0.30900412942E+03  0.79757695019E+02 0.  0.
         11    1    3    3    0    0  0.32449561788E+02  0.22170375616E+02  0.16549634478E+02  0.42642584544E+02  0.00000000000E+00 0.  1.
        -11    1    3    3    0    0  0.96828513170E+02 -0.91516405420E+02  0.42613222158E+02  0.13988173621E+03  0.00000000000E+00 0. -1.
          2    1    6    6  502    0  0.72712868890E+02 -0.15917192412E+02  0.17253067494E+03  0.18790250693E+03  0.00000000000E+00 0. -1.
          1    1    5    5  503    0 -0.17593770888E+03  0.76845862599E+02 -0.38955944441E+03  0.43429934922E+03  0.00000000000E+00 0. -1.
         -2    1    5    5    0  503 -0.12243065521E+03  0.43368041478E+01 -0.16813424562E+03  0.20803172295E+03  0.00000000000E+00 0.  1.
         -1    1    6    6    0  502  0.96377420238E+02  0.40805554697E+01  0.73214376341E+02  0.12110162248E+03  0.00000000000E+00 0.  1.
<mgrwt>
<rscale>  0 0.11053220E+04</rscale>
<asrwt>0</asrwt>
<pdfrwt beam="1">  1        2 0.67774903E-01 0.11053220E+04</pdfrwt>
<pdfrwt beam="2">  1       -2 0.10666502E+00 0.11053220E+04</pdfrwt>
<totfact> 0.50063279E+01</totfact>
</mgrwt>
</event>
<event>
12    1  0.1663913E-007  0.1715132E+04  0.7818608E-02  0.8752781E-01
         -2   -1    0    0    0  501 -0.00000000000E+00  0.00000000000E+00  0.18238022410E+04  0.18238022410E+04  0.00000000000E+00 0.  1.
          2   -1    0    0  501    0  0.00000000000E+00 -0.00000000000E+00 -0.40323441015E+03  0.40323441015E+03  0.00000000000E+00 0. -1.
         23    2    1    2    0    0  0.25537313337E+03 -0.48298249141E+03  0.14738633747E+03  0.57317327590E+03  0.91199492748E+02 0.  0.
        254    2    1    2    0    0 -0.25537313337E+03  0.48298249141E+03  0.12731814933E+04  0.16538633752E+04  0.90320840595E+03 0.  0.
        -24    2    4    4    0    0  0.82604421494E+02  0.62272883646E+03  0.10248919048E+04  0.12046716989E+04  0.78840289549E+02 0.  0.
         24    2    4    4    0    0 -0.33797755487E+03 -0.13974634505E+03  0.24828958850E+03  0.44919167632E+03  0.79797078695E+02 0.  0.
         11    1    3    3    0    0  0.38439452379E+02 -0.95918678047E+02 -0.64922003862E+01  0.10353807494E+03  0.00000000000E+00 0. -1.
        -11    1    3    3    0    0  0.21693368100E+03 -0.38706381337E+03  0.15387853785E+03  0.46963520096E+03  0.00000000000E+00 0.  1.
          2    1    6    6  502    0 -0.21117582286E+02  0.30961005975E+01 -0.11562274963E+01  0.21374634091E+02  0.00000000000E+00 0. -1.
          3    1    5    5  503    0  0.19487538185E+02  0.95838879622E+02  0.11145975194E+03  0.14828395495E+03  0.00000000000E+00 0. -1.
         -4    1    5    5    0  503  0.63116883309E+02  0.52688995684E+03  0.91343215290E+03  0.10563877439E+04  0.00000000000E+00 0.  1.
         -1    1    6    6    0  502 -0.31685997258E+03 -0.14284244565E+03  0.24944581600E+03  0.42781704223E+03  0.00000000000E+00 0.  1.
<mgrwt>
<rscale>  0 0.17151324E+04</rscale>
<asrwt>0</asrwt>
<pdfrwt beam="1">  1        2 0.62036064E-01 0.17151324E+04</pdfrwt>
<pdfrwt beam="2">  1       -2 0.28058496E+00 0.17151324E+04</pdfrwt>
<totfact> 0.31319825E+00</totfact>
</mgrwt>
</event>
<event>
12    1  0.1663913E-007  0.1587857E+04  0.7818608E-02  0.8828043E-01
          1   -1    0    0  501    0  0.00000000000E+00  0.00000000000E+00  0.16925748910E+04  0.16925748910E+04  0.00000000000E+00 0. -1.
         -1   -1    0    0    0  501 -0.00000000000E+00 -0.00000000000E+00 -0.37240426831E+03  0.37240426831E+03  0.00000000000E+00 0.  1.
         23    2    1    2    0    0 -0.71265107685E+02 -0.22953523231E+03  0.10665470917E+04  0.10970198194E+04  0.90358436150E+02 0.  0.
        254    2    1    2    0    0  0.71265107685E+02  0.22953523231E+03  0.25362353097E+03  0.96795933985E+03  0.90269333093E+03 0.  0.
        -24    2    4    4    0    0 -0.17910128077E+03 -0.22396280197E+03  0.32020469908E+03  0.43878640214E+03  0.88124071359E+02 0.  0.
         24    2    4    4    0    0  0.25036638846E+03  0.45349803428E+03 -0.66581168105E+02  0.52917293771E+03  0.85130197309E+02 0.  0.
         13    1    3    3    0    0 -0.65490528593E+02 -0.66275170246E+02  0.41004468085E+03  0.42049738147E+03  0.00000000000E+00 0.  1.
        -13    1    3    3    0    0 -0.57745790913E+01 -0.16326006207E+03  0.65650241085E+03  0.67652243797E+03  0.00000000000E+00 0. -1.
          4    1    6    6  502    0  0.67538396051E+02  0.20714103884E+03 -0.18727412673E+02  0.21867684125E+03  0.00000000000E+00 0. -1.
          3    1    5    5  503    0 -0.11052442944E+03 -0.70556781710E+02  0.12415603616E+03  0.18057859858E+03  0.00000000000E+00 0. -1.
         -4    1    5    5    0  503 -0.68576851328E+02 -0.15340602026E+03  0.19604866292E+03  0.25820780357E+03  0.00000000000E+00 0.  1.
         -3    1    6    6    0  502  0.18282799240E+03  0.24635699544E+03 -0.47853755432E+02  0.31049609646E+03  0.00000000000E+00 0.  1.
<mgrwt>
<rscale>  0 0.15878566E+04</rscale>
<asrwt>0</asrwt>
<pdfrwt beam="1">  1        1 0.26039613E+00 0.15878566E+04</pdfrwt>
<pdfrwt beam="2">  1       -1 0.57292965E-01 0.15878566E+04</pdfrwt>
<totfact> 0.14288412E+01</totfact>
</mgrwt>
</event>
<event>
12    1  0.1663913E-007  0.2610496E+04  0.7818608E-02  0.8364645E-01
          2   -1    0    0  501    0  0.00000000000E+00  0.00000000000E+00  0.20433290405E+04  0.20433290405E+04  0.00000000000E+00 0. -1.
         -2   -1    0    0    0  501 -0.00000000000E+00 -0.00000000000E+00 -0.83377315052E+03  0.83377315052E+03  0.00000000000E+00 0.  1.
         23    2    1    2    0    0 -0.89261167274E+03  0.37219294559E+03  0.11075601584E+04  0.14731154289E+04  0.89979861403E+02 0.  0.
        254    2    1    2    0    0  0.89261167274E+03 -0.37219294559E+03  0.10199573163E+03  0.14039867621E+04  0.10126660416E+04 0.  0.
        -24    2    4    4    0    0  0.30905775148E+03 -0.62931357737E+03  0.24247532095E+03  0.74613478616E+03  0.79815821999E+02 0.  0.
         24    2    4    4    0    0  0.58355392126E+03  0.25712063178E+03 -0.14047958931E+03  0.65785197596E+03  0.79928148653E+02 0.  0.
         11    1    3    3    0    0 -0.16362407243E+03  0.10705377942E+03  0.21787728713E+03  0.29275221778E+03  0.00000000000E+00 0.  1.
        -11    1    3    3    0    0 -0.72898760031E+03  0.26513916617E+03  0.88968287123E+03  0.11803632111E+04  0.00000000000E+00 0. -1.
          2    1    6    6  502    0  0.40790439792E+03  0.21837494853E+03 -0.95323628013E+02  0.47239835948E+03  0.00000000000E+00 0. -1.
          1    1    5    5  503    0  0.27921661935E+03 -0.60489774431E+03  0.23731016954E+03  0.70723356690E+03  0.00000000000E+00 0. -1.
         -2    1    5    5    0  503  0.29841132124E+02 -0.24415833062E+02  0.51651514129E+01  0.38901219257E+02  0.00000000000E+00 0.  1.
         -1    1    6    6    0  502  0.17564952334E+03  0.38745683256E+02 -0.45155961301E+02  0.18545361647E+03  0.00000000000E+00 0.  1.
<mgrwt>
<rscale>  0 0.26104964E+04</rscale>
<asrwt>0</asrwt>
<pdfrwt beam="1">  1        2 0.31435831E+00 0.26104964E+04</pdfrwt>
<pdfrwt beam="2">  1       -2 0.12827279E+00 0.26104964E+04</pdfrwt>
<totfact> 0.25093564E+00</totfact>
</mgrwt>
</event>
<event>
12    1  0.1663913E-007  0.2652543E+04  0.7818608E-02  0.8350569E-01
          2   -1    0    0  501    0  0.00000000000E+00  0.00000000000E+00  0.23613482813E+04  0.23613482813E+04  0.00000000000E+00 0. -1.
         -2   -1    0    0    0  501 -0.00000000000E+00 -0.00000000000E+00 -0.74491161410E+03  0.74491161410E+03  0.00000000000E+00 0.  1.
         23    2    1    2    0    0  0.92794964161E+03 -0.70209259928E+03  0.57250487446E+03  0.13025395946E+04  0.12174977943E+03 0.  0.
        254    2    1    2    0    0 -0.92794964161E+03  0.70209259928E+03  0.10439317927E+04  0.18037203008E+04  0.89977151566E+03 0.  0.
        -24    2    4    4    0    0 -0.38494175239E+03  0.84299200246E+02 -0.78443027977E+02  0.41001422433E+03  0.81681378654E+02 0.  0.
         24    2    4    4    0    0 -0.54300788923E+03  0.61779339903E+03  0.11223748207E+04  0.13937060765E+04  0.78518391875E+02 0.  0.
         11    1    3    3    0    0  0.74905464836E+03 -0.59080265942E+03  0.51503768719E+03  0.10841561086E+04  0.00000000000E+00 0.  1.
        -11    1    3    3    0    0  0.17889499325E+03 -0.11128993986E+03  0.57467187267E+02  0.21838348595E+03  0.00000000000E+00 0. -1.
          4    1    6    6  502    0 -0.32717671623E+02  0.71593090542E+02  0.10233045821E+03  0.12910282463E+03  0.00000000000E+00 0. -1.
          1    1    5    5  503    0 -0.12750573679E+03  0.24029369333E+02  0.12648952648E+02  0.13036533093E+03  0.00000000000E+00 0. -1.
         -2    1    5    5    0  503 -0.25743601560E+03  0.60269830913E+02 -0.91091980625E+02  0.27964889340E+03  0.00000000000E+00 0.  1.
         -3    1    6    6    0  502 -0.51029021761E+03  0.54620030849E+03  0.10200443625E+04  0.12646032519E+04  0.00000000000E+00 0.  1.
<mgrwt>
<rscale>  0 0.26525427E+04</rscale>
<asrwt>0</asrwt>
<pdfrwt beam="1">  1        2 0.36328435E+00 0.26525427E+04</pdfrwt>
<pdfrwt beam="2">  1       -2 0.11460179E+00 0.26525427E+04</pdfrwt>
<totfact> 0.21905431E+00</totfact>
</mgrwt>
</event>
<event>
12    1  0.1663913E-007  0.1265564E+04  0.7818608E-02  0.9057328E-01
         -1   -1    0    0    0  501 -0.00000000000E+00  0.00000000000E+00  0.34058148889E+03  0.34058148889E+03  0.00000000000E+00 0.  1.
          1   -1    0    0  501    0  0.00000000000E+00 -0.00000000000E+00 -0.11756748360E+04  0.11756748360E+04  0.00000000000E+00 0. -1.
         23    2    1    2    0    0  0.13813467576E+03 -0.33772231435E+03 -0.27843314156E+03  0.46917088977E+03  0.97256152661E+02 0.  0.
        254    2    1    2    0    0 -0.13813467576E+03  0.33772231435E+03 -0.55666020554E+03  0.10470854351E+04  0.80831910389E+03 0.  0.
        -24    2    4    4    0    0  0.12252560094E+02  0.48588214420E+03 -0.64109565557E+03  0.80838994282E+03  0.79114327301E+02 0.  0.
         24    2    4    4    0    0 -0.15038723586E+03 -0.14815982984E+03  0.84435450035E+02  0.23869549228E+03  0.72653540334E+02 0.  0.
         11    1    3    3    0    0  0.36165140391E+02 -0.90731767673E+02 -0.24845836888E+02  0.10078435719E+03  0.00000000000E+00 0.  1.
        -11    1    3    3    0    0  0.10196953537E+03 -0.24699054668E+03 -0.25358730467E+03  0.36838653258E+03  0.00000000000E+00 0. -1.
          4    1    6    6  502    0 -0.69616418522E+02 -0.62323677931E+02 -0.46210972762E+00  0.93439285657E+02  0.00000000000E+00 0. -1.
          1    1    5    5  503    0 -0.30130943836E+01  0.44859032778E+01  0.12342740942E+01  0.55430585891E+01  0.00000000000E+00 0. -1.
         -2    1    5    5    0  503  0.15265654478E+02  0.48139624092E+03 -0.64232992967E+03  0.80284688423E+03  0.00000000000E+00 0.  1.
         -3    1    6    6    0  502 -0.80770817333E+02 -0.85836151912E+02  0.84897559763E+02  0.14525620662E+03  0.00000000000E+00 0.  1.
<mgrwt>
<rscale>  0 0.12655640E+04</rscale>
<asrwt>0</asrwt>
<pdfrwt beam="1">  1        1 0.18087305E+00 0.12655640E+04</pdfrwt>
<pdfrwt beam="2">  1       -1 0.52397153E-01 0.12655640E+04</pdfrwt>
<totfact> 0.40238447E+01</totfact>
</mgrwt>
</event>
<event>
12    1  0.1663913E-007  0.1576660E+04  0.7818608E-02  0.8835016E-01
         -2   -1    0    0    0  501 -0.00000000000E+00  0.00000000000E+00  0.72015059952E+03  0.72015059952E+03  0.00000000000E+00 0.  1.
          2   -1    0    0  501    0  0.00000000000E+00 -0.00000000000E+00 -0.86296422003E+03  0.86296422003E+03  0.00000000000E+00 0. -1.
         23    2    1    2    0    0 -0.43967592201E+03 -0.71200039475E+02  0.23211763956E+03  0.51036766388E+03  0.90621143889E+02 0.  0.
        254    2    1    2    0    0  0.43967592201E+03  0.71200039475E+02 -0.37493126008E+03  0.10727471557E+04  0.90101534293E+03 0.  0.
        -24    2    4    4    0    0 -0.98567838554E+02 -0.25509620016E+03 -0.33089977175E+03  0.43674957585E+03  0.80410465294E+02 0.  0.
         24    2    4    4    0    0  0.53824376057E+03  0.32629623963E+03 -0.44031488322E+02  0.63599757981E+03  0.79865936282E+02 0.  0.
         11    1    3    3    0    0 -0.12868606630E+03 -0.14623771847E+02  0.11522690984E+03  0.17335281686E+03  0.00000000000E+00 0.  1.
        -11    1    3    3    0    0 -0.31098985571E+03 -0.56576267628E+02  0.11689072972E+03  0.33701484702E+03  0.00000000000E+00 0. -1.
          2    1    6    6  502    0  0.16935386392E+03  0.12560665172E+03  0.17459992313E+02  0.21157176917E+03  0.00000000000E+00 0. -1.
          1    1    5    5  503    0 -0.73769282340E+02 -0.18142866826E+03 -0.28706476475E+03  0.34751179526E+03  0.00000000000E+00 0. -1.
         -2    1    5    5    0  503 -0.24798556214E+02 -0.73667531896E+02 -0.43835007004E+02  0.89237780592E+02  0.00000000000E+00 0.  1.
         -1    1    6    6    0  502  0.36888989665E+03  0.20068958791E+03 -0.61491480635E+02  0.42442581064E+03  0.00000000000E+00 0.  1.
<mgrwt>
<rscale>  0 0.15766600E+04</rscale>
<asrwt>0</asrwt>
<pdfrwt beam="1">  1        2 0.13276373E+00 0.15766600E+04</pdfrwt>
<pdfrwt beam="2">  1       -2 0.11079240E+00 0.15766600E+04</pdfrwt>
<totfact> 0.19283421E+01</totfact>
</mgrwt>
</event>
<event>
12    1  0.1663913E-007  0.1652523E+04  0.7818608E-02  0.8788915E-01
         -2   -1    0    0    0  501 -0.00000000000E+00  0.00000000000E+00  0.16232793890E+03  0.16232793890E+03  0.00000000000E+00 0.  1.
          2   -1    0    0  501    0  0.00000000000E+00 -0.00000000000E+00 -0.42057352832E+04  0.42057352832E+04  0.00000000000E+00 0. -1.
         23    2    1    2    0    0  0.20872294042E+02  0.11469436238E+03  0.64073055245E+02  0.15968641360E+03  0.88339939217E+02 0.  0.
        254    2    1    2    0    0 -0.20872294042E+02 -0.11469436238E+03 -0.41074803995E+04  0.42083768085E+04  0.90854261331E+03 0.  0.
        -24    2    4    4    0    0 -0.29466589500E+03 -0.86619080822E+02 -0.36790034863E+04  0.36927123714E+04  0.82019210745E+02 0.  0.
         24    2    4    4    0    0  0.27379360095E+03 -0.28075281558E+02 -0.42847691326E+03  0.51566443709E+03  0.81032025350E+02 0.  0.
         11    1    3    3    0    0 -0.30708067027E+02  0.57302040540E+02  0.10760765103E+02  0.65896155397E+02  0.00000000000E+00 0. -1.
        -11    1    3    3    0    0  0.51580361069E+02  0.57392321840E+02  0.53312290142E+02  0.93790258206E+02  0.00000000000E+00 0.  1.
          4    1    6    6  502    0 -0.82782097223E+00  0.57705927621E+01 -0.26815832972E+00  0.58358321838E+01  0.00000000000E+00 0. -1.
          3    1    5    5  503    0 -0.62605306818E+02 -0.45806015919E+02 -0.12129535086E+04  0.12154315405E+04  0.00000000000E+00 0. -1.
         -4    1    5    5    0  503 -0.23206058818E+03 -0.40813064903E+02 -0.24660499777E+04  0.24772808309E+04  0.00000000000E+00 0.  1.
         -3    1    6    6    0  502  0.27462142193E+03 -0.33845874320E+02 -0.42820875493E+03  0.50982860491E+03  0.00000000000E+00 0.  1.
<mgrwt>
<rscale>  0 0.16525233E+04</rscale>
<asrwt>0</asrwt>
<pdfrwt beam="1">  1        2 0.64703615E+00 0.16525233E+04</pdfrwt>
<pdfrwt beam="2">  1       -2 0.24973531E-01 0.16525233E+04</pdfrwt>
<totfact> 0.32271737E+00</totfact>
</mgrwt>
</event>
<event>
12    1  0.1663913E-007  0.1658631E+04  0.7818608E-02  0.8785317E-01
          2   -1    0    0  501    0  0.00000000000E+00  0.00000000000E+00  0.23775473260E+04  0.23775473260E+04  0.00000000000E+00 0. -1.
         -2   -1    0    0    0  501 -0.00000000000E+00 -0.00000000000E+00 -0.28927472855E+03  0.28927472855E+03  0.00000000000E+00 0.  1.
         23    2    1    2    0    0 -0.10449896705E+03 -0.20645943456E+02 -0.17819792787E+03  0.22685771349E+03  0.91452892680E+02 0.  0.
        254    2    1    2    0    0  0.10449896705E+03  0.20645943456E+02  0.22664705254E+04  0.24399643411E+04  0.89732438641E+03 0.  0.
        -24    2    4    4    0    0 -0.24860667114E+03  0.31060809501E+03  0.73379081589E+03  0.83875548338E+03  0.82335495375E+02 0.  0.
         24    2    4    4    0    0  0.35310563819E+03 -0.28996215155E+03  0.15326797095E+04  0.16012088577E+04  0.77466594001E+02 0.  0.
         13    1    3    3    0    0 -0.10011782449E+03 -0.31784553588E+02 -0.18525492031E+03  0.21296295951E+03  0.00000000000E+00 0.  1.
        -13    1    3    3    0    0 -0.43811425635E+01  0.11138610132E+02  0.70569924409E+01  0.13894753979E+02  0.00000000000E+00 0. -1.
          2    1    6    6  502    0  0.34411797166E+03 -0.27533562115E+03  0.15084666908E+04  0.15715274862E+04  0.00000000000E+00 0. -1.
          1    1    5    5  503    0 -0.14528807514E+03  0.17100766409E+03  0.32854500545E+03  0.39786186869E+03  0.00000000000E+00 0. -1.
         -2    1    5    5    0  503 -0.10331859600E+03  0.13960043092E+03  0.40524581044E+03  0.44089361469E+03  0.00000000000E+00 0.  1.
         -1    1    6    6    0  502  0.89876665262E+01 -0.14626530399E+02  0.24213018650E+02  0.29681371485E+02  0.00000000000E+00 0.  1.
<mgrwt>
<rscale>  0 0.16586312E+04</rscale>
<asrwt>0</asrwt>
<pdfrwt beam="1">  1        2 0.36577650E+00 0.16586312E+04</pdfrwt>
<pdfrwt beam="2">  1       -2 0.44503806E-01 0.16586312E+04</pdfrwt>
<totfact> 0.18741581E+01</totfact>
</mgrwt>
</event>
<event>
12    1  0.1663913E-007  0.2251519E+04  0.7818608E-02  0.8497286E-01
         -3   -1    0    0    0  501 -0.00000000000E+00  0.00000000000E+00  0.77930729766E+03  0.77930729766E+03  0.00000000000E+00 0.  1.
          3   -1    0    0  501    0  0.00000000000E+00 -0.00000000000E+00 -0.16262322517E+04  0.16262322517E+04  0.00000000000E+00 0. -1.
         23    2    1    2    0    0 -0.49590695086E+03  0.67896778247E+03 -0.79252113013E+03  0.11590390816E+04  0.91437943111E+02 0.  0.
        254    2    1    2    0    0  0.49590695086E+03 -0.67896778247E+03 -0.54403823873E+02  0.12465004677E+04  0.91863087605E+03 0.  0.
        -24    2    4    4    0    0 -0.85578831146E+02  0.10324985914E+03 -0.20434432700E+03  0.25722472330E+03  0.80147891702E+02 0.  0.
         24    2    4    4    0    0  0.58148578201E+03 -0.78221764161E+03  0.14994050313E+03  0.98927574442E+03  0.78703179755E+02 0.  0.
         11    1    3    3    0    0 -0.28759973199E+03  0.37401801321E+03 -0.38391441132E+03  0.60827079106E+03  0.00000000000E+00 0. -1.
        -11    1    3    3    0    0 -0.20830721888E+03  0.30494976926E+03 -0.40860671881E+03  0.55076829054E+03  0.00000000000E+00 0.  1.
          4    1    6    6  502    0  0.24386463043E+03 -0.39321421787E+03  0.76729101757E+02  0.46901464174E+03  0.00000000000E+00 0. -1.
          1    1    5    5  503    0  0.12646014142E+02  0.16639398444E+01 -0.71341506267E+01  0.14614597998E+02  0.00000000000E+00 0. -1.
         -2    1    5    5    0  503 -0.98224845288E+02  0.10158591930E+03 -0.19721017638E+03  0.24261012530E+03  0.00000000000E+00 0.  1.
         -3    1    6    6    0  502  0.33762115158E+03 -0.38900342374E+03  0.73211401374E+02  0.52026110268E+03  0.00000000000E+00 0.  1.
<mgrwt>
<rscale>  0 0.22515192E+04</rscale>
<asrwt>0</asrwt>
<pdfrwt beam="1">  1        3 0.25018958E+00 0.22515192E+04</pdfrwt>
<pdfrwt beam="2">  1       -3 0.11989343E+00 0.22515192E+04</pdfrwt>
<totfact> 0.99178876E-02</totfact>
</mgrwt>
</event>
<event>
12    1  0.1663913E-007  0.1474310E+04  0.7818608E-02  0.8901718E-01
          1   -1    0    0  501    0  0.00000000000E+00  0.00000000000E+00  0.18099839825E+04  0.18099839825E+04  0.00000000000E+00 0. -1.
         -1   -1    0    0    0  501 -0.00000000000E+00 -0.00000000000E+00 -0.30022242118E+03  0.30022242118E+03  0.00000000000E+00 0.  1.
         23    2    1    2    0    0  0.36355388593E+03  0.25524920804E+03  0.63429482776E+03  0.77963173333E+03  0.90399805933E+02 0.  0.
        254    2    1    2    0    0 -0.36355388593E+03 -0.25524920804E+03  0.87546673353E+03  0.13305746703E+04  0.89814440132E+03 0.  0.
        -24    2    4    4    0    0 -0.56311036529E+03 -0.30334055798E+03  0.29397465277E+03  0.70816142461E+03  0.77218710350E+02 0.  0.
         24    2    4    4    0    0  0.19955647936E+03  0.48091349935E+02  0.58149208076E+03  0.62241324572E+03  0.84437207816E+02 0.  0.
         11    1    3    3    0    0  0.11886452446E+03  0.70857783233E+02  0.13184947606E+03  0.19113839216E+03  0.00000000000E+00 0. -1.
        -11    1    3    3    0    0  0.24468936147E+03  0.18439142481E+03  0.50244535170E+03  0.58849334117E+03  0.00000000000E+00 0.  1.
          4    1    6    6  502    0  0.15588844859E+03  0.26574184856E+02  0.32607117802E+03  0.36239454858E+03  0.00000000000E+00 0. -1.
          1    1    5    5  503    0 -0.48390031985E+03 -0.28051241338E+03  0.27631833279E+03  0.62385780002E+03  0.00000000000E+00 0. -1.
         -2    1    5    5    0  503 -0.79210045435E+02 -0.22828144600E+02  0.17656319980E+02  0.84303624590E+02  0.00000000000E+00 0.  1.
         -3    1    6    6    0  502  0.43668030769E+02  0.21517165080E+02  0.25542090274E+03  0.26001869713E+03  0.00000000000E+00 0.  1.
<mgrwt>
<rscale>  0 0.14743104E+04</rscale>
<asrwt>0</asrwt>
<pdfrwt beam="1">  1        1 0.27845907E+00 0.14743104E+04</pdfrwt>
<pdfrwt beam="2">  1       -1 0.46188066E-01 0.14743104E+04</pdfrwt>
<totfact> 0.18137540E+01</totfact>
</mgrwt>
</event>
<event>
12    1  0.1663913E-007  0.1674481E+04  0.7818608E-02  0.8776054E-01
          2   -1    0    0  501    0  0.00000000000E+00  0.00000000000E+00  0.11920990333E+04  0.11920990333E+04  0.00000000000E+00 0. -1.
         -2   -1    0    0    0  501 -0.00000000000E+00 -0.00000000000E+00 -0.58801460354E+03  0.58801460354E+03  0.00000000000E+00 0.  1.
         23    2    1    2    0    0 -0.88903877483E+02  0.32852503355E+03  0.72367767127E+03  0.80550180902E+03  0.96390846832E+02 0.  0.
        254    2    1    2    0    0  0.88903877483E+02 -0.32852503355E+03 -0.11959324154E+03  0.97461182778E+03  0.90539111677E+03 0.  0.
        -24    2    4    4    0    0 -0.42321628824E+02 -0.29594345701E+02 -0.47541518731E+03  0.48461335398E+03  0.78508324182E+02 0.  0.
         24    2    4    4    0    0  0.13122550631E+03 -0.29893068785E+03  0.35582194576E+03  0.48999847380E+03  0.83123748710E+02 0.  0.
         13    1    3    3    0    0  0.10755013462E+02  0.10291322172E+03  0.26938001433E+03  0.28856956465E+03  0.00000000000E+00 0.  1.
        -13    1    3    3    0    0 -0.99658890945E+02  0.22561181183E+03  0.45429765694E+03  0.51693224438E+03  0.00000000000E+00 0. -1.
          4    1    6    6  502    0  0.92349036748E+01 -0.47094548179E+02  0.99724435698E+02  0.11067132867E+03  0.00000000000E+00 0. -1.
          3    1    5    5  503    0 -0.41354502813E+01 -0.37378128965E+02 -0.94469941777E+02  0.10167987202E+03  0.00000000000E+00 0. -1.
         -4    1    5    5    0  503 -0.38186178543E+02  0.77837832637E+01 -0.38094524553E+03  0.38293348196E+03  0.00000000000E+00 0.  1.
         -3    1    6    6    0  502  0.12199060263E+03 -0.25183613967E+03  0.25609751007E+03  0.37932714513E+03  0.00000000000E+00 0.  1.
<mgrwt>
<rscale>  0 0.16744810E+04</rscale>
<asrwt>0</asrwt>
<pdfrwt beam="1">  1        2 0.18339985E+00 0.16744810E+04</pdfrwt>
<pdfrwt beam="2">  1       -2 0.90463785E-01 0.16744810E+04</pdfrwt>
<totfact> 0.19069447E+01</totfact>
</mgrwt>
</event>
<event>
12    1  0.1663913E-007  0.2476849E+04  0.7818608E-02  0.8411280E-01
          2   -1    0    0  501    0  0.00000000000E+00  0.00000000000E+00  0.28629131586E+04  0.28629131586E+04  0.00000000000E+00 0. -1.
         -2   -1    0    0    0  501 -0.00000000000E+00 -0.00000000000E+00 -0.53571130486E+03  0.53571130486E+03  0.00000000000E+00 0.  1.
         23    2    1    2    0    0 -0.13100436509E+03 -0.89960686917E+03  0.23391602835E+03  0.94317203497E+03  0.91663059615E+02 0.  0.
        254    2    1    2    0    0  0.13100436509E+03  0.89960686917E+03  0.20932858253E+04  0.24554524284E+04  0.90606093560E+03 0.  0.
        -24    2    4    4    0    0 -0.38798673842E+02 -0.82559246705E+02 -0.14412593731E+02  0.12260137750E+03  0.80635033322E+02 0.  0.
         24    2    4    4    0    0  0.16980303893E+03  0.98216611588E+03  0.21076984191E+04  0.23328510509E+04  0.79486155398E+02 0.  0.
         13    1    3    3    0    0  0.86292891996E+01 -0.19846690281E+03  0.44035436852E+02  0.20347652406E+03  0.00000000000E+00 0. -1.
        -13    1    3    3    0    0 -0.13963365429E+03 -0.70113996636E+03  0.18988059150E+03  0.73969551091E+03  0.00000000000E+00 0.  1.
          4    1    6    6  502    0  0.81321690408E+02  0.55780453957E+03  0.11056027002E+04  0.12410142838E+04  0.00000000000E+00 0. -1.
          3    1    5    5  503    0  0.21357580101E+02 -0.31352035837E+01  0.17812564112E+01  0.21659838497E+02  0.00000000000E+00 0. -1.
         -4    1    5    5    0  503 -0.60156253943E+02 -0.79424043121E+02 -0.16193850142E+02  0.10094153900E+03  0.00000000000E+00 0.  1.
         -3    1    6    6    0  502  0.88481348521E+02  0.42436157631E+03  0.10020957188E+04  0.10918367672E+04  0.00000000000E+00 0.  1.
<mgrwt>
<rscale>  0 0.24768488E+04</rscale>
<asrwt>0</asrwt>
<pdfrwt beam="1">  1        2 0.44044817E+00 0.24768488E+04</pdfrwt>
<pdfrwt beam="2">  1       -2 0.82417125E-01 0.24768488E+04</pdfrwt>
<totfact> 0.24452653E+00</totfact>
</mgrwt>
</event>
<event>
12    1  0.1663913E-007  0.2473831E+04  0.7818608E-02  0.8412368E-01
         -2   -1    0    0    0  501 -0.00000000000E+00  0.00000000000E+00  0.46869382501E+03  0.46869382501E+03  0.00000000000E+00 0.  1.
          2   -1    0    0  501    0  0.00000000000E+00 -0.00000000000E+00 -0.32643048480E+04  0.32643048480E+04  0.00000000000E+00 0. -1.
         23    2    1    2    0    0  0.64736338921E+03 -0.21177408379E+03  0.32124248086E+02  0.68804854624E+03  0.91930486834E+02 0.  0.
        254    2    1    2    0    0 -0.64736338921E+03  0.21177408379E+03 -0.28277352710E+04  0.30449501267E+04  0.90094777370E+03 0.  0.
        -24    2    4    4    0    0 -0.30683932035E+03  0.51228560509E+03 -0.10716138475E+04  0.12294417061E+04  0.81140377691E+02 0.  0.
         24    2    4    4    0    0 -0.34052406886E+03 -0.30051152130E+03 -0.17561214236E+04  0.18155084206E+04  0.76449690489E+02 0.  0.
         11    1    3    3    0    0  0.56318704665E+02 -0.80093309901E+00 -0.16237952699E+02  0.58618334136E+02  0.00000000000E+00 0. -1.
        -11    1    3    3    0    0  0.59104468455E+03 -0.21097315069E+03  0.48362200785E+02  0.62943021210E+03  0.00000000000E+00 0.  1.
          2    1    6    6  502    0 -0.49128499364E+02 -0.73483930773E+02 -0.26687317276E+03  0.28113126448E+03  0.00000000000E+00 0. -1.
          3    1    5    5  503    0 -0.28156154395E+03  0.41136139036E+03 -0.87790705372E+03  0.10095622276E+04  0.00000000000E+00 0. -1.
         -4    1    5    5    0  503 -0.25277776407E+02  0.10092421474E+03 -0.19370679374E+03  0.21987947844E+03  0.00000000000E+00 0.  1.
         -1    1    6    6    0  502 -0.29139556949E+03 -0.22702759053E+03 -0.14892482508E+04  0.15343771562E+04  0.00000000000E+00 0.  1.
<mgrwt>
<rscale>  0 0.24738307E+04</rscale>
<asrwt>0</asrwt>
<pdfrwt beam="1">  1        2 0.50220074E+00 0.24738307E+04</pdfrwt>
<pdfrwt beam="2">  1       -2 0.72106744E-01 0.24738307E+04</pdfrwt>
<totfact> 0.18329652E+00</totfact>
</mgrwt>
</event>
<event>
12    1  0.1663913E-007  0.2479621E+04  0.7818608E-02  0.8410282E-01
         -2   -1    0    0    0  501 -0.00000000000E+00  0.00000000000E+00  0.95751211358E+03  0.95751211358E+03  0.00000000000E+00 0.  1.
          2   -1    0    0  501    0  0.00000000000E+00 -0.00000000000E+00 -0.16053380723E+04  0.16053380723E+04  0.00000000000E+00 0. -1.
         23    2    1    2    0    0  0.25572262340E+03  0.10071933197E+04  0.13021515538E+03  0.10512047467E+04  0.90790911235E+02 0.  0.
        254    2    1    2    0    0 -0.25572262340E+03 -0.10071933197E+04 -0.77804111411E+03  0.15116454392E+04  0.77452663943E+03 0.  0.
        -24    2    4    4    0    0 -0.27068444122E+03 -0.66739607538E+03 -0.88703944221E+03  0.11453004809E+04  0.78655142368E+02 0.  0.
         24    2    4    4    0    0  0.14961817825E+02 -0.33979724429E+03  0.10899832811E+03  0.36634495823E+03  0.81498280171E+02 0.  0.
         11    1    3    3    0    0  0.16179604774E+02  0.35923849257E+02  0.21657023879E+02  0.44959195270E+02  0.00000000000E+00 0. -1.
        -11    1    3    3    0    0  0.23954301862E+03  0.97126947041E+03  0.10855813151E+03  0.10062455515E+04  0.00000000000E+00 0.  1.
          4    1    6    6  502    0  0.44685619907E+02 -0.27253098448E+03  0.83722075631E+02  0.28858157959E+03  0.00000000000E+00 0. -1.
          3    1    5    5  503    0 -0.25704512097E+03 -0.65965006728E+03 -0.85873418773E+03  0.11129397156E+04  0.00000000000E+00 0. -1.
         -4    1    5    5    0  503 -0.13639320254E+02 -0.77460080950E+01 -0.28305254485E+02  0.32360765285E+02  0.00000000000E+00 0.  1.
         -3    1    6    6    0  502 -0.29723802081E+02 -0.67266259809E+02  0.25276252476E+02  0.77763378643E+02  0.00000000000E+00 0.  1.
<mgrwt>
<rscale>  0 0.24796215E+04</rscale>
<asrwt>0</asrwt>
<pdfrwt beam="1">  1        2 0.24697509E+00 0.24796215E+04</pdfrwt>
<pdfrwt beam="2">  1       -2 0.14730956E+00 0.24796215E+04</pdfrwt>
<totfact> 0.31105630E+00</totfact>
</mgrwt>
</event>
<event>
12    1  0.1663913E-007  0.1843401E+04  0.7818608E-02  0.8683554E-01
          2   -1    0    0  501    0  0.00000000000E+00  0.00000000000E+00  0.29908397103E+04  0.29908397103E+04  0.00000000000E+00 0. -1.
         -2   -1    0    0    0  501 -0.00000000000E+00 -0.00000000000E+00 -0.28404452915E+03  0.28404452915E+03  0.00000000000E+00 0.  1.
         23    2    1    2    0    0 -0.40405303517E+03 -0.48596747701E+03  0.15356647770E+04  0.16630487417E+04  0.89674779599E+02 0.  0.
        254    2    1    2    0    0  0.40405303517E+03  0.48596747701E+03  0.11711304042E+04  0.16118354977E+04  0.90941959746E+03 0.  0.
        -24    2    4    4    0    0  0.20064072759E+03  0.72192083390E+03  0.63232367243E+03  0.98358010043E+03  0.78550590509E+02 0.  0.
         24    2    4    4    0    0  0.20341230758E+03 -0.23595335689E+03  0.53880673173E+03  0.62825539730E+03  0.85683117168E+02 0.  0.
         11    1    3    3    0    0 -0.33867445255E+03 -0.45142310494E+03  0.13638492303E+04  0.14759972654E+04  0.00000000000E+00 0. -1.
        -11    1    3    3    0    0 -0.65378582619E+02 -0.34544372069E+02  0.17181554663E+03  0.18705147626E+03  0.00000000000E+00 0.  1.
          4    1    6    6  502    0  0.20833154378E+03 -0.23837880674E+03  0.52122131662E+03  0.60983452553E+03  0.00000000000E+00 0. -1.
          3    1    5    5  503    0  0.16901161163E+03  0.56618705633E+03  0.45721341813E+03  0.74711231909E+03  0.00000000000E+00 0. -1.
         -4    1    5    5    0  503  0.31629115964E+02  0.15573377757E+03  0.17511025429E+03  0.23646778134E+03  0.00000000000E+00 0.  1.
         -3    1    6    6    0  502 -0.49192361977E+01  0.24254498477E+01  0.17585415119E+02  0.18420871766E+02  0.00000000000E+00 0.  1.
<mgrwt>
<rscale>  0 0.18434008E+04</rscale>
<asrwt>0</asrwt>
<pdfrwt beam="1">  1        2 0.46012917E+00 0.18434008E+04</pdfrwt>
<pdfrwt beam="2">  1       -2 0.43699160E-01 0.18434008E+04</pdfrwt>
<totfact> 0.82707604E+00</totfact>
</mgrwt>
</event>
<event>
12    1  0.1663913E-007  0.1377122E+04  0.7818608E-02  0.8970547E-01
         -2   -1    0    0    0  501 -0.00000000000E+00  0.00000000000E+00  0.28792254785E+03  0.28792254785E+03  0.00000000000E+00 0.  1.
          2   -1    0    0  501    0  0.00000000000E+00 -0.00000000000E+00 -0.16466803260E+04  0.16466803260E+04  0.00000000000E+00 0. -1.
         23    2    1    2    0    0  0.15759637581E+03 -0.20008682376E+03  0.82976719460E+01  0.27057995434E+03  0.90957713360E+02 0.  0.
        254    2    1    2    0    0 -0.15759637581E+03  0.20008682376E+03 -0.13670554501E+04  0.16640229195E+04  0.91392577287E+03 0.  0.
        -24    2    4    4    0    0 -0.39623586496E+03  0.12411038697E+03 -0.19987215973E+03  0.46756922963E+03  0.79157156484E+02 0.  0.
         24    2    4    4    0    0  0.23863948915E+03  0.75976436792E+02 -0.11671832904E+04  0.11964536899E+04  0.80395111875E+02 0.  0.
         11    1    3    3    0    0  0.14122422026E+03 -0.11196168012E+03 -0.29395791223E+01  0.18024521999E+03  0.00000000000E+00 0.  1.
        -11    1    3    3    0    0  0.16372155551E+02 -0.88125143638E+02  0.11237251068E+02  0.90334734350E+02  0.00000000000E+00 0. -1.
          4    1    6    6  502    0  0.93723625422E+02  0.55265875769E+02 -0.35923528925E+03  0.37535107303E+03  0.00000000000E+00 0. -1.
          3    1    5    5  503    0 -0.34885586800E+03  0.12071162934E+03 -0.14933439629E+03  0.39821159703E+03  0.00000000000E+00 0. -1.
         -4    1    5    5    0  503 -0.47379996964E+02  0.33987576274E+01 -0.50537763440E+02  0.69357632596E+02  0.00000000000E+00 0.  1.
         -1    1    6    6    0  502  0.14491586373E+03  0.20710561023E+02 -0.80794800111E+03  0.82110261685E+03  0.00000000000E+00 0.  1.
<mgrwt>
<rscale>  0 0.13771222E+04</rscale>
<asrwt>0</asrwt>
<pdfrwt beam="1">  1        2 0.25333544E+00 0.13771222E+04</pdfrwt>
<pdfrwt beam="2">  1       -2 0.44295775E-01 0.13771222E+04</pdfrwt>
<totfact> 0.49473421E+01</totfact>
</mgrwt>
</event>
<event>
12    1  0.1663913E-007  0.1221408E+04  0.7818608E-02  0.9094322E-01
         -2   -1    0    0    0  501 -0.00000000000E+00  0.00000000000E+00  0.29586401757E+03  0.29586401757E+03  0.00000000000E+00 0.  1.
          2   -1    0    0  501    0  0.00000000000E+00 -0.00000000000E+00 -0.12605773475E+04  0.12605773475E+04  0.00000000000E+00 0. -1.
         23    2    1    2    0    0  0.25061288974E+03  0.81010443001E+02 -0.28690807403E+03  0.39969847970E+03  0.89850538948E+02 0.  0.
        254    2    1    2    0    0 -0.25061288974E+03 -0.81010443001E+02 -0.67780525592E+03  0.11567428854E+04  0.89959136588E+03 0.  0.
        -24    2    4    4    0    0  0.28030470943E+02  0.36272577231E+03 -0.13138694315E+03  0.39523026849E+03  0.81171073049E+02 0.  0.
         24    2    4    4    0    0 -0.27864336068E+03 -0.44373621531E+03 -0.54641831278E+03  0.76151261691E+03  0.82368330955E+02 0.  0.
         11    1    3    3    0    0  0.84304145933E+02 -0.14625755096E+02 -0.10347996342E+03  0.13427287352E+03  0.00000000000E+00 0. -1.
        -11    1    3    3    0    0  0.16630874381E+03  0.95636198096E+02 -0.18342811061E+03  0.26542560618E+03  0.00000000000E+00 0.  1.
          2    1    6    6  502    0 -0.21993088502E+03 -0.38533076208E+03 -0.49154521530E+03  0.66216771974E+03  0.00000000000E+00 0. -1.
          1    1    5    5  503    0  0.92492603892E+01  0.30698864923E+03 -0.13669638578E+03  0.33617477814E+03  0.00000000000E+00 0. -1.
         -2    1    5    5    0  503  0.18781210554E+02  0.55737123083E+02  0.53094426277E+01  0.59055490350E+02  0.00000000000E+00 0.  1.
         -1    1    6    6    0  502 -0.58712475666E+02 -0.58405453228E+02 -0.54873097479E+02  0.99344897164E+02  0.00000000000E+00 0.  1.
<mgrwt>
<rscale>  0 0.12214082E+04</rscale>
<asrwt>0</asrwt>
<pdfrwt beam="1">  1        2 0.19393498E+00 0.12214082E+04</pdfrwt>
<pdfrwt beam="2">  1       -2 0.45517540E-01 0.12214082E+04</pdfrwt>
<totfact> 0.78600003E+01</totfact>
</mgrwt>
</event>
<event>
12    1  0.1663913E-007  0.1497935E+04  0.7818608E-02  0.8885827E-01
          1   -1    0    0  501    0  0.00000000000E+00  0.00000000000E+00  0.93673808191E+03  0.93673808191E+03  0.00000000000E+00 0. -1.
         -1   -1    0    0    0  501 -0.00000000000E+00 -0.00000000000E+00 -0.59883566055E+03  0.59883566055E+03  0.00000000000E+00 0.  1.
         23    2    1    2    0    0  0.38202998844E+03  0.24819049477E+03 -0.10874727769E+02  0.46339743231E+03  0.84104023723E+02 0.  0.
        254    2    1    2    0    0 -0.38202998844E+03 -0.24819049477E+03  0.34877714913E+03  0.10721763102E+04  0.90574339994E+03 0.  0.
        -24    2    4    4    0    0  0.97709063634E+02 -0.46450942883E+03  0.17022350974E+03  0.51072222262E+03  0.80901636736E+02 0.  0.
         24    2    4    4    0    0 -0.47973905207E+03  0.21631893406E+03  0.17855363939E+03  0.56145408753E+03  0.80036560097E+02 0.  0.
         13    1    3    3    0    0  0.33627512842E+03  0.24132837782E+03  0.65444699384E+01  0.41396035803E+03  0.00000000000E+00 0. -1.
        -13    1    3    3    0    0  0.45754860020E+02  0.68621169506E+01 -0.17419197708E+02  0.49437074279E+02  0.00000000000E+00 0.  1.
          4    1    6    6  502    0 -0.30217801838E+03  0.14565489133E+03  0.15283253223E+03  0.36862539938E+03  0.00000000000E+00 0. -1.
          3    1    5    5  503    0  0.83421692952E+02 -0.27598330402E+03  0.13518919539E+03  0.31843693489E+03  0.00000000000E+00 0. -1.
         -4    1    5    5    0  503  0.14287370682E+02 -0.18852612481E+03  0.35034314349E+02  0.19228528773E+03  0.00000000000E+00 0.  1.
         -3    1    6    6    0  502 -0.17756103369E+03  0.70664042723E+02  0.25721107157E+02  0.19282868815E+03  0.00000000000E+00 0.  1.
<mgrwt>
<rscale>  0 0.14979348E+04</rscale>
<asrwt>0</asrwt>
<pdfrwt beam="1">  1        1 0.14411355E+00 0.14979348E+04</pdfrwt>
<pdfrwt beam="2">  1       -1 0.92128562E-01 0.14979348E+04</pdfrwt>
<totfact> 0.18854288E+01</totfact>
</mgrwt>
</event>
<event>
12    1  0.1663913E-007  0.1228794E+04  0.7818608E-02  0.9088020E-01
          2   -1    0    0  501    0  0.00000000000E+00  0.00000000000E+00  0.25058875239E+04  0.25058875239E+04  0.00000000000E+00 0. -1.
         -2   -1    0    0    0  501 -0.00000000000E+00 -0.00000000000E+00 -0.15063866808E+03  0.15063866808E+03  0.00000000000E+00 0.  1.
         23    2    1    2    0    0  0.23130245977E+02 -0.21718719935E+03  0.87182202705E+03  0.90377893097E+03  0.95065353204E+02 0.  0.
        254    2    1    2    0    0 -0.23130245977E+02  0.21718719935E+03  0.14834268288E+04  0.17527472610E+04  0.90766872636E+03 0.  0.
        -24    2    4    4    0    0 -0.72425814986E+02 -0.28298196347E+03  0.17675822029E+03  0.35072792668E+03  0.80264062872E+02 0.  0.
         24    2    4    4    0    0  0.49295569010E+02  0.50016916281E+03  0.13066686085E+04  0.14020193343E+04  0.75340008407E+02 0.  0.
         13    1    3    3    0    0  0.34415627296E+02 -0.34111453681E+02  0.28074051113E+03  0.28489166584E+03  0.00000000000E+00 0. -1.
        -13    1    3    3    0    0 -0.11285381319E+02 -0.18307574566E+03  0.59108151592E+03  0.61888726513E+03  0.00000000000E+00 0.  1.
          2    1    6    6  502    0 -0.89931662985E+01  0.10793122238E+03  0.21897569634E+03  0.24429568435E+03  0.00000000000E+00 0. -1.
          3    1    5    5  503    0  0.10338923381E+02 -0.34247261473E+01  0.10370342536E+02  0.15038819441E+02  0.00000000000E+00 0. -1.
         -4    1    5    5    0  503 -0.82764738368E+02 -0.27955723732E+03  0.16638787775E+03  0.33568910724E+03  0.00000000000E+00 0.  1.
         -1    1    6    6    0  502  0.58288735308E+02  0.39223794043E+03  0.10876929122E+04  0.11577236500E+04  0.00000000000E+00 0.  1.
<mgrwt>
<rscale>  0 0.12287938E+04</rscale>
<asrwt>0</asrwt>
<pdfrwt beam="1">  1        2 0.38552113E+00 0.12287938E+04</pdfrwt>
<pdfrwt beam="2">  1       -2 0.23175182E-01 0.12287938E+04</pdfrwt>
<totfact> 0.56291408E+01</totfact>
</mgrwt>
</event>
<event>
12    1  0.1663913E-007  0.1905714E+04  0.7818608E-02  0.8652017E-01
          1   -1    0    0  501    0  0.00000000000E+00  0.00000000000E+00  0.69871989328E+03  0.69871989328E+03  0.00000000000E+00 0. -1.
         -1   -1    0    0    0  501 -0.00000000000E+00 -0.00000000000E+00 -0.12994282322E+04  0.12994282322E+04  0.00000000000E+00 0.  1.
         23    2    1    2    0    0 -0.53482919193E+02 -0.37438506879E+03  0.42646263817E+03  0.57797875344E+03  0.95731161610E+02 0.  0.
        254    2    1    2    0    0  0.53482919193E+02  0.37438506879E+03 -0.10271709771E+04  0.14201693720E+04  0.90486254577E+03 0.  0.
        -24    2    4    4    0    0 -0.32909548063E+03 -0.81365772112E+02 -0.55827680021E+03  0.65812241116E+03  0.80795409373E+02 0.  0.
         24    2    4    4    0    0  0.38257839982E+03  0.45575084090E+03 -0.46889417688E+03  0.76204696089E+03  0.82333228397E+02 0.  0.
         11    1    3    3    0    0  0.15927540275E+02 -0.20985425515E+03  0.20915778483E+03  0.29671446526E+03  0.00000000000E+00 0. -1.
        -11    1    3    3    0    0 -0.69410459467E+02 -0.16453081364E+03  0.21730485334E+03  0.28126428818E+03  0.00000000000E+00 0.  1.
          2    1    6    6  502    0  0.29800362515E+03  0.37685755381E+03 -0.41314330908E+03  0.63365224714E+03  0.00000000000E+00 0. -1.
          3    1    5    5  503    0 -0.14993884300E+03 -0.17639564786E+02 -0.18151342882E+03  0.23609306582E+03  0.00000000000E+00 0. -1.
         -4    1    5    5    0  503 -0.17915663763E+03 -0.63726207326E+02 -0.37676337139E+03  0.42202934534E+03  0.00000000000E+00 0.  1.
         -1    1    6    6    0  502  0.84574774673E+02  0.78893287089E+02 -0.55750867799E+02  0.12839471375E+03  0.00000000000E+00 0.  1.
<mgrwt>
<rscale>  0 0.19057139E+04</rscale>
<asrwt>0</asrwt>
<pdfrwt beam="1">  1        1 0.10749537E+00 0.19057139E+04</pdfrwt>
<pdfrwt beam="2">  1       -1 0.19991203E+00 0.19057139E+04</pdfrwt>
<totfact> 0.38500008E+00</totfact>
</mgrwt>
</event>
<event>
12    1  0.1663913E-007  0.1458322E+04  0.7818608E-02  0.8912652E-01
          1   -1    0    0  501    0  0.00000000000E+00  0.00000000000E+00  0.19748222385E+04  0.19748222385E+04  0.00000000000E+00 0. -1.
         -1   -1    0    0    0  501 -0.00000000000E+00 -0.00000000000E+00 -0.26922702938E+03  0.26922702938E+03  0.00000000000E+00 0.  1.
         23    2    1    2    0    0  0.39675995015E+03 -0.13387394023E+03  0.85115625436E+03  0.95297794529E+03  0.91429234646E+02 0.  0.
        254    2    1    2    0    0 -0.39675995015E+03  0.13387394023E+03  0.85443895471E+03  0.12910713226E+04  0.87261591933E+03 0.  0.
        -24    2    4    4    0    0 -0.24431479552E+03  0.22418624550E+03 -0.68875692354E+02  0.34760891886E+03  0.78351180524E+02 0.  0.
         24    2    4    4    0    0 -0.15244515463E+03 -0.90312305266E+02  0.92331464706E+03  0.94346240369E+03  0.78838645672E+02 0.  0.
         13    1    3    3    0    0  0.22505832299E+03 -0.81967005752E+02  0.38411194584E+03  0.45267187422E+03  0.00000000000E+00 0.  1.
        -13    1    3    3    0    0  0.17170162716E+03 -0.51906934482E+02  0.46704430853E+03  0.50030607106E+03  0.00000000000E+00 0. -1.
          4    1    6    6  502    0 -0.10165982536E+03 -0.66921009528E+02  0.78325189432E+03  0.79265167102E+03  0.00000000000E+00 0. -1.
          3    1    5    5  503    0 -0.20626662201E+03  0.18079860163E+03 -0.25605520410E+02  0.27548084577E+03  0.00000000000E+00 0. -1.
         -4    1    5    5    0  503 -0.38048173511E+02  0.43387643869E+02 -0.43270171944E+02  0.72128073093E+02  0.00000000000E+00 0.  1.
         -3    1    6    6    0  502 -0.50785329265E+02 -0.23391295739E+02  0.14006275274E+03  0.15081073268E+03  0.00000000000E+00 0.  1.
<mgrwt>
<rscale>  0 0.14583217E+04</rscale>
<asrwt>0</asrwt>
<pdfrwt beam="1">  1        1 0.30381880E+00 0.14583217E+04</pdfrwt>
<pdfrwt beam="2">  1       -1 0.41419544E-01 0.14583217E+04</pdfrwt>
<totfact> 0.17197602E+01</totfact>
</mgrwt>
</event>
<event>
12    1  0.1663913E-007  0.1582455E+04  0.7818608E-02  0.8831400E-01
          2   -1    0    0  501    0  0.00000000000E+00  0.00000000000E+00  0.25976531016E+04  0.25976531016E+04  0.00000000000E+00 0. -1.
         -2   -1    0    0    0  501 -0.00000000000E+00 -0.00000000000E+00 -0.24100258147E+03  0.24100258147E+03  0.00000000000E+00 0.  1.
         23    2    1    2    0    0  0.38465776438E+03  0.19244579557E+01  0.14834074998E+04  0.15378554704E+04  0.12859369425E+03 0.  0.
        254    2    1    2    0    0 -0.38465776438E+03 -0.19244579557E+01  0.87324302030E+03  0.13008002126E+04  0.88406024762E+03 0.  0.
        -24    2    4    4    0    0 -0.43486595671E+02  0.31251414337E+03  0.19550585124E+02  0.32594583740E+03  0.79386961961E+02 0.  0.
         24    2    4    4    0    0 -0.34117116871E+03 -0.31443860133E+03  0.85369243518E+03  0.97485437523E+03  0.79251994652E+02 0.  0.
         13    1    3    3    0    0  0.21185630728E+02 -0.13019632759E+02  0.27012575007E+02  0.36715405418E+02  0.00000000000E+00 0.  1.
        -13    1    3    3    0    0  0.36347213365E+03  0.14944090714E+02  0.14563949248E+04  0.15011400650E+04  0.00000000000E+00 0. -1.
          4    1    6    6  502    0 -0.34355161949E+03 -0.31426196494E+03  0.85375801913E+03  0.97246647916E+03  0.00000000000E+00 0. -1.
          3    1    5    5  503    0 -0.48231271844E+02  0.24912001707E+03  0.44565575513E+02  0.25762982942E+03  0.00000000000E+00 0. -1.
         -4    1    5    5    0  503  0.47446761731E+01  0.63394126300E+02 -0.25014990388E+02  0.68316007974E+02  0.00000000000E+00 0.  1.
         -3    1    6    6    0  502  0.23804507841E+01 -0.17663638990E+00 -0.65583956303E-01  0.23878960625E+01  0.00000000000E+00 0.  1.
<mgrwt>
<rscale>  0 0.15824552E+04</rscale>
<asrwt>0</asrwt>
<pdfrwt beam="1">  1        2 0.39963892E+00 0.15824552E+04</pdfrwt>
<pdfrwt beam="2">  1       -2 0.37077322E-01 0.15824552E+04</pdfrwt>
<totfact> 0.20155679E+01</totfact>
</mgrwt>
</event>
<event>
12    1  0.1663913E-007  0.2358958E+04  0.7818608E-02  0.8455031E-01
         -2   -1    0    0    0  501 -0.00000000000E+00  0.00000000000E+00  0.33886370691E+03  0.33886370691E+03  0.00000000000E+00 0.  1.
          2   -1    0    0  501    0  0.00000000000E+00 -0.00000000000E+00 -0.41053991585E+04  0.41053991585E+04  0.00000000000E+00 0. -1.
         23    2    1    2    0    0  0.28763776172E+03  0.78934402650E+03 -0.26427694177E+04  0.27746405120E+04  0.92737811760E+02 0.  0.
        254    2    1    2    0    0 -0.28763776172E+03 -0.78934402650E+03 -0.11237660339E+04  0.16696223534E+04  0.90498023730E+03 0.  0.
        -24    2    4    4    0    0 -0.35086542388E+03  0.42929697780E+02 -0.53148107803E+03  0.64316475100E+03  0.78988961217E+02 0.  0.
         24    2    4    4    0    0  0.63227662159E+02 -0.83227372428E+03 -0.59228495590E+03  0.10264576024E+04  0.78335504114E+02 0.  0.
         11    1    3    3    0    0  0.23013593580E+03  0.71480355310E+03 -0.23640460282E+04  0.24804475991E+04  0.00000000000E+00 0. -1.
        -11    1    3    3    0    0  0.57501825926E+02  0.74540473394E+02 -0.27872338946E+03  0.29419291288E+03  0.00000000000E+00 0.  1.
          2    1    6    6  502    0  0.71582370879E+02 -0.80018217392E+03 -0.55435920245E+03  0.97607872255E+03  0.00000000000E+00 0. -1.
          3    1    5    5  503    0 -0.23128229041E+03 -0.92515338220E+01 -0.32807745645E+03  0.40151202494E+03  0.00000000000E+00 0. -1.
         -4    1    5    5    0  503 -0.11958313348E+03  0.52181231602E+02 -0.20340362158E+03  0.24165272607E+03  0.00000000000E+00 0.  1.
         -1    1    6    6    0  502 -0.83547087199E+01 -0.32091550354E+02 -0.37925753458E+02  0.50378879873E+02  0.00000000000E+00 0.  1.
<mgrwt>
<rscale>  0 0.23589581E+04</rscale>
<asrwt>0</asrwt>
<pdfrwt beam="1">  1        2 0.63159984E+00 0.23589581E+04</pdfrwt>
<pdfrwt beam="2">  1       -2 0.52132881E-01 0.23589581E+04</pdfrwt>
<totfact> 0.88277355E-01</totfact>
</mgrwt>
</event>
<event>
12    1  0.1663913E-007  0.1420675E+04  0.7818608E-02  0.8938988E-01
          2   -1    0    0  501    0  0.00000000000E+00  0.00000000000E+00  0.24133598929E+04  0.24133598929E+04  0.00000000000E+00 0.  1.
         -2   -1    0    0    0  501 -0.00000000000E+00 -0.00000000000E+00 -0.20907745215E+03  0.20907745215E+03  0.00000000000E+00 0. -1.
         23    2    1    2    0    0  0.11140218967E+03  0.11580396485E+03 -0.36842153823E+02  0.19076672254E+03  0.95987457480E+02 0.  0.
        254    2    1    2    0    0 -0.11140218967E+03 -0.11580396485E+03  0.22411245945E+04  0.24316706225E+04  0.92981802616E+03 0.  0.
        -24    2    4    4    0    0 -0.91992268120E+02  0.23653005043E+03  0.19480637820E+04  0.19661698469E+04  0.80388594144E+02 0.  0.
         24    2    4    4    0    0 -0.19409921548E+02 -0.35233401528E+03  0.29306081255E+03  0.46550077555E+03  0.79311593181E+02 0.  0.
         11    1    3    3    0    0  0.11828445195E+03  0.79711206394E+02 -0.59457953328E+01  0.14276008014E+03  0.00000000000E+00 0. -1.
        -11    1    3    3    0    0 -0.68822622854E+01  0.36092758453E+02 -0.30896358490E+02  0.48006642403E+02  0.00000000000E+00 0.  1.
          4    1    6    6  502    0  0.11157115101E+02 -0.49414090843E+01  0.50314744370E+01  0.13199033151E+02  0.00000000000E+00 0. -1.
          1    1    5    5  503    0 -0.78783109379E+02  0.92671752529E+02  0.86122167683E+03  0.86976870988E+03  0.00000000000E+00 0. -1.
         -2    1    5    5    0  503 -0.13209158741E+02  0.14385829790E+03  0.10868421052E+04  0.10964011370E+04  0.00000000000E+00 0.  1.
         -3    1    6    6    0  502 -0.30567036649E+02 -0.34739260619E+03  0.28802933812E+03  0.45230174240E+03  0.00000000000E+00 0.  1.
<mgrwt>
<rscale>  0 0.14206747E+04</rscale>
<asrwt>0</asrwt>
<pdfrwt beam="1">  1        2 0.37128612E+00 0.14206747E+04</pdfrwt>
<pdfrwt beam="2">  1       -2 0.32165764E-01 0.14206747E+04</pdfrwt>
<totfact> 0.34244030E+01</totfact>
</mgrwt>
</event>
<event>
12    1  0.1663913E-007  0.1806285E+04  0.7818608E-02  0.8702964E-01
          2   -1    0    0  501    0  0.00000000000E+00  0.00000000000E+00  0.19004445287E+04  0.19004445287E+04  0.00000000000E+00 0.  1.
         -2   -1    0    0    0  501 -0.00000000000E+00 -0.00000000000E+00 -0.42919780527E+03  0.42919780527E+03  0.00000000000E+00 0. -1.
         23    2    1    2    0    0 -0.57816214352E+03  0.91413272443E+02  0.12012213607E+03  0.60415058957E+03  0.89110923691E+02 0.  0.
        254    2    1    2    0    0  0.57816214352E+03 -0.91413272443E+02  0.13511245873E+04  0.17254917444E+04  0.89953113278E+03 0.  0.
        -24    2    4    4    0    0  0.22926064939E+03  0.16944783797E+03 -0.81333518441E+01  0.29593091266E+03  0.78967958703E+02 0.  0.
         24    2    4    4    0    0  0.34890149413E+03 -0.26086111041E+03  0.13592579392E+04  0.14295608317E+04  0.79254367923E+02 0.  0.
         13    1    3    3    0    0 -0.34373381349E+03  0.38591083653E+02  0.28846770186E+02  0.34709414058E+03  0.00000000000E+00 0.  1.
        -13    1    3    3    0    0 -0.23442833003E+03  0.52822188791E+02  0.91275365881E+02  0.25705644899E+03  0.00000000000E+00 0. -1.
          2    1    6    6  502    0  0.11785834129E+03 -0.84750523790E+02  0.33959381845E+03  0.36931991744E+03  0.00000000000E+00 0. -1.
          1    1    5    5  503    0  0.27499144738E+01  0.87332513476E+01  0.14637037590E+02  0.17264836464E+02  0.00000000000E+00 0. -1.
         -2    1    5    5    0  503  0.22651073492E+03  0.16071458662E+03 -0.22770389434E+02  0.27866607619E+03  0.00000000000E+00 0.  1.
         -1    1    6    6    0  502  0.23104315285E+03 -0.17611058662E+03  0.10196641207E+04  0.10602409143E+04  0.00000000000E+00 0.  1.
<mgrwt>
<rscale>  0 0.18062853E+04</rscale>
<asrwt>0</asrwt>
<pdfrwt beam="1">  1        2 0.29237608E+00 0.18062853E+04</pdfrwt>
<pdfrwt beam="2">  1       -2 0.66030433E-01 0.18062853E+04</pdfrwt>
<totfact> 0.15111234E+01</totfact>
</mgrwt>
</event>
<event>
12    1  0.1663913E-007  0.2395947E+04  0.7818608E-02  0.8441022E-01
         -2   -1    0    0    0  501 -0.00000000000E+00  0.00000000000E+00  0.49545391553E+03  0.49545391553E+03  0.00000000000E+00 0. -1.
          2   -1    0    0  501    0  0.00000000000E+00 -0.00000000000E+00 -0.28966187358E+04  0.28966187358E+04  0.00000000000E+00 0.  1.
         23    2    1    2    0    0 -0.79568751966E+03  0.62303456516E+03 -0.78217101020E+03  0.12811969572E+04  0.91561212820E+02 0.  0.
        254    2    1    2    0    0  0.79568751966E+03 -0.62303456516E+03 -0.16189938101E+04  0.21108756941E+04  0.90186725221E+03 0.  0.
        -24    2    4    4    0    0  0.64091448865E+03 -0.83079235736E+02 -0.39483980001E+03  0.76163447218E+03  0.80715923937E+02 0.  0.
         24    2    4    4    0    0  0.15477303102E+03 -0.53995532942E+03 -0.12241540101E+04  0.13492412219E+04  0.79952396343E+02 0.  0.
         13    1    3    3    0    0 -0.13798885458E+03  0.11130226539E+03 -0.18324275649E+03  0.25496475458E+03  0.00000000000E+00 0.  1.
        -13    1    3    3    0    0 -0.65769866508E+03  0.51173229977E+03 -0.59892825370E+03  0.10262322027E+04  0.00000000000E+00 0. -1.
          2    1    6    6  502    0  0.56834796573E+02 -0.30690604983E+03 -0.73802850432E+03  0.80131616151E+03  0.00000000000E+00 0. -1.
          1    1    5    5  503    0  0.33091894341E+03 -0.83539054511E+02 -0.20761171697E+03  0.39948560144E+03  0.00000000000E+00 0. -1.
         -2    1    5    5    0  503  0.30999554524E+03  0.45981877414E+00 -0.18722808304E+03  0.36214887074E+03  0.00000000000E+00 0.  1.
         -1    1    6    6    0  502  0.97938234443E+02 -0.23304927960E+03 -0.48612550577E+03  0.54792506043E+03  0.00000000000E+00 0.  1.
<mgrwt>
<rscale>  0 0.23959475E+04</rscale>
<asrwt>0</asrwt>
<pdfrwt beam="1">  1        2 0.44563365E+00 0.23959475E+04</pdfrwt>
<pdfrwt beam="2">  1       -2 0.76223679E-01 0.23959475E+04</pdfrwt>
<totfact> 0.27979625E+00</totfact>
</mgrwt>
</event>
<event>
12    1  0.1663913E-007  0.1418053E+04  0.7818608E-02  0.8940854E-01
          1   -1    0    0  501    0  0.00000000000E+00  0.00000000000E+00  0.16324102583E+04  0.16324102583E+04  0.00000000000E+00 0. -1.
         -1   -1    0    0    0  501 -0.00000000000E+00 -0.00000000000E+00 -0.30796075199E+03  0.30796075199E+03  0.00000000000E+00 0.  1.
         23    2    1    2    0    0  0.40929996320E+03  0.46142138778E+02  0.27467974618E+03  0.50238651483E+03  0.85367970995E+02 0.  0.
        254    2    1    2    0    0 -0.40929996320E+03 -0.46142138778E+02  0.10497697602E+04  0.14379844955E+04  0.89225966127E+03 0.  0.
        -24    2    4    4    0    0 -0.52603584629E+03  0.13262573221E+03  0.10755901610E+04  0.12079212975E+04  0.88748915510E+02 0.  0.
         24    2    4    4    0    0  0.11673588310E+03 -0.17876787099E+03 -0.25820400821E+02  0.23006319806E+03  0.81713914981E+02 0.  0.
         13    1    3    3    0    0  0.97243513238E+02 -0.22863421445E+02  0.81675833842E+02  0.12903479663E+03  0.00000000000E+00 0. -1.
        -13    1    3    3    0    0  0.31205644996E+03  0.69005560222E+02  0.19300391234E+03  0.37335171820E+03  0.00000000000E+00 0.  1.
          2    1    6    6  502    0  0.92103740089E+02 -0.81338210742E+02  0.10216683890E+02  0.12330200361E+03  0.00000000000E+00 0. -1.
          1    1    5    5  503    0 -0.24246009676E+03  0.37231368182E+02  0.40297381693E+03  0.47176368070E+03  0.00000000000E+00 0. -1.
         -2    1    5    5    0  503 -0.28357574953E+03  0.95394364028E+02  0.67261634407E+03  0.73615761676E+03  0.00000000000E+00 0.  1.
         -1    1    6    6    0  502  0.24632143009E+02 -0.97429660245E+02 -0.36037084711E+02  0.10676119444E+03  0.00000000000E+00 0.  1.
<mgrwt>
<rscale>  0 0.14180526E+04</rscale>
<asrwt>0</asrwt>
<pdfrwt beam="1">  1        1 0.25114003E+00 0.14180526E+04</pdfrwt>
<pdfrwt beam="2">  1       -1 0.47378578E-01 0.14180526E+04</pdfrwt>
<totfact> 0.22949028E+01</totfact>
</mgrwt>
</event>
<event>
12    1  0.1663913E-007  0.1329608E+04  0.7818608E-02  0.9006410E-01
          2   -1    0    0  501    0  0.00000000000E+00  0.00000000000E+00  0.17904205393E+04  0.17904205393E+04  0.00000000000E+00 0. -1.
         -2   -1    0    0    0  501 -0.00000000000E+00 -0.00000000000E+00 -0.24684933094E+03  0.24684933094E+03  0.00000000000E+00 0.  1.
         23    2    1    2    0    0  0.50096159171E+02 -0.34607151162E+03  0.44991380926E+03  0.57711793634E+03  0.91474369990E+02 0.  0.
        254    2    1    2    0    0 -0.50096159171E+02  0.34607151162E+03  0.10936573991E+04  0.14601519339E+04  0.90204326237E+03 0.  0.
        -24    2    4    4    0    0 -0.40278750025E+03  0.37505489289E+03  0.87399366929E+03  0.10359250104E+04  0.79823243582E+02 0.  0.
         24    2    4    4    0    0  0.35269134108E+03 -0.28983381271E+02  0.21966372983E+03  0.42422692351E+03  0.80530180455E+02 0.  0.
         11    1    3    3    0    0  0.49646780977E+02 -0.22465799083E+03  0.35486319431E+03  0.42292304545E+03  0.00000000000E+00 0.  1.
        -11    1    3    3    0    0  0.44937819447E+00 -0.12141352079E+03  0.95050614952E+02  0.15419489088E+03  0.00000000000E+00 0. -1.
          4    1    6    6  502    0  0.17867411672E+03 -0.59349629559E+01  0.64840384123E+02  0.19016818657E+03  0.00000000000E+00 0. -1.
          1    1    5    5  503    0 -0.33124230981E+03  0.33893679943E+03  0.71381241572E+03  0.85681257382E+03  0.00000000000E+00 0. -1.
         -2    1    5    5    0  503 -0.71545190439E+02  0.36118093459E+02  0.16018125357E+03  0.17911243660E+03  0.00000000000E+00 0.  1.
         -3    1    6    6    0  502  0.17401722437E+03 -0.23048418315E+02  0.15482334571E+03  0.23405873694E+03  0.00000000000E+00 0.  1.
<mgrwt>
<rscale>  0 0.13296076E+04</rscale>
<asrwt>0</asrwt>
<pdfrwt beam="1">  1        2 0.27544930E+00 0.13296076E+04</pdfrwt>
<pdfrwt beam="2">  1       -2 0.37976821E-01 0.13296076E+04</pdfrwt>
<totfact> 0.55923574E+01</totfact>
</mgrwt>
</event>
<event>
12    1  0.1663913E-007  0.3062779E+04  0.7818608E-02  0.8226028E-01
          1   -1    0    0  501    0  0.00000000000E+00  0.00000000000E+00  0.22733431973E+04  0.22733431973E+04  0.00000000000E+00 0. -1.
         -1   -1    0    0    0  501 -0.00000000000E+00 -0.00000000000E+00 -0.10315884416E+04  0.10315884416E+04  0.00000000000E+00 0.  1.
         23    2    1    2    0    0 -0.84025159146E+03  0.86880550015E+03  0.13182873422E+04  0.17908781290E+04  0.92288797714E+02 0.  0.
        254    2    1    2    0    0  0.84025159146E+03 -0.86880550015E+03 -0.76532586512E+02  0.15140535099E+04  0.90865563335E+03 0.  0.
        -24    2    4    4    0    0  0.15182868746E+03 -0.88091463995E+02 -0.38046671054E+03  0.42670127884E+03  0.80666022399E+02 0.  0.
         24    2    4    4    0    0  0.68842290400E+03 -0.78071403616E+03  0.30393412403E+03  0.10873522311E+04  0.80736742872E+02 0.  0.
         11    1    3    3    0    0 -0.23817418612E+03  0.30782535023E+03  0.41610850948E+03  0.56976282858E+03  0.00000000000E+00 0.  1.
        -11    1    3    3    0    0 -0.60207740535E+03  0.56098014993E+03  0.90217883273E+03  0.12211153004E+04  0.00000000000E+00 0. -1.
          4    1    6    6  502    0  0.20086861308E+03 -0.24845305578E+03  0.57466507245E+02  0.32462211894E+03  0.00000000000E+00 0. -1.
          1    1    5    5  503    0  0.12075312387E+02 -0.34884591881E+01  0.81004100381E-01  0.12569370645E+02  0.00000000000E+00 0. -1.
         -2    1    5    5    0  503  0.13975337507E+03 -0.84603004807E+02 -0.38054771464E+03  0.41413190820E+03  0.00000000000E+00 0.  1.
         -3    1    6    6    0  502  0.48755429093E+03 -0.53226098037E+03  0.24646761679E+03  0.76273011213E+03  0.00000000000E+00 0.  1.
<mgrwt>
<rscale>  0 0.30627795E+04</rscale>
<asrwt>0</asrwt>
<pdfrwt beam="1">  1        1 0.34974511E+00 0.30627795E+04</pdfrwt>
<pdfrwt beam="2">  1       -1 0.15870591E+00 0.30627795E+04</pdfrwt>
<totfact> 0.49110076E-01</totfact>
</mgrwt>
</event>
<event>
12    1  0.1663913E-007  0.2979210E+04  0.7818608E-02  0.8249693E-01
         -2   -1    0    0    0  501 -0.00000000000E+00  0.00000000000E+00  0.13852571077E+04  0.13852571077E+04  0.00000000000E+00 0.  1.
          2   -1    0    0  501    0  0.00000000000E+00 -0.00000000000E+00 -0.16018130415E+04  0.16018130415E+04  0.00000000000E+00 0. -1.
         23    2    1    2    0    0 -0.11674669645E+04  0.51095920088E+02 -0.77629215498E+03  0.14059180905E+04  0.91576531533E+02 0.  0.
        254    2    1    2    0    0  0.11674669645E+04 -0.51095920088E+02  0.55973622120E+03  0.15811520587E+04  0.90617177678E+03 0.  0.
        -24    2    4    4    0    0  0.10069660537E+04 -0.70730027231E+02  0.21016619367E+02  0.10130017484E+04  0.82143010064E+02 0.  0.
         24    2    4    4    0    0  0.16050091084E+03  0.19634107142E+02  0.53871960183E+03  0.56815031021E+03  0.80186813457E+02 0.  0.
         11    1    3    3    0    0 -0.40258097814E+02  0.63281898604E+01 -0.48845035568E+02  0.63612875474E+02  0.00000000000E+00 0.  1.
        -11    1    3    3    0    0 -0.11272088667E+04  0.44767730228E+02 -0.72744711941E+03  0.13423052150E+04  0.00000000000E+00 0. -1.
          2    1    6    6  502    0  0.89922811529E+02  0.15664608408E+02  0.17239957895E+03  0.19507205543E+03  0.00000000000E+00 0. -1.
          1    1    5    5  503    0  0.45867614890E+03 -0.18739630679E+02 -0.29078407012E+02  0.45997884417E+03  0.00000000000E+00 0. -1.
         -2    1    5    5    0  503  0.54828990475E+03 -0.51990396552E+02  0.50095026379E+02  0.55302290428E+03  0.00000000000E+00 0.  1.
         -1    1    6    6    0  502  0.70578099315E+02  0.39694987340E+01  0.36632002289E+03  0.37307825478E+03  0.00000000000E+00 0.  1.
<mgrwt>
<rscale>  0 0.29792099E+04</rscale>
<asrwt>0</asrwt>
<pdfrwt beam="1">  1        2 0.24643278E+00 0.29792099E+04</pdfrwt>
<pdfrwt beam="2">  1       -2 0.21311648E+00 0.29792099E+04</pdfrwt>
<totfact> 0.10432737E+00</totfact>
</mgrwt>
</event>
<event>
12    1  0.1663913E-007  0.1267097E+04  0.7818608E-02  0.9056072E-01
         -1   -1    0    0    0  501 -0.00000000000E+00  0.00000000000E+00  0.17083838214E+03  0.17083838214E+03  0.00000000000E+00 0.  1.
          1   -1    0    0  501    0  0.00000000000E+00 -0.00000000000E+00 -0.23494938437E+04  0.23494938437E+04  0.00000000000E+00 0. -1.
         23    2    1    2    0    0  0.23313432204E+03  0.18095520662E+03 -0.40120087991E+03  0.50620418692E+03  0.90466203091E+02 0.  0.
        254    2    1    2    0    0 -0.23313432204E+03 -0.18095520662E+03 -0.17774545816E+04  0.20141280389E+04  0.90015030321E+03 0.  0.
        -24    2    4    4    0    0 -0.90982618834E+02 -0.36089887567E+03 -0.17240528606E+04  0.17651836597E+04  0.70634630723E+02 0.  0.
         24    2    4    4    0    0 -0.14215170320E+03  0.17994366905E+03 -0.53401721071E+02  0.24894437920E+03  0.80837672952E+02 0.  0.
         13    1    3    3    0    0  0.11607056220E+03  0.76630193389E+02 -0.26153497868E+03  0.29621800590E+03  0.00000000000E+00 0. -1.
        -13    1    3    3    0    0  0.11706375983E+03  0.10432501323E+03 -0.13966590123E+03  0.20998618102E+03  0.00000000000E+00 0.  1.
          2    1    6    6  502    0 -0.13925866807E+03  0.17617531003E+03 -0.31778222453E+02  0.22680514085E+03  0.00000000000E+00 0. -1.
          1    1    5    5  503    0 -0.64214358926E+02 -0.28515570843E+03 -0.14682800154E+04  0.14970916690E+04  0.00000000000E+00 0. -1.
         -2    1    5    5    0  503 -0.26768259909E+02 -0.75743167238E+02 -0.25577284518E+03  0.26809199065E+03  0.00000000000E+00 0.  1.
         -1    1    6    6    0  502 -0.28930351292E+01  0.37683590203E+01 -0.21623498617E+02  0.22139238343E+02  0.00000000000E+00 0.  1.
<mgrwt>
<rscale>  0 0.12670970E+04</rscale>
<asrwt>0</asrwt>
<pdfrwt beam="1">  1        1 0.36146058E+00 0.12670970E+04</pdfrwt>
<pdfrwt beam="2">  1       -1 0.26282829E-01 0.12670970E+04</pdfrwt>
<totfact> 0.21865458E+01</totfact>
</mgrwt>
</event>
<event>
12    1  0.1663913E-007  0.1153555E+04  0.7818608E-02  0.9154510E-01
         -2   -1    0    0    0  501 -0.00000000000E+00  0.00000000000E+00  0.25060506402E+03  0.25060506402E+03  0.00000000000E+00 0. -1.
          2   -1    0    0  501    0  0.00000000000E+00 -0.00000000000E+00 -0.13274764142E+04  0.13274764142E+04  0.00000000000E+00 0.  1.
         23    2    1    2    0    0  0.14030759830E+02 -0.20891902888E+03 -0.29141771475E+03  0.37026683900E+03  0.91264586477E+02 0.  0.
        254    2    1    2    0    0 -0.14030759830E+02  0.20891902888E+03 -0.78545363543E+03  0.12078146392E+04  0.89332791654E+03 0.  0.
        -24    2    4    4    0    0  0.14951014306E+03  0.12379665521E+03 -0.93488691094E+03  0.95813986118E+03  0.79621370315E+02 0.  0.
         24    2    4    4    0    0 -0.16354090289E+03  0.85122373668E+02  0.14943327551E+03  0.24967477804E+03  0.77561237368E+02 0.  0.
         13    1    3    3    0    0  0.16704770478E+02 -0.11114433211E+03 -0.22655944120E+03  0.25290569846E+03  0.00000000000E+00 0.  1.
        -13    1    3    3    0    0 -0.26740106481E+01 -0.97774696769E+02 -0.64858273550E+02  0.11736114054E+03  0.00000000000E+00 0. -1.
          4    1    6    6  502    0  0.65138263994E+01  0.13532387804E+02  0.16195641465E+02  0.22087423039E+02  0.00000000000E+00 0. -1.
          3    1    5    5  503    0  0.58612038183E+02  0.10301621273E+02 -0.18673561228E+03  0.19598898774E+03  0.00000000000E+00 0. -1.
         -4    1    5    5    0  503  0.90898104881E+02  0.11349503394E+03 -0.74815129866E+03  0.76215087344E+03  0.00000000000E+00 0.  1.
         -3    1    6    6    0  502 -0.17005472929E+03  0.71589985864E+02  0.13323763405E+03  0.22758735501E+03  0.00000000000E+00 0.  1.
<mgrwt>
<rscale>  0 0.11535550E+04</rscale>
<asrwt>0</asrwt>
<pdfrwt beam="1">  1        2 0.20422714E+00 0.11535550E+04</pdfrwt>
<pdfrwt beam="2">  1       -2 0.38554626E-01 0.11535550E+04</pdfrwt>
<totfact> 0.10013953E+02</totfact>
</mgrwt>
</event>
<event>
12    1  0.1663913E-007  0.1165478E+04  0.7818608E-02  0.9143622E-01
          1   -1    0    0  501    0  0.00000000000E+00  0.00000000000E+00  0.22693395894E+04  0.22693395894E+04  0.00000000000E+00 0. -1.
         -1   -1    0    0    0  501 -0.00000000000E+00 -0.00000000000E+00 -0.14964027948E+03  0.14964027948E+03  0.00000000000E+00 0.  1.
         23    2    1    2    0    0 -0.21889505842E+03  0.83530570215E+01  0.36802226255E+03  0.43747432521E+03  0.89210869977E+02 0.  0.
        254    2    1    2    0    0  0.21889505842E+03 -0.83530570215E+01  0.17516770474E+04  0.19815055437E+04  0.90000384509E+03 0.  0.
        -24    2    4    4    0    0 -0.31676301918E+03  0.13739017328E+03  0.82883039570E+03  0.90157252185E+03  0.81598512836E+02 0.  0.
         24    2    4    4    0    0  0.53565807760E+03 -0.14574323030E+03  0.92284665171E+03  0.10799330219E+04  0.80241659072E+02 0.  0.
         11    1    3    3    0    0 -0.10117519502E+03 -0.19216923409E+02  0.24114468004E+03  0.26221454374E+03  0.00000000000E+00 0. -1.
        -11    1    3    3    0    0 -0.11771986340E+03  0.27569980430E+02  0.12687758251E+03  0.17525978147E+03  0.00000000000E+00 0.  1.
          2    1    6    6  502    0  0.40848817316E+03 -0.83337191559E+02  0.72984885534E+03  0.84052782627E+03  0.00000000000E+00 0. -1.
          1    1    5    5  503    0 -0.26614530811E+03  0.87408592975E+02  0.70729284845E+03  0.76074750123E+03  0.00000000000E+00 0. -1.
         -2    1    5    5    0  503 -0.50617711071E+02  0.49981580304E+02  0.12153754724E+03  0.14082502062E+03  0.00000000000E+00 0.  1.
         -1    1    6    6    0  502  0.12716990444E+03 -0.62406038741E+02  0.19299779638E+03  0.23940519559E+03  0.00000000000E+00 0.  1.
<mgrwt>
<rscale>  0 0.11654778E+04</rscale>
<asrwt>0</asrwt>
<pdfrwt beam="1">  1        1 0.34912914E+00 0.11654778E+04</pdfrwt>
<pdfrwt beam="2">  1       -1 0.23021583E-01 0.11654778E+04</pdfrwt>
<totfact> 0.31397849E+01</totfact>
</mgrwt>
</event>
<event>
12    1  0.1663913E-007  0.1421392E+04  0.7818608E-02  0.8938478E-01
          1   -1    0    0  501    0  0.00000000000E+00  0.00000000000E+00  0.35644915126E+04  0.35644915126E+04  0.00000000000E+00 0. -1.
         -1   -1    0    0    0  501 -0.00000000000E+00 -0.00000000000E+00 -0.14170009271E+03  0.14170009271E+03  0.00000000000E+00 0.  1.
         23    2    1    2    0    0  0.38781334510E+02 -0.38256735666E+03  0.59194224987E+03  0.71117636696E+03  0.86685774225E+02 0.  0.
        254    2    1    2    0    0 -0.38781334510E+02  0.38256735666E+03  0.28308491700E+04  0.29950152383E+04  0.89919268251E+03 0.  0.
        -24    2    4    4    0    0  0.31932309640E+03 -0.95712964108E+02  0.68525565296E+03  0.76657283002E+03  0.83248918391E+02 0.  0.
         24    2    4    4    0    0 -0.35810443091E+03  0.47828032076E+03  0.21455935170E+04  0.22284424083E+04  0.73438260874E+02 0.  0.
         13    1    3    3    0    0 -0.46053452352E+01 -0.17909240551E+03  0.20822899914E+03  0.27469003440E+03  0.00000000000E+00 0. -1.
        -13    1    3    3    0    0  0.43386679745E+02 -0.20347495114E+03  0.38371325073E+03  0.43648633255E+03  0.00000000000E+00 0.  1.
          4    1    6    6  502    0 -0.32257114572E+03  0.39451527056E+03  0.17626796465E+04  0.18348662019E+04  0.00000000000E+00 0. -1.
          3    1    5    5  503    0  0.27735375973E+03 -0.53312096065E+02  0.53650597108E+03  0.60630515801E+03  0.00000000000E+00 0. -1.
         -4    1    5    5    0  503  0.41969336668E+02 -0.42400868043E+02  0.14874968188E+03  0.16026767201E+03  0.00000000000E+00 0.  1.
         -3    1    6    6    0  502 -0.35533285190E+02  0.83765050209E+02  0.38291387059E+03  0.39357620645E+03  0.00000000000E+00 0.  1.
<mgrwt>
<rscale>  0 0.14213920E+04</rscale>
<asrwt>0</asrwt>
<pdfrwt beam="1">  1        1 0.54838324E+00 0.14213920E+04</pdfrwt>
<pdfrwt beam="2">  1       -1 0.21800017E-01 0.14213920E+04</pdfrwt>
<totfact> 0.38820742E+00</totfact>
</mgrwt>
</event>
<event>
12    1  0.1663913E-007  0.1372020E+04  0.7818608E-02  0.8974324E-01
          1   -1    0    0  501    0  0.00000000000E+00  0.00000000000E+00  0.14725774302E+04  0.14725774302E+04  0.00000000000E+00 0. -1.
         -1   -1    0    0    0  501 -0.00000000000E+00 -0.00000000000E+00 -0.31958254878E+03  0.31958254878E+03  0.00000000000E+00 0.  1.
         23    2    1    2    0    0  0.28997984298E+03 -0.22187998448E+03  0.47068127280E+03  0.60224647933E+03  0.88548994632E+02 0.  0.
        254    2    1    2    0    0 -0.28997984298E+03  0.22187998448E+03  0.68231360858E+03  0.11899134996E+04  0.90389337826E+03 0.  0.
        -24    2    4    4    0    0 -0.48108633658E+03  0.15668093622E+03  0.42303029268E+02  0.51405795429E+03  0.80455298509E+02 0.  0.
         24    2    4    4    0    0  0.19110649360E+03  0.65199048261E+02  0.64001057931E+03  0.67585554533E+03  0.79966047375E+02 0.  0.
         13    1    3    3    0    0  0.15380674301E+03 -0.13548997750E+03  0.19528719061E+03  0.28310975789E+03  0.00000000000E+00 0. -1.
        -13    1    3    3    0    0  0.13617309996E+03 -0.86390006982E+02  0.27539408219E+03  0.31913672143E+03  0.00000000000E+00 0.  1.
          2    1    6    6  502    0  0.16148756155E+03  0.31821364958E+02  0.56586918564E+03  0.58932059786E+03  0.00000000000E+00 0. -1.
          3    1    5    5  503    0 -0.35244725623E+03  0.13907736998E+03  0.57873807580E+02  0.38328965661E+03  0.00000000000E+00 0. -1.
         -4    1    5    5    0  503 -0.12863908035E+03  0.17603566241E+02 -0.15570778312E+02  0.13076829767E+03  0.00000000000E+00 0.  1.
         -1    1    6    6    0  502  0.29618932053E+02  0.33377683302E+02  0.74141393674E+02  0.86534947475E+02  0.00000000000E+00 0.  1.
<mgrwt>
<rscale>  0 0.13720205E+04</rscale>
<asrwt>0</asrwt>
<pdfrwt beam="1">  1        1 0.22655037E+00 0.13720205E+04</pdfrwt>
<pdfrwt beam="2">  1       -1 0.49166547E-01 0.13720205E+04</pdfrwt>
<totfact> 0.27678209E+01</totfact>
</mgrwt>
</event>
<event>
12    1  0.1663913E-007  0.1330940E+04  0.7818608E-02  0.9005383E-01
         -2   -1    0    0    0  501 -0.00000000000E+00  0.00000000000E+00  0.25806009493E+03  0.25806009493E+03  0.00000000000E+00 0.  1.
          2   -1    0    0  501    0  0.00000000000E+00 -0.00000000000E+00 -0.17160746717E+04  0.17160746717E+04  0.00000000000E+00 0. -1.
         23    2    1    2    0    0 -0.96988573326E+02  0.10565541066E+03 -0.84952860443E+03  0.86643109678E+03  0.91837609665E+02 0.  0.
        254    2    1    2    0    0  0.96988573326E+02 -0.10565541066E+03 -0.60848597229E+03  0.11077036698E+04  0.91443009163E+03 0.  0.
        -24    2    4    4    0    0  0.12310933480E+03  0.10167849075E+03 -0.79562388172E+03  0.81612667420E+03  0.86896279475E+02 0.  0.
         24    2    4    4    0    0 -0.26120761479E+02 -0.20733390141E+03  0.18713790943E+03  0.29157699561E+03  0.79541852923E+02 0.  0.
         13    1    3    3    0    0 -0.33609123847E+02  0.73983642579E+00 -0.36854019032E+03  0.37007025339E+03  0.00000000000E+00 0.  1.
        -13    1    3    3    0    0 -0.63379449478E+02  0.10491557423E+03 -0.48098841412E+03  0.49636084339E+03  0.00000000000E+00 0. -1.
          2    1    6    6  502    0  0.59814769766E+01 -0.15845453671E+03  0.16555573129E+03  0.22924292450E+03  0.00000000000E+00 0. -1.
          3    1    5    5  503    0  0.11851032642E+03  0.11028408091E+03 -0.78571906373E+03  0.80222298837E+03  0.00000000000E+00 0. -1.
         -4    1    5    5    0  503  0.45990083868E+01 -0.86055901625E+01 -0.99048179910E+01  0.13903685829E+02  0.00000000000E+00 0.  1.
         -1    1    6    6    0  502 -0.32102238455E+02 -0.48879364701E+02  0.21582178143E+02  0.62334071108E+02  0.00000000000E+00 0.  1.
<mgrwt>
<rscale>  0 0.13309401E+04</rscale>
<asrwt>0</asrwt>
<pdfrwt beam="1">  1        2 0.26401149E+00 0.13309401E+04</pdfrwt>
<pdfrwt beam="2">  1       -2 0.39701553E-01 0.13309401E+04</pdfrwt>
<totfact> 0.56387544E+01</totfact>
</mgrwt>
</event>
<event>
12    1  0.1663913E-007  0.1117685E+04  0.7818608E-02  0.9188125E-01
          2   -1    0    0  501    0  0.00000000000E+00  0.00000000000E+00  0.20927330739E+04  0.20927330739E+04  0.00000000000E+00 0. -1.
         -2   -1    0    0    0  501 -0.00000000000E+00 -0.00000000000E+00 -0.14923297383E+03  0.14923297383E+03  0.00000000000E+00 0.  1.
         23    2    1    2    0    0 -0.35238526691E+02  0.16515776823E+03  0.48234919092E+03  0.51915355322E+03  0.91328131875E+02 0.  0.
        254    2    1    2    0    0  0.35238526691E+02 -0.16515776823E+03  0.14611509091E+04  0.17228124945E+04  0.89699613696E+03 0.  0.
        -24    2    4    4    0    0  0.14352433156E+03 -0.41634521950E+03  0.33167623162E+03  0.55748084887E+03  0.82663163994E+02 0.  0.
         24    2    4    4    0    0 -0.10828580487E+03  0.25118745128E+03  0.11294746775E+04  0.11653316456E+04  0.86393552541E+02 0.  0.
         11    1    3    3    0    0 -0.37859100158E+02  0.94901643793E+02  0.38956816481E+03  0.40274432149E+03  0.00000000000E+00 0. -1.
        -11    1    3    3    0    0  0.26205734671E+01  0.70256124435E+02  0.92781026103E+02  0.11640923172E+03  0.00000000000E+00 0.  1.
          4    1    6    6  502    0 -0.74764101114E+02  0.15676663629E+03  0.87035354455E+03  0.88751379796E+03  0.00000000000E+00 0. -1.
          1    1    5    5  503    0  0.13009339053E+03 -0.41387485065E+03  0.31620549450E+03  0.53684504004E+03  0.00000000000E+00 0. -1.
         -2    1    5    5    0  503  0.13430941030E+02 -0.24703688561E+01  0.15470737118E+02  0.20635808834E+02  0.00000000000E+00 0.  1.
         -3    1    6    6    0  502 -0.33521703761E+02  0.94420814987E+02  0.25912113294E+03  0.27781784763E+03  0.00000000000E+00 0.  1.
<mgrwt>
<rscale>  0 0.11176847E+04</rscale>
<asrwt>0</asrwt>
<pdfrwt beam="1">  1        2 0.32195891E+00 0.11176847E+04</pdfrwt>
<pdfrwt beam="2">  1       -2 0.22958921E-01 0.11176847E+04</pdfrwt>
<totfact> 0.98698277E+01</totfact>
</mgrwt>
</event>
<event>
12    1  0.1663913E-007  0.1263558E+04  0.7818608E-02  0.9058974E-01
         -1   -1    0    0    0  501 -0.00000000000E+00  0.00000000000E+00  0.11943004442E+04  0.11943004442E+04  0.00000000000E+00 0.  1.
          1   -1    0    0  501    0  0.00000000000E+00 -0.00000000000E+00 -0.33420817259E+03  0.33420817259E+03  0.00000000000E+00 0. -1.
         23    2    1    2    0    0  0.16333661011E+03  0.23326630899E+03  0.17212057118E+03  0.34416437816E+03  0.87929568768E+02 0.  0.
        254    2    1    2    0    0 -0.16333661011E+03 -0.23326630899E+03  0.68797170042E+03  0.11843442386E+04  0.92101802145E+03 0.  0.
        -24    2    4    4    0    0 -0.34843915318E+03 -0.48857657385E+03  0.58624796497E+03  0.84210363234E+03  0.73040668027E+02 0.  0.
         24    2    4    4    0    0  0.18510254307E+03  0.25531026486E+03  0.10172373545E+03  0.34224060627E+03  0.85642462783E+02 0.  0.
         11    1    3    3    0    0  0.10184830729E+03  0.91112755639E+02  0.11657678974E+03  0.17962394007E+03  0.00000000000E+00 0.  1.
        -11    1    3    3    0    0  0.61488302818E+02  0.14215355335E+03  0.55543781433E+02  0.16454043810E+03  0.00000000000E+00 0. -1.
          2    1    6    6  502    0  0.13397840547E+03  0.11326851472E+03  0.46558170452E+02  0.18151482803E+03  0.00000000000E+00 0. -1.
          1    1    5    5  503    0 -0.47205059049E+02 -0.35551433946E+02  0.75606278071E+02  0.95961092841E+02  0.00000000000E+00 0. -1.
         -2    1    5    5    0  503 -0.30123409413E+03 -0.45302513991E+03  0.51064168690E+03  0.74614253950E+03  0.00000000000E+00 0.  1.
         -1    1    6    6    0  502  0.51124137596E+02  0.14204175014E+03  0.55165565003E+02  0.16072577824E+03  0.00000000000E+00 0.  1.
<mgrwt>
<rscale>  0 0.12635584E+04</rscale>
<asrwt>0</asrwt>
<pdfrwt beam="1">  1        1 0.51416643E-01 0.12635584E+04</pdfrwt>
<pdfrwt beam="2">  1       -1 0.18373853E+00 0.12635584E+04</pdfrwt>
<totfact> 0.14670875E+01</totfact>
</mgrwt>
</event>
<event>
12    1  0.1663913E-007  0.2035937E+04  0.7818608E-02  0.8590001E-01
          2   -1    0    0  501    0  0.00000000000E+00  0.00000000000E+00  0.75057886470E+03  0.75057886470E+03  0.00000000000E+00 0. -1.
         -2   -1    0    0    0  501 -0.00000000000E+00 -0.00000000000E+00 -0.13806139649E+04  0.13806139649E+04  0.00000000000E+00 0.  1.
         23    2    1    2    0    0  0.64875635657E+03  0.44930622685E+03 -0.46796654973E+03  0.92185508867E+03  0.89795418428E+02 0.  0.
        254    2    1    2    0    0 -0.64875635657E+03 -0.44930622685E+03 -0.16206855045E+03  0.12093377409E+04  0.90192608391E+03 0.  0.
        -24    2    4    4    0    0 -0.54988881294E+03 -0.23041399997E+03  0.30739798159E+03  0.67583996545E+03  0.82448904422E+02 0.  0.
         24    2    4    4    0    0 -0.98867543634E+02 -0.21889222688E+03 -0.46946653204E+03  0.53349777544E+03  0.80823595133E+02 0.  0.
         11    1    3    3    0    0  0.54512561232E+03  0.38108505369E+03 -0.43036009763E+03  0.79221055597E+03  0.00000000000E+00 0. -1.
        -11    1    3    3    0    0  0.10363074425E+03  0.68221173158E+02 -0.37606452098E+02  0.12964453270E+03  0.00000000000E+00 0.  1.
          2    1    6    6  502    0 -0.17216806746E+02 -0.24975681520E+01 -0.67842590710E+02  0.70037656981E+02  0.00000000000E+00 0. -1.
          1    1    5    5  503    0 -0.66009038426E+02 -0.37016021020E+02  0.70470149670E+02  0.10340899845E+03  0.00000000000E+00 0. -1.
         -2    1    5    5    0  503 -0.48387977451E+03 -0.19339797895E+03  0.23692783192E+03  0.57243096700E+03  0.00000000000E+00 0.  1.
         -1    1    6    6    0  502 -0.81650736888E+02 -0.21639465872E+03 -0.40162394133E+03  0.46346011846E+03  0.00000000000E+00 0.  1.
<mgrwt>
<rscale>  0 0.20359368E+04</rscale>
<asrwt>0</asrwt>
<pdfrwt beam="1">  1        2 0.11547367E+00 0.20359368E+04</pdfrwt>
<pdfrwt beam="2">  1       -2 0.21240215E+00 0.20359368E+04</pdfrwt>
<totfact> 0.38329444E+00</totfact>
</mgrwt>
</event>
<event>
12    1  0.1663913E-007  0.1275870E+04  0.7818608E-02  0.9048922E-01
         -2   -1    0    0    0  501 -0.00000000000E+00  0.00000000000E+00  0.46997302953E+03  0.46997302953E+03  0.00000000000E+00 0. -1.
          2   -1    0    0  501    0  0.00000000000E+00 -0.00000000000E+00 -0.86592491427E+03  0.86592491427E+03  0.00000000000E+00 0.  1.
         23    2    1    2    0    0 -0.17897972546E+03 -0.59502565055E+02  0.16146354466E+03  0.26501146464E+03  0.92662304975E+02 0.  0.
        254    2    1    2    0    0  0.17897972546E+03  0.59502565055E+02 -0.55741542940E+03  0.10708864792E+04  0.89471313443E+03 0.  0.
        -24    2    4    4    0    0  0.42943582424E+03 -0.21026112245E+03 -0.48761898142E+03  0.68775973513E+03  0.81340736872E+02 0.  0.
         24    2    4    4    0    0 -0.25045609878E+03  0.26976368750E+03 -0.69796447984E+02  0.38312674402E+03  0.80086536460E+02 0.  0.
         13    1    3    3    0    0 -0.56210209576E+02  0.17703973724E+02  0.77736057975E+02  0.97549541545E+02  0.00000000000E+00 0.  1.
        -13    1    3    3    0    0 -0.12276951588E+03 -0.77206538779E+02  0.83727486687E+02  0.16746192310E+03  0.00000000000E+00 0. -1.
          4    1    6    6  502    0 -0.18321756030E+03  0.22767020825E+03 -0.80396358906E+02  0.30309399969E+03  0.00000000000E+00 0. -1.
          3    1    5    5  503    0  0.27161606836E+03 -0.17352296449E+03 -0.30728159712E+03  0.44531728883E+03  0.00000000000E+00 0. -1.
         -4    1    5    5    0  503  0.15781975588E+03 -0.36738157958E+02 -0.18033738430E+03  0.24244244631E+03  0.00000000000E+00 0.  1.
         -3    1    6    6    0  502 -0.67238538485E+02  0.42093479256E+02  0.10599910922E+02  0.80032744330E+02  0.00000000000E+00 0.  1.
<mgrwt>
<rscale>  0 0.12758705E+04</rscale>
<asrwt>0</asrwt>
<pdfrwt beam="1">  1        2 0.13321922E+00 0.12758705E+04</pdfrwt>
<pdfrwt beam="2">  1       -2 0.72303544E-01 0.12758705E+04</pdfrwt>
<totfact> 0.52614319E+01</totfact>
</mgrwt>
</event>
<event>
12    1  0.1663913E-007  0.2239868E+04  0.7818608E-02  0.8502015E-01
         -2   -1    0    0    0  501 -0.00000000000E+00  0.00000000000E+00  0.37385129145E+03  0.37385129145E+03  0.00000000000E+00 0. -1.
          2   -1    0    0  501    0  0.00000000000E+00 -0.00000000000E+00 -0.33549498416E+04  0.33549498416E+04  0.00000000000E+00 0.  1.
         23    2    1    2    0    0 -0.56307662765E+03 -0.77024998904E+03 -0.10149539652E+04  0.13959829088E+04  0.91084553864E+02 0.  0.
        254    2    1    2    0    0  0.56307662765E+03  0.77024998904E+03 -0.19661445850E+04  0.23328182243E+04  0.81607352873E+03 0.  0.
        -24    2    4    4    0    0  0.69172597007E+03  0.77165250319E+03 -0.13823056718E+04  0.17295615592E+04  0.81742358846E+02 0.  0.
         24    2    4    4    0    0 -0.12864934242E+03 -0.14025141512E+01 -0.58383891312E+03  0.60325666509E+03  0.80610837693E+02 0.  0.
         11    1    3    3    0    0 -0.64053170133E+02 -0.12129930680E+03 -0.18412412069E+03  0.22960405539E+03  0.00000000000E+00 0.  1.
        -11    1    3    3    0    0 -0.49902345752E+03 -0.64895068223E+03 -0.83082984453E+03  0.11663788534E+04  0.00000000000E+00 0. -1.
          2    1    6    6  502    0 -0.11516998827E+03 -0.26025880017E+02 -0.52431573215E+03  0.53744623881E+03  0.00000000000E+00 0. -1.
          3    1    5    5  503    0  0.34839969263E+03  0.44830891676E+03 -0.76905534197E+03  0.95593375800E+03  0.00000000000E+00 0. -1.
         -4    1    5    5    0  503  0.34332627744E+03  0.32334358642E+03 -0.61325032987E+03  0.77362780117E+03  0.00000000000E+00 0.  1.
         -1    1    6    6    0  502 -0.13479354149E+02  0.24623365866E+02 -0.59523180969E+02  0.65810426283E+02  0.00000000000E+00 0.  1.
<mgrwt>
<rscale>  0 0.22398681E+04</rscale>
<asrwt>0</asrwt>
<pdfrwt beam="1">  1        2 0.51614613E+00 0.22398681E+04</pdfrwt>
<pdfrwt beam="2">  1       -2 0.57515583E-01 0.22398681E+04</pdfrwt>
<totfact> 0.26455320E+00</totfact>
</mgrwt>
</event>
<event>
12    1  0.1663913E-007  0.1206373E+04  0.7818608E-02  0.9107297E-01
         -2   -1    0    0    0  501 -0.00000000000E+00  0.00000000000E+00  0.23367456756E+03  0.23367456756E+03  0.00000000000E+00 0.  1.
          2   -1    0    0  501    0  0.00000000000E+00 -0.00000000000E+00 -0.15570100863E+04  0.15570100863E+04  0.00000000000E+00 0. -1.
         23    2    1    2    0    0 -0.15313009761E+03 -0.84815285722E+02 -0.57856098489E+02  0.20125878715E+03  0.80717481291E+02 0.  0.
        254    2    1    2    0    0  0.15313009761E+03  0.84815285722E+02 -0.12654794202E+04  0.15894258667E+04  0.94561829677E+03 0.  0.
        -24    2    4    4    0    0 -0.37258322750E+03  0.13992031033E+03 -0.38652302794E+03  0.56077870003E+03  0.81711349369E+02 0.  0.
         24    2    4    4    0    0  0.52571332511E+03 -0.55105024609E+02 -0.87895639228E+03  0.10286471666E+04  0.78355535790E+02 0.  0.
         11    1    3    3    0    0  0.83370952159E+01  0.26497996782E+01 -0.53923642209E+01  0.10276487088E+02  0.00000000000E+00 0. -1.
        -11    1    3    3    0    0 -0.16146719283E+03 -0.87465085400E+02 -0.52463734269E+02  0.19098230006E+03  0.00000000000E+00 0.  1.
          2    1    6    6  502    0  0.42836356830E+03 -0.64279299437E+02 -0.66824455638E+03  0.79635291304E+03  0.00000000000E+00 0. -1.
          3    1    5    5  503    0 -0.33261635974E+03  0.10057817038E+03 -0.35351614812E+03  0.49570482961E+03  0.00000000000E+00 0. -1.
         -4    1    5    5    0  503 -0.39966867765E+02  0.39342139953E+02 -0.33006879825E+02  0.65073870415E+02  0.00000000000E+00 0.  1.
         -1    1    6    6    0  502  0.97349756816E+02  0.91742748275E+01 -0.21071183590E+03  0.23229425360E+03  0.00000000000E+00 0.  1.
<mgrwt>
<rscale>  0 0.12063725E+04</rscale>
<asrwt>0</asrwt>
<pdfrwt beam="1">  1        2 0.23954001E+00 0.12063725E+04</pdfrwt>
<pdfrwt beam="2">  1       -2 0.35949934E-01 0.12063725E+04</pdfrwt>
<totfact> 0.84571153E+01</totfact>
</mgrwt>
</event>
<event>
12    1  0.1663913E-007  0.1311848E+04  0.7818608E-02  0.9020222E-01
          2   -1    0    0  501    0  0.00000000000E+00  0.00000000000E+00  0.20085382811E+04  0.20085382811E+04  0.00000000000E+00 0. -1.
         -2   -1    0    0    0  501 -0.00000000000E+00 -0.00000000000E+00 -0.21420374357E+03  0.21420374357E+03  0.00000000000E+00 0.  1.
         23    2    1    2    0    0  0.31886527265E+03 -0.80039713411E+02  0.59170244607E+03  0.68321105071E+03  0.92650619564E+02 0.  0.
        254    2    1    2    0    0 -0.31886527265E+03  0.80039713411E+02  0.12026320915E+04  0.15395309739E+04  0.90318893623E+03 0.  0.
        -24    2    4    4    0    0 -0.37332790562E+03  0.11713737048E+03  0.13230157961E+04  0.13819030874E+04  0.78679462108E+02 0.  0.
         24    2    4    4    0    0  0.54462632966E+02 -0.37097657067E+02 -0.12038370461E+03  0.15762788651E+03  0.77536441241E+02 0.  0.
         13    1    3    3    0    0  0.15241253709E+03 -0.39520289481E+02  0.19174210357E+03  0.24810576177E+03  0.00000000000E+00 0. -1.
        -13    1    3    3    0    0  0.16645273556E+03 -0.40519423930E+02  0.39996034250E+03  0.43510528894E+03  0.00000000000E+00 0.  1.
          2    1    6    6  502    0  0.51657710354E+02 -0.59710103048E+02 -0.94573495311E+02  0.12319886956E+03  0.00000000000E+00 0. -1.
          3    1    5    5  503    0 -0.30367795578E+03  0.61222530180E+02  0.10278681867E+04  0.10735369151E+04  0.00000000000E+00 0. -1.
         -4    1    5    5    0  503 -0.69649949838E+02  0.55914840298E+02  0.29514760941E+03  0.30836617230E+03  0.00000000000E+00 0.  1.
         -1    1    6    6    0  502  0.28049226116E+01  0.22612445982E+02 -0.25810209303E+02  0.34429016954E+02  0.00000000000E+00 0.  1.
<mgrwt>
<rscale>  0 0.13118482E+04</rscale>
<asrwt>0</asrwt>
<pdfrwt beam="1">  1        2 0.30900588E+00 0.13118482E+04</pdfrwt>
<pdfrwt beam="2">  1       -2 0.32954423E-01 0.13118482E+04</pdfrwt>
<totfact> 0.55663419E+01</totfact>
</mgrwt>
</event>
<event>
12    1  0.1663913E-007  0.2532089E+04  0.7818608E-02  0.8391642E-01
         -2   -1    0    0    0  501 -0.00000000000E+00  0.00000000000E+00  0.13555561822E+04  0.13555561822E+04  0.00000000000E+00 0.  1.
          2   -1    0    0  501    0  0.00000000000E+00 -0.00000000000E+00 -0.11824437141E+04  0.11824437141E+04  0.00000000000E+00 0. -1.
         23    2    1    2    0    0 -0.59584052117E+03  0.29611956393E+02  0.10075397157E+04  0.11743796608E+04  0.90158273616E+02 0.  0.
        254    2    1    2    0    0  0.59584052117E+03 -0.29611956393E+02 -0.83442724763E+03  0.13636202356E+04  0.89849235979E+03 0.  0.
        -24    2    4    4    0    0  0.73187518938E+03  0.21451548361E+03 -0.47624538834E+03  0.90268144806E+03  0.79786848698E+02 0.  0.
         24    2    4    4    0    0 -0.13603466820E+03 -0.24412744000E+03 -0.35818185929E+03  0.46093878750E+03  0.77888918208E+02 0.  0.
         13    1    3    3    0    0 -0.15673508459E+03 -0.28435590027E+02  0.29910924937E+03  0.33888170883E+03  0.00000000000E+00 0. -1.
        -13    1    3    3    0    0 -0.43910543658E+03  0.58047546420E+02  0.70843046632E+03  0.83549795194E+03  0.00000000000E+00 0.  1.
          4    1    6    6  502    0 -0.70819757772E+02 -0.17155721127E+03 -0.27992279436E+03  0.33586319482E+03  0.00000000000E+00 0. -1.
          3    1    5    5  503    0  0.29993906439E+03  0.53208462633E+02 -0.16561444395E+03  0.34673149106E+03  0.00000000000E+00 0. -1.
         -2    1    5    5    0  503  0.43193612499E+03  0.16130702098E+03 -0.31063094439E+03  0.55594995701E+03  0.00000000000E+00 0.  1.
         -3    1    6    6    0  502 -0.65214910432E+02 -0.72570228731E+02 -0.78259064930E+02  0.12507559268E+03  0.00000000000E+00 0.  1.
<mgrwt>
<rscale>  0 0.25320892E+04</rscale>
<asrwt>0</asrwt>
<pdfrwt beam="1">  1        2 0.18191442E+00 0.25320892E+04</pdfrwt>
<pdfrwt beam="2">  1       -2 0.20854710E+00 0.25320892E+04</pdfrwt>
<totfact> 0.20196514E+00</totfact>
</mgrwt>
</event>
<event>
12    1  0.1663913E-007  0.1952483E+04  0.7818608E-02  0.8629164E-01
         -2   -1    0    0    0  501 -0.00000000000E+00  0.00000000000E+00  0.12901941365E+04  0.12901941365E+04  0.00000000000E+00 0.  1.
          2   -1    0    0  501    0  0.00000000000E+00 -0.00000000000E+00 -0.73868532269E+03  0.73868532269E+03  0.00000000000E+00 0. -1.
         23    2    1    2    0    0 -0.57407633527E+03 -0.38750967227E+03 -0.12286269071E+03  0.70967287913E+03  0.93877418902E+02 0.  0.
        254    2    1    2    0    0  0.57407633527E+03  0.38750967227E+03  0.67437150456E+03  0.13192065801E+04  0.89766457542E+03 0.  0.
        -24    2    4    4    0    0 -0.22384895324E+03  0.19770455672E+03  0.19459892337E+03  0.36564065810E+03  0.81418083164E+02 0.  0.
         24    2    4    4    0    0  0.79792528851E+03  0.18980511555E+03  0.47977258119E+03  0.95356592198E+03  0.79971807313E+02 0.  0.
         13    1    3    3    0    0 -0.22281019024E+03 -0.20500461648E+03 -0.42359525284E+02  0.30572144680E+03  0.00000000000E+00 0.  1.
        -13    1    3    3    0    0 -0.35126614503E+03 -0.18250505579E+03 -0.80503165430E+02  0.40395143233E+03  0.00000000000E+00 0. -1.
          2    1    6    6  502    0  0.22782459491E+03  0.91621416983E+02  0.14655805744E+03  0.28596817007E+03  0.00000000000E+00 0. -1.
          3    1    5    5  503    0 -0.14577668480E+03  0.10791220430E+03  0.15964796407E+03  0.24162648468E+03  0.00000000000E+00 0. -1.
         -4    1    5    5    0  503 -0.78072268445E+02  0.89792352426E+02  0.34950959296E+02  0.12401417342E+03  0.00000000000E+00 0.  1.
         -1    1    6    6    0  502  0.57010069361E+03  0.98183698563E+02  0.33321452376E+03  0.66759775191E+03  0.00000000000E+00 0.  1.
<mgrwt>
<rscale>  0 0.19524830E+04</rscale>
<asrwt>0</asrwt>
<pdfrwt beam="1">  1        2 0.11364390E+00 0.19524830E+04</pdfrwt>
<pdfrwt beam="2">  1       -2 0.19849141E+00 0.19524830E+04</pdfrwt>
<totfact> 0.48507814E+00</totfact>
</mgrwt>
</event>
<event>
12    1  0.1663913E-007  0.1595519E+04  0.7818608E-02  0.8823306E-01
          1   -1    0    0  501    0  0.00000000000E+00  0.00000000000E+00  0.27138360456E+04  0.27138360456E+04  0.00000000000E+00 0. -1.
         -1   -1    0    0    0  501 -0.00000000000E+00 -0.00000000000E+00 -0.23450939161E+03  0.23450939161E+03  0.00000000000E+00 0.  1.
         23    2    1    2    0    0  0.14871809127E+03 -0.32233748821E+03  0.16061033716E+04  0.16470719283E+04  0.85201933911E+02 0.  0.
        254    2    1    2    0    0 -0.14871809127E+03  0.32233748821E+03  0.87322328231E+03  0.13012735089E+04  0.89709270269E+03 0.  0.
        -24    2    4    4    0    0  0.28601417752E+03  0.38397230417E+03  0.28636486893E+03  0.56372700857E+03  0.80897848675E+02 0.  0.
         24    2    4    4    0    0 -0.43473226879E+03 -0.61634815958E+02  0.58685841338E+03  0.73754650033E+03  0.82347111217E+02 0.  0.
         13    1    3    3    0    0  0.47529915330E+02 -0.48603626784E+02  0.42768801325E+03  0.43305708869E+03  0.00000000000E+00 0.  1.
        -13    1    3    3    0    0  0.10118817594E+03 -0.27373386142E+03  0.11784153584E+04  0.12140148396E+04  0.00000000000E+00 0. -1.
          4    1    6    6  502    0 -0.34249139645E+03 -0.63544063553E+02  0.40939825496E+03  0.53753617163E+03  0.00000000000E+00 0. -1.
          3    1    5    5  503    0  0.20348930354E+03  0.32746390923E+03  0.22539660463E+03  0.44659169034E+03  0.00000000000E+00 0. -1.
         -4    1    5    5    0  503  0.82524873988E+02  0.56508394942E+02  0.60968264297E+02  0.11713531823E+03  0.00000000000E+00 0.  1.
         -3    1    6    6    0  502 -0.92240872344E+02  0.19092475953E+01  0.17746015842E+03  0.20001032869E+03  0.00000000000E+00 0.  1.
<mgrwt>
<rscale>  0 0.15955188E+04</rscale>
<asrwt>0</asrwt>
<pdfrwt beam="1">  1        1 0.41751322E+00 0.15955188E+04</pdfrwt>
<pdfrwt beam="2">  1       -1 0.36078370E-01 0.15955188E+04</pdfrwt>
<totfact> 0.67886181E+00</totfact>
</mgrwt>
</event>
<event>
12    1  0.1663913E-007  0.3057671E+04  0.7818608E-02  0.8227452E-01
          2   -1    0    0  501    0  0.00000000000E+00  0.00000000000E+00  0.13003557716E+04  0.13003557716E+04  0.00000000000E+00 0.  1.
         -2   -1    0    0    0  501 -0.00000000000E+00 -0.00000000000E+00 -0.17974609168E+04  0.17974609168E+04  0.00000000000E+00 0. -1.
         23    2    1    2    0    0 -0.30292804796E+03 -0.11677946946E+04 -0.93475748925E+03  0.15286980188E+04  0.87385455630E+02 0.  0.
        254    2    1    2    0    0  0.30292804796E+03  0.11677946946E+04  0.43765234405E+03  0.15691186696E+04  0.90282001203E+03 0.  0.
        -24    2    4    4    0    0  0.57945586662E+03  0.71368500005E+03  0.87642041830E+02  0.92739329141E+03  0.85216247267E+02 0.  0.
         24    2    4    4    0    0 -0.27652781866E+03  0.45410969455E+03  0.35001030222E+03  0.64172537821E+03  0.81369528697E+02 0.  0.
         11    1    3    3    0    0 -0.11372349775E+03 -0.32408630280E+03 -0.30037627880E+03  0.45627938204E+03  0.00000000000E+00 0.  1.
        -11    1    3    3    0    0 -0.18920455021E+03 -0.84370839180E+03 -0.63438121045E+03  0.10724186367E+04  0.00000000000E+00 0. -1.
          2    1    6    6  502    0 -0.17429693831E+03  0.21313128478E+03  0.19665202908E+03  0.33834359429E+03  0.00000000000E+00 0. -1.
          1    1    5    5  503    0  0.54789174577E+03  0.66434780094E+03  0.10183077332E+03  0.86712909771E+03  0.00000000000E+00 0. -1.
         -2    1    5    5    0  503  0.31564120852E+02  0.49337199108E+02 -0.14188731494E+02  0.60264193701E+02  0.00000000000E+00 0.  1.
         -1    1    6    6    0  502 -0.10223088035E+03  0.24097840978E+03  0.15335827314E+03  0.30338178392E+03  0.00000000000E+00 0.  1.
<mgrwt>
<rscale>  0 0.30576715E+04</rscale>
<asrwt>0</asrwt>
<pdfrwt beam="1">  1        2 0.20005474E+00 0.30576715E+04</pdfrwt>
<pdfrwt beam="2">  1       -2 0.27653245E+00 0.30576715E+04</pdfrwt>
<totfact> 0.62241578E-01</totfact>
</mgrwt>
</event>
<event>
12    1  0.1663913E-007  0.1592672E+04  0.7818608E-02  0.8825063E-01
         -2   -1    0    0    0  501 -0.00000000000E+00  0.00000000000E+00  0.33169558142E+03  0.33169558142E+03  0.00000000000E+00 0.  1.
          2   -1    0    0  501    0  0.00000000000E+00 -0.00000000000E+00 -0.19118455727E+04  0.19118455727E+04  0.00000000000E+00 0. -1.
         23    2    1    2    0    0 -0.28781366803E+03 -0.20185655965E+03  0.27555697652E+02  0.36427184075E+03  0.91388616962E+02 0.  0.
        254    2    1    2    0    0  0.28781366803E+03  0.20185655965E+03 -0.16077056889E+04  0.18792693134E+04  0.90738789488E+03 0.  0.
        -24    2    4    4    0    0  0.65992844457E+02 -0.32814645040E+03 -0.90360514884E+03  0.96697292068E+03  0.80617714487E+02 0.  0.
         24    2    4    4    0    0  0.22182082358E+03  0.53000301005E+03 -0.70410054009E+03  0.91229639269E+03  0.80121589633E+02 0.  0.
         11    1    3    3    0    0 -0.15731309655E+03 -0.66112211676E+02  0.40984559093E+02  0.17549350120E+03  0.00000000000E+00 0. -1.
        -11    1    3    3    0    0 -0.13050057149E+03 -0.13574434798E+03 -0.13428861441E+02  0.18877833956E+03  0.00000000000E+00 0.  1.
          2    1    6    6  502    0  0.19106734914E+03  0.37125749974E+03 -0.48462052237E+03  0.63968422970E+03  0.00000000000E+00 0. -1.
          3    1    5    5  503    0  0.40193261431E+02 -0.29643723805E+03 -0.83666802981E+03  0.88854033474E+03  0.00000000000E+00 0. -1.
         -4    1    5    5    0  503  0.25799583026E+02 -0.31709212343E+02 -0.66937119034E+02  0.78432585934E+02  0.00000000000E+00 0.  1.
         -1    1    6    6    0  502  0.30753474437E+02  0.15874551031E+03 -0.21948001771E+03  0.27261216299E+03  0.00000000000E+00 0.  1.
<mgrwt>
<rscale>  0 0.15926716E+04</rscale>
<asrwt>0</asrwt>
<pdfrwt beam="1">  1        2 0.29413009E+00 0.15926716E+04</pdfrwt>
<pdfrwt beam="2">  1       -2 0.51030089E-01 0.15926716E+04</pdfrwt>
<totfact> 0.26047985E+01</totfact>
</mgrwt>
</event>
<event>
12    1  0.1663913E-007  0.1075190E+04  0.7818608E-02  0.9229716E-01
          1   -1    0    0  501    0  0.00000000000E+00  0.00000000000E+00  0.78387629420E+03  0.78387629420E+03  0.00000000000E+00 0. -1.
         -1   -1    0    0    0  501 -0.00000000000E+00 -0.00000000000E+00 -0.36869136008E+03  0.36869136008E+03  0.00000000000E+00 0.  1.
         23    2    1    2    0    0  0.59826401200E+02  0.12064016615E+03 -0.14049961338E+03  0.21422285574E+03  0.89543523444E+02 0.  0.
        254    2    1    2    0    0 -0.59826401200E+02 -0.12064016615E+03  0.55568454750E+03  0.93834479855E+03  0.74402445972E+03 0.  0.
        -24    2    4    4    0    0  0.20861571151E+03  0.22111012697E+03  0.20985620510E+03  0.37699909056E+03  0.75355717259E+02 0.  0.
         24    2    4    4    0    0 -0.26844211271E+03 -0.34175029312E+03  0.34582834240E+03  0.56134570799E+03  0.81592467483E+02 0.  0.
         13    1    3    3    0    0  0.82980966196E+02  0.96564233285E+02 -0.10116567313E+03  0.16261914193E+03  0.00000000000E+00 0. -1.
        -13    1    3    3    0    0 -0.23154564996E+02  0.24075932863E+02 -0.39333940250E+02  0.51603713810E+02  0.00000000000E+00 0.  1.
          2    1    6    6  502    0 -0.18784573419E+03 -0.22507929212E+03  0.18375271151E+03  0.34599388229E+03  0.00000000000E+00 0. -1.
          1    1    5    5  503    0  0.17952469347E+03  0.18842872512E+03  0.20807196942E+03  0.33320931031E+03  0.00000000000E+00 0. -1.
         -2    1    5    5    0  503  0.29091018032E+02  0.32681401852E+02  0.17842356798E+01  0.43789780247E+02  0.00000000000E+00 0.  1.
         -1    1    6    6    0  502 -0.80596378516E+02 -0.11667100100E+03  0.16207563089E+03  0.21535182570E+03  0.00000000000E+00 0.  1.
<mgrwt>
<rscale>  0 0.10751901E+04</rscale>
<asrwt>0</asrwt>
<pdfrwt beam="1">  1        1 0.12059635E+00 0.10751901E+04</pdfrwt>
<pdfrwt beam="2">  1       -1 0.56721748E-01 0.10751901E+04</pdfrwt>
<totfact> 0.71725162E+01</totfact>
</mgrwt>
</event>
<event>
12    1  0.1663913E-007  0.1577604E+04  0.7818608E-02  0.8834426E-01
          1   -1    0    0  501    0  0.00000000000E+00  0.00000000000E+00  0.16958851463E+04  0.16958851463E+04  0.00000000000E+00 0. -1.
         -1   -1    0    0    0  501 -0.00000000000E+00 -0.00000000000E+00 -0.36689300977E+03  0.36689300977E+03  0.00000000000E+00 0.  1.
         23    2    1    2    0    0  0.41792866954E+03 -0.29820570944E+03  0.57866088652E+03  0.77896352398E+03  0.91349505392E+02 0.  0.
        254    2    1    2    0    0 -0.41792866954E+03  0.29820570944E+03  0.75033124999E+03  0.12838146321E+04  0.90641712629E+03 0.  0.
        -24    2    4    4    0    0 -0.27700561123E+03 -0.53542303708E+02 -0.13072332156E+03  0.32097419917E+03  0.79605042495E+02 0.  0.
         24    2    4    4    0    0 -0.14092305831E+03  0.35174801315E+03  0.88105457155E+03  0.96284043290E+03  0.84962156610E+02 0.  0.
         11    1    3    3    0    0  0.41673098473E+03 -0.28318694812E+03  0.54574417096E+03  0.74276258748E+03  0.00000000000E+00 0. -1.
        -11    1    3    3    0    0  0.11976848142E+01 -0.15018761319E+02  0.32916715558E+02  0.36200936502E+02  0.00000000000E+00 0.  1.
          2    1    6    6  502    0 -0.14644934452E+03  0.27662829362E+03  0.70737215949E+03  0.77352827703E+03  0.00000000000E+00 0. -1.
          1    1    5    5  503    0 -0.27528752271E+03 -0.40262245514E+02 -0.13114579804E+03  0.30757680165E+03  0.00000000000E+00 0. -1.
         -2    1    5    5    0  503 -0.17180885245E+01 -0.13280058193E+02  0.42247647439E+00  0.13397397515E+02  0.00000000000E+00 0.  1.
         -1    1    6    6    0  502  0.55262862015E+01  0.75119719530E+02  0.17368241206E+03  0.18931215587E+03  0.00000000000E+00 0.  1.
<mgrwt>
<rscale>  0 0.15776038E+04</rscale>
<asrwt>0</asrwt>
<pdfrwt beam="1">  1        1 0.26090540E+00 0.15776038E+04</pdfrwt>
<pdfrwt beam="2">  1       -1 0.56445079E-01 0.15776038E+04</pdfrwt>
<totfact> 0.14647530E+01</totfact>
</mgrwt>
</event>
<event>
12    1  0.1663913E-007  0.2531420E+04  0.7818608E-02  0.8391877E-01
         -2   -1    0    0    0  501 -0.00000000000E+00  0.00000000000E+00  0.45870766883E+03  0.45870766883E+03  0.00000000000E+00 0. -1.
          2   -1    0    0  501    0  0.00000000000E+00 -0.00000000000E+00 -0.34924677451E+04  0.34924677451E+04  0.00000000000E+00 0.  1.
         23    2    1    2    0    0  0.87729203036E+03  0.33677281668E+03 -0.22245157935E+04  0.24164506217E+04  0.87783001648E+02 0.  0.
        254    2    1    2    0    0 -0.87729203036E+03 -0.33677281668E+03 -0.80924428280E+03  0.15347247922E+04  0.90412755841E+03 0.  0.
        -24    2    4    4    0    0 -0.66986770527E+02  0.26906956850E+03 -0.19404206715E+03  0.34795364527E+03  0.80831648005E+02 0.  0.
         24    2    4    4    0    0 -0.81030525984E+03 -0.60584238517E+03 -0.61520221565E+03  0.11867711469E+04  0.79450482623E+02 0.  0.
         13    1    3    3    0    0  0.74146037745E+03  0.29072306412E+03 -0.19583841687E+04  0.21141314868E+04  0.00000000000E+00 0.  1.
        -13    1    3    3    0    0  0.13583165291E+03  0.46049752559E+02 -0.26613162473E+03  0.30231913490E+03  0.00000000000E+00 0. -1.
          2    1    6    6  502    0 -0.43932772483E+03 -0.33351967510E+03 -0.28919147607E+03  0.62279686360E+03  0.00000000000E+00 0. -1.
          3    1    5    5  503    0  0.11427272579E+02  0.49036007190E+02 -0.61140607964E+02  0.79204081346E+02  0.00000000000E+00 0. -1.
         -4    1    5    5    0  503 -0.78414043106E+02  0.22003356131E+03 -0.13290145918E+03  0.26874956393E+03  0.00000000000E+00 0.  1.
         -1    1    6    6    0  502 -0.37097753501E+03 -0.27232271007E+03 -0.32601073958E+03  0.56397428330E+03  0.00000000000E+00 0.  1.
<mgrwt>
<rscale>  0 0.25314199E+04</rscale>
<asrwt>0</asrwt>
<pdfrwt beam="1">  1        2 0.53730271E+00 0.25314199E+04</pdfrwt>
<pdfrwt beam="2">  1       -2 0.70570413E-01 0.25314199E+04</pdfrwt>
<totfact> 0.13383033E+00</totfact>
</mgrwt>
</event>
<event>
12    1  0.1663913E-007  0.2950066E+04  0.7818608E-02  0.8258135E-01
         -2   -1    0    0    0  501 -0.00000000000E+00  0.00000000000E+00  0.18175129303E+04  0.18175129303E+04  0.00000000000E+00 0.  1.
          2   -1    0    0  501    0  0.00000000000E+00 -0.00000000000E+00 -0.11970873664E+04  0.11970873664E+04  0.00000000000E+00 0. -1.
         23    2    1    2    0    0  0.84115969437E+03 -0.10195014780E+04  0.48887340325E+03  0.14122267003E+04  0.91946472141E+02 0.  0.
        254    2    1    2    0    0 -0.84115969437E+03  0.10195014780E+04  0.13155216061E+03  0.16023735963E+04  0.89630478982E+03 0.  0.
        -24    2    4    4    0    0 -0.13828863296E+02  0.70273727836E+03  0.57989515329E+02  0.70983084317E+03  0.80412201665E+02 0.  0.
         24    2    4    4    0    0 -0.82733083108E+03  0.31676419961E+03  0.73562645279E+02  0.89254275316E+03  0.80032750993E+02 0.  0.
         11    1    3    3    0    0  0.54888898899E+02 -0.61402878774E+02  0.55083362809E+02  0.99082196193E+02  0.00000000000E+00 0. -1.
        -11    1    3    3    0    0  0.78627079547E+03 -0.95809859920E+03  0.43379004044E+03  0.13131445042E+04  0.00000000000E+00 0.  1.
          2    1    6    6  502    0 -0.22702940937E+03  0.50643582094E+02  0.99105703770E+01  0.23282041262E+03  0.00000000000E+00 0. -1.
          3    1    5    5  503    0 -0.26062133740E+02  0.86242740439E+02  0.18333445286E+02  0.91941069766E+02  0.00000000000E+00 0. -1.
         -4    1    5    5    0  503  0.12233270445E+02  0.61649453792E+03  0.39656070043E+02  0.61788977341E+03  0.00000000000E+00 0.  1.
         -1    1    6    6    0  502 -0.60030142171E+03  0.26612061752E+03  0.63652074902E+02  0.65972234054E+03  0.00000000000E+00 0.  1.
<mgrwt>
<rscale>  0 0.29500656E+04</rscale>
<asrwt>0</asrwt>
<pdfrwt beam="1">  1        2 0.18416729E+00 0.29500656E+04</pdfrwt>
<pdfrwt beam="2">  1       -2 0.27961738E+00 0.29500656E+04</pdfrwt>
<totfact> 0.69204540E-01</totfact>
</mgrwt>
</event>
<event>
12    1  0.1663913E-007  0.1694363E+04  0.7818608E-02  0.8764586E-01
          3   -1    0    0  501    0  0.00000000000E+00  0.00000000000E+00  0.83529597486E+03  0.83529597486E+03  0.00000000000E+00 0. -1.
         -3   -1    0    0    0  501 -0.00000000000E+00 -0.00000000000E+00 -0.85923597191E+03  0.85923597191E+03  0.00000000000E+00 0.  1.
         23    2    1    2    0    0 -0.14363782208E+03  0.32417559403E+03 -0.50464088152E+03  0.62460762968E+03  0.98745288755E+02 0.  0.
        254    2    1    2    0    0  0.14363782208E+03 -0.32417559403E+03  0.48070088446E+03  0.10699243171E+04  0.88766157081E+03 0.  0.
        -24    2    4    4    0    0 -0.35175835404E+03 -0.25153775817E+03  0.29584508416E+03  0.53006325924E+03  0.80234416240E+02 0.  0.
         24    2    4    4    0    0  0.49539617612E+03 -0.72637835855E+02  0.18485580030E+03  0.53986105786E+03  0.81145969529E+02 0.  0.
         11    1    3    3    0    0 -0.70174568033E+02  0.14926201018E+03 -0.31931266948E+03  0.35939421054E+03  0.00000000000E+00 0.  1.
        -11    1    3    3    0    0 -0.73463254051E+02  0.17491358385E+03 -0.18532821204E+03  0.26521341913E+03  0.00000000000E+00 0. -1.
          2    1    6    6  502    0  0.34288278167E+03 -0.67792751365E+02  0.92711509524E+02  0.36160736040E+03  0.00000000000E+00 0. -1.
          1    1    5    5  503    0 -0.13556038105E+03 -0.73686902479E+02  0.14651602514E+03  0.21277528552E+03  0.00000000000E+00 0. -1.
         -2    1    5    5    0  503 -0.21619797299E+03 -0.17785085569E+03  0.14932905902E+03  0.31728797372E+03  0.00000000000E+00 0.  1.
         -1    1    6    6    0  502  0.15251339446E+03 -0.48450844900E+01  0.92144290780E+02  0.17825369745E+03  0.00000000000E+00 0.  1.
<mgrwt>
<rscale>  0 0.16943628E+04</rscale>
<asrwt>0</asrwt>
<pdfrwt beam="1">  1        3 0.12850707E+00 0.16943628E+04</pdfrwt>
<pdfrwt beam="2">  1       -3 0.13219015E+00 0.16943628E+04</pdfrwt>
<totfact> 0.53081566E-01</totfact>
</mgrwt>
</event>
<event>
12    1  0.1663913E-007  0.1649969E+04  0.7818608E-02  0.8790425E-01
         -2   -1    0    0    0  501 -0.00000000000E+00  0.00000000000E+00  0.37321034160E+03  0.37321034160E+03  0.00000000000E+00 0. -1.
          2   -1    0    0  501    0  0.00000000000E+00 -0.00000000000E+00 -0.18236353171E+04  0.18236353171E+04  0.00000000000E+00 0.  1.
         23    2    1    2    0    0  0.47593501350E+03 -0.20202897091E+03 -0.16030244080E+03  0.54907532565E+03  0.91961940727E+02 0.  0.
        254    2    1    2    0    0 -0.47593501350E+03  0.20202897091E+03 -0.12901225347E+04  0.16477703330E+04  0.88509947111E+03 0.  0.
        -24    2    4    4    0    0 -0.21789376407E+03 -0.33880278866E+03 -0.41130921224E+03  0.58121847166E+03  0.79841228068E+02 0.  0.
         24    2    4    4    0    0 -0.25804124943E+03  0.54083175957E+03 -0.87881332242E+03  0.10665518614E+04  0.78330956401E+02 0.  0.
         13    1    3    3    0    0  0.23793772051E+03 -0.12999087515E+03 -0.44448800762E+02  0.27475021811E+03  0.00000000000E+00 0. -1.
        -13    1    3    3    0    0  0.23799729299E+03 -0.72038095756E+02 -0.11585364004E+03  0.27432510754E+03  0.00000000000E+00 0.  1.
          2    1    6    6  502    0 -0.24629823184E+03  0.52382236868E+03 -0.81621640325E+03  0.10006307560E+04  0.00000000000E+00 0. -1.
          3    1    5    5  503    0 -0.87749257860E+02 -0.20968723058E+03 -0.22454520140E+03  0.31951402848E+03  0.00000000000E+00 0. -1.
         -2    1    5    5    0  503 -0.13014450621E+03 -0.12911555808E+03 -0.18676401084E+03  0.26170444318E+03  0.00000000000E+00 0.  1.
         -1    1    6    6    0  502 -0.11743017593E+02  0.17009390890E+02 -0.62596919168E+02  0.65921105345E+02  0.00000000000E+00 0.  1.
<mgrwt>
<rscale>  0 0.16499692E+04</rscale>
<asrwt>0</asrwt>
<pdfrwt beam="1">  1        2 0.28055928E+00 0.16499692E+04</pdfrwt>
<pdfrwt beam="2">  1       -2 0.57416976E-01 0.16499692E+04</pdfrwt>
<totfact> 0.22724612E+01</totfact>
</mgrwt>
</event>
<event>
12    1  0.1889594E-007  0.2365929E+04  0.7818608E-02  0.8452370E-01
          4   -1    0    0  501    0  0.00000000000E+00  0.00000000000E+00  0.16124799644E+04  0.16124799644E+04  0.00000000000E+00 0. -1.
         -4   -1    0    0    0  501 -0.00000000000E+00 -0.00000000000E+00 -0.86785919392E+03  0.86785919392E+03  0.00000000000E+00 0.  1.
         23    2    1    2    0    0  0.23299119386E+03  0.34799892113E+03  0.13268102768E+04  0.13943185727E+04  0.91162635786E+02 0.  0.
        254    2    1    2    0    0 -0.23299119386E+03 -0.34799892113E+03 -0.58218950631E+03  0.10860205856E+04  0.81554150448E+03 0.  0.
        -24    2    4    4    0    0 -0.32654703229E+03  0.17483743930E+03 -0.22063680392E+03  0.43832946415E+03  0.79063426530E+02 0.  0.
         24    2    4    4    0    0  0.93555838434E+02 -0.52283636043E+03 -0.36155270239E+03  0.64769112144E+03  0.81687682591E+02 0.  0.
         13    1    3    3    0    0  0.21938954903E+03  0.34886197660E+03  0.12464705374E+04  0.13128310072E+04  0.00000000000E+00 0. -1.
        -13    1    3    3    0    0  0.13601644827E+02 -0.86305547265E+00  0.80339739410E+02  0.81487565525E+02  0.00000000000E+00 0.  1.
          2    1    6    6  502    0  0.45314388783E+02 -0.12425724034E+03 -0.12336883052E+03  0.18086769737E+03  0.00000000000E+00 0. -1.
          1    1    5    5  503    0 -0.84548282711E+02  0.48897249246E+02 -0.20026522911E+02  0.99701628437E+02  0.00000000000E+00 0. -1.
         -2    1    5    5    0  503 -0.24199874958E+03  0.12594019005E+03 -0.20061028101E+03  0.33862783571E+03  0.00000000000E+00 0.  1.
         -1    1    6    6    0  502  0.48241449651E+02 -0.39857912010E+03 -0.23818387186E+03  0.46682342407E+03  0.00000000000E+00 0.  1.
<mgrwt>
<rscale>  0 0.23659295E+04</rscale>
<asrwt>0</asrwt>
<pdfrwt beam="1">  1        4 0.24807384E+00 0.23659295E+04</pdfrwt>
<pdfrwt beam="2">  1       -4 0.13351680E+00 0.23659295E+04</pdfrwt>
<totfact> 0.47231245E-02</totfact>
</mgrwt>
</event>
<event>
12    1  0.1663913E-007  0.2285950E+04  0.7818608E-02  0.8483481E-01
          1   -1    0    0  501    0  0.00000000000E+00  0.00000000000E+00  0.21110121341E+04  0.21110121341E+04  0.00000000000E+00 0. -1.
         -1   -1    0    0    0  501 -0.00000000000E+00 -0.00000000000E+00 -0.61884639497E+03  0.61884639497E+03  0.00000000000E+00 0.  1.
         23    2    1    2    0    0  0.85387786433E+03  0.17351058015E+03  0.15121451649E+03  0.88899259413E+03  0.90712037775E+02 0.  0.
        254    2    1    2    0    0 -0.85387786433E+03 -0.17351058015E+03  0.13409512226E+04  0.18408659349E+04  0.91182447887E+03 0.  0.
        -24    2    4    4    0    0 -0.52465379041E+03  0.17615731004E+03  0.12158703941E+04  0.13382901805E+04  0.79917422112E+02 0.  0.
         24    2    4    4    0    0 -0.32922407392E+03 -0.34966789019E+03  0.12508082848E+03  0.50257575437E+03  0.79253081603E+02 0.  0.
         13    1    3    3    0    0  0.47050731811E+03  0.54610299958E+02  0.10285323428E+03  0.48470424906E+03  0.00000000000E+00 0.  1.
        -13    1    3    3    0    0  0.38337054622E+03  0.11890028019E+03  0.48361282218E+02  0.40428834507E+03  0.00000000000E+00 0. -1.
          2    1    6    6  502    0 -0.19929329577E+02 -0.57641509715E+02  0.22505388766E+02  0.65009340429E+02  0.00000000000E+00 0. -1.
          1    1    5    5  503    0 -0.25702741414E+02  0.17485970096E+02  0.36628269588E+02  0.48041858826E+02  0.00000000000E+00 0. -1.
         -2    1    5    5    0  503 -0.49895104900E+03  0.15867133995E+03  0.11792421245E+04  0.12902483217E+04  0.00000000000E+00 0.  1.
         -1    1    6    6    0  502 -0.30929474434E+03 -0.29202638048E+03  0.10257543972E+03  0.43756641394E+03  0.00000000000E+00 0.  1.
<mgrwt>
<rscale>  0 0.22859503E+04</rscale>
<asrwt>0</asrwt>
<pdfrwt beam="1">  1        1 0.32477109E+00 0.22859503E+04</pdfrwt>
<pdfrwt beam="2">  1       -1 0.95207139E-01 0.22859503E+04</pdfrwt>
<totfact> 0.24149133E+00</totfact>
</mgrwt>
</event>
<event>
12    1  0.1663913E-007  0.2827649E+04  0.7818608E-02  0.8294736E-01
         -1   -1    0    0    0  501 -0.00000000000E+00  0.00000000000E+00  0.97174435640E+03  0.97174435640E+03  0.00000000000E+00 0.  1.
          1   -1    0    0  501    0  0.00000000000E+00 -0.00000000000E+00 -0.20570220938E+04  0.20570220938E+04  0.00000000000E+00 0. -1.
         23    2    1    2    0    0 -0.20866987835E+03 -0.93642085739E+03 -0.13840605984E+04  0.16862904014E+04  0.86743516333E+02 0.  0.
        254    2    1    2    0    0  0.20866987835E+03  0.93642085739E+03  0.29878286099E+03  0.13424760488E+04  0.89024918043E+03 0.  0.
        -24    2    4    4    0    0  0.65888630829E+02  0.93644106821E+03  0.51321647110E+03  0.10728463125E+04  0.79654743132E+02 0.  0.
         24    2    4    4    0    0  0.14278124753E+03 -0.20210825105E-01 -0.21443361011E+03  0.26962973629E+03  0.79573466023E+02 0.  0.
         13    1    3    3    0    0 -0.15123612324E+03 -0.77154350686E+03 -0.10835624554E+04  0.13387529057E+04  0.00000000000E+00 0. -1.
        -13    1    3    3    0    0 -0.57433755112E+02 -0.16487735053E+03 -0.30049814300E+03  0.34753749566E+03  0.00000000000E+00 0.  1.
          2    1    6    6  502    0  0.10571616612E+03  0.18718525788E+02 -0.95629484108E+02  0.14377513421E+03  0.00000000000E+00 0. -1.
          1    1    5    5  503    0  0.58411382025E+02  0.83545750039E+03  0.48471476427E+03  0.96765155258E+03  0.00000000000E+00 0. -1.
         -2    1    5    5    0  503  0.74772488039E+01  0.10098356782E+03  0.28501706828E+02  0.10519475991E+03  0.00000000000E+00 0.  1.
         -1    1    6    6    0  502  0.37065081403E+02 -0.18738736613E+02 -0.11880412601E+03  0.12585460208E+03  0.00000000000E+00 0.  1.
<mgrwt>
<rscale>  0 0.28276489E+04</rscale>
<asrwt>0</asrwt>
<pdfrwt beam="1">  1        1 0.31646494E+00 0.28276489E+04</pdfrwt>
<pdfrwt beam="2">  1       -1 0.14949913E+00 0.28276489E+04</pdfrwt>
<totfact> 0.82872974E-01</totfact>
</mgrwt>
</event>
<event>
12    1  0.1663913E-007  0.1272726E+04  0.7818608E-02  0.9051478E-01
          2   -1    0    0  501    0  0.00000000000E+00  0.00000000000E+00  0.82740077043E+03  0.82740077043E+03  0.00000000000E+00 0. -1.
         -2   -1    0    0    0  501 -0.00000000000E+00 -0.00000000000E+00 -0.48943350491E+03  0.48943350491E+03  0.00000000000E+00 0.  1.
         23    2    1    2    0    0  0.13406624874E+03  0.99042218801E+02 -0.18962695931E+03  0.26825016513E+03  0.90645723778E+02 0.  0.
        254    2    1    2    0    0 -0.13406624874E+03 -0.99042218801E+02  0.52759422482E+03  0.10485841102E+04  0.89072434006E+03 0.  0.
        -24    2    4    4    0    0  0.78522966464E+02 -0.53903422211E+02  0.72987085142E+03  0.74023355495E+03  0.78503636437E+02 0.  0.
         24    2    4    4    0    0 -0.21258921521E+03 -0.45138796590E+02 -0.20227662660E+03  0.30835055526E+03  0.83261911356E+02 0.  0.
         11    1    3    3    0    0  0.14754476227E+03  0.95201092278E+02 -0.17808773796E+03  0.25009587613E+03  0.00000000000E+00 0. -1.
        -11    1    3    3    0    0 -0.13478513527E+02  0.38411265233E+01 -0.11539221343E+02  0.18154289000E+02  0.00000000000E+00 0.  1.
          2    1    6    6  502    0 -0.71147166848E+02 -0.55240411346E+02 -0.91616621300E+02  0.12847967814E+03  0.00000000000E+00 0. -1.
          3    1    5    5  503    0  0.76853974056E+01  0.18804953846E+02  0.17273614296E+03  0.17392661299E+03  0.00000000000E+00 0. -1.
         -4    1    5    5    0  503  0.70837569058E+02 -0.72708376057E+02  0.55713470846E+03  0.56630694196E+03  0.00000000000E+00 0.  1.
         -1    1    6    6    0  502 -0.14144204836E+03  0.10101614756E+02 -0.11066000530E+03  0.17987087712E+03  0.00000000000E+00 0.  1.
<mgrwt>
<rscale>  0 0.12727257E+04</rscale>
<asrwt>0</asrwt>
<pdfrwt beam="1">  1        2 0.12729243E+00 0.12727257E+04</pdfrwt>
<pdfrwt beam="2">  1       -2 0.75297462E-01 0.12727257E+04</pdfrwt>
<totfact> 0.51195444E+01</totfact>
</mgrwt>
</event>
<event>
12    1  0.1663913E-007  0.3296379E+04  0.7818608E-02  0.8163817E-01
          1   -1    0    0  501    0  0.00000000000E+00  0.00000000000E+00  0.35180188383E+04  0.35180188383E+04  0.00000000000E+00 0. -1.
         -1   -1    0    0    0  501 -0.00000000000E+00 -0.00000000000E+00 -0.77217566288E+03  0.77217566288E+03  0.00000000000E+00 0.  1.
         23    2    1    2    0    0  0.70536508168E+03 -0.13230166373E+04  0.90761242221E+03  0.17543659655E+04  0.78273309195E+02 0.  0.
        254    2    1    2    0    0 -0.70536508168E+03  0.13230166373E+04  0.18382307532E+04  0.25358285357E+04  0.89633762579E+03 0.  0.
        -24    2    4    4    0    0 -0.20947553880E+03  0.19894720015E+02  0.69638755148E+03  0.73189857396E+03  0.80275148572E+02 0.  0.
         24    2    4    4    0    0 -0.49588954287E+03  0.13031219173E+04  0.11418432017E+04  0.18039299617E+04  0.79525087117E+02 0.  0.
         11    1    3    3    0    0  0.62509145036E+03 -0.11473195523E+04  0.81736173139E+03  0.15411559546E+04  0.00000000000E+00 0. -1.
        -11    1    3    3    0    0  0.80273631321E+02 -0.17569708498E+03  0.90250690815E+02  0.21321001091E+03  0.00000000000E+00 0.  1.
          4    1    6    6  502    0 -0.13842323702E+03  0.38391570714E+03  0.28910805926E+03  0.50013571424E+03  0.00000000000E+00 0. -1.
          3    1    5    5  503    0 -0.21565305088E+02 -0.23948761736E+02  0.95817467633E+02  0.10109200105E+03  0.00000000000E+00 0. -1.
         -4    1    5    5    0  503 -0.18791023372E+03  0.43843481752E+02  0.60057008384E+03  0.63080657292E+03  0.00000000000E+00 0.  1.
         -3    1    6    6    0  502 -0.35746630586E+03  0.91920621013E+03  0.85273514246E+03  0.13037942475E+04  0.00000000000E+00 0.  1.
<mgrwt>
<rscale>  0 0.32963789E+04</rscale>
<asrwt>0</asrwt>
<pdfrwt beam="1">  1        1 0.54123366E+00 0.32963789E+04</pdfrwt>
<pdfrwt beam="2">  1       -1 0.11879626E+00 0.32963789E+04</pdfrwt>
<totfact> 0.12717272E-01</totfact>
</mgrwt>
</event>
<event>
12    1  0.1663913E-007  0.1961484E+04  0.7818608E-02  0.8624843E-01
         -2   -1    0    0    0  501 -0.00000000000E+00  0.00000000000E+00  0.32449203659E+03  0.32449203659E+03  0.00000000000E+00 0.  1.
          2   -1    0    0  501    0  0.00000000000E+00 -0.00000000000E+00 -0.29641873748E+04  0.29641873748E+04  0.00000000000E+00 0. -1.
         23    2    1    2    0    0 -0.56881311794E+03 -0.91052780920E+02 -0.19124075616E+04  0.19993568894E+04  0.91029212171E+02 0.  0.
        254    2    1    2    0    0  0.56881311794E+03  0.91052780920E+02 -0.72728777664E+03  0.12893225220E+04  0.89530223035E+03 0.  0.
        -24    2    4    4    0    0  0.53740027748E+03  0.36232438003E+03 -0.18911118036E+03  0.68051299207E+03  0.85187318475E+02 0.  0.
         24    2    4    4    0    0  0.31412840454E+02 -0.27127159911E+03 -0.53817659628E+03  0.60880952995E+03  0.80249286238E+02 0.  0.
         11    1    3    3    0    0 -0.30272426597E+03 -0.32712473322E+02 -0.86183193061E+03  0.91403849139E+03  0.00000000000E+00 0. -1.
        -11    1    3    3    0    0 -0.26608885196E+03 -0.58340307598E+02 -0.10505756310E+04  0.10853183980E+04  0.00000000000E+00 0.  1.
          2    1    6    6  502    0  0.22716301690E+02 -0.22768178793E+02 -0.34918609772E+02  0.47473462444E+02  0.00000000000E+00 0. -1.
          3    1    5    5  503    0  0.78642207232E+02  0.59402995834E+02  0.17683198584E+01  0.98572002250E+02  0.00000000000E+00 0. -1.
         -2    1    5    5    0  503  0.45875807025E+03  0.30292138420E+03 -0.19087950022E+03  0.58194098982E+03  0.00000000000E+00 0.  1.
         -1    1    6    6    0  502  0.86965387647E+01 -0.24850342032E+03 -0.50325798651E+03  0.56133606750E+03  0.00000000000E+00 0.  1.
<mgrwt>
<rscale>  0 0.19614843E+04</rscale>
<asrwt>0</asrwt>
<pdfrwt beam="1">  1        2 0.45602880E+00 0.19614843E+04</pdfrwt>
<pdfrwt beam="2">  1       -2 0.49921855E-01 0.19614843E+04</pdfrwt>
<totfact> 0.65021573E+00</totfact>
</mgrwt>
</event>
<event>
12    1  0.1663913E-007  0.1505487E+04  0.7818608E-02  0.8880812E-01
         -3   -1    0    0    0  501 -0.00000000000E+00  0.00000000000E+00  0.43998807292E+03  0.43998807292E+03  0.00000000000E+00 0.  1.
          3   -1    0    0  501    0  0.00000000000E+00 -0.00000000000E+00 -0.12878144365E+04  0.12878144365E+04  0.00000000000E+00 0. -1.
         23    2    1    2    0    0 -0.32668294163E+03  0.10861476766E+03 -0.65879008824E+03  0.74891607881E+03  0.91389280704E+02 0.  0.
        254    2    1    2    0    0  0.32668294163E+03 -0.10861476766E+03 -0.18903627538E+03  0.97888643066E+03  0.89664096416E+03 0.  0.
        -24    2    4    4    0    0 -0.29833145419E+03 -0.47014617113E+02 -0.14393408032E+03  0.34433555813E+03  0.81473470099E+02 0.  0.
         24    2    4    4    0    0  0.62501439583E+03 -0.61600150546E+02 -0.45102195058E+02  0.63455087253E+03  0.78632234443E+02 0.  0.
         11    1    3    3    0    0 -0.17175320310E+03  0.10313271587E+03 -0.39645390014E+03  0.44419727013E+03  0.00000000000E+00 0. -1.
        -11    1    3    3    0    0 -0.15492973853E+03  0.54820517885E+01 -0.26233618810E+03  0.30471880868E+03  0.00000000000E+00 0.  1.
          4    1    6    6  502    0  0.21673202782E+03 -0.48028648321E+02  0.10709210891E+02  0.22224808242E+03  0.00000000000E+00 0. -1.
          1    1    5    5  503    0 -0.55032510937E+02 -0.67770347110E+00 -0.63272101269E+02  0.83859378372E+02  0.00000000000E+00 0. -1.
         -4    1    5    5    0  503 -0.24329894326E+03 -0.46336913642E+02 -0.80661979055E+02  0.26047617976E+03  0.00000000000E+00 0.  1.
         -3    1    6    6    0  502  0.40828236801E+03 -0.13571502225E+02 -0.55811405949E+02  0.41230279011E+03  0.00000000000E+00 0.  1.
<mgrwt>
<rscale>  0 0.15054873E+04</rscale>
<asrwt>0</asrwt>
<pdfrwt beam="1">  1        3 0.19812529E+00 0.15054873E+04</pdfrwt>
<pdfrwt beam="2">  1       -3 0.67690475E-01 0.15054873E+04</pdfrwt>
<totfact> 0.80388097E-01</totfact>
</mgrwt>
</event>
<event>
12    1  0.1663913E-007  0.1764393E+04  0.7818608E-02  0.8725468E-01
          2   -1    0    0  501    0  0.00000000000E+00  0.00000000000E+00  0.17332977473E+04  0.17332977473E+04  0.00000000000E+00 0. -1.
         -2   -1    0    0    0  501 -0.00000000000E+00 -0.00000000000E+00 -0.44901130056E+03  0.44901130056E+03  0.00000000000E+00 0.  1.
         23    2    1    2    0    0 -0.17484413465E+03 -0.28962302487E+03 -0.18619106394E+03  0.39706614344E+03  0.92425332157E+02 0.  0.
        254    2    1    2    0    0  0.17484413465E+03  0.28962302487E+03  0.14704775107E+04  0.17852429044E+04  0.95411537583E+03 0.  0.
        -24    2    4    4    0    0  0.52539688382E+03  0.29001520728E+03  0.64231615385E+03  0.88240833364E+03  0.76965705407E+02 0.  0.
         24    2    4    4    0    0 -0.35055274917E+03 -0.39218240938E+00  0.82816135681E+03  0.90283457075E+03  0.79822587538E+02 0.  0.
         13    1    3    3    0    0 -0.18563510350E+03 -0.26736545743E+03 -0.16748940426E+03  0.36605652571E+03  0.00000000000E+00 0.  1.
        -13    1    3    3    0    0  0.10790968853E+02 -0.22257567440E+02 -0.18701659676E+02  0.31009617730E+02  0.00000000000E+00 0. -1.
          2    1    6    6  502    0 -0.17100697372E+03  0.25447674913E+02  0.48119885525E+03  0.51131527213E+03  0.00000000000E+00 0. -1.
          3    1    5    5  503    0  0.12166240010E+03  0.10154580850E+03  0.14658633338E+03  0.21587228621E+03  0.00000000000E+00 0. -1.
         -4    1    5    5    0  503  0.40373448372E+03  0.18846939878E+03  0.49572982047E+03  0.66653604743E+03  0.00000000000E+00 0.  1.
         -1    1    6    6    0  502 -0.17954577544E+03 -0.25839857322E+02  0.34696250156E+03  0.39151929862E+03  0.00000000000E+00 0.  1.
<mgrwt>
<rscale>  0 0.17643926E+04</rscale>
<asrwt>0</asrwt>
<pdfrwt beam="1">  1        2 0.26666119E+00 0.17643926E+04</pdfrwt>
<pdfrwt beam="2">  1       -2 0.69078662E-01 0.17643926E+04</pdfrwt>
<totfact> 0.17022247E+01</totfact>
</mgrwt>
</event>
<event>
12    1  0.1663913E-007  0.2286326E+04  0.7818608E-02  0.8483332E-01
         -2   -1    0    0    0  501 -0.00000000000E+00  0.00000000000E+00  0.98535129983E+03  0.98535129983E+03  0.00000000000E+00 0.  1.
          2   -1    0    0  501    0  0.00000000000E+00 -0.00000000000E+00 -0.13262492347E+04  0.13262492347E+04  0.00000000000E+00 0. -1.
         23    2    1    2    0    0 -0.27106200158E+02 -0.46327696484E+03 -0.10000783295E+04  0.11054767822E+04  0.81005916980E+02 0.  0.
        254    2    1    2    0    0  0.27106200158E+02  0.46327696484E+03  0.65918039457E+03  0.12061237524E+04  0.89713734804E+03 0.  0.
        -24    2    4    4    0    0 -0.14764966571E+03  0.39708912475E+03 -0.80995367354E+02  0.43857265028E+03  0.79407324957E+02 0.  0.
         24    2    4    4    0    0  0.17475586587E+03  0.66187840083E+02  0.74017576193E+03  0.76755110211E+03  0.79712564709E+02 0.  0.
         13    1    3    3    0    0 -0.25919067457E+02 -0.42073456268E+03 -0.95270088344E+03  0.10417909309E+04  0.00000000000E+00 0. -1.
        -13    1    3    3    0    0 -0.11871327010E+01 -0.42542402160E+02 -0.47377446049E+02  0.63685851331E+02  0.00000000000E+00 0.  1.
          2    1    6    6  502    0  0.14452117736E+03  0.60015072017E+02  0.69779277137E+03  0.71512441670E+03  0.00000000000E+00 0. -1.
          3    1    5    5  503    0 -0.61906001371E+02  0.15192738897E+03 -0.70710647417E+02  0.17864568336E+03  0.00000000000E+00 0. -1.
         -4    1    5    5    0  503 -0.85743664341E+02  0.24516173579E+03 -0.10284719937E+02  0.25992696692E+03  0.00000000000E+00 0.  1.
         -1    1    6    6    0  502  0.30234688512E+02  0.61727680661E+01  0.42382990554E+02  0.52426685412E+02  0.00000000000E+00 0.  1.
<mgrwt>
<rscale>  0 0.22863258E+04</rscale>
<asrwt>0</asrwt>
<pdfrwt beam="1">  1        2 0.20403834E+00 0.22863258E+04</pdfrwt>
<pdfrwt beam="2">  1       -2 0.15159251E+00 0.22863258E+04</pdfrwt>
<totfact> 0.42205370E+00</totfact>
</mgrwt>
</event>
<event>
12    1  0.1663913E-007  0.1026671E+04  0.7818608E-02  0.9279766E-01
         -2   -1    0    0    0  501 -0.00000000000E+00  0.00000000000E+00  0.18079093291E+03  0.18079093291E+03  0.00000000000E+00 0. -1.
          2   -1    0    0  501    0  0.00000000000E+00 -0.00000000000E+00 -0.14575595714E+04  0.14575595714E+04  0.00000000000E+00 0.  1.
         23    2    1    2    0    0 -0.67485255282E+02  0.52521501802E+02 -0.16823967511E+03  0.20915983552E+03  0.90169178101E+02 0.  0.
        254    2    1    2    0    0  0.67485255282E+02 -0.52521501802E+02 -0.11085289634E+04  0.14291906688E+04  0.89801822772E+03 0.  0.
        -24    2    4    4    0    0 -0.11191285676E+02 -0.45296368747E+03 -0.75169573851E+03  0.88118973612E+03  0.78406126743E+02 0.  0.
         24    2    4    4    0    0  0.78676540958E+02  0.40044218567E+03 -0.35683322487E+03  0.54800093268E+03  0.80194324574E+02 0.  0.
         11    1    3    3    0    0  0.95014878441E+01  0.34727704647E+02 -0.20025447118E+02  0.41198425620E+02  0.00000000000E+00 0. -1.
        -11    1    3    3    0    0 -0.76986743126E+02  0.17793797154E+02 -0.14821422799E+03  0.16796140990E+03  0.00000000000E+00 0.  1.
          4    1    6    6  502    0 -0.10925567697E+02  0.85125233639E+01 -0.11181146433E+02  0.17800256152E+02  0.00000000000E+00 0. -1.
          3    1    5    5  503    0 -0.34786374473E+02 -0.17306961229E+03 -0.33494657959E+03  0.37861906149E+03  0.00000000000E+00 0. -1.
         -4    1    5    5    0  503  0.23595088797E+02 -0.27989407518E+03 -0.41674915893E+03  0.50257067463E+03  0.00000000000E+00 0.  1.
         -3    1    6    6    0  502  0.89602108655E+02  0.39192966230E+03 -0.34565207844E+03  0.53020067653E+03  0.00000000000E+00 0.  1.
<mgrwt>
<rscale>  0 0.10266714E+04</rscale>
<asrwt>0</asrwt>
<pdfrwt beam="1">  1        2 0.22423994E+00 0.10266714E+04</pdfrwt>
<pdfrwt beam="2">  1       -2 0.27813989E-01 0.10266714E+04</pdfrwt>
<totfact> 0.15770088E+02</totfact>
</mgrwt>
</event>
<event>
12    1  0.1663913E-007  0.2113449E+04  0.7818608E-02  0.8555342E-01
          3   -1    0    0  501    0  0.00000000000E+00  0.00000000000E+00  0.11428506336E+04  0.11428506336E+04  0.00000000000E+00 0. -1.
         -3   -1    0    0    0  501 -0.00000000000E+00 -0.00000000000E+00 -0.97708931483E+03  0.97708931483E+03  0.00000000000E+00 0.  1.
         23    2    1    2    0    0 -0.61070490446E+03 -0.31594279917E+03 -0.45533203697E+03  0.82970643610E+03  0.91132724843E+02 0.  0.
        254    2    1    2    0    0  0.61070490446E+03  0.31594279917E+03  0.62109335574E+03  0.12902335123E+04  0.89786704311E+03 0.  0.
        -24    2    4    4    0    0  0.75916684916E+03  0.43259465090E+03  0.63765123592E+03  0.10846611288E+04  0.80113848579E+02 0.  0.
         24    2    4    4    0    0 -0.14846194470E+03 -0.11665185173E+03 -0.16557880182E+02  0.20557238356E+03  0.79606770760E+02 0.  0.
         11    1    3    3    0    0 -0.46408187215E+03 -0.25343656993E+03 -0.39184570170E+03  0.65813762465E+03  0.00000000000E+00 0.  1.
        -11    1    3    3    0    0 -0.14662303231E+03 -0.62506229242E+02 -0.63486335268E+02  0.17156881145E+03  0.00000000000E+00 0. -1.
          4    1    6    6  502    0 -0.47856489062E+01 -0.36774842248E+02 -0.17901393598E+02  0.41179501582E+02  0.00000000000E+00 0. -1.
          1    1    5    5  503    0  0.50925142003E+03  0.25158068548E+03  0.39026031628E+03  0.68915380328E+03  0.00000000000E+00 0. -1.
         -2    1    5    5    0  503  0.24991542913E+03  0.18101396542E+03  0.24739091964E+03  0.39550732549E+03  0.00000000000E+00 0.  1.
         -3    1    6    6    0  502 -0.14367629579E+03 -0.79877009478E+02  0.13435134166E+01  0.16439288198E+03  0.00000000000E+00 0.  1.
<mgrwt>
<rscale>  0 0.21134494E+04</rscale>
<asrwt>0</asrwt>
<pdfrwt beam="1">  1        3 0.17582317E+00 0.21134494E+04</pdfrwt>
<pdfrwt beam="2">  1       -3 0.15032143E+00 0.21134494E+04</pdfrwt>
<totfact> 0.16334774E-01</totfact>
</mgrwt>
</event>
<event>
12    1  0.1663913E-007  0.1744903E+04  0.7818608E-02  0.8736161E-01
          2   -1    0    0  501    0  0.00000000000E+00  0.00000000000E+00  0.15823207661E+04  0.15823207661E+04  0.00000000000E+00 0. -1.
         -2   -1    0    0    0  501 -0.00000000000E+00 -0.00000000000E+00 -0.48104785660E+03  0.48104785660E+03  0.00000000000E+00 0.  1.
         23    2    1    2    0    0  0.27326983568E+03  0.56358093772E+03  0.55712669459E+03  0.84312513465E+03  0.90387844274E+02 0.  0.
        254    2    1    2    0    0 -0.27326983568E+03 -0.56358093772E+03  0.54414621489E+03  0.12202434880E+04  0.89476208595E+03 0.  0.
        -24    2    4    4    0    0  0.29788856219E+03 -0.10626985618E+03  0.39380989092E+02  0.32788547963E+03  0.76987970715E+02 0.  0.
         24    2    4    4    0    0 -0.57115839787E+03 -0.45731108154E+03  0.50476522580E+03  0.89235800840E+03  0.78482744789E+02 0.  0.
         11    1    3    3    0    0  0.18569968295E+03  0.30891642420E+03  0.27730074681E+03  0.45476305211E+03  0.00000000000E+00 0.  1.
        -11    1    3    3    0    0  0.87570152728E+02  0.25466451352E+03  0.27982594778E+03  0.38836208253E+03  0.00000000000E+00 0. -1.
          4    1    6    6  502    0 -0.11825436896E+03 -0.10349986036E+03  0.71669993881E+02  0.17272204520E+03  0.00000000000E+00 0. -1.
          1    1    5    5  503    0  0.70992557929E+02 -0.62145837106E+02  0.12831213152E+02  0.95219159742E+02  0.00000000000E+00 0. -1.
         -2    1    5    5    0  503  0.22689600426E+03 -0.44124019077E+02  0.26549775939E+02  0.23266631989E+03  0.00000000000E+00 0.  1.
         -3    1    6    6    0  502 -0.45290402890E+03 -0.35381122117E+03  0.43309523192E+03  0.71963596320E+03  0.00000000000E+00 0.  1.
<mgrwt>
<rscale>  0 0.17449035E+04</rscale>
<asrwt>0</asrwt>
<pdfrwt beam="1">  1        2 0.24343396E+00 0.17449035E+04</pdfrwt>
<pdfrwt beam="2">  1       -2 0.74007363E-01 0.17449035E+04</pdfrwt>
<totfact> 0.17791111E+01</totfact>
</mgrwt>
</event>
<event>
12    1  0.1663913E-007  0.2977694E+04  0.7818608E-02  0.8250129E-01
         -2   -1    0    0    0  501 -0.00000000000E+00  0.00000000000E+00  0.30206643191E+04  0.30206643191E+04  0.00000000000E+00 0.  1.
          2   -1    0    0  501    0  0.00000000000E+00 -0.00000000000E+00 -0.73383367166E+03  0.73383367166E+03  0.00000000000E+00 0. -1.
         23    2    1    2    0    0 -0.22817608567E+00  0.21778958353E+03 -0.64462577119E+03  0.68640156669E+03  0.90401167659E+02 0.  0.
        254    2    1    2    0    0  0.22817608567E+00 -0.21778958353E+03  0.29314564186E+04  0.30680964241E+04  0.87883250867E+03 0.  0.
        -24    2    4    4    0    0  0.86433952907E+01 -0.31482901355E+03  0.32861967854E+03  0.46217665859E+03  0.80152071528E+02 0.  0.
         24    2    4    4    0    0 -0.84152192051E+01  0.97039430013E+02  0.26028367401E+04  0.26059197655E+04  0.81063318779E+02 0.  0.
         11    1    3    3    0    0 -0.28281233100E+02  0.45161179846E+02 -0.23565448005E+03  0.24160379608E+03  0.00000000000E+00 0. -1.
        -11    1    3    3    0    0  0.28053057014E+02  0.17262840369E+03 -0.40897129114E+03  0.44479777061E+03  0.00000000000E+00 0.  1.
          4    1    6    6  502    0 -0.29307183807E+02  0.69600489596E+02  0.10552547339E+04  0.10579535399E+04  0.00000000000E+00 0. -1.
          1    1    5    5  503    0  0.33000502508E+02 -0.21132304927E+03  0.25511043225E+03  0.33290809086E+03  0.00000000000E+00 0. -1.
         -2    1    5    5    0  503 -0.24357107218E+02 -0.10350596428E+03  0.73509246296E+02  0.12926856774E+03  0.00000000000E+00 0.  1.
         -3    1    6    6    0  502  0.20891964602E+02  0.27438940417E+02  0.15475820062E+04  0.15479662256E+04  0.00000000000E+00 0.  1.
<mgrwt>
<rscale>  0 0.29776939E+04</rscale>
<asrwt>0</asrwt>
<pdfrwt beam="1">  1        2 0.11289749E+00 0.29776939E+04</pdfrwt>
<pdfrwt beam="2">  1       -2 0.46471758E+00 0.29776939E+04</pdfrwt>
<totfact> 0.91669752E-02</totfact>
</mgrwt>
</event>
<event>
12    1  0.1663913E-007  0.1474599E+04  0.7818608E-02  0.8901522E-01
          1   -1    0    0  501    0  0.00000000000E+00  0.00000000000E+00  0.97563665017E+03  0.97563665017E+03  0.00000000000E+00 0. -1.
         -1   -1    0    0    0  501 -0.00000000000E+00 -0.00000000000E+00 -0.55718519714E+03  0.55718519714E+03  0.00000000000E+00 0.  1.
         23    2    1    2    0    0 -0.16975159842E+03  0.39857153201E+03 -0.23376324197E+02  0.44336620644E+03  0.91390749973E+02 0.  0.
        254    2    1    2    0    0  0.16975159842E+03 -0.39857153201E+03  0.44182777722E+03  0.10894556409E+04  0.89667549169E+03 0.  0.
        -24    2    4    4    0    0  0.34273494841E+03  0.17218927914E+03  0.20759300625E+03  0.44335002939E+03  0.79674334614E+02 0.  0.
         24    2    4    4    0    0 -0.17298335000E+03 -0.57076081116E+03  0.23423477097E+03  0.64610561148E+03  0.83038487051E+02 0.  0.
         13    1    3    3    0    0 -0.68824609628E+02  0.80175899984E+02 -0.28050614486E+02  0.10932446571E+03  0.00000000000E+00 0. -1.
        -13    1    3    3    0    0 -0.10092698879E+03  0.31839563203E+03  0.46742902886E+01  0.33404174073E+03  0.00000000000E+00 0.  1.
          4    1    6    6  502    0 -0.17670946999E+03 -0.54261991088E+03  0.23627133362E+03  0.61764613458E+03  0.00000000000E+00 0. -1.
          3    1    5    5  503    0  0.13499741272E+03  0.10621909937E+03  0.69357004262E+02  0.18524900149E+03  0.00000000000E+00 0. -1.
         -4    1    5    5    0  503  0.20773753570E+03  0.65970179770E+02  0.13823600199E+03  0.25810102790E+03  0.00000000000E+00 0.  1.
         -3    1    6    6    0  502  0.37261199939E+01 -0.28140900272E+02 -0.20365626429E+01  0.28459476906E+02  0.00000000000E+00 0.  1.
<mgrwt>
<rscale>  0 0.14745987E+04</rscale>
<asrwt>0</asrwt>
<pdfrwt beam="1">  1        1 0.15009795E+00 0.14745987E+04</pdfrwt>
<pdfrwt beam="2">  1       -1 0.85720800E-01 0.14745987E+04</pdfrwt>
<totfact> 0.20610362E+01</totfact>
</mgrwt>
</event>
<event>
12    1  0.1663913E-007  0.1730787E+04  0.7818608E-02  0.8743998E-01
         -2   -1    0    0    0  501 -0.00000000000E+00  0.00000000000E+00  0.35565047515E+03  0.35565047515E+03  0.00000000000E+00 0.  1.
          2   -1    0    0  501    0  0.00000000000E+00 -0.00000000000E+00 -0.21057349939E+04  0.21057349939E+04  0.00000000000E+00 0. -1.
         23    2    1    2    0    0  0.32104992388E+03 -0.89979194033E+02  0.11337744559E+03  0.36279520732E+03  0.87158523987E+02 0.  0.
        254    2    1    2    0    0 -0.32104992388E+03  0.89979194033E+02 -0.18634619643E+04  0.20985902617E+04  0.90577109972E+03 0.  0.
        -24    2    4    4    0    0 -0.35300457616E+03 -0.23908960104E+03 -0.16283682919E+04  0.16852110591E+04  0.81098406430E+02 0.  0.
         24    2    4    4    0    0  0.31954652282E+02  0.32906879507E+03 -0.23509367245E+03  0.41337920264E+03  0.79410066469E+02 0.  0.
         13    1    3    3    0    0  0.26334280623E+02 -0.35885078885E+02  0.83833307333E+01  0.45293635940E+02  0.00000000000E+00 0. -1.
        -13    1    3    3    0    0  0.29471564326E+03 -0.54094115149E+02  0.10499411486E+03  0.31750157138E+03  0.00000000000E+00 0.  1.
          4    1    6    6  502    0 -0.24538192391E+02  0.68892043037E+02 -0.40412701283E+02  0.83554909518E+02  0.00000000000E+00 0. -1.
          3    1    5    5  503    0 -0.20351920605E+03 -0.95124145226E+02 -0.76941801665E+03  0.80154398169E+03  0.00000000000E+00 0. -1.
         -4    1    5    5    0  503 -0.14948537011E+03 -0.14396545581E+03 -0.85895027522E+03  0.88366707738E+03  0.00000000000E+00 0.  1.
         -3    1    6    6    0  502  0.56492844672E+02  0.26017675204E+03 -0.19468097117E+03  0.32982429312E+03  0.00000000000E+00 0.  1.
<mgrwt>
<rscale>  0 0.17307867E+04</rscale>
<asrwt>0</asrwt>
<pdfrwt beam="1">  1        2 0.32395923E+00 0.17307867E+04</pdfrwt>
<pdfrwt beam="2">  1       -2 0.54715458E-01 0.17307867E+04</pdfrwt>
<totfact> 0.17404250E+01</totfact>
</mgrwt>
</event>
<event>
12    1  0.1663913E-007  0.1924717E+04  0.7818608E-02  0.8642650E-01
         -2   -1    0    0    0  501 -0.00000000000E+00  0.00000000000E+00  0.11536635667E+04  0.11536635667E+04  0.00000000000E+00 0.  1.
          2   -1    0    0  501    0  0.00000000000E+00 -0.00000000000E+00 -0.80277639189E+03  0.80277639189E+03  0.00000000000E+00 0. -1.
         23    2    1    2    0    0 -0.50552530602E+03 -0.31162467382E+03  0.59773807285E+03  0.84770789141E+03  0.93016627829E+02 0.  0.
        254    2    1    2    0    0  0.50552530602E+03  0.31162467382E+03 -0.24685089809E+03  0.11087320671E+04  0.90315317553E+03 0.  0.
        -24    2    4    4    0    0 -0.69443276978E+02  0.29378660909E+02 -0.42589439851E+03  0.43952836545E+03  0.78189966891E+02 0.  0.
         24    2    4    4    0    0  0.57496858300E+03  0.28224601291E+03  0.17904350042E+03  0.66920370169E+03  0.74332604354E+02 0.  0.
         11    1    3    3    0    0 -0.37401559292E+03 -0.19411019729E+03  0.37923393807E+03  0.56690811621E+03  0.00000000000E+00 0.  1.
        -11    1    3    3    0    0 -0.13150971311E+03 -0.11751447652E+03  0.21850413479E+03  0.28079977520E+03  0.00000000000E+00 0. -1.
          4    1    6    6  502    0  0.22119761705E+03  0.81261268470E+02  0.92932282027E+02  0.25331440658E+03  0.00000000000E+00 0. -1.
          3    1    5    5  503    0  0.58001557160E+00 -0.82765976509E+01 -0.24022267200E+01  0.86376605602E+01  0.00000000000E+00 0. -1.
         -4    1    5    5    0  503 -0.70023292550E+02  0.37655258560E+02 -0.42349217179E+03  0.43089070489E+03  0.00000000000E+00 0.  1.
         -3    1    6    6    0  502  0.35377096596E+03  0.20098474444E+03  0.86111218395E+02  0.41588929511E+03  0.00000000000E+00 0.  1.
<mgrwt>
<rscale>  0 0.19247170E+04</rscale>
<asrwt>0</asrwt>
<pdfrwt beam="1">  1        2 0.12350406E+00 0.19247170E+04</pdfrwt>
<pdfrwt beam="2">  1       -2 0.17748670E+00 0.19247170E+04</pdfrwt>
<totfact> 0.60464576E+00</totfact>
</mgrwt>
</event>
<event>
12    1  0.1663913E-007  0.2342104E+04  0.7818608E-02  0.8461503E-01
          2   -1    0    0  501    0  0.00000000000E+00  0.00000000000E+00  0.25171170063E+04  0.25171170063E+04  0.00000000000E+00 0. -1.
         -2   -1    0    0    0  501 -0.00000000000E+00 -0.00000000000E+00 -0.54481464915E+03  0.54481464915E+03  0.00000000000E+00 0.  1.
         23    2    1    2    0    0 -0.36073934999E+03  0.79105941416E+03  0.14914154303E+04  0.17286508616E+04  0.89475919103E+02 0.  0.
        254    2    1    2    0    0  0.36073934999E+03 -0.79105941416E+03  0.48088692683E+03  0.13332807939E+04  0.88908805162E+03 0.  0.
        -24    2    4    4    0    0 -0.47541602245E+02  0.91038743942E+02  0.31996419129E+03  0.34557651451E+03  0.80608850804E+02 0.  0.
         24    2    4    4    0    0  0.40828095224E+03 -0.88209815810E+03  0.16092273554E+03  0.98770427936E+03  0.69807737146E+02 0.  0.
         13    1    3    3    0    0 -0.25022317470E+03  0.51135795237E+03  0.10522100058E+04  0.11963463081E+04  0.00000000000E+00 0. -1.
        -13    1    3    3    0    0 -0.11051617529E+03  0.27970146179E+03  0.43920542451E+03  0.53230455347E+03  0.00000000000E+00 0.  1.
          4    1    6    6  502    0  0.24107206406E+02 -0.22765636833E+02  0.36470040092E+01  0.33357641694E+02  0.00000000000E+00 0. -1.
          1    1    5    5  503    0  0.73086407006E+01 -0.30656166657E+01  0.37374888948E+00  0.79343508029E+01  0.00000000000E+00 0. -1.
         -2    1    5    5    0  503 -0.54850242946E+02  0.94104360608E+02  0.31959044240E+03  0.33764216370E+03  0.00000000000E+00 0.  1.
         -3    1    6    6    0  502  0.38417374583E+03 -0.85933252127E+03  0.15727573153E+03  0.95434663766E+03  0.00000000000E+00 0.  1.
<mgrwt>
<rscale>  0 0.23421035E+04</rscale>
<asrwt>0</asrwt>
<pdfrwt beam="1">  1        2 0.38724876E+00 0.23421035E+04</pdfrwt>
<pdfrwt beam="2">  1       -2 0.83817640E-01 0.23421035E+04</pdfrwt>
<totfact> 0.38237052E+00</totfact>
</mgrwt>
</event>
<event>
12    1  0.1663913E-007  0.2010628E+04  0.7818608E-02  0.8601668E-01
          2   -1    0    0  501    0  0.00000000000E+00  0.00000000000E+00  0.15605081552E+04  0.15605081552E+04  0.00000000000E+00 0. -1.
         -2   -1    0    0    0  501 -0.00000000000E+00 -0.00000000000E+00 -0.64764565093E+03  0.64764565093E+03  0.00000000000E+00 0.  1.
         23    2    1    2    0    0  0.46497493815E+03  0.28447925527E+03  0.10025878612E+04  0.11445617889E+04  0.87801648050E+02 0.  0.
        254    2    1    2    0    0 -0.46497493815E+03 -0.28447925527E+03 -0.89725356893E+02  0.10635920173E+04  0.90887138790E+03 0.  0.
        -24    2    4    4    0    0 -0.54952511222E+03  0.11916702685E+03  0.13991079267E+03  0.58488046881E+03  0.79570746091E+02 0.  0.
         24    2    4    4    0    0  0.84550174078E+02 -0.40364628212E+03 -0.22963614956E+03  0.47871154846E+03  0.79705284876E+02 0.  0.
         13    1    3    3    0    0  0.37233788947E+03  0.26123997088E+03  0.86128724036E+03  0.97401105576E+03  0.00000000000E+00 0. -1.
        -13    1    3    3    0    0  0.92637048678E+02  0.23239284389E+02  0.14130062079E+03  0.17055073311E+03  0.00000000000E+00 0.  1.
          4    1    6    6  502    0  0.74573054212E+02 -0.39712436345E+03 -0.23286329558E+03  0.46636275032E+03  0.00000000000E+00 0. -1.
          1    1    5    5  503    0 -0.16621072345E+03  0.71414857395E+02  0.58403150507E+02  0.19009738145E+03  0.00000000000E+00 0. -1.
         -2    1    5    5    0  503 -0.38331438878E+03  0.47752169454E+02  0.81507642163E+02  0.39478308735E+03  0.00000000000E+00 0.  1.
         -3    1    6    6    0  502  0.99771198658E+01 -0.65219186704E+01  0.32271460211E+01  0.12348798136E+02  0.00000000000E+00 0.  1.
<mgrwt>
<rscale>  0 0.20106281E+04</rscale>
<asrwt>0</asrwt>
<pdfrwt beam="1">  1        2 0.24007818E+00 0.20106281E+04</pdfrwt>
<pdfrwt beam="2">  1       -2 0.99637793E-01 0.20106281E+04</pdfrwt>
<totfact> 0.90766977E+00</totfact>
</mgrwt>
</event>
<event>
12    1  0.1663913E-007  0.1808362E+04  0.7818608E-02  0.8701865E-01
          1   -1    0    0  501    0  0.00000000000E+00  0.00000000000E+00  0.21965825011E+04  0.21965825011E+04  0.00000000000E+00 0. -1.
         -1   -1    0    0    0  501 -0.00000000000E+00 -0.00000000000E+00 -0.37218858566E+03  0.37218858566E+03  0.00000000000E+00 0.  1.
         23    2    1    2    0    0  0.41409680126E+03  0.42821497197E+03  0.11342349310E+04  0.12844043315E+04  0.91440609846E+02 0.  0.
        254    2    1    2    0    0 -0.41409680126E+03 -0.42821497197E+03  0.69015898451E+03  0.12843667553E+04  0.90467359592E+03 0.  0.
        -24    2    4    4    0    0 -0.22800450543E+01  0.26165215088E+03  0.14616492009E+03  0.31070245552E+03  0.81882753602E+02 0.  0.
         24    2    4    4    0    0 -0.41181675621E+03 -0.68986712284E+03  0.54399406442E+03  0.97366429977E+03  0.81135310665E+02 0.  0.
         11    1    3    3    0    0  0.38949702999E+03  0.37323272130E+03  0.10545016365E+04  0.11844763831E+04  0.00000000000E+00 0. -1.
        -11    1    3    3    0    0  0.24599771270E+02  0.54982250666E+02  0.79733294421E+02  0.99927948413E+02  0.00000000000E+00 0.  1.
          4    1    6    6  502    0 -0.40736975434E+02 -0.30492262664E+02  0.32776267292E+02  0.60527373539E+02  0.00000000000E+00 0. -1.
          1    1    5    5  503    0 -0.82955978446E+01  0.47601821618E+02 -0.50141808743E+01  0.48578723478E+02  0.00000000000E+00 0. -1.
         -2    1    5    5    0  503  0.60155527903E+01  0.21405032926E+03  0.15117910096E+03  0.26212373204E+03  0.00000000000E+00 0.  1.
         -3    1    6    6    0  502 -0.37107978078E+03 -0.65937486018E+03  0.51121779713E+03  0.91313692623E+03  0.00000000000E+00 0.  1.
<mgrwt>
<rscale>  0 0.18083616E+04</rscale>
<asrwt>0</asrwt>
<pdfrwt beam="1">  1        1 0.33793576E+00 0.18083616E+04</pdfrwt>
<pdfrwt beam="2">  1       -1 0.57259784E-01 0.18083616E+04</pdfrwt>
<totfact> 0.63810906E+00</totfact>
</mgrwt>
</event>
<event>
12    1  0.1663913E-007  0.1541952E+04  0.7818608E-02  0.8857025E-01
         -2   -1    0    0    0  501 -0.00000000000E+00  0.00000000000E+00  0.17841179927E+03  0.17841179927E+03  0.00000000000E+00 0.  1.
          2   -1    0    0  501    0  0.00000000000E+00 -0.00000000000E+00 -0.33316421562E+04  0.33316421562E+04  0.00000000000E+00 0. -1.
         23    2    1    2    0    0  0.27685150850E+03  0.41813520923E+03 -0.11217557622E+04  0.12320916411E+04  0.90719407436E+02 0.  0.
        254    2    1    2    0    0 -0.27685150850E+03 -0.41813520923E+03 -0.20314745947E+04  0.22779623144E+04  0.90041072075E+03 0.  0.
        -24    2    4    4    0    0 -0.26091950831E+03  0.60161896174E+02 -0.16120599499E+04  0.16364182409E+04  0.86191260730E+02 0.  0.
         24    2    4    4    0    0 -0.15932000186E+02 -0.47829710541E+03 -0.41941464484E+03  0.64154407358E+03  0.81536521689E+02 0.  0.
         13    1    3    3    0    0  0.18931982431E+03  0.26792622809E+03 -0.62632247671E+03  0.70704052529E+03  0.00000000000E+00 0. -1.
        -13    1    3    3    0    0  0.87531684188E+02  0.15020898114E+03 -0.49543328553E+03  0.52505111577E+03  0.00000000000E+00 0.  1.
          2    1    6    6  502    0  0.59359698953E+01 -0.10107641668E+03 -0.49273598463E+02  0.11260357567E+03  0.00000000000E+00 0. -1.
          1    1    5    5  503    0 -0.37269361137E+02 -0.14540066415E+02 -0.37151531750E+03  0.37366301656E+03  0.00000000000E+00 0. -1.
         -2    1    5    5    0  503 -0.22365014717E+03  0.74701962589E+02 -0.12405446324E+04  0.12627552243E+04  0.00000000000E+00 0.  1.
         -1    1    6    6    0  502 -0.21867970081E+02 -0.37722068872E+03 -0.37014104638E+03  0.52894049791E+03  0.00000000000E+00 0.  1.
<mgrwt>
<rscale>  0 0.15419524E+04</rscale>
<asrwt>0</asrwt>
<pdfrwt beam="1">  1        2 0.51256034E+00 0.15419524E+04</pdfrwt>
<pdfrwt beam="2">  1       -2 0.27447969E-01 0.15419524E+04</pdfrwt>
<totfact> 0.12488782E+01</totfact>
</mgrwt>
</event>
<event>
12    1  0.1663913E-007  0.2339794E+04  0.7818608E-02  0.8462394E-01
          2   -1    0    0  501    0  0.00000000000E+00  0.00000000000E+00  0.22904798829E+04  0.22904798829E+04  0.00000000000E+00 0. -1.
         -2   -1    0    0    0  501 -0.00000000000E+00 -0.00000000000E+00 -0.59754231427E+03  0.59754231427E+03  0.00000000000E+00 0.  1.
         23    2    1    2    0    0 -0.58165623633E+03  0.74883304319E+03  0.10637253602E+04  0.14280213702E+04  0.93050997127E+02 0.  0.
        254    2    1    2    0    0  0.58165623633E+03 -0.74883304319E+03  0.62921220844E+03  0.14600008270E+04  0.91466907000E+03 0.  0.
        -24    2    4    4    0    0  0.46061304412E+03  0.19261609635E+01 -0.18115571295E+01  0.46850504497E+03  0.85589771076E+02 0.  0.
         24    2    4    4    0    0  0.12104319222E+03 -0.75075920415E+03  0.63102376557E+03  0.99149578199E+03  0.81129871053E+02 0.  0.
         13    1    3    3    0    0 -0.48323060051E+03  0.65070660162E+03  0.86362907403E+03  0.11843927018E+04  0.00000000000E+00 0.  1.
        -13    1    3    3    0    0 -0.98425635824E+02  0.98126441569E+02  0.20009628619E+03  0.24362866841E+03  0.00000000000E+00 0. -1.
          2    1    6    6  502    0  0.73976628533E+02 -0.50731939769E+03  0.47245287323E+03  0.69717804775E+03  0.00000000000E+00 0. -1.
          1    1    5    5  503    0  0.27572864881E+03  0.16236520274E+02  0.38098672463E+02  0.27882148627E+03  0.00000000000E+00 0. -1.
         -2    1    5    5    0  503  0.18488439531E+03 -0.14310359311E+02 -0.39910229592E+02  0.18968355869E+03  0.00000000000E+00 0.  1.
         -1    1    6    6    0  502  0.47066563684E+02 -0.24343980646E+03  0.15857089234E+03  0.29431773424E+03  0.00000000000E+00 0.  1.
<mgrwt>
<rscale>  0 0.23397937E+04</rscale>
<asrwt>0</asrwt>
<pdfrwt beam="1">  1        2 0.35238152E+00 0.23397937E+04</pdfrwt>
<pdfrwt beam="2">  1       -2 0.91929588E-01 0.23397937E+04</pdfrwt>
<totfact> 0.41731512E+00</totfact>
</mgrwt>
</event>
<event>
12    1  0.1663913E-007  0.1960003E+04  0.7818608E-02  0.8625552E-01
         -2   -1    0    0    0  501 -0.00000000000E+00  0.00000000000E+00  0.29796619982E+03  0.29796619982E+03  0.00000000000E+00 0.  1.
          2   -1    0    0  501    0  0.00000000000E+00 -0.00000000000E+00 -0.32231934423E+04  0.32231934423E+04  0.00000000000E+00 0. -1.
         23    2    1    2    0    0 -0.56781716473E+03 -0.52210961922E+03 -0.10973565098E+04  0.13444259733E+04  0.90967581766E+02 0.  0.
        254    2    1    2    0    0  0.56781716473E+03  0.52210961922E+03 -0.18278707326E+04  0.21767336688E+04  0.89556868114E+03 0.  0.
        -24    2    4    4    0    0 -0.44381169290E+02  0.45380101887E+03 -0.12309774733E+04  0.13151709407E+04  0.80399071902E+02 0.  0.
         24    2    4    4    0    0  0.61219833402E+03  0.68308600354E+02 -0.59689325934E+03  0.86156272804E+03  0.80968550948E+02 0.  0.
         11    1    3    3    0    0 -0.72789380129E+01 -0.25909303252E+02 -0.25874278694E+02  0.37333004587E+02  0.00000000000E+00 0.  1.
        -11    1    3    3    0    0 -0.56053822672E+03 -0.49620031597E+03 -0.10714822311E+04  0.13070929687E+04  0.00000000000E+00 0. -1.
          2    1    6    6  502    0  0.36056954395E+03  0.59855720459E+00 -0.33723573510E+03  0.49369899263E+03  0.00000000000E+00 0. -1.
          3    1    5    5  503    0 -0.11383063563E+02  0.37425000907E+03 -0.94380636652E+03  0.10153635314E+04  0.00000000000E+00 0. -1.
         -4    1    5    5    0  503 -0.32998105727E+02  0.79551009800E+02 -0.28717110675E+03  0.29980740934E+03  0.00000000000E+00 0.  1.
         -1    1    6    6    0  502  0.25162879007E+03  0.67710043149E+02 -0.25965752424E+03  0.36786373541E+03  0.00000000000E+00 0.  1.
<mgrwt>
<rscale>  0 0.19600028E+04</rscale>
<asrwt>0</asrwt>
<pdfrwt beam="1">  1        2 0.49587594E+00 0.19600028E+04</pdfrwt>
<pdfrwt beam="2">  1       -2 0.45840952E-01 0.19600028E+04</pdfrwt>
<totfact> 0.52877014E+00</totfact>
</mgrwt>
</event>
<event>
12    1  0.1663913E-007  0.1919255E+04  0.7818608E-02  0.8645331E-01
         -2   -1    0    0    0  501 -0.00000000000E+00  0.00000000000E+00  0.31939542116E+04  0.31939542116E+04  0.00000000000E+00 0.  1.
          2   -1    0    0  501    0  0.00000000000E+00 -0.00000000000E+00 -0.28832126139E+03  0.28832126139E+03  0.00000000000E+00 0. -1.
         23    2    1    2    0    0  0.27981597854E+03 -0.29628680517E+03  0.23040765605E+04  0.23417346139E+04  0.94177240926E+02 0.  0.
        254    2    1    2    0    0 -0.27981597854E+03  0.29628680517E+03  0.60155638970E+03  0.11405408590E+04  0.87913622858E+03 0.  0.
        -24    2    4    4    0    0  0.10284718104E+03  0.22465588479E+03 -0.14301625896E+03  0.29645826098E+03  0.79912708339E+02 0.  0.
         24    2    4    4    0    0 -0.38266315958E+03  0.71630920377E+02  0.74457264866E+03  0.84408259807E+03  0.80776981771E+02 0.  0.
         13    1    3    3    0    0  0.13947562794E+03 -0.81468256844E+02  0.85979676925E+03  0.87483770613E+03  0.00000000000E+00 0. -1.
        -13    1    3    3    0    0  0.14034035060E+03 -0.21481854832E+03  0.14442797912E+04  0.14668969078E+04  0.00000000000E+00 0.  1.
          2    1    6    6  502    0 -0.13937489024E+03  0.45652276801E+02  0.20961711133E+03  0.25582967727E+03  0.00000000000E+00 0. -1.
          1    1    5    5  503    0  0.29581854647E+02  0.82229212032E+01 -0.11308365103E+02  0.32719744479E+02  0.00000000000E+00 0. -1.
         -2    1    5    5    0  503  0.73265326393E+02  0.21643296359E+03 -0.13170789386E+03  0.26373851650E+03  0.00000000000E+00 0.  1.
         -1    1    6    6    0  502 -0.24328826934E+03  0.25978643575E+02  0.53495553733E+03  0.58825292081E+03  0.00000000000E+00 0.  1.
<mgrwt>
<rscale>  0 0.19192550E+04</rscale>
<asrwt>0</asrwt>
<pdfrwt beam="1">  1        2 0.44357119E-01 0.19192550E+04</pdfrwt>
<pdfrwt beam="2">  1       -2 0.49137755E+00 0.19192550E+04</pdfrwt>
<totfact> 0.20015853E-01</totfact>
</mgrwt>
</event>
<event>
12    1  0.1663913E-007  0.1300619E+04  0.7818608E-02  0.9029074E-01
         -2   -1    0    0    0  501 -0.00000000000E+00  0.00000000000E+00  0.97291180433E+03  0.97291180433E+03  0.00000000000E+00 0.  1.
          2   -1    0    0  501    0  0.00000000000E+00 -0.00000000000E+00 -0.43467714836E+03  0.43467714836E+03  0.00000000000E+00 0. -1.
         23    2    1    2    0    0  0.66869452425E+02 -0.10907846291E+03  0.47000944119E+03  0.49544869312E+03  0.90503579845E+02 0.  0.
        254    2    1    2    0    0 -0.66869452425E+02  0.10907846291E+03  0.68225214773E+02  0.91214025957E+03  0.90054180273E+03 0.  0.
        -24    2    4    4    0    0 -0.17452035200E+03  0.24618839571E+03 -0.34072764429E+03  0.46047895612E+03  0.69853145985E+02 0.  0.
         24    2    4    4    0    0  0.10765089957E+03 -0.13710993280E+03  0.40895285906E+03  0.45166130345E+03  0.79797507804E+02 0.  0.
         11    1    3    3    0    0  0.27526534558E+02  0.45725232266E+01  0.16923859166E+03  0.17152352311E+03  0.00000000000E+00 0. -1.
        -11    1    3    3    0    0  0.39342917867E+02 -0.11365098614E+03  0.30077084953E+03  0.32392517001E+03  0.00000000000E+00 0.  1.
          4    1    6    6  502    0  0.68663829105E+02 -0.13623963785E+03  0.33283820764E+03  0.36613827007E+03  0.00000000000E+00 0. -1.
          1    1    5    5  503    0 -0.64756479524E+02  0.46392753884E+02 -0.11301995439E+03  0.13827219295E+03  0.00000000000E+00 0. -1.
         -2    1    5    5    0  503 -0.10976387247E+03  0.19979564182E+03 -0.22770768989E+03  0.32220676317E+03  0.00000000000E+00 0.  1.
         -3    1    6    6    0  502  0.38987070467E+02 -0.87029494524E+00  0.76114651424E+02  0.85523033379E+02  0.00000000000E+00 0.  1.
<mgrwt>
<rscale>  0 0.13006191E+04</rscale>
<asrwt>0</asrwt>
<pdfrwt beam="1">  1        2 0.66873408E-01 0.13006191E+04</pdfrwt>
<pdfrwt beam="2">  1       -2 0.14967874E+00 0.13006191E+04</pdfrwt>
<totfact> 0.21349089E+01</totfact>
</mgrwt>
</event>
<event>
12    1  0.1663913E-007  0.2495819E+04  0.7818608E-02  0.8404476E-01
         -1   -1    0    0    0  501 -0.00000000000E+00  0.00000000000E+00  0.16985588166E+04  0.16985588166E+04  0.00000000000E+00 0.  1.
          1   -1    0    0  501    0  0.00000000000E+00 -0.00000000000E+00 -0.91682337947E+03  0.91682337947E+03  0.00000000000E+00 0. -1.
         23    2    1    2    0    0  0.83285199407E+03 -0.37020018574E+03 -0.27569587354E+03  0.95653193263E+03  0.90854289459E+02 0.  0.
        254    2    1    2    0    0 -0.83285199407E+03  0.37020018574E+03  0.10574313106E+04  0.16588502634E+04  0.89606506353E+03 0.  0.
        -24    2    4    4    0    0 -0.64908383311E+03  0.19159755287E+03  0.11807351331E+04  0.13632740030E+04  0.79756554198E+02 0.  0.
         24    2    4    4    0    0 -0.18376816096E+03  0.17860263287E+03 -0.12330382249E+03  0.29557626041E+03  0.80572052373E+02 0.  0.
         11    1    3    3    0    0  0.11387587467E+03 -0.52549588232E+02 -0.61070437104E+01  0.12556460504E+03  0.00000000000E+00 0.  1.
        -11    1    3    3    0    0  0.71897611940E+03 -0.31765059751E+03 -0.26958882983E+03  0.83096732760E+03  0.00000000000E+00 0. -1.
          4    1    6    6  502    0 -0.17408765502E+03  0.17753368659E+03 -0.95909359426E+02  0.26650202012E+03  0.00000000000E+00 0. -1.
          1    1    5    5  503    0 -0.59403644096E+03  0.16189759033E+03  0.11058868834E+04  0.12657313782E+04  0.00000000000E+00 0. -1.
         -2    1    5    5    0  503 -0.55047392147E+02  0.29699962540E+02  0.74848249708E+02  0.97542624741E+02  0.00000000000E+00 0.  1.
         -3    1    6    6    0  502 -0.96805059353E+01  0.10689462863E+01 -0.27394463067E+02  0.29074240283E+02  0.00000000000E+00 0.  1.
<mgrwt>
<rscale>  0 0.24958193E+04</rscale>
<asrwt>0</asrwt>
<pdfrwt beam="1">  1        1 0.14104975E+00 0.24958193E+04</pdfrwt>
<pdfrwt beam="2">  1       -1 0.26131674E+00 0.24958193E+04</pdfrwt>
<totfact> 0.92169695E-01</totfact>
</mgrwt>
</event>
<event>
12    1  0.1663913E-007  0.2060206E+04  0.7818608E-02  0.8578978E-01
         -1   -1    0    0    0  501 -0.00000000000E+00  0.00000000000E+00  0.13644228572E+04  0.13644228572E+04  0.00000000000E+00 0.  1.
          1   -1    0    0  501    0  0.00000000000E+00 -0.00000000000E+00 -0.77770063806E+03  0.77770063806E+03  0.00000000000E+00 0. -1.
         23    2    1    2    0    0 -0.43245489752E+03 -0.28899580655E+03 -0.43615100258E+03  0.68498617256E+03  0.91883322507E+02 0.  0.
        254    2    1    2    0    0  0.43245489752E+03  0.28899580655E+03  0.10228732217E+04  0.14571373227E+04  0.89802212383E+03 0.  0.
        -24    2    4    4    0    0  0.10771775987E+03  0.27476428390E+03  0.10756714960E+04  0.11182455654E+04  0.79406862027E+02 0.  0.
         24    2    4    4    0    0  0.32473713766E+03  0.14231522650E+02 -0.52798274261E+02  0.33889175731E+03  0.80020126220E+02 0.  0.
         11    1    3    3    0    0 -0.32069515821E+03 -0.24804305356E+03 -0.36963094086E+03  0.54863263971E+03  0.00000000000E+00 0. -1.
        -11    1    3    3    0    0 -0.11175973932E+03 -0.40952752992E+02 -0.66520061720E+02  0.13635353285E+03  0.00000000000E+00 0.  1.
          4    1    6    6  502    0  0.20177120506E+02 -0.13754293891E+02 -0.19483672815E+02  0.31239563037E+02  0.00000000000E+00 0. -1.
          1    1    5    5  503    0  0.12011818813E+03  0.25889083843E+03  0.99823334885E+03  0.10382305448E+04  0.00000000000E+00 0. -1.
         -2    1    5    5    0  503 -0.12400428266E+02  0.15873445468E+02  0.77438147143E+02  0.80015020622E+02  0.00000000000E+00 0.  1.
         -3    1    6    6    0  502  0.30456001715E+03  0.27985816541E+02 -0.33314601446E+02  0.30765219428E+03  0.00000000000E+00 0.  1.
<mgrwt>
<rscale>  0 0.20602063E+04</rscale>
<asrwt>0</asrwt>
<pdfrwt beam="1">  1        1 0.11964625E+00 0.20602063E+04</pdfrwt>
<pdfrwt beam="2">  1       -1 0.20991121E+00 0.20602063E+04</pdfrwt>
<totfact> 0.27478783E+00</totfact>
</mgrwt>
</event>
<event>
12    1  0.1663913E-007  0.1395071E+04  0.7818608E-02  0.8957394E-01
         -2   -1    0    0    0  501 -0.00000000000E+00  0.00000000000E+00  0.10709027725E+04  0.10709027725E+04  0.00000000000E+00 0.  1.
          2   -1    0    0  501    0  0.00000000000E+00 -0.00000000000E+00 -0.45434181190E+03  0.45434181190E+03  0.00000000000E+00 0. -1.
         23    2    1    2    0    0  0.36157890298E+03 -0.11027842998E+03  0.35836328202E+03  0.52970768261E+03  0.96256698062E+02 0.  0.
        254    2    1    2    0    0 -0.36157890298E+03  0.11027842998E+03  0.25819767861E+03  0.99553690181E+03  0.88404018372E+03 0.  0.
        -24    2    4    4    0    0 -0.19625108773E+03  0.49002563509E+03  0.19659248695E+03  0.56930907627E+03  0.82611173069E+02 0.  0.
         24    2    4    4    0    0 -0.16532781525E+03 -0.37974720511E+03  0.61605191661E+02  0.42622782555E+03  0.79584755724E+02 0.  0.
         13    1    3    3    0    0  0.65289205170E+02 -0.58560503585E+02  0.61574702780E+02  0.10716089265E+03  0.00000000000E+00 0. -1.
        -13    1    3    3    0    0  0.29628969781E+03 -0.51717926392E+02  0.29678857924E+03  0.42254678996E+03  0.00000000000E+00 0.  1.
          4    1    6    6  502    0 -0.46492534496E+02 -0.13701545604E+03 -0.14616260404E+02  0.14542498419E+03  0.00000000000E+00 0. -1.
          1    1    5    5  503    0 -0.58782024953E+02  0.78258771865E+02  0.57228267063E+02  0.11337917085E+03  0.00000000000E+00 0. -1.
         -2    1    5    5    0  503 -0.13746906277E+03  0.41176686322E+03  0.13936421989E+03  0.45592990542E+03  0.00000000000E+00 0.  1.
         -3    1    6    6    0  502 -0.11883528076E+03 -0.24273174907E+03  0.76221452065E+02  0.28080284136E+03  0.00000000000E+00 0.  1.
<mgrwt>
<rscale>  0 0.13950712E+04</rscale>
<asrwt>0</asrwt>
<pdfrwt beam="1">  1        2 0.69898741E-01 0.13950712E+04</pdfrwt>
<pdfrwt beam="2">  1       -2 0.16475427E+00 0.13950712E+04</pdfrwt>
<totfact> 0.15552312E+01</totfact>
</mgrwt>
</event>
<event>
12    1  0.1663913E-007  0.2494158E+04  0.7818608E-02  0.8405070E-01
          2   -1    0    0  501    0  0.00000000000E+00  0.00000000000E+00  0.88495630624E+03  0.88495630624E+03  0.00000000000E+00 0. -1.
         -2   -1    0    0    0  501 -0.00000000000E+00 -0.00000000000E+00 -0.17573820773E+04  0.17573820773E+04  0.00000000000E+00 0.  1.
         23    2    1    2    0    0 -0.54114396103E+03  0.64504513074E+03 -0.11359417044E+04  0.14170021452E+04  0.92798255475E+02 0.  0.
        254    2    1    2    0    0  0.54114396103E+03 -0.64504513074E+03  0.26351593339E+03  0.12253362384E+04  0.85034595474E+03 0.  0.
        -24    2    4    4    0    0  0.16657614139E+03 -0.36620390227E+03  0.53891253235E+03  0.67728376650E+03  0.80210185928E+02 0.  0.
         24    2    4    4    0    0  0.37456781963E+03 -0.27884122846E+03 -0.27539659896E+03  0.54805247190E+03  0.80403625758E+02 0.  0.
         11    1    3    3    0    0 -0.43744115288E+03  0.57190021844E+03 -0.97516808155E+03  0.12121787861E+04  0.00000000000E+00 0.  1.
        -11    1    3    3    0    0 -0.10370280815E+03  0.73144912293E+02 -0.16077362290E+03  0.20482335910E+03  0.00000000000E+00 0. -1.
          2    1    6    6  502    0  0.25659564409E+03 -0.16655675601E+03 -0.14076607149E+03  0.33674554848E+03  0.00000000000E+00 0. -1.
          1    1    5    5  503    0  0.76872968014E+02 -0.24091048501E+03  0.37514909964E+03  0.45242033770E+03  0.00000000000E+00 0. -1.
         -2    1    5    5    0  503  0.89703173377E+02 -0.12529341726E+03  0.16376343271E+03  0.22486342880E+03  0.00000000000E+00 0.  1.
         -1    1    6    6    0  502  0.11797217555E+03 -0.11228447245E+03 -0.13463052747E+03  0.21130692342E+03  0.00000000000E+00 0.  1.
<mgrwt>
<rscale>  0 0.24941583E+04</rscale>
<asrwt>0</asrwt>
<pdfrwt beam="1">  1        2 0.13614713E+00 0.24941583E+04</pdfrwt>
<pdfrwt beam="2">  1       -2 0.27036647E+00 0.24941583E+04</pdfrwt>
<totfact> 0.12916190E+00</totfact>
</mgrwt>
</event>
<event>
12    1  0.1663913E-007  0.1643242E+04  0.7818608E-02  0.8794414E-01
          1   -1    0    0  501    0  0.00000000000E+00  0.00000000000E+00  0.11264089254E+04  0.11264089254E+04  0.00000000000E+00 0. -1.
         -1   -1    0    0    0  501 -0.00000000000E+00 -0.00000000000E+00 -0.59930397310E+03  0.59930397310E+03  0.00000000000E+00 0.  1.
         23    2    1    2    0    0 -0.52067657585E+03  0.36033980100E+02  0.39636217002E+03  0.66169974684E+03  0.91329298603E+02 0.  0.
        254    2    1    2    0    0  0.52067657585E+03 -0.36033980100E+02  0.13074278233E+03  0.10640131517E+04  0.91794758428E+03 0.  0.
        -24    2    4    4    0    0  0.50797257657E+03 -0.14687217458E+03 -0.29894225537E+03  0.61288901336E+03  0.81602061471E+02 0.  0.
         24    2    4    4    0    0  0.12703999285E+02  0.11083819448E+03  0.42968503770E+03  0.45112413834E+03  0.80232534695E+02 0.  0.
         11    1    3    3    0    0 -0.17590010680E+03  0.27063013121E+02  0.85736088647E+02  0.19754475733E+03  0.00000000000E+00 0.  1.
        -11    1    3    3    0    0 -0.34477646906E+03  0.89709669791E+01  0.31062608137E+03  0.46415498952E+03  0.00000000000E+00 0. -1.
          2    1    6    6  502    0 -0.23839038769E+02  0.54613596286E+01  0.55026694796E+02  0.60216802959E+02  0.00000000000E+00 0. -1.
          1    1    5    5  503    0  0.15359009224E+03 -0.44273952685E+02 -0.48720894055E+02  0.16710423345E+03  0.00000000000E+00 0. -1.
         -2    1    5    5    0  503  0.35438248433E+03 -0.10259822189E+03 -0.25022136131E+03  0.44578477990E+03  0.00000000000E+00 0.  1.
         -1    1    6    6    0  502  0.36543038054E+02  0.10537683485E+03  0.37465834290E+03  0.39090733539E+03  0.00000000000E+00 0.  1.
<mgrwt>
<rscale>  0 0.16432423E+04</rscale>
<asrwt>0</asrwt>
<pdfrwt beam="1">  1        1 0.17329368E+00 0.16432423E+04</pdfrwt>
<pdfrwt beam="2">  1       -1 0.92200612E-01 0.16432423E+04</pdfrwt>
<totfact> 0.13261459E+01</totfact>
</mgrwt>
</event>
<event>
12    1  0.1663913E-007  0.1146724E+04  0.7818608E-02  0.9160811E-01
         -2   -1    0    0    0  501 -0.00000000000E+00  0.00000000000E+00  0.20691618808E+03  0.20691618808E+03  0.00000000000E+00 0. -1.
          2   -1    0    0  501    0  0.00000000000E+00 -0.00000000000E+00 -0.15887777608E+04  0.15887777608E+04  0.00000000000E+00 0.  1.
         23    2    1    2    0    0  0.20646583505E+03 -0.15253493927E+02 -0.33982010327E+03  0.40780129194E+03  0.89237777867E+02 0.  0.
        254    2    1    2    0    0 -0.20646583505E+03  0.15253493927E+02 -0.10420414694E+04  0.13878926569E+04  0.89304803513E+03 0.  0.
        -24    2    4    4    0    0 -0.40112452577E+03  0.30347357769E+03 -0.82678653117E+03  0.97107695618E+03  0.80108608526E+02 0.  0.
         24    2    4    4    0    0  0.19465869073E+03 -0.28822008376E+03 -0.21525493827E+03  0.41681570076E+03  0.80236010582E+02 0.  0.
         13    1    3    3    0    0  0.67402042231E+02  0.27016685289E+02 -0.67607515980E+02  0.99215486684E+02  0.00000000000E+00 0. -1.
        -13    1    3    3    0    0  0.13906379281E+03 -0.42270179215E+02 -0.27221258729E+03  0.30858580525E+03  0.00000000000E+00 0.  1.
          4    1    6    6  502    0  0.57493086491E+02 -0.34742926498E+02 -0.26048745868E+02  0.72049032590E+02  0.00000000000E+00 0. -1.
          3    1    5    5  503    0 -0.36141627930E+03  0.23819947405E+03 -0.69681385794E+03  0.82031108063E+03  0.00000000000E+00 0. -1.
         -4    1    5    5    0  503 -0.39708246472E+02  0.65274103637E+02 -0.12997267323E+03  0.15076587555E+03  0.00000000000E+00 0.  1.
         -3    1    6    6    0  502  0.13716560424E+03 -0.25347715727E+03 -0.18920619240E+03  0.34476666817E+03  0.00000000000E+00 0.  1.
<mgrwt>
<rscale>  0 0.11467237E+04</rscale>
<asrwt>0</asrwt>
<pdfrwt beam="1">  1        2 0.24442736E+00 0.11467237E+04</pdfrwt>
<pdfrwt beam="2">  1       -2 0.31833258E-01 0.11467237E+04</pdfrwt>
<totfact> 0.10271901E+02</totfact>
</mgrwt>
</event>
<event>
12    1  0.1663913E-007  0.1897445E+04  0.7818608E-02  0.8656129E-01
          1   -1    0    0  501    0  0.00000000000E+00  0.00000000000E+00  0.24937974232E+04  0.24937974232E+04  0.00000000000E+00 0. -1.
         -1   -1    0    0    0  501 -0.00000000000E+00 -0.00000000000E+00 -0.36092531359E+03  0.36092531359E+03  0.00000000000E+00 0.  1.
         23    2    1    2    0    0  0.75063581787E+03 -0.56842935432E+02  0.87076048610E+03  0.11546672866E+04  0.91364480450E+02 0.  0.
        254    2    1    2    0    0 -0.75063581787E+03  0.56842935432E+02  0.12621116235E+04  0.17000554501E+04  0.85473828332E+03 0.  0.
        -24    2    4    4    0    0 -0.63672535852E+02 -0.26085735646E+03  0.69891391994E+03  0.75315245338E+03  0.81591655809E+02 0.  0.
         24    2    4    4    0    0 -0.68696328202E+03  0.31770029189E+03  0.56319770354E+03  0.94690299674E+03  0.81127095711E+02 0.  0.
         13    1    3    3    0    0  0.71877347037E+03 -0.42489597401E+02  0.85017543940E+03  0.11141090366E+04  0.00000000000E+00 0.  1.
        -13    1    3    3    0    0  0.31862347498E+02 -0.14353338031E+02  0.20585046694E+02  0.40558250063E+02  0.00000000000E+00 0. -1.
          2    1    6    6  502    0 -0.13628056439E+03  0.94203304344E+02  0.14548867366E+03  0.22048494040E+03  0.00000000000E+00 0. -1.
          1    1    5    5  503    0 -0.39976517612E+02 -0.38168805082E+02  0.17073146621E+03  0.17945532368E+03  0.00000000000E+00 0. -1.
         -2    1    5    5    0  503 -0.23696018239E+02 -0.22268855138E+03  0.52818245373E+03  0.57369712969E+03  0.00000000000E+00 0.  1.
         -1    1    6    6    0  502 -0.55068271763E+03  0.22349698755E+03  0.41770902988E+03  0.72641805634E+03  0.00000000000E+00 0.  1.
<mgrwt>
<rscale>  0 0.18974452E+04</rscale>
<asrwt>0</asrwt>
<pdfrwt beam="1">  1        1 0.38366113E+00 0.18974452E+04</pdfrwt>
<pdfrwt beam="2">  1       -1 0.55526973E-01 0.18974452E+04</pdfrwt>
<totfact> 0.42025140E+00</totfact>
</mgrwt>
</event>
<event>
12    1  0.1663913E-007  0.2253537E+04  0.7818608E-02  0.8496469E-01
          2   -1    0    0  501    0  0.00000000000E+00  0.00000000000E+00  0.88540413265E+03  0.88540413265E+03  0.00000000000E+00 0. -1.
         -2   -1    0    0    0  501 -0.00000000000E+00 -0.00000000000E+00 -0.14339296728E+04  0.14339296728E+04  0.00000000000E+00 0.  1.
         23    2    1    2    0    0  0.21683276707E+03  0.49244712213E+03 -0.10163671210E+04  0.11537094781E+04  0.92319111081E+02 0.  0.
        254    2    1    2    0    0 -0.21683276707E+03 -0.49244712213E+03  0.46784158085E+03  0.11656243273E+04  0.92210829663E+03 0.  0.
        -24    2    4    4    0    0 -0.54267369300E+03 -0.18721355509E+03  0.11395202199E+03  0.59078718547E+03  0.80627432807E+02 0.  0.
         24    2    4    4    0    0  0.32584092592E+03 -0.30523356704E+03  0.35388955886E+03  0.57483714186E+03  0.76551161583E+02 0.  0.
         11    1    3    3    0    0  0.19416655876E+03  0.43424185559E+03 -0.95081349361E+03  0.10631617663E+04  0.00000000000E+00 0.  1.
        -11    1    3    3    0    0  0.22666208313E+02  0.58205266539E+02 -0.65553627424E+02  0.90547711846E+02  0.00000000000E+00 0. -1.
          2    1    6    6  502    0  0.28482339000E+03 -0.29574680438E+03  0.31479292890E+03  0.51738295670E+03  0.00000000000E+00 0. -1.
          3    1    5    5  503    0 -0.51927341327E+03 -0.18795242678E+03  0.12285027652E+03  0.56574126852E+03  0.00000000000E+00 0. -1.
         -4    1    5    5    0  503 -0.23400279725E+02  0.73887168807E+00 -0.88982545225E+01  0.25045916955E+02  0.00000000000E+00 0.  1.
         -1    1    6    6    0  502  0.41017535921E+02 -0.94867626560E+01  0.39096629956E+02  0.57454185162E+02  0.00000000000E+00 0.  1.
<mgrwt>
<rscale>  0 0.22535370E+04</rscale>
<asrwt>0</asrwt>
<pdfrwt beam="1">  1        2 0.13621602E+00 0.22535370E+04</pdfrwt>
<pdfrwt beam="2">  1       -2 0.22060456E+00 0.22535370E+04</pdfrwt>
<totfact> 0.26738218E+00</totfact>
</mgrwt>
</event>
<event>
12    1  0.1663913E-007  0.2495023E+04  0.7818608E-02  0.8404761E-01
          2   -1    0    0  501    0  0.00000000000E+00  0.00000000000E+00  0.13925991029E+04  0.13925991029E+04  0.00000000000E+00 0. -1.
         -2   -1    0    0    0  501 -0.00000000000E+00 -0.00000000000E+00 -0.11175401174E+04  0.11175401174E+04  0.00000000000E+00 0.  1.
         23    2    1    2    0    0  0.83020788598E+03 -0.64364487208E+03  0.24533571634E+01  0.10546189483E+04  0.93226884016E+02 0.  0.
        254    2    1    2    0    0 -0.83020788598E+03  0.64364487208E+03  0.27260562834E+03  0.14555202719E+04  0.96989771522E+03 0.  0.
        -24    2    4    4    0    0 -0.11338696983E+03 -0.16350529880E+03  0.30218667418E+03  0.37242977332E+03  0.88298144615E+02 0.  0.
         24    2    4    4    0    0 -0.71682091616E+03  0.80715017088E+03 -0.29581045837E+02  0.10830904986E+04  0.82984128831E+02 0.  0.
         11    1    3    3    0    0  0.16452523031E+02 -0.12352708737E+02 -0.13449731697E+02  0.24579874083E+02  0.00000000000E+00 0. -1.
        -11    1    3    3    0    0  0.81375536295E+03 -0.63129216334E+03  0.15903088860E+02  0.10300390742E+04  0.00000000000E+00 0.  1.
          4    1    6    6  502    0 -0.58710439194E+03  0.64144384647E+03  0.64512818096E+01  0.86958806008E+03  0.00000000000E+00 0. -1.
          3    1    5    5  503    0 -0.25315740438E+02 -0.97713986070E+02  0.98861308168E+02  0.14128859841E+03  0.00000000000E+00 0. -1.
         -4    1    5    5    0  503 -0.88071229388E+02 -0.65791312733E+02  0.20332536601E+03  0.23114117491E+03  0.00000000000E+00 0.  1.
         -3    1    6    6    0  502 -0.12971652422E+03  0.16570632442E+03 -0.36032327646E+02  0.21350243850E+03  0.00000000000E+00 0.  1.
<mgrwt>
<rscale>  0 0.24950233E+04</rscale>
<asrwt>0</asrwt>
<pdfrwt beam="1">  1        2 0.21424602E+00 0.24950233E+04</pdfrwt>
<pdfrwt beam="2">  1       -2 0.17192925E+00 0.24950233E+04</pdfrwt>
<totfact> 0.26929495E+00</totfact>
</mgrwt>
</event>
<event>
12    1  0.1663913E-007  0.2253502E+04  0.7818608E-02  0.8496483E-01
          2   -1    0    0  501    0  0.00000000000E+00  0.00000000000E+00  0.17260919575E+04  0.17260919575E+04  0.00000000000E+00 0.  1.
         -2   -1    0    0    0  501 -0.00000000000E+00 -0.00000000000E+00 -0.73551601054E+03  0.73551601054E+03  0.00000000000E+00 0. -1.
         23    2    1    2    0    0 -0.51207520214E+03 -0.12299031464E+03  0.12773649050E+04  0.13845337620E+04  0.89022509884E+02 0.  0.
        254    2    1    2    0    0  0.51207520214E+03  0.12299031464E+03 -0.28678895811E+03  0.10770742060E+04  0.89470291644E+03 0.  0.
        -24    2    4    4    0    0 -0.89861302895E+02 -0.24350214828E+03 -0.24604609963E+03  0.36662328243E+03  0.80657287965E+02 0.  0.
         24    2    4    4    0    0  0.60193650503E+03  0.36649246292E+03 -0.40742858484E+02  0.71045092361E+03  0.80226260529E+02 0.  0.
         13    1    3    3    0    0 -0.24945729443E+03 -0.20449010593E+02  0.54293517260E+03  0.59785090568E+03  0.00000000000E+00 0. -1.
        -13    1    3    3    0    0 -0.26261790770E+03 -0.10254130405E+03  0.73442973245E+03  0.78668285629E+03  0.00000000000E+00 0.  1.
          4    1    6    6  502    0  0.15718664905E+03  0.76941358002E+02 -0.41022251483E+02  0.17975105098E+03  0.00000000000E+00 0. -1.
          3    1    5    5  503    0 -0.49318368568E+02 -0.12954563110E+03 -0.76407809473E+02  0.15827989564E+03  0.00000000000E+00 0. -1.
         -4    1    5    5    0  503 -0.40542934327E+02 -0.11395651718E+03 -0.16963829016E+03  0.20834338679E+03  0.00000000000E+00 0.  1.
         -3    1    6    6    0  502  0.44474985598E+03  0.28955110492E+03  0.27939299953E+00  0.53069987264E+03  0.00000000000E+00 0.  1.
<mgrwt>
<rscale>  0 0.22535024E+04</rscale>
<asrwt>0</asrwt>
<pdfrwt beam="1">  1        2 0.26555261E+00 0.22535024E+04</pdfrwt>
<pdfrwt beam="2">  1       -2 0.11315631E+00 0.22535024E+04</pdfrwt>
<totfact> 0.52946550E+00</totfact>
</mgrwt>
</event>
<event>
12    1  0.1663913E-007  0.1591305E+04  0.7818608E-02  0.8825907E-01
          2   -1    0    0  501    0  0.00000000000E+00  0.00000000000E+00  0.10546335008E+04  0.10546335008E+04  0.00000000000E+00 0. -1.
         -2   -1    0    0    0  501 -0.00000000000E+00 -0.00000000000E+00 -0.60026833999E+03  0.60026833999E+03  0.00000000000E+00 0.  1.
         23    2    1    2    0    0  0.30144195701E+03  0.46386559076E+03  0.35226038064E+03  0.66401632307E+03  0.10388340480E+03 0.  0.
        254    2    1    2    0    0 -0.30144195701E+03 -0.46386559076E+03  0.10210478015E+03  0.99088551770E+03  0.81571452318E+03 0.  0.
        -24    2    4    4    0    0 -0.52567415905E+02  0.11575511619E+03  0.29133738758E+03  0.32759481778E+03  0.79235794267E+02 0.  0.
         24    2    4    4    0    0 -0.24887454111E+03 -0.57962070696E+03 -0.18923260743E+03  0.66329069992E+03  0.79037154197E+02 0.  0.
         13    1    3    3    0    0  0.24602711650E+03  0.43639507697E+03  0.31649390780E+03  0.59256931993E+03  0.00000000000E+00 0. -1.
        -13    1    3    3    0    0  0.55414840516E+02  0.27470513794E+02  0.35766472841E+02  0.71447003136E+02  0.00000000000E+00 0.  1.
          4    1    6    6  502    0 -0.25066118132E+02 -0.50404826092E+02  0.55783629442E+01  0.56569204562E+02  0.00000000000E+00 0. -1.
          1    1    5    5  503    0 -0.10999342740E+02 -0.11502076289E+02  0.32344637866E+02  0.36048008244E+02  0.00000000000E+00 0. -1.
         -2    1    5    5    0  503 -0.41568073166E+02  0.12725719248E+03  0.25899274972E+03  0.29154680954E+03  0.00000000000E+00 0.  1.
         -3    1    6    6    0  502 -0.22380842298E+03 -0.52921588086E+03 -0.19481097037E+03  0.60672149536E+03  0.00000000000E+00 0.  1.
<mgrwt>
<rscale>  0 0.15913053E+04</rscale>
<asrwt>0</asrwt>
<pdfrwt beam="1">  1        2 0.16225131E+00 0.15913053E+04</pdfrwt>
<pdfrwt beam="2">  1       -2 0.92348975E-01 0.15913053E+04</pdfrwt>
<totfact> 0.22217583E+01</totfact>
</mgrwt>
</event>
<event>
12    1  0.1663913E-007  0.1519886E+04  0.7818608E-02  0.8871336E-01
         -1   -1    0    0    0  501 -0.00000000000E+00  0.00000000000E+00  0.12239930106E+04  0.12239930106E+04  0.00000000000E+00 0.  1.
          1   -1    0    0  501    0  0.00000000000E+00 -0.00000000000E+00 -0.47182719444E+03  0.47182719444E+03  0.00000000000E+00 0. -1.
         23    2    1    2    0    0  0.36025918445E+03  0.32450740576E+03  0.22078152386E+03  0.54066463313E+03  0.92097925381E+02 0.  0.
        254    2    1    2    0    0 -0.36025918445E+03 -0.32450740576E+03  0.53138429232E+03  0.11551555719E+04  0.90383814528E+03 0.  0.
        -24    2    4    4    0    0 -0.58314268534E+03 -0.43723702594E+03  0.25633429108E+03  0.77663108052E+03  0.78847689466E+02 0.  0.
         24    2    4    4    0    0  0.22288350088E+03  0.11272962018E+03  0.27505000124E+03  0.37852449141E+03  0.72410394167E+02 0.  0.
         13    1    3    3    0    0  0.13783475067E+03  0.17134217938E+03  0.66959629524E+02  0.22986986082E+03  0.00000000000E+00 0.  1.
        -13    1    3    3    0    0  0.22242443378E+03  0.15316522638E+03  0.15382189434E+03  0.31079477231E+03  0.00000000000E+00 0. -1.
          4    1    6    6  502    0  0.21245117763E+03  0.12191677427E+03  0.26749918092E+03  0.36270513439E+03  0.00000000000E+00 0. -1.
          3    1    5    5  503    0 -0.55180109947E+03 -0.42188727003E+03  0.25971439029E+03  0.74156920547E+03  0.00000000000E+00 0. -1.
         -4    1    5    5    0  503 -0.31341585869E+02 -0.15349755915E+02 -0.33800992029E+01  0.35061875050E+02  0.00000000000E+00 0.  1.
         -3    1    6    6    0  502  0.10432323258E+02 -0.91871540937E+01  0.75508203238E+01  0.15819357018E+02  0.00000000000E+00 0.  1.
<mgrwt>
<rscale>  0 0.15198858E+04</rscale>
<asrwt>0</asrwt>
<pdfrwt beam="1">  1        1 0.72588800E-01 0.15198858E+04</pdfrwt>
<pdfrwt beam="2">  1       -1 0.18830662E+00 0.15198858E+04</pdfrwt>
<totfact> 0.84185619E+00</totfact>
</mgrwt>
</event>
<event>
12    1  0.1663913E-007  0.2493984E+04  0.7818608E-02  0.8405132E-01
         -2   -1    0    0    0  501 -0.00000000000E+00  0.00000000000E+00  0.13367980938E+04  0.13367980938E+04  0.00000000000E+00 0.  1.
          2   -1    0    0  501    0  0.00000000000E+00 -0.00000000000E+00 -0.11632189932E+04  0.11632189932E+04  0.00000000000E+00 0. -1.
         23    2    1    2    0    0 -0.80080127506E+03  0.16977793411E+03  0.75888949618E+03  0.11199554846E+04  0.90993357359E+02 0.  0.
        254    2    1    2    0    0  0.80080127506E+03 -0.16977793411E+03 -0.58531039556E+03  0.13800616023E+04  0.94439109379E+03 0.  0.
        -24    2    4    4    0    0  0.73242435990E+03  0.27972623928E+03 -0.37844150169E+03  0.87423713077E+03  0.79877272706E+02 0.  0.
         24    2    4    4    0    0  0.68376915155E+02 -0.44950417339E+03 -0.20686889387E+03  0.50582447156E+03  0.79588016410E+02 0.  0.
         13    1    3    3    0    0 -0.56677060852E+03  0.92780640996E+02  0.57346705265E+03  0.81160435589E+03  0.00000000000E+00 0. -1.
        -13    1    3    3    0    0 -0.23403066653E+03  0.76997293113E+02  0.18542244353E+03  0.30835112873E+03  0.00000000000E+00 0.  1.
          4    1    6    6  502    0  0.47229103816E+02 -0.42613321698E+03 -0.18242899815E+03  0.46594038913E+03  0.00000000000E+00 0. -1.
          3    1    5    5  503    0  0.30355301179E+03  0.15831133209E+03 -0.16452208424E+03  0.37983473385E+03  0.00000000000E+00 0. -1.
         -4    1    5    5    0  503  0.42887134811E+03  0.12141490719E+03 -0.21391941745E+03  0.49440239692E+03  0.00000000000E+00 0.  1.
         -3    1    6    6    0  502  0.21147811340E+02 -0.23370956410E+02 -0.24439895724E+02  0.39884082426E+02  0.00000000000E+00 0.  1.
<mgrwt>
<rscale>  0 0.24939839E+04</rscale>
<asrwt>0</asrwt>
<pdfrwt beam="1">  1        2 0.17895677E+00 0.24939839E+04</pdfrwt>
<pdfrwt beam="2">  1       -2 0.20566124E+00 0.24939839E+04</pdfrwt>
<totfact> 0.21722294E+00</totfact>
</mgrwt>
</event>
<event>
12    1  0.1663913E-007  0.1331744E+04  0.7818608E-02  0.9004764E-01
         -1   -1    0    0    0  501 -0.00000000000E+00  0.00000000000E+00  0.89260029330E+03  0.89260029330E+03  0.00000000000E+00 0.  1.
          1   -1    0    0  501    0  0.00000000000E+00 -0.00000000000E+00 -0.49673499945E+03  0.49673499945E+03  0.00000000000E+00 0. -1.
         23    2    1    2    0    0  0.77838345603E+02 -0.33720269246E+03 -0.77239954613E+00  0.35325023904E+03  0.70856692950E+02 0.  0.
        254    2    1    2    0    0 -0.77838345603E+02  0.33720269246E+03  0.39663769340E+03  0.10360850537E+04  0.89240479316E+03 0.  0.
        -24    2    4    4    0    0  0.28717322871E+03  0.31473242580E+03  0.48380152845E+03  0.65012695947E+03  0.84120041382E+02 0.  0.
         24    2    4    4    0    0 -0.36501157431E+03  0.22470266659E+02 -0.87163835056E+02  0.38595809424E+03  0.87337014526E+02 0.  0.
         13    1    3    3    0    0  0.13430656161E+02 -0.93534706351E+02 -0.30903246395E+02  0.99418984378E+02  0.00000000000E+00 0.  1.
        -13    1    3    3    0    0  0.64407689443E+02 -0.24366798611E+03  0.30130846849E+02  0.25383125466E+03  0.00000000000E+00 0. -1.
          2    1    6    6  502    0 -0.23664438519E+03 -0.22804490571E+02 -0.35551272378E+02  0.24038407351E+03  0.00000000000E+00 0. -1.
          3    1    5    5  503    0  0.20816772501E+03  0.22031985013E+03  0.39705131642E+03  0.49952415954E+03  0.00000000000E+00 0. -1.
         -4    1    5    5    0  503  0.79005503694E+02  0.94412575663E+02  0.86750212039E+02  0.15060279993E+03  0.00000000000E+00 0.  1.
         -1    1    6    6    0  502 -0.12836718912E+03  0.45274757230E+02 -0.51612562677E+02  0.14557402073E+03  0.00000000000E+00 0.  1.
<mgrwt>
<rscale>  0 0.13317444E+04</rscale>
<asrwt>0</asrwt>
<pdfrwt beam="1">  1        1 0.76420769E-01 0.13317444E+04</pdfrwt>
<pdfrwt beam="2">  1       -1 0.13732312E+00 0.13317444E+04</pdfrwt>
<totfact> 0.19328624E+01</totfact>
</mgrwt>
</event>
<event>
12    1  0.1663913E-007  0.1943731E+04  0.7818608E-02  0.8633390E-01
          2   -1    0    0  501    0  0.00000000000E+00  0.00000000000E+00  0.49301805784E+03  0.49301805784E+03  0.00000000000E+00 0. -1.
         -2   -1    0    0    0  501 -0.00000000000E+00 -0.00000000000E+00 -0.19157971135E+04  0.19157971135E+04  0.00000000000E+00 0.  1.
         23    2    1    2    0    0 -0.14174079408E+03 -0.38145928220E+03 -0.13529231995E+04  0.14161460409E+04  0.97297423621E+02 0.  0.
        254    2    1    2    0    0  0.14174079408E+03  0.38145928220E+03 -0.69855856161E+02  0.99266913046E+03  0.90272394743E+03 0.  0.
        -24    2    4    4    0    0 -0.28758281558E+03  0.39981313810E+03 -0.19890847142E+03  0.53686607271E+03  0.78142042492E+02 0.  0.
         24    2    4    4    0    0  0.42932360966E+03 -0.18353855907E+02  0.12905261526E+03  0.45580305776E+03  0.80288380931E+02 0.  0.
         13    1    3    3    0    0 -0.15009626624E+03 -0.31230512419E+03 -0.11766588096E+04  0.12266170283E+04  0.00000000000E+00 0.  1.
        -13    1    3    3    0    0  0.83554721577E+01 -0.69154158009E+02 -0.17626438985E+03  0.18952901259E+03  0.00000000000E+00 0. -1.
          2    1    6    6  502    0  0.26463573326E+03  0.26909746611E+02  0.69583876191E+02  0.27495112585E+03  0.00000000000E+00 0. -1.
          1    1    5    5  503    0 -0.23370657223E+03  0.36813430691E+03 -0.17762260564E+03  0.47084118327E+03  0.00000000000E+00 0. -1.
         -2    1    5    5    0  503 -0.53876243350E+02  0.31678831190E+02 -0.21285865780E+02  0.66024889437E+02  0.00000000000E+00 0.  1.
         -1    1    6    6    0  502  0.16468787640E+03 -0.45263602518E+02  0.59468739068E+02  0.18085193190E+03  0.00000000000E+00 0.  1.
<mgrwt>
<rscale>  0 0.19437310E+04</rscale>
<asrwt>0</asrwt>
<pdfrwt beam="1">  1        2 0.75848934E-01 0.19437310E+04</pdfrwt>
<pdfrwt beam="2">  1       -2 0.29473801E+00 0.19437310E+04</pdfrwt>
<totfact> 0.20017280E+00</totfact>
</mgrwt>
</event>
<event>
12    1  0.1663913E-007  0.2097680E+04  0.7818608E-02  0.8562266E-01
          1   -1    0    0  501    0  0.00000000000E+00  0.00000000000E+00  0.15619307327E+04  0.15619307327E+04  0.00000000000E+00 0. -1.
         -1   -1    0    0    0  501 -0.00000000000E+00 -0.00000000000E+00 -0.70429810948E+03  0.70429810948E+03  0.00000000000E+00 0.  1.
         23    2    1    2    0    0  0.59974936312E+03 -0.54676615598E+03  0.64134263874E+03  0.10386002970E+04  0.93368457471E+02 0.  0.
        254    2    1    2    0    0 -0.59974936312E+03  0.54676615598E+03  0.21628998452E+03  0.12276285452E+04  0.89534237008E+03 0.  0.
        -24    2    4    4    0    0 -0.50748161184E+03  0.63574740655E+03 -0.15013391153E+03  0.83108442517E+03  0.80304290524E+02 0.  0.
         24    2    4    4    0    0 -0.92267751283E+02 -0.88981250577E+02  0.36642389605E+03  0.39654412001E+03  0.80930628580E+02 0.  0.
         13    1    3    3    0    0  0.43274756252E+03 -0.40164199229E+03  0.51716641964E+03  0.78488715651E+03  0.00000000000E+00 0. -1.
        -13    1    3    3    0    0  0.16700180060E+03 -0.14512416368E+03  0.12417621910E+03  0.25371314053E+03  0.00000000000E+00 0.  1.
          4    1    6    6  502    0 -0.43063048313E+02 -0.33786118924E+02  0.26748007797E+03  0.27302292957E+03  0.00000000000E+00 0. -1.
          3    1    5    5  503    0 -0.33118611639E+03  0.35937023711E+03 -0.10883189368E+03  0.50067513629E+03  0.00000000000E+00 0. -1.
         -4    1    5    5    0  503 -0.17629549545E+03  0.27637716944E+03 -0.41302017847E+02  0.33040928888E+03  0.00000000000E+00 0.  1.
         -3    1    6    6    0  502 -0.49204702969E+02 -0.55195131652E+02  0.98943818082E+02  0.12352119045E+03  0.00000000000E+00 0.  1.
<mgrwt>
<rscale>  0 0.20976795E+04</rscale>
<asrwt>0</asrwt>
<pdfrwt beam="1">  1        1 0.24029703E+00 0.20976795E+04</pdfrwt>
<pdfrwt beam="2">  1       -1 0.10835356E+00 0.20976795E+04</pdfrwt>
<totfact> 0.43117406E+00</totfact>
</mgrwt>
</event>
<event>
12    1  0.1663913E-007  0.1282737E+04  0.7818608E-02  0.9043368E-01
         -2   -1    0    0    0  501 -0.00000000000E+00  0.00000000000E+00  0.20655864597E+03  0.20655864597E+03  0.00000000000E+00 0.  1.
          2   -1    0    0  501    0  0.00000000000E+00 -0.00000000000E+00 -0.19914608914E+04  0.19914608914E+04  0.00000000000E+00 0. -1.
         23    2    1    2    0    0 -0.11229615382E+03  0.23566021027E+03 -0.78177075780E+03  0.82902509776E+03  0.89280087922E+02 0.  0.
        254    2    1    2    0    0  0.11229615382E+03 -0.23566021027E+03 -0.10031314877E+04  0.13689944396E+04  0.89427447317E+03 0.  0.
        -24    2    4    4    0    0  0.73569159646E+02 -0.19423117008E+02 -0.11073162399E+04  0.11130808203E+04  0.83725615678E+02 0.  0.
         24    2    4    4    0    0  0.38726994173E+02 -0.21623709326E+03  0.10418475223E+03  0.25591361932E+03  0.79869001352E+02 0.  0.
         11    1    3    3    0    0 -0.78766495854E+02  0.21624139358E+03 -0.72201867212E+03  0.75780964896E+03  0.00000000000E+00 0. -1.
        -11    1    3    3    0    0 -0.33529657965E+02  0.19418816689E+02 -0.59752085683E+02  0.71215448804E+02  0.00000000000E+00 0.  1.
          2    1    6    6  502    0  0.26616758587E+02 -0.21957146503E+03  0.99015162309E+02  0.24233052317E+03  0.00000000000E+00 0. -1.
          3    1    5    5  503    0  0.59836186815E+02 -0.47202670212E+01 -0.10595731324E+04  0.10612718187E+04  0.00000000000E+00 0. -1.
         -4    1    5    5    0  503  0.13732972831E+02 -0.14702849987E+02 -0.47743107467E+02  0.51809001642E+02  0.00000000000E+00 0.  1.
         -1    1    6    6    0  502  0.12110235586E+02  0.33343717704E+01  0.51695899173E+01  0.13583096148E+02  0.00000000000E+00 0.  1.
<mgrwt>
<rscale>  0 0.12827369E+04</rscale>
<asrwt>0</asrwt>
<pdfrwt beam="1">  1        2 0.30637860E+00 0.12827369E+04</pdfrwt>
<pdfrwt beam="2">  1       -2 0.31778254E-01 0.12827369E+04</pdfrwt>
<totfact> 0.61065086E+01</totfact>
</mgrwt>
</event>
<event>
12    1  0.1663913E-007  0.3511680E+04  0.7818608E-02  0.8111028E-01
         -2   -1    0    0    0  501 -0.00000000000E+00  0.00000000000E+00  0.14146305575E+04  0.14146305575E+04  0.00000000000E+00 0.  1.
          2   -1    0    0  501    0  0.00000000000E+00 -0.00000000000E+00 -0.21793489581E+04  0.21793489581E+04  0.00000000000E+00 0. -1.
         23    2    1    2    0    0  0.14015072556E+04 -0.29346220272E+03 -0.11700329361E+04  0.18514183926E+04  0.91816887788E+02 0.  0.
        254    2    1    2    0    0 -0.14015072556E+04  0.29346220272E+03  0.40531453559E+03  0.17425611230E+04  0.90658520991E+03 0.  0.
        -24    2    4    4    0    0 -0.10356837104E+04  0.26185327206E+03  0.68725292331E+03  0.12725056612E+04  0.75803648774E+02 0.  0.
         24    2    4    4    0    0 -0.36582354524E+03  0.31608930652E+02 -0.28193838772E+03  0.47005546185E+03  0.81467122132E+02 0.  0.
         11    1    3    3    0    0  0.86165294159E+03 -0.15866099268E+03 -0.76594943870E+03  0.11637429463E+04  0.00000000000E+00 0. -1.
        -11    1    3    3    0    0  0.53985431400E+03 -0.13480121004E+03 -0.40408349744E+03  0.68767544632E+03  0.00000000000E+00 0.  1.
          4    1    6    6  502    0 -0.23964614223E+02  0.73096918032E+01  0.18044676983E+01  0.25119522941E+02  0.00000000000E+00 0. -1.
          3    1    5    5  503    0 -0.17515989734E+03  0.18110817001E+02  0.12750814330E+03  0.21741048258E+03  0.00000000000E+00 0. -1.
         -4    1    5    5    0  503 -0.86052381301E+03  0.24374245506E+03  0.55974478001E+03  0.10550951786E+04  0.00000000000E+00 0.  1.
         -3    1    6    6    0  502 -0.34185893102E+03  0.24299238849E+02 -0.28374285542E+03  0.44493593890E+03  0.00000000000E+00 0.  1.
<mgrwt>
<rscale>  0 0.35116797E+04</rscale>
<asrwt>0</asrwt>
<pdfrwt beam="1">  1        2 0.33528445E+00 0.35116797E+04</pdfrwt>
<pdfrwt beam="2">  1       -2 0.21763547E+00 0.35116797E+04</pdfrwt>
<totfact> 0.44549392E-01</totfact>
</mgrwt>
</event>
<event>
12    1  0.1663913E-007  0.1959696E+04  0.7818608E-02  0.8625699E-01
         -2   -1    0    0    0  501 -0.00000000000E+00  0.00000000000E+00  0.59434379312E+03  0.59434379312E+03  0.00000000000E+00 0.  1.
          2   -1    0    0  501    0  0.00000000000E+00 -0.00000000000E+00 -0.16153986993E+04  0.16153986993E+04  0.00000000000E+00 0. -1.
         23    2    1    2    0    0  0.17580191668E+03 -0.57532079847E+03 -0.93256918219E+03  0.11133956174E+04  0.89800813703E+02 0.  0.
        254    2    1    2    0    0 -0.17580191668E+03  0.57532079847E+03 -0.88485723998E+02  0.10963468751E+04  0.91227540361E+03 0.  0.
        -24    2    4    4    0    0 -0.16793178285E+03 -0.20766053707E+03 -0.12854352638E+03  0.30822060202E+03  0.84572566416E+02 0.  0.
         24    2    4    4    0    0 -0.78701338374E+01  0.78298133554E+03  0.40057802383E+02  0.78812627303E+03  0.80104206508E+02 0.  0.
         13    1    3    3    0    0  0.15272598384E+03 -0.35423753661E+03 -0.57765860215E+03  0.69462142144E+03  0.00000000000E+00 0. -1.
        -13    1    3    3    0    0  0.23075932838E+02 -0.22108326186E+03 -0.35491058004E+03  0.41877419593E+03  0.00000000000E+00 0.  1.
          2    1    6    6  502    0  0.16171091494E+02  0.70790951651E+03  0.41183746280E+02  0.70929083508E+03  0.00000000000E+00 0. -1.
          1    1    5    5  503    0 -0.12424847166E+03 -0.19012981885E+03 -0.80525449948E+02  0.24098003821E+03  0.00000000000E+00 0. -1.
         -2    1    5    5    0  503 -0.43683311188E+02 -0.17530718219E+02 -0.48018076433E+02  0.67240563813E+02  0.00000000000E+00 0.  1.
         -1    1    6    6    0  502 -0.24041225332E+02  0.75071819027E+02 -0.11259438972E+01  0.78835437952E+02  0.00000000000E+00 0.  1.
<mgrwt>
<rscale>  0 0.19596961E+04</rscale>
<asrwt>0</asrwt>
<pdfrwt beam="1">  1        2 0.24852287E+00 0.19596961E+04</pdfrwt>
<pdfrwt beam="2">  1       -2 0.91437508E-01 0.19596961E+04</pdfrwt>
<totfact> 0.10381778E+01</totfact>
</mgrwt>
</event>
<event>
12    1  0.1663913E-007  0.3572307E+04  0.7818608E-02  0.8096865E-01
         -1   -1    0    0    0  501 -0.00000000000E+00  0.00000000000E+00  0.15857157093E+04  0.15857157093E+04  0.00000000000E+00 0. -1.
          1   -1    0    0  501    0  0.00000000000E+00 -0.00000000000E+00 -0.20119265487E+04  0.20119265487E+04  0.00000000000E+00 0.  1.
         23    2    1    2    0    0 -0.15160183922E+04 -0.73770734114E+03 -0.67658567646E+02  0.16898333560E+04  0.91843358427E+02 0.  0.
        254    2    1    2    0    0  0.15160183922E+04  0.73770734114E+03 -0.35855227179E+03  0.19078089020E+04  0.81771094425E+03 0.  0.
        -24    2    4    4    0    0  0.43759613302E+02 -0.10083410365E+03  0.77783083055E+02  0.15638858325E+03  0.79528364417E+02 0.  0.
         24    2    4    4    0    0  0.14722587789E+04  0.83854144479E+03 -0.43633535485E+03  0.17514203188E+04  0.79918235856E+02 0.  0.
         11    1    3    3    0    0 -0.88989508790E+03 -0.42774646049E+03 -0.84636606235E+02  0.99098115878E+03  0.00000000000E+00 0.  1.
        -11    1    3    3    0    0 -0.62612330429E+03 -0.30996088064E+03  0.16978038589E+02  0.69885219718E+03  0.00000000000E+00 0. -1.
          2    1    6    6  502    0  0.80042373166E+02  0.40938397977E+02 -0.41657811261E+02  0.99086362180E+02  0.00000000000E+00 0. -1.
          1    1    5    5  503    0 -0.26917473036E+01 -0.40990088095E+01  0.43441777794E+02  0.43717678743E+02  0.00000000000E+00 0. -1.
         -2    1    5    5    0  503  0.46451360606E+02 -0.96735094842E+02  0.34341305261E+02  0.11267090451E+03  0.00000000000E+00 0.  1.
         -1    1    6    6    0  502  0.13922164057E+04  0.79760304681E+03 -0.39467754359E+03  0.16523339566E+04  0.00000000000E+00 0.  1.
<mgrwt>
<rscale>  0 0.35723066E+04</rscale>
<asrwt>0</asrwt>
<pdfrwt beam="1">  1        1 0.30952716E+00 0.35723066E+04</pdfrwt>
<pdfrwt beam="2">  1       -1 0.24395626E+00 0.35723066E+04</pdfrwt>
<totfact> 0.18115198E-01</totfact>
</mgrwt>
</event>
<event>
12    1  0.1663913E-007  0.1427860E+04  0.7818608E-02  0.8933895E-01
          2   -1    0    0  501    0  0.00000000000E+00  0.00000000000E+00  0.76301330585E+03  0.76301330585E+03  0.00000000000E+00 0. -1.
         -2   -1    0    0    0  501 -0.00000000000E+00 -0.00000000000E+00 -0.66800399194E+03  0.66800399194E+03  0.00000000000E+00 0.  1.
         23    2    1    2    0    0 -0.41186716094E+03  0.76000210336E+02  0.93617167000E+02  0.43903064051E+03  0.92591247532E+02 0.  0.
        254    2    1    2    0    0  0.41186716094E+03 -0.76000210336E+02  0.13921469192E+01  0.99198665728E+03  0.89923578660E+03 0.  0.
        -24    2    4    4    0    0 -0.77667068265E+02 -0.37480172077E+03 -0.10056094093E+03  0.40329863143E+03  0.77645218059E+02 0.  0.
         24    2    4    4    0    0  0.48953422921E+03  0.29880151043E+03  0.10195308785E+03  0.58868802585E+03  0.85047371832E+02 0.  0.
         11    1    3    3    0    0 -0.88654784545E+02  0.69827661513E+01 -0.16943606781E+02  0.90529087351E+02  0.00000000000E+00 0.  1.
        -11    1    3    3    0    0 -0.32321237640E+03  0.69017444185E+02  0.11056077378E+03  0.34850155316E+03  0.00000000000E+00 0. -1.
          4    1    6    6  502    0  0.56011004748E+02  0.36681460132E+02 -0.15324521263E+02  0.68684809982E+02  0.00000000000E+00 0. -1.
          3    1    5    5  503    0 -0.20793486975E+02 -0.31329055936E+02  0.83382178250E+01  0.38514993482E+02  0.00000000000E+00 0. -1.
         -4    1    5    5    0  503 -0.56873581290E+02 -0.34347266483E+03 -0.10889915875E+03  0.36478363794E+03  0.00000000000E+00 0.  1.
         -3    1    6    6    0  502  0.43352322446E+03  0.26212005030E+03  0.11727760911E+03  0.52000321587E+03  0.00000000000E+00 0.  1.
<mgrwt>
<rscale>  0 0.14278598E+04</rscale>
<asrwt>0</asrwt>
<pdfrwt beam="1">  1        2 0.11738666E+00 0.14278598E+04</pdfrwt>
<pdfrwt beam="2">  1       -2 0.10276984E+00 0.14278598E+04</pdfrwt>
<totfact> 0.27569968E+01</totfact>
</mgrwt>
</event>
<event>
12    1  0.1663913E-007  0.2586964E+04  0.7818608E-02  0.8372643E-01
          1   -1    0    0  501    0  0.00000000000E+00  0.00000000000E+00  0.30650803701E+04  0.30650803701E+04  0.00000000000E+00 0. -1.
         -1   -1    0    0    0  501 -0.00000000000E+00 -0.00000000000E+00 -0.54585698904E+03  0.54585698904E+03  0.00000000000E+00 0.  1.
         23    2    1    2    0    0  0.92530909544E+03 -0.17595336109E+03  0.22696095799E+03  0.97309890982E+03  0.90849900743E+02 0.  0.
        254    2    1    2    0    0 -0.92530909544E+03  0.17595336109E+03  0.22922624231E+04  0.26378384493E+04  0.90364161100E+03 0.  0.
        -24    2    4    4    0    0 -0.62265632864E+03  0.40503168781E+03  0.20462156715E+04  0.21782807400E+04  0.78465509333E+02 0.  0.
         24    2    4    4    0    0 -0.30265276680E+03 -0.22907832672E+03  0.24604675154E+03  0.45955770931E+03  0.81109230168E+02 0.  0.
         11    1    3    3    0    0  0.96022015059E+02 -0.36562769498E+02  0.26753473528E+01  0.10278239622E+03  0.00000000000E+00 0.  1.
        -11    1    3    3    0    0  0.82928708038E+03 -0.13939059159E+03  0.22428561064E+03  0.87031651360E+03  0.00000000000E+00 0. -1.
          2    1    6    6  502    0 -0.22874285107E+03 -0.12622361641E+03  0.17304842278E+03  0.31337110569E+03  0.00000000000E+00 0. -1.
          3    1    5    5  503    0 -0.40883984121E+02  0.33582241986E+02  0.21163167065E+03  0.21814497738E+03  0.00000000000E+00 0. -1.
         -4    1    5    5    0  503 -0.58177234452E+03  0.37144944583E+03  0.18345840009E+04  0.19601357626E+04  0.00000000000E+00 0.  1.
         -1    1    6    6    0  502 -0.73909915733E+02 -0.10285471031E+03  0.72998328758E+02  0.14618660362E+03  0.00000000000E+00 0.  1.
<mgrwt>
<rscale>  0 0.25869639E+04</rscale>
<asrwt>0</asrwt>
<pdfrwt beam="1">  1        1 0.47155082E+00 0.25869639E+04</pdfrwt>
<pdfrwt beam="2">  1       -1 0.83978000E-01 0.25869639E+04</pdfrwt>
<totfact> 0.66353847E-01</totfact>
</mgrwt>
</event>
<event>
12    1  0.1663913E-007  0.1351758E+04  0.7818608E-02  0.8989499E-01
          2   -1    0    0  501    0  0.00000000000E+00  0.00000000000E+00  0.20761018987E+04  0.20761018987E+04  0.00000000000E+00 0. -1.
         -2   -1    0    0    0  501 -0.00000000000E+00 -0.00000000000E+00 -0.22003363485E+03  0.22003363485E+03  0.00000000000E+00 0.  1.
         23    2    1    2    0    0  0.29614071098E+03 -0.13054905396E+03  0.22679574641E+03  0.40570083477E+03  0.91730477804E+02 0.  0.
        254    2    1    2    0    0 -0.29614071098E+03  0.13054905396E+03  0.16292725175E+04  0.18904346988E+04  0.90248104581E+03 0.  0.
        -24    2    4    4    0    0  0.10117227216E+03  0.26210871027E+03  0.13495525492E+04  0.13808519605E+04  0.80766633985E+02 0.  0.
         24    2    4    4    0    0 -0.39731298314E+03 -0.13155965632E+03  0.27971996824E+03  0.50958273825E+03  0.79156533192E+02 0.  0.
         13    1    3    3    0    0  0.25497062115E+03 -0.10720515461E+03  0.14777911619E+03  0.31359469065E+03  0.00000000000E+00 0.  1.
        -13    1    3    3    0    0  0.41170089833E+02 -0.23343899350E+02  0.79016630224E+02  0.92106144125E+02  0.00000000000E+00 0. -1.
          4    1    6    6  502    0 -0.46441116365E+02 -0.41263457102E+02  0.56898370072E+02  0.84242950435E+02  0.00000000000E+00 0. -1.
          3    1    5    5  503    0  0.14803627639E+02  0.58450569328E+02  0.47248980359E+03  0.47632156254E+03  0.00000000000E+00 0. -1.
         -4    1    5    5    0  503  0.86368644523E+02  0.20365814095E+03  0.87706274563E+03  0.90453039800E+03  0.00000000000E+00 0.  1.
         -3    1    6    6    0  502 -0.35087186678E+03 -0.90296199216E+02  0.22282159817E+03  0.42533978781E+03  0.00000000000E+00 0.  1.
<mgrwt>
<rscale>  0 0.13517577E+04</rscale>
<asrwt>0</asrwt>
<pdfrwt beam="1">  1        2 0.31940028E+00 0.13517577E+04</pdfrwt>
<pdfrwt beam="2">  1       -2 0.33851330E-01 0.13517577E+04</pdfrwt>
<totfact> 0.48373160E+01</totfact>
</mgrwt>
</event>
<event>
12    1  0.1663913E-007  0.1837125E+04  0.7818608E-02  0.8686802E-01
          2   -1    0    0  501    0  0.00000000000E+00  0.00000000000E+00  0.52296731400E+03  0.52296731400E+03  0.00000000000E+00 0. -1.
         -2   -1    0    0    0  501 -0.00000000000E+00 -0.00000000000E+00 -0.16134023610E+04  0.16134023610E+04  0.00000000000E+00 0.  1.
         23    2    1    2    0    0  0.39789090408E+02  0.37191425550E+03  0.26227134640E+03  0.46597465925E+03  0.91884377108E+02 0.  0.
        254    2    1    2    0    0 -0.39789090408E+02 -0.37191425550E+03 -0.13527063934E+04  0.16703950157E+04  0.90581539881E+03 0.  0.
        -24    2    4    4    0    0 -0.45640943832E+03 -0.28436515424E+03 -0.82248478552E+03  0.98589067023E+03  0.79536626195E+02 0.  0.
         24    2    4    4    0    0  0.41662034791E+03 -0.87549101263E+02 -0.53022160786E+03  0.68450434550E+03  0.78574080617E+02 0.  0.
         11    1    3    3    0    0 -0.18787014965E+02  0.21358703261E+03  0.16971386898E+03  0.27345048867E+03  0.00000000000E+00 0. -1.
        -11    1    3    3    0    0  0.58576105372E+02  0.15832722289E+03  0.92557477417E+02  0.19252417058E+03  0.00000000000E+00 0.  1.
          4    1    6    6  502    0  0.24386084317E+03 -0.71853686187E+02 -0.26194628546E+03  0.36503002550E+03  0.00000000000E+00 0. -1.
          3    1    5    5  503    0 -0.34999448499E+03 -0.23748122501E+03 -0.58996967006E+03  0.72591851012E+03  0.00000000000E+00 0. -1.
         -4    1    5    5    0  503 -0.10641495333E+03 -0.46883929233E+02 -0.23251511546E+03  0.25997216011E+03  0.00000000000E+00 0.  1.
         -3    1    6    6    0  502  0.17275950474E+03 -0.15695415076E+02 -0.26827532239E+03  0.31947432000E+03  0.00000000000E+00 0.  1.
<mgrwt>
<rscale>  0 0.18371246E+04</rscale>
<asrwt>0</asrwt>
<pdfrwt beam="1">  1        2 0.80456511E-01 0.18371246E+04</pdfrwt>
<pdfrwt beam="2">  1       -2 0.24821574E+00 0.18371246E+04</pdfrwt>
<totfact> 0.36241830E+00</totfact>
</mgrwt>
</event>
<event>
12    1  0.1663913E-007  0.1664115E+04  0.7818608E-02  0.8782099E-01
         -2   -1    0    0    0  501 -0.00000000000E+00  0.00000000000E+00  0.35058675982E+03  0.35058675982E+03  0.00000000000E+00 0.  1.
          2   -1    0    0  501    0  0.00000000000E+00 -0.00000000000E+00 -0.19747466658E+04  0.19747466658E+04  0.00000000000E+00 0. -1.
         23    2    1    2    0    0 -0.21715705467E+03  0.49263287016E+03 -0.87863997076E+03  0.10344586653E+04  0.90841625463E+02 0.  0.
        254    2    1    2    0    0  0.21715705467E+03 -0.49263287016E+03 -0.74551993518E+03  0.12908747602E+04  0.90593230527E+03 0.  0.
        -24    2    4    4    0    0  0.96074271568E+02  0.19751410676E+03  0.38427625871E+02  0.23643895377E+03  0.78642281251E+02 0.  0.
         24    2    4    4    0    0  0.12108278311E+03 -0.69014697692E+03 -0.78394756105E+03  0.10544358065E+04  0.79354907764E+02 0.  0.
         13    1    3    3    0    0 -0.81209778699E+02  0.22830368851E+03 -0.47436204806E+03  0.53266964902E+03  0.00000000000E+00 0. -1.
        -13    1    3    3    0    0 -0.13594727597E+03  0.26432918165E+03 -0.40427792270E+03  0.50178901632E+03  0.00000000000E+00 0.  1.
          4    1    6    6  502    0 -0.46710318620E+01 -0.20456715088E+02 -0.99064818749E+01  0.23204183114E+02  0.00000000000E+00 0. -1.
          3    1    5    5  503    0  0.49470612893E+02  0.10687984364E+03 -0.19248699184E+02  0.11933631022E+03  0.00000000000E+00 0. -1.
         -4    1    5    5    0  503  0.46603658675E+02  0.90634263123E+02  0.57676325056E+02  0.11710264355E+03  0.00000000000E+00 0.  1.
         -3    1    6    6    0  502  0.12575381497E+03 -0.66969026183E+03 -0.77404107917E+03  0.10312316234E+04  0.00000000000E+00 0.  1.
<mgrwt>
<rscale>  0 0.16641154E+04</rscale>
<asrwt>0</asrwt>
<pdfrwt beam="1">  1        2 0.30380718E+00 0.16641154E+04</pdfrwt>
<pdfrwt beam="2">  1       -2 0.53936424E-01 0.16641154E+04</pdfrwt>
<totfact> 0.21322288E+01</totfact>
</mgrwt>
</event>
<event>
12    1  0.1663913E-007  0.2012078E+04  0.7818608E-02  0.8600994E-01
         -2   -1    0    0    0  501 -0.00000000000E+00  0.00000000000E+00  0.34939113003E+03  0.34939113003E+03  0.00000000000E+00 0.  1.
          2   -1    0    0  501    0  0.00000000000E+00 -0.00000000000E+00 -0.28967960860E+04  0.28967960860E+04  0.00000000000E+00 0. -1.
         23    2    1    2    0    0 -0.20367294950E+03  0.66969161529E+03 -0.39481636228E+03  0.80887869751E+03  0.91843657457E+02 0.  0.
        254    2    1    2    0    0  0.20367294950E+03 -0.66969161529E+03 -0.21525885937E+04  0.24373085186E+04  0.90380619099E+03 0.  0.
        -24    2    4    4    0    0  0.98148583968E+02 -0.59565871631E+03 -0.53065955726E+03  0.80834825332E+03  0.85935336640E+02 0.  0.
         24    2    4    4    0    0  0.10552436554E+03 -0.74032898977E+02 -0.16219290365E+04  0.16289602652E+04  0.79003066720E+02 0.  0.
         11    1    3    3    0    0 -0.13791276665E+03  0.36691660627E+03 -0.17667513484E+03  0.42995561450E+03  0.00000000000E+00 0.  1.
        -11    1    3    3    0    0 -0.65760182849E+02  0.30277500901E+03 -0.21814122744E+03  0.37892308301E+03  0.00000000000E+00 0. -1.
          4    1    6    6  502    0  0.73435604071E+02 -0.40968336342E+02 -0.13875215715E+04  0.13900673739E+04  0.00000000000E+00 0. -1.
          1    1    5    5  503    0  0.10357544456E+03 -0.56221641982E+03 -0.52009138527E+03  0.77285847635E+03  0.00000000000E+00 0. -1.
         -2    1    5    5    0  503 -0.54268605938E+01 -0.33442296485E+02 -0.10568171992E+02  0.35489776969E+02  0.00000000000E+00 0.  1.
         -3    1    6    6    0  502  0.32088761464E+02 -0.33064562635E+02 -0.23440746496E+03  0.23889289136E+03  0.00000000000E+00 0.  1.
<mgrwt>
<rscale>  0 0.20120784E+04</rscale>
<asrwt>0</asrwt>
<pdfrwt beam="1">  1        2 0.44566094E+00 0.20120784E+04</pdfrwt>
<pdfrwt beam="2">  1       -2 0.53752482E-01 0.20120784E+04</pdfrwt>
<totfact> 0.61192732E+00</totfact>
</mgrwt>
</event>
<event>
12    1  0.1663913E-007  0.2256417E+04  0.7818608E-02  0.8495306E-01
         -2   -1    0    0    0  501 -0.00000000000E+00  0.00000000000E+00  0.12052078123E+04  0.12052078123E+04  0.00000000000E+00 0.  1.
          2   -1    0    0  501    0  0.00000000000E+00 -0.00000000000E+00 -0.10561281870E+04  0.10561281870E+04  0.00000000000E+00 0. -1.
         23    2    1    2    0    0 -0.29807358756E+02 -0.76020076130E+03  0.61664617596E+03  0.98475465668E+03  0.10341929898E+03 0.  0.
        254    2    1    2    0    0  0.29807358756E+02  0.76020076130E+03 -0.46756655072E+03  0.12765813426E+04  0.91227614724E+03 0.  0.
        -24    2    4    4    0    0 -0.13470216202E+03  0.55410915882E+03  0.15422274948E+03  0.59627431326E+03  0.81097274014E+02 0.  0.
         24    2    4    4    0    0  0.16450952078E+03  0.20609160248E+03 -0.62178930020E+03  0.68030702935E+03  0.81600179493E+02 0.  0.
         11    1    3    3    0    0  0.35810304223E+01 -0.63098117253E+03  0.54212757654E+03  0.83189685245E+03  0.00000000000E+00 0.  1.
        -11    1    3    3    0    0 -0.33388389178E+02 -0.12921958877E+03  0.74518599417E+02  0.15285780423E+03  0.00000000000E+00 0. -1.
          2    1    6    6  502    0  0.16465802849E+03  0.15941618696E+03 -0.52540783620E+03  0.57321826677E+03  0.00000000000E+00 0. -1.
          1    1    5    5  503    0 -0.14018945366E+03  0.53991101025E+03  0.15948977589E+03  0.58016719187E+03  0.00000000000E+00 0. -1.
         -2    1    5    5    0  503  0.54872916382E+01  0.14198148571E+02 -0.52670264061E+01  0.16107121391E+02  0.00000000000E+00 0.  1.
         -1    1    6    6    0  502 -0.14850770934E+00  0.46675415521E+02 -0.96381463998E+02  0.10708876258E+03  0.00000000000E+00 0.  1.
<mgrwt>
<rscale>  0 0.22564166E+04</rscale>
<asrwt>0</asrwt>
<pdfrwt beam="1">  1        2 0.16248126E+00 0.22564166E+04</pdfrwt>
<pdfrwt beam="2">  1       -2 0.18541659E+00 0.22564166E+04</pdfrwt>
<totfact> 0.35134210E+00</totfact>
</mgrwt>
</event>
<event>
12    1  0.1663913E-007  0.1183346E+04  0.7818608E-02  0.9127560E-01
          2   -1    0    0  501    0  0.00000000000E+00  0.00000000000E+00  0.83520114212E+03  0.83520114212E+03  0.00000000000E+00 0. -1.
         -2   -1    0    0    0  501 -0.00000000000E+00 -0.00000000000E+00 -0.41915311951E+03  0.41915311951E+03  0.00000000000E+00 0.  1.
         23    2    1    2    0    0  0.19742596496E+03 -0.94230726632E+02 -0.11887505301E+02  0.23747486753E+03  0.91632736753E+02 0.  0.
        254    2    1    2    0    0 -0.19742596496E+03  0.94230726632E+02  0.42793552791E+03  0.10168793941E+04  0.89613528254E+03 0.  0.
        -24    2    4    4    0    0 -0.12347332913E+03 -0.37161212058E+03  0.35176690658E+03  0.53243324212E+03  0.80024806088E+02 0.  0.
         24    2    4    4    0    0 -0.73952635837E+02  0.46584284721E+03  0.76168621334E+02  0.48444615198E+03  0.80049138959E+02 0.  0.
         11    1    3    3    0    0  0.20751744630E+03 -0.90205002860E+02 -0.10461194372E+02  0.22651681979E+03  0.00000000000E+00 0.  1.
        -11    1    3    3    0    0 -0.10091481338E+02 -0.40257237721E+01 -0.14263109295E+01  0.10958047744E+02  0.00000000000E+00 0. -1.
          4    1    6    6  502    0 -0.69133110721E+02  0.18826881674E+03  0.39592816633E+02  0.20443122433E+03  0.00000000000E+00 0. -1.
          3    1    5    5  503    0  0.64625665423E+01 -0.71501844199E+02  0.77210513793E+02  0.10543121896E+03  0.00000000000E+00 0. -1.
         -2    1    5    5    0  503 -0.12993589567E+03 -0.30011027638E+03  0.27455639279E+03  0.42700202317E+03  0.00000000000E+00 0.  1.
         -3    1    6    6    0  502 -0.48195251164E+01  0.27757403047E+03  0.36575804702E+02  0.28001492765E+03  0.00000000000E+00 0.  1.
<mgrwt>
<rscale>  0 0.11833464E+04</rscale>
<asrwt>0</asrwt>
<pdfrwt beam="1">  1        2 0.12849248E+00 0.11833464E+04</pdfrwt>
<pdfrwt beam="2">  1       -2 0.64485095E-01 0.11833464E+04</pdfrwt>
<totfact> 0.71338007E+01</totfact>
</mgrwt>
</event>
<event>
12    1  0.1663913E-007  0.1237461E+04  0.7818608E-02  0.9080684E-01
          2   -1    0    0  501    0  0.00000000000E+00  0.00000000000E+00  0.30731222102E+04  0.30731222102E+04  0.00000000000E+00 0. -1.
         -2   -1    0    0    0  501 -0.00000000000E+00 -0.00000000000E+00 -0.12457289397E+03  0.12457289397E+03  0.00000000000E+00 0.  1.
         23    2    1    2    0    0  0.18298297761E+02 -0.24278999770E+02 -0.13262078110E+02  0.10015593994E+03  0.94504137781E+02 0.  0.
        254    2    1    2    0    0 -0.18298297761E+02  0.24278999770E+02  0.29618113944E+04  0.30975391642E+04  0.90636518070E+03 0.  0.
        -24    2    4    4    0    0 -0.37837987591E+03  0.16699209476E+03  0.84500529545E+03  0.94414502066E+03  0.79486983209E+02 0.  0.
         24    2    4    4    0    0  0.36008157815E+03 -0.14271309499E+03  0.21168060989E+04  0.21533941436E+04  0.78819457372E+02 0.  0.
         11    1    3    3    0    0  0.51427508190E+02 -0.35851899897E+02 -0.16751808864E+02  0.64890449413E+02  0.00000000000E+00 0.  1.
        -11    1    3    3    0    0 -0.33129210429E+02  0.11572900127E+02  0.34897307540E+01  0.35265490522E+02  0.00000000000E+00 0. -1.
          4    1    6    6  502    0  0.29387346625E+03 -0.81173406530E+02  0.16329712746E+04  0.16611881049E+04  0.00000000000E+00 0. -1.
          3    1    5    5  503    0 -0.35672529315E+03  0.17421048521E+03  0.77937437075E+03  0.87465801186E+03  0.00000000000E+00 0. -1.
         -4    1    5    5    0  503 -0.21654582756E+02 -0.72183904539E+01  0.65630924702E+02  0.69487008803E+02  0.00000000000E+00 0.  1.
         -3    1    6    6    0  502  0.66208111898E+02 -0.61539688459E+02  0.48383482429E+03  0.49220603870E+03  0.00000000000E+00 0.  1.
<mgrwt>
<rscale>  0 0.12374615E+04</rscale>
<asrwt>0</asrwt>
<pdfrwt beam="1">  1        2 0.47278798E+00 0.12374615E+04</pdfrwt>
<pdfrwt beam="2">  1       -2 0.19165063E-01 0.12374615E+04</pdfrwt>
<totfact> 0.36016855E+01</totfact>
</mgrwt>
</event>
<event>
12    1  0.1663913E-007  0.1653161E+04  0.7818608E-02  0.8788539E-01
         -2   -1    0    0    0  501 -0.00000000000E+00  0.00000000000E+00  0.27571453381E+03  0.27571453381E+03  0.00000000000E+00 0. -1.
          2   -1    0    0  501    0  0.00000000000E+00 -0.00000000000E+00 -0.24780537493E+04  0.24780537493E+04  0.00000000000E+00 0.  1.
         23    2    1    2    0    0 -0.41027708903E+03 -0.55717368208E+02 -0.14768143309E+04  0.15370499878E+04  0.10055039579E+03 0.  0.
        254    2    1    2    0    0  0.41027708903E+03  0.55717368208E+02 -0.72552488459E+03  0.12167182953E+04  0.88463853473E+03 0.  0.
        -24    2    4    4    0    0  0.25992559146E+03 -0.17718224185E+03  0.10203194142E+03  0.34019526183E+03  0.79796235392E+02 0.  0.
         24    2    4    4    0    0  0.15035149757E+03  0.23289961006E+03 -0.82755682601E+03  0.87652303350E+03  0.81206691770E+02 0.  0.
         13    1    3    3    0    0 -0.39755872009E+02 -0.15018586242E+02 -0.28940189672E+03  0.29250563262E+03  0.00000000000E+00 0. -1.
        -13    1    3    3    0    0 -0.37052121702E+03 -0.40698781966E+02 -0.11874124342E+04  0.12445443552E+04  0.00000000000E+00 0.  1.
          2    1    6    6  502    0  0.16120438888E+02  0.10324270997E+02 -0.14312668324E+03  0.14440120005E+03  0.00000000000E+00 0. -1.
          1    1    5    5  503    0  0.93256430119E+02 -0.67318852868E+02 -0.21240563270E+01  0.11503521776E+03  0.00000000000E+00 0. -1.
         -2    1    5    5    0  503  0.16666916134E+03 -0.10986338898E+03  0.10415599775E+03  0.22516004407E+03  0.00000000000E+00 0.  1.
         -1    1    6    6    0  502  0.13423105869E+03  0.22257533906E+03 -0.68443014277E+03  0.73212183345E+03  0.00000000000E+00 0.  1.
<mgrwt>
<rscale>  0 0.16531611E+04</rscale>
<asrwt>0</asrwt>
<pdfrwt beam="1">  1        2 0.38123904E+00 0.16531611E+04</pdfrwt>
<pdfrwt beam="2">  1       -2 0.42417620E-01 0.16531611E+04</pdfrwt>
<totfact> 0.18066709E+01</totfact>
</mgrwt>
</event>
<event>
12    1  0.1663913E-007  0.1272086E+04  0.7818608E-02  0.9051999E-01
          2   -1    0    0  501    0  0.00000000000E+00  0.00000000000E+00  0.22752416301E+04  0.22752416301E+04  0.00000000000E+00 0.  1.
         -2   -1    0    0    0  501 -0.00000000000E+00 -0.00000000000E+00 -0.17780557086E+03  0.17780557086E+03  0.00000000000E+00 0. -1.
         23    2    1    2    0    0  0.94776084805E+02 -0.11364249828E+03  0.11481300283E+02  0.17453600870E+03  0.91836128017E+02 0.  0.
        254    2    1    2    0    0 -0.94776084805E+02  0.11364249828E+03  0.20859547589E+04  0.22785111923E+04  0.90471480212E+03 0.  0.
        -24    2    4    4    0    0 -0.43029408673E+03 -0.14875404145E+03  0.83145789468E+03  0.95127631161E+03  0.79521220317E+02 0.  0.
         24    2    4    4    0    0  0.33551800193E+03  0.26239653973E+03  0.12544968643E+04  0.13272348806E+04  0.79785789797E+02 0.  0.
         13    1    3    3    0    0  0.33233280454E+02 -0.90491052342E+01  0.36973963002E+02  0.50531289073E+02  0.00000000000E+00 0.  1.
        -13    1    3    3    0    0  0.61542804351E+02 -0.10459339305E+03 -0.25492662720E+02  0.12400471963E+03  0.00000000000E+00 0. -1.
          4    1    6    6  502    0  0.12213850966E+02  0.69596342438E+01  0.12992403663E+02  0.19142027509E+02  0.00000000000E+00 0. -1.
          3    1    5    5  503    0 -0.38379723185E+03 -0.12058486189E+03  0.77318145358E+03  0.87157936199E+03  0.00000000000E+00 0. -1.
         -4    1    5    5    0  503 -0.46496854885E+02 -0.28169179558E+02  0.58276441103E+02  0.79696949620E+02  0.00000000000E+00 0.  1.
         -3    1    6    6    0  502  0.32330415096E+03  0.25543690549E+03  0.12415044606E+04  0.13080928531E+04  0.00000000000E+00 0.  1.
<mgrwt>
<rscale>  0 0.12720859E+04</rscale>
<asrwt>0</asrwt>
<pdfrwt beam="1">  1        2 0.35003715E+00 0.12720859E+04</pdfrwt>
<pdfrwt beam="2">  1       -2 0.27354705E-01 0.12720859E+04</pdfrwt>
<totfact> 0.56124223E+01</totfact>
</mgrwt>
</event>
<event>
12    1  0.1663913E-007  0.1904333E+04  0.7818608E-02  0.8652702E-01
         -3   -1    0    0    0  501 -0.00000000000E+00  0.00000000000E+00  0.17655725101E+04  0.17655725101E+04  0.00000000000E+00 0.  1.
          3   -1    0    0  501    0  0.00000000000E+00 -0.00000000000E+00 -0.51350000693E+03  0.51350000693E+03  0.00000000000E+00 0. -1.
         23    2    1    2    0    0 -0.18157005622E+03  0.46658632396E+03 -0.14336888646E+03  0.52880935942E+03  0.91729046597E+02 0.  0.
        254    2    1    2    0    0  0.18157005622E+03 -0.46658632396E+03  0.13954413896E+04  0.17502631576E+04  0.93031928172E+03 0.  0.
        -24    2    4    4    0    0  0.33813244253E+03  0.56174090875E+02  0.13989682063E+03  0.37874882637E+03  0.79940452070E+02 0.  0.
         24    2    4    4    0    0 -0.15656238631E+03 -0.52276041483E+03  0.12555445690E+04  0.13715143312E+04  0.82880419419E+02 0.  0.
         11    1    3    3    0    0 -0.18625559095E+03  0.39800844591E+03 -0.13416274823E+03  0.45945784485E+03  0.00000000000E+00 0. -1.
        -11    1    3    3    0    0  0.46855347344E+01  0.68577878043E+02 -0.92061382266E+01  0.69351514574E+02  0.00000000000E+00 0.  1.
          2    1    6    6  502    0 -0.12869364198E+01 -0.47781904487E+02  0.16779454250E+03  0.17446998337E+03  0.00000000000E+00 0. -1.
          1    1    5    5  503    0  0.11948120157E+03  0.36077721357E+02  0.13866556073E+02  0.12557723076E+03  0.00000000000E+00 0. -1.
         -2    1    5    5    0  503  0.21865124096E+03  0.20096369518E+02  0.12603026456E+03  0.25317159561E+03  0.00000000000E+00 0.  1.
         -3    1    6    6    0  502 -0.15527544989E+03 -0.47497851035E+03  0.10877500265E+04  0.11970443478E+04  0.00000000000E+00 0.  1.
<mgrwt>
<rscale>  0 0.19043335E+04</rscale>
<asrwt>0</asrwt>
<pdfrwt beam="1">  1        3 0.79000002E-01 0.19043335E+04</pdfrwt>
<pdfrwt beam="2">  1       -3 0.27162654E+00 0.19043335E+04</pdfrwt>
<totfact> 0.20138248E-01</totfact>
</mgrwt>
</event>
<event>
12    1  0.1663913E-007  0.2038050E+04  0.7818608E-02  0.8589035E-01
          2   -1    0    0  501    0  0.00000000000E+00  0.00000000000E+00  0.16091405975E+04  0.16091405975E+04  0.00000000000E+00 0. -1.
         -2   -1    0    0    0  501 -0.00000000000E+00 -0.00000000000E+00 -0.64532077658E+03  0.64532077658E+03  0.00000000000E+00 0.  1.
         23    2    1    2    0    0  0.14480481738E+03  0.75135418517E+03  0.70376138196E+02  0.77398991676E+03  0.92768764724E+02 0.  0.
        254    2    1    2    0    0 -0.14480481738E+03 -0.75135418517E+03  0.89344368270E+03  0.14804714573E+04  0.89891744616E+03 0.  0.
        -24    2    4    4    0    0  0.26506218931E+03  0.47394819329E+02  0.21926400990E+03  0.35486178156E+03  0.73115968661E+02 0.  0.
         24    2    4    4    0    0 -0.40986700669E+03 -0.79874900450E+03  0.67417967279E+03  0.11256096757E+04  0.80547970383E+02 0.  0.
         11    1    3    3    0    0  0.11844708795E+03  0.57335588417E+03  0.14749298503E+02  0.58564855021E+03  0.00000000000E+00 0.  1.
        -11    1    3    3    0    0  0.26357729432E+02  0.17799830100E+03  0.55626839693E+02  0.18834136655E+03  0.00000000000E+00 0. -1.
          2    1    6    6  502    0 -0.30885332656E+03 -0.63812281419E+03  0.56619504091E+03  0.90728602308E+03  0.00000000000E+00 0. -1.
          3    1    5    5  503    0  0.26892822391E+03  0.50299020465E+02  0.21810670946E+03  0.34988986522E+03  0.00000000000E+00 0. -1.
         -4    1    5    5    0  503 -0.38660345999E+01 -0.29042011353E+01  0.11573004461E+01  0.49719163393E+01  0.00000000000E+00 0.  1.
         -1    1    6    6    0  502 -0.10101368013E+03 -0.16062619030E+03  0.10798463189E+03  0.21832365266E+03  0.00000000000E+00 0.  1.
<mgrwt>
<rscale>  0 0.20380499E+04</rscale>
<asrwt>0</asrwt>
<pdfrwt beam="1">  1        2 0.24756009E+00 0.20380499E+04</pdfrwt>
<pdfrwt beam="2">  1       -2 0.99280120E-01 0.20380499E+04</pdfrwt>
<totfact> 0.85779462E+00</totfact>
</mgrwt>
</event>
<event>
12    1  0.1663913E-007  0.1698818E+04  0.7818608E-02  0.8762039E-01
         -1   -1    0    0    0  501 -0.00000000000E+00  0.00000000000E+00  0.11646961994E+04  0.11646961994E+04  0.00000000000E+00 0.  1.
          1   -1    0    0  501    0  0.00000000000E+00 -0.00000000000E+00 -0.61947078067E+03  0.61947078067E+03  0.00000000000E+00 0. -1.
         23    2    1    2    0    0 -0.32768054204E+02  0.60599952016E+03  0.85811769081E+02  0.61926973829E+03  0.88443118640E+02 0.  0.
        254    2    1    2    0    0  0.32768054204E+02 -0.60599952016E+03  0.45941364963E+03  0.11648972418E+04  0.88182510659E+03 0.  0.
        -24    2    4    4    0    0 -0.17876895877E+03 -0.72294689217E+03  0.50868524680E+03  0.90527974621E+03  0.78486872034E+02 0.  0.
         24    2    4    4    0    0  0.21153701297E+03  0.11694737201E+03 -0.49271597164E+02  0.25961749556E+03  0.80925632758E+02 0.  0.
         13    1    3    3    0    0  0.68002429540E+01  0.15098235072E+03 -0.13914879512E+02  0.15177462702E+03  0.00000000000E+00 0. -1.
        -13    1    3    3    0    0 -0.39568297158E+02  0.45501716943E+03  0.99726648593E+02  0.46749511127E+03  0.00000000000E+00 0.  1.
          2    1    6    6  502    0  0.18983970713E+03  0.12935949976E+03 -0.41513469569E+02  0.23344456031E+03  0.00000000000E+00 0. -1.
          3    1    5    5  503    0 -0.16981640433E+03 -0.69876701204E+03  0.47102264645E+03  0.85963671499E+03  0.00000000000E+00 0. -1.
         -4    1    5    5    0  503 -0.89525544336E+01 -0.24179880124E+02  0.37662600349E+02  0.45643031218E+02  0.00000000000E+00 0.  1.
         -1    1    6    6    0  502  0.21697305838E+02 -0.12412127750E+02 -0.77581275944E+01  0.26172935251E+02  0.00000000000E+00 0.  1.
<mgrwt>
<rscale>  0 0.16988175E+04</rscale>
<asrwt>0</asrwt>
<pdfrwt beam="1">  1        1 0.95303197E-01 0.16988175E+04</pdfrwt>
<pdfrwt beam="2">  1       -1 0.17918403E+00 0.16988175E+04</pdfrwt>
<totfact> 0.65625993E+00</totfact>
</mgrwt>
</event>
<event>
12    1  0.1663913E-007  0.1633001E+04  0.7818608E-02  0.8800527E-01
         -2   -1    0    0    0  501 -0.00000000000E+00  0.00000000000E+00  0.30104726322E+03  0.30104726322E+03  0.00000000000E+00 0.  1.
          2   -1    0    0  501    0  0.00000000000E+00 -0.00000000000E+00 -0.22145117504E+04  0.22145117504E+04  0.00000000000E+00 0. -1.
         23    2    1    2    0    0  0.86049146590E+02  0.44270978027E+03 -0.15061658508E+03  0.48457980779E+03  0.93465658097E+02 0.  0.
        254    2    1    2    0    0 -0.86049146590E+02 -0.44270978027E+03 -0.17628479020E+04  0.20309792058E+04  0.90213491420E+03 0.  0.
        -24    2    4    4    0    0 -0.19522933591E+03 -0.37564544510E+03 -0.18193187443E+04  0.18697819254E+04  0.83305230251E+02 0.  0.
         24    2    4    4    0    0  0.10918018932E+03 -0.67064335163E+02  0.56470842221E+02  0.16119728036E+03  0.79860305432E+02 0.  0.
         11    1    3    3    0    0  0.39120612194E+02  0.20365691856E+03 -0.11852020737E+03  0.23885895907E+03  0.00000000000E+00 0. -1.
        -11    1    3    3    0    0  0.46928534396E+02  0.23905286171E+03 -0.32096377713E+02  0.24572084872E+03  0.00000000000E+00 0.  1.
          4    1    6    6  502    0  0.11556199586E+03 -0.63950065965E+02  0.67310052104E+02  0.14823909383E+03  0.00000000000E+00 0. -1.
          1    1    5    5  503    0 -0.17897428535E+03 -0.27683691966E+03 -0.13219073099E+04  0.13623910639E+04  0.00000000000E+00 0. -1.
         -2    1    5    5    0  503 -0.16255050560E+02 -0.98808525439E+02 -0.49741143434E+03  0.50739086155E+03  0.00000000000E+00 0.  1.
         -3    1    6    6    0  502 -0.63818065403E+01 -0.31142691988E+01 -0.10839209884E+02  0.12958186534E+02  0.00000000000E+00 0.  1.
<mgrwt>
<rscale>  0 0.16330006E+04</rscale>
<asrwt>0</asrwt>
<pdfrwt beam="1">  1        2 0.34069410E+00 0.16330006E+04</pdfrwt>
<pdfrwt beam="2">  1       -2 0.46314966E-01 0.16330006E+04</pdfrwt>
<totfact> 0.21439881E+01</totfact>
</mgrwt>
</event>
<event>
12    1  0.1663913E-007  0.1586302E+04  0.7818608E-02  0.8829007E-01
          2   -1    0    0  501    0  0.00000000000E+00  0.00000000000E+00  0.13721512640E+04  0.13721512640E+04  0.00000000000E+00 0. -1.
         -2   -1    0    0    0  501 -0.00000000000E+00 -0.00000000000E+00 -0.45846898903E+03  0.45846898903E+03  0.00000000000E+00 0.  1.
         23    2    1    2    0    0 -0.28076450860E+03 -0.32949199912E+03 -0.47341445072E+02  0.44693669106E+03  0.10058581720E+03 0.  0.
        254    2    1    2    0    0  0.28076450860E+03  0.32949199912E+03  0.96102372001E+03  0.13836835619E+04  0.89644850515E+03 0.  0.
        -24    2    4    4    0    0  0.12874583229E+03  0.33268386467E+03  0.11023544359E+04  0.11613068067E+04  0.78702947403E+02 0.  0.
         24    2    4    4    0    0  0.15201867631E+03 -0.31918655437E+01 -0.14133071587E+03  0.22237675520E+03  0.79731951271E+02 0.  0.
         13    1    3    3    0    0 -0.10563598092E+03 -0.12860017546E+03  0.30707496839E+02  0.16923331810E+03  0.00000000000E+00 0. -1.
        -13    1    3    3    0    0 -0.17512852768E+03 -0.20089182366E+03 -0.78048941911E+02  0.27770337296E+03  0.00000000000E+00 0.  1.
          4    1    6    6  502    0  0.43687682496E+02  0.21411279491E+02 -0.87942417138E+01  0.49440825020E+02  0.00000000000E+00 0. -1.
          1    1    5    5  503    0  0.96398328355E+01  0.32536328701E+02  0.49270692268E+02  0.59825915614E+02  0.00000000000E+00 0. -1.
         -4    1    5    5    0  503  0.11910599946E+03  0.30014753597E+03  0.10530837436E+04  0.11014808911E+04  0.00000000000E+00 0.  1.
         -3    1    6    6    0  502  0.10833099381E+03 -0.24603145035E+02 -0.13253647416E+03  0.17293593018E+03  0.00000000000E+00 0.  1.
<mgrwt>
<rscale>  0 0.15863024E+04</rscale>
<asrwt>0</asrwt>
<pdfrwt beam="1">  1        2 0.21110019E+00 0.15863024E+04</pdfrwt>
<pdfrwt beam="2">  1       -2 0.70533691E-01 0.15863024E+04</pdfrwt>
<totfact> 0.26348842E+01</totfact>
</mgrwt>
</event>
<event>
12    1  0.1663913E-007  0.1200967E+04  0.7818608E-02  0.9112011E-01
          2   -1    0    0  501    0  0.00000000000E+00  0.00000000000E+00  0.91228362011E+03  0.91228362011E+03  0.00000000000E+00 0. -1.
         -2   -1    0    0    0  501 -0.00000000000E+00 -0.00000000000E+00 -0.39525035823E+03  0.39525035823E+03  0.00000000000E+00 0.  1.
         23    2    1    2    0    0  0.21592957036E+03 -0.68772647815E+02  0.15993127721E+01  0.24422260508E+03  0.91032228284E+02 0.  0.
        254    2    1    2    0    0 -0.21592957036E+03  0.68772647815E+02  0.51543394911E+03  0.10633113733E+04  0.90199981384E+03 0.  0.
        -24    2    4    4    0    0  0.24500215954E+02 -0.42962373673E+02 -0.24053370377E+03  0.25817588424E+03  0.79701307539E+02 0.  0.
         24    2    4    4    0    0 -0.24042978632E+03  0.11173502149E+03  0.75596765288E+03  0.80513548902E+03  0.80404392338E+02 0.  0.
         11    1    3    3    0    0  0.11628462702E+02 -0.41162370558E+01 -0.25403281546E+02  0.28239887847E+02  0.00000000000E+00 0. -1.
        -11    1    3    3    0    0  0.20430110766E+03 -0.64656410759E+02  0.27002594318E+02  0.21598271723E+03  0.00000000000E+00 0.  1.
          2    1    6    6  502    0 -0.29584365763E+02  0.47913094782E+02  0.13623400805E+03  0.14741303978E+03  0.00000000000E+00 0. -1.
          1    1    5    5  503    0  0.90880153308E+01  0.19338421860E+02 -0.23094656325E+02  0.31463148817E+02  0.00000000000E+00 0. -1.
         -2    1    5    5    0  503  0.15412200624E+02 -0.62300795533E+02 -0.21743904744E+03  0.22671273543E+03  0.00000000000E+00 0.  1.
         -1    1    6    6    0  502 -0.21084542055E+03  0.63821926706E+02  0.61973364483E+03  0.65772244924E+03  0.00000000000E+00 0.  1.
<mgrwt>
<rscale>  0 0.12009670E+04</rscale>
<asrwt>0</asrwt>
<pdfrwt beam="1">  1        2 0.14035133E+00 0.12009670E+04</pdfrwt>
<pdfrwt beam="2">  1       -2 0.60807748E-01 0.12009670E+04</pdfrwt>
<totfact> 0.71472731E+01</totfact>
</mgrwt>
</event>
<event>
12    1  0.1663913E-007  0.1452242E+04  0.7818608E-02  0.8916848E-01
          1   -1    0    0  501    0  0.00000000000E+00  0.00000000000E+00  0.92739649394E+03  0.92739649394E+03  0.00000000000E+00 0. -1.
         -1   -1    0    0    0  501 -0.00000000000E+00 -0.00000000000E+00 -0.56852863748E+03  0.56852863748E+03  0.00000000000E+00 0.  1.
         23    2    1    2    0    0 -0.37428793944E+03  0.68261429999E+02  0.34592893364E+03  0.52236597238E+03  0.91914620912E+02 0.  0.
        254    2    1    2    0    0  0.37428793944E+03 -0.68261429999E+02  0.12938922818E+02  0.97355915904E+03  0.89604628005E+03 0.  0.
        -24    2    4    4    0    0  0.44945602029E+03  0.63874843570E+02 -0.34564952673E+03  0.57620998328E+03  0.80334548530E+02 0.  0.
         24    2    4    4    0    0 -0.75168080855E+02 -0.13213627357E+03  0.35858844955E+03  0.39734917576E+03  0.78679451939E+02 0.  0.
         11    1    3    3    0    0 -0.83131466407E+02 -0.22652397927E+02  0.68979162274E+02  0.11037253584E+03  0.00000000000E+00 0.  1.
        -11    1    3    3    0    0 -0.29115647303E+03  0.90913827926E+02  0.27694977137E+03  0.41199343655E+03  0.00000000000E+00 0. -1.
          2    1    6    6  502    0 -0.55143960334E+01 -0.83301496222E+02  0.21230767035E+03  0.22813174861E+03  0.00000000000E+00 0. -1.
          3    1    5    5  503    0  0.18082295445E+02 -0.13126515339E+02 -0.11376227977E+02  0.25073758723E+02  0.00000000000E+00 0. -1.
         -4    1    5    5    0  503  0.43137372485E+03  0.77001358910E+02 -0.33427329875E+03  0.55113622456E+03  0.00000000000E+00 0.  1.
         -1    1    6    6    0  502 -0.69653684821E+02 -0.48834777347E+02  0.14628077920E+03  0.16921742715E+03  0.00000000000E+00 0.  1.
<mgrwt>
<rscale>  0 0.14522417E+04</rscale>
<asrwt>0</asrwt>
<pdfrwt beam="1">  1        1 0.14267638E+00 0.14522417E+04</pdfrwt>
<pdfrwt beam="2">  1       -1 0.87465944E-01 0.14522417E+04</pdfrwt>
<totfact> 0.21595730E+01</totfact>
</mgrwt>
</event>
<event>
12    1  0.1663913E-007  0.2774186E+04  0.7818608E-02  0.8311328E-01
          2   -1    0    0  501    0  0.00000000000E+00  0.00000000000E+00  0.14132633673E+04  0.14132633673E+04  0.00000000000E+00 0. -1.
         -2   -1    0    0    0  501 -0.00000000000E+00 -0.00000000000E+00 -0.13614071722E+04  0.13614071722E+04  0.00000000000E+00 0.  1.
         23    2    1    2    0    0  0.20894835568E+03 -0.10780354632E+04  0.59003366668E+03  0.12500437554E+04  0.93004234006E+02 0.  0.
        254    2    1    2    0    0 -0.20894835568E+03  0.10780354632E+04 -0.53817747160E+03  0.15246267841E+04  0.91051192448E+03 0.  0.
        -24    2    4    4    0    0  0.18269654474E+03  0.40268997961E+03 -0.58580083161E+03  0.73834629859E+03  0.80345474000E+02 0.  0.
         24    2    4    4    0    0 -0.39164490042E+03  0.67534548354E+03  0.47623360010E+02  0.78628048548E+03  0.80571504058E+02 0.  0.
         13    1    3    3    0    0  0.48743185295E+02 -0.11165146127E+03  0.78783566737E+02  0.14508203646E+03  0.00000000000E+00 0.  1.
        -13    1    3    3    0    0  0.16020517038E+03 -0.96638400189E+03  0.51125009994E+03  0.11049617190E+04  0.00000000000E+00 0. -1.
          4    1    6    6  502    0 -0.33210937477E+02  0.80969543257E+02 -0.17137882438E+02  0.89178138116E+02  0.00000000000E+00 0. -1.
          3    1    5    5  503    0  0.55849143998E+02  0.14785532195E+03 -0.27267150014E+03  0.31516673381E+03  0.00000000000E+00 0. -1.
         -4    1    5    5    0  503  0.12684740074E+03  0.25483465766E+03 -0.31312933147E+03  0.42317956478E+03  0.00000000000E+00 0.  1.
         -3    1    6    6    0  502 -0.35843396294E+03  0.59437594028E+03  0.64761242447E+02  0.69710234736E+03  0.00000000000E+00 0.  1.
<mgrwt>
<rscale>  0 0.27741859E+04</rscale>
<asrwt>0</asrwt>
<pdfrwt beam="1">  1        2 0.21742513E+00 0.27741859E+04</pdfrwt>
<pdfrwt beam="2">  1       -2 0.20944726E+00 0.27741859E+04</pdfrwt>
<totfact> 0.14316618E+00</totfact>
</mgrwt>
</event>
<event>
12    1  0.1663913E-007  0.1928379E+04  0.7818608E-02  0.8640858E-01
          2   -1    0    0  501    0  0.00000000000E+00  0.00000000000E+00  0.29477035287E+03  0.29477035287E+03  0.00000000000E+00 0.  1.
         -2   -1    0    0    0  501 -0.00000000000E+00 -0.00000000000E+00 -0.31538487142E+04  0.31538487142E+04  0.00000000000E+00 0. -1.
         23    2    1    2    0    0  0.46129802883E+02  0.43965553033E+03 -0.40141996737E+02  0.45309406979E+03  0.90873054907E+02 0.  0.
        254    2    1    2    0    0 -0.46129802883E+02 -0.43965553033E+03 -0.28189363646E+04  0.29955249973E+04  0.91178003799E+03 0.  0.
        -24    2    4    4    0    0 -0.27927908110E+03  0.14646339585E+03 -0.14498673285E+04  0.14860317398E+04  0.82016644170E+02 0.  0.
         24    2    4    4    0    0  0.23314927822E+03 -0.58611892618E+03 -0.13690690361E+04  0.15094932575E+04  0.79535446790E+02 0.  0.
         11    1    3    3    0    0  0.16556873702E+02  0.10174383255E+03  0.28641138097E+02  0.10698715961E+03  0.00000000000E+00 0. -1.
        -11    1    3    3    0    0  0.29572929181E+02  0.33791169778E+03 -0.68783134834E+02  0.34610691018E+03  0.00000000000E+00 0.  1.
          4    1    6    6  502    0  0.23343469022E+03 -0.55023171688E+03 -0.12580166973E+04  0.13927859518E+04  0.00000000000E+00 0. -1.
          1    1    5    5  503    0 -0.23398145400E+03  0.83966992559E+02 -0.11190637833E+04  0.11463426747E+04  0.00000000000E+00 0. -1.
         -2    1    5    5    0  503 -0.45297627101E+02  0.62496403291E+02 -0.33080354521E+03  0.33968906513E+03  0.00000000000E+00 0.  1.
         -3    1    6    6    0  502 -0.28541200362E+00 -0.35887209297E+02 -0.11105233882E+03  0.11670730572E+03  0.00000000000E+00 0.  1.
<mgrwt>
<rscale>  0 0.19283787E+04</rscale>
<asrwt>0</asrwt>
<pdfrwt beam="1">  1        2 0.45349285E-01 0.19283787E+04</pdfrwt>
<pdfrwt beam="2">  1       -2 0.48520749E+00 0.19283787E+04</pdfrwt>
<totfact> 0.21374338E-01</totfact>
</mgrwt>
</event>
<event>
12    1  0.1663913E-007  0.1245359E+04  0.7818608E-02  0.9074055E-01
         -2   -1    0    0    0  501 -0.00000000000E+00  0.00000000000E+00  0.32426539926E+03  0.32426539926E+03  0.00000000000E+00 0.  1.
          2   -1    0    0  501    0  0.00000000000E+00 -0.00000000000E+00 -0.11957172809E+04  0.11957172809E+04  0.00000000000E+00 0. -1.
         23    2    1    2    0    0 -0.16874225216E+03 -0.20302131147E+03 -0.31802737061E+03  0.42350974107E+03  0.92344419179E+02 0.  0.
        254    2    1    2    0    0  0.16874225216E+03  0.20302131147E+03 -0.55342451099E+03  0.10964729390E+04  0.90900088895E+03 0.  0.
        -24    2    4    4    0    0 -0.33590766423E+03  0.11992190647E+03 -0.42996213498E+03  0.56453025813E+03  0.81312682177E+02 0.  0.
         24    2    4    4    0    0  0.50464991639E+03  0.83099404998E+02 -0.12346237602E+03  0.53194268092E+03  0.78377345342E+02 0.  0.
         11    1    3    3    0    0 -0.29703362757E+02 -0.54866452011E+02 -0.14038078435E+03  0.15362090329E+03  0.00000000000E+00 0.  1.
        -11    1    3    3    0    0 -0.13903888940E+03 -0.14815485946E+03 -0.17764658626E+03  0.26988883778E+03  0.00000000000E+00 0. -1.
          2    1    6    6  502    0  0.23719408678E+02 -0.59452974949E+01  0.75562044680E+01  0.25594005867E+02  0.00000000000E+00 0. -1.
          3    1    5    5  503    0 -0.17050648968E+02  0.28982305346E+02 -0.30610941122E+02  0.45472281335E+02  0.00000000000E+00 0. -1.
         -4    1    5    5    0  503 -0.31885701527E+03  0.90939601124E+02 -0.39935119386E+03  0.51905797679E+03  0.00000000000E+00 0.  1.
         -1    1    6    6    0  502  0.48093050771E+03  0.89044702493E+02 -0.13101858048E+03  0.50634867505E+03  0.00000000000E+00 0.  1.
<mgrwt>
<rscale>  0 0.12453590E+04</rscale>
<asrwt>0</asrwt>
<pdfrwt beam="1">  1        2 0.18395650E+00 0.12453590E+04</pdfrwt>
<pdfrwt beam="2">  1       -2 0.49886985E-01 0.12453590E+04</pdfrwt>
<totfact> 0.71243542E+01</totfact>
</mgrwt>
</event>
<event>
12    1  0.1663913E-007  0.2695227E+04  0.7818608E-02  0.8336555E-01
          2   -1    0    0  501    0  0.00000000000E+00  0.00000000000E+00  0.24778626738E+04  0.24778626738E+04  0.00000000000E+00 0. -1.
         -2   -1    0    0    0  501 -0.00000000000E+00 -0.00000000000E+00 -0.73291497560E+03  0.73291497560E+03  0.00000000000E+00 0.  1.
         23    2    1    2    0    0 -0.37610908604E+02  0.30191072964E+03 -0.59991901466E+03  0.67833408689E+03  0.87576481815E+02 0.  0.
        254    2    1    2    0    0  0.37610908604E+02 -0.30191072964E+03  0.23448667128E+04  0.25324435625E+04  0.90681080004E+03 0.  0.
        -24    2    4    4    0    0 -0.40374739186E+03 -0.10491690815E+02  0.84541794353E+03  0.94029300521E+03  0.79356186913E+02 0.  0.
         24    2    4    4    0    0  0.44135830046E+03 -0.29141903883E+03  0.14994487693E+04  0.15921505573E+04  0.82913085009E+02 0.  0.
         13    1    3    3    0    0 -0.50923430427E+02  0.29122258921E+03 -0.58581991565E+03  0.65619262858E+03  0.00000000000E+00 0.  1.
        -13    1    3    3    0    0  0.13312521823E+02  0.10688140439E+02 -0.14099099017E+02  0.22141458318E+02  0.00000000000E+00 0. -1.
          2    1    6    6  502    0  0.70461345129E+02 -0.40585550444E+02  0.33120980561E+03  0.34104533920E+03  0.00000000000E+00 0. -1.
          1    1    5    5  503    0 -0.98757674402E+01 -0.10683547246E+01  0.31293327156E+01  0.10414647742E+02  0.00000000000E+00 0. -1.
         -2    1    5    5    0  503 -0.39387162442E+03 -0.94233360905E+01  0.84228861081E+03  0.92987835747E+03  0.00000000000E+00 0.  1.
         -1    1    6    6    0  502  0.37089695533E+03 -0.25083348839E+03  0.11682389637E+04  0.12511052181E+04  0.00000000000E+00 0.  1.
<mgrwt>
<rscale>  0 0.26952274E+04</rscale>
<asrwt>0</asrwt>
<pdfrwt beam="1">  1        2 0.38120964E+00 0.26952274E+04</pdfrwt>
<pdfrwt beam="2">  1       -2 0.11275615E+00 0.26952274E+04</pdfrwt>
<totfact> 0.19463803E+00</totfact>
</mgrwt>
</event>
<event>
12    1  0.1663913E-007  0.1259193E+04  0.7818608E-02  0.9062566E-01
          2   -1    0    0  501    0  0.00000000000E+00  0.00000000000E+00  0.15433275785E+04  0.15433275785E+04  0.00000000000E+00 0. -1.
         -2   -1    0    0    0  501 -0.00000000000E+00 -0.00000000000E+00 -0.25684227085E+03  0.25684227085E+03  0.00000000000E+00 0.  1.
         23    2    1    2    0    0 -0.27423183498E+03 -0.52642689742E+02  0.43609121315E+03  0.52584967126E+03  0.91476655365E+02 0.  0.
        254    2    1    2    0    0  0.27423183498E+03  0.52642689742E+02  0.85039409452E+03  0.12743201781E+04  0.90705426973E+03 0.  0.
        -24    2    4    4    0    0  0.32389891766E+03  0.11995755771E+03 -0.57392415643E+02  0.35922801954E+03  0.80315354319E+02 0.  0.
         24    2    4    4    0    0 -0.49667082678E+02 -0.67314867969E+02  0.90778651016E+03  0.91509215856E+03  0.79493396460E+02 0.  0.
         13    1    3    3    0    0 -0.43916836572E+02  0.18828069480E+01  0.14028273602E+03  0.14700843350E+03  0.00000000000E+00 0. -1.
        -13    1    3    3    0    0 -0.23031499841E+03 -0.54525496690E+02  0.29580847713E+03  0.37884123775E+03  0.00000000000E+00 0.  1.
          4    1    6    6  502    0 -0.28806380689E+02 -0.66048636659E+02  0.37293665452E+03  0.37983414573E+03  0.00000000000E+00 0. -1.
          1    1    5    5  503    0  0.83546446026E+02 -0.46932139526E+01 -0.86686080364E+01  0.84125974978E+02  0.00000000000E+00 0. -1.
         -2    1    5    5    0  503  0.24035247163E+03  0.12465077166E+03 -0.48723807606E+02  0.27510204456E+03  0.00000000000E+00 0.  1.
         -3    1    6    6    0  502 -0.20860701989E+02 -0.12662313097E+01  0.53484985563E+03  0.53525801283E+03  0.00000000000E+00 0.  1.
<mgrwt>
<rscale>  0 0.12591930E+04</rscale>
<asrwt>0</asrwt>
<pdfrwt beam="1">  1        2 0.23743501E+00 0.12591930E+04</pdfrwt>
<pdfrwt beam="2">  1       -2 0.39514197E-01 0.12591930E+04</pdfrwt>
<totfact> 0.71412316E+01</totfact>
</mgrwt>
</event>
<event>
12    1  0.1663913E-007  0.2410425E+04  0.7818608E-02  0.8435611E-01
          1   -1    0    0  501    0  0.00000000000E+00  0.00000000000E+00  0.25453618307E+04  0.25453618307E+04  0.00000000000E+00 0. -1.
         -1   -1    0    0    0  501 -0.00000000000E+00 -0.00000000000E+00 -0.57066047410E+03  0.57066047410E+03  0.00000000000E+00 0.  1.
         23    2    1    2    0    0 -0.25748385974E+03  0.25338568687E+03 -0.40178921850E+03  0.54752987494E+03  0.88612321456E+02 0.  0.
        254    2    1    2    0    0  0.25748385974E+03 -0.25338568687E+03  0.23764905751E+04  0.25684924298E+04  0.90495506207E+03 0.  0.
        -24    2    4    4    0    0 -0.27743089885E+03 -0.10569932587E+03  0.14768486930E+04  0.15085150689E+04  0.79971245266E+02 0.  0.
         24    2    4    4    0    0  0.53491475860E+03 -0.14768636100E+03  0.89964188211E+03  0.10599773609E+04  0.79065981642E+02 0.  0.
         13    1    3    3    0    0 -0.16425702266E+03  0.21468088415E+03 -0.27717895871E+03  0.38716459893E+03  0.00000000000E+00 0.  1.
        -13    1    3    3    0    0 -0.93226837081E+02  0.38704802717E+02 -0.12461025978E+03  0.16036527601E+03  0.00000000000E+00 0. -1.
          2    1    6    6  502    0  0.82683103219E+02 -0.20209168263E+02  0.89982339461E+02  0.12386172716E+03  0.00000000000E+00 0. -1.
          3    1    5    5  503    0 -0.12111040693E+03 -0.43038629537E+02  0.45192119401E+03  0.46984339933E+03  0.00000000000E+00 0. -1.
         -4    1    5    5    0  503 -0.15632049193E+03 -0.62660696329E+02  0.10249274990E+04  0.10386716696E+04  0.00000000000E+00 0.  1.
         -1    1    6    6    0  502  0.45223165538E+03 -0.12747719274E+03  0.80965954265E+03  0.93611563377E+03  0.00000000000E+00 0.  1.
<mgrwt>
<rscale>  0 0.24104252E+04</rscale>
<asrwt>0</asrwt>
<pdfrwt beam="1">  1        1 0.39159412E+00 0.24104252E+04</pdfrwt>
<pdfrwt beam="2">  1       -1 0.87793921E-01 0.24104252E+04</pdfrwt>
<totfact> 0.14386765E+00</totfact>
</mgrwt>
</event>
<event>
12    1  0.1663913E-007  0.1119951E+04  0.7818608E-02  0.9185962E-01
          1   -1    0    0  501    0  0.00000000000E+00  0.00000000000E+00  0.80117245252E+03  0.80117245252E+03  0.00000000000E+00 0. -1.
         -1   -1    0    0    0  501 -0.00000000000E+00 -0.00000000000E+00 -0.39139174410E+03  0.39139174410E+03  0.00000000000E+00 0.  1.
         23    2    1    2    0    0  0.63959748925E+02  0.11529527072E+03 -0.57722226702E+02  0.17072918347E+03  0.91830004366E+02 0.  0.
        254    2    1    2    0    0 -0.63959748925E+02 -0.11529527072E+03  0.46750293513E+03  0.10218350131E+04  0.89900164116E+03 0.  0.
        -24    2    4    4    0    0 -0.34205747295E+03 -0.13746684240E+03  0.59385913037E+03  0.70345573804E+03  0.79251883887E+02 0.  0.
         24    2    4    4    0    0  0.27809772403E+03  0.22171571687E+02 -0.12635619524E+03  0.31837927510E+03  0.87003172557E+02 0.  0.
         11    1    3    3    0    0  0.65954377499E+02  0.57754124797E+02 -0.69606082752E+02  0.11193983026E+03  0.00000000000E+00 0.  1.
        -11    1    3    3    0    0 -0.19946285732E+01  0.57541145918E+02  0.11883856049E+02  0.58789353214E+02  0.00000000000E+00 0. -1.
          2    1    6    6  502    0  0.12795367879E+03 -0.16217016971E+02 -0.95195009690E+02  0.16030354152E+03  0.00000000000E+00 0. -1.
          3    1    5    5  503    0 -0.94257551652E+02 -0.66648662147E+02  0.13927566340E+03  0.18089842626E+03  0.00000000000E+00 0. -1.
         -4    1    5    5    0  503 -0.24779992130E+03 -0.70818180255E+02  0.45458346697E+03  0.52255731178E+03  0.00000000000E+00 0.  1.
         -1    1    6    6    0  502  0.15014404524E+03  0.38388588658E+02 -0.31161185554E+02  0.15807573358E+03  0.00000000000E+00 0.  1.
<mgrwt>
<rscale>  0 0.11199505E+04</rscale>
<asrwt>0</asrwt>
<pdfrwt beam="1">  1        1 0.12325730E+00 0.11199505E+04</pdfrwt>
<pdfrwt beam="2">  1       -1 0.60214115E-01 0.11199505E+04</pdfrwt>
<totfact> 0.61395521E+01</totfact>
</mgrwt>
</event>
<event>
12    1  0.1663913E-007  0.1443973E+04  0.7818608E-02  0.8922590E-01
          1   -1    0    0  501    0  0.00000000000E+00  0.00000000000E+00  0.83904552462E+03  0.83904552462E+03  0.00000000000E+00 0. -1.
         -1   -1    0    0    0  501 -0.00000000000E+00 -0.00000000000E+00 -0.62125883891E+03  0.62125883891E+03  0.00000000000E+00 0.  1.
         23    2    1    2    0    0 -0.25188227315E+03 -0.37480179826E+03  0.11180894213E+02  0.46099241229E+03  0.92021325163E+02 0.  0.
        254    2    1    2    0    0  0.25188227315E+03  0.37480179826E+03  0.20660579150E+03  0.99931195124E+03  0.86718934225E+03 0.  0.
        -24    2    4    4    0    0  0.45220969858E+03 -0.77334041215E+02  0.17493725840E+03  0.49729337430E+03  0.78889101483E+02 0.  0.
         24    2    4    4    0    0 -0.20032742543E+03  0.45213583948E+03  0.31668533106E+02  0.50201857694E+03  0.80385700769E+02 0.  0.
         13    1    3    3    0    0 -0.16940922959E+03 -0.30731044728E+03  0.32145319479E+02  0.35238121352E+03  0.00000000000E+00 0. -1.
        -13    1    3    3    0    0 -0.82473043556E+02 -0.67491350983E+02 -0.20964425266E+02  0.10861119877E+03  0.00000000000E+00 0.  1.
          4    1    6    6  502    0  0.52665199923E+01  0.14484576191E+02  0.92236456083E+01  0.17961481525E+02  0.00000000000E+00 0. -1.
          3    1    5    5  503    0  0.15433235166E+03 -0.21951157149E+02  0.20520183519E+02  0.15723042327E+03  0.00000000000E+00 0. -1.
         -4    1    5    5    0  503  0.29787734692E+03 -0.55382884067E+02  0.15441707488E+03  0.34006295104E+03  0.00000000000E+00 0.  1.
         -3    1    6    6    0  502 -0.20559394542E+03  0.43765126328E+03  0.22444887498E+02  0.48405709542E+03  0.00000000000E+00 0.  1.
<mgrwt>
<rscale>  0 0.14439729E+04</rscale>
<asrwt>0</asrwt>
<pdfrwt beam="1">  1        1 0.12908393E+00 0.14439729E+04</pdfrwt>
<pdfrwt beam="2">  1       -1 0.95578283E-01 0.14439729E+04</pdfrwt>
<totfact> 0.21007473E+01</totfact>
</mgrwt>
</event>
<event>
12    1  0.1663913E-007  0.1967161E+04  0.7818608E-02  0.8622130E-01
         -1   -1    0    0    0  501 -0.00000000000E+00  0.00000000000E+00  0.97566511540E+03  0.97566511540E+03  0.00000000000E+00 0.  1.
          1   -1    0    0  501    0  0.00000000000E+00 -0.00000000000E+00 -0.99156038564E+03  0.99156038564E+03  0.00000000000E+00 0. -1.
         23    2    1    2    0    0 -0.55535458134E+02 -0.76686621488E+03 -0.67377599111E+02  0.77728948249E+03  0.92039231235E+02 0.  0.
        254    2    1    2    0    0  0.55535458134E+02  0.76686621488E+03  0.51482328866E+02  0.11899360186E+04  0.90671347151E+03 0.  0.
        -24    2    4    4    0    0 -0.33389028544E+03  0.70811879528E+03  0.14557025175E+02  0.78711394440E+03  0.80134284508E+02 0.  0.
         24    2    4    4    0    0  0.38942574357E+03  0.58747419605E+02  0.36925303690E+02  0.40282207415E+03  0.76147726821E+02 0.  0.
         11    1    3    3    0    0 -0.42558144444E+02 -0.62572895240E+03 -0.90541913193E+02  0.63367638079E+03  0.00000000000E+00 0. -1.
        -11    1    3    3    0    0 -0.12977313690E+02 -0.14113726248E+03  0.23164314082E+02  0.14361310170E+03  0.00000000000E+00 0.  1.
          4    1    6    6  502    0  0.37365704829E+03  0.60425318991E+02  0.19141531702E+02  0.37899499620E+03  0.00000000000E+00 0. -1.
          1    1    5    5  503    0 -0.29846609333E+03  0.66967218799E+03  0.12725755043E+01  0.73317424101E+03  0.00000000000E+00 0. -1.
         -2    1    5    5    0  503 -0.35424192113E+02  0.38446607283E+02  0.13284449671E+02  0.53939703387E+02  0.00000000000E+00 0.  1.
         -3    1    6    6    0  502  0.15768695289E+02 -0.16778993860E+01  0.17783771988E+02  0.23827077949E+02  0.00000000000E+00 0.  1.
<mgrwt>
<rscale>  0 0.19671613E+04</rscale>
<asrwt>0</asrwt>
<pdfrwt beam="1">  1        1 0.15254775E+00 0.19671613E+04</pdfrwt>
<pdfrwt beam="2">  1       -1 0.15010233E+00 0.19671613E+04</pdfrwt>
<totfact> 0.49777355E+00</totfact>
</mgrwt>
</event>
<event>
12    1  0.1663913E-007  0.4214313E+04  0.7818608E-02  0.7962655E-01
         -2   -1    0    0    0  501 -0.00000000000E+00  0.00000000000E+00  0.18475819358E+04  0.18475819358E+04  0.00000000000E+00 0. -1.
          2   -1    0    0  501    0  0.00000000000E+00 -0.00000000000E+00 -0.24031997396E+04  0.24031997396E+04  0.00000000000E+00 0.  1.
         23    2    1    2    0    0 -0.86441507485E+03  0.17552527591E+04 -0.73215948275E+03  0.20912106707E+04  0.94757012425E+02 0.  0.
        254    2    1    2    0    0  0.86441507485E+03 -0.17552527591E+04  0.17654167894E+03  0.21595710047E+04  0.89691375832E+03 0.  0.
        -24    2    4    4    0    0  0.91375127940E+03 -0.13950533595E+04  0.41145051225E+03  0.17197762154E+04  0.84990767314E+02 0.  0.
         24    2    4    4    0    0 -0.49336204551E+02 -0.36019939953E+03 -0.23490883331E+03  0.43979478923E+03  0.77843613487E+02 0.  0.
         11    1    3    3    0    0 -0.79478958476E+03  0.16156635357E+04 -0.64560256623E+03  0.19128151552E+04  0.00000000000E+00 0.  1.
        -11    1    3    3    0    0 -0.69625490090E+02  0.13958922340E+03 -0.86556916523E+02  0.17839551552E+03  0.00000000000E+00 0. -1.
          4    1    6    6  502    0  0.71073814313E+01 -0.31512309991E+00 -0.18960750499E+01  0.73626947494E+01  0.00000000000E+00 0. -1.
          1    1    5    5  503    0  0.76459547308E+02 -0.11652824407E+03  0.59125464247E+02  0.15139588688E+03  0.00000000000E+00 0. -1.
         -4    1    5    5    0  503  0.83729173209E+03 -0.12785251155E+04  0.35232504800E+03  0.15683803285E+04  0.00000000000E+00 0.  1.
         -3    1    6    6    0  502 -0.56443585982E+02 -0.35988427643E+03 -0.23301275826E+03  0.43243209448E+03  0.00000000000E+00 0.  1.
<mgrwt>
<rscale>  0 0.42143130E+04</rscale>
<asrwt>0</asrwt>
<pdfrwt beam="1">  1        2 0.36972304E+00 0.42143130E+04</pdfrwt>
<pdfrwt beam="2">  1       -2 0.28424337E+00 0.42143130E+04</pdfrwt>
<totfact> 0.12178820E-01</totfact>
</mgrwt>
</event>
<event>
12    1  0.1663913E-007  0.1588413E+04  0.7818608E-02  0.8827698E-01
          1   -1    0    0  501    0  0.00000000000E+00  0.00000000000E+00  0.39825002905E+03  0.39825002905E+03  0.00000000000E+00 0. -1.
         -1   -1    0    0    0  501 -0.00000000000E+00 -0.00000000000E+00 -0.15838387554E+04  0.15838387554E+04  0.00000000000E+00 0.  1.
         23    2    1    2    0    0 -0.44127742259E+03 -0.40941450044E+02 -0.79569587617E+03  0.91535818652E+03  0.91360364833E+02 0.  0.
        254    2    1    2    0    0  0.44127742259E+03  0.40941450044E+02 -0.38989285023E+03  0.10667305980E+04  0.88853574378E+03 0.  0.
        -24    2    4    4    0    0  0.52168815659E+03  0.34357871717E+03 -0.10994000015E+03  0.63929272798E+03  0.80022001946E+02 0.  0.
         24    2    4    4    0    0 -0.80410733997E+02 -0.30263726713E+03 -0.27995285008E+03  0.42743786999E+03  0.79210686411E+02 0.  0.
         11    1    3    3    0    0 -0.13011482331E+02  0.13115880821E+02 -0.55444982207E+02  0.58442031571E+02  0.00000000000E+00 0. -1.
        -11    1    3    3    0    0 -0.42826594026E+03 -0.54057330865E+02 -0.74025089396E+03  0.85691615495E+03  0.00000000000E+00 0.  1.
          4    1    6    6  502    0 -0.48215166087E+02 -0.25806828747E+03 -0.25844655547E+03  0.36840000715E+03  0.00000000000E+00 0. -1.
          3    1    5    5  503    0  0.23636598127E+03  0.20222888380E+03 -0.44773543640E+02  0.31427705732E+03  0.00000000000E+00 0. -1.
         -4    1    5    5    0  503  0.28532217531E+03  0.14134983337E+03 -0.65166456510E+02  0.32501567066E+03  0.00000000000E+00 0.  1.
         -1    1    6    6    0  502 -0.32195567910E+02 -0.44568979661E+02 -0.21506294612E+02  0.59037862843E+02  0.00000000000E+00 0.  1.
<mgrwt>
<rscale>  0 0.15884128E+04</rscale>
<asrwt>0</asrwt>
<pdfrwt beam="1">  1        1 0.61269236E-01 0.15884128E+04</pdfrwt>
<pdfrwt beam="2">  1       -1 0.24366750E+00 0.15884128E+04</pdfrwt>
<totfact> 0.44469714E+00</totfact>
</mgrwt>
</event>
<event>
12    1  0.1663913E-007  0.1191826E+04  0.7818608E-02  0.9120042E-01
         -2   -1    0    0    0  501 -0.00000000000E+00  0.00000000000E+00  0.17608400366E+03  0.17608400366E+03  0.00000000000E+00 0.  1.
          2   -1    0    0  501    0  0.00000000000E+00 -0.00000000000E+00 -0.20167199441E+04  0.20167199441E+04  0.00000000000E+00 0. -1.
         23    2    1    2    0    0 -0.11871008456E+03  0.18344787036E+03 -0.20525179837E+03  0.31414989174E+03  0.93897009708E+02 0.  0.
        254    2    1    2    0    0  0.11871008456E+03 -0.18344787036E+03 -0.16353841420E+04  0.18786540560E+04  0.89839555028E+03 0.  0.
        -24    2    4    4    0    0 -0.20281152208E+03 -0.31239051624E+03 -0.14029117545E+04  0.14536289452E+04  0.78456173557E+02 0.  0.
         24    2    4    4    0    0  0.32152160663E+03  0.12894264589E+03 -0.23247238750E+03  0.42502511079E+03  0.81243980669E+02 0.  0.
         11    1    3    3    0    0 -0.25247115732E+02  0.30871440023E+02 -0.97358667746E+02  0.10521013662E+03  0.00000000000E+00 0. -1.
        -11    1    3    3    0    0 -0.93462968825E+02  0.15257643033E+03 -0.10789313063E+03  0.20893975512E+03  0.00000000000E+00 0.  1.
          4    1    6    6  502    0  0.26456631981E+03  0.11511375107E+03 -0.15391012936E+03  0.32700893135E+03  0.00000000000E+00 0. -1.
          3    1    5    5  503    0 -0.95498415199E+02 -0.20683509152E+03 -0.92085962479E+03  0.94862171120E+03  0.00000000000E+00 0. -1.
         -2    1    5    5    0  503 -0.10731310688E+03 -0.10555542473E+03 -0.48205212975E+03  0.50500723400E+03  0.00000000000E+00 0.  1.
         -3    1    6    6    0  502  0.56955286822E+02  0.13828894815E+02 -0.78562258131E+02  0.98016179438E+02  0.00000000000E+00 0.  1.
<mgrwt>
<rscale>  0 0.11918257E+04</rscale>
<asrwt>0</asrwt>
<pdfrwt beam="1">  1        2 0.31026459E+00 0.11918257E+04</pdfrwt>
<pdfrwt beam="2">  1       -2 0.27089848E-01 0.11918257E+04</pdfrwt>
<totfact> 0.80110207E+01</totfact>
</mgrwt>
</event>
<event>
12    1  0.1663913E-007  0.1845426E+04  0.7818608E-02  0.8682509E-01
         -2   -1    0    0    0  501 -0.00000000000E+00  0.00000000000E+00  0.50526454962E+03  0.50526454962E+03  0.00000000000E+00 0.  1.
          2   -1    0    0  501    0  0.00000000000E+00 -0.00000000000E+00 -0.16850556844E+04  0.16850556844E+04  0.00000000000E+00 0. -1.
         23    2    1    2    0    0  0.41399776087E+03 -0.45462846855E+03 -0.83728590305E+03  0.10427593445E+04  0.90654159712E+02 0.  0.
        254    2    1    2    0    0 -0.41399776087E+03  0.45462846855E+03 -0.34250523174E+03  0.11475608895E+04  0.90636911411E+03 0.  0.
        -24    2    4    4    0    0 -0.66839958499E+03  0.29866579307E+03 -0.39254487809E+03  0.83458721302E+03  0.80529955051E+02 0.  0.
         24    2    4    4    0    0  0.25440182412E+03  0.15596267548E+03  0.50039646351E+02  0.31297367652E+03  0.80024444553E+02 0.  0.
         13    1    3    3    0    0  0.19253866578E+03 -0.27845711044E+03 -0.45405041154E+03  0.56636673313E+03  0.00000000000E+00 0. -1.
        -13    1    3    3    0    0  0.22145909508E+03 -0.17617135811E+03 -0.38323549151E+03  0.47639261137E+03  0.00000000000E+00 0.  1.
          2    1    6    6  502    0  0.22718998870E+03  0.13919373005E+03  0.69753860936E+02  0.27541929229E+03  0.00000000000E+00 0. -1.
          3    1    5    5  503    0 -0.58690154619E+03  0.28103753103E+03 -0.32547619294E+03  0.72757836069E+03  0.00000000000E+00 0. -1.
         -4    1    5    5    0  503 -0.81498038797E+02  0.17628262045E+02 -0.67068685151E+02  0.10700885234E+03  0.00000000000E+00 0.  1.
         -1    1    6    6    0  502  0.27211835426E+02  0.16768945426E+02 -0.19714214585E+02  0.37554384227E+02  0.00000000000E+00 0.  1.
<mgrwt>
<rscale>  0 0.18454256E+04</rscale>
<asrwt>0</asrwt>
<pdfrwt beam="1">  1        2 0.25923933E+00 0.18454256E+04</pdfrwt>
<pdfrwt beam="2">  1       -2 0.77733008E-01 0.18454256E+04</pdfrwt>
<totfact> 0.13863247E+01</totfact>
</mgrwt>
</event>
<event>
12    1  0.1663913E-007  0.2590419E+04  0.7818608E-02  0.8371463E-01
          2   -1    0    0  501    0  0.00000000000E+00  0.00000000000E+00  0.46323153239E+04  0.46323153239E+04  0.00000000000E+00 0. -1.
         -2   -1    0    0    0  501 -0.00000000000E+00 -0.00000000000E+00 -0.36214446157E+03  0.36214446157E+03  0.00000000000E+00 0.  1.
         23    2    1    2    0    0  0.42487494870E+03  0.33822168186E+03  0.38049996798E+04  0.38446239828E+04  0.90544889845E+02 0.  0.
        254    2    1    2    0    0 -0.42487494870E+03 -0.33822168186E+03  0.46517118245E+03  0.11498358027E+04  0.90045850322E+03 0.  0.
        -24    2    4    4    0    0  0.26391742353E+03 -0.21020644765E+03  0.17327565843E+03  0.38703159565E+03  0.77005487791E+02 0.  0.
         24    2    4    4    0    0 -0.68879237223E+03 -0.12801523421E+03  0.29189552402E+03  0.76280420702E+03  0.76448865730E+02 0.  0.
         11    1    3    3    0    0  0.30889180133E+02  0.10553344147E+02  0.39365659106E+03  0.39500762803E+03  0.00000000000E+00 0.  1.
        -11    1    3    3    0    0  0.39398576857E+03  0.32766833771E+03  0.34113430888E+04  0.34496163547E+04  0.00000000000E+00 0. -1.
          2    1    6    6  502    0 -0.68892466069E+03 -0.12549393054E+03  0.29404132391E+03  0.75949076023E+03  0.00000000000E+00 0. -1.
          3    1    5    5  503    0  0.19702699410E+03 -0.17687842136E+03  0.16467041697E+03  0.31180435945E+03  0.00000000000E+00 0. -1.
         -4    1    5    5    0  503  0.66890429435E+02 -0.33328026290E+02  0.86052414654E+01  0.75227236205E+02  0.00000000000E+00 0.  1.
         -1    1    6    6    0  502  0.13228845989E+00 -0.25213036656E+01 -0.21457998955E+01  0.33134467858E+01  0.00000000000E+00 0.  1.
<mgrwt>
<rscale>  0 0.25904188E+04</rscale>
<asrwt>0</asrwt>
<pdfrwt beam="1">  1        2 0.71266386E+00 0.25904188E+04</pdfrwt>
<pdfrwt beam="2">  1       -2 0.55714536E-01 0.25904188E+04</pdfrwt>
<totfact> 0.24369074E-01</totfact>
</mgrwt>
</event>
<event>
12    1  0.1663913E-007  0.1308724E+04  0.7818608E-02  0.9022675E-01
         -2   -1    0    0    0  501 -0.00000000000E+00  0.00000000000E+00  0.24121716139E+03  0.24121716139E+03  0.00000000000E+00 0.  1.
          2   -1    0    0  501    0  0.00000000000E+00 -0.00000000000E+00 -0.17751214111E+04  0.17751214111E+04  0.00000000000E+00 0. -1.
         23    2    1    2    0    0  0.57089729680E+02 -0.31171132120E+03 -0.24348291584E+03  0.40915611649E+03  0.87758830619E+02 0.  0.
        254    2    1    2    0    0 -0.57089729680E+02  0.31171132120E+03 -0.12904213339E+04  0.16071824560E+04  0.90411561373E+03 0.  0.
        -24    2    4    4    0    0 -0.26457839482E+03  0.55656743556E+03 -0.92275104530E+03  0.11127675369E+04  0.83744028242E+02 0.  0.
         24    2    4    4    0    0  0.20748866514E+03 -0.24485611436E+03 -0.36767028860E+03  0.49441491912E+03  0.79111365998E+02 0.  0.
         13    1    3    3    0    0  0.23242348871E+02 -0.15767769781E+03 -0.68177665000E+02  0.17335125374E+03  0.00000000000E+00 0.  1.
        -13    1    3    3    0    0  0.33847380809E+02 -0.15403362339E+03 -0.17530525084E+03  0.23580486274E+03  0.00000000000E+00 0. -1.
          4    1    6    6  502    0  0.16276368737E+03 -0.19602488511E+03 -0.33411821439E+03  0.42018181148E+03  0.00000000000E+00 0. -1.
          1    1    5    5  503    0 -0.12426367178E+03  0.32265855906E+03 -0.45760570553E+03  0.57354423333E+03  0.00000000000E+00 0. -1.
         -2    1    5    5    0  503 -0.14031472304E+03  0.23390887650E+03 -0.46514533977E+03  0.53922330357E+03  0.00000000000E+00 0.  1.
         -3    1    6    6    0  502  0.44724977771E+02 -0.48831229252E+02 -0.33552074206E+02  0.74233107643E+02  0.00000000000E+00 0.  1.
<mgrwt>
<rscale>  0 0.13087242E+04</rscale>
<asrwt>0</asrwt>
<pdfrwt beam="1">  1        2 0.27309560E+00 0.13087242E+04</pdfrwt>
<pdfrwt beam="2">  1       -2 0.37110333E-01 0.13087242E+04</pdfrwt>
<totfact> 0.59722626E+01</totfact>
</mgrwt>
</event>
<event>
12    1  0.1663913E-007  0.1992279E+04  0.7818608E-02  0.8610239E-01
          2   -1    0    0  501    0  0.00000000000E+00  0.00000000000E+00  0.18428720913E+04  0.18428720913E+04  0.00000000000E+00 0. -1.
         -2   -1    0    0    0  501 -0.00000000000E+00 -0.00000000000E+00 -0.53844989144E+03  0.53844989144E+03  0.00000000000E+00 0.  1.
         23    2    1    2    0    0 -0.28331104935E+03 -0.67220361526E+03  0.86686463658E+03  0.11366316079E+04  0.91401657335E+02 0.  0.
        254    2    1    2    0    0  0.28331104935E+03  0.67220361526E+03  0.43755756328E+03  0.12446903748E+04  0.90866641671E+03 0.  0.
        -24    2    4    4    0    0  0.24253044083E+03 -0.17238717572E+03  0.59156437069E+02  0.31488288784E+03  0.84340950458E+02 0.  0.
         24    2    4    4    0    0  0.40780608524E+02  0.84459079098E+03  0.37840112621E+03  0.92980748695E+03  0.79736367074E+02 0.  0.
         13    1    3    3    0    0 -0.17751958656E+03 -0.30558192226E+03  0.40395750150E+03  0.53672635285E+03  0.00000000000E+00 0. -1.
        -13    1    3    3    0    0 -0.10579146279E+03 -0.36662169300E+03  0.46290713509E+03  0.59990525510E+03  0.00000000000E+00 0.  1.
          4    1    6    6  502    0  0.28518100196E+02  0.79834902749E+03  0.37304935765E+03  0.88166902802E+03  0.00000000000E+00 0. -1.
          3    1    5    5  503    0  0.13243370305E+03 -0.14343653196E+03  0.42977596220E+02  0.19989947019E+03  0.00000000000E+00 0. -1.
         -4    1    5    5    0  503  0.11009673777E+03 -0.28950643762E+02  0.16178840849E+02  0.11498341765E+03  0.00000000000E+00 0.  1.
         -3    1    6    6    0  502  0.12262508327E+02  0.46241763498E+02  0.53517685585E+01  0.48138458934E+02  0.00000000000E+00 0.  1.
<mgrwt>
<rscale>  0 0.19922794E+04</rscale>
<asrwt>0</asrwt>
<pdfrwt beam="1">  1        2 0.28351878E+00 0.19922794E+04</pdfrwt>
<pdfrwt beam="2">  1       -2 0.82838445E-01 0.19922794E+04</pdfrwt>
<totfact> 0.97010363E+00</totfact>
</mgrwt>
</event>
<event>
12    1  0.1663913E-007  0.3243954E+04  0.7818608E-02  0.8177305E-01
          2   -1    0    0  501    0  0.00000000000E+00  0.00000000000E+00  0.24170973104E+04  0.24170973104E+04  0.00000000000E+00 0. -1.
         -2   -1    0    0    0  501 -0.00000000000E+00 -0.00000000000E+00 -0.10884165230E+04  0.10884165230E+04  0.00000000000E+00 0.  1.
         23    2    1    2    0    0  0.15128650625E+02  0.19524487459E+03 -0.97939746088E+03  0.10030275527E+04  0.92170754931E+02 0.  0.
        254    2    1    2    0    0 -0.15128650625E+02 -0.19524487459E+03  0.23080782483E+04  0.25024862806E+04  0.94702848283E+03 0.  0.
        -24    2    4    4    0    0 -0.33800058681E+03 -0.27223084706E+02  0.29902938574E+03  0.45911694134E+03  0.79901810165E+02 0.  0.
         24    2    4    4    0    0  0.32287193618E+03 -0.16802178989E+03  0.20090488626E+04  0.20433693393E+04  0.81260786963E+02 0.  0.
         13    1    3    3    0    0 -0.34753019394E+02  0.62055600966E+02 -0.25138854188E+03  0.26125632807E+03  0.00000000000E+00 0. -1.
        -13    1    3    3    0    0  0.49881670018E+02  0.13318927363E+03 -0.72800891900E+03  0.74177122467E+03  0.00000000000E+00 0.  1.
          4    1    6    6  502    0  0.26410583751E+03 -0.98493643667E+02  0.15082965175E+04  0.15344090967E+04  0.00000000000E+00 0. -1.
          3    1    5    5  503    0 -0.29462913897E+03  0.43521408486E+01  0.25631443097E+03  0.39054110947E+03  0.00000000000E+00 0. -1.
         -4    1    5    5    0  503 -0.43371447840E+02 -0.31575225554E+02  0.42714954767E+02  0.68575831875E+02  0.00000000000E+00 0.  1.
         -1    1    6    6    0  502  0.58766098673E+02 -0.69528146219E+02  0.50075234509E+03  0.50896024264E+03  0.00000000000E+00 0.  1.
<mgrwt>
<rscale>  0 0.32439535E+04</rscale>
<asrwt>0</asrwt>
<pdfrwt beam="1">  1        2 0.37186112E+00 0.32439535E+04</pdfrwt>
<pdfrwt beam="2">  1       -2 0.16744870E+00 0.32439535E+04</pdfrwt>
<totfact> 0.72477265E-01</totfact>
</mgrwt>
</event>
<event>
12    1  0.1663913E-007  0.1384712E+04  0.7818608E-02  0.8964960E-01
          2   -1    0    0  501    0  0.00000000000E+00  0.00000000000E+00  0.41442803040E+03  0.41442803040E+03  0.00000000000E+00 0. -1.
         -2   -1    0    0    0  501 -0.00000000000E+00 -0.00000000000E+00 -0.11566702488E+04  0.11566702488E+04  0.00000000000E+00 0.  1.
         23    2    1    2    0    0 -0.25950788075E+03  0.70812126154E+02  0.10794154412E+03  0.30548557053E+03  0.96495385761E+02 0.  0.
        254    2    1    2    0    0  0.25950788075E+03 -0.70812126154E+02 -0.85018376254E+03  0.12656127087E+04  0.89811157489E+03 0.  0.
        -24    2    4    4    0    0  0.26313277597E+03  0.38615125579E+03 -0.45497648912E+03  0.65626189694E+03  0.72968634244E+02 0.  0.
         24    2    4    4    0    0 -0.36248952240E+01 -0.45696338194E+03 -0.39520727341E+03  0.60935081176E+03  0.79315512540E+02 0.  0.
         13    1    3    3    0    0 -0.25088971698E+02 -0.12739211722E+02 -0.10295512701E+02  0.29962336323E+02  0.00000000000E+00 0.  1.
        -13    1    3    3    0    0 -0.23441890905E+03  0.83551337877E+02  0.11823705682E+03  0.27552323420E+03  0.00000000000E+00 0. -1.
          2    1    6    6  502    0 -0.24019662360E+02 -0.43226633876E+02 -0.37967021494E+02  0.62345655640E+02  0.00000000000E+00 0. -1.
          1    1    5    5  503    0  0.15307087039E+03  0.18016936633E+03 -0.19204001020E+03  0.30458341623E+03  0.00000000000E+00 0. -1.
         -2    1    5    5    0  503  0.11006190558E+03  0.20598188946E+03 -0.26293647892E+03  0.35167848071E+03  0.00000000000E+00 0.  1.
         -1    1    6    6    0  502  0.20394767136E+02 -0.41373674806E+03 -0.35724025192E+03  0.54700515612E+03  0.00000000000E+00 0.  1.
<mgrwt>
<rscale>  0 0.13847116E+04</rscale>
<asrwt>0</asrwt>
<pdfrwt beam="1">  1        2 0.63758159E-01 0.13847116E+04</pdfrwt>
<pdfrwt beam="2">  1       -2 0.17794927E+00 0.13847116E+04</pdfrwt>
<totfact> 0.13930043E+01</totfact>
</mgrwt>
</event>
<event>
12    1  0.1663913E-007  0.2345022E+04  0.7818608E-02  0.8460378E-01
         -1   -1    0    0    0  501 -0.00000000000E+00  0.00000000000E+00  0.13969691959E+04  0.13969691959E+04  0.00000000000E+00 0.  1.
          1   -1    0    0  501    0  0.00000000000E+00 -0.00000000000E+00 -0.98411727346E+03  0.98411727346E+03  0.00000000000E+00 0. -1.
         23    2    1    2    0    0 -0.40877867317E+02 -0.22113580363E+03  0.11612360358E+04  0.11862338207E+04  0.90052778422E+02 0.  0.
        254    2    1    2    0    0  0.40877867317E+02  0.22113580363E+03 -0.74838411339E+03  0.11948526486E+04  0.90389270770E+03 0.  0.
        -24    2    4    4    0    0 -0.35845301647E+03  0.10914770153E+03 -0.60506821319E+02  0.38767757233E+03  0.78936929883E+02 0.  0.
         24    2    4    4    0    0  0.39933088378E+03  0.11198810210E+03 -0.68787729207E+03  0.80717507628E+03  0.79686542609E+02 0.  0.
         13    1    3    3    0    0 -0.24651898828E+01 -0.24438805901E+02  0.34043118681E+03  0.34131616626E+03  0.00000000000E+00 0.  1.
        -13    1    3    3    0    0 -0.38412677434E+02 -0.19669699773E+03  0.82080484900E+03  0.84491765448E+03  0.00000000000E+00 0. -1.
          2    1    6    6  502    0  0.91375606798E+02  0.61674993684E+02 -0.18463609607E+03  0.21504370331E+03  0.00000000000E+00 0. -1.
          3    1    5    5  503    0 -0.59219292675E+02  0.10930857779E+01  0.14136153383E+02  0.60892941248E+02  0.00000000000E+00 0. -1.
         -4    1    5    5    0  503 -0.29923372379E+03  0.10805461575E+03 -0.74642974701E+02  0.32678463108E+03  0.00000000000E+00 0.  1.
         -1    1    6    6    0  502  0.30795527698E+03  0.50313108412E+02 -0.50324119600E+03  0.59213137297E+03  0.00000000000E+00 0.  1.
<mgrwt>
<rscale>  0 0.23450215E+04</rscale>
<asrwt>0</asrwt>
<pdfrwt beam="1">  1        1 0.15140266E+00 0.23450215E+04</pdfrwt>
<pdfrwt beam="2">  1       -1 0.21491834E+00 0.23450215E+04</pdfrwt>
<totfact> 0.16693012E+00</totfact>
</mgrwt>
</event>
<event>
12    1  0.1663913E-007  0.2246412E+04  0.7818608E-02  0.8499355E-01
         -2   -1    0    0    0  501 -0.00000000000E+00  0.00000000000E+00  0.98472087773E+03  0.98472087773E+03  0.00000000000E+00 0. -1.
          2   -1    0    0  501    0  0.00000000000E+00 -0.00000000000E+00 -0.12811671017E+04  0.12811671017E+04  0.00000000000E+00 0.  1.
         23    2    1    2    0    0 -0.39543166011E+03  0.77772053904E+03 -0.50316764613E+03  0.10111819659E+04  0.89976960487E+02 0.  0.
        254    2    1    2    0    0  0.39543166011E+03 -0.77772053904E+03  0.20672142219E+03  0.12547060135E+04  0.87768901054E+03 0.  0.
        -24    2    4    4    0    0 -0.16541672322E+03 -0.58299418799E+03 -0.28286408032E+02  0.61186607190E+03  0.79593049393E+02 0.  0.
         24    2    4    4    0    0  0.56084838333E+03 -0.19472635105E+03  0.23500783022E+03  0.64283994158E+03  0.74466431041E+02 0.  0.
         11    1    3    3    0    0 -0.32970857991E+03  0.67008868632E+03 -0.46361239310E+03  0.87901254043E+03  0.00000000000E+00 0.  1.
        -11    1    3    3    0    0 -0.65723080196E+02  0.10763185272E+03 -0.39555253037E+02  0.13216942548E+03  0.00000000000E+00 0. -1.
          2    1    6    6  502    0  0.42265213354E+03 -0.12250504722E+03  0.19820578002E+03  0.48262598751E+03  0.00000000000E+00 0. -1.
          1    1    5    5  503    0 -0.15298914889E+02 -0.18741705544E+03 -0.44959243107E+01  0.18809418598E+03  0.00000000000E+00 0. -1.
         -2    1    5    5    0  503 -0.15011780833E+03 -0.39557713256E+03 -0.23790483721E+02  0.42377188592E+03  0.00000000000E+00 0.  1.
         -1    1    6    6    0  502  0.13819624979E+03 -0.72221303826E+02  0.36802050200E+02  0.16021395408E+03  0.00000000000E+00 0.  1.
<mgrwt>
<rscale>  0 0.22464122E+04</rscale>
<asrwt>0</asrwt>
<pdfrwt beam="1">  1        2 0.19710263E+00 0.22464122E+04</pdfrwt>
<pdfrwt beam="2">  1       -2 0.15149552E+00 0.22464122E+04</pdfrwt>
<totfact> 0.45062786E+00</totfact>
</mgrwt>
</event>
<event>
12    1  0.1663913E-007  0.1012241E+04  0.7818608E-02  0.9295221E-01
          2   -1    0    0  501    0  0.00000000000E+00  0.00000000000E+00  0.12079408418E+04  0.12079408418E+04  0.00000000000E+00 0.  1.
         -2   -1    0    0    0  501 -0.00000000000E+00 -0.00000000000E+00 -0.21206149217E+03  0.21206149217E+03  0.00000000000E+00 0. -1.
         23    2    1    2    0    0  0.48755445281E+02 -0.49423320795E+02  0.17032579699E+03  0.20834480617E+03  0.97861754809E+02 0.  0.
        254    2    1    2    0    0 -0.48755445281E+02  0.49423320795E+02  0.82555355261E+03  0.12116575278E+04  0.88416940588E+03 0.  0.
        -24    2    4    4    0    0 -0.44783225071E+03  0.46162267073E+02  0.29999900128E+03  0.54701343465E+03  0.80867899961E+02 0.  0.
         24    2    4    4    0    0  0.39907680543E+03  0.32610537219E+01  0.52555455132E+03  0.66464409312E+03  0.79191243192E+02 0.  0.
         13    1    3    3    0    0  0.60502029989E+02 -0.16476963266E+02  0.16004008884E+03  0.17188605525E+03  0.00000000000E+00 0.  1.
        -13    1    3    3    0    0 -0.11746584708E+02 -0.32946357529E+02  0.10285708147E+02  0.36458750922E+02  0.00000000000E+00 0. -1.
          2    1    6    6  502    0  0.30862629232E+03 -0.30239163111E+02  0.38958145684E+03  0.49793403862E+03  0.00000000000E+00 0. -1.
          3    1    5    5  503    0 -0.38103849336E+03  0.68139294625E+02  0.25524113048E+03  0.46366079367E+03  0.00000000000E+00 0. -1.
         -4    1    5    5    0  503 -0.66793757346E+02 -0.21977027552E+02  0.44757870802E+02  0.83352640984E+02  0.00000000000E+00 0.  1.
         -1    1    6    6    0  502  0.90450513104E+02  0.33500216832E+02  0.13597309449E+03  0.16671005450E+03  0.00000000000E+00 0.  1.
<mgrwt>
<rscale>  0 0.10122406E+04</rscale>
<asrwt>0</asrwt>
<pdfrwt beam="1">  1        2 0.18583705E+00 0.10122406E+04</pdfrwt>
<pdfrwt beam="2">  1       -2 0.32624846E-01 0.10122406E+04</pdfrwt>
<totfact> 0.16348890E+02</totfact>
</mgrwt>
</event>
<event>
12    1  0.1663913E-007  0.1396397E+04  0.7818608E-02  0.8956431E-01
         -1   -1    0    0    0  501 -0.00000000000E+00  0.00000000000E+00  0.37741749288E+03  0.37741749288E+03  0.00000000000E+00 0.  1.
          1   -1    0    0  501    0  0.00000000000E+00 -0.00000000000E+00 -0.12916223754E+04  0.12916223754E+04  0.00000000000E+00 0. -1.
         23    2    1    2    0    0  0.11579868207E+02  0.21807501286E+03  0.14168535961E+03  0.27547912283E+03  0.90128804511E+02 0.  0.
        254    2    1    2    0    0 -0.11579868207E+02 -0.21807501286E+03 -0.10558902421E+04  0.13935607454E+04  0.88284570749E+03 0.  0.
        -24    2    4    4    0    0  0.19304706100E+03 -0.27734737083E+02  0.76403326904E+02  0.22459324269E+03  0.81044881990E+02 0.  0.
         24    2    4    4    0    0 -0.20462692921E+03 -0.19034027578E+03 -0.11322935690E+04  0.11689675027E+04  0.79339115876E+02 0.  0.
         13    1    3    3    0    0  0.13785536867E+02  0.10383455821E+03  0.11981083260E+03  0.15914236430E+03  0.00000000000E+00 0.  1.
        -13    1    3    3    0    0 -0.22056686596E+01  0.11424045465E+03  0.21874527013E+02  0.11633675853E+03  0.00000000000E+00 0. -1.
          4    1    6    6  502    0 -0.82796220668E+02 -0.40677844406E+02 -0.47746066772E+03  0.48629064395E+03  0.00000000000E+00 0. -1.
          1    1    5    5  503    0  0.93591044013E+01 -0.12230479901E+02 -0.12592749339E+02  0.19893587150E+02  0.00000000000E+00 0. -1.
         -2    1    5    5    0  503  0.18368795660E+03 -0.15504257182E+02  0.88996076242E+02  0.20469965554E+03  0.00000000000E+00 0.  1.
         -3    1    6    6    0  502 -0.12183070854E+03 -0.14966243137E+03 -0.65483290128E+03  0.68267685877E+03  0.00000000000E+00 0.  1.
<mgrwt>
<rscale>  0 0.13963966E+04</rscale>
<asrwt>0</asrwt>
<pdfrwt beam="1">  1        1 0.19871114E+00 0.13963966E+04</pdfrwt>
<pdfrwt beam="2">  1       -1 0.58064228E-01 0.13963966E+04</pdfrwt>
<totfact> 0.26878696E+01</totfact>
</mgrwt>
</event>
<event>
12    1  0.1663913E-007  0.1380714E+04  0.7818608E-02  0.8967898E-01
         -2   -1    0    0    0  501 -0.00000000000E+00  0.00000000000E+00  0.19290142658E+03  0.19290142658E+03  0.00000000000E+00 0. -1.
          2   -1    0    0  501    0  0.00000000000E+00 -0.00000000000E+00 -0.24706546732E+04  0.24706546732E+04  0.00000000000E+00 0.  1.
         23    2    1    2    0    0  0.18148585640E+03 -0.16489800118E+03 -0.12404701524E+04  0.12677475010E+04  0.91044276565E+02 0.  0.
        254    2    1    2    0    0 -0.18148585640E+03  0.16489800118E+03 -0.10372830942E+04  0.13958085988E+04  0.90121970692E+03 0.  0.
        -24    2    4    4    0    0  0.30357023093E+03  0.24752780164E+03 -0.27545982119E+03  0.48536542422E+03  0.79224896684E+02 0.  0.
         24    2    4    4    0    0 -0.48505608733E+03 -0.82629800465E+02 -0.76182327302E+03  0.91044317460E+03  0.80155992100E+02 0.  0.
         11    1    3    3    0    0  0.54253536561E+02 -0.91253092285E+01 -0.38744143990E+03  0.39132797862E+03  0.00000000000E+00 0.  1.
        -11    1    3    3    0    0  0.12723231984E+03 -0.15577269195E+03 -0.85302871254E+03  0.87641952237E+03  0.00000000000E+00 0. -1.
          4    1    6    6  502    0 -0.37186233702E+03 -0.96834630973E+02 -0.59768651795E+03  0.71055451387E+03  0.00000000000E+00 0. -1.
          1    1    5    5  503    0  0.17674418710E+03  0.11996322758E+03 -0.19138036328E+03  0.28680328989E+03  0.00000000000E+00 0. -1.
         -2    1    5    5    0  503  0.12682604383E+03  0.12756457406E+03 -0.84079457906E+02  0.19856213433E+03  0.00000000000E+00 0.  1.
         -3    1    6    6    0  502 -0.11319375031E+03  0.14204830508E+02 -0.16413675507E+03  0.19988866072E+03  0.00000000000E+00 0.  1.
<mgrwt>
<rscale>  0 0.13807140E+04</rscale>
<asrwt>0</asrwt>
<pdfrwt beam="1">  1        2 0.38010066E+00 0.13807140E+04</pdfrwt>
<pdfrwt beam="2">  1       -2 0.29677147E-01 0.13807140E+04</pdfrwt>
<totfact> 0.37052347E+01</totfact>
</mgrwt>
</event>
<event>
12    1  0.1663913E-007  0.1363080E+04  0.7818608E-02  0.8980985E-01
          1   -1    0    0  501    0  0.00000000000E+00  0.00000000000E+00  0.55287445552E+03  0.55287445552E+03  0.00000000000E+00 0. -1.
         -1   -1    0    0    0  501 -0.00000000000E+00 -0.00000000000E+00 -0.84014866495E+03  0.84014866495E+03  0.00000000000E+00 0.  1.
         23    2    1    2    0    0 -0.60979422786E+02  0.16743345037E+03 -0.41714205863E+03  0.46332455704E+03  0.94391195415E+02 0.  0.
        254    2    1    2    0    0  0.60979422786E+02 -0.16743345037E+03  0.12986784920E+03  0.92969856344E+03  0.90317291273E+03 0.  0.
        -24    2    4    4    0    0  0.29653531248E+03  0.50553492950E+02  0.39692281558E+03  0.50464847184E+03  0.81446371366E+02 0.  0.
         24    2    4    4    0    0 -0.23555588970E+03 -0.21798694332E+03 -0.26705496638E+03  0.42505009160E+03  0.79651369525E+02 0.  0.
         11    1    3    3    0    0 -0.64017156169E+02  0.59923859919E+02 -0.13101836199E+03  0.15765429411E+03  0.00000000000E+00 0. -1.
        -11    1    3    3    0    0  0.30377333834E+01  0.10750959045E+03 -0.28612369663E+03  0.30567026293E+03  0.00000000000E+00 0.  1.
          2    1    6    6  502    0 -0.24012233672E+03 -0.20596739006E+03 -0.26347233893E+03  0.41170253307E+03  0.00000000000E+00 0. -1.
          3    1    5    5  503    0  0.17719944904E+03  0.67842390642E+02  0.21969443276E+03  0.29028930138E+03  0.00000000000E+00 0. -1.
         -4    1    5    5    0  503  0.11933586344E+03 -0.17288897692E+02  0.17722838281E+03  0.21435917046E+03  0.00000000000E+00 0.  1.
         -1    1    6    6    0  502  0.45664470181E+01 -0.12019553268E+02 -0.35826274492E+01  0.13347558525E+02  0.00000000000E+00 0.  1.
<mgrwt>
<rscale>  0 0.13630799E+04</rscale>
<asrwt>0</asrwt>
<pdfrwt beam="1">  1        1 0.85057609E-01 0.13630799E+04</pdfrwt>
<pdfrwt beam="2">  1       -1 0.12925364E+00 0.13630799E+04</pdfrwt>
<totfact> 0.19380719E+01</totfact>
</mgrwt>
</event>
<event>
12    1  0.1663913E-007  0.2090499E+04  0.7818608E-02  0.8565440E-01
          1   -1    0    0  501    0  0.00000000000E+00  0.00000000000E+00  0.66707305822E+03  0.66707305822E+03  0.00000000000E+00 0. -1.
         -1   -1    0    0    0  501 -0.00000000000E+00 -0.00000000000E+00 -0.16378211502E+04  0.16378211502E+04  0.00000000000E+00 0.  1.
         23    2    1    2    0    0 -0.36081644172E+03 -0.70539004672E+03 -0.74234093483E+03  0.10896018750E+04  0.91643656549E+02 0.  0.
        254    2    1    2    0    0  0.36081644172E+03  0.70539004672E+03 -0.22840715712E+03  0.12152923334E+04  0.89274968699E+03 0.  0.
        -24    2    4    4    0    0  0.67645783237E+02 -0.13013970631E+03  0.17296179279E+03  0.23989760177E+03  0.78248210349E+02 0.  0.
         24    2    4    4    0    0  0.29317065848E+03  0.83552975303E+03 -0.40136894991E+03  0.97539473165E+03  0.78986362038E+02 0.  0.
         11    1    3    3    0    0 -0.40157118175E+02 -0.38798085333E+02 -0.33643923211E+02  0.65190483467E+02  0.00000000000E+00 0. -1.
        -11    1    3    3    0    0 -0.32065932354E+03 -0.66659196139E+03 -0.70869701162E+03  0.10244113915E+04  0.00000000000E+00 0.  1.
          4    1    6    6  502    0  0.29326535798E+03  0.78406610957E+03 -0.37105898675E+03  0.91566861146E+03  0.00000000000E+00 0. -1.
          3    1    5    5  503    0  0.17695727766E+01 -0.53954249313E+02  0.10599305969E+03  0.11894839683E+03  0.00000000000E+00 0. -1.
         -2    1    5    5    0  503  0.65876210460E+02 -0.76185456995E+02  0.66968733098E+02  0.12094920494E+03  0.00000000000E+00 0.  1.
         -3    1    6    6    0  502 -0.94699500585E-01  0.51463643462E+02 -0.30309963154E+02  0.59726120188E+02  0.00000000000E+00 0.  1.
<mgrwt>
<rscale>  0 0.20904989E+04</rscale>
<asrwt>0</asrwt>
<pdfrwt beam="1">  1        1 0.10262663E+00 0.20904989E+04</pdfrwt>
<pdfrwt beam="2">  1       -1 0.25197248E+00 0.20904989E+04</pdfrwt>
<totfact> 0.18252993E+00</totfact>
</mgrwt>
</event>
<event>
12    1  0.1663913E-007  0.2326291E+04  0.7818608E-02  0.8467626E-01
          1   -1    0    0  501    0  0.00000000000E+00  0.00000000000E+00  0.13109795537E+04  0.13109795537E+04  0.00000000000E+00 0. -1.
         -1   -1    0    0    0  501 -0.00000000000E+00 -0.00000000000E+00 -0.10319821539E+04  0.10319821539E+04  0.00000000000E+00 0.  1.
         23    2    1    2    0    0  0.58515082387E+03 -0.72118021377E+03 -0.21492095070E+03  0.95758369431E+03  0.90956743282E+02 0.  0.
        254    2    1    2    0    0 -0.58515082387E+03  0.72118021377E+03  0.49391835052E+03  0.13853780134E+04  0.90156226380E+03 0.  0.
        -24    2    4    4    0    0  0.38001951681E+02  0.64849293114E+03  0.31774811901E+03  0.72809685299E+03  0.84699056257E+02 0.  0.
         24    2    4    4    0    0 -0.62315277555E+03  0.72687282635E+02  0.17617023151E+03  0.65728116037E+03  0.85905474635E+02 0.  0.
         13    1    3    3    0    0  0.47062119785E+03 -0.59370166888E+03 -0.13945841698E+03  0.77033410515E+03  0.00000000000E+00 0.  1.
        -13    1    3    3    0    0  0.11452962602E+03 -0.12747854489E+03 -0.75462533719E+02  0.18724958916E+03  0.00000000000E+00 0. -1.
          2    1    6    6  502    0 -0.95814835393E+02  0.36967444943E+02  0.97827224699E+01  0.10316383245E+03  0.00000000000E+00 0. -1.
          1    1    5    5  503    0 -0.75519276084E+01  0.45118876413E+03  0.24074514656E+03  0.51145533342E+03  0.00000000000E+00 0. -1.
         -2    1    5    5    0  503  0.45553879289E+02  0.19730416700E+03  0.77002972456E+02  0.21664151957E+03  0.00000000000E+00 0.  1.
         -1    1    6    6    0  502 -0.52733794016E+03  0.35719837691E+02  0.16638750904E+03  0.55411732792E+03  0.00000000000E+00 0.  1.
<mgrwt>
<rscale>  0 0.23262910E+04</rscale>
<asrwt>0</asrwt>
<pdfrwt beam="1">  1        1 0.20168916E+00 0.23262910E+04</pdfrwt>
<pdfrwt beam="2">  1       -1 0.15876648E+00 0.23262910E+04</pdfrwt>
<totfact> 0.23925607E+00</totfact>
</mgrwt>
</event>
<event>
12    1  0.1663913E-007  0.1151685E+04  0.7818608E-02  0.9156230E-01
         -1   -1    0    0    0  501 -0.00000000000E+00  0.00000000000E+00  0.59026548510E+03  0.59026548510E+03  0.00000000000E+00 0.  1.
          1   -1    0    0  501    0  0.00000000000E+00 -0.00000000000E+00 -0.56177194007E+03  0.56177194007E+03  0.00000000000E+00 0. -1.
         23    2    1    2    0    0 -0.25432211701E+02 -0.10090003243E+03 -0.17172668475E+03  0.22169593860E+03  0.93975640460E+02 0.  0.
        254    2    1    2    0    0  0.25432211701E+02  0.10090003243E+03  0.20022022979E+03  0.93034148657E+03  0.90256275531E+03 0.  0.
        -24    2    4    4    0    0  0.27264911757E+03  0.41180537114E+03  0.79933534036E+02  0.50782811002E+03  0.87056386624E+02 0.  0.
         24    2    4    4    0    0 -0.24721690587E+03 -0.31090533871E+03  0.12028669575E+03  0.42251337654E+03  0.79185453183E+02 0.  0.
         13    1    3    3    0    0 -0.13464979119E+02  0.13586506474E+02 -0.62574304481E+01  0.20125959770E+02  0.00000000000E+00 0.  1.
        -13    1    3    3    0    0 -0.11967232581E+02 -0.11448653891E+03 -0.16546925431E+03  0.20156997883E+03  0.00000000000E+00 0. -1.
          4    1    6    6  502    0 -0.24654735430E+03 -0.30924878092E+03  0.12713803237E+03  0.41543288952E+03  0.00000000000E+00 0. -1.
          1    1    5    5  503    0  0.25673012913E+03  0.40715862988E+03  0.88110673868E+02  0.48933832870E+03  0.00000000000E+00 0. -1.
         -2    1    5    5    0  503  0.15918988444E+02  0.46467412613E+01 -0.81771398323E+01  0.18489781320E+02  0.00000000000E+00 0.  1.
         -3    1    6    6    0  502 -0.66955156639E+00 -0.16565577887E+01 -0.68513366230E+01  0.70804870262E+01  0.00000000000E+00 0.  1.
<mgrwt>
<rscale>  0 0.11516850E+04</rscale>
<asrwt>0</asrwt>
<pdfrwt beam="1">  1        1 0.86426452E-01 0.11516850E+04</pdfrwt>
<pdfrwt beam="2">  1       -1 0.90810075E-01 0.11516850E+04</pdfrwt>
<totfact> 0.44293295E+01</totfact>
</mgrwt>
</event>
<event>
12    1  0.1663913E-007  0.1020751E+04  0.7818608E-02  0.9286074E-01
         -2   -1    0    0    0  501 -0.00000000000E+00  0.00000000000E+00  0.14888655236E+03  0.14888655236E+03  0.00000000000E+00 0. -1.
          2   -1    0    0  501    0  0.00000000000E+00 -0.00000000000E+00 -0.17495399049E+04  0.17495399049E+04  0.00000000000E+00 0.  1.
         23    2    1    2    0    0  0.43980687378E+02  0.77557963555E+01 -0.66497364621E+02  0.11807723426E+03  0.86751832890E+02 0.  0.
        254    2    1    2    0    0 -0.43980687378E+02 -0.77557963555E+01 -0.15341559879E+04  0.17803492230E+04  0.90222741439E+03 0.  0.
        -24    2    4    4    0    0  0.25422608343E+03 -0.34405621620E+03 -0.61229349481E+03  0.75158850352E+03  0.83524687567E+02 0.  0.
         24    2    4    4    0    0 -0.29820677080E+03  0.33630041984E+03 -0.92186249307E+03  0.10287607194E+04  0.80578602507E+02 0.  0.
         11    1    3    3    0    0 -0.17688142203E+01  0.35706401941E+02 -0.43706056673E+01  0.36016357912E+02  0.00000000000E+00 0.  1.
        -11    1    3    3    0    0  0.45749501598E+02 -0.27950605586E+02 -0.62126758953E+02  0.82060876349E+02  0.00000000000E+00 0. -1.
          4    1    6    6  502    0 -0.14630161486E+02  0.30099467646E+02 -0.34024904758E+02  0.47725399123E+02  0.00000000000E+00 0. -1.
          3    1    5    5  503    0  0.16784878583E+03 -0.17558170853E+03 -0.29537516231E+03  0.38242468250E+03  0.00000000000E+00 0. -1.
         -4    1    5    5    0  503  0.86377297598E+02 -0.16847450767E+03 -0.31691833250E+03  0.36916382102E+03  0.00000000000E+00 0.  1.
         -3    1    6    6    0  502 -0.28357660932E+03  0.30620095220E+03 -0.88783758831E+03  0.98103532031E+03  0.00000000000E+00 0.  1.
<mgrwt>
<rscale>  0 0.10207506E+04</rscale>
<asrwt>0</asrwt>
<pdfrwt beam="1">  1        2 0.26915997E+00 0.10207506E+04</pdfrwt>
<pdfrwt beam="2">  1       -2 0.22905624E-01 0.10207506E+04</pdfrwt>
<totfact> 0.15430891E+02</totfact>
</mgrwt>
</event>
<event>
12    1  0.1663913E-007  0.1309587E+04  0.7818608E-02  0.9021997E-01
          1   -1    0    0  501    0  0.00000000000E+00  0.00000000000E+00  0.77262094057E+03  0.77262094057E+03  0.00000000000E+00 0. -1.
         -1   -1    0    0    0  501 -0.00000000000E+00 -0.00000000000E+00 -0.55493492682E+03  0.55493492682E+03  0.00000000000E+00 0.  1.
         23    2    1    2    0    0 -0.13490905042E+03 -0.22446651100E+02  0.33634414488E+03  0.37839358820E+03  0.10653647152E+03 0.  0.
        254    2    1    2    0    0  0.13490905042E+03  0.22446651100E+02 -0.11865813113E+03  0.94916227919E+03  0.93173224486E+03 0.  0.
        -24    2    4    4    0    0  0.16249470748E+03  0.43884107047E+03 -0.20311453604E+03  0.51605305677E+03  0.77905247325E+02 0.  0.
         24    2    4    4    0    0 -0.27585657059E+02 -0.41639441937E+03  0.84456404913E+02  0.43310922242E+03  0.79406758282E+02 0.  0.
         13    1    3    3    0    0 -0.11698147135E+03 -0.39740782900E+02  0.33045795375E+03  0.35279803523E+03  0.00000000000E+00 0. -1.
        -13    1    3    3    0    0 -0.17927579064E+02  0.17294131800E+02  0.58861911336E+01  0.25595552971E+02  0.00000000000E+00 0.  1.
          4    1    6    6  502    0 -0.14772179058E+02 -0.40769548562E+03  0.74533283693E+02  0.41471560936E+03  0.00000000000E+00 0. -1.
          1    1    5    5  503    0  0.77481861269E+02  0.31354036612E+03 -0.13981318117E+03  0.35193568395E+03  0.00000000000E+00 0. -1.
         -2    1    5    5    0  503  0.85012846208E+02  0.12530070435E+03 -0.63301354871E+02  0.16411737281E+03  0.00000000000E+00 0.  1.
         -3    1    6    6    0  502 -0.12813478001E+02 -0.86989337518E+01  0.99231212191E+01  0.18393613066E+02  0.00000000000E+00 0.  1.
<mgrwt>
<rscale>  0 0.13095867E+04</rscale>
<asrwt>0</asrwt>
<pdfrwt beam="1">  1        1 0.11886476E+00 0.13095867E+04</pdfrwt>
<pdfrwt beam="2">  1       -1 0.85374604E-01 0.13095867E+04</pdfrwt>
<totfact> 0.31134062E+01</totfact>
</mgrwt>
</event>
<event>
12    1  0.1663913E-007  0.1463894E+04  0.7818608E-02  0.8908824E-01
         -1   -1    0    0    0  501 -0.00000000000E+00  0.00000000000E+00  0.81827706435E+03  0.81827706435E+03  0.00000000000E+00 0.  1.
          1   -1    0    0  501    0  0.00000000000E+00 -0.00000000000E+00 -0.65472529125E+03  0.65472529125E+03  0.00000000000E+00 0. -1.
         23    2    1    2    0    0  0.27056650248E+03  0.13382775840E+03 -0.20690846830E+03  0.37746661892E+03  0.92486934006E+02 0.  0.
        254    2    1    2    0    0 -0.27056650248E+03 -0.13382775840E+03  0.37046024140E+03  0.10955357367E+04  0.98582029736E+03 0.  0.
        -24    2    4    4    0    0  0.89368187718E+02  0.34282371403E+03 -0.41286597394E+02  0.36574417532E+03  0.80928652410E+02 0.  0.
         24    2    4    4    0    0 -0.35993469020E+03 -0.47665147243E+03  0.41174683879E+03  0.72979156135E+03  0.79439639839E+02 0.  0.
         13    1    3    3    0    0  0.17996074885E+03  0.13145709017E+03 -0.16671435621E+03  0.27831729060E+03  0.00000000000E+00 0. -1.
        -13    1    3    3    0    0  0.90605753634E+02  0.23706682311E+01 -0.40194112090E+02  0.99149328319E+02  0.00000000000E+00 0.  1.
          4    1    6    6  502    0 -0.65608094185E+02 -0.43451593508E+02  0.58865435384E+02  0.98273101528E+02  0.00000000000E+00 0. -1.
          1    1    5    5  503    0  0.88123497223E+02  0.18808782832E+03 -0.10522236510E+02  0.20797475661E+03  0.00000000000E+00 0. -1.
         -2    1    5    5    0  503  0.12446904944E+01  0.15473588571E+03 -0.30764360884E+02  0.15776941872E+03  0.00000000000E+00 0.  1.
         -3    1    6    6    0  502 -0.29432659602E+03 -0.43319987892E+03  0.35288140341E+03  0.63151845982E+03  0.00000000000E+00 0.  1.
<mgrwt>
<rscale>  0 0.14638944E+04</rscale>
<asrwt>0</asrwt>
<pdfrwt beam="1">  1        1 0.10072697E+00 0.14638944E+04</pdfrwt>
<pdfrwt beam="2">  1       -1 0.12588878E+00 0.14638944E+04</pdfrwt>
<totfact> 0.16076564E+01</totfact>
</mgrwt>
</event>
<event>
12    1  0.1663913E-007  0.1682196E+04  0.7818608E-02  0.8771584E-01
          1   -1    0    0  501    0  0.00000000000E+00  0.00000000000E+00  0.85367678216E+03  0.85367678216E+03  0.00000000000E+00 0. -1.
         -1   -1    0    0    0  501 -0.00000000000E+00 -0.00000000000E+00 -0.82870442628E+03  0.82870442628E+03  0.00000000000E+00 0.  1.
         23    2    1    2    0    0 -0.41709987465E+03  0.33004569736E+03 -0.26317160795E+03  0.60057121622E+03  0.92325634280E+02 0.  0.
        254    2    1    2    0    0  0.41709987465E+03 -0.33004569736E+03  0.28814396383E+03  0.10818099922E+04  0.89687426521E+03 0.  0.
        -24    2    4    4    0    0  0.28231854357E+03  0.14288991156E+03 -0.20120821108E+03  0.38372563933E+03  0.81482115864E+02 0.  0.
         24    2    4    4    0    0  0.13478133108E+03 -0.47293560892E+03  0.48935217491E+03  0.69808435289E+03  0.77602289160E+02 0.  0.
         11    1    3    3    0    0 -0.40735881910E+01  0.23268123161E+02 -0.23383814431E+01  0.23737474675E+02  0.00000000000E+00 0. -1.
        -11    1    3    3    0    0 -0.41302628645E+03  0.30677757420E+03 -0.26083322651E+03  0.57683374155E+03  0.00000000000E+00 0.  1.
          4    1    6    6  502    0  0.11437447244E+03 -0.34899001449E+03  0.40531467777E+03  0.54695112960E+03  0.00000000000E+00 0. -1.
          3    1    5    5  503    0  0.33710969067E+02  0.13613444673E+02 -0.59480661807E+02  0.69711580389E+02  0.00000000000E+00 0. -1.
         -4    1    5    5    0  503  0.24860757450E+03  0.12927646688E+03 -0.14172754927E+03  0.31401405894E+03  0.00000000000E+00 0.  1.
         -3    1    6    6    0  502  0.20406858633E+02 -0.12394559443E+03  0.84037497140E+02  0.15113322329E+03  0.00000000000E+00 0.  1.
<mgrwt>
<rscale>  0 0.16821959E+04</rscale>
<asrwt>0</asrwt>
<pdfrwt beam="1">  1        1 0.13133489E+00 0.16821959E+04</pdfrwt>
<pdfrwt beam="2">  1       -1 0.12749299E+00 0.16821959E+04</pdfrwt>
<totfact> 0.10096470E+01</totfact>
</mgrwt>
</event>
<event>
12    1  0.1663913E-007  0.2246792E+04  0.7818608E-02  0.8499201E-01
          2   -1    0    0  501    0  0.00000000000E+00  0.00000000000E+00  0.90347830457E+03  0.90347830457E+03  0.00000000000E+00 0. -1.
         -2   -1    0    0    0  501 -0.00000000000E+00 -0.00000000000E+00 -0.13968446429E+04  0.13968446429E+04  0.00000000000E+00 0.  1.
         23    2    1    2    0    0 -0.98626242573E+02 -0.87097011452E+03  0.13264292801E+03  0.89132562671E+03  0.92472430336E+02 0.  0.
        254    2    1    2    0    0  0.98626242573E+02  0.87097011452E+03 -0.62600926631E+03  0.14089973207E+04  0.90833351375E+03 0.  0.
        -24    2    4    4    0    0 -0.23590338095E+03  0.71730236357E+03 -0.10603183438E+03  0.76692251822E+03  0.82184628332E+02 0.  0.
         24    2    4    4    0    0  0.33452962352E+03  0.15366775095E+03 -0.51997743193E+03  0.64207480250E+03  0.79747574256E+02 0.  0.
         13    1    3    3    0    0  0.11200754245E+01 -0.12127470848E+03 -0.99932678768E+01  0.12169089895E+03  0.00000000000E+00 0.  1.
        -13    1    3    3    0    0 -0.99746317998E+02 -0.74969540604E+03  0.14263619589E+03  0.76963472776E+03  0.00000000000E+00 0. -1.
          4    1    6    6  502    0  0.25642656391E+03  0.14077472759E+03 -0.36240045465E+03  0.46573189297E+03  0.00000000000E+00 0. -1.
          1    1    5    5  503    0 -0.32034320011E+02  0.56841324626E+02 -0.29108278473E+02  0.71445263800E+02  0.00000000000E+00 0. -1.
         -2    1    5    5    0  503 -0.20386906094E+03  0.66046103894E+03 -0.76923555909E+02  0.69547725442E+03  0.00000000000E+00 0.  1.
         -3    1    6    6    0  502  0.78103059613E+02  0.12893023367E+02 -0.15757697728E+03  0.17634290953E+03  0.00000000000E+00 0.  1.
<mgrwt>
<rscale>  0 0.22467922E+04</rscale>
<asrwt>0</asrwt>
<pdfrwt beam="1">  1        2 0.13899666E+00 0.22467922E+04</pdfrwt>
<pdfrwt beam="2">  1       -2 0.21489918E+00 0.22467922E+04</pdfrwt>
<totfact> 0.28273861E+00</totfact>
</mgrwt>
</event>
<event>
12    1  0.1663913E-007  0.1623884E+04  0.7818608E-02  0.8806008E-01
          2   -1    0    0  501    0  0.00000000000E+00  0.00000000000E+00  0.18085582178E+04  0.18085582178E+04  0.00000000000E+00 0. -1.
         -2   -1    0    0    0  501 -0.00000000000E+00 -0.00000000000E+00 -0.36451698620E+03  0.36451698620E+03  0.00000000000E+00 0.  1.
         23    2    1    2    0    0 -0.17471430019E+03 -0.42650043818E+03  0.93588424224E+03  0.10483065009E+04  0.10314792525E+03 0.  0.
        254    2    1    2    0    0  0.17471430019E+03  0.42650043818E+03  0.50815698932E+03  0.11247687031E+04  0.89132115378E+03 0.  0.
        -24    2    4    4    0    0  0.16416721903E+03 -0.73148264213E+02 -0.18182724193E+03  0.26912310155E+03  0.84050898370E+02 0.  0.
         24    2    4    4    0    0  0.10547081160E+02  0.49964870239E+03  0.68998423125E+03  0.85564560153E+03  0.79316387405E+02 0.  0.
         11    1    3    3    0    0 -0.12344305369E+00  0.22844460502E+01 -0.15627670330E+01  0.27705906849E+01  0.00000000000E+00 0.  1.
        -11    1    3    3    0    0 -0.17459085714E+03 -0.42878488423E+03  0.93744700927E+03  0.10455359102E+04  0.00000000000E+00 0. -1.
          4    1    6    6  502    0 -0.30949157248E+02  0.30404277901E+03  0.39947844704E+03  0.50297404650E+03  0.00000000000E+00 0. -1.
          3    1    5    5  503    0  0.11653081366E+03 -0.84580638074E+02 -0.10580716384E+03  0.17868539613E+03  0.00000000000E+00 0. -1.
         -4    1    5    5    0  503  0.47636405370E+02  0.11432373862E+02 -0.76020078092E+02  0.90437705420E+02  0.00000000000E+00 0.  1.
         -3    1    6    6    0  502  0.41496238408E+02  0.19560592338E+03  0.29050578421E+03  0.35267155503E+03  0.00000000000E+00 0.  1.
<mgrwt>
<rscale>  0 0.16238845E+04</rscale>
<asrwt>0</asrwt>
<pdfrwt beam="1">  1        2 0.27823972E+00 0.16238845E+04</pdfrwt>
<pdfrwt beam="2">  1       -2 0.56079538E-01 0.16238845E+04</pdfrwt>
<totfact> 0.24388050E+01</totfact>
</mgrwt>
</event>
<event>
12    1  0.1663913E-007  0.2382502E+04  0.7818608E-02  0.8446084E-01
         -2   -1    0    0    0  501 -0.00000000000E+00  0.00000000000E+00  0.15502414829E+04  0.15502414829E+04  0.00000000000E+00 0.  1.
          2   -1    0    0  501    0  0.00000000000E+00 -0.00000000000E+00 -0.91539222086E+03  0.91539222086E+03  0.00000000000E+00 0. -1.
         23    2    1    2    0    0  0.75597540173E+02 -0.13878326437E+02  0.13275949783E+04  0.13329511784E+04  0.91339046369E+02 0.  0.
        254    2    1    2    0    0 -0.75597540173E+02  0.13878326437E+02 -0.69274571635E+03  0.11326825253E+04  0.89284123989E+03 0.  0.
        -24    2    4    4    0    0  0.28579569619E+03 -0.86696635574E+02 -0.68243411964E+03  0.74915075998E+03  0.79467269685E+02 0.  0.
         24    2    4    4    0    0 -0.36139323636E+03  0.10057496201E+03 -0.10311596706E+02  0.38353176535E+03  0.79182647952E+02 0.  0.
         13    1    3    3    0    0  0.31630096233E+02 -0.19664771560E+01  0.10921729399E+03  0.11372223761E+03  0.00000000000E+00 0. -1.
        -13    1    3    3    0    0  0.43967443940E+02 -0.11911849281E+02  0.12183776844E+04  0.12192289408E+04  0.00000000000E+00 0.  1.
          2    1    6    6  502    0 -0.63620408110E+01  0.17137898576E+02  0.32900218850E+01  0.18574374145E+02  0.00000000000E+00 0. -1.
          1    1    5    5  503    0  0.11055063128E+03 -0.41275367685E+02 -0.18131658016E+03  0.21633492620E+03  0.00000000000E+00 0. -1.
         -2    1    5    5    0  503  0.17524506491E+03 -0.45421267889E+02 -0.50111753948E+03  0.53281583378E+03  0.00000000000E+00 0.  1.
         -1    1    6    6    0  502 -0.35503119555E+03  0.83437063435E+02 -0.13601618591E+02  0.36495739121E+03  0.00000000000E+00 0.  1.
<mgrwt>
<rscale>  0 0.23825020E+04</rscale>
<asrwt>0</asrwt>
<pdfrwt beam="1">  1        2 0.14082957E+00 0.23825020E+04</pdfrwt>
<pdfrwt beam="2">  1       -2 0.23849869E+00 0.23825020E+04</pdfrwt>
<totfact> 0.19506983E+00</totfact>
</mgrwt>
</event>
<event>
12    1  0.1663913E-007  0.1161808E+04  0.7818608E-02  0.9146959E-01
          1   -1    0    0  501    0  0.00000000000E+00  0.00000000000E+00  0.11309544782E+04  0.11309544782E+04  0.00000000000E+00 0. -1.
         -1   -1    0    0    0  501 -0.00000000000E+00 -0.00000000000E+00 -0.29837569306E+03  0.29837569306E+03  0.00000000000E+00 0.  1.
         23    2    1    2    0    0 -0.14297899749E+03  0.19166926870E+02 -0.39213002088E+02  0.17393942962E+03  0.88920755920E+02 0.  0.
        254    2    1    2    0    0  0.14297899749E+03 -0.19166926870E+02  0.87179178721E+03  0.12553907416E+04  0.89172564677E+03 0.  0.
        -24    2    4    4    0    0  0.71626280901E+02  0.42405677795E+02  0.10382066264E+04  0.10446498357E+04  0.80571176881E+02 0.  0.
         24    2    4    4    0    0  0.71352716590E+02 -0.61572604664E+02 -0.16641483914E+03  0.21074090596E+03  0.88517992216E+02 0.  0.
         13    1    3    3    0    0 -0.12931738696E+03  0.47080106928E+02 -0.38291277545E+02  0.14284867859E+03  0.00000000000E+00 0.  1.
        -13    1    3    3    0    0 -0.13661610530E+02 -0.27913180059E+02 -0.92172454378E+00  0.31090751027E+02  0.00000000000E+00 0. -1.
          2    1    6    6  502    0 -0.55825875789E+01 -0.45511614379E+02 -0.35268254986E+02  0.57847403894E+02  0.00000000000E+00 0. -1.
          3    1    5    5  503    0  0.21753923254E+01  0.24088526216E+02  0.75767520877E+02  0.79534311130E+02  0.00000000000E+00 0. -1.
         -4    1    5    5    0  503  0.69450888576E+02  0.18317151579E+02  0.96243910548E+03  0.96511552455E+03  0.00000000000E+00 0.  1.
         -1    1    6    6    0  502  0.76935304169E+02 -0.16060990285E+02 -0.13114658416E+03  0.15289350206E+03  0.00000000000E+00 0.  1.
<mgrwt>
<rscale>  0 0.11618078E+04</rscale>
<asrwt>0</asrwt>
<pdfrwt beam="1">  1        1 0.17399299E+00 0.11618078E+04</pdfrwt>
<pdfrwt beam="2">  1       -1 0.45903953E-01 0.11618078E+04</pdfrwt>
<totfact> 0.56248460E+01</totfact>
</mgrwt>
</event>
<event>
12    1  0.1663913E-007  0.2692618E+04  0.7818608E-02  0.8337404E-01
          3   -1    0    0  501    0  0.00000000000E+00  0.00000000000E+00  0.41373496077E+04  0.41373496077E+04  0.00000000000E+00 0. -1.
         -3   -1    0    0    0  501 -0.00000000000E+00 -0.00000000000E+00 -0.43809383051E+03  0.43809383051E+03  0.00000000000E+00 0.  1.
         23    2    1    2    0    0 -0.35363587103E+03  0.10220386954E+04  0.77475186931E+03  0.13334493853E+04  0.90693880292E+02 0.  0.
        254    2    1    2    0    0  0.35363587103E+03 -0.10220386954E+04  0.29245039079E+04  0.32419940530E+04  0.88779553278E+03 0.  0.
        -24    2    4    4    0    0 -0.10311212076E+03 -0.69221246799E+03  0.22589285849E+04  0.23662540199E+04  0.81298983563E+02 0.  0.
         24    2    4    4    0    0  0.45674799179E+03 -0.32982622738E+03  0.66557532296E+03  0.87574003303E+03  0.80783826608E+02 0.  0.
         13    1    3    3    0    0 -0.43478234355E+02  0.17257462749E+03  0.16566470133E+03  0.24314019039E+03  0.00000000000E+00 0. -1.
        -13    1    3    3    0    0 -0.31015763668E+03  0.84946406789E+03  0.60908716798E+03  0.10903091949E+04  0.00000000000E+00 0.  1.
          2    1    6    6  502    0  0.39226243193E+03 -0.24627566639E+03  0.55515389659E+03  0.72299195588E+03  0.00000000000E+00 0. -1.
          1    1    5    5  503    0 -0.15261351240E+02 -0.47329296480E+02  0.10571717776E+03  0.11682933202E+03  0.00000000000E+00 0. -1.
         -2    1    5    5    0  503 -0.87850769518E+02 -0.64488317151E+03  0.21532114072E+04  0.22494246879E+04  0.00000000000E+00 0.  1.
         -1    1    6    6    0  502  0.64485559861E+02 -0.83550560995E+02  0.11042142637E+03  0.15274807715E+03  0.00000000000E+00 0.  1.
<mgrwt>
<rscale>  0 0.26926176E+04</rscale>
<asrwt>0</asrwt>
<pdfrwt beam="1">  1        3 0.63651530E+00 0.26926176E+04</pdfrwt>
<pdfrwt beam="2">  1       -3 0.67399053E-01 0.26926176E+04</pdfrwt>
<totfact> 0.35893481E-03</totfact>
</mgrwt>
</event>
<event>
12    1  0.1663913E-007  0.2720210E+04  0.7818608E-02  0.8328477E-01
         -2   -1    0    0    0  501 -0.00000000000E+00  0.00000000000E+00  0.15662639690E+04  0.15662639690E+04  0.00000000000E+00 0. -1.
          2   -1    0    0  501    0  0.00000000000E+00 -0.00000000000E+00 -0.11810815744E+04  0.11810815744E+04  0.00000000000E+00 0.  1.
         23    2    1    2    0    0 -0.47972456704E+03  0.26654584010E+03  0.12630790861E+04  0.13801990629E+04  0.91642406016E+02 0.  0.
        254    2    1    2    0    0  0.47972456704E+03 -0.26654584010E+03 -0.87789669139E+03  0.13671464805E+04  0.89286312125E+03 0.  0.
        -24    2    4    4    0    0  0.45630009585E+03 -0.29011405125E+02 -0.98938054726E+03  0.10924095317E+04  0.73710775611E+02 0.  0.
         24    2    4    4    0    0  0.23424471189E+02 -0.23753443498E+03  0.11148385587E+03  0.27473694885E+03  0.77977094667E+02 0.  0.
         13    1    3    3    0    0 -0.24062691559E+03  0.11105911636E+03  0.71131203391E+03  0.75907855287E+03  0.00000000000E+00 0. -1.
        -13    1    3    3    0    0 -0.23909765145E+03  0.15548672374E+03  0.55176705214E+03  0.62112051006E+03  0.00000000000E+00 0.  1.
          2    1    6    6  502    0 -0.17237203534E+02 -0.13838016710E+02  0.19487304273E+02  0.29468066105E+02  0.00000000000E+00 0. -1.
          1    1    5    5  503    0  0.16224525947E+03 -0.39799153365E+02 -0.40583306770E+03  0.43887125182E+03  0.00000000000E+00 0. -1.
         -2    1    5    5    0  503  0.29405483638E+03  0.10787748239E+02 -0.58354747956E+03  0.65353827983E+03  0.00000000000E+00 0.  1.
         -1    1    6    6    0  502  0.40661674723E+02 -0.22369641826E+03  0.91996551597E+02  0.24526888274E+03  0.00000000000E+00 0.  1.
<mgrwt>
<rscale>  0 0.27202099E+04</rscale>
<asrwt>0</asrwt>
<pdfrwt beam="1">  1        2 0.18170486E+00 0.27202099E+04</pdfrwt>
<pdfrwt beam="2">  1       -2 0.24096369E+00 0.27202099E+04</pdfrwt>
<totfact> 0.12441608E+00</totfact>
</mgrwt>
</event>
<event>
12    1  0.1663913E-007  0.1633540E+04  0.7818608E-02  0.8800204E-01
          1   -1    0    0  501    0  0.00000000000E+00  0.00000000000E+00  0.96851119343E+03  0.96851119343E+03  0.00000000000E+00 0. -1.
         -1   -1    0    0    0  501 -0.00000000000E+00 -0.00000000000E+00 -0.68880280069E+03  0.68880280069E+03  0.00000000000E+00 0.  1.
         23    2    1    2    0    0 -0.45374971943E+03 -0.34969208930E+03  0.53372066540E+02  0.58252803997E+03  0.91197448768E+02 0.  0.
        254    2    1    2    0    0  0.45374971943E+03  0.34969208930E+03  0.22633632620E+03  0.10747859541E+04  0.88077428974E+03 0.  0.
        -24    2    4    4    0    0  0.38562049333E+03 -0.16734918161E+03  0.32601742497E+03  0.53786448153E+03  0.79384668857E+02 0.  0.
         24    2    4    4    0    0  0.68129226106E+02  0.51704127090E+03 -0.99681098774E+02  0.53692147261E+03  0.79844092032E+02 0.  0.
         11    1    3    3    0    0 -0.35266432094E+03 -0.31522334914E+03  0.36660371057E+02  0.47442793542E+03  0.00000000000E+00 0.  1.
        -11    1    3    3    0    0 -0.10108539850E+03 -0.34468740163E+02  0.16711695483E+02  0.10810010455E+03  0.00000000000E+00 0. -1.
          4    1    6    6  502    0  0.48948860649E+02  0.11511407823E+03 -0.18907690891E+02  0.12650985234E+03  0.00000000000E+00 0. -1.
          3    1    5    5  503    0  0.13450940845E+03 -0.19396153329E+02  0.92430331523E+02  0.16435436687E+03  0.00000000000E+00 0. -1.
         -4    1    5    5    0  503  0.25111108488E+03 -0.14795302828E+03  0.23358709345E+03  0.37351011466E+03  0.00000000000E+00 0.  1.
         -3    1    6    6    0  502  0.19180365457E+02  0.40192719268E+03 -0.80773407883E+02  0.41041162027E+03  0.00000000000E+00 0.  1.
<mgrwt>
<rscale>  0 0.16335400E+04</rscale>
<asrwt>0</asrwt>
<pdfrwt beam="1">  1        1 0.14900172E+00 0.16335400E+04</pdfrwt>
<pdfrwt beam="2">  1       -1 0.10596966E+00 0.16335400E+04</pdfrwt>
<totfact> 0.12777356E+01</totfact>
</mgrwt>
</event>
<event>
12    1  0.1663913E-007  0.1269560E+04  0.7818608E-02  0.9054059E-01
          4   -1    0    0  501    0  0.00000000000E+00  0.00000000000E+00  0.30437674703E+03  0.30437674703E+03  0.00000000000E+00 0. -1.
         -4   -1    0    0    0  501 -0.00000000000E+00 -0.00000000000E+00 -0.13238375134E+04  0.13238375134E+04  0.00000000000E+00 0.  1.
         23    2    1    2    0    0 -0.42268252873E+02 -0.39733878420E+01  0.16182160246E+03  0.19052692032E+03  0.91169530733E+02 0.  0.
        254    2    1    2    0    0  0.42268252873E+02  0.39733878420E+01 -0.11812823688E+04  0.14376873401E+04  0.81836083727E+03 0.  0.
        -24    2    4    4    0    0 -0.18404898716E+03  0.28490512684E+03 -0.23015526467E+03  0.41734229071E+03  0.78474077180E+02 0.  0.
         24    2    4    4    0    0  0.22631724003E+03 -0.28093173900E+03 -0.95112710410E+03  0.10203450493E+04  0.79492870488E+02 0.  0.
         13    1    3    3    0    0 -0.37460848050E+02  0.10555167987E+02  0.16914268474E+03  0.17356259536E+03  0.00000000000E+00 0. -1.
        -13    1    3    3    0    0 -0.48074048227E+01 -0.14528555829E+02 -0.73210822823E+01  0.16964324961E+02  0.00000000000E+00 0.  1.
          2    1    6    6  502    0  0.19202044749E+03 -0.24344721208E+03 -0.72392459020E+03  0.78753108486E+03  0.00000000000E+00 0. -1.
          1    1    5    5  503    0 -0.18255253857E+03  0.28951719371E+03 -0.23022777196E+03  0.41249298391E+03  0.00000000000E+00 0. -1.
         -2    1    5    5    0  503 -0.14964485844E+01 -0.46120668693E+01  0.72507290085E-01  0.48493068041E+01  0.00000000000E+00 0.  1.
         -1    1    6    6    0  502  0.34296792537E+02 -0.37484526915E+02 -0.22720251390E+03  0.23281396448E+03  0.00000000000E+00 0.  1.
<mgrwt>
<rscale>  0 0.12695595E+04</rscale>
<asrwt>0</asrwt>
<pdfrwt beam="1">  1        4 0.46827192E-01 0.12695595E+04</pdfrwt>
<pdfrwt beam="2">  1       -4 0.20366731E+00 0.12695595E+04</pdfrwt>
<totfact> 0.10806367E+00</totfact>
</mgrwt>
</event>
<event>
12    1  0.1663913E-007  0.2035400E+04  0.7818608E-02  0.8590247E-01
         -2   -1    0    0    0  501 -0.00000000000E+00  0.00000000000E+00  0.55574037741E+03  0.55574037741E+03  0.00000000000E+00 0.  1.
          2   -1    0    0  501    0  0.00000000000E+00 -0.00000000000E+00 -0.18636631281E+04  0.18636631281E+04  0.00000000000E+00 0. -1.
         23    2    1    2    0    0  0.56994175697E+03 -0.37998581913E+03 -0.10650841140E+04  0.12696686850E+04  0.91823583757E+02 0.  0.
        254    2    1    2    0    0 -0.56994175697E+03  0.37998581913E+03 -0.24283863667E+03  0.11497348206E+04  0.89089658494E+03 0.  0.
        -24    2    4    4    0    0 -0.21896785335E+03 -0.52265161868E+02  0.28794313617E+03  0.37626298997E+03  0.89353343619E+02 0.  0.
         24    2    4    4    0    0 -0.35097390362E+03  0.43225098100E+03 -0.53078177284E+03  0.77347183058E+03  0.80658482075E+02 0.  0.
         11    1    3    3    0    0  0.29026178933E+03 -0.13999539585E+03 -0.51659968444E+03  0.60887260669E+03  0.00000000000E+00 0. -1.
        -11    1    3    3    0    0  0.27967996764E+03 -0.23999042329E+03 -0.54848442957E+03  0.66079607827E+03  0.00000000000E+00 0.  1.
          4    1    6    6  502    0 -0.38565130295E+02  0.42345253955E+02 -0.92802447620E+02  0.10905358358E+03  0.00000000000E+00 0. -1.
          3    1    5    5  503    0 -0.79715191952E+02  0.23552893679E+02  0.87446017431E+02  0.12064848359E+03  0.00000000000E+00 0. -1.
         -4    1    5    5    0  503 -0.13925266139E+03 -0.75818055547E+02  0.20049711873E+03  0.25561450638E+03  0.00000000000E+00 0.  1.
         -3    1    6    6    0  502 -0.31240877333E+03  0.38990572705E+03 -0.43797932521E+03  0.66441824700E+03  0.00000000000E+00 0.  1.
<mgrwt>
<rscale>  0 0.20353996E+04</rscale>
<asrwt>0</asrwt>
<pdfrwt beam="1">  1        2 0.28671741E+00 0.20353996E+04</pdfrwt>
<pdfrwt beam="2">  1       -2 0.85498519E-01 0.20353996E+04</pdfrwt>
<totfact> 0.87607751E+00</totfact>
</mgrwt>
</event>
<event>
12    1  0.1663913E-007  0.1840036E+04  0.7818608E-02  0.8685294E-01
         -1   -1    0    0    0  501 -0.00000000000E+00  0.00000000000E+00  0.46361347111E+03  0.46361347111E+03  0.00000000000E+00 0.  1.
          1   -1    0    0  501    0  0.00000000000E+00 -0.00000000000E+00 -0.18257304569E+04  0.18257304569E+04  0.00000000000E+00 0. -1.
         23    2    1    2    0    0  0.50149431050E+03  0.26631982763E+02 -0.11190583454E+04  0.12299763304E+04  0.91347616204E+02 0.  0.
        254    2    1    2    0    0 -0.50149431050E+03 -0.26631982763E+02 -0.24305864041E+03  0.10593675976E+04  0.90054228010E+03 0.  0.
        -24    2    4    4    0    0 -0.27504740512E+02 -0.79218519671E+02 -0.49920616315E+03  0.51237399830E+03  0.79298399759E+02 0.  0.
         24    2    4    4    0    0 -0.47398956998E+03  0.52586536909E+02  0.25614752274E+03  0.54699359932E+03  0.78479219998E+02 0.  0.
         11    1    3    3    0    0  0.48884354421E+03  0.41811901800E+02 -0.10722248436E+04  0.11791447583E+04  0.00000000000E+00 0. -1.
        -11    1    3    3    0    0  0.12650766283E+02 -0.15179919038E+02 -0.46833501790E+02  0.50831572074E+02  0.00000000000E+00 0.  1.
          4    1    6    6  502    0 -0.21515238976E+03  0.45529126468E+02  0.80874820829E+02  0.23431642883E+03  0.00000000000E+00 0. -1.
          3    1    5    5  503    0  0.22590796210E+02 -0.11161061550E+01 -0.95512202873E+02  0.98153811256E+02  0.00000000000E+00 0. -1.
         -4    1    5    5    0  503 -0.50095536722E+02 -0.78102413516E+02 -0.40369396027E+03  0.41422018705E+03  0.00000000000E+00 0.  1.
         -1    1    6    6    0  502 -0.25883718023E+03  0.70574104411E+01  0.17527270191E+03  0.31267717049E+03  0.00000000000E+00 0.  1.
<mgrwt>
<rscale>  0 0.18400361E+04</rscale>
<asrwt>0</asrwt>
<pdfrwt beam="1">  1        1 0.28088161E+00 0.18400361E+04</pdfrwt>
<pdfrwt beam="2">  1       -1 0.71325149E-01 0.18400361E+04</pdfrwt>
<totfact> 0.73040626E+00</totfact>
</mgrwt>
</event>
<event>
12    1  0.1663913E-007  0.2545106E+04  0.7818608E-02  0.8387090E-01
          1   -1    0    0  501    0  0.00000000000E+00  0.00000000000E+00  0.18780211317E+04  0.18780211317E+04  0.00000000000E+00 0. -1.
         -1   -1    0    0    0  501 -0.00000000000E+00 -0.00000000000E+00 -0.86228604658E+03  0.86228604658E+03  0.00000000000E+00 0.  1.
         23    2    1    2    0    0  0.81836928009E+03  0.31728245683E+03  0.11844294109E+04  0.14769919214E+04  0.90750595478E+02 0.  0.
        254    2    1    2    0    0 -0.81836928009E+03 -0.31728245683E+03 -0.16869432582E+03  0.12633152568E+04  0.89281085709E+03 0.  0.
        -24    2    4    4    0    0  0.16265410166E+03 -0.14664131188E+03 -0.12273448642E+03  0.26327764034E+03  0.79317908493E+02 0.  0.
         24    2    4    4    0    0 -0.98102338175E+03 -0.17064114495E+03 -0.45959839403E+02  0.10000376165E+04  0.80234977669E+02 0.  0.
         11    1    3    3    0    0  0.29650447604E+03  0.10654271416E+03  0.49849968464E+03  0.58971873791E+03  0.00000000000E+00 0.  1.
        -11    1    3    3    0    0  0.52186480405E+03  0.21073974267E+03  0.68592972627E+03  0.88727318354E+03  0.00000000000E+00 0. -1.
          4    1    6    6  502    0 -0.81733155410E+03 -0.11480498331E+03 -0.24080361208E+02  0.82570631420E+03  0.00000000000E+00 0. -1.
          1    1    5    5  503    0  0.15743409136E+03 -0.10126981844E+03 -0.10093411551E+03  0.21267055490E+03  0.00000000000E+00 0. -1.
         -2    1    5    5    0  503  0.52200103061E+01 -0.45371493442E+02 -0.21800370903E+02  0.50607085435E+02  0.00000000000E+00 0.  1.
         -3    1    6    6    0  502 -0.16369182765E+03 -0.55836161642E+02 -0.21879478195E+02  0.17433130227E+03  0.00000000000E+00 0.  1.
<mgrwt>
<rscale>  0 0.25451062E+04</rscale>
<asrwt>0</asrwt>
<pdfrwt beam="1">  1        1 0.28892633E+00 0.25451062E+04</pdfrwt>
<pdfrwt beam="2">  1       -1 0.13265939E+00 0.25451062E+04</pdfrwt>
<totfact> 0.15370178E+00</totfact>
</mgrwt>
</event>
<event>
12    1  0.1663913E-007  0.1553469E+04  0.7818608E-02  0.8849655E-01
          2   -1    0    0  501    0  0.00000000000E+00  0.00000000000E+00  0.36971033710E+04  0.36971033710E+04  0.00000000000E+00 0.  1.
         -2   -1    0    0    0  501 -0.00000000000E+00 -0.00000000000E+00 -0.16318632703E+03  0.16318632703E+03  0.00000000000E+00 0. -1.
         23    2    1    2    0    0  0.28227726200E+03  0.30408362949E+03  0.40600448015E+03  0.58769774473E+03  0.91660759839E+02 0.  0.
        254    2    1    2    0    0 -0.28227726200E+03 -0.30408362949E+03  0.31279125639E+04  0.32725919533E+04  0.86825905093E+03 0.  0.
        -24    2    4    4    0    0 -0.23159284326E+03 -0.27225955315E+03  0.31482850931E+04  0.31695044452E+04  0.79365557133E+02 0.  0.
         24    2    4    4    0    0 -0.50684418738E+02 -0.31824076340E+02 -0.20372529209E+02  0.10308750812E+03  0.81426729316E+02 0.  0.
         13    1    3    3    0    0  0.17836576714E+03  0.16625560093E+03  0.29389228774E+03  0.38187425748E+03  0.00000000000E+00 0. -1.
        -13    1    3    3    0    0  0.10391149485E+03  0.13782802855E+03  0.11211219241E+03  0.20582348725E+03  0.00000000000E+00 0.  1.
          2    1    6    6  502    0 -0.34378045946E+02  0.61744011612E+01  0.24043335164E+02  0.42403481444E+02  0.00000000000E+00 0. -1.
          3    1    5    5  503    0 -0.77164357817E+01 -0.36661028941E+02  0.21170868045E+03  0.21499799953E+03  0.00000000000E+00 0. -1.
         -4    1    5    5    0  503 -0.22387640748E+03 -0.23559852421E+03  0.29365764126E+04  0.29545064457E+04  0.00000000000E+00 0.  1.
         -1    1    6    6    0  502 -0.16306372791E+02 -0.37998477502E+02 -0.44415864373E+02  0.60684026679E+02  0.00000000000E+00 0.  1.
<mgrwt>
<rscale>  0 0.15534693E+04</rscale>
<asrwt>0</asrwt>
<pdfrwt beam="1">  1        2 0.56878507E+00 0.15534693E+04</pdfrwt>
<pdfrwt beam="2">  1       -2 0.25105592E-01 0.15534693E+04</pdfrwt>
<totfact> 0.81665085E+00</totfact>
</mgrwt>
</event>
<event>
12    1  0.2098189E-007  0.2245540E+04  0.7818608E-02  0.8499709E-01
          2   -1    0    0  501    0  0.00000000000E+00  0.00000000000E+00  0.12019521307E+04  0.12019521307E+04  0.00000000000E+00 0.  1.
         -2   -1    0    0    0  501 -0.00000000000E+00 -0.00000000000E+00 -0.10488046420E+04  0.10488046420E+04  0.00000000000E+00 0. -1.
         23    2    1    2    0    0  0.37368452512E+03 -0.66969019910E+03 -0.39850893249E+03  0.86909768600E+03  0.91631498196E+02 0.  0.
        254    2    1    2    0    0 -0.37368452512E+03  0.66969019910E+03  0.55165642115E+03  0.13816590868E+04  0.10082320854E+04 0.  0.
        -24    2    4    4    0    0  0.48302804651E+02 -0.10365976112E+02 -0.23735011060E+03  0.25492701774E+03  0.78816844470E+02 0.  0.
         24    2    4    4    0    0 -0.42198732977E+03  0.68005617521E+03  0.78900653176E+03  0.11267320690E+04  0.80275402743E+02 0.  0.
         13    1    3    3    0    0  0.69363657414E+01 -0.31861639365E+02 -0.54146661170E+00  0.32612427368E+02  0.00000000000E+00 0.  1.
        -13    1    3    3    0    0  0.36674815938E+03 -0.63782855973E+03 -0.39796746588E+03  0.83648525864E+03  0.00000000000E+00 0. -1.
          4    1    6    6  502    0 -0.86506055251E+02  0.13965980469E+03  0.11873278320E+03  0.20269591127E+03  0.00000000000E+00 0. -1.
          1    1    5    5  503    0  0.33007845768E+01  0.26467970974E+02 -0.32829815207E+02  0.42299473198E+02  0.00000000000E+00 0. -1.
         -2    1    5    5    0  503  0.45002020074E+02 -0.36833947086E+02 -0.20452029539E+03  0.21262754454E+03  0.00000000000E+00 0.  1.
         -3    1    6    6    0  502 -0.33548127452E+03  0.54039637052E+03  0.67027374856E+03  0.92403615775E+03  0.00000000000E+00 0.  1.
<mgrwt>
<rscale>  0 0.22455404E+04</rscale>
<asrwt>0</asrwt>
<pdfrwt beam="1">  1        2 0.18491571E+00 0.22455404E+04</pdfrwt>
<pdfrwt beam="2">  1       -2 0.16135456E+00 0.22455404E+04</pdfrwt>
<totfact> 0.42346954E+00</totfact>
</mgrwt>
</event>
<event>
12    1  0.1663913E-007  0.1849350E+04  0.7818608E-02  0.8680487E-01
          1   -1    0    0  501    0  0.00000000000E+00  0.00000000000E+00  0.76738507744E+03  0.76738507744E+03  0.00000000000E+00 0. -1.
         -1   -1    0    0    0  501 -0.00000000000E+00 -0.00000000000E+00 -0.11142049602E+04  0.11142049602E+04  0.00000000000E+00 0.  1.
         23    2    1    2    0    0 -0.30797795188E+03 -0.53658180884E+03 -0.49599394504E+03  0.79821715030E+03  0.91488628224E+02 0.  0.
        254    2    1    2    0    0  0.30797795188E+03  0.53658180884E+03  0.14917406230E+03  0.10833728873E+04  0.87674024413E+03 0.  0.
        -24    2    4    4    0    0  0.16717829630E+03 -0.20391433011E+03  0.17262914487E+03  0.32492334322E+03  0.79023544146E+02 0.  0.
         24    2    4    4    0    0  0.14079965558E+03  0.74049613895E+03 -0.23455082570E+02  0.75844954409E+03  0.80848594434E+02 0.  0.
         11    1    3    3    0    0 -0.26005608908E+03 -0.44288433979E+03 -0.45195285953E+03  0.68413236668E+03  0.00000000000E+00 0.  1.
        -11    1    3    3    0    0 -0.47921862808E+02 -0.93697469056E+02 -0.44041085505E+02  0.11408478363E+03  0.00000000000E+00 0. -1.
          4    1    6    6  502    0  0.12008029776E+03  0.56897853481E+03  0.13963281440E+02  0.58167931390E+03  0.00000000000E+00 0. -1.
          3    1    5    5  503    0  0.91376553262E+02 -0.16091075593E+03  0.94035085091E+02  0.20756816492E+03  0.00000000000E+00 0. -1.
         -4    1    5    5    0  503  0.75801743042E+02 -0.43003574178E+02  0.78594059778E+02  0.11735517830E+03  0.00000000000E+00 0.  1.
         -3    1    6    6    0  502  0.20719357822E+02  0.17151760414E+03 -0.37418364010E+02  0.17677023020E+03  0.00000000000E+00 0.  1.
<mgrwt>
<rscale>  0 0.18493504E+04</rscale>
<asrwt>0</asrwt>
<pdfrwt beam="1">  1        1 0.11805924E+00 0.18493504E+04</pdfrwt>
<pdfrwt beam="2">  1       -1 0.17141615E+00 0.18493504E+04</pdfrwt>
<totfact> 0.53332581E+00</totfact>
</mgrwt>
</event>
<event>
12    1  0.1663913E-007  0.1406811E+04  0.7818608E-02  0.8948903E-01
          1   -1    0    0  501    0  0.00000000000E+00  0.00000000000E+00  0.12583163992E+04  0.12583163992E+04  0.00000000000E+00 0. -1.
         -1   -1    0    0    0  501 -0.00000000000E+00 -0.00000000000E+00 -0.39320764704E+03  0.39320764704E+03  0.00000000000E+00 0.  1.
         23    2    1    2    0    0  0.28048628337E+03  0.28426778986E+03  0.12121739080E+03  0.42740836737E+03  0.92214560426E+02 0.  0.
        254    2    1    2    0    0 -0.28048628337E+03 -0.28426778986E+03  0.74389136136E+03  0.12241156789E+04  0.88634310864E+03 0.  0.
        -24    2    4    4    0    0 -0.58735836596E+03 -0.24125231360E+03  0.40666488015E+03  0.75911340020E+03  0.87660143428E+02 0.  0.
         24    2    4    4    0    0  0.30687208258E+03 -0.43015476266E+02  0.33722648121E+03  0.46500227866E+03  0.80527096477E+02 0.  0.
         13    1    3    3    0    0  0.19004172808E+03  0.24650926291E+03  0.82316042273E+02  0.32196056580E+03  0.00000000000E+00 0.  1.
        -13    1    3    3    0    0  0.90444555293E+02  0.37758526947E+02  0.38901348525E+02  0.10544780157E+03  0.00000000000E+00 0. -1.
          2    1    6    6  502    0  0.21119429394E+03  0.73284024988E+01  0.20800148621E+03  0.29651535128E+03  0.00000000000E+00 0. -1.
          1    1    5    5  503    0 -0.54015695178E+03 -0.24227230232E+03  0.39057326209E+03  0.70923400517E+03  0.00000000000E+00 0. -1.
         -2    1    5    5    0  503 -0.47201414172E+02  0.10199887287E+01  0.16091618066E+02  0.49879395033E+02  0.00000000000E+00 0.  1.
         -1    1    6    6    0  502  0.95677788643E+02 -0.50343878765E+02  0.12922499500E+03  0.16848692739E+03  0.00000000000E+00 0.  1.
<mgrwt>
<rscale>  0 0.14068115E+04</rscale>
<asrwt>0</asrwt>
<pdfrwt beam="1">  1        1 0.19358714E+00 0.14068115E+04</pdfrwt>
<pdfrwt beam="2">  1       -1 0.60493485E-01 0.14068115E+04</pdfrwt>
<totfact> 0.26172057E+01</totfact>
</mgrwt>
</event>
<event>
12    1  0.1663913E-007  0.2696899E+04  0.7818608E-02  0.8336012E-01
          2   -1    0    0  501    0  0.00000000000E+00  0.00000000000E+00  0.23415238564E+04  0.23415238564E+04  0.00000000000E+00 0. -1.
         -2   -1    0    0    0  501 -0.00000000000E+00 -0.00000000000E+00 -0.77655271588E+03  0.77655271588E+03  0.00000000000E+00 0.  1.
         23    2    1    2    0    0  0.48231235140E+03 -0.66172465134E+03  0.17081597909E+04  0.18963559251E+04  0.88607025861E+02 0.  0.
        254    2    1    2    0    0 -0.48231235140E+03  0.66172465134E+03 -0.14318865041E+03  0.12217206471E+04  0.89531761486E+03 0.  0.
        -24    2    4    4    0    0  0.15480614795E+03  0.11008562403E+03 -0.29695448412E+03  0.36135500904E+03  0.79446138065E+02 0.  0.
         24    2    4    4    0    0 -0.63711849935E+03  0.55163902731E+03  0.15376583371E+03  0.86036563809E+03  0.79746478941E+02 0.  0.
         13    1    3    3    0    0  0.28682011762E+03 -0.32849718366E+03  0.85467981864E+03  0.95950704632E+03  0.00000000000E+00 0. -1.
        -13    1    3    3    0    0  0.19549223378E+03 -0.33322746768E+03  0.85347997227E+03  0.93684887883E+03  0.00000000000E+00 0.  1.
          4    1    6    6  502    0 -0.37578729402E+03  0.36232902624E+03  0.12223028016E+03  0.53613305717E+03  0.00000000000E+00 0. -1.
          1    1    5    5  503    0 -0.93137083454E+01  0.93949338668E+01 -0.16137222728E+02  0.20866717587E+02  0.00000000000E+00 0. -1.
         -2    1    5    5    0  503  0.16411985630E+03  0.10069069016E+03 -0.28081726139E+03  0.34048829145E+03  0.00000000000E+00 0.  1.
         -3    1    6    6    0  502 -0.26133120534E+03  0.18931000107E+03  0.31535553553E+02  0.32423258092E+03  0.00000000000E+00 0.  1.
<mgrwt>
<rscale>  0 0.26968995E+04</rscale>
<asrwt>0</asrwt>
<pdfrwt beam="1">  1        2 0.36023444E+00 0.26968995E+04</pdfrwt>
<pdfrwt beam="2">  1       -2 0.11946965E+00 0.26968995E+04</pdfrwt>
<totfact> 0.20225107E+00</totfact>
</mgrwt>
</event>
<event>
12    1  0.1663913E-007  0.1450474E+04  0.7818608E-02  0.8918072E-01
          1   -1    0    0  501    0  0.00000000000E+00  0.00000000000E+00  0.10959679996E+04  0.10959679996E+04  0.00000000000E+00 0. -1.
         -1   -1    0    0    0  501 -0.00000000000E+00 -0.00000000000E+00 -0.47991276173E+03  0.47991276173E+03  0.00000000000E+00 0.  1.
         23    2    1    2    0    0  0.28805341595E+03  0.31900899377E+03  0.24172461471E+03  0.50523218303E+03  0.10994207960E+03 0.  0.
        254    2    1    2    0    0 -0.28805341595E+03 -0.31900899377E+03  0.37433062312E+03  0.10706485783E+04  0.90632414410E+03 0.  0.
        -24    2    4    4    0    0 -0.19977446143E+03 -0.61259094726E+03  0.38338462101E+03  0.75401075230E+03  0.79818186203E+02 0.  0.
         24    2    4    4    0    0 -0.88278954522E+02  0.29358195349E+03 -0.90539978881E+01  0.31663782596E+03  0.78701974099E+02 0.  0.
         13    1    3    3    0    0  0.21841027887E+03  0.18472028465E+03  0.19756768550E+03  0.34764583102E+03  0.00000000000E+00 0. -1.
        -13    1    3    3    0    0  0.69643137083E+02  0.13428870913E+03  0.44156929206E+02  0.15758635201E+03  0.00000000000E+00 0.  1.
          4    1    6    6  502    0 -0.24908126932E+02  0.48628124782E+02  0.27205195312E+02  0.61034678332E+02  0.00000000000E+00 0. -1.
          1    1    5    5  503    0 -0.12307670834E+03 -0.27194707830E+03  0.15044277449E+03  0.33426952887E+03  0.00000000000E+00 0. -1.
         -2    1    5    5    0  503 -0.76697753093E+02 -0.34064386896E+03  0.23294184651E+03  0.41974122343E+03  0.00000000000E+00 0.  1.
         -3    1    6    6    0  502 -0.63370827589E+02  0.24495382871E+03 -0.36259193200E+02  0.25560314763E+03  0.00000000000E+00 0.  1.
<mgrwt>
<rscale>  0 0.14504744E+04</rscale>
<asrwt>0</asrwt>
<pdfrwt beam="1">  1        1 0.16861046E+00 0.14504744E+04</pdfrwt>
<pdfrwt beam="2">  1       -1 0.73832733E-01 0.14504744E+04</pdfrwt>
<totfact> 0.22912375E+01</totfact>
</mgrwt>
</event>
<event>
12    1  0.1663913E-007  0.1258146E+04  0.7818608E-02  0.9063430E-01
          2   -1    0    0  501    0  0.00000000000E+00  0.00000000000E+00  0.99777134074E+03  0.99777134074E+03  0.00000000000E+00 0. -1.
         -2   -1    0    0    0  501 -0.00000000000E+00 -0.00000000000E+00 -0.39661694493E+03  0.39661694493E+03  0.00000000000E+00 0.  1.
         23    2    1    2    0    0  0.16751558390E+03  0.13203042186E+02 -0.13276970711E+03  0.23295308797E+03  0.91670905397E+02 0.  0.
        254    2    1    2    0    0 -0.16751558390E+03 -0.13203042186E+02  0.73392410292E+03  0.11614351977E+04  0.88433666577E+03 0.  0.
        -24    2    4    4    0    0  0.85738165394E+02 -0.35901570679E+03  0.97412190202E+02  0.38982159997E+03  0.78920430046E+02 0.  0.
         24    2    4    4    0    0 -0.25325374930E+03  0.34581266461E+03  0.63651191272E+03  0.77161359772E+03  0.80723408105E+02 0.  0.
         13    1    3    3    0    0  0.13397064692E+03  0.23634342697E+02 -0.14198214613E+03  0.19663582128E+03  0.00000000000E+00 0.  1.
        -13    1    3    3    0    0  0.33544936979E+02 -0.10431300511E+02  0.92124390168E+01  0.36317266691E+02  0.00000000000E+00 0. -1.
          2    1    6    6  502    0 -0.40544141229E+02  0.10868926165E+03  0.14166310609E+03  0.18310002352E+03  0.00000000000E+00 0. -1.
          1    1    5    5  503    0  0.29392130440E+01 -0.11772842550E+03  0.59429651383E+02  0.13191097228E+03  0.00000000000E+00 0. -1.
         -2    1    5    5    0  503  0.82798952350E+02 -0.24128728129E+03  0.37982538819E+02  0.25791062769E+03  0.00000000000E+00 0.  1.
         -1    1    6    6    0  502 -0.21270960807E+03  0.23712340296E+03  0.49484880663E+03  0.58851357420E+03  0.00000000000E+00 0.  1.
<mgrwt>
<rscale>  0 0.12581463E+04</rscale>
<asrwt>0</asrwt>
<pdfrwt beam="1">  1        2 0.15350328E+00 0.12581463E+04</pdfrwt>
<pdfrwt beam="2">  1       -2 0.61017992E-01 0.12581463E+04</pdfrwt>
<totfact> 0.62091072E+01</totfact>
</mgrwt>
</event>
<event>
12    1  0.1663913E-007  0.1982751E+04  0.7818608E-02  0.8614728E-01
         -1   -1    0    0    0  501 -0.00000000000E+00  0.00000000000E+00  0.95402717706E+03  0.95402717706E+03  0.00000000000E+00 0.  1.
          1   -1    0    0  501    0  0.00000000000E+00 -0.00000000000E+00 -0.10301854237E+04  0.10301854237E+04  0.00000000000E+00 0. -1.
         23    2    1    2    0    0 -0.18783395130E+03  0.68806260990E+02 -0.78700498410E+03  0.81634135851E+03  0.83788267755E+02 0.  0.
        254    2    1    2    0    0  0.18783395130E+03 -0.68806260990E+02  0.71084673743E+03  0.11678712423E+04  0.90476751687E+03 0.  0.
        -24    2    4    4    0    0 -0.19215294045E+03 -0.30799927883E+03  0.58919125392E+03  0.69657205122E+03  0.79246328384E+02 0.  0.
         24    2    4    4    0    0  0.37998689174E+03  0.23919301784E+03  0.12165548351E+03  0.47129919105E+03  0.75627595064E+02 0.  0.
         11    1    3    3    0    0 -0.12440524299E+03  0.82856821270E+02 -0.60133608233E+03  0.61963457072E+03  0.00000000000E+00 0. -1.
        -11    1    3    3    0    0 -0.63428708312E+02 -0.14050560280E+02 -0.18566890176E+03  0.19670678779E+03  0.00000000000E+00 0.  1.
          2    1    6    6  502    0  0.19243603171E+03  0.10940928160E+03  0.22178286492E+02  0.22247223106E+03  0.00000000000E+00 0. -1.
          1    1    5    5  503    0 -0.41565538603E+02 -0.10163245836E+03  0.23982327201E+03  0.26376514627E+03  0.00000000000E+00 0. -1.
         -2    1    5    5    0  503 -0.15058740184E+03 -0.20636682046E+03  0.34936798191E+03  0.43280690495E+03  0.00000000000E+00 0.  1.
         -1    1    6    6    0  502  0.18755086004E+03  0.12978373624E+03  0.99477197017E+02  0.24882695999E+03  0.00000000000E+00 0.  1.
<mgrwt>
<rscale>  0 0.19827505E+04</rscale>
<asrwt>0</asrwt>
<pdfrwt beam="1">  1        1 0.15849006E+00 0.19827505E+04</pdfrwt>
<pdfrwt beam="2">  1       -1 0.14677341E+00 0.19827505E+04</pdfrwt>
<totfact> 0.49263065E+00</totfact>
</mgrwt>
</event>
<event>
12    1  0.1663913E-007  0.1806911E+04  0.7818608E-02  0.8702633E-01
         -2   -1    0    0    0  501 -0.00000000000E+00  0.00000000000E+00  0.43716453437E+03  0.43716453437E+03  0.00000000000E+00 0.  1.
          2   -1    0    0  501    0  0.00000000000E+00 -0.00000000000E+00 -0.18671036880E+04  0.18671036880E+04  0.00000000000E+00 0. -1.
         23    2    1    2    0    0  0.18860936328E+03  0.38092626117E+03 -0.12101950846E+04  0.12852331239E+04  0.81078552337E+02 0.  0.
        254    2    1    2    0    0 -0.18860936328E+03 -0.38092626117E+03 -0.21974406903E+03  0.10190350985E+04  0.89970371104E+03 0.  0.
        -24    2    4    4    0    0 -0.24822285615E+03 -0.55725999114E+03  0.11684712064E+03  0.62608790626E+03  0.78610004018E+02 0.  0.
         24    2    4    4    0    0  0.59613492870E+02  0.17633372996E+03 -0.33659118966E+03  0.39294719220E+03  0.80414638245E+02 0.  0.
         11    1    3    3    0    0  0.10484439375E+03  0.29164402164E+03 -0.84264187072E+03  0.89782732446E+03  0.00000000000E+00 0. -1.
        -11    1    3    3    0    0  0.83764969530E+02  0.89282239535E+02 -0.36755321391E+03  0.38740579948E+03  0.00000000000E+00 0.  1.
          4    1    6    6  502    0  0.65144189208E+02  0.18210666995E+03 -0.31194901937E+03  0.36704059083E+03  0.00000000000E+00 0. -1.
          3    1    5    5  503    0 -0.17148796602E+03 -0.41793995973E+03  0.53612436019E+02  0.45492441759E+03  0.00000000000E+00 0. -1.
         -4    1    5    5    0  503 -0.76734890127E+02 -0.13932003141E+03  0.63234684619E+02  0.17116348867E+03  0.00000000000E+00 0.  1.
         -3    1    6    6    0  502 -0.55306963380E+01 -0.57729399852E+01 -0.24642170291E+02  0.25906601373E+02  0.00000000000E+00 0.  1.
<mgrwt>
<rscale>  0 0.18069106E+04</rscale>
<asrwt>0</asrwt>
<pdfrwt beam="1">  1        2 0.28724672E+00 0.18069106E+04</pdfrwt>
<pdfrwt beam="2">  1       -2 0.67256084E-01 0.18069106E+04</pdfrwt>
<totfact> 0.15152969E+01</totfact>
</mgrwt>
</event>
<event>
12    1  0.1663913E-007  0.1743180E+04  0.7818608E-02  0.8737113E-01
         -1   -1    0    0    0  501 -0.00000000000E+00  0.00000000000E+00  0.41979812769E+03  0.41979812769E+03  0.00000000000E+00 0.  1.
          1   -1    0    0  501    0  0.00000000000E+00 -0.00000000000E+00 -0.18096066041E+04  0.18096066041E+04  0.00000000000E+00 0. -1.
         23    2    1    2    0    0 -0.12181391022E+03 -0.24027379724E+03  0.22586257019E+03  0.36297755426E+03  0.90380738667E+02 0.  0.
        254    2    1    2    0    0  0.12181391022E+03  0.24027379724E+03 -0.16156710466E+04  0.18664271775E+04  0.89475547042E+03 0.  0.
        -24    2    4    4    0    0  0.49766686316E+03  0.84817645763E+02 -0.10175953596E+04  0.11388143945E+04  0.80818126506E+02 0.  0.
         24    2    4    4    0    0 -0.37585295294E+03  0.15545615148E+03 -0.59807568702E+03  0.72761278303E+03  0.79333330697E+02 0.  0.
         13    1    3    3    0    0 -0.84540975699E+02 -0.74929358255E+02  0.71257320805E+02  0.13356343463E+03  0.00000000000E+00 0. -1.
        -13    1    3    3    0    0 -0.37272934520E+02 -0.16534443899E+03  0.15460524938E+03  0.22941411964E+03  0.00000000000E+00 0.  1.
          4    1    6    6  502    0 -0.30413844335E+03  0.10556307168E+03 -0.51312575152E+03  0.60575720524E+03  0.00000000000E+00 0. -1.
          3    1    5    5  503    0  0.32250371924E+03  0.72410679821E+02 -0.58470861376E+03  0.67166667215E+03  0.00000000000E+00 0. -1.
         -4    1    5    5    0  503  0.17516314392E+03  0.12406965942E+02 -0.43288674582E+03  0.46714772236E+03  0.00000000000E+00 0.  1.
         -1    1    6    6    0  502 -0.71714509590E+02  0.49893079799E+02 -0.84949935498E+02  0.12185557779E+03  0.00000000000E+00 0.  1.
<mgrwt>
<rscale>  0 0.17431804E+04</rscale>
<asrwt>0</asrwt>
<pdfrwt beam="1">  1        1 0.27840101E+00 0.17431804E+04</pdfrwt>
<pdfrwt beam="2">  1       -1 0.64584328E-01 0.17431804E+04</pdfrwt>
<totfact> 0.92503361E+00</totfact>
</mgrwt>
</event>
<event>
12    1  0.1663913E-007  0.1399140E+04  0.7818608E-02  0.8954442E-01
         -1   -1    0    0    0  501 -0.00000000000E+00  0.00000000000E+00  0.75855900768E+03  0.75855900768E+03  0.00000000000E+00 0.  1.
          1   -1    0    0  501    0  0.00000000000E+00 -0.00000000000E+00 -0.64516792377E+03  0.64516792377E+03  0.00000000000E+00 0. -1.
         23    2    1    2    0    0  0.23363755000E+03  0.78068514315E+02  0.34949498269E+03  0.43721749575E+03  0.91275396304E+02 0.  0.
        254    2    1    2    0    0 -0.23363755000E+03 -0.78068514315E+02 -0.23610389878E+03  0.96650943570E+03  0.90427553356E+03 0.  0.
        -24    2    4    4    0    0 -0.14843699139E+03  0.38884021548E+03  0.14219928913E+02  0.42412253737E+03  0.80296119087E+02 0.  0.
         24    2    4    4    0    0 -0.85200558607E+02 -0.46690872979E+03 -0.25032382769E+03  0.54238689833E+03  0.79111513874E+02 0.  0.
         11    1    3    3    0    0  0.12679363387E+03  0.40052893527E+02  0.26260851803E+03  0.29435368795E+03  0.00000000000E+00 0.  1.
        -11    1    3    3    0    0  0.10684391613E+03  0.38015620788E+02  0.86886464657E+02  0.14286380780E+03  0.00000000000E+00 0. -1.
          2    1    6    6  502    0 -0.84522345984E+02 -0.28847530032E+03 -0.13214971650E+03  0.32836804570E+03  0.00000000000E+00 0. -1.
          3    1    5    5  503    0 -0.14105465033E+03  0.35151851967E+03  0.35683989427E+02  0.38044057506E+03  0.00000000000E+00 0. -1.
         -4    1    5    5    0  503 -0.73823410653E+01  0.37321695810E+02 -0.21464060514E+02  0.43681962313E+02  0.00000000000E+00 0.  1.
         -1    1    6    6    0  502 -0.67821262327E+00 -0.17843342948E+03 -0.11817411119E+03  0.21401885264E+03  0.00000000000E+00 0.  1.
<mgrwt>
<rscale>  0 0.13991396E+04</rscale>
<asrwt>0</asrwt>
<pdfrwt beam="1">  1        1 0.99256604E-01 0.13991396E+04</pdfrwt>
<pdfrwt beam="2">  1       -1 0.11670139E+00 0.13991396E+04</pdfrwt>
<totfact> 0.19903362E+01</totfact>
</mgrwt>
</event>
<event>
12    1  0.1663913E-007  0.2258758E+04  0.7818608E-02  0.8494362E-01
         -1   -1    0    0    0  501 -0.00000000000E+00  0.00000000000E+00  0.20894149677E+04  0.20894149677E+04  0.00000000000E+00 0.  1.
          1   -1    0    0  501    0  0.00000000000E+00 -0.00000000000E+00 -0.61045664729E+03  0.61045664729E+03  0.00000000000E+00 0. -1.
         23    2    1    2    0    0 -0.14808423947E+03  0.83085241065E+03  0.11776650845E+04  0.14516920467E+04  0.90939963706E+02 0.  0.
        254    2    1    2    0    0  0.14808423947E+03 -0.83085241065E+03  0.30129323586E+03  0.12481795682E+04  0.86886704984E+03 0.  0.
        -24    2    4    4    0    0  0.38231664345E+03 -0.25048661904E+03  0.39592539335E+03  0.61004085110E+03  0.80519319006E+02 0.  0.
         24    2    4    4    0    0 -0.23423240398E+03 -0.58036579161E+03 -0.94632157481E+02  0.63813871713E+03  0.81095659090E+02 0.  0.
         13    1    3    3    0    0 -0.88006065111E+02  0.43800397260E+03  0.69868013798E+03  0.82930481894E+03  0.00000000000E+00 0. -1.
        -13    1    3    3    0    0 -0.60078174363E+02  0.39284843805E+03  0.47898494654E+03  0.62238722779E+03  0.00000000000E+00 0.  1.
          2    1    6    6  502    0 -0.21787686181E+03 -0.51738081170E+03 -0.60441479141E+02  0.56462943922E+03  0.00000000000E+00 0. -1.
          3    1    5    5  503    0  0.37796599745E+03 -0.24881184164E+03  0.37235903201E+03  0.58601781243E+03  0.00000000000E+00 0. -1.
         -4    1    5    5    0  503  0.43506460022E+01 -0.16747773963E+01  0.23566361339E+02  0.24023038666E+02  0.00000000000E+00 0.  1.
         -1    1    6    6    0  502 -0.16355542169E+02 -0.62984979909E+02 -0.34190678340E+02  0.73509277912E+02  0.00000000000E+00 0.  1.
<mgrwt>
<rscale>  0 0.22587583E+04</rscale>
<asrwt>0</asrwt>
<pdfrwt beam="1">  1        1 0.93916408E-01 0.22587583E+04</pdfrwt>
<pdfrwt beam="2">  1       -1 0.32144845E+00 0.22587583E+04</pdfrwt>
<totfact> 0.72592614E-01</totfact>
</mgrwt>
</event>
<event>
12    1  0.1663913E-007  0.2237320E+04  0.7818608E-02  0.8503053E-01
          1   -1    0    0  501    0  0.00000000000E+00  0.00000000000E+00  0.65975686131E+03  0.65975686131E+03  0.00000000000E+00 0. -1.
         -1   -1    0    0    0  501 -0.00000000000E+00 -0.00000000000E+00 -0.18967601386E+04  0.18967601386E+04  0.00000000000E+00 0.  1.
         23    2    1    2    0    0 -0.53683549037E+03 -0.69095151773E+03 -0.15765274532E+03  0.89380397402E+03  0.91786776196E+02 0.  0.
        254    2    1    2    0    0  0.53683549037E+03  0.69095151773E+03 -0.10793505320E+04  0.16627130259E+04  0.91324185846E+03 0.  0.
        -24    2    4    4    0    0  0.11290453987E+03 -0.16789464953E+03  0.74436307834E-01  0.21751260583E+03  0.79847853378E+02 0.  0.
         24    2    4    4    0    0  0.42393095050E+03  0.85884616726E+03 -0.10794249683E+04  0.14452004201E+04  0.78178016152E+02 0.  0.
         13    1    3    3    0    0 -0.38023082627E+03 -0.52563012459E+03 -0.15052363942E+03  0.66597287869E+03  0.00000000000E+00 0. -1.
        -13    1    3    3    0    0 -0.15660466410E+03 -0.16532139314E+03 -0.71291058998E+01  0.22783109533E+03  0.00000000000E+00 0.  1.
          2    1    6    6  502    0  0.24139492879E+03  0.56003099462E+03 -0.71655104504E+03  0.94093125505E+03  0.00000000000E+00 0. -1.
          3    1    5    5  503    0 -0.76631942546E+01 -0.24830733540E+02 -0.14666662463E+02  0.29839585488E+02  0.00000000000E+00 0. -1.
         -4    1    5    5    0  503  0.12056773412E+03 -0.14306391599E+03  0.14741098771E+02  0.18767302034E+03  0.00000000000E+00 0.  1.
         -1    1    6    6    0  502  0.18253602171E+03  0.29881517264E+03 -0.36287392325E+03  0.50426916503E+03  0.00000000000E+00 0.  1.
<mgrwt>
<rscale>  0 0.22373203E+04</rscale>
<asrwt>0</asrwt>
<pdfrwt beam="1">  1        1 0.10150105E+00 0.22373203E+04</pdfrwt>
<pdfrwt beam="2">  1       -1 0.29180925E+00 0.22373203E+04</pdfrwt>
<totfact> 0.10105085E+00</totfact>
</mgrwt>
</event>
<event>
12    1  0.1663913E-007  0.2014289E+04  0.7818608E-02  0.8599969E-01
         -2   -1    0    0    0  501 -0.00000000000E+00  0.00000000000E+00  0.57333325074E+03  0.57333325074E+03  0.00000000000E+00 0.  1.
          2   -1    0    0  501    0  0.00000000000E+00 -0.00000000000E+00 -0.17691983148E+04  0.17691983148E+04  0.00000000000E+00 0. -1.
         23    2    1    2    0    0 -0.10007170428E+03  0.76342477069E+03 -0.77139775781E+03  0.10939646052E+04  0.94193047643E+02 0.  0.
        254    2    1    2    0    0  0.10007170428E+03 -0.76342477069E+03 -0.42446730625E+03  0.12485669603E+04  0.88651860320E+03 0.  0.
        -24    2    4    4    0    0  0.32392283031E+03 -0.24116228260E+02 -0.32363884290E+03  0.46537699712E+03  0.79536509600E+02 0.  0.
         24    2    4    4    0    0 -0.22385112603E+03 -0.73930854243E+03 -0.10082846335E+03  0.78318996319E+03  0.80831255647E+02 0.  0.
         11    1    3    3    0    0 -0.28224958380E+02  0.43197151532E+02 -0.59085292990E+02  0.78445611884E+02  0.00000000000E+00 0.  1.
        -11    1    3    3    0    0 -0.71846745899E+02  0.72022761916E+03 -0.71231246482E+03  0.10155189933E+04  0.00000000000E+00 0. -1.
          4    1    6    6  502    0 -0.15477324672E+03 -0.51783734710E+03 -0.10768067244E+03  0.55109473157E+03  0.00000000000E+00 0. -1.
          3    1    5    5  503    0  0.16721513487E+03 -0.49022033217E+02 -0.19122655165E+03  0.25871152878E+03  0.00000000000E+00 0. -1.
         -4    1    5    5    0  503  0.15670769544E+03  0.24905804957E+02 -0.13241229125E+03  0.20666546834E+03  0.00000000000E+00 0.  1.
         -3    1    6    6    0  502 -0.69077879308E+02 -0.22147119533E+03  0.68522090863E+01  0.23209523162E+03  0.00000000000E+00 0.  1.
<mgrwt>
<rscale>  0 0.20142892E+04</rscale>
<asrwt>0</asrwt>
<pdfrwt beam="1">  1        2 0.27218435E+00 0.20142892E+04</pdfrwt>
<pdfrwt beam="2">  1       -2 0.88205117E-01 0.20142892E+04</pdfrwt>
<totfact> 0.92201645E+00</totfact>
</mgrwt>
</event>
<event>
12    1  0.1663913E-007  0.1802575E+04  0.7818608E-02  0.8704931E-01
         -1   -1    0    0    0  501 -0.00000000000E+00  0.00000000000E+00  0.65942727836E+03  0.65942727836E+03  0.00000000000E+00 0.  1.
          1   -1    0    0  501    0  0.00000000000E+00 -0.00000000000E+00 -0.12318557759E+04  0.12318557759E+04  0.00000000000E+00 0. -1.
         23    2    1    2    0    0  0.54111818198E+03 -0.17720707093E+03  0.16234883175E+03  0.59935407624E+03  0.93042639050E+02 0.  0.
        254    2    1    2    0    0 -0.54111818198E+03  0.17720707093E+03 -0.73477732924E+03  0.12919289780E+04  0.89720205513E+03 0.  0.
        -24    2    4    4    0    0  0.23563740096E+03  0.12428698994E+03 -0.22598764838E+03  0.35840040057E+03  0.80051166856E+02 0.  0.
         24    2    4    4    0    0 -0.77675558293E+03  0.52920080996E+02 -0.50878968086E+03  0.93352857740E+03  0.80367250125E+02 0.  0.
         11    1    3    3    0    0  0.49858018017E+03 -0.18708517379E+03  0.14174028586E+03  0.55106566482E+03  0.00000000000E+00 0.  1.
        -11    1    3    3    0    0  0.42538001811E+02  0.98781028550E+01  0.20608545888E+02  0.48288411422E+02  0.00000000000E+00 0. -1.
          4    1    6    6  502    0 -0.38056247111E+03  0.65877865501E+02 -0.24502767401E+03  0.45739069581E+03  0.00000000000E+00 0. -1.
          1    1    5    5  503    0  0.95830556763E+02  0.24549662964E+02 -0.12413713180E+03  0.15873313786E+03  0.00000000000E+00 0. -1.
         -2    1    5    5    0  503  0.13980684419E+03  0.99737326971E+02 -0.10185051658E+03  0.19966726272E+03  0.00000000000E+00 0.  1.
         -3    1    6    6    0  502 -0.39619311183E+03 -0.12957784505E+02 -0.26376200685E+03  0.47613788160E+03  0.00000000000E+00 0.  1.
<mgrwt>
<rscale>  0 0.18025752E+04</rscale>
<asrwt>0</asrwt>
<pdfrwt beam="1">  1        1 0.18951627E+00 0.18025752E+04</pdfrwt>
<pdfrwt beam="2">  1       -1 0.10145035E+00 0.18025752E+04</pdfrwt>
<totfact> 0.88118023E+00</totfact>
</mgrwt>
</event>
<event>
12    1  0.1663913E-007  0.1535932E+04  0.7818608E-02  0.8860904E-01
         -2   -1    0    0    0  501 -0.00000000000E+00  0.00000000000E+00  0.25445236737E+03  0.25445236737E+03  0.00000000000E+00 0.  1.
          2   -1    0    0  501    0  0.00000000000E+00 -0.00000000000E+00 -0.23178075906E+04  0.23178075906E+04  0.00000000000E+00 0. -1.
         23    2    1    2    0    0  0.17943820961E+03 -0.34283137250E+02  0.95693891149E+02  0.22544540626E+03  0.91076373634E+02 0.  0.
        254    2    1    2    0    0 -0.17943820961E+03  0.34283137250E+02 -0.21590491144E+04  0.23468145517E+04  0.90148325397E+03 0.  0.
        -24    2    4    4    0    0  0.97491353223E+02 -0.38252232266E+03 -0.78750875676E+03  0.88452485451E+03  0.79914235267E+02 0.  0.
         24    2    4    4    0    0 -0.27692956283E+03  0.41680545991E+03 -0.13715403576E+04  0.14622896972E+04  0.82167096365E+02 0.  0.
         11    1    3    3    0    0  0.85705559425E+01  0.21883686038E+02  0.50714226580E+01  0.24043075335E+02  0.00000000000E+00 0. -1.
        -11    1    3    3    0    0  0.17086765367E+03 -0.56166823288E+02  0.90622468491E+02  0.20140233093E+03  0.00000000000E+00 0.  1.
          4    1    6    6  502    0 -0.92750226798E+02  0.77233380705E+02 -0.34003219254E+03  0.36081780947E+03  0.00000000000E+00 0. -1.
          1    1    5    5  503    0  0.40207198417E+02 -0.98020704174E+02 -0.28746474659E+03  0.30636686796E+03  0.00000000000E+00 0. -1.
         -2    1    5    5    0  503  0.57284154806E+02 -0.28450161848E+03 -0.50004401016E+03  0.57815798655E+03  0.00000000000E+00 0.  1.
         -3    1    6    6    0  502 -0.18417933603E+03  0.33957207920E+03 -0.10315081651E+04  0.11014718877E+04  0.00000000000E+00 0.  1.
<mgrwt>
<rscale>  0 0.15359318E+04</rscale>
<asrwt>0</asrwt>
<pdfrwt beam="1">  1        2 0.35658577E+00 0.15359318E+04</pdfrwt>
<pdfrwt beam="2">  1       -2 0.39146520E-01 0.15359318E+04</pdfrwt>
<totfact> 0.26368892E+01</totfact>
</mgrwt>
</event>
<event>
12    1  0.1663913E-007  0.1977130E+04  0.7818608E-02  0.8617389E-01
          1   -1    0    0  501    0  0.00000000000E+00  0.00000000000E+00  0.11780146612E+04  0.11780146612E+04  0.00000000000E+00 0. -1.
         -1   -1    0    0    0  501 -0.00000000000E+00 -0.00000000000E+00 -0.82958263418E+03  0.82958263418E+03  0.00000000000E+00 0.  1.
         23    2    1    2    0    0 -0.52720958085E+03 -0.52797750478E+03  0.34453005196E+03  0.82692864131E+03  0.91650605182E+02 0.  0.
        254    2    1    2    0    0  0.52720958085E+03  0.52797750478E+03  0.39019750431E+01  0.11806686541E+04  0.91501533188E+03 0.  0.
        -24    2    4    4    0    0 -0.17666982202E+03  0.13354779289E+03 -0.23659961882E+03  0.33502208400E+03  0.84930431193E+02 0.  0.
         24    2    4    4    0    0  0.70387940287E+03  0.39442971188E+03  0.24050159386E+03  0.84564657005E+03  0.79095470091E+02 0.  0.
         11    1    3    3    0    0 -0.50323486418E+03 -0.50853893451E+03  0.30750912466E+03  0.77872911733E+03  0.00000000000E+00 0. -1.
        -11    1    3    3    0    0 -0.23974716673E+02 -0.19438570269E+02  0.37020927303E+02  0.48199523981E+02  0.00000000000E+00 0.  1.
          4    1    6    6  502    0  0.36521422242E+03  0.19039021231E+03  0.83537491162E+02  0.42024799063E+03  0.00000000000E+00 0. -1.
          3    1    5    5  503    0 -0.13645087401E+03  0.14074126777E+03 -0.18913984075E+03  0.27239828345E+03  0.00000000000E+00 0. -1.
         -4    1    5    5    0  503 -0.40218948015E+02 -0.71934748771E+01 -0.47459778072E+02  0.62623800546E+02  0.00000000000E+00 0.  1.
         -3    1    6    6    0  502  0.33866518046E+03  0.20403949957E+03  0.15696410270E+03  0.42539857942E+03  0.00000000000E+00 0.  1.
<mgrwt>
<rscale>  0 0.19771297E+04</rscale>
<asrwt>0</asrwt>
<pdfrwt beam="1">  1        1 0.18123303E+00 0.19771297E+04</pdfrwt>
<pdfrwt beam="2">  1       -1 0.12762810E+00 0.19771297E+04</pdfrwt>
<totfact> 0.54766936E+00</totfact>
</mgrwt>
</event>
<event>
12    1  0.1663913E-007  0.4040626E+04  0.7818608E-02  0.7996401E-01
          1   -1    0    0  501    0  0.00000000000E+00  0.00000000000E+00  0.39031625577E+04  0.39031625577E+04  0.00000000000E+00 0. -1.
         -1   -1    0    0    0  501 -0.00000000000E+00 -0.00000000000E+00 -0.10457328573E+04  0.10457328573E+04  0.00000000000E+00 0.  1.
         23    2    1    2    0    0 -0.11069781497E+04 -0.73581187270E+03 -0.33673737613E+03  0.13742436844E+04  0.91290238937E+02 0.  0.
        254    2    1    2    0    0  0.11069781497E+04  0.73581187270E+03  0.31941670766E+04  0.35746517306E+04  0.89922852826E+03 0.  0.
        -24    2    4    4    0    0  0.95138891084E+03  0.85809830006E+03  0.30706181191E+04  0.33281470635E+04  0.79960557149E+02 0.  0.
         24    2    4    4    0    0  0.15558923883E+03 -0.12228642737E+03  0.12354895754E+03  0.24650466714E+03  0.79612966636E+02 0.  0.
         11    1    3    3    0    0 -0.10988044963E+04 -0.73781934604E+03 -0.33182580872E+03  0.13644988369E+04  0.00000000000E+00 0.  1.
        -11    1    3    3    0    0 -0.81736533764E+01  0.20074733403E+01 -0.49115674115E+01  0.97448475190E+01  0.00000000000E+00 0. -1.
          2    1    6    6  502    0  0.28716340343E+02 -0.22166110179E+01  0.48449885253E+02  0.56364287879E+02  0.00000000000E+00 0. -1.
          1    1    5    5  503    0  0.36636536442E+03  0.28506018912E+03  0.11590912101E+04  0.12485893340E+04  0.00000000000E+00 0. -1.
         -2    1    5    5    0  503  0.58502354642E+03  0.57303811094E+03  0.19115269089E+04  0.20795577294E+04  0.00000000000E+00 0.  1.
         -1    1    6    6    0  502  0.12687289849E+03 -0.12006981635E+03  0.75099072288E+02  0.19014037926E+03  0.00000000000E+00 0.  1.
<mgrwt>
<rscale>  0 0.40406264E+04</rscale>
<asrwt>0</asrwt>
<pdfrwt beam="1">  1        1 0.60048654E+00 0.40406264E+04</pdfrwt>
<pdfrwt beam="2">  1       -1 0.16088198E+00 0.40406264E+04</pdfrwt>
<totfact> 0.26074495E-02</totfact>
</mgrwt>
</event>
<event>
12    1  0.1663913E-007  0.1096421E+04  0.7818608E-02  0.9208687E-01
          1   -1    0    0  501    0  0.00000000000E+00  0.00000000000E+00  0.95304336453E+03  0.95304336453E+03  0.00000000000E+00 0. -1.
         -1   -1    0    0    0  501 -0.00000000000E+00 -0.00000000000E+00 -0.31534204171E+03  0.31534204171E+03  0.00000000000E+00 0.  1.
         23    2    1    2    0    0 -0.10556604200E+03  0.94576725661E+02  0.99333712386E+02  0.20217265678E+03  0.10448756134E+03 0.  0.
        254    2    1    2    0    0  0.10556604200E+03 -0.94576725661E+02  0.53836761043E+03  0.10662127495E+04  0.90932997140E+03 0.  0.
        -24    2    4    4    0    0  0.42261505166E+02 -0.34533858853E+03  0.67340062585E+03  0.76249686917E+03  0.82995765311E+02 0.  0.
         24    2    4    4    0    0  0.63304536829E+02  0.25076186287E+03 -0.13503301541E+03  0.30371588029E+03  0.84382725939E+02 0.  0.
         11    1    3    3    0    0 -0.31747989520E+02 -0.20217399637E+02  0.34572382878E+02  0.51107022458E+02  0.00000000000E+00 0. -1.
        -11    1    3    3    0    0 -0.73818052475E+02  0.11479412530E+03  0.64761329508E+02  0.15106563432E+03  0.00000000000E+00 0.  1.
          2    1    6    6  502    0  0.61370413163E+02  0.22407605018E+03 -0.14644102074E+03  0.27462952578E+03  0.00000000000E+00 0. -1.
          3    1    5    5  503    0  0.62944141968E+02 -0.28332137376E+03  0.57901586931E+03  0.64768228535E+03  0.00000000000E+00 0. -1.
         -4    1    5    5    0  503 -0.20682636802E+02 -0.62017214765E+02  0.94384756538E+02  0.11481458383E+03  0.00000000000E+00 0.  1.
         -1    1    6    6    0  502  0.19341236661E+01  0.26685812685E+02  0.11408005325E+02  0.29086354507E+02  0.00000000000E+00 0.  1.
<mgrwt>
<rscale>  0 0.10964208E+04</rscale>
<asrwt>0</asrwt>
<pdfrwt beam="1">  1        1 0.14662205E+00 0.10964208E+04</pdfrwt>
<pdfrwt beam="2">  1       -1 0.48514161E-01 0.10964208E+04</pdfrwt>
<totfact> 0.69803769E+01</totfact>
</mgrwt>
</event>
<event>
12    1  0.1663913E-007  0.2513009E+04  0.7818608E-02  0.8398366E-01
         -2   -1    0    0    0  501 -0.00000000000E+00  0.00000000000E+00  0.79523088905E+03  0.79523088905E+03  0.00000000000E+00 0.  1.
          2   -1    0    0  501    0  0.00000000000E+00 -0.00000000000E+00 -0.19853395023E+04  0.19853395023E+04  0.00000000000E+00 0. -1.
         23    2    1    2    0    0  0.10078906695E+04  0.28614057931E+03 -0.87511913210E+03  0.13682849740E+04  0.93006676700E+02 0.  0.
        254    2    1    2    0    0 -0.10078906695E+04 -0.28614057931E+03 -0.31498948114E+03  0.14122854173E+04  0.89309108937E+03 0.  0.
        -24    2    4    4    0    0 -0.96984933470E+03 -0.46243714802E+03 -0.45597635203E+03  0.11701018284E+04  0.82267899084E+02 0.  0.
         24    2    4    4    0    0 -0.38041334823E+02  0.17629656871E+03  0.14098687089E+03  0.24218358897E+03  0.79044099756E+02 0.  0.
         13    1    3    3    0    0  0.84972923703E+02  0.18494108838E+01 -0.54196352063E+02  0.10080209651E+03  0.00000000000E+00 0.  1.
        -13    1    3    3    0    0  0.92291774582E+03  0.28429116843E+03 -0.82092278004E+03  0.12674828775E+04  0.00000000000E+00 0. -1.
          4    1    6    6  502    0 -0.45913056689E+02  0.14942926608E+03  0.81174462111E+02  0.17614314530E+03  0.00000000000E+00 0. -1.
          3    1    5    5  503    0 -0.72154409380E+03 -0.32073725976E+03 -0.36654890310E+03  0.87054946296E+03  0.00000000000E+00 0. -1.
         -4    1    5    5    0  503 -0.24830524090E+03 -0.14169988826E+03 -0.89427448937E+02  0.29955236540E+03  0.00000000000E+00 0.  1.
         -3    1    6    6    0  502  0.78717218658E+01  0.26867302627E+02  0.59812408781E+02  0.66040443668E+02  0.00000000000E+00 0.  1.
<mgrwt>
<rscale>  0 0.25130088E+04</rscale>
<asrwt>0</asrwt>
<pdfrwt beam="1">  1        2 0.30543684E+00 0.25130088E+04</pdfrwt>
<pdfrwt beam="2">  1       -2 0.12234321E+00 0.25130088E+04</pdfrwt>
<totfact> 0.30691162E+00</totfact>
</mgrwt>
</event>
<event>
12    1  0.1663913E-007  0.1322147E+04  0.7818608E-02  0.9012184E-01
          2   -1    0    0  501    0  0.00000000000E+00  0.00000000000E+00  0.17692757912E+04  0.17692757912E+04  0.00000000000E+00 0. -1.
         -2   -1    0    0    0  501 -0.00000000000E+00 -0.00000000000E+00 -0.24700404678E+03  0.24700404678E+03  0.00000000000E+00 0.  1.
         23    2    1    2    0    0  0.28655359189E+03  0.11275562108E+03  0.16025807678E+03  0.35892180797E+03  0.91188935475E+02 0.  0.
        254    2    1    2    0    0 -0.28655359189E+03 -0.11275562108E+03  0.13620136676E+04  0.16573580300E+04  0.89270802490E+03 0.  0.
        -24    2    4    4    0    0 -0.52042235530E+03 -0.20451887099E+03  0.12486178676E+04  0.13705043943E+04  0.81045166581E+02 0.  0.
         24    2    4    4    0    0  0.23386876341E+03  0.91763249904E+02  0.11339580002E+03  0.28685363570E+03  0.79443743128E+02 0.  0.
         13    1    3    3    0    0  0.23185589332E+03  0.48871158057E+02  0.11420531150E+03  0.26303687675E+03  0.00000000000E+00 0.  1.
        -13    1    3    3    0    0  0.54697698573E+02  0.63884463025E+02  0.46052765285E+02  0.95884931223E+02  0.00000000000E+00 0. -1.
          2    1    6    6  502    0  0.21584549224E+02  0.23171655703E+02  0.42033502072E+02  0.52627309352E+02  0.00000000000E+00 0. -1.
          3    1    5    5  503    0 -0.95620811462E+02 -0.71067273259E+02  0.23852893773E+03  0.26662698860E+03  0.00000000000E+00 0. -1.
         -4    1    5    5    0  503 -0.42480154383E+03 -0.13345159773E+03  0.10100889299E+04  0.11038774057E+04  0.00000000000E+00 0.  1.
         -1    1    6    6    0  502  0.21228421418E+03  0.68591594201E+02  0.71362297949E+02  0.23422632635E+03  0.00000000000E+00 0.  1.
<mgrwt>
<rscale>  0 0.13221472E+04</rscale>
<asrwt>0</asrwt>
<pdfrwt beam="1">  1        2 0.27219627E+00 0.13221472E+04</pdfrwt>
<pdfrwt beam="2">  1       -2 0.38000624E-01 0.13221472E+04</pdfrwt>
<totfact> 0.57413371E+01</totfact>
</mgrwt>
</event>
<event>
12    1  0.1663913E-007  0.1226424E+04  0.7818608E-02  0.9090037E-01
          2   -1    0    0  501    0  0.00000000000E+00  0.00000000000E+00  0.18298228118E+04  0.18298228118E+04  0.00000000000E+00 0.  1.
         -2   -1    0    0    0  501 -0.00000000000E+00 -0.00000000000E+00 -0.20550014642E+03  0.20550014642E+03  0.00000000000E+00 0. -1.
         23    2    1    2    0    0 -0.88725118972E+00  0.26950583999E+03  0.12790707832E+03  0.31192084387E+03  0.91105472662E+02 0.  0.
        254    2    1    2    0    0  0.88725118972E+00 -0.26950583999E+03  0.14964155871E+04  0.17234021144E+04  0.81130823585E+03 0.  0.
        -24    2    4    4    0    0 -0.19429642083E+03  0.13071320921E+03  0.12003967808E+03  0.27495348474E+03  0.79704781845E+02 0.  0.
         24    2    4    4    0    0  0.19518367202E+03 -0.40021904921E+03  0.13763759090E+04  0.14484486296E+04  0.72944065000E+02 0.  0.
         13    1    3    3    0    0  0.30229213475E+01  0.27184725821E+03  0.10971735571E+03  0.29316883872E+03  0.00000000000E+00 0. -1.
        -13    1    3    3    0    0 -0.39101725373E+01 -0.23414182174E+01  0.18189722610E+02  0.18752005150E+02  0.00000000000E+00 0.  1.
          2    1    6    6  502    0  0.18088846111E+03 -0.39068754560E+03  0.13498365378E+04  0.14168331138E+04  0.00000000000E+00 0. -1.
          1    1    5    5  503    0 -0.10095272154E+03  0.38468497266E+02  0.19838308228E+02  0.10984004616E+03  0.00000000000E+00 0. -1.
         -2    1    5    5    0  503 -0.93343699293E+02  0.92244711946E+02  0.10020136985E+03  0.16511343858E+03  0.00000000000E+00 0.  1.
         -1    1    6    6    0  502  0.14295210912E+02 -0.95315036071E+01  0.26539371242E+02  0.31615515842E+02  0.00000000000E+00 0.  1.
<mgrwt>
<rscale>  0 0.12264238E+04</rscale>
<asrwt>0</asrwt>
<pdfrwt beam="1">  1        2 0.28151119E+00 0.12264238E+04</pdfrwt>
<pdfrwt beam="2">  1       -2 0.31615408E-01 0.12264238E+04</pdfrwt>
<totfact> 0.76061086E+01</totfact>
</mgrwt>
</event>
<event>
12    1  0.1663913E-007  0.1251848E+04  0.7818608E-02  0.9068647E-01
         -1   -1    0    0    0  501 -0.00000000000E+00  0.00000000000E+00  0.35728313170E+03  0.35728313170E+03  0.00000000000E+00 0.  1.
          1   -1    0    0  501    0  0.00000000000E+00 -0.00000000000E+00 -0.10965551258E+04  0.10965551258E+04  0.00000000000E+00 0. -1.
         23    2    1    2    0    0 -0.23833063669E+03  0.48793051141E+02  0.26644500017E+01  0.25817333339E+03  0.86395118821E+02 0.  0.
        254    2    1    2    0    0  0.23833063669E+03 -0.48793051141E+02 -0.74193644410E+03  0.11956649241E+04  0.90551790121E+03 0.  0.
        -24    2    4    4    0    0  0.48644407927E+03  0.23567747342E+03 -0.49648148001E+03  0.73822158394E+03  0.79407388023E+02 0.  0.
         24    2    4    4    0    0 -0.24811344258E+03 -0.28447052456E+03 -0.24545496409E+03  0.45744334016E+03  0.80762059942E+02 0.  0.
         11    1    3    3    0    0 -0.19343841462E+03  0.66723734383E+02  0.22633104821E+02  0.20587067400E+03  0.00000000000E+00 0.  1.
        -11    1    3    3    0    0 -0.44892222075E+02 -0.17930683241E+02 -0.19968654819E+02  0.52302659393E+02  0.00000000000E+00 0. -1.
          4    1    6    6  502    0 -0.80463373312E+02 -0.50804102342E+02 -0.87803066157E+02  0.12947891599E+03  0.00000000000E+00 0. -1.
          3    1    5    5  503    0  0.82224324237E+02  0.64122413521E+02 -0.66690057023E+02  0.12377433950E+03  0.00000000000E+00 0. -1.
         -4    1    5    5    0  503  0.40421975503E+03  0.17155505990E+03 -0.42979142298E+03  0.61444724444E+03  0.00000000000E+00 0.  1.
         -3    1    6    6    0  502 -0.16765006927E+03 -0.23366642222E+03 -0.15765189794E+03  0.32796442417E+03  0.00000000000E+00 0.  1.
<mgrwt>
<rscale>  0 0.12518477E+04</rscale>
<asrwt>0</asrwt>
<pdfrwt beam="1">  1        1 0.16870079E+00 0.12518477E+04</pdfrwt>
<pdfrwt beam="2">  1       -1 0.54966636E-01 0.12518477E+04</pdfrwt>
<totfact> 0.42063197E+01</totfact>
</mgrwt>
</event>
<event>
12    1  0.1663913E-007  0.1803293E+04  0.7818608E-02  0.8704550E-01
         -2   -1    0    0    0  501 -0.00000000000E+00  0.00000000000E+00  0.11047169389E+04  0.11047169389E+04  0.00000000000E+00 0.  1.
          2   -1    0    0  501    0  0.00000000000E+00 -0.00000000000E+00 -0.73590434678E+03  0.73590434678E+03  0.00000000000E+00 0. -1.
         23    2    1    2    0    0 -0.52895897253E+03 -0.92713833760E+02 -0.27717330925E+03  0.61106495209E+03  0.90453760092E+02 0.  0.
        254    2    1    2    0    0  0.52895897253E+03  0.92713833760E+02  0.64598590139E+03  0.12295563336E+04  0.89784048869E+03 0.  0.
        -24    2    4    4    0    0 -0.17960250911E+02 -0.24658998993E+03  0.50187204557E+03  0.56490966139E+03  0.78218806311E+02 0.  0.
         24    2    4    4    0    0  0.54691922344E+03  0.33930382369E+03  0.14411385582E+03  0.66464667221E+03  0.82089425078E+02 0.  0.
         13    1    3    3    0    0 -0.14240613918E+03  0.90382800002E+01 -0.49394881702E+02  0.15100017656E+03  0.00000000000E+00 0. -1.
        -13    1    3    3    0    0 -0.38655283335E+03 -0.10175211376E+03 -0.22777842755E+03  0.46006477553E+03  0.00000000000E+00 0.  1.
          4    1    6    6  502    0  0.35616683542E+03  0.17526269023E+03  0.97951597570E+02  0.40885980569E+03  0.00000000000E+00 0. -1.
          1    1    5    5  503    0 -0.70117245176E+01 -0.35225006538E+02  0.26763279550E+02  0.44791053779E+02  0.00000000000E+00 0. -1.
         -2    1    5    5    0  503 -0.10948526394E+02 -0.21136498339E+03  0.47510876602E+03  0.52011860761E+03  0.00000000000E+00 0.  1.
         -3    1    6    6    0  502  0.19075238802E+03  0.16404113346E+03  0.46162258246E+02  0.25578686653E+03  0.00000000000E+00 0.  1.
<mgrwt>
<rscale>  0 0.18032925E+04</rscale>
<asrwt>0</asrwt>
<pdfrwt beam="1">  1        2 0.11321605E+00 0.18032925E+04</pdfrwt>
<pdfrwt beam="2">  1       -2 0.16995645E+00 0.18032925E+04</pdfrwt>
<totfact> 0.77318496E+00</totfact>
</mgrwt>
</event>
<event>
12    1  0.1663913E-007  0.1151425E+04  0.7818608E-02  0.9156470E-01
         -2   -1    0    0    0  501 -0.00000000000E+00  0.00000000000E+00  0.16637138601E+04  0.16637138601E+04  0.00000000000E+00 0. -1.
          2   -1    0    0  501    0  0.00000000000E+00 -0.00000000000E+00 -0.19921983254E+03  0.19921983254E+03  0.00000000000E+00 0.  1.
         23    2    1    2    0    0  0.14212092480E+02 -0.21026033469E+03  0.28382417413E+03  0.36513411777E+03  0.91407714225E+02 0.  0.
        254    2    1    2    0    0 -0.14212092480E+02  0.21026033469E+03  0.11806698534E+04  0.14977995748E+04  0.89722398081E+03 0.  0.
        -24    2    4    4    0    0  0.25480148842E+03  0.46797501242E+03  0.64542159681E+03  0.84086691167E+03  0.81016756028E+02 0.  0.
         24    2    4    4    0    0 -0.26901358090E+03 -0.25771467773E+03  0.53524825661E+03  0.65693266318E+03  0.79275884867E+02 0.  0.
         13    1    3    3    0    0  0.12558925521E+02 -0.16131831860E+03  0.14265376727E+03  0.21571143651E+03  0.00000000000E+00 0. -1.
        -13    1    3    3    0    0  0.16531669591E+01 -0.48942016092E+02  0.14117040686E+03  0.14942268125E+03  0.00000000000E+00 0.  1.
          2    1    6    6  502    0 -0.11741424157E+03 -0.13903215854E+03  0.20052617088E+03  0.27078919927E+03  0.00000000000E+00 0. -1.
          3    1    5    5  503    0  0.23349320898E+03  0.37821853962E+03  0.50381068550E+03  0.67185828057E+03  0.00000000000E+00 0. -1.
         -2    1    5    5    0  503  0.21308279444E+02  0.89756472803E+02  0.14161091131E+03  0.16900863110E+03  0.00000000000E+00 0.  1.
         -1    1    6    6    0  502 -0.15159933933E+03 -0.11868251919E+03  0.33472208573E+03  0.38614346391E+03  0.00000000000E+00 0.  1.
<mgrwt>
<rscale>  0 0.11514249E+04</rscale>
<asrwt>0</asrwt>
<pdfrwt beam="1">  1        2 0.30649206E-01 0.11514249E+04</pdfrwt>
<pdfrwt beam="2">  1       -2 0.25595597E+00 0.11514249E+04</pdfrwt>
<totfact> 0.10204373E+01</totfact>
</mgrwt>
</event>
<event>
12    1  0.1663913E-007  0.1230716E+04  0.7818608E-02  0.9086387E-01
          2   -1    0    0  501    0  0.00000000000E+00  0.00000000000E+00  0.26024698142E+03  0.26024698142E+03  0.00000000000E+00 0. -1.
         -2   -1    0    0    0  501 -0.00000000000E+00 -0.00000000000E+00 -0.14550241818E+04  0.14550241818E+04  0.00000000000E+00 0.  1.
         23    2    1    2    0    0 -0.19704722585E+03  0.65569853211E+02 -0.54099998491E+03  0.58606614125E+03  0.87552974720E+02 0.  0.
        254    2    1    2    0    0  0.19704722585E+03 -0.65569853211E+02 -0.65377721543E+03  0.11292050219E+04  0.89696840484E+03 0.  0.
        -24    2    4    4    0    0  0.51563474995E+03  0.10713389872E+03 -0.27714063874E+03  0.60035250626E+03  0.79115930859E+02 0.  0.
         24    2    4    4    0    0 -0.31858752410E+03 -0.17270375194E+03 -0.37663657669E+03  0.52885251567E+03  0.80655291168E+02 0.  0.
         11    1    3    3    0    0  0.43000516078E+01 -0.90002186659E+01 -0.15970615556E+02  0.18829629340E+02  0.00000000000E+00 0. -1.
        -11    1    3    3    0    0 -0.20134727746E+03  0.74570071877E+02 -0.52502936935E+03  0.56723651191E+03  0.00000000000E+00 0.  1.
          2    1    6    6  502    0 -0.29780601459E+03 -0.13312306802E+03 -0.32355577662E+03  0.45945458334E+03  0.00000000000E+00 0. -1.
          3    1    5    5  503    0  0.46091123033E+03  0.11349477973E+03 -0.22829371419E+03  0.52672407123E+03  0.00000000000E+00 0. -1.
         -4    1    5    5    0  503  0.54723519616E+02 -0.63608810094E+01 -0.48846924552E+02  0.73628435027E+02  0.00000000000E+00 0.  1.
         -3    1    6    6    0  502 -0.20781509502E+02 -0.39580683918E+02 -0.53080800061E+02  0.69397932330E+02  0.00000000000E+00 0.  1.
<mgrwt>
<rscale>  0 0.12307163E+04</rscale>
<asrwt>0</asrwt>
<pdfrwt beam="1">  1        2 0.40037997E-01 0.12307163E+04</pdfrwt>
<pdfrwt beam="2">  1       -2 0.22384987E+00 0.12307163E+04</pdfrwt>
<totfact> 0.11847268E+01</totfact>
</mgrwt>
</event>
<event>
12    1  0.1663913E-007  0.1685792E+04  0.7818608E-02  0.8769509E-01
         -1   -1    0    0    0  501 -0.00000000000E+00  0.00000000000E+00  0.32279309852E+03  0.32279309852E+03  0.00000000000E+00 0.  1.
          1   -1    0    0  501    0  0.00000000000E+00 -0.00000000000E+00 -0.22010191012E+04  0.22010191012E+04  0.00000000000E+00 0. -1.
         23    2    1    2    0    0 -0.97336667735E+02  0.48713250256E+03 -0.17072290456E+03  0.53293997987E+03  0.90034493768E+02 0.  0.
        254    2    1    2    0    0  0.97336667735E+02 -0.48713250256E+03 -0.17075030981E+04  0.19908722198E+04  0.89511611746E+03 0.  0.
        -24    2    4    4    0    0 -0.16023626831E+03 -0.41867419976E+03 -0.16412598863E+04  0.17031869353E+04  0.78409023581E+02 0.  0.
         24    2    4    4    0    0  0.25757293605E+03 -0.68458302793E+02 -0.66243211815E+02  0.28768528454E+03  0.85698910293E+02 0.  0.
         11    1    3    3    0    0 -0.76488923415E+01  0.14262734520E+03 -0.86987778000E+02  0.16723617633E+03  0.00000000000E+00 0.  1.
        -11    1    3    3    0    0 -0.89687775393E+02  0.34450515736E+03 -0.83735126555E+02  0.36570380354E+03  0.00000000000E+00 0. -1.
          4    1    6    6  502    0  0.18257867010E+03 -0.83854637828E+02 -0.30581201872E+02  0.20322839607E+03  0.00000000000E+00 0. -1.
          1    1    5    5  503    0 -0.41466647501E+02 -0.19885970352E+03 -0.81824623773E+03  0.84308455691E+03  0.00000000000E+00 0. -1.
         -2    1    5    5    0  503 -0.11876962081E+03 -0.21981449624E+03 -0.82301364855E+03  0.86010237837E+03  0.00000000000E+00 0.  1.
         -3    1    6    6    0  502  0.74994265945E+02  0.15396335035E+02 -0.35662009943E+02  0.84456888471E+02  0.00000000000E+00 0.  1.
<mgrwt>
<rscale>  0 0.16857921E+04</rscale>
<asrwt>0</asrwt>
<pdfrwt beam="1">  1        1 0.33861833E+00 0.16857921E+04</pdfrwt>
<pdfrwt beam="2">  1       -1 0.49660476E-01 0.16857921E+04</pdfrwt>
<totfact> 0.84323251E+00</totfact>
</mgrwt>
</event>
<event>
12    1  0.1663913E-007  0.1755869E+04  0.7818608E-02  0.8730126E-01
         -2   -1    0    0    0  501 -0.00000000000E+00  0.00000000000E+00  0.70968359768E+03  0.70968359768E+03  0.00000000000E+00 0. -1.
          2   -1    0    0  501    0  0.00000000000E+00 -0.00000000000E+00 -0.10860742643E+04  0.10860742643E+04  0.00000000000E+00 0.  1.
         23    2    1    2    0    0 -0.28410976862E+03  0.10575572703E+01 -0.73161490584E+03  0.79008652669E+03  0.90867321764E+02 0.  0.
        254    2    1    2    0    0  0.28410976862E+03 -0.10575572703E+01  0.35522423923E+03  0.10056713353E+04  0.89692312682E+03 0.  0.
        -24    2    4    4    0    0  0.51686173874E+03  0.14852163795E+03  0.44786543490E+03  0.70405543811E+03  0.76849712068E+02 0.  0.
         24    2    4    4    0    0 -0.23275197012E+03 -0.14957919522E+03 -0.92641195674E+02  0.30161589717E+03  0.76435221267E+02 0.  0.
         13    1    3    3    0    0 -0.28497051536E+01  0.22163863500E+01 -0.83437571960E+02  0.83515636874E+02  0.00000000000E+00 0. -1.
        -13    1    3    3    0    0 -0.28126006347E+03 -0.11588290797E+01 -0.64817733388E+03  0.70657088982E+03  0.00000000000E+00 0.  1.
          2    1    6    6  502    0 -0.95472852563E+02 -0.87957421222E+02 -0.75486765623E+02  0.15016599252E+03  0.00000000000E+00 0. -1.
          3    1    5    5  503    0  0.15387588180E+03  0.24835575115E+02  0.92578952774E+02  0.18128832088E+03  0.00000000000E+00 0. -1.
         -2    1    5    5    0  503  0.36298585695E+03  0.12368606284E+03  0.35528648212E+03  0.52276711724E+03  0.00000000000E+00 0.  1.
         -1    1    6    6    0  502 -0.13727911756E+03 -0.61621774003E+02 -0.17154430051E+02  0.15144990465E+03  0.00000000000E+00 0.  1.
<mgrwt>
<rscale>  0 0.17558691E+04</rscale>
<asrwt>0</asrwt>
<pdfrwt beam="1">  1        2 0.16708835E+00 0.17558691E+04</pdfrwt>
<pdfrwt beam="2">  1       -2 0.10918209E+00 0.17558691E+04</pdfrwt>
<totfact> 0.14087388E+01</totfact>
</mgrwt>
</event>
<event>
12    1  0.1663913E-007  0.3072453E+04  0.7818608E-02  0.8223339E-01
          2   -1    0    0  501    0  0.00000000000E+00  0.00000000000E+00  0.36400519057E+04  0.36400519057E+04  0.00000000000E+00 0. -1.
         -2   -1    0    0    0  501 -0.00000000000E+00 -0.00000000000E+00 -0.64834006282E+03  0.64834006282E+03  0.00000000000E+00 0.  1.
         23    2    1    2    0    0 -0.10495246427E+04  0.50924207387E+03  0.28195831922E+03  0.12037322914E+04  0.92959508199E+02 0.  0.
        254    2    1    2    0    0  0.10495246427E+04 -0.50924207387E+03  0.27097535237E+04  0.30846596772E+04  0.90085054211E+03 0.  0.
        -24    2    4    4    0    0 -0.77944647653E+02  0.70832972048E+02  0.65407588317E+03  0.66773950496E+03  0.83475191014E+02 0.  0.
         24    2    4    4    0    0  0.11274692904E+04 -0.58007504592E+03  0.20556776405E+04  0.24169201722E+04  0.89546062896E+02 0.  0.
         13    1    3    3    0    0 -0.10948196696E+03  0.41695833024E+02  0.55762512158E+02  0.12974706680E+03  0.00000000000E+00 0. -1.
        -13    1    3    3    0    0 -0.94004267574E+03  0.46754624085E+03  0.22619580706E+03  0.10739852246E+04  0.00000000000E+00 0.  1.
          4    1    6    6  502    0  0.11252967103E+04 -0.58306499061E+03  0.20489194466E+04  0.24092173766E+04  0.00000000000E+00 0. -1.
          1    1    5    5  503    0 -0.84878957343E+02  0.57243915337E+02  0.63553787166E+03  0.64373106928E+03  0.00000000000E+00 0. -1.
         -2    1    5    5    0  503  0.69343096895E+01  0.13589056711E+02  0.18538011515E+02  0.24008435686E+02  0.00000000000E+00 0.  1.
         -3    1    6    6    0  502  0.21725800652E+01  0.29899446925E+01  0.67581939678E+01  0.77027955387E+01  0.00000000000E+00 0.  1.
<mgrwt>
<rscale>  0 0.30724528E+04</rscale>
<asrwt>0</asrwt>
<pdfrwt beam="1">  1        2 0.56000798E+00 0.30724528E+04</pdfrwt>
<pdfrwt beam="2">  1       -2 0.99744627E-01 0.30724528E+04</pdfrwt>
<totfact> 0.45625857E-01</totfact>
</mgrwt>
</event>
<event>
12    1  0.1663913E-007  0.1475114E+04  0.7818608E-02  0.8901172E-01
          2   -1    0    0  501    0  0.00000000000E+00  0.00000000000E+00  0.15686139642E+04  0.15686139642E+04  0.00000000000E+00 0. -1.
         -2   -1    0    0    0  501 -0.00000000000E+00 -0.00000000000E+00 -0.34679702378E+03  0.34679702378E+03  0.00000000000E+00 0.  1.
         23    2    1    2    0    0  0.32484759255E+03  0.23195095516E+03  0.10973543434E+03  0.42373049308E+03  0.90434845237E+02 0.  0.
        254    2    1    2    0    0 -0.32484759255E+03 -0.23195095516E+03  0.11120815060E+04  0.14916804949E+04  0.91052634156E+03 0.  0.
        -24    2    4    4    0    0  0.12686800947E+03 -0.11595398695E+03 -0.82474183509E+02  0.20679511740E+03  0.80133705265E+02 0.  0.
         24    2    4    4    0    0 -0.45171560201E+03 -0.11599696820E+03  0.11945556895E+04  0.12848853775E+04  0.80404328390E+02 0.  0.
         13    1    3    3    0    0  0.13792397918E+03  0.98363218976E+02  0.67484299308E+00  0.16940720850E+03  0.00000000000E+00 0.  1.
        -13    1    3    3    0    0  0.18692361337E+03  0.13358773618E+03  0.10906059134E+03  0.25432328457E+03  0.00000000000E+00 0. -1.
          4    1    6    6  502    0 -0.36572186533E+02 -0.19411825931E+02  0.59926050651E+02  0.72838694115E+02  0.00000000000E+00 0. -1.
          1    1    5    5  503    0  0.21462803060E+02 -0.25387385264E+02  0.15581303317E+02  0.36714414864E+02  0.00000000000E+00 0. -1.
         -2    1    5    5    0  503  0.10540520641E+03 -0.90566601689E+02 -0.98055486827E+02  0.17008070254E+03  0.00000000000E+00 0.  1.
         -3    1    6    6    0  502 -0.41514341548E+03 -0.96585142272E+02  0.11346296389E+04  0.12120466833E+04  0.00000000000E+00 0.  1.
<mgrwt>
<rscale>  0 0.14751144E+04</rscale>
<asrwt>0</asrwt>
<pdfrwt beam="1">  1        2 0.24132522E+00 0.14751144E+04</pdfrwt>
<pdfrwt beam="2">  1       -2 0.53353389E-01 0.14751144E+04</pdfrwt>
<totfact> 0.37217964E+01</totfact>
</mgrwt>
</event>
<event>
12    1  0.1663913E-007  0.1386808E+04  0.7818608E-02  0.8963423E-01
         -2   -1    0    0    0  501 -0.00000000000E+00  0.00000000000E+00  0.11052601628E+04  0.11052601628E+04  0.00000000000E+00 0.  1.
          2   -1    0    0  501    0  0.00000000000E+00 -0.00000000000E+00 -0.43501890093E+03  0.43501890093E+03  0.00000000000E+00 0. -1.
         23    2    1    2    0    0 -0.41945481020E+02  0.37682183003E+03  0.66468081577E+02  0.39558501560E+03  0.91188725904E+02 0.  0.
        254    2    1    2    0    0  0.41945481020E+02 -0.37682183003E+03  0.60377318026E+03  0.11446940481E+04  0.89556032493E+03 0.  0.
        -24    2    4    4    0    0 -0.25774571896E+03  0.13735009248E+03  0.14684111838E+02  0.30345311731E+03  0.81057187938E+02 0.  0.
         24    2    4    4    0    0  0.29969119998E+03 -0.51417192252E+03  0.58908906842E+03  0.84124093079E+03  0.80453662810E+02 0.  0.
         11    1    3    3    0    0  0.20779956238E+02  0.77202029435E+02  0.36871429669E+02  0.88042388972E+02  0.00000000000E+00 0.  1.
        -11    1    3    3    0    0 -0.62725437257E+02  0.29961980060E+03  0.29596651909E+02  0.30754262663E+03  0.00000000000E+00 0. -1.
          2    1    6    6  502    0  0.25972473892E+03 -0.45389599603E+03  0.55039247941E+03  0.75921696280E+03  0.00000000000E+00 0. -1.
          3    1    5    5  503    0 -0.95358137820E+02  0.96350601454E+02  0.94135889496E+01  0.13588682241E+03  0.00000000000E+00 0. -1.
         -4    1    5    5    0  503 -0.16238758114E+03  0.40999491031E+02  0.52705228880E+01  0.16756629489E+03  0.00000000000E+00 0.  1.
         -1    1    6    6    0  502  0.39966461057E+02 -0.60275926491E+02  0.38696589009E+02  0.82023967989E+02  0.00000000000E+00 0.  1.
<mgrwt>
<rscale>  0 0.13868079E+04</rscale>
<asrwt>0</asrwt>
<pdfrwt beam="1">  1        2 0.66925985E-01 0.13868079E+04</pdfrwt>
<pdfrwt beam="2">  1       -2 0.17004002E+00 0.13868079E+04</pdfrwt>
<totfact> 0.14983710E+01</totfact>
</mgrwt>
</event>
<event>
12    1  0.1663913E-007  0.1403387E+04  0.7818608E-02  0.8951370E-01
         -1   -1    0    0    0  501 -0.00000000000E+00  0.00000000000E+00  0.17071444258E+03  0.17071444258E+03  0.00000000000E+00 0.  1.
          1   -1    0    0  501    0  0.00000000000E+00 -0.00000000000E+00 -0.28841962907E+04  0.28841962907E+04  0.00000000000E+00 0. -1.
         23    2    1    2    0    0  0.35399833696E+02  0.58913152836E+02  0.61202328541E+02  0.12915541060E+03  0.90617256999E+02 0.  0.
        254    2    1    2    0    0 -0.35399833696E+02 -0.58913152836E+02 -0.27746841766E+04  0.29257553226E+04  0.92544476883E+03 0.  0.
        -24    2    4    4    0    0 -0.42561544016E+03 -0.19235768711E+03 -0.18564313545E+04  0.19160328601E+04  0.81820317844E+02 0.  0.
         24    2    4    4    0    0  0.39021560646E+03  0.13344453427E+03 -0.91825282213E+03  0.10097224625E+04  0.79218323134E+02 0.  0.
         11    1    3    3    0    0  0.15481737266E+02  0.16498416552E+02  0.76568753568E+02  0.79841442625E+02  0.00000000000E+00 0.  1.
        -11    1    3    3    0    0  0.19918096430E+02  0.42414736284E+02 -0.15366425027E+02  0.49313967976E+02  0.00000000000E+00 0. -1.
          4    1    6    6  502    0  0.27813140896E+03  0.56094167426E+02 -0.62576960937E+03  0.68708896096E+03  0.00000000000E+00 0. -1.
          3    1    5    5  503    0 -0.31697086695E+03 -0.13800408601E+03 -0.12163257693E+04  0.12645014968E+04  0.00000000000E+00 0. -1.
         -4    1    5    5    0  503 -0.10864457321E+03 -0.54353601101E+02 -0.64010558517E+03  0.65153136333E+03  0.00000000000E+00 0.  1.
         -1    1    6    6    0  502  0.11208419750E+03  0.77350366848E+02 -0.29248321277E+03  0.32263350156E+03  0.00000000000E+00 0.  1.
<mgrwt>
<rscale>  0 0.14033873E+04</rscale>
<asrwt>0</asrwt>
<pdfrwt beam="1">  1        1 0.44372250E+00 0.14033873E+04</pdfrwt>
<pdfrwt beam="2">  1       -1 0.26263761E-01 0.14033873E+04</pdfrwt>
<totfact> 0.91571415E+00</totfact>
</mgrwt>
</event>
<event>
12    1  0.1663913E-007  0.1078658E+04  0.7818608E-02  0.9226246E-01
         -2   -1    0    0    0  501 -0.00000000000E+00  0.00000000000E+00  0.23200082835E+03  0.23200082835E+03  0.00000000000E+00 0.  1.
          2   -1    0    0  501    0  0.00000000000E+00 -0.00000000000E+00 -0.12537706326E+04  0.12537706326E+04  0.00000000000E+00 0. -1.
         23    2    1    2    0    0  0.65457054148E+02 -0.62103564499E+02  0.56208963434E+02  0.13852409193E+03  0.88814400932E+02 0.  0.
        254    2    1    2    0    0 -0.65457054148E+02  0.62103564499E+02 -0.10779787676E+04  0.13472473690E+04  0.80305402751E+03 0.  0.
        -24    2    4    4    0    0 -0.36524784909E+03  0.15500182537E+03 -0.87815011980E+03  0.96686877775E+03  0.79095153804E+02 0.  0.
         24    2    4    4    0    0  0.29979079495E+03 -0.92898260873E+02 -0.19982864784E+03  0.38037859124E+03  0.79068176685E+02 0.  0.
         11    1    3    3    0    0  0.44827968536E+02  0.14495171621E+02  0.24395594169E+02  0.53054705524E+02  0.00000000000E+00 0. -1.
        -11    1    3    3    0    0  0.20629085612E+02 -0.76598736119E+02  0.31813369265E+02  0.85469386404E+02  0.00000000000E+00 0.  1.
          4    1    6    6  502    0  0.86649554442E+02 -0.56058382546E+02 -0.36979588311E+02  0.10962744862E+03  0.00000000000E+00 0. -1.
          1    1    5    5  503    0  0.16433180260E+01  0.69502939846E+01 -0.32074719071E+02  0.32860229520E+02  0.00000000000E+00 0. -1.
         -2    1    5    5    0  503 -0.36689116712E+03  0.14805153139E+03 -0.84607540072E+03  0.93400854823E+03  0.00000000000E+00 0.  1.
         -3    1    6    6    0  502  0.21314124050E+03 -0.36839878326E+02 -0.16284905953E+03  0.27075114262E+03  0.00000000000E+00 0.  1.
<mgrwt>
<rscale>  0 0.10786581E+04</rscale>
<asrwt>0</asrwt>
<pdfrwt beam="1">  1        2 0.19288779E+00 0.10786581E+04</pdfrwt>
<pdfrwt beam="2">  1       -2 0.35692434E-01 0.10786581E+04</pdfrwt>
<totfact> 0.12893751E+02</totfact>
</mgrwt>
</event>
<event>
12    1  0.1663913E-007  0.1756237E+04  0.7818608E-02  0.8729924E-01
         -1   -1    0    0    0  501 -0.00000000000E+00  0.00000000000E+00  0.55232028844E+03  0.55232028844E+03  0.00000000000E+00 0.  1.
          1   -1    0    0  501    0  0.00000000000E+00 -0.00000000000E+00 -0.13960964902E+04  0.13960964902E+04  0.00000000000E+00 0. -1.
         23    2    1    2    0    0  0.24027299552E+02 -0.62143208327E+02 -0.10096095567E+04  0.10160346210E+04  0.92605640344E+02 0.  0.
        254    2    1    2    0    0 -0.24027299552E+02  0.62143208327E+02  0.16583335503E+03  0.93238215756E+03  0.91509381849E+03 0.  0.
        -24    2    4    4    0    0  0.36653010261E+03  0.24755682499E+03 -0.32243133414E+02  0.45014292256E+03  0.77203195304E+02 0.  0.
         24    2    4    4    0    0 -0.39055740216E+03 -0.18541361666E+03  0.19807648844E+03  0.48223923500E+03  0.80044305695E+02 0.  0.
         11    1    3    3    0    0  0.46022267827E+02 -0.72446900702E+02 -0.87944662160E+03  0.88362489938E+03  0.00000000000E+00 0. -1.
        -11    1    3    3    0    0 -0.21994968275E+02  0.10303692375E+02 -0.13016293514E+03  0.13240972166E+03  0.00000000000E+00 0.  1.
          2    1    6    6  502    0 -0.95083536059E+02 -0.94630004959E+01  0.49625233629E+02  0.10767121723E+03  0.00000000000E+00 0. -1.
          3    1    5    5  503    0  0.89324717504E+02  0.68908234689E+02 -0.41558780925E+02  0.12022637912E+03  0.00000000000E+00 0. -1.
         -4    1    5    5    0  503  0.27720538511E+03  0.17864859030E+03  0.93156475114E+01  0.32991654344E+03  0.00000000000E+00 0.  1.
         -1    1    6    6    0  502 -0.29547386610E+03 -0.17595061616E+03  0.14845125481E+03  0.37456801777E+03  0.00000000000E+00 0.  1.
<mgrwt>
<rscale>  0 0.17562374E+04</rscale>
<asrwt>0</asrwt>
<pdfrwt beam="1">  1        1 0.21478407E+00 0.17562374E+04</pdfrwt>
<pdfrwt beam="2">  1       -1 0.84972354E-01 0.17562374E+04</pdfrwt>
<totfact> 0.10032561E+01</totfact>
</mgrwt>
</event>
<event>
12    1  0.1663913E-007  0.1790488E+04  0.7818608E-02  0.8711374E-01
          2   -1    0    0  501    0  0.00000000000E+00  0.00000000000E+00  0.42347348983E+03  0.42347348983E+03  0.00000000000E+00 0.  1.
         -2   -1    0    0    0  501 -0.00000000000E+00 -0.00000000000E+00 -0.18925901682E+04  0.18925901682E+04  0.00000000000E+00 0. -1.
         23    2    1    2    0    0 -0.99275169784E+02  0.27898415635E+03 -0.13465796848E+04  0.13818608604E+04  0.92600600810E+02 0.  0.
        254    2    1    2    0    0  0.99275169784E+02 -0.27898415635E+03 -0.12253699360E+03  0.93420279762E+03  0.87751457734E+03 0.  0.
        -24    2    4    4    0    0 -0.32732466018E+03 -0.22484487100E+03  0.13457133872E+03  0.42664238153E+03  0.78851932974E+02 0.  0.
         24    2    4    4    0    0  0.42659982997E+03 -0.54139285355E+02 -0.25710833232E+03  0.50756041609E+03  0.81205937542E+02 0.  0.
         13    1    3    3    0    0 -0.87137375804E+02  0.23696138377E+03 -0.95368030853E+03  0.98653421154E+03  0.00000000000E+00 0. -1.
        -13    1    3    3    0    0 -0.12137793980E+02  0.42022772584E+02 -0.39289937627E+03  0.39532664890E+03  0.00000000000E+00 0.  1.
          4    1    6    6  502    0  0.15766226810E+03  0.12645704845E+02 -0.68540776137E+02  0.17238080701E+03  0.00000000000E+00 0. -1.
          3    1    5    5  503    0 -0.49737717035E+02 -0.30911131806E+02 -0.82400035628E+01  0.59137435048E+02  0.00000000000E+00 0. -1.
         -4    1    5    5    0  503 -0.27758694315E+03 -0.19393373919E+03  0.14281134228E+03  0.36750494648E+03  0.00000000000E+00 0.  1.
         -3    1    6    6    0  502  0.26893756187E+03 -0.66784990200E+02 -0.18856755618E+03  0.33517960908E+03  0.00000000000E+00 0.  1.
<mgrwt>
<rscale>  0 0.17904879E+04</rscale>
<asrwt>0</asrwt>
<pdfrwt beam="1">  1        2 0.65149767E-01 0.17904879E+04</pdfrwt>
<pdfrwt beam="2">  1       -2 0.29116772E+00 0.17904879E+04</pdfrwt>
<totfact> 0.25384157E+00</totfact>
</mgrwt>
</event>
<event>
12    1  0.1663913E-007  0.1830605E+04  0.7818608E-02  0.8690191E-01
         -2   -1    0    0    0  501 -0.00000000000E+00  0.00000000000E+00  0.19563134725E+04  0.19563134725E+04  0.00000000000E+00 0.  1.
          2   -1    0    0  501    0  0.00000000000E+00 -0.00000000000E+00 -0.42824362129E+03  0.42824362129E+03  0.00000000000E+00 0. -1.
         23    2    1    2    0    0 -0.68852972945E+03 -0.24765060829E+02  0.48864679875E+03  0.84952224946E+03  0.90696536939E+02 0.  0.
        254    2    1    2    0    0  0.68852972945E+03  0.24765060829E+02  0.10394230524E+04  0.15350348443E+04  0.89512300536E+03 0.  0.
        -24    2    4    4    0    0 -0.10360402255E+03  0.25779181349E+03  0.17933471789E+03  0.34045721734E+03  0.80992365086E+02 0.  0.
         24    2    4    4    0    0  0.79213375201E+03 -0.23302675266E+03  0.86008833456E+03  0.11945776270E+04  0.74070338947E+02 0.  0.
         11    1    3    3    0    0 -0.19103065898E+03 -0.70957878013E+01  0.87684727220E+02  0.21031327647E+03  0.00000000000E+00 0. -1.
        -11    1    3    3    0    0 -0.49749907048E+03 -0.17669273028E+02  0.40096207153E+03  0.63920897299E+03  0.00000000000E+00 0.  1.
          4    1    6    6  502    0  0.30398520039E+03 -0.12720124078E+03  0.34236568266E+03  0.47518566727E+03  0.00000000000E+00 0. -1.
          1    1    5    5  503    0 -0.25734072285E+01  0.23880469213E+01 -0.74954364618E+01  0.82768810922E+01  0.00000000000E+00 0. -1.
         -2    1    5    5    0  503 -0.10103061532E+03  0.25540376657E+03  0.18683015435E+03  0.33218033624E+03  0.00000000000E+00 0.  1.
         -3    1    6    6    0  502  0.48814855162E+03 -0.10582551188E+03  0.51772265190E+03  0.71939195971E+03  0.00000000000E+00 0.  1.
<mgrwt>
<rscale>  0 0.18306051E+04</rscale>
<asrwt>0</asrwt>
<pdfrwt beam="1">  1        2 0.65883635E-01 0.18306051E+04</pdfrwt>
<pdfrwt beam="2">  1       -2 0.30097130E+00 0.18306051E+04</pdfrwt>
<totfact> 0.21765306E+00</totfact>
</mgrwt>
</event>
<event>
12    1  0.1663913E-007  0.3289219E+04  0.7818608E-02  0.8165644E-01
         -2   -1    0    0    0  501 -0.00000000000E+00  0.00000000000E+00  0.14559602658E+04  0.14559602658E+04  0.00000000000E+00 0.  1.
          2   -1    0    0  501    0  0.00000000000E+00 -0.00000000000E+00 -0.18577023086E+04  0.18577023086E+04  0.00000000000E+00 0. -1.
         23    2    1    2    0    0 -0.49026209377E+03  0.14180336437E+04 -0.44574363735E+03  0.15678416881E+04  0.90905629716E+02 0.  0.
        254    2    1    2    0    0  0.49026209377E+03 -0.14180336437E+04  0.44001594599E+02  0.17458208863E+04  0.89150327625E+03 0.  0.
        -24    2    4    4    0    0  0.11338837528E+03 -0.77474717159E+03  0.43591009518E+03  0.89970771186E+03  0.79788797244E+02 0.  0.
         24    2    4    4    0    0  0.37687371849E+03 -0.64328647209E+03 -0.39190850058E+03  0.84611317445E+03  0.80398670985E+02 0.  0.
         11    1    3    3    0    0 -0.81033951313E+02  0.29053404425E+03 -0.12277368440E+03  0.32565305114E+03  0.00000000000E+00 0. -1.
        -11    1    3    3    0    0 -0.40922814246E+03  0.11274995994E+04 -0.32296995295E+03  0.12421886370E+04  0.00000000000E+00 0.  1.
          4    1    6    6  502    0  0.20860954759E+03 -0.40528510748E+03 -0.20454305418E+03  0.49961167190E+03  0.00000000000E+00 0. -1.
          3    1    5    5  503    0  0.20454741520E+02 -0.95558921559E+02  0.85389547833E+02  0.12977395278E+03  0.00000000000E+00 0. -1.
         -4    1    5    5    0  503  0.92933633764E+02 -0.67918825003E+03  0.35052054735E+03  0.76993375908E+03  0.00000000000E+00 0.  1.
         -3    1    6    6    0  502  0.16826417089E+03 -0.23800136462E+03 -0.18736544640E+03  0.34650150255E+03  0.00000000000E+00 0.  1.
<mgrwt>
<rscale>  0 0.32892192E+04</rscale>
<asrwt>0</asrwt>
<pdfrwt beam="1">  1        2 0.28580036E+00 0.32892192E+04</pdfrwt>
<pdfrwt beam="2">  1       -2 0.22399389E+00 0.32892192E+04</pdfrwt>
<totfact> 0.62488262E-01</totfact>
</mgrwt>
</event>
<event>
12    1  0.1663913E-007  0.1369878E+04  0.7818608E-02  0.8975916E-01
          1   -1    0    0  501    0  0.00000000000E+00  0.00000000000E+00  0.22286969488E+04  0.22286969488E+04  0.00000000000E+00 0. -1.
         -1   -1    0    0    0  501 -0.00000000000E+00 -0.00000000000E+00 -0.21050025231E+03  0.21050025231E+03  0.00000000000E+00 0.  1.
         23    2    1    2    0    0 -0.17152272562E+03  0.31119492249E+03  0.34925334483E+03  0.50697064851E+03  0.93696394748E+02 0.  0.
        254    2    1    2    0    0  0.17152272562E+03 -0.31119492249E+03  0.16689433516E+04  0.19322265526E+04  0.90656782111E+03 0.  0.
        -24    2    4    4    0    0  0.42736406937E+03 -0.38204570732E+03  0.62494099775E+03  0.85180684475E+03  0.80154100489E+02 0.  0.
         24    2    4    4    0    0 -0.25584134374E+03  0.70850784831E+02  0.10440023539E+04  0.10804197078E+04  0.83013271452E+02 0.  0.
         13    1    3    3    0    0 -0.10907555182E+03  0.15486332742E+03  0.12656795763E+03  0.22781478021E+03  0.00000000000E+00 0. -1.
        -13    1    3    3    0    0 -0.62447173800E+02  0.15633159507E+03  0.22268538720E+03  0.27915586830E+03  0.00000000000E+00 0.  1.
          4    1    6    6  502    0 -0.13012642415E+03  0.60400691729E+02  0.68605147215E+03  0.70089068496E+03  0.00000000000E+00 0. -1.
          1    1    5    5  503    0  0.81812636891E+02 -0.46946104298E+02  0.13759744749E+03  0.16682416438E+03  0.00000000000E+00 0. -1.
         -2    1    5    5    0  503  0.34555143248E+03 -0.33509960302E+03  0.48734355026E+03  0.68498268037E+03  0.00000000000E+00 0.  1.
         -1    1    6    6    0  502 -0.12571491960E+03  0.10450093102E+02  0.35795088173E+03  0.37952902285E+03  0.00000000000E+00 0.  1.
<mgrwt>
<rscale>  0 0.13698778E+04</rscale>
<asrwt>0</asrwt>
<pdfrwt beam="1">  1        1 0.34287644E+00 0.13698778E+04</pdfrwt>
<pdfrwt beam="2">  1       -1 0.32384656E-01 0.13698778E+04</pdfrwt>
<totfact> 0.18180165E+01</totfact>
</mgrwt>
</event>
<event>
12    1  0.1663913E-007  0.4672206E+04  0.7818608E-02  0.7881163E-01
          2   -1    0    0  501    0  0.00000000000E+00  0.00000000000E+00  0.30380077558E+04  0.30380077558E+04  0.00000000000E+00 0. -1.
         -2   -1    0    0    0  501 -0.00000000000E+00 -0.00000000000E+00 -0.17963673231E+04  0.17963673231E+04  0.00000000000E+00 0.  1.
         23    2    1    2    0    0  0.60874961969E+03  0.30280897224E+03 -0.16199274145E+04  0.17594638715E+04  0.96327118100E+02 0.  0.
        254    2    1    2    0    0 -0.60874961969E+03 -0.30280897224E+03  0.28615678472E+04  0.30749112074E+04  0.89679374204E+03 0.  0.
        -24    2    4    4    0    0  0.11209310884E+03 -0.82262246385E+02  0.57759909026E+02  0.17043967968E+03  0.79884510945E+02 0.  0.
         24    2    4    4    0    0 -0.72084272853E+03 -0.22054672586E+03  0.28038079382E+04  0.29044715277E+04  0.79754644029E+02 0.  0.
         11    1    3    3    0    0  0.28154839769E+03  0.18601966171E+03 -0.86230142101E+03  0.92597870141E+03  0.00000000000E+00 0.  1.
        -11    1    3    3    0    0  0.32720122200E+03  0.11678931053E+03 -0.75762599351E+03  0.83348517010E+03  0.00000000000E+00 0. -1.
          4    1    6    6  502    0 -0.50009238679E+03 -0.11554363197E+03  0.18596163483E+04  0.19291489546E+04  0.00000000000E+00 0. -1.
          3    1    5    5  503    0  0.99792710861E+02 -0.82432714773E+02  0.74745136113E+02  0.14946763188E+03  0.00000000000E+00 0. -1.
         -4    1    5    5    0  503  0.12300397981E+02  0.17046838795E+00 -0.16985227087E+02  0.20972047806E+02  0.00000000000E+00 0.  1.
         -3    1    6    6    0  502 -0.22075034174E+03 -0.10500309388E+03  0.94419158990E+03  0.97532257307E+03  0.00000000000E+00 0.  1.
<mgrwt>
<rscale>  0 0.46722063E+04</rscale>
<asrwt>0</asrwt>
<pdfrwt beam="1">  1        2 0.46738581E+00 0.46722063E+04</pdfrwt>
<pdfrwt beam="2">  1       -2 0.27636420E+00 0.46722063E+04</pdfrwt>
<totfact> 0.54538817E-02</totfact>
</mgrwt>
</event>
<event>
12    1  0.1663913E-007  0.1361431E+04  0.7818608E-02  0.8982220E-01
         -2   -1    0    0    0  501 -0.00000000000E+00  0.00000000000E+00  0.62812218667E+03  0.62812218667E+03  0.00000000000E+00 0.  1.
          2   -1    0    0  501    0  0.00000000000E+00 -0.00000000000E+00 -0.73771215263E+03  0.73771215263E+03  0.00000000000E+00 0. -1.
         23    2    1    2    0    0  0.28585940404E+03  0.20233374679E+03 -0.18314455540E+03  0.40542051564E+03  0.90384303720E+02 0.  0.
        254    2    1    2    0    0 -0.28585940404E+03 -0.20233374679E+03  0.73554589435E+02  0.96041382366E+03  0.89125186736E+03 0.  0.
        -24    2    4    4    0    0 -0.26345184052E+03  0.32222257102E+03 -0.14219576640E+01  0.42365503439E+03  0.79039918079E+02 0.  0.
         24    2    4    4    0    0 -0.22407563522E+02 -0.52455631782E+03  0.74976547099E+02  0.53675878927E+03  0.82626180969E+02 0.  0.
         13    1    3    3    0    0  0.27714197064E+03  0.19716737847E+03 -0.19318436027E+03  0.39115577981E+03  0.00000000000E+00 0. -1.
        -13    1    3    3    0    0  0.87174333942E+01  0.51663683262E+01  0.10039804865E+02  0.14264735833E+02  0.00000000000E+00 0.  1.
          4    1    6    6  502    0 -0.74415608755E+01 -0.50781555331E+03  0.78903570492E+02  0.51396282594E+03  0.00000000000E+00 0. -1.
          3    1    5    5  503    0 -0.19506219158E+03  0.27396553883E+03 -0.23370596937E+02  0.33712395324E+03  0.00000000000E+00 0. -1.
         -4    1    5    5    0  503 -0.68389648936E+02  0.48257032193E+02  0.21948639273E+02  0.86531081142E+02  0.00000000000E+00 0.  1.
         -3    1    6    6    0  502 -0.14966002646E+02 -0.16740764505E+02 -0.39270233933E+01  0.22795963330E+02  0.00000000000E+00 0.  1.
<mgrwt>
<rscale>  0 0.13614307E+04</rscale>
<asrwt>0</asrwt>
<pdfrwt beam="1">  1        2 0.11349418E+00 0.13614307E+04</pdfrwt>
<pdfrwt beam="2">  1       -2 0.96634183E-01 0.13614307E+04</pdfrwt>
<totfact> 0.33492807E+01</totfact>
</mgrwt>
</event>
<event>
12    1  0.1663913E-007  0.1944986E+04  0.7818608E-02  0.8632782E-01
         -1   -1    0    0    0  501 -0.00000000000E+00  0.00000000000E+00  0.33811445509E+03  0.33811445509E+03  0.00000000000E+00 0.  1.
          1   -1    0    0  501    0  0.00000000000E+00 -0.00000000000E+00 -0.27971080022E+04  0.27971080022E+04  0.00000000000E+00 0. -1.
         23    2    1    2    0    0  0.40478330402E+03 -0.15673433458E+02  0.69676812563E+02  0.42120741661E+03  0.92008966218E+02 0.  0.
        254    2    1    2    0    0 -0.40478330402E+03  0.15673433458E+02 -0.25286703597E+04  0.27140150407E+04  0.89867050326E+03 0.  0.
        -24    2    4    4    0    0  0.20173935440E+03 -0.17965442162E+03 -0.12714850005E+04  0.13022924392E+04  0.79479635742E+02 0.  0.
         24    2    4    4    0    0 -0.60652265842E+03  0.19532785507E+03 -0.12571853592E+04  0.14117226015E+04  0.80143433635E+02 0.  0.
         13    1    3    3    0    0  0.27270579836E+03 -0.21965044074E+02  0.41175862412E+01  0.27361993739E+03  0.00000000000E+00 0. -1.
        -13    1    3    3    0    0  0.13207750566E+03  0.62916106154E+01  0.65559226322E+02  0.14758747922E+03  0.00000000000E+00 0.  1.
          4    1    6    6  502    0 -0.45137887039E+03  0.13091214346E+03 -0.99380890119E+03  0.10993348016E+04  0.00000000000E+00 0. -1.
          3    1    5    5  503    0  0.19321474562E+03 -0.15989995576E+03 -0.10401405950E+04  0.10699497143E+04  0.00000000000E+00 0. -1.
         -4    1    5    5    0  503  0.85246087791E+01 -0.19754465852E+02 -0.23134440544E+03  0.23234272488E+03  0.00000000000E+00 0.  1.
         -3    1    6    6    0  502 -0.15514378803E+03  0.64415711611E+02 -0.26337645804E+03  0.31238779988E+03  0.00000000000E+00 0.  1.
<mgrwt>
<rscale>  0 0.19449860E+04</rscale>
<asrwt>0</asrwt>
<pdfrwt beam="1">  1        1 0.43032431E+00 0.19449860E+04</pdfrwt>
<pdfrwt beam="2">  1       -1 0.52017608E-01 0.19449860E+04</pdfrwt>
<totfact> 0.29083578E+00</totfact>
</mgrwt>
</event>
<event>
12    1  0.1663913E-007  0.2422044E+04  0.7818608E-02  0.8431296E-01
          1   -1    0    0  501    0  0.00000000000E+00  0.00000000000E+00  0.29078777355E+04  0.29078777355E+04  0.00000000000E+00 0. -1.
         -1   -1    0    0    0  501 -0.00000000000E+00 -0.00000000000E+00 -0.50434532025E+03  0.50434532025E+03  0.00000000000E+00 0.  1.
         23    2    1    2    0    0 -0.75430206951E+03  0.16944506686E+02  0.20678506259E+02  0.75928634182E+03  0.82640304166E+02 0.  0.
        254    2    1    2    0    0  0.75430206951E+03 -0.16944506686E+02  0.23828539090E+04  0.26529367140E+04  0.88928157978E+03 0.  0.
        -24    2    4    4    0    0  0.81763631808E+03 -0.13316274565E+03  0.12009073764E+04  0.14608379967E+04  0.74884313382E+02 0.  0.
         24    2    4    4    0    0 -0.63334248562E+02  0.11621823896E+03  0.11819465326E+04  0.11920987173E+04  0.81140863028E+02 0.  0.
         13    1    3    3    0    0 -0.36874688651E+03  0.40780530251E+01  0.51219559627E+02  0.37230946821E+03  0.00000000000E+00 0.  1.
        -13    1    3    3    0    0 -0.38555518300E+03  0.12866453661E+02 -0.30541053368E+02  0.38697687361E+03  0.00000000000E+00 0. -1.
          2    1    6    6  502    0 -0.68046170805E+02  0.12460957858E+03  0.10158572526E+04  0.10257308546E+04  0.00000000000E+00 0. -1.
          3    1    5    5  503    0  0.79149991796E+03 -0.12767194170E+03  0.11814526028E+04  0.14277963782E+04  0.00000000000E+00 0. -1.
         -4    1    5    5    0  503  0.26136400117E+02 -0.54908039469E+01  0.19454773629E+02  0.33041618544E+02  0.00000000000E+00 0.  1.
         -1    1    6    6    0  502  0.47119222433E+01 -0.83913396144E+01  0.16608927997E+03  0.16636786262E+03  0.00000000000E+00 0.  1.
<mgrwt>
<rscale>  0 0.24220442E+04</rscale>
<asrwt>0</asrwt>
<pdfrwt beam="1">  1        1 0.44736579E+00 0.24220442E+04</pdfrwt>
<pdfrwt beam="2">  1       -1 0.77591590E-01 0.24220442E+04</pdfrwt>
<totfact> 0.10381809E+00</totfact>
</mgrwt>
</event>
<event>
12    1  0.1663913E-007  0.1387192E+04  0.7818608E-02  0.8963142E-01
         -1   -1    0    0    0  501 -0.00000000000E+00  0.00000000000E+00  0.63079679985E+03  0.63079679985E+03  0.00000000000E+00 0.  1.
          1   -1    0    0  501    0  0.00000000000E+00 -0.00000000000E+00 -0.76264691372E+03  0.76264691372E+03  0.00000000000E+00 0. -1.
         23    2    1    2    0    0  0.12345712729E+03 -0.67380842080E+02  0.33105243547E+03  0.37103285587E+03  0.91037491994E+02 0.  0.
        254    2    1    2    0    0 -0.12345712729E+03  0.67380842080E+02 -0.46290254934E+03  0.10224108577E+04  0.90070158854E+03 0.  0.
        -24    2    4    4    0    0  0.79420339073E+02  0.41760772479E+03 -0.42740849915E+03  0.60820627360E+03  0.80827248137E+02 0.  0.
         24    2    4    4    0    0 -0.20287746636E+03 -0.35022688271E+03 -0.35494050182E+02  0.41420458410E+03  0.80544858075E+02 0.  0.
         13    1    3    3    0    0  0.47946019918E+01 -0.46342548811E+02  0.80665057535E+02  0.93152947059E+02  0.00000000000E+00 0. -1.
        -13    1    3    3    0    0  0.11866252529E+03 -0.21038293269E+02  0.25038737793E+03  0.27787990881E+03  0.00000000000E+00 0.  1.
          4    1    6    6  502    0 -0.98875894648E+02 -0.22381751271E+03 -0.50440432021E+02  0.24982985955E+03  0.00000000000E+00 0. -1.
          3    1    5    5  503    0  0.75368758555E+02  0.37751015015E+03 -0.34702848030E+03  0.51828865449E+03  0.00000000000E+00 0. -1.
         -4    1    5    5    0  503  0.40515805179E+01  0.40097574637E+02 -0.80380018850E+02  0.89917619112E+02  0.00000000000E+00 0.  1.
         -1    1    6    6    0  502 -0.10400157171E+03 -0.12640936999E+03  0.14946381839E+02  0.16437472455E+03  0.00000000000E+00 0.  1.
<mgrwt>
<rscale>  0 0.13871917E+04</rscale>
<asrwt>0</asrwt>
<pdfrwt beam="1">  1        1 0.11733030E+00 0.13871917E+04</pdfrwt>
<pdfrwt beam="2">  1       -1 0.97045661E-01 0.13871917E+04</pdfrwt>
<totfact> 0.23773764E+01</totfact>
</mgrwt>
</event>
<event>
12    1  0.1663913E-007  0.1682909E+04  0.7818608E-02  0.8771173E-01
         -1   -1    0    0    0  501 -0.00000000000E+00  0.00000000000E+00  0.30461923932E+03  0.30461923932E+03  0.00000000000E+00 0.  1.
          1   -1    0    0  501    0  0.00000000000E+00 -0.00000000000E+00 -0.23243617766E+04  0.23243617766E+04  0.00000000000E+00 0. -1.
         23    2    1    2    0    0 -0.26166940253E+02  0.41861161128E+03 -0.13754084421E+04  0.14409112052E+04  0.92500426319E+02 0.  0.
        254    2    1    2    0    0  0.26166940253E+02 -0.41861161128E+03 -0.64433409514E+03  0.11880698107E+04  0.90577207895E+03 0.  0.
        -24    2    4    4    0    0 -0.59702803084E+02 -0.49744069515E+03  0.21203484776E+02  0.50775238164E+03  0.79694563171E+02 0.  0.
         24    2    4    4    0    0  0.85869743337E+02  0.78829083878E+02 -0.66553757992E+03  0.68031742904E+03  0.79397082331E+02 0.  0.
         13    1    3    3    0    0  0.99765822724E+01  0.23913445716E+03 -0.64710832451E+03  0.68995217548E+03  0.00000000000E+00 0. -1.
        -13    1    3    3    0    0 -0.36143522525E+02  0.17947715411E+03 -0.72830011758E+03  0.75095902974E+03  0.00000000000E+00 0.  1.
          2    1    6    6  502    0  0.41053139075E+01 -0.11305703195E+02 -0.15542035766E+03  0.15588508621E+03  0.00000000000E+00 0. -1.
          1    1    5    5  503    0  0.59309893994E+01 -0.21939168735E+03  0.32357208177E+02  0.22184426527E+03  0.00000000000E+00 0. -1.
         -4    1    5    5    0  503 -0.65633792483E+02 -0.27804900781E+03 -0.11153723402E+02  0.28590811637E+03  0.00000000000E+00 0.  1.
         -1    1    6    6    0  502  0.81764429429E+02  0.90134787073E+02 -0.51011722226E+03  0.52443234283E+03  0.00000000000E+00 0.  1.
<mgrwt>
<rscale>  0 0.16829086E+04</rscale>
<asrwt>0</asrwt>
<pdfrwt beam="1">  1        1 0.35759411E+00 0.16829086E+04</pdfrwt>
<pdfrwt beam="2">  1       -1 0.46864499E-01 0.16829086E+04</pdfrwt>
<totfact> 0.77529975E+00</totfact>
</mgrwt>
</event>
<event>
12    1  0.1663913E-007  0.1730335E+04  0.7818608E-02  0.8744250E-01
         -1   -1    0    0    0  501 -0.00000000000E+00  0.00000000000E+00  0.34408562972E+03  0.34408562972E+03  0.00000000000E+00 0.  1.
          1   -1    0    0  501    0  0.00000000000E+00 -0.00000000000E+00 -0.21753740808E+04  0.21753740808E+04  0.00000000000E+00 0. -1.
         23    2    1    2    0    0 -0.25645760256E+03  0.13916468952E+03  0.13457835959E+03  0.33409801140E+03  0.91503189200E+02 0.  0.
        254    2    1    2    0    0  0.25645760256E+03 -0.13916468952E+03 -0.19658668106E+04  0.21853616991E+04  0.90886529583E+03 0.  0.
        -24    2    4    4    0    0 -0.30287527069E+03 -0.17600670875E+03 -0.51428368095E+03  0.62724144993E+03  0.78945176562E+02 0.  0.
         24    2    4    4    0    0  0.55933287324E+03  0.36842019235E+02 -0.14515831297E+04  0.15581202491E+04  0.80215528235E+02 0.  0.
         13    1    3    3    0    0 -0.56236083391E+02  0.62796585223E+02  0.67258834077E+01  0.84564447012E+02  0.00000000000E+00 0. -1.
        -13    1    3    3    0    0 -0.20022151917E+03  0.76368104297E+02  0.12785247618E+03  0.24953356439E+03  0.00000000000E+00 0.  1.
          4    1    6    6  502    0  0.26030793825E+03 -0.11683408059E+02 -0.59529898755E+03  0.64982890772E+03  0.00000000000E+00 0. -1.
          1    1    5    5  503    0 -0.26983136314E+03 -0.12333142574E+03 -0.41655291682E+03  0.51140584433E+03  0.00000000000E+00 0. -1.
         -2    1    5    5    0  503 -0.33043907547E+02 -0.52675283017E+02 -0.97730764131E+02  0.11583560560E+03  0.00000000000E+00 0.  1.
         -3    1    6    6    0  502  0.29902493500E+03  0.48525427294E+02 -0.85628414213E+03  0.90829134142E+03  0.00000000000E+00 0.  1.
<mgrwt>
<rscale>  0 0.17303352E+04</rscale>
<asrwt>0</asrwt>
<pdfrwt beam="1">  1        1 0.33467295E+00 0.17303352E+04</pdfrwt>
<pdfrwt beam="2">  1       -1 0.52936249E-01 0.17303352E+04</pdfrwt>
<totfact> 0.77371359E+00</totfact>
</mgrwt>
</event>
<event>
12    1  0.1663913E-007  0.1875542E+04  0.7818608E-02  0.8667128E-01
          2   -1    0    0  501    0  0.00000000000E+00  0.00000000000E+00  0.17014049727E+04  0.17014049727E+04  0.00000000000E+00 0. -1.
         -2   -1    0    0    0  501 -0.00000000000E+00 -0.00000000000E+00 -0.51687518063E+03  0.51687518063E+03  0.00000000000E+00 0.  1.
         23    2    1    2    0    0 -0.54807765775E+03  0.26172660433E+03  0.91495746112E+03  0.11019119491E+04  0.90403835852E+02 0.  0.
        254    2    1    2    0    0  0.54807765775E+03 -0.26172660433E+03  0.26957233091E+03  0.11163682042E+04  0.89706119715E+03 0.  0.
        -24    2    4    4    0    0  0.77325633590E+03 -0.21556543160E+03  0.32005464321E+03  0.86812538723E+03  0.82540275073E+02 0.  0.
         24    2    4    4    0    0 -0.22517867815E+03 -0.46161172727E+02 -0.50482312298E+02  0.24824281697E+03  0.78992033507E+02 0.  0.
         11    1    3    3    0    0  0.15580527338E+01  0.58634180190E+01  0.28754982753E+01  0.67138431258E+01  0.00000000000E+00 0.  1.
        -11    1    3    3    0    0 -0.54963571048E+03  0.25586318631E+03  0.91208196284E+03  0.10951981060E+04  0.00000000000E+00 0. -1.
          2    1    6    6  502    0 -0.13580185262E+03 -0.40136111194E+02  0.70416948822E+01  0.14178376516E+03  0.00000000000E+00 0. -1.
          1    1    5    5  503    0  0.30030259740E+03 -0.77135146008E+02  0.81270676755E+02  0.32052519972E+03  0.00000000000E+00 0. -1.
         -2    1    5    5    0  503  0.47295373850E+03 -0.13843028559E+03  0.23878396645E+03  0.54760018752E+03  0.00000000000E+00 0.  1.
         -1    1    6    6    0  502 -0.89376825539E+02 -0.60250615330E+01 -0.57524007180E+02  0.10645905181E+03  0.00000000000E+00 0.  1.
<mgrwt>
<rscale>  0 0.18755415E+04</rscale>
<asrwt>0</asrwt>
<pdfrwt beam="1">  1        2 0.26175461E+00 0.18755415E+04</pdfrwt>
<pdfrwt beam="2">  1       -2 0.79519260E-01 0.18755415E+04</pdfrwt>
<totfact> 0.12870518E+01</totfact>
</mgrwt>
</event>
<event>
12    1  0.1663913E-007  0.1701243E+04  0.7818608E-02  0.8760656E-01
          1   -1    0    0  501    0  0.00000000000E+00  0.00000000000E+00  0.20489398592E+04  0.20489398592E+04  0.00000000000E+00 0. -1.
         -1   -1    0    0    0  501 -0.00000000000E+00 -0.00000000000E+00 -0.35313717681E+03  0.35313717681E+03  0.00000000000E+00 0.  1.
         23    2    1    2    0    0 -0.19481488785E+03 -0.24235510681E+03 -0.11349342331E+03  0.34347858811E+03  0.91694847352E+02 0.  0.
        254    2    1    2    0    0  0.19481488785E+03  0.24235510681E+03  0.18092961057E+04  0.20585984479E+04  0.93144314548E+03 0.  0.
        -24    2    4    4    0    0 -0.65388405468E+02  0.22366219055E+03  0.17937893302E+02  0.24655727446E+03  0.78538541645E+02 0.  0.
         24    2    4    4    0    0  0.26020329332E+03  0.18692916265E+02  0.17913582124E+04  0.18120411735E+04  0.80459866467E+02 0.  0.
         11    1    3    3    0    0 -0.31692111625E+02 -0.12477296177E+02 -0.39296920861E+02  0.52003084988E+02  0.00000000000E+00 0. -1.
        -11    1    3    3    0    0 -0.16312277623E+03 -0.22987781063E+03 -0.74196502449E+02  0.29147550312E+03  0.00000000000E+00 0.  1.
          2    1    6    6  502    0  0.25847249656E+02 -0.22044512867E+02  0.28499186615E+03  0.28700941559E+03  0.00000000000E+00 0. -1.
          3    1    5    5  503    0  0.15832589447E+02  0.72979684730E+02  0.76920352946E+01  0.75072449533E+02  0.00000000000E+00 0. -1.
         -4    1    5    5    0  503 -0.81220994916E+02  0.15068250582E+03  0.10245858007E+02  0.17148482493E+03  0.00000000000E+00 0.  1.
         -1    1    6    6    0  502  0.23435604366E+03  0.40737429132E+02  0.15063663463E+04  0.15250317579E+04  0.00000000000E+00 0.  1.
<mgrwt>
<rscale>  0 0.17012429E+04</rscale>
<asrwt>0</asrwt>
<pdfrwt beam="1">  1        1 0.31522151E+00 0.17012429E+04</pdfrwt>
<pdfrwt beam="2">  1       -1 0.54328798E-01 0.17012429E+04</pdfrwt>
<totfact> 0.89904928E+00</totfact>
</mgrwt>
</event>
<event>
12    1  0.1663913E-007  0.1499819E+04  0.7818608E-02  0.8884573E-01
         -1   -1    0    0    0  501 -0.00000000000E+00  0.00000000000E+00  0.19487878163E+03  0.19487878163E+03  0.00000000000E+00 0.  1.
          1   -1    0    0  501    0  0.00000000000E+00 -0.00000000000E+00 -0.28857141107E+04  0.28857141107E+04  0.00000000000E+00 0. -1.
         23    2    1    2    0    0 -0.20967667377E+03  0.41920426205E+02 -0.17304014718E+04  0.17458088966E+04  0.88531464613E+02 0.  0.
        254    2    1    2    0    0  0.20967667377E+03 -0.41920426205E+02 -0.96043385727E+03  0.13347839957E+04  0.90193874036E+03 0.  0.
        -24    2    4    4    0    0 -0.16647722847E+03 -0.33826792988E+03 -0.65818915547E+03  0.76277577694E+03  0.80461553073E+02 0.  0.
         24    2    4    4    0    0  0.37615390224E+03  0.29634750367E+03 -0.30224470180E+03  0.57200821878E+03  0.80795677341E+02 0.  0.
         13    1    3    3    0    0 -0.29349578833E+02  0.68509226511E+01 -0.85018975162E+02  0.90202877207E+02  0.00000000000E+00 0.  1.
        -13    1    3    3    0    0 -0.18032709494E+03  0.35069503554E+02 -0.16453824966E+04  0.16556060194E+04  0.00000000000E+00 0. -1.
          4    1    6    6  502    0  0.89423501041E+02  0.35306764282E+02 -0.41381977891E+02  0.10466899367E+03  0.00000000000E+00 0. -1.
          3    1    5    5  503    0 -0.71690119798E+02 -0.11790520575E+03 -0.31665670000E+03  0.34541652606E+03  0.00000000000E+00 0. -1.
         -4    1    5    5    0  503 -0.94787108672E+02 -0.22036272413E+03 -0.34153245547E+03  0.41735925088E+03  0.00000000000E+00 0.  1.
         -3    1    6    6    0  502  0.28673040120E+03  0.26104073939E+03 -0.26086272391E+03  0.46733922510E+03  0.00000000000E+00 0.  1.
<mgrwt>
<rscale>  0 0.14998193E+04</rscale>
<asrwt>0</asrwt>
<pdfrwt beam="1">  1        1 0.44395596E+00 0.14998193E+04</pdfrwt>
<pdfrwt beam="2">  1       -1 0.29981355E-01 0.14998193E+04</pdfrwt>
<totfact> 0.71865031E+00</totfact>
</mgrwt>
</event>
<event>
12    1  0.1663913E-007  0.1779884E+04  0.7818608E-02  0.8717071E-01
         -1   -1    0    0    0  501 -0.00000000000E+00  0.00000000000E+00  0.31240844588E+03  0.31240844588E+03  0.00000000000E+00 0.  1.
          1   -1    0    0  501    0  0.00000000000E+00 -0.00000000000E+00 -0.25351318982E+04  0.25351318982E+04  0.00000000000E+00 0. -1.
         23    2    1    2    0    0 -0.24091075533E+03  0.74771220707E+02  0.13935955808E+03  0.30251987994E+03  0.92024256872E+02 0.  0.
        254    2    1    2    0    0  0.24091075533E+03 -0.74771220707E+02 -0.23620830104E+04  0.25450204642E+04  0.91327120142E+03 0.  0.
        -24    2    4    4    0    0 -0.29343382449E+03 -0.41206779635E+02 -0.14685010380E+04  0.15002766698E+04  0.80829322341E+02 0.  0.
         24    2    4    4    0    0  0.53434457982E+03 -0.33564441072E+02 -0.89358197241E+03  0.10447437943E+04  0.79687845217E+02 0.  0.
         13    1    3    3    0    0 -0.19642430397E+03  0.29930147886E+02  0.13286601558E+03  0.23902238188E+03  0.00000000000E+00 0.  1.
        -13    1    3    3    0    0 -0.44486451359E+02  0.44841072820E+02  0.64935425002E+01  0.63497498064E+02  0.00000000000E+00 0. -1.
          4    1    6    6  502    0  0.80385303979E+02 -0.33829760386E+02 -0.15231259912E+03  0.17551460804E+03  0.00000000000E+00 0. -1.
          1    1    5    5  503    0 -0.51681306288E+02  0.23363222084E+02 -0.29273771784E+03  0.29818143640E+03  0.00000000000E+00 0. -1.
         -2    1    5    5    0  503 -0.24175251820E+03 -0.64570001719E+02 -0.11757633202E+04  0.12020952334E+04  0.00000000000E+00 0.  1.
         -3    1    6    6    0  502  0.45395927584E+03  0.26531931450E+00 -0.74126937329E+03  0.86922918628E+03  0.00000000000E+00 0.  1.
<mgrwt>
<rscale>  0 0.17798838E+04</rscale>
<asrwt>0</asrwt>
<pdfrwt beam="1">  1        1 0.39002027E+00 0.17798838E+04</pdfrwt>
<pdfrwt beam="2">  1       -1 0.48062840E-01 0.17798838E+04</pdfrwt>
<totfact> 0.52443478E+00</totfact>
</mgrwt>
</event>
<event>
12    1  0.1663913E-007  0.2180778E+04  0.7818608E-02  0.8526471E-01
         -2   -1    0    0    0  501 -0.00000000000E+00  0.00000000000E+00  0.78591808540E+03  0.78591808540E+03  0.00000000000E+00 0.  1.
          2   -1    0    0  501    0  0.00000000000E+00 -0.00000000000E+00 -0.15128149687E+04  0.15128149687E+04  0.00000000000E+00 0. -1.
         23    2    1    2    0    0  0.54692132645E+03  0.57576074931E+03 -0.75680579883E+03  0.11007952717E+04  0.91497733730E+02 0.  0.
        254    2    1    2    0    0 -0.54692132645E+03 -0.57576074931E+03  0.29908915569E+02  0.11979377824E+04  0.89640225869E+03 0.  0.
        -24    2    4    4    0    0  0.22498195397E+03 -0.52206130307E+02 -0.77812027737E+02  0.25558944193E+03  0.76999295521E+02 0.  0.
         24    2    4    4    0    0 -0.77190328042E+03 -0.52355461901E+03  0.10772094331E+03  0.94234834043E+03  0.80451722672E+02 0.  0.
         13    1    3    3    0    0  0.47743443805E+03  0.48893330062E+03 -0.60561760287E+03  0.91311121776E+03  0.00000000000E+00 0.  1.
        -13    1    3    3    0    0  0.69486888400E+02  0.86827448695E+02 -0.15118819596E+03  0.18768405394E+03  0.00000000000E+00 0. -1.
          2    1    6    6  502    0 -0.50682469597E+03 -0.37316866387E+03  0.43485245553E+02  0.63088595699E+03  0.00000000000E+00 0. -1.
          1    1    5    5  503    0  0.12638966104E+03  0.10130922870E+02 -0.41972463809E+02  0.13356148297E+03  0.00000000000E+00 0. -1.
         -2    1    5    5    0  503  0.98592292932E+02 -0.62337053177E+02 -0.35839563928E+02  0.12202795896E+03  0.00000000000E+00 0.  1.
         -1    1    6    6    0  502 -0.26507858445E+03 -0.15038595513E+03  0.64235697753E+02  0.31146238344E+03  0.00000000000E+00 0.  1.
<mgrwt>
<rscale>  0 0.21807784E+04</rscale>
<asrwt>0</asrwt>
<pdfrwt beam="1">  1        2 0.23274076E+00 0.21807784E+04</pdfrwt>
<pdfrwt beam="2">  1       -2 0.12091047E+00 0.21807784E+04</pdfrwt>
<totfact> 0.59565879E+00</totfact>
</mgrwt>
</event>
<event>
12    1  0.1663913E-007  0.1812510E+04  0.7818608E-02  0.8699675E-01
         -2   -1    0    0    0  501 -0.00000000000E+00  0.00000000000E+00  0.54921805625E+03  0.54921805625E+03  0.00000000000E+00 0.  1.
          2   -1    0    0  501    0  0.00000000000E+00 -0.00000000000E+00 -0.14953947838E+04  0.14953947838E+04  0.00000000000E+00 0. -1.
         23    2    1    2    0    0  0.24311350777E+03  0.59535080243E+02  0.35140632694E+03  0.44040115987E+03  0.88420425038E+02 0.  0.
        254    2    1    2    0    0 -0.24311350777E+03 -0.59535080243E+02 -0.12975830545E+04  0.16042116802E+04  0.90946397845E+03 0.  0.
        -24    2    4    4    0    0 -0.10453525551E+03  0.39451480909E+03 -0.35907086392E+03  0.54945789195E+03  0.80015845091E+02 0.  0.
         24    2    4    4    0    0 -0.13857825226E+03 -0.45404988933E+03 -0.93851219057E+03  0.10547537882E+04  0.79593893983E+02 0.  0.
         13    1    3    3    0    0  0.24194209823E+03  0.66261633290E+02  0.35331593325E+03  0.43331135646E+03  0.00000000000E+00 0.  1.
        -13    1    3    3    0    0  0.11714095386E+01 -0.67265530477E+01 -0.19096063137E+01  0.70898034165E+01  0.00000000000E+00 0. -1.
          4    1    6    6  502    0 -0.40876938773E+02 -0.26725818196E+03 -0.54186618402E+03  0.60557148326E+03  0.00000000000E+00 0. -1.
          1    1    5    5  503    0 -0.63191549224E+02  0.12171459956E+03 -0.89808884905E+02  0.16393062998E+03  0.00000000000E+00 0. -1.
         -2    1    5    5    0  503 -0.41343706284E+02  0.27280020953E+03 -0.26926197902E+03  0.38552726196E+03  0.00000000000E+00 0.  1.
         -3    1    6    6    0  502 -0.97701313490E+02 -0.18679170737E+03 -0.39664600655E+03  0.44918230498E+03  0.00000000000E+00 0.  1.
<mgrwt>
<rscale>  0 0.18125097E+04</rscale>
<asrwt>0</asrwt>
<pdfrwt beam="1">  1        2 0.23006073E+00 0.18125097E+04</pdfrwt>
<pdfrwt beam="2">  1       -2 0.84495088E-01 0.18125097E+04</pdfrwt>
<totfact> 0.14710333E+01</totfact>
</mgrwt>
</event>
<event>
12    1  0.1663913E-007  0.1593618E+04  0.7818608E-02  0.8824478E-01
         -1   -1    0    0    0  501 -0.00000000000E+00  0.00000000000E+00  0.28233284858E+03  0.28233284858E+03  0.00000000000E+00 0.  1.
          1   -1    0    0  501    0  0.00000000000E+00 -0.00000000000E+00 -0.22487800921E+04  0.22487800921E+04  0.00000000000E+00 0. -1.
         23    2    1    2    0    0  0.36958158789E+03 -0.57842656039E+02 -0.59943431868E+02  0.39129932805E+03  0.97906210966E+02 0.  0.
        254    2    1    2    0    0 -0.36958158789E+03  0.57842656039E+02 -0.19065038117E+04  0.21398136127E+04  0.89672135583E+03 0.  0.
        -24    2    4    4    0    0  0.13232004475E+03 -0.14328758000E+03 -0.13247548280E+04  0.13417793972E+04  0.85771043011E+02 0.  0.
         24    2    4    4    0    0 -0.50190163264E+03  0.20113023604E+03 -0.58174898372E+03  0.79803421542E+03  0.77898063054E+02 0.  0.
         11    1    3    3    0    0  0.30880326053E+03 -0.52475307644E+02 -0.86200162214E+02  0.32487471368E+03  0.00000000000E+00 0.  1.
        -11    1    3    3    0    0  0.60778327359E+02 -0.53673483951E+01  0.26256730346E+02  0.66424614367E+02  0.00000000000E+00 0. -1.
          2    1    6    6  502    0  0.84773649608E+00 -0.32639911916E+01 -0.55318876784E+01  0.64787403831E+01  0.00000000000E+00 0. -1.
          1    1    5    5  503    0  0.22336254091E+02 -0.86190988491E+02 -0.57480572716E+03  0.58166091387E+03  0.00000000000E+00 0. -1.
         -2    1    5    5    0  503  0.10998379066E+03 -0.57096591509E+02 -0.74994910081E+03  0.76011848338E+03  0.00000000000E+00 0.  1.
         -1    1    6    6    0  502 -0.50274936913E+03  0.20439422723E+03 -0.57621709604E+03  0.79155547504E+03  0.00000000000E+00 0.  1.
<mgrwt>
<rscale>  0 0.15936179E+04</rscale>
<asrwt>0</asrwt>
<pdfrwt beam="1">  1        1 0.34596617E+00 0.15936179E+04</pdfrwt>
<pdfrwt beam="2">  1       -1 0.43435823E-01 0.15936179E+04</pdfrwt>
<totfact> 0.10144355E+01</totfact>
</mgrwt>
</event>
<event>
12    1  0.1663913E-007  0.1109396E+04  0.7818608E-02  0.9196082E-01
         -2   -1    0    0    0  501 -0.00000000000E+00  0.00000000000E+00  0.19582972701E+04  0.19582972701E+04  0.00000000000E+00 0.  1.
          2   -1    0    0  501    0  0.00000000000E+00 -0.00000000000E+00 -0.15712107818E+03  0.15712107818E+03  0.00000000000E+00 0. -1.
         23    2    1    2    0    0  0.16411725499E+01 -0.60462798243E+02  0.65315055207E+03  0.66038835425E+03  0.76476737274E+02 0.  0.
        254    2    1    2    0    0 -0.16411725499E+01  0.60462798243E+02  0.11480256399E+04  0.14550299940E+04  0.89190300500E+03 0.  0.
        -24    2    4    4    0    0 -0.64650650760E+02  0.17859522329E+03 -0.77191006897E+02  0.21987728508E+03  0.79445632495E+02 0.  0.
         24    2    4    4    0    0  0.63009478210E+02 -0.11813242504E+03  0.12252166468E+04  0.12351527090E+04  0.80752205861E+02 0.  0.
         11    1    3    3    0    0 -0.13627048053E+02 -0.74686986633E+02  0.47661440015E+03  0.48262317478E+03  0.00000000000E+00 0.  1.
        -11    1    3    3    0    0  0.15268220603E+02  0.14224188389E+02  0.17653615193E+03  0.17776517947E+03  0.00000000000E+00 0. -1.
          2    1    6    6  502    0  0.12393368828E+02  0.11363785341E+02  0.10443135601E+03  0.10577636469E+03  0.00000000000E+00 0. -1.
          1    1    5    5  503    0 -0.19211921012E+02  0.72673742303E+01 -0.30164684707E+02  0.36494120631E+02  0.00000000000E+00 0. -1.
         -2    1    5    5    0  503 -0.45438729748E+02  0.17132784906E+03 -0.47026322190E+02  0.18338316445E+03  0.00000000000E+00 0.  1.
         -1    1    6    6    0  502  0.50616109381E+02 -0.12949621039E+03  0.11207852908E+04  0.11293763443E+04  0.00000000000E+00 0.  1.
<mgrwt>
<rscale>  0 0.11093958E+04</rscale>
<asrwt>0</asrwt>
<pdfrwt beam="1">  1        2 0.24172475E-01 0.11093958E+04</pdfrwt>
<pdfrwt beam="2">  1       -2 0.30127649E+00 0.11093958E+04</pdfrwt>
<totfact> 0.71440528E+00</totfact>
</mgrwt>
</event>
<event>
12    1  0.1663913E-007  0.1267435E+04  0.7818608E-02  0.9055796E-01
         -2   -1    0    0    0  501 -0.00000000000E+00  0.00000000000E+00  0.19134351765E+03  0.19134351765E+03  0.00000000000E+00 0. -1.
          2   -1    0    0  501    0  0.00000000000E+00 -0.00000000000E+00 -0.20988321185E+04  0.20988321185E+04  0.00000000000E+00 0.  1.
         23    2    1    2    0    0  0.26411015650E+03 -0.13236109802E+03 -0.65091503464E+03  0.72035158929E+03  0.89120114668E+02 0.  0.
        254    2    1    2    0    0 -0.26411015650E+03  0.13236109802E+03 -0.12565735662E+04  0.15698240469E+04  0.89336262279E+03 0.  0.
        -24    2    4    4    0    0 -0.32077607487E+03  0.12550128351E+03 -0.13737338048E+04  0.14186654164E+04  0.82578052587E+02 0.  0.
         24    2    4    4    0    0  0.56665918367E+02  0.68598145079E+01  0.11716023861E+03  0.15115863049E+03  0.76578892010E+02 0.  0.
         13    1    3    3    0    0  0.86657793794E+01 -0.13966939225E+02 -0.10329478373E+03  0.10459437590E+03  0.00000000000E+00 0.  1.
        -13    1    3    3    0    0  0.25544437712E+03 -0.11839415879E+03 -0.54762025090E+03  0.61575721339E+03  0.00000000000E+00 0. -1.
          4    1    6    6  502    0  0.24826230118E+02 -0.25159834312E+02  0.93966921682E+02  0.10039492684E+03  0.00000000000E+00 0. -1.
          1    1    5    5  503    0 -0.28837868657E+03  0.13750661281E+03 -0.12257383360E+04  0.12666904925E+04  0.00000000000E+00 0. -1.
         -2    1    5    5    0  503 -0.32397388300E+02 -0.12005329303E+02 -0.14799546878E+03  0.15197492385E+03  0.00000000000E+00 0.  1.
         -3    1    6    6    0  502  0.31839688249E+02  0.32019648820E+02  0.23193316923E+02  0.50763703649E+02  0.00000000000E+00 0.  1.
<mgrwt>
<rscale>  0 0.12674351E+04</rscale>
<asrwt>0</asrwt>
<pdfrwt beam="1">  1        2 0.32289725E+00 0.12674351E+04</pdfrwt>
<pdfrwt beam="2">  1       -2 0.29437464E-01 0.12674351E+04</pdfrwt>
<totfact> 0.61508590E+01</totfact>
</mgrwt>
</event>
<event>
12    1  0.1663913E-007  0.2040640E+04  0.7818608E-02  0.8587853E-01
         -2   -1    0    0    0  501 -0.00000000000E+00  0.00000000000E+00  0.58254145493E+03  0.58254145493E+03  0.00000000000E+00 0.  1.
          2   -1    0    0  501    0  0.00000000000E+00 -0.00000000000E+00 -0.17870876173E+04  0.17870876173E+04  0.00000000000E+00 0. -1.
         23    2    1    2    0    0  0.12176476012E+03  0.81774941165E+03 -0.48091255035E+03  0.96086531308E+03  0.91894024474E+02 0.  0.
        254    2    1    2    0    0 -0.12176476012E+03 -0.81774941165E+03 -0.72363361203E+03  0.14087637592E+04  0.88171932474E+03 0.  0.
        -24    2    4    4    0    0  0.30036426582E+03 -0.17749077076E+03 -0.48294765226E+03  0.60109054211E+03  0.79685250183E+02 0.  0.
         24    2    4    4    0    0 -0.42212902594E+03 -0.64025864089E+03 -0.24068595976E+03  0.80767321706E+03  0.79260662061E+02 0.  0.
         13    1    3    3    0    0  0.11214450105E+02  0.21264095148E+02 -0.25811799547E+00  0.24041469558E+02  0.00000000000E+00 0. -1.
        -13    1    3    3    0    0  0.11055031002E+03  0.79648531650E+03 -0.48065443236E+03  0.93682384352E+03  0.00000000000E+00 0.  1.
          4    1    6    6  502    0 -0.41155637565E+03 -0.63538752293E+03 -0.24431748166E+03  0.79547909242E+03  0.00000000000E+00 0. -1.
          1    1    5    5  503    0  0.15995441710E+03 -0.65984874357E+02 -0.18463621685E+03  0.25304140327E+03  0.00000000000E+00 0. -1.
         -2    1    5    5    0  503  0.14040984872E+03 -0.11150589641E+03 -0.29831143541E+03  0.34804913884E+03  0.00000000000E+00 0.  1.
         -3    1    6    6    0  502 -0.10572650290E+02 -0.48711179562E+01  0.36315218984E+01  0.12194124634E+02  0.00000000000E+00 0.  1.
<mgrwt>
<rscale>  0 0.20406397E+04</rscale>
<asrwt>0</asrwt>
<pdfrwt beam="1">  1        2 0.27493655E+00 0.20406397E+04</pdfrwt>
<pdfrwt beam="2">  1       -2 0.89621764E-01 0.20406397E+04</pdfrwt>
<totfact> 0.86684138E+00</totfact>
</mgrwt>
</event>
<event>
12    1  0.1663913E-007  0.2075255E+04  0.7818608E-02  0.8572223E-01
          2   -1    0    0  501    0  0.00000000000E+00  0.00000000000E+00  0.96095079614E+03  0.96095079614E+03  0.00000000000E+00 0. -1.
         -2   -1    0    0    0  501 -0.00000000000E+00 -0.00000000000E+00 -0.11204224876E+04  0.11204224876E+04  0.00000000000E+00 0.  1.
         23    2    1    2    0    0  0.35754657302E+03 -0.50689670209E+03  0.50303915194E+03  0.80366198400E+03  0.89668153015E+02 0.  0.
        254    2    1    2    0    0 -0.35754657302E+03  0.50689670209E+03 -0.66251084344E+03  0.12777112998E+04  0.89935628616E+03 0.  0.
        -24    2    4    4    0    0  0.22109004764E+03  0.42210679683E+03 -0.41629020524E+03  0.63793871026E+03  0.81322235401E+02 0.  0.
         24    2    4    4    0    0 -0.57863662066E+03  0.84789905261E+02 -0.24622063820E+03  0.63977258953E+03  0.81698817820E+02 0.  0.
         11    1    3    3    0    0  0.57951591917E+02 -0.73617154032E+02  0.12053314988E+03  0.15266339638E+03  0.00000000000E+00 0.  1.
        -11    1    3    3    0    0  0.29959498111E+03 -0.43327954806E+03  0.38250600206E+03  0.65099858762E+03  0.00000000000E+00 0. -1.
          2    1    6    6  502    0 -0.13875392755E+03  0.48125387404E+01 -0.25484529483E+02  0.14115691333E+03  0.00000000000E+00 0. -1.
          1    1    5    5  503    0  0.64731501123E+02  0.20662304366E+03 -0.17055282867E+03  0.27562931044E+03  0.00000000000E+00 0. -1.
         -2    1    5    5    0  503  0.15635854651E+03  0.21548375317E+03 -0.24573737657E+03  0.36230939981E+03  0.00000000000E+00 0.  1.
         -1    1    6    6    0  502 -0.43988269312E+03  0.79977366520E+02 -0.22073610872E+03  0.49861567620E+03  0.00000000000E+00 0.  1.
<mgrwt>
<rscale>  0 0.20752551E+04</rscale>
<asrwt>0</asrwt>
<pdfrwt beam="1">  1        2 0.14783858E+00 0.20752551E+04</pdfrwt>
<pdfrwt beam="2">  1       -2 0.17237269E+00 0.20752551E+04</pdfrwt>
<totfact> 0.50545292E+00</totfact>
</mgrwt>
</event>
<event>
12    1  0.1663913E-007  0.1222146E+04  0.7818608E-02  0.9093690E-01
         -2   -1    0    0    0  501 -0.00000000000E+00  0.00000000000E+00  0.73901901797E+03  0.73901901797E+03  0.00000000000E+00 0.  1.
          2   -1    0    0  501    0  0.00000000000E+00 -0.00000000000E+00 -0.50527852676E+03  0.50527852676E+03  0.00000000000E+00 0. -1.
         23    2    1    2    0    0 -0.83512971718E+02  0.23887747035E+03 -0.17535876687E+02  0.27724693196E+03  0.11189947284E+03 0.  0.
        254    2    1    2    0    0  0.83512971718E+02 -0.23887747035E+03  0.25127636789E+03  0.96705061277E+03  0.89889388268E+03 0.  0.
        -24    2    4    4    0    0  0.22292221617E+03 -0.51563222658E+03  0.11122404338E+02  0.56749052048E+03  0.79692379870E+02 0.  0.
         24    2    4    4    0    0 -0.13940924445E+03  0.27675475623E+03  0.24015396355E+03  0.39956009229E+03  0.77111663263E+02 0.  0.
         11    1    3    3    0    0 -0.10676786806E+03  0.18341999886E+03 -0.33905461740E+02  0.21492290238E+03  0.00000000000E+00 0. -1.
        -11    1    3    3    0    0  0.23254896341E+02  0.55457471491E+02  0.16369585053E+02  0.62324029578E+02  0.00000000000E+00 0.  1.
          4    1    6    6  502    0 -0.11737897370E+03  0.25017347143E+03  0.17874394029E+03  0.32911090147E+03  0.00000000000E+00 0. -1.
          1    1    5    5  503    0  0.18864846188E+03 -0.38354004371E+03  0.35377586273E+02  0.42888551026E+03  0.00000000000E+00 0. -1.
         -2    1    5    5    0  503  0.34273754287E+02 -0.13209218287E+03 -0.24255181935E+02  0.13860501022E+03  0.00000000000E+00 0.  1.
         -3    1    6    6    0  502 -0.22030270750E+02  0.26581284792E+02  0.61410023261E+02  0.70449190822E+02  0.00000000000E+00 0.  1.
<mgrwt>
<rscale>  0 0.12221464E+04</rscale>
<asrwt>0</asrwt>
<pdfrwt beam="1">  1        2 0.77735158E-01 0.12221464E+04</pdfrwt>
<pdfrwt beam="2">  1       -2 0.11369523E+00 0.12221464E+04</pdfrwt>
<totfact> 0.36335870E+01</totfact>
</mgrwt>
</event>
<event>
12    1  0.2126110E-007  0.1810694E+04  0.7818608E-02  0.8700633E-01
          1   -1    0    0  501    0  0.00000000000E+00  0.00000000000E+00  0.13896687756E+04  0.13896687756E+04  0.00000000000E+00 0. -1.
         -1   -1    0    0    0  501 -0.00000000000E+00 -0.00000000000E+00 -0.58981938761E+03  0.58981938761E+03  0.00000000000E+00 0.  1.
         23    2    1    2    0    0  0.60818036742E+03  0.45256465927E+02 -0.18219140313E+02  0.61745505056E+03  0.94801346895E+02 0.  0.
        254    2    1    2    0    0 -0.60818036742E+03 -0.45256465927E+02  0.81806852830E+03  0.13620331127E+04  0.90220096206E+03 0.  0.
        -24    2    4    4    0    0 -0.64340567527E+03  0.30499143485E+03  0.44577565340E+03  0.84367156772E+03  0.77943201843E+02 0.  0.
         24    2    4    4    0    0  0.35225307855E+02 -0.35024790078E+03  0.37229287490E+03  0.51836154493E+03  0.78627553980E+02 0.  0.
         13    1    3    3    0    0  0.35098555984E+02 -0.61779376892E+01  0.19883224062E+02  0.40809534981E+02  0.00000000000E+00 0. -1.
        -13    1    3    3    0    0  0.57308181143E+03  0.51434403616E+02 -0.38102364376E+02  0.57664551558E+03  0.00000000000E+00 0.  1.
          2    1    6    6  502    0  0.23866140989E+02 -0.32486770789E+03  0.30794115804E+03  0.44825927445E+03  0.00000000000E+00 0. -1.
          3    1    5    5  503    0 -0.63571540699E+03  0.30884436196E+03  0.44463067902E+03  0.83499422712E+03  0.00000000000E+00 0. -1.
         -4    1    5    5    0  503 -0.76902682835E+01 -0.38529271125E+01  0.11449743839E+01  0.86773406033E+01  0.00000000000E+00 0.  1.
         -1    1    6    6    0  502  0.11359166866E+02 -0.25380192882E+02  0.64351716860E+02  0.70102270473E+02  0.00000000000E+00 0.  1.
<mgrwt>
<rscale>  0 0.18106944E+04</rscale>
<asrwt>0</asrwt>
<pdfrwt beam="1">  1        1 0.21379520E+00 0.18106944E+04</pdfrwt>
<pdfrwt beam="2">  1       -1 0.90741444E-01 0.18106944E+04</pdfrwt>
<totfact> 0.87367836E+00</totfact>
</mgrwt>
</event>
<event>
12    1  0.1663913E-007  0.1625499E+04  0.7818608E-02  0.8805034E-01
          1   -1    0    0  501    0  0.00000000000E+00  0.00000000000E+00  0.76445633637E+03  0.76445633637E+03  0.00000000000E+00 0. -1.
         -1   -1    0    0    0  501 -0.00000000000E+00 -0.00000000000E+00 -0.86409373070E+03  0.86409373070E+03  0.00000000000E+00 0.  1.
         23    2    1    2    0    0 -0.42735892455E+03  0.41168772995E+03  0.10678164862E+03  0.60985817375E+03  0.91663701746E+02 0.  0.
        254    2    1    2    0    0  0.42735892455E+03 -0.41168772995E+03 -0.20641904295E+03  0.10186918933E+04  0.80187400185E+03 0.  0.
        -24    2    4    4    0    0 -0.15691664279E+03 -0.15678485166E+02  0.14359103285E+03  0.22680723442E+03  0.77165336710E+02 0.  0.
         24    2    4    4    0    0  0.58427556734E+03 -0.39600924479E+03 -0.35001007580E+03  0.79188465890E+03  0.79831067259E+02 0.  0.
         13    1    3    3    0    0 -0.41839887036E+03  0.40200540953E+03  0.87937265162E+02  0.58685511552E+03  0.00000000000E+00 0. -1.
        -13    1    3    3    0    0 -0.89600541924E+01  0.96823204185E+01  0.18844383455E+02  0.23003058223E+02  0.00000000000E+00 0.  1.
          4    1    6    6  502    0  0.40410955725E+03 -0.23941173351E+03 -0.25926482496E+03  0.53650793272E+03  0.00000000000E+00 0. -1.
          3    1    5    5  503    0 -0.12127783930E+03 -0.39126224699E+02  0.12998141861E+03  0.18202841797E+03  0.00000000000E+00 0. -1.
         -4    1    5    5    0  503 -0.35638803488E+02  0.23447739533E+02  0.13609614247E+02  0.44778816456E+02  0.00000000000E+00 0.  1.
         -3    1    6    6    0  502  0.18016601009E+03 -0.15659751127E+03 -0.90745250838E+02  0.25537672619E+03  0.00000000000E+00 0.  1.
<mgrwt>
<rscale>  0 0.16254992E+04</rscale>
<asrwt>0</asrwt>
<pdfrwt beam="1">  1        1 0.11760867E+00 0.16254992E+04</pdfrwt>
<pdfrwt beam="2">  1       -1 0.13293750E+00 0.16254992E+04</pdfrwt>
<totfact> 0.10907575E+01</totfact>
</mgrwt>
</event>
<event>
12    1  0.1663913E-007  0.1489092E+04  0.7818608E-02  0.8891739E-01
         -1   -1    0    0    0  501 -0.00000000000E+00  0.00000000000E+00  0.18293433443E+03  0.18293433443E+03  0.00000000000E+00 0.  1.
          1   -1    0    0  501    0  0.00000000000E+00 -0.00000000000E+00 -0.30303172878E+04  0.30303172878E+04  0.00000000000E+00 0. -1.
         23    2    1    2    0    0  0.36460067178E+03  0.29929080625E+03 -0.97250544788E+03  0.10847185233E+04  0.91316987067E+02 0.  0.
        254    2    1    2    0    0 -0.36460067178E+03 -0.29929080625E+03 -0.18748775054E+04  0.21285330989E+04  0.89049360243E+03 0.  0.
        -24    2    4    4    0    0 -0.59605560823E+03 -0.31666693806E+03 -0.92688326017E+03  0.11493734798E+04  0.79916083667E+02 0.  0.
         24    2    4    4    0    0  0.23145493645E+03  0.17376131811E+02 -0.94799424527E+03  0.97915961902E+03  0.78658457150E+02 0.  0.
         11    1    3    3    0    0  0.20680045380E+03  0.17300880943E+03 -0.65524140956E+03  0.70854765587E+03  0.00000000000E+00 0.  1.
        -11    1    3    3    0    0  0.15780021799E+03  0.12628199682E+03 -0.31726403832E+03  0.37617086746E+03  0.00000000000E+00 0. -1.
          2    1    6    6  502    0  0.17994092815E+03  0.33690956768E+02 -0.82072183237E+03  0.84089127973E+03  0.00000000000E+00 0. -1.
          3    1    5    5  503    0 -0.57711359633E+03 -0.29727429666E+03 -0.90856176840E+03  0.11166541978E+04  0.00000000000E+00 0. -1.
         -4    1    5    5    0  503 -0.18942011903E+02 -0.19392641401E+02 -0.18321491773E+02  0.32719282025E+02  0.00000000000E+00 0.  1.
         -1    1    6    6    0  502  0.51514008292E+02 -0.16314824957E+02 -0.12727241290E+03  0.13826833928E+03  0.00000000000E+00 0.  1.
<mgrwt>
<rscale>  0 0.14890924E+04</rscale>
<asrwt>0</asrwt>
<pdfrwt beam="1">  1        1 0.46620264E+00 0.14890924E+04</pdfrwt>
<pdfrwt beam="2">  1       -1 0.28143745E-01 0.14890924E+04</pdfrwt>
<totfact> 0.63172582E+00</totfact>
</mgrwt>
</event>
<event>
12    1  0.1663913E-007  0.1328226E+04  0.7818608E-02  0.9007477E-01
         -1   -1    0    0    0  501 -0.00000000000E+00  0.00000000000E+00  0.46981689085E+03  0.46981689085E+03  0.00000000000E+00 0.  1.
          1   -1    0    0  501    0  0.00000000000E+00 -0.00000000000E+00 -0.93876094146E+03  0.93876094146E+03  0.00000000000E+00 0. -1.
         23    2    1    2    0    0 -0.17625044295E+03  0.29926893673E+03 -0.40501667520E+02  0.36083145867E+03  0.89066499686E+02 0.  0.
        254    2    1    2    0    0  0.17625044295E+03 -0.29926893673E+03 -0.42844238309E+03  0.10477463736E+04  0.89083302179E+03 0.  0.
        -24    2    4    4    0    0 -0.28108453797E+02  0.12821024694E+03 -0.53438691437E+03  0.55599231650E+03  0.79562108850E+02 0.  0.
         24    2    4    4    0    0  0.20435889674E+03 -0.42747918366E+03  0.10594453128E+03  0.49175405713E+03  0.78081994439E+02 0.  0.
         13    1    3    3    0    0 -0.40234454232E+02  0.40103755829E+02 -0.37607194069E+02  0.68127994134E+02  0.00000000000E+00 0. -1.
        -13    1    3    3    0    0 -0.13601598872E+03  0.25916518090E+03 -0.28944734510E+01  0.29270346454E+03  0.00000000000E+00 0.  1.
          2    1    6    6  502    0  0.21127650707E+03 -0.41832727683E+03  0.10201441468E+03  0.47962736971E+03  0.00000000000E+00 0. -1.
          1    1    5    5  503    0 -0.22969288756E+02  0.11241339148E+03 -0.30277609399E+03  0.32378653755E+03  0.00000000000E+00 0. -1.
         -2    1    5    5    0  503 -0.51391650411E+01  0.15796855461E+02 -0.23161082038E+03  0.23220577895E+03  0.00000000000E+00 0.  1.
         -1    1    6    6    0  502 -0.69176103222E+01 -0.91519068359E+01  0.39301165984E+01  0.12126687420E+02  0.00000000000E+00 0.  1.
<mgrwt>
<rscale>  0 0.13282255E+04</rscale>
<asrwt>0</asrwt>
<pdfrwt beam="1">  1        1 0.14442476E+00 0.13282255E+04</pdfrwt>
<pdfrwt beam="2">  1       -1 0.72279522E-01 0.13282255E+04</pdfrwt>
<totfact> 0.32047489E+01</totfact>
</mgrwt>
</event>
<event>
12    1  0.1663913E-007  0.1668055E+04  0.7818608E-02  0.8779797E-01
          2   -1    0    0  501    0  0.00000000000E+00  0.00000000000E+00  0.21431075890E+04  0.21431075890E+04  0.00000000000E+00 0. -1.
         -2   -1    0    0    0  501 -0.00000000000E+00 -0.00000000000E+00 -0.32457611984E+03  0.32457611984E+03  0.00000000000E+00 0.  1.
         23    2    1    2    0    0  0.46857481975E+03 -0.25962777554E+03  0.31132004453E+03  0.62631886614E+03  0.91576243769E+02 0.  0.
        254    2    1    2    0    0 -0.46857481975E+03  0.25962777554E+03  0.15072114247E+04  0.18413648427E+04  0.91212349048E+03 0.  0.
        -24    2    4    4    0    0  0.16307585240E+03 -0.18894462078E+03  0.53368604677E+03  0.59459755319E+03  0.80197570933E+02 0.  0.
         24    2    4    4    0    0 -0.63165067215E+03  0.44857239632E+03  0.97352537790E+03  0.12467672895E+04  0.80481342646E+02 0.  0.
         13    1    3    3    0    0  0.12090921257E+03 -0.43436291121E+02  0.37676808354E+02  0.13388536499E+03  0.00000000000E+00 0. -1.
        -13    1    3    3    0    0  0.34766560718E+03 -0.21619148442E+03  0.27364323618E+03  0.49243350115E+03  0.00000000000E+00 0.  1.
          4    1    6    6  502    0 -0.39117032579E+03  0.25557519642E+03  0.52966250278E+03  0.70631103039E+03  0.00000000000E+00 0. -1.
          1    1    5    5  503    0  0.16154985310E+03 -0.19459511810E+03  0.49913862510E+03  0.55955784518E+03  0.00000000000E+00 0. -1.
         -2    1    5    5    0  503  0.15259992952E+01  0.56504973229E+01  0.34547421665E+02  0.35039708011E+02  0.00000000000E+00 0.  1.
         -3    1    6    6    0  502 -0.24048034636E+03  0.19299719990E+03  0.44386287512E+03  0.54045625915E+03  0.00000000000E+00 0.  1.
<mgrwt>
<rscale>  0 0.16680546E+04</rscale>
<asrwt>0</asrwt>
<pdfrwt beam="1">  1        2 0.32970885E+00 0.16680546E+04</pdfrwt>
<pdfrwt beam="2">  1       -2 0.49934789E-01 0.16680546E+04</pdfrwt>
<totfact> 0.20126806E+01</totfact>
</mgrwt>
</event>
<event>
12    1  0.1663913E-007  0.2128636E+04  0.7818608E-02  0.8548733E-01
         -1   -1    0    0    0  501 -0.00000000000E+00  0.00000000000E+00  0.11491980387E+04  0.11491980387E+04  0.00000000000E+00 0.  1.
          1   -1    0    0  501    0  0.00000000000E+00 -0.00000000000E+00 -0.98570738802E+03  0.98570738802E+03  0.00000000000E+00 0. -1.
         23    2    1    2    0    0 -0.76946088177E+03 -0.27242408062E+03 -0.23611457946E+03  0.85897721695E+03  0.12572524142E+03 0.  0.
        254    2    1    2    0    0  0.76946088177E+03  0.27242408062E+03  0.39960523014E+03  0.12759282098E+04  0.89555766328E+03 0.  0.
        -24    2    4    4    0    0  0.75667737512E+03  0.63839026305E+02  0.60147511032E+03  0.97195038648E+03  0.79241240244E+02 0.  0.
         24    2    4    4    0    0  0.12783506655E+02  0.20858505431E+03 -0.20186988018E+03  0.30397782329E+03  0.89330429327E+02 0.  0.
         13    1    3    3    0    0 -0.76856482452E+03 -0.27608471748E+03 -0.24221068162E+03  0.85181023415E+03  0.00000000000E+00 0. -1.
        -13    1    3    3    0    0 -0.89605724745E+00  0.36606368627E+01  0.60961021608E+01  0.71669827952E+01  0.00000000000E+00 0.  1.
          4    1    6    6  502    0  0.63209399469E+01  0.18531658786E+03 -0.20841178333E+03  0.27895817509E+03  0.00000000000E+00 0. -1.
          3    1    5    5  503    0  0.73377877496E+03  0.47606381355E+02  0.58223302613E+03  0.93791948207E+03  0.00000000000E+00 0. -1.
         -4    1    5    5    0  503  0.22898600154E+02  0.16232644950E+02  0.19242084192E+02  0.34030904413E+02  0.00000000000E+00 0.  1.
         -3    1    6    6    0  502  0.64625667085E+01  0.23268466452E+02  0.65419031468E+01  0.25019648204E+02  0.00000000000E+00 0.  1.
<mgrwt>
<rscale>  0 0.21286362E+04</rscale>
<asrwt>0</asrwt>
<pdfrwt beam="1">  1        1 0.15164729E+00 0.21286362E+04</pdfrwt>
<pdfrwt beam="2">  1       -1 0.17679970E+00 0.21286362E+04</pdfrwt>
<totfact> 0.31264446E+00</totfact>
</mgrwt>
</event>
<event>
12    1  0.1663913E-007  0.1334410E+04  0.7818608E-02  0.9002714E-01
          1   -1    0    0  501    0  0.00000000000E+00  0.00000000000E+00  0.14635064250E+04  0.14635064250E+04  0.00000000000E+00 0. -1.
         -1   -1    0    0    0  501 -0.00000000000E+00 -0.00000000000E+00 -0.30417539682E+03  0.30417539682E+03  0.00000000000E+00 0.  1.
         23    2    1    2    0    0 -0.10273447696E+03 -0.63250595471E+02 -0.12319377698E+03  0.19480868744E+03  0.90657087042E+02 0.  0.
        254    2    1    2    0    0  0.10273447696E+03  0.63250595471E+02  0.12825248052E+04  0.15728731344E+04  0.90249931328E+03 0.  0.
        -24    2    4    4    0    0 -0.66582525052E+02 -0.28388621854E+03  0.10932515626E+04  0.11343626580E+04  0.80963220473E+02 0.  0.
         24    2    4    4    0    0  0.16931700201E+03  0.34713681401E+03  0.18927324260E+03  0.43851047641E+03  0.85409968646E+02 0.  0.
         13    1    3    3    0    0 -0.98113012064E+02 -0.75276359390E+02 -0.13067333498E+03  0.17991168359E+03  0.00000000000E+00 0.  1.
        -13    1    3    3    0    0 -0.46214648930E+01  0.12025763919E+02  0.74795579990E+01  0.14897003841E+02  0.00000000000E+00 0. -1.
          2    1    6    6  502    0  0.24867466897E+02  0.14441746031E+03  0.74842036654E+02  0.16454824278E+03  0.00000000000E+00 0. -1.
          1    1    5    5  503    0  0.16774104972E+02 -0.28527267704E+02  0.94899839419E+02  0.10050450299E+03  0.00000000000E+00 0. -1.
         -2    1    5    5    0  503 -0.83356630024E+02 -0.25535895083E+03  0.99835172319E+03  0.10338581550E+04  0.00000000000E+00 0.  1.
         -1    1    6    6    0  502  0.14444953511E+03  0.20271935370E+03  0.11443120594E+03  0.27396223363E+03  0.00000000000E+00 0.  1.
<mgrwt>
<rscale>  0 0.13344102E+04</rscale>
<asrwt>0</asrwt>
<pdfrwt beam="1">  1        1 0.22515483E+00 0.13344102E+04</pdfrwt>
<pdfrwt beam="2">  1       -1 0.46796216E-01 0.13344102E+04</pdfrwt>
<totfact> 0.30923713E+01</totfact>
</mgrwt>
</event>
<event>
12    1  0.1663913E-007  0.1799755E+04  0.7818608E-02  0.8706430E-01
          2   -1    0    0  501    0  0.00000000000E+00  0.00000000000E+00  0.10363293485E+04  0.10363293485E+04  0.00000000000E+00 0. -1.
         -2   -1    0    0    0  501 -0.00000000000E+00 -0.00000000000E+00 -0.78139190319E+03  0.78139190319E+03  0.00000000000E+00 0.  1.
         23    2    1    2    0    0  0.55598417189E+02 -0.37305943659E+03 -0.46916704715E+03  0.60894810784E+03  0.91845264889E+02 0.  0.
        254    2    1    2    0    0 -0.55598417189E+02  0.37305943659E+03  0.72410449246E+03  0.12087731438E+04  0.89137010836E+03 0.  0.
        -24    2    4    4    0    0 -0.40124856945E+03  0.30154333821E+03  0.67270151951E+03  0.84311183196E+03  0.79883837701E+02 0.  0.
         24    2    4    4    0    0  0.34565015227E+03  0.71516098376E+02  0.51402972948E+02  0.36566131189E+03  0.80481981202E+02 0.  0.
         13    1    3    3    0    0 -0.24020143725E+02 -0.50716063405E+02 -0.64314250097E+02  0.85354608296E+02  0.00000000000E+00 0. -1.
        -13    1    3    3    0    0  0.79618560914E+02 -0.32234337318E+03 -0.40485279706E+03  0.52359349954E+03  0.00000000000E+00 0.  1.
          4    1    6    6  502    0  0.32856210562E+03  0.68800446126E+02  0.28413970113E+02  0.33688857555E+03  0.00000000000E+00 0. -1.
          1    1    5    5  503    0 -0.29276521131E+03  0.17315228277E+03  0.44675244600E+03  0.56149882457E+03  0.00000000000E+00 0. -1.
         -4    1    5    5    0  503 -0.10848335814E+03  0.12839105544E+03  0.22594907351E+03  0.28161300739E+03  0.00000000000E+00 0.  1.
         -3    1    6    6    0  502  0.17088046641E+02  0.27156522496E+01  0.22989002835E+02  0.28772736340E+02  0.00000000000E+00 0.  1.
<mgrwt>
<rscale>  0 0.17997548E+04</rscale>
<asrwt>0</asrwt>
<pdfrwt beam="1">  1        2 0.15943529E+00 0.17997548E+04</pdfrwt>
<pdfrwt beam="2">  1       -2 0.12021414E+00 0.17997548E+04</pdfrwt>
<totfact> 0.11918603E+01</totfact>
</mgrwt>
</event>
<event>
12    1  0.1663913E-007  0.1197991E+04  0.7818608E-02  0.9114617E-01
         -1   -1    0    0    0  501 -0.00000000000E+00  0.00000000000E+00  0.16306732308E+03  0.16306732308E+03  0.00000000000E+00 0. -1.
          1   -1    0    0  501    0  0.00000000000E+00 -0.00000000000E+00 -0.22002906553E+04  0.22002906553E+04  0.00000000000E+00 0.  1.
         23    2    1    2    0    0 -0.22208513199E+03 -0.68481479362E+02 -0.64659443397E+03  0.69310493807E+03  0.91096510767E+02 0.  0.
        254    2    1    2    0    0  0.22208513199E+03  0.68481479362E+02 -0.13906288982E+04  0.16702530403E+04  0.89548029968E+03 0.  0.
        -24    2    4    4    0    0  0.99848504964E+02  0.21418819901E+03  0.15024737442E+02  0.24960737916E+03  0.78941702919E+02 0.  0.
         24    2    4    4    0    0  0.12223662702E+03 -0.14570671965E+03 -0.14056536356E+04  0.14206456611E+04  0.78738236337E+02 0.  0.
         13    1    3    3    0    0 -0.13038317074E+03 -0.60753974829E+02 -0.27575085401E+03  0.31101342440E+03  0.00000000000E+00 0. -1.
        -13    1    3    3    0    0 -0.91701961246E+02 -0.77275045329E+01 -0.37084357996E+03  0.38209151367E+03  0.00000000000E+00 0.  1.
          4    1    6    6  502    0  0.14465076294E+02 -0.26580779249E+01 -0.30314175353E+02  0.33693516257E+02  0.00000000000E+00 0. -1.
          3    1    5    5  503    0 -0.10252728756E+02  0.31988877466E+02 -0.10513806176E+02  0.35198676805E+02  0.00000000000E+00 0. -1.
         -4    1    5    5    0  503  0.11010123372E+03  0.18219932154E+03  0.25538543618E+02  0.21440870236E+03  0.00000000000E+00 0.  1.
         -3    1    6    6    0  502  0.10777155073E+03 -0.14304864172E+03 -0.13753394603E+04  0.13869521448E+04  0.00000000000E+00 0.  1.
<mgrwt>
<rscale>  0 0.11979908E+04</rscale>
<asrwt>0</asrwt>
<pdfrwt beam="1">  1        1 0.33850628E+00 0.11979908E+04</pdfrwt>
<pdfrwt beam="2">  1       -1 0.25087279E-01 0.11979908E+04</pdfrwt>
<totfact> 0.30114970E+01</totfact>
</mgrwt>
</event>
<event>
12    1  0.1663913E-007  0.1214894E+04  0.7818608E-02  0.9099919E-01
          2   -1    0    0  501    0  0.00000000000E+00  0.00000000000E+00  0.34135424042E+04  0.34135424042E+04  0.00000000000E+00 0. -1.
         -2   -1    0    0    0  501 -0.00000000000E+00 -0.00000000000E+00 -0.10809647380E+03  0.10809647380E+03  0.00000000000E+00 0.  1.
         23    2    1    2    0    0 -0.72471161033E+02 -0.21678828899E+03  0.38115123442E+03  0.45358604544E+03  0.90635565284E+02 0.  0.
        254    2    1    2    0    0  0.72471161033E+02  0.21678828899E+03  0.29242946960E+04  0.30680528326E+04  0.89955515838E+03 0.  0.
        -24    2    4    4    0    0  0.11673253882E+03 -0.32016879082E+03  0.15643094615E+04  0.16030276990E+04  0.80617443181E+02 0.  0.
         24    2    4    4    0    0 -0.44261377784E+02  0.53695707982E+03  0.13599852345E+04  0.14650251336E+04  0.80354395334E+02 0.  0.
         13    1    3    3    0    0 -0.59140410633E+02 -0.14052070417E+03  0.16828138263E+03  0.22707329260E+03  0.00000000000E+00 0.  1.
        -13    1    3    3    0    0 -0.13330750400E+02 -0.76267584819E+02  0.21286985179E+03  0.22651275284E+03  0.00000000000E+00 0. -1.
          4    1    6    6  502    0  0.14131682054E+02  0.13381411311E+03  0.40577330097E+03  0.42750192173E+03  0.00000000000E+00 0. -1.
          3    1    5    5  503    0  0.24728049821E+02 -0.17768611011E+03  0.86985312744E+03  0.88816006073E+03  0.00000000000E+00 0. -1.
         -4    1    5    5    0  503  0.92004488996E+02 -0.14248268071E+03  0.69445633403E+03  0.71486763822E+03  0.00000000000E+00 0.  1.
         -3    1    6    6    0  502 -0.58393059838E+02  0.40314296671E+03  0.95421193357E+03  0.10375232119E+04  0.00000000000E+00 0.  1.
<mgrwt>
<rscale>  0 0.12148941E+04</rscale>
<asrwt>0</asrwt>
<pdfrwt beam="1">  1        2 0.52516029E+00 0.12148941E+04</pdfrwt>
<pdfrwt beam="2">  1       -2 0.16630229E-01 0.12148941E+04</pdfrwt>
<totfact> 0.27720070E+01</totfact>
</mgrwt>
</event>
<event>
12    1  0.1663913E-007  0.1786673E+04  0.7818608E-02  0.8713419E-01
         -2   -1    0    0    0  501 -0.00000000000E+00  0.00000000000E+00  0.94719566834E+03  0.94719566834E+03  0.00000000000E+00 0.  1.
          2   -1    0    0  501    0  0.00000000000E+00 -0.00000000000E+00 -0.84254005282E+03  0.84254005282E+03  0.00000000000E+00 0. -1.
         23    2    1    2    0    0 -0.50441516321E+03  0.35534282371E+03  0.29170736166E+03  0.68860609047E+03  0.91553174414E+02 0.  0.
        254    2    1    2    0    0  0.50441516321E+03 -0.35534282371E+03 -0.18705174614E+03  0.11011296307E+04  0.89263370349E+03 0.  0.
        -24    2    4    4    0    0  0.29163076217E+03  0.16857807055E+03  0.21100856454E+03  0.40503253729E+03  0.77843912063E+02 0.  0.
         24    2    4    4    0    0  0.21278440104E+03 -0.52392089426E+03 -0.39806031067E+03  0.69609709340E+03  0.79554055410E+02 0.  0.
         13    1    3    3    0    0 -0.11145390986E+03  0.99215066601E+02  0.32600409206E+02  0.15273634192E+03  0.00000000000E+00 0.  1.
        -13    1    3    3    0    0 -0.39296125335E+03  0.25612775711E+03  0.25910695245E+03  0.53586974854E+03  0.00000000000E+00 0. -1.
          2    1    6    6  502    0  0.50572388246E+02 -0.22413145358E+03 -0.14719339509E+03  0.27287061127E+03  0.00000000000E+00 0. -1.
          1    1    5    5  503    0  0.74390745493E+02  0.39059722531E+02  0.15689895326E+02  0.85474076506E+02  0.00000000000E+00 0. -1.
         -2    1    5    5    0  503  0.21724001668E+03  0.12951834802E+03  0.19531866921E+03  0.31955846079E+03  0.00000000000E+00 0.  1.
         -1    1    6    6    0  502  0.16221201280E+03 -0.29978944068E+03 -0.25086691558E+03  0.42322648213E+03  0.00000000000E+00 0.  1.
<mgrwt>
<rscale>  0 0.17866732E+04</rscale>
<asrwt>0</asrwt>
<pdfrwt beam="1">  1        2 0.12962155E+00 0.17866732E+04</pdfrwt>
<pdfrwt beam="2">  1       -2 0.14572241E+00 0.17866732E+04</pdfrwt>
<totfact> 0.98158050E+00</totfact>
</mgrwt>
</event>
<event>
12    1  0.1663913E-007  0.2339523E+04  0.7818608E-02  0.8462499E-01
          2   -1    0    0  501    0  0.00000000000E+00  0.00000000000E+00  0.12168609201E+04  0.12168609201E+04  0.00000000000E+00 0. -1.
         -2   -1    0    0    0  501 -0.00000000000E+00 -0.00000000000E+00 -0.11244854319E+04  0.11244854319E+04  0.00000000000E+00 0.  1.
         23    2    1    2    0    0  0.51235139251E+03  0.67755637170E+03  0.52928153263E+03  0.10052230390E+04  0.93529841044E+02 0.  0.
        254    2    1    2    0    0 -0.51235139251E+03 -0.67755637170E+03 -0.43690604446E+03  0.13361233130E+04  0.93421198323E+03 0.  0.
        -24    2    4    4    0    0  0.23166536932E+03  0.59471693537E+01 -0.12606428334E+03  0.27609286748E+03  0.81430066758E+02 0.  0.
         24    2    4    4    0    0 -0.74401676183E+03 -0.68350354106E+03 -0.31084176111E+03  0.10600304455E+04  0.79397181537E+02 0.  0.
         11    1    3    3    0    0  0.42610145218E+03  0.60202719328E+03  0.48269967878E+03  0.88147499618E+03  0.00000000000E+00 0. -1.
        -11    1    3    3    0    0  0.86249940330E+02  0.75529178426E+02  0.46581853852E+02  0.12374804285E+03  0.00000000000E+00 0.  1.
          2    1    6    6  502    0 -0.65194359965E+03 -0.63107615365E+03 -0.27320267727E+03  0.94759024462E+03  0.00000000000E+00 0. -1.
          3    1    5    5  503    0  0.20704911189E+03  0.31630584143E+02 -0.10069868983E+03  0.23240063408E+03  0.00000000000E+00 0. -1.
         -4    1    5    5    0  503  0.24616257433E+02 -0.25683414789E+02 -0.25365593513E+02  0.43692233400E+02  0.00000000000E+00 0.  1.
         -1    1    6    6    0  502 -0.92073162178E+02 -0.52427387412E+02 -0.37639083847E+02  0.11244020089E+03  0.00000000000E+00 0.  1.
<mgrwt>
<rscale>  0 0.23395234E+04</rscale>
<asrwt>0</asrwt>
<pdfrwt beam="1">  1        2 0.18720937E+00 0.23395234E+04</pdfrwt>
<pdfrwt beam="2">  1       -2 0.17299776E+00 0.23395234E+04</pdfrwt>
<totfact> 0.33945402E+00</totfact>
</mgrwt>
</event>
<event>
12    1  0.1663913E-007  0.1162207E+04  0.7818608E-02  0.9146595E-01
          2   -1    0    0  501    0  0.00000000000E+00  0.00000000000E+00  0.36245618515E+03  0.36245618515E+03  0.00000000000E+00 0. -1.
         -2   -1    0    0    0  501 -0.00000000000E+00 -0.00000000000E+00 -0.93164732064E+03  0.93164732064E+03  0.00000000000E+00 0.  1.
         23    2    1    2    0    0 -0.21342085144E+03  0.10644310574E+02 -0.11624423193E+03  0.26187366687E+03  0.96970793366E+02 0.  0.
        254    2    1    2    0    0  0.21342085144E+03 -0.10644310574E+02 -0.45294690356E+03  0.10322298389E+04  0.90259391852E+03 0.  0.
        -24    2    4    4    0    0  0.37551527251E+03  0.18348752412E+03  0.84208653806E+02  0.43369863895E+03  0.79523711284E+02 0.  0.
         24    2    4    4    0    0 -0.16209442108E+03 -0.19413183469E+03 -0.53715555737E+03  0.59853119997E+03  0.75774230061E+02 0.  0.
         11    1    3    3    0    0 -0.15378707605E+03  0.37539291288E+02 -0.11634045195E+03  0.19645550110E+03  0.00000000000E+00 0.  1.
        -11    1    3    3    0    0 -0.59633775384E+02 -0.26894980714E+02  0.96220025673E-01  0.65418165768E+02  0.00000000000E+00 0. -1.
          4    1    6    6  502    0 -0.16796056234E+00 -0.41412885638E+02 -0.86819504201E+02  0.96190860363E+02  0.00000000000E+00 0. -1.
          1    1    5    5  503    0  0.72679487727E+02  0.56501009808E+02 -0.85842804204E+01  0.92457351876E+02  0.00000000000E+00 0. -1.
         -4    1    5    5    0  503  0.30283578479E+03  0.12698651431E+03  0.92792934226E+02  0.34124128708E+03  0.00000000000E+00 0.  1.
         -3    1    6    6    0  502 -0.16192646051E+03 -0.15271894906E+03 -0.45033605317E+03  0.50234033961E+03  0.00000000000E+00 0.  1.
<mgrwt>
<rscale>  0 0.11622071E+04</rscale>
<asrwt>0</asrwt>
<pdfrwt beam="1">  1        2 0.55762490E-01 0.11622071E+04</pdfrwt>
<pdfrwt beam="2">  1       -2 0.14333036E+00 0.11622071E+04</pdfrwt>
<totfact> 0.29657738E+01</totfact>
</mgrwt>
</event>
<event>
12    1  0.1663913E-007  0.1070130E+04  0.7818608E-02  0.9234804E-01
          2   -1    0    0  501    0  0.00000000000E+00  0.00000000000E+00  0.34294498850E+03  0.34294498850E+03  0.00000000000E+00 0. -1.
         -2   -1    0    0    0  501 -0.00000000000E+00 -0.00000000000E+00 -0.83481201911E+03  0.83481201911E+03  0.00000000000E+00 0.  1.
         23    2    1    2    0    0 -0.46075668643E+02 -0.12026639339E+03 -0.15455384455E+03  0.22123216226E+03  0.92031549650E+02 0.  0.
        254    2    1    2    0    0  0.46075668643E+02  0.12026639339E+03 -0.33731318605E+03  0.95652484535E+03  0.88576104095E+03 0.  0.
        -24    2    4    4    0    0 -0.20482155589E+03 -0.31339914131E+03 -0.96213548286E+02  0.39499173932E+03  0.81182114550E+02 0.  0.
         24    2    4    4    0    0  0.25089722453E+03  0.43366553470E+03 -0.24109963777E+03  0.56153310603E+03  0.78582317159E+02 0.  0.
         13    1    3    3    0    0 -0.49327077146E+02 -0.27149237157E+02 -0.24883866155E+02  0.61558495862E+02  0.00000000000E+00 0. -1.
        -13    1    3    3    0    0  0.32514085034E+01 -0.93117156234E+02 -0.12966997840E+03  0.15967366640E+03  0.00000000000E+00 0.  1.
          4    1    6    6  502    0  0.25439781293E+03  0.43417314025E+03 -0.24111168680E+03  0.55799588569E+03  0.00000000000E+00 0. -1.
          3    1    5    5  503    0 -0.18104779168E+03 -0.30941108608E+03 -0.85115363616E+02  0.36845372597E+03  0.00000000000E+00 0. -1.
         -4    1    5    5    0  503 -0.23773764208E+02 -0.39880552330E+01 -0.11098184671E+02  0.26538013342E+02  0.00000000000E+00 0.  1.
         -3    1    6    6    0  502 -0.35005883984E+01 -0.50760555004E+00  0.12049031437E-01  0.35372203365E+01  0.00000000000E+00 0.  1.
<mgrwt>
<rscale>  0 0.10701301E+04</rscale>
<asrwt>0</asrwt>
<pdfrwt beam="1">  1        2 0.52760768E-01 0.10701301E+04</pdfrwt>
<pdfrwt beam="2">  1       -2 0.12843262E+00 0.10701301E+04</pdfrwt>
<totfact> 0.42083506E+01</totfact>
</mgrwt>
</event>
<event>
12    1  0.1663913E-007  0.1212318E+04  0.7818608E-02  0.9102143E-01
          2   -1    0    0  501    0  0.00000000000E+00  0.00000000000E+00  0.84812650844E+03  0.84812650844E+03  0.00000000000E+00 0. -1.
         -2   -1    0    0    0  501 -0.00000000000E+00 -0.00000000000E+00 -0.43322381560E+03  0.43322381560E+03  0.00000000000E+00 0.  1.
         23    2    1    2    0    0  0.16652183252E+03 -0.40347560863E+02  0.30601596588E+03  0.36376031126E+03  0.96531581882E+02 0.  0.
        254    2    1    2    0    0 -0.16652183252E+03  0.40347560863E+02  0.10888672696E+03  0.91759001277E+03  0.89485063886E+03 0.  0.
        -24    2    4    4    0    0 -0.33304763889E+03 -0.28694434326E+03  0.25500965279E+03  0.51427635556E+03  0.78692191313E+02 0.  0.
         24    2    4    4    0    0  0.16652580636E+03  0.32729190412E+03 -0.14612292583E+03  0.40331365721E+03  0.80368911593E+02 0.  0.
         11    1    3    3    0    0  0.96041819312E+01  0.24076086593E+02  0.55023710564E+02  0.60823572572E+02  0.00000000000E+00 0.  1.
        -11    1    3    3    0    0  0.15691765059E+03 -0.64423647456E+02  0.25099225532E+03  0.30293673869E+03  0.00000000000E+00 0. -1.
          2    1    6    6  502    0  0.16930503910E+01  0.18093550211E+02 -0.28322219480E+02  0.33651019229E+02  0.00000000000E+00 0. -1.
          1    1    5    5  503    0 -0.22113762853E+03 -0.13941701148E+03  0.15102606394E+03  0.30190698209E+03  0.00000000000E+00 0. -1.
         -2    1    5    5    0  503 -0.11191001036E+03 -0.14752733178E+03  0.10398358885E+03  0.21236937347E+03  0.00000000000E+00 0.  1.
         -1    1    6    6    0  502  0.16483275597E+03  0.30919835391E+03 -0.11780070635E+03  0.36966263798E+03  0.00000000000E+00 0.  1.
<mgrwt>
<rscale>  0 0.12123178E+04</rscale>
<asrwt>0</asrwt>
<pdfrwt beam="1">  1        2 0.13048100E+00 0.12123178E+04</pdfrwt>
<pdfrwt beam="2">  1       -2 0.66649818E-01 0.12123178E+04</pdfrwt>
<totfact> 0.64939124E+01</totfact>
</mgrwt>
</event>
<event>
12    1  0.1663913E-007  0.1348388E+04  0.7818608E-02  0.8992049E-01
          2   -1    0    0  501    0  0.00000000000E+00  0.00000000000E+00  0.15357541620E+04  0.15357541620E+04  0.00000000000E+00 0.  1.
         -2   -1    0    0    0  501 -0.00000000000E+00 -0.00000000000E+00 -0.29597033640E+03  0.29597033640E+03  0.00000000000E+00 0. -1.
         23    2    1    2    0    0  0.36429769865E+02  0.31369944205E+03  0.97570359901E+02  0.34287909557E+03  0.91168146710E+02 0.  0.
        254    2    1    2    0    0 -0.36429769865E+02 -0.31369944205E+03  0.11422134657E+04  0.14888454028E+04  0.90126276091E+03 0.  0.
        -24    2    4    4    0    0  0.35442590513E+03 -0.33963262089E+03  0.37085009323E+03  0.62009496778E+03  0.77588259543E+02 0.  0.
         24    2    4    4    0    0 -0.39085567499E+03  0.25933178840E+02  0.77136337244E+03  0.86875043502E+03  0.79279111802E+02 0.  0.
         13    1    3    3    0    0  0.67142671397E+02  0.20589514438E+03  0.66931993096E+02  0.22667342258E+03  0.00000000000E+00 0. -1.
        -13    1    3    3    0    0 -0.30712901532E+02  0.10780429767E+03  0.30638366805E+02  0.11620567300E+03  0.00000000000E+00 0.  1.
          4    1    6    6  502    0 -0.80046428798E+02 -0.16005790123E+01  0.23458057727E+03  0.24786698015E+03  0.00000000000E+00 0. -1.
          1    1    5    5  503    0  0.35666224077E+02 -0.15092033855E+02  0.50841440707E+02  0.63911666532E+02  0.00000000000E+00 0. -1.
         -2    1    5    5    0  503  0.31875968105E+03 -0.32454058704E+03  0.32000865252E+03  0.55618330124E+03  0.00000000000E+00 0.  1.
         -3    1    6    6    0  502 -0.31080924619E+03  0.27533757852E+02  0.53678279517E+03  0.62088345487E+03  0.00000000000E+00 0.  1.
<mgrwt>
<rscale>  0 0.13483882E+04</rscale>
<asrwt>0</asrwt>
<pdfrwt beam="1">  1        2 0.23626987E+00 0.13483882E+04</pdfrwt>
<pdfrwt beam="2">  1       -2 0.45533899E-01 0.13483882E+04</pdfrwt>
<totfact> 0.54126559E+01</totfact>
</mgrwt>
</event>
<event>
12    1  0.1663913E-007  0.8962790E+03  0.7818608E-02  0.9430245E-01
          1   -1    0    0  501    0  0.00000000000E+00  0.00000000000E+00  0.94264672694E+03  0.94264672694E+03  0.00000000000E+00 0. -1.
         -1   -1    0    0    0  501 -0.00000000000E+00 -0.00000000000E+00 -0.21304799379E+03  0.21304799379E+03  0.00000000000E+00 0.  1.
         23    2    1    2    0    0  0.10669758120E+02 -0.30819223444E+02  0.94403977167E+02  0.13875573574E+03  0.96319131146E+02 0.  0.
        254    2    1    2    0    0 -0.10669758120E+02  0.30819223444E+02  0.63519475599E+03  0.10169389850E+04  0.79349155816E+03 0.  0.
        -24    2    4    4    0    0 -0.10214056901E+03 -0.13237061558E+03  0.75667944491E+03  0.77915711356E+03  0.81039185364E+02 0.  0.
         24    2    4    4    0    0  0.91470810891E+02  0.16318983902E+03 -0.12148468892E+03  0.23778187142E+03  0.82364166559E+02 0.  0.
         13    1    3    3    0    0 -0.25973644021E+01 -0.63907907075E+02  0.73485535769E+02  0.97422229782E+02  0.00000000000E+00 0. -1.
        -13    1    3    3    0    0  0.13267122522E+02  0.33088683632E+02  0.20918441399E+02  0.41333505961E+02  0.00000000000E+00 0.  1.
          4    1    6    6  502    0 -0.18031389235E+01 -0.86507094020E+01 -0.42491226477E+01  0.98051581532E+01  0.00000000000E+00 0. -1.
          1    1    5    5  503    0 -0.19234300297E+02 -0.78608698525E+02  0.44134941658E+03  0.44870769249E+03  0.00000000000E+00 0. -1.
         -2    1    5    5    0  503 -0.82906268713E+02 -0.53761917052E+02  0.31533002833E+03  0.33044942107E+03  0.00000000000E+00 0.  1.
         -3    1    6    6    0  502  0.93273949814E+02  0.17184054842E+03 -0.11723556627E+03  0.22797671327E+03  0.00000000000E+00 0.  1.
<mgrwt>
<rscale>  0 0.89627896E+03</rscale>
<asrwt>0</asrwt>
<pdfrwt beam="1">  1        1 0.14502257E+00 0.89627896E+03</pdfrwt>
<pdfrwt beam="2">  1       -1 0.32776615E-01 0.89627896E+03</pdfrwt>
<totfact> 0.14754142E+02</totfact>
</mgrwt>
</event>
<event>
12    1  0.1663913E-007  0.1501633E+04  0.7818608E-02  0.8883368E-01
         -1   -1    0    0    0  501 -0.00000000000E+00  0.00000000000E+00  0.58267625838E+03  0.58267625838E+03  0.00000000000E+00 0.  1.
          1   -1    0    0  501    0  0.00000000000E+00 -0.00000000000E+00 -0.96747618760E+03  0.96747618760E+03  0.00000000000E+00 0. -1.
         23    2    1    2    0    0 -0.26968475290E+03  0.65269438579E+02 -0.52693254842E+03  0.60248484569E+03  0.91324219927E+02 0.  0.
        254    2    1    2    0    0  0.26968475290E+03 -0.65269438579E+02  0.14213261920E+03  0.94766760030E+03  0.89492023871E+03 0.  0.
        -24    2    4    4    0    0  0.32268306498E+03  0.17375558939E+03 -0.27060258931E+03  0.46106806825E+03  0.71011526890E+02 0.  0.
         24    2    4    4    0    0 -0.52998312074E+02 -0.23902502796E+03  0.41273520851E+03  0.48659953205E+03  0.80541710720E+02 0.  0.
         13    1    3    3    0    0 -0.11074516319E+03  0.62831557462E+02 -0.29502513262E+03  0.32132868634E+03  0.00000000000E+00 0. -1.
        -13    1    3    3    0    0 -0.15893958972E+03  0.24378811169E+01 -0.23190741579E+03  0.28115615936E+03  0.00000000000E+00 0.  1.
          4    1    6    6  502    0 -0.58290905906E+02 -0.97352957104E+02  0.15034683774E+03  0.18836029196E+03  0.00000000000E+00 0. -1.
          3    1    5    5  503    0  0.77013903863E+02  0.28146521617E+02 -0.28915898634E+02  0.86945369406E+02  0.00000000000E+00 0. -1.
         -4    1    5    5    0  503  0.24566916111E+03  0.14560906777E+03 -0.24168669068E+03  0.37412269884E+03  0.00000000000E+00 0.  1.
         -1    1    6    6    0  502  0.52925938322E+01 -0.14167207086E+03  0.26238837078E+03  0.29823924009E+03  0.00000000000E+00 0.  1.
<mgrwt>
<rscale>  0 0.15016330E+04</rscale>
<asrwt>0</asrwt>
<pdfrwt beam="1">  1        1 0.14884249E+00 0.15016330E+04</pdfrwt>
<pdfrwt beam="2">  1       -1 0.89642501E-01 0.15016330E+04</pdfrwt>
<totfact> 0.18924353E+01</totfact>
</mgrwt>
</event>
<event>
12    1  0.1663913E-007  0.1464021E+04  0.7818608E-02  0.8908737E-01
          1   -1    0    0  501    0  0.00000000000E+00  0.00000000000E+00  0.26129890903E+04  0.26129890903E+04  0.00000000000E+00 0. -1.
         -1   -1    0    0    0  501 -0.00000000000E+00 -0.00000000000E+00 -0.20506761258E+03  0.20506761258E+03  0.00000000000E+00 0.  1.
         23    2    1    2    0    0  0.30639367718E+03 -0.20162543189E+02  0.13727900810E+04  0.14097571640E+04  0.92623114409E+02 0.  0.
        254    2    1    2    0    0 -0.30639367718E+03  0.20162543189E+02  0.10351313967E+04  0.14082995389E+04  0.90417197991E+03 0.  0.
        -24    2    4    4    0    0 -0.32719503310E+03 -0.84290204697E+02 -0.16830652290E+02  0.34758408012E+03  0.79812239659E+02 0.  0.
         24    2    4    4    0    0  0.20801355923E+02  0.10445274789E+03  0.10519620490E+04  0.10607154588E+04  0.84558021528E+02 0.  0.
         11    1    3    3    0    0  0.25413621970E+02 -0.37698088669E+01  0.39767257658E+02  0.47344465592E+02  0.00000000000E+00 0.  1.
        -11    1    3    3    0    0  0.28098005521E+03 -0.16392734322E+02  0.13330228234E+04  0.13624126984E+04  0.00000000000E+00 0. -1.
          2    1    6    6  502    0 -0.17702924171E+02  0.84648615080E+02  0.53512188199E+03  0.54206476564E+03  0.00000000000E+00 0. -1.
          3    1    5    5  503    0 -0.25121363037E+03 -0.93972303943E+02 -0.29918688155E+02  0.26987813897E+03  0.00000000000E+00 0. -1.
         -4    1    5    5    0  503 -0.75981402729E+02  0.96820992460E+01  0.13088035866E+02  0.77705941145E+02  0.00000000000E+00 0.  1.
         -1    1    6    6    0  502  0.38504280093E+02  0.19804132806E+02  0.51684016703E+03  0.51865069317E+03  0.00000000000E+00 0.  1.
<mgrwt>
<rscale>  0 0.14640211E+04</rscale>
<asrwt>0</asrwt>
<pdfrwt beam="1">  1        1 0.40199830E+00 0.14640211E+04</pdfrwt>
<pdfrwt beam="2">  1       -1 0.31548865E-01 0.14640211E+04</pdfrwt>
<totfact> 0.10272619E+01</totfact>
</mgrwt>
</event>
<event>
12    1  0.1663913E-007  0.2040513E+04  0.7818608E-02  0.8587910E-01
          2   -1    0    0  501    0  0.00000000000E+00  0.00000000000E+00  0.83266900966E+03  0.83266900966E+03  0.00000000000E+00 0. -1.
         -2   -1    0    0    0  501 -0.00000000000E+00 -0.00000000000E+00 -0.12501044634E+04  0.12501044634E+04  0.00000000000E+00 0.  1.
         23    2    1    2    0    0 -0.36387040078E+03 -0.70855828583E+03 -0.36507986982E+03  0.88107909786E+03  0.92523253100E+02 0.  0.
        254    2    1    2    0    0  0.36387040078E+03  0.70855828583E+03 -0.52355583959E+02  0.12016943752E+04  0.89826040287E+03 0.  0.
        -24    2    4    4    0    0  0.13117774490E+03  0.15677280894E+03  0.39329353575E+03  0.45100741574E+03  0.83322082339E+02 0.  0.
         24    2    4    4    0    0  0.23269265588E+03  0.55178547689E+03 -0.44564911971E+03  0.75068695951E+03  0.79465015417E+02 0.  0.
         13    1    3    3    0    0 -0.88397693211E+01 -0.68632758501E+02 -0.43420926752E+02  0.81694393572E+02  0.00000000000E+00 0. -1.
        -13    1    3    3    0    0 -0.35503063146E+03 -0.63992552732E+03 -0.32165894307E+03  0.79938470429E+03  0.00000000000E+00 0.  1.
          4    1    6    6  502    0  0.31780611679E+02  0.31214516119E+02 -0.19762109977E+02  0.48732887108E+02  0.00000000000E+00 0. -1.
          3    1    5    5  503    0  0.78885906807E+01 -0.12340979137E+01 -0.16221224955E+01  0.81476464073E+01  0.00000000000E+00 0. -1.
         -4    1    5    5    0  503  0.12328915422E+03  0.15800690685E+03  0.39491565825E+03  0.44285976933E+03  0.00000000000E+00 0.  1.
         -3    1    6    6    0  502  0.20091204420E+03  0.52057096077E+03 -0.42588700974E+03  0.70195407240E+03  0.00000000000E+00 0.  1.
<mgrwt>
<rscale>  0 0.20405129E+04</rscale>
<asrwt>0</asrwt>
<pdfrwt beam="1">  1        2 0.12810292E+00 0.20405129E+04</pdfrwt>
<pdfrwt beam="2">  1       -2 0.19232376E+00 0.20405129E+04</pdfrwt>
<totfact> 0.45180775E+00</totfact>
</mgrwt>
</event>
<event>
12    1  0.1663913E-007  0.1349075E+04  0.7818608E-02  0.8991529E-01
          1   -1    0    0  501    0  0.00000000000E+00  0.00000000000E+00  0.13419185718E+04  0.13419185718E+04  0.00000000000E+00 0. -1.
         -1   -1    0    0    0  501 -0.00000000000E+00 -0.00000000000E+00 -0.33906724083E+03  0.33906724083E+03  0.00000000000E+00 0.  1.
         23    2    1    2    0    0 -0.33062569236E+03  0.32374427160E+02  0.10603547389E+03  0.36119730770E+03  0.94119718368E+02 0.  0.
        254    2    1    2    0    0  0.33062569236E+03 -0.32374427160E+02  0.89681585707E+03  0.13197885049E+04  0.90950622000E+03 0.  0.
        -24    2    4    4    0    0  0.16053173585E+03  0.40593074119E+03  0.63831352929E+03  0.77743537748E+03  0.80071215998E+02 0.  0.
         24    2    4    4    0    0  0.17009395651E+03 -0.43830516835E+03  0.25850232778E+03  0.54235312743E+03  0.79246998195E+02 0.  0.
         13    1    3    3    0    0 -0.21463727205E+02  0.25989759514E+02  0.23670894985E+02  0.41188231990E+02  0.00000000000E+00 0. -1.
        -13    1    3    3    0    0 -0.30916196515E+03  0.63846676457E+01  0.82364578909E+02  0.32000907571E+03  0.00000000000E+00 0.  1.
          4    1    6    6  502    0  0.24138097319E+02 -0.55190829951E+02  0.52548496838E+01  0.60467254759E+02  0.00000000000E+00 0. -1.
          1    1    5    5  503    0  0.10206293357E+03  0.26280463137E+03  0.47633325987E+03  0.55351286447E+03  0.00000000000E+00 0. -1.
         -2    1    5    5    0  503  0.58468802276E+02  0.14312610982E+03  0.16198026942E+03  0.22392251301E+03  0.00000000000E+00 0.  1.
         -3    1    6    6    0  502  0.14595585919E+03 -0.38311433840E+03  0.25324747809E+03  0.48188587267E+03  0.00000000000E+00 0.  1.
<mgrwt>
<rscale>  0 0.13490747E+04</rscale>
<asrwt>0</asrwt>
<pdfrwt beam="1">  1        1 0.20644901E+00 0.13490747E+04</pdfrwt>
<pdfrwt beam="2">  1       -1 0.52164192E-01 0.13490747E+04</pdfrwt>
<totfact> 0.30588650E+01</totfact>
</mgrwt>
</event>
<event>
12    1  0.1663913E-007  0.1663687E+04  0.7818608E-02  0.8782350E-01
         -1   -1    0    0    0  501 -0.00000000000E+00  0.00000000000E+00  0.21966795201E+03  0.21966795201E+03  0.00000000000E+00 0.  1.
          1   -1    0    0  501    0  0.00000000000E+00 -0.00000000000E+00 -0.31500450521E+04  0.31500450521E+04  0.00000000000E+00 0. -1.
         23    2    1    2    0    0 -0.15119132962E+02 -0.29051935602E+03 -0.20679496607E+04  0.20903506330E+04  0.92303223906E+02 0.  0.
        254    2    1    2    0    0  0.15119132962E+02  0.29051935602E+03 -0.86242743942E+03  0.12793623712E+04  0.89908670556E+03 0.  0.
        -24    2    4    4    0    0  0.17374884359E+03  0.36639507056E+03 -0.18570270887E+02  0.41370340069E+03  0.79822555722E+02 0.  0.
         24    2    4    4    0    0 -0.15862971063E+03 -0.75875714544E+02 -0.84385716853E+03  0.86565897048E+03  0.79687032455E+02 0.  0.
         11    1    3    3    0    0 -0.23295340571E+02 -0.95885160646E+02 -0.99311696683E+03  0.99800698731E+03  0.00000000000E+00 0. -1.
        -11    1    3    3    0    0  0.81762076085E+01 -0.19463419537E+03 -0.10748326939E+04  0.10923436457E+04  0.00000000000E+00 0.  1.
          2    1    6    6  502    0 -0.98520987820E+02 -0.85790699291E+02 -0.62327140139E+03  0.63681525494E+03  0.00000000000E+00 0. -1.
          1    1    5    5  503    0  0.77729208505E+02  0.24769526241E+03 -0.25622412140E+02  0.26086640428E+03  0.00000000000E+00 0. -1.
         -2    1    5    5    0  503  0.96019635086E+02  0.11869980815E+03  0.70521412538E+01  0.15283699641E+03  0.00000000000E+00 0.  1.
         -1    1    6    6    0  502 -0.60108722809E+02  0.99149847469E+01 -0.22058576714E+03  0.22884371555E+03  0.00000000000E+00 0.  1.
<mgrwt>
<rscale>  0 0.16636874E+04</rscale>
<asrwt>0</asrwt>
<pdfrwt beam="1">  1        1 0.48462229E+00 0.16636874E+04</pdfrwt>
<pdfrwt beam="2">  1       -1 0.33795071E-01 0.16636874E+04</pdfrwt>
<totfact> 0.36734121E+00</totfact>
</mgrwt>
</event>
<event>
12    1  0.1663913E-007  0.1305274E+04  0.7818608E-02  0.9025393E-01
          1   -1    0    0  501    0  0.00000000000E+00  0.00000000000E+00  0.88873099153E+03  0.88873099153E+03  0.00000000000E+00 0. -1.
         -1   -1    0    0    0  501 -0.00000000000E+00 -0.00000000000E+00 -0.47926223848E+03  0.47926223848E+03  0.00000000000E+00 0.  1.
         23    2    1    2    0    0 -0.30291190111E+03  0.69508775872E+02 -0.45931206673E+02  0.32718198508E+03  0.91385370027E+02 0.  0.
        254    2    1    2    0    0  0.30291190111E+03 -0.69508775872E+02  0.45539995972E+03  0.10408112449E+04  0.88278640367E+03 0.  0.
        -24    2    4    4    0    0  0.15409241202E+03  0.19527229757E+03 -0.19020952833E+03  0.32296196056E+03  0.79050753689E+02 0.  0.
         24    2    4    4    0    0  0.14881948910E+03 -0.26478107344E+03  0.64560948805E+03  0.71784928438E+03  0.78991941602E+02 0.  0.
         11    1    3    3    0    0 -0.26659691799E+03  0.78594220974E+02 -0.64602492417E+02  0.28534969822E+03  0.00000000000E+00 0.  1.
        -11    1    3    3    0    0 -0.36314983128E+02 -0.90854451015E+01  0.18671285744E+02  0.41832286856E+02  0.00000000000E+00 0. -1.
          2    1    6    6  502    0  0.12850327062E+03 -0.15562087250E+03  0.38866213733E+03  0.43793744246E+03  0.00000000000E+00 0. -1.
          1    1    5    5  503    0  0.78917966116E+02  0.14869328500E+03 -0.15132349084E+03  0.22635489228E+03  0.00000000000E+00 0. -1.
         -2    1    5    5    0  503  0.75174445902E+02  0.46579012571E+02 -0.38886037486E+02  0.96607068272E+02  0.00000000000E+00 0.  1.
         -1    1    6    6    0  502  0.20316218472E+02 -0.10916020095E+03  0.25694735072E+03  0.27991184192E+03  0.00000000000E+00 0.  1.
<mgrwt>
<rscale>  0 0.13052742E+04</rscale>
<asrwt>0</asrwt>
<pdfrwt beam="1">  1        1 0.13672784E+00 0.13052742E+04</pdfrwt>
<pdfrwt beam="2">  1       -1 0.73732652E-01 0.13052742E+04</pdfrwt>
<totfact> 0.33836803E+01</totfact>
</mgrwt>
</event>
<event>
12    1  0.1663913E-007  0.1490669E+04  0.7818608E-02  0.8890682E-01
         -2   -1    0    0    0  501 -0.00000000000E+00  0.00000000000E+00  0.11765667625E+04  0.11765667625E+04  0.00000000000E+00 0.  1.
          2   -1    0    0  501    0  0.00000000000E+00 -0.00000000000E+00 -0.47215647716E+03  0.47215647716E+03  0.00000000000E+00 0. -1.
         23    2    1    2    0    0 -0.23015846879E+03  0.37358217588E+03  0.39270698828E+03  0.59630441752E+03  0.93934108937E+02 0.  0.
        254    2    1    2    0    0  0.23015846879E+03 -0.37358217588E+03  0.31170329710E+03  0.10524188222E+04  0.90437263835E+03 0.  0.
        -24    2    4    4    0    0 -0.23798516711E+03 -0.26712666405E+03  0.41620365377E+03  0.55476607561E+03  0.80909349443E+02 0.  0.
         24    2    4    4    0    0  0.46814363590E+03 -0.10645551183E+03 -0.10450035666E+03  0.49765274658E+03  0.79036015867E+02 0.  0.
         11    1    3    3    0    0  0.51586831381E+01  0.34181039571E+02  0.42733921585E+02  0.54964930018E+02  0.00000000000E+00 0. -1.
        -11    1    3    3    0    0 -0.23531715193E+03  0.33940113631E+03  0.34997306669E+03  0.54133948750E+03  0.00000000000E+00 0.  1.
          4    1    6    6  502    0  0.36456610485E+03 -0.69194519606E+02 -0.11118609244E+03  0.38737407438E+03  0.00000000000E+00 0. -1.
          3    1    5    5  503    0 -0.24314979384E+03 -0.25315934711E+03  0.40607036480E+03  0.53675377823E+03  0.00000000000E+00 0. -1.
         -4    1    5    5    0  503  0.51646267285E+01 -0.13967316934E+02  0.10133288967E+02  0.18012297379E+02  0.00000000000E+00 0.  1.
         -3    1    6    6    0  502  0.10357753105E+03 -0.37260992222E+02  0.66857357744E+01  0.11027867221E+03  0.00000000000E+00 0.  1.
<mgrwt>
<rscale>  0 0.14906691E+04</rscale>
<asrwt>0</asrwt>
<pdfrwt beam="1">  1        2 0.72639458E-01 0.14906691E+04</pdfrwt>
<pdfrwt beam="2">  1       -2 0.18101027E+00 0.14906691E+04</pdfrwt>
<totfact> 0.11341093E+01</totfact>
</mgrwt>
</event>
<event>
12    1  0.2475149E-007  0.2263279E+04  0.7818608E-02  0.8492542E-01
          2   -1    0    0  501    0  0.00000000000E+00  0.00000000000E+00  0.15560176996E+04  0.15560176996E+04  0.00000000000E+00 0.  1.
         -2   -1    0    0    0  501 -0.00000000000E+00 -0.00000000000E+00 -0.82300368535E+03  0.82300368535E+03  0.00000000000E+00 0. -1.
         23    2    1    2    0    0 -0.44559231239E+02  0.35263811460E+03  0.12283762540E+04  0.12819974544E+04  0.90940016691E+02 0.  0.
        254    2    1    2    0    0  0.44559231239E+02 -0.35263811460E+03 -0.49536223980E+03  0.10970239305E+04  0.91199703430E+03 0.  0.
        -24    2    4    4    0    0 -0.33317549180E+02  0.27963271264E+03 -0.31611600230E+03  0.43091911439E+03  0.80358217852E+02 0.  0.
         24    2    4    4    0    0  0.77876780419E+02 -0.63227082724E+03 -0.17924623750E+03  0.66610481614E+03  0.75731238723E+02 0.  0.
         13    1    3    3    0    0 -0.27045981777E+02  0.11539493659E+03  0.27623336774E+03  0.30058667631E+03  0.00000000000E+00 0. -1.
        -13    1    3    3    0    0 -0.17513249462E+02  0.23724317801E+03  0.95214288630E+03  0.98141077809E+03  0.00000000000E+00 0.  1.
          2    1    6    6  502    0  0.87125788094E+01 -0.35858902100E+02 -0.29655014808E+02  0.47341206075E+02  0.00000000000E+00 0. -1.
          3    1    5    5  503    0  0.12292583258E+02  0.99425006040E+01 -0.48167577925E+01  0.16527615589E+02  0.00000000000E+00 0. -1.
         -4    1    5    5    0  503 -0.45610132438E+02  0.26969021204E+03 -0.31129924451E+03  0.41439149880E+03  0.00000000000E+00 0.  1.
         -1    1    6    6    0  502  0.69164201609E+02 -0.59641192514E+03 -0.14959122269E+03  0.61876361007E+03  0.00000000000E+00 0.  1.
<mgrwt>
<rscale>  0 0.22632793E+04</rscale>
<asrwt>0</asrwt>
<pdfrwt beam="1">  1        2 0.23938734E+00 0.22632793E+04</pdfrwt>
<pdfrwt beam="2">  1       -2 0.12661595E+00 0.22632793E+04</pdfrwt>
<totfact> 0.49837128E+00</totfact>
</mgrwt>
</event>
<event>
12    1  0.1663913E-007  0.2066466E+04  0.7818608E-02  0.8576161E-01
         -1   -1    0    0    0  501 -0.00000000000E+00  0.00000000000E+00  0.67730933860E+03  0.67730933860E+03  0.00000000000E+00 0.  1.
          1   -1    0    0  501    0  0.00000000000E+00 -0.00000000000E+00 -0.15761926341E+04  0.15761926341E+04  0.00000000000E+00 0. -1.
         23    2    1    2    0    0  0.29080963441E+03  0.22847983693E+03  0.45066986673E+03  0.58941257532E+03  0.86778890381E+02 0.  0.
        254    2    1    2    0    0 -0.29080963441E+03 -0.22847983693E+03 -0.13495531623E+04  0.16640893974E+04  0.90062561891E+03 0.  0.
        -24    2    4    4    0    0 -0.22142027069E+03 -0.55562021575E+03 -0.10351146626E+04  0.11982695491E+04  0.81527830465E+02 0.  0.
         24    2    4    4    0    0 -0.69389363726E+02  0.32714037882E+03 -0.31443849965E+03  0.46581984831E+03  0.79251812355E+02 0.  0.
         13    1    3    3    0    0  0.24775926635E+03  0.21280789569E+03  0.34950438067E+03  0.47835673575E+03  0.00000000000E+00 0.  1.
        -13    1    3    3    0    0  0.43050368059E+02  0.15671941240E+02  0.10116548606E+03  0.11105583957E+03  0.00000000000E+00 0. -1.
          2    1    6    6  502    0 -0.31185790133E+02  0.51721369749E+02 -0.90486685097E+02  0.10879105558E+03  0.00000000000E+00 0. -1.
          3    1    5    5  503    0 -0.38526699460E+02 -0.19844081226E+03 -0.36205181404E+03  0.41466200524E+03  0.00000000000E+00 0. -1.
         -4    1    5    5    0  503 -0.18289357123E+03 -0.35717940349E+03 -0.67306284857E+03  0.78360754386E+03  0.00000000000E+00 0.  1.
         -1    1    6    6    0  502 -0.38203573594E+02  0.27541900907E+03 -0.22395181456E+03  0.35702879272E+03  0.00000000000E+00 0.  1.
<mgrwt>
<rscale>  0 0.20664656E+04</rscale>
<asrwt>0</asrwt>
<pdfrwt beam="1">  1        1 0.24249117E+00 0.20664656E+04</pdfrwt>
<pdfrwt beam="2">  1       -1 0.10420144E+00 0.20664656E+04</pdfrwt>
<totfact> 0.46316140E+00</totfact>
</mgrwt>
</event>
<event>
12    1  0.1663913E-007  0.1504166E+04  0.7818608E-02  0.8881687E-01
          1   -1    0    0  501    0  0.00000000000E+00  0.00000000000E+00  0.43648103377E+03  0.43648103377E+03  0.00000000000E+00 0. -1.
         -1   -1    0    0    0  501 -0.00000000000E+00 -0.00000000000E+00 -0.12958844358E+04  0.12958844358E+04  0.00000000000E+00 0.  1.
         23    2    1    2    0    0  0.31870925305E+03 -0.32885133878E+03 -0.12718553496E+03  0.48366890417E+03  0.89669713736E+02 0.  0.
        254    2    1    2    0    0 -0.31870925305E+03  0.32885133878E+03 -0.73221786709E+03  0.12486965654E+04  0.90187655287E+03 0.  0.
        -24    2    4    4    0    0  0.14008566003E+03  0.44008873560E+03 -0.58075242235E+03  0.74650634598E+03  0.81830686060E+02 0.  0.
         24    2    4    4    0    0 -0.45879491308E+03 -0.11123739683E+03 -0.15146544474E+03  0.50219021944E+03  0.79916861937E+02 0.  0.
         11    1    3    3    0    0  0.62414655987E+02 -0.69999358270E+02 -0.65058599322E+02  0.11414079370E+03  0.00000000000E+00 0.  1.
        -11    1    3    3    0    0  0.25629459707E+03 -0.25885198051E+03 -0.62126935633E+02  0.36952811047E+03  0.00000000000E+00 0. -1.
          4    1    6    6  502    0 -0.34183721748E+03 -0.11379140626E+03 -0.13141712508E+03  0.38349918925E+03  0.00000000000E+00 0. -1.
          1    1    5    5  503    0  0.14897996656E+03  0.39604638898E+03 -0.50986165154E+03  0.66257578915E+03  0.00000000000E+00 0. -1.
         -2    1    5    5    0  503 -0.88943065239E+01  0.44042346626E+02 -0.70890770803E+02  0.83930556831E+02  0.00000000000E+00 0.  1.
         -3    1    6    6    0  502 -0.11695769561E+03  0.25540094286E+01 -0.20048319665E+02  0.11869103019E+03  0.00000000000E+00 0.  1.
<mgrwt>
<rscale>  0 0.15041662E+04</rscale>
<asrwt>0</asrwt>
<pdfrwt beam="1">  1        1 0.67150928E-01 0.15041662E+04</pdfrwt>
<pdfrwt beam="2">  1       -1 0.19936684E+00 0.15041662E+04</pdfrwt>
<totfact> 0.78438574E+00</totfact>
</mgrwt>
</event>
<event>
12    1  0.1663913E-007  0.2288745E+04  0.7818608E-02  0.8482372E-01
          1   -1    0    0  501    0  0.00000000000E+00  0.00000000000E+00  0.20008265287E+04  0.20008265287E+04  0.00000000000E+00 0. -1.
         -1   -1    0    0    0  501 -0.00000000000E+00 -0.00000000000E+00 -0.65452344079E+03  0.65452344079E+03  0.00000000000E+00 0.  1.
         23    2    1    2    0    0  0.13178316168E+03 -0.44978474153E+03  0.15474303635E+04  0.16193601324E+04  0.90074375160E+02 0.  0.
        254    2    1    2    0    0 -0.13178316168E+03  0.44978474153E+03 -0.20112727563E+03  0.10359898371E+04  0.90174810568E+03 0.  0.
        -24    2    4    4    0    0  0.10046233329E+03 -0.24637156664E+03 -0.59333468142E+02  0.28437856704E+03  0.80988145404E+02 0.  0.
         24    2    4    4    0    0 -0.23224549496E+03  0.69615630816E+03 -0.14179380749E+03  0.75161127002E+03  0.79009126412E+02 0.  0.
         13    1    3    3    0    0  0.11652864375E+03 -0.39253701967E+03  0.14349822933E+04  0.14922595011E+04  0.00000000000E+00 0. -1.
        -13    1    3    3    0    0  0.15254517922E+02 -0.57247721859E+02  0.11244807027E+03  0.12710063133E+03  0.00000000000E+00 0.  1.
          2    1    6    6  502    0 -0.19271635257E+03  0.53317757605E+03 -0.78432389853E+02  0.57233692868E+03  0.00000000000E+00 0. -1.
          3    1    5    5  503    0  0.80424366733E+02 -0.14319380004E+03 -0.70412038019E+02  0.17869078944E+03  0.00000000000E+00 0. -1.
         -4    1    5    5    0  503  0.20037966555E+02 -0.10317776660E+03  0.11078569877E+02  0.10568777760E+03  0.00000000000E+00 0.  1.
         -1    1    6    6    0  502 -0.39529142394E+02  0.16297873211E+03 -0.63361417638E+02  0.17927434134E+03  0.00000000000E+00 0.  1.
<mgrwt>
<rscale>  0 0.22887445E+04</rscale>
<asrwt>0</asrwt>
<pdfrwt beam="1">  1        1 0.30781946E+00 0.22887445E+04</pdfrwt>
<pdfrwt beam="2">  1       -1 0.10069592E+00 0.22887445E+04</pdfrwt>
<totfact> 0.25254510E+00</totfact>
</mgrwt>
</event>
<event>
12    1  0.1663913E-007  0.1520290E+04  0.7818608E-02  0.8871072E-01
          1   -1    0    0  501    0  0.00000000000E+00  0.00000000000E+00  0.67011551231E+03  0.67011551231E+03  0.00000000000E+00 0. -1.
         -1   -1    0    0    0  501 -0.00000000000E+00 -0.00000000000E+00 -0.86226939510E+03  0.86226939510E+03  0.00000000000E+00 0.  1.
         23    2    1    2    0    0  0.23683637663E+03  0.17414941564E+03  0.32856643011E+03  0.45043854128E+03  0.92301095383E+02 0.  0.
        254    2    1    2    0    0 -0.23683637663E+03 -0.17414941564E+03 -0.52072031291E+03  0.10819463661E+04  0.90168664550E+03 0.  0.
        -24    2    4    4    0    0  0.45215210571E+02  0.20717091055E+03  0.13841552325E+03  0.26573548814E+03  0.80574754949E+02 0.  0.
         24    2    4    4    0    0 -0.28205158720E+03 -0.38132032618E+03 -0.65913583616E+03  0.81621087800E+03  0.82352036123E+02 0.  0.
         13    1    3    3    0    0  0.21209900865E+03  0.11513913494E+03  0.28275627377E+03  0.37174469764E+03  0.00000000000E+00 0. -1.
        -13    1    3    3    0    0  0.24737367978E+02  0.59010280698E+02  0.45810156340E+02  0.78693843638E+02  0.00000000000E+00 0.  1.
          2    1    6    6  502    0 -0.83441229509E+02 -0.14400214687E+03 -0.29151800941E+03  0.33568110893E+03  0.00000000000E+00 0. -1.
          1    1    5    5  503    0  0.19111838823E+01  0.55835532680E+01  0.34205261318E+02  0.34710640915E+02  0.00000000000E+00 0. -1.
         -2    1    5    5    0  503  0.43304026689E+02  0.20158735728E+03  0.10421026194E+03  0.23102484722E+03  0.00000000000E+00 0.  1.
         -3    1    6    6    0  502 -0.19861035769E+03 -0.23731817931E+03 -0.36761782675E+03  0.48052976907E+03  0.00000000000E+00 0.  1.
<mgrwt>
<rscale>  0 0.15202896E+04</rscale>
<asrwt>0</asrwt>
<pdfrwt beam="1">  1        1 0.10309470E+00 0.15202896E+04</pdfrwt>
<pdfrwt beam="2">  1       -1 0.13265683E+00 0.15202896E+04</pdfrwt>
<totfact> 0.13542712E+01</totfact>
</mgrwt>
</event>
<event>
12    1  0.1663913E-007  0.3159143E+04  0.7818608E-02  0.8199692E-01
         -2   -1    0    0    0  501 -0.00000000000E+00  0.00000000000E+00  0.24317904167E+04  0.24317904167E+04  0.00000000000E+00 0. -1.
          2   -1    0    0  501    0  0.00000000000E+00 -0.00000000000E+00 -0.10260118708E+04  0.10260118708E+04  0.00000000000E+00 0.  1.
         23    2    1    2    0    0  0.60949867757E+03 -0.47984444502E+03  0.19905866169E+04  0.21383083418E+04  0.90488428523E+02 0.  0.
        254    2    1    2    0    0 -0.60949867757E+03  0.47984444502E+03 -0.58480807103E+03  0.13194939458E+04  0.89293026806E+03 0.  0.
        -24    2    4    4    0    0 -0.22981105052E+03  0.42841491771E+03 -0.74698494922E+03  0.89483976344E+03  0.79995169934E+02 0.  0.
         24    2    4    4    0    0 -0.37968762706E+03  0.51429527310E+02  0.16217687819E+03  0.42465418234E+03  0.84983200348E+02 0.  0.
         11    1    3    3    0    0  0.38702521710E+03 -0.35296412896E+03  0.12836314123E+04  0.13863916466E+04  0.00000000000E+00 0. -1.
        -11    1    3    3    0    0  0.22247346047E+03 -0.12688031606E+03  0.70695520460E+03  0.75191669520E+03  0.00000000000E+00 0.  1.
          4    1    6    6  502    0 -0.14048958258E+03 -0.51967583389E+01  0.23843543022E+02  0.14259328054E+03  0.00000000000E+00 0. -1.
          1    1    5    5  503    0 -0.79807312893E+02  0.88063515690E+02 -0.21615543408E+03  0.24667298528E+03  0.00000000000E+00 0. -1.
         -2    1    5    5    0  503 -0.15000373762E+03  0.34035140202E+03 -0.53082951514E+03  0.64816677815E+03  0.00000000000E+00 0.  1.
         -3    1    6    6    0  502 -0.23919804448E+03  0.56626285649E+02  0.13833333516E+03  0.28206090181E+03  0.00000000000E+00 0.  1.
<mgrwt>
<rscale>  0 0.31591428E+04</rscale>
<asrwt>0</asrwt>
<pdfrwt beam="1">  1        2 0.15784798E+00 0.31591428E+04</pdfrwt>
<pdfrwt beam="2">  1       -2 0.37412160E+00 0.31591428E+04</pdfrwt>
<totfact> 0.22361324E-01</totfact>
</mgrwt>
</event>
<event>
12    1  0.1663913E-007  0.1882394E+04  0.7818608E-02  0.8663670E-01
          2   -1    0    0  501    0  0.00000000000E+00  0.00000000000E+00  0.13720058590E+04  0.13720058590E+04  0.00000000000E+00 0.  1.
         -2   -1    0    0    0  501 -0.00000000000E+00 -0.00000000000E+00 -0.64566207477E+03  0.64566207477E+03  0.00000000000E+00 0. -1.
         23    2    1    2    0    0 -0.47259739672E+03  0.51957467791E+03  0.20005963126E+03  0.73527290922E+03  0.85418087458E+02 0.  0.
        254    2    1    2    0    0  0.47259739672E+03 -0.51957467791E+03  0.52628415300E+03  0.12823950246E+04  0.93501649400E+03 0.  0.
        -24    2    4    4    0    0  0.58356616589E+03 -0.33335386025E+03  0.71470428514E+03  0.98445782771E+03  0.81735752456E+02 0.  0.
         24    2    4    4    0    0 -0.11096876917E+03 -0.18622081766E+03 -0.18842013215E+03  0.29793719686E+03  0.79197010147E+02 0.  0.
         11    1    3    3    0    0 -0.42949161440E+03  0.48916348301E+03  0.20452615166E+03  0.68233049666E+03  0.00000000000E+00 0. -1.
        -11    1    3    3    0    0 -0.43105782310E+02  0.30411194900E+02 -0.44665203919E+01  0.52942412565E+02  0.00000000000E+00 0.  1.
          4    1    6    6  502    0 -0.73620524335E+02 -0.17141854425E+03 -0.13141469354E+03  0.22819754730E+03  0.00000000000E+00 0. -1.
          3    1    5    5  503    0  0.51335743599E+03 -0.29010699649E+03  0.58397163184E+03  0.82989203713E+03  0.00000000000E+00 0. -1.
         -4    1    5    5    0  503  0.70208729902E+02 -0.43246863762E+02  0.13073265330E+03  0.15456579058E+03  0.00000000000E+00 0.  1.
         -3    1    6    6    0  502 -0.37348244837E+02 -0.14802273406E+02 -0.57005438601E+02  0.69739649558E+02  0.00000000000E+00 0.  1.
<mgrwt>
<rscale>  0 0.18823944E+04</rscale>
<asrwt>0</asrwt>
<pdfrwt beam="1">  1        2 0.21107782E+00 0.18823944E+04</pdfrwt>
<pdfrwt beam="2">  1       -2 0.99332628E-01 0.18823944E+04</pdfrwt>
<totfact> 0.11820814E+01</totfact>
</mgrwt>
</event>
<event>
12    1  0.1663913E-007  0.2400929E+04  0.7818608E-02  0.8439156E-01
         -2   -1    0    0    0  501 -0.00000000000E+00  0.00000000000E+00  0.20381506170E+04  0.20381506170E+04  0.00000000000E+00 0.  1.
          2   -1    0    0  501    0  0.00000000000E+00 -0.00000000000E+00 -0.70706974690E+03  0.70706974690E+03  0.00000000000E+00 0. -1.
         23    2    1    2    0    0 -0.56129437330E+03 -0.86044276105E+03  0.64809221469E+03  0.12178436520E+04  0.87786807050E+02 0.  0.
        254    2    1    2    0    0  0.56129437330E+03  0.86044276105E+03  0.68298865544E+03  0.15273767119E+04  0.90055149663E+03 0.  0.
        -24    2    4    4    0    0 -0.24068645891E+03  0.19316178864E+03  0.18378725212E+03  0.36807390519E+03  0.80369133026E+02 0.  0.
         24    2    4    4    0    0  0.80198083221E+03  0.66728097241E+03  0.49920140333E+03  0.11593028067E+04  0.79648008278E+02 0.  0.
         13    1    3    3    0    0 -0.54851863569E+03 -0.84130778639E+03  0.64724290092E+03  0.11948200107E+04  0.00000000000E+00 0.  1.
        -13    1    3    3    0    0 -0.12775737606E+02 -0.19134974657E+02  0.84931377036E+00  0.23023641336E+02  0.00000000000E+00 0. -1.
          4    1    6    6  502    0  0.43668851875E+03  0.37120317494E+03  0.31748120820E+03  0.65519689945E+03  0.00000000000E+00 0. -1.
          3    1    5    5  503    0 -0.94508945453E+02  0.64688629077E+02  0.25773704438E+02  0.11739183678E+03  0.00000000000E+00 0. -1.
         -4    1    5    5    0  503 -0.14617751346E+03  0.12847315957E+03  0.15801354768E+03  0.25068206841E+03  0.00000000000E+00 0.  1.
         -1    1    6    6    0  502  0.36529231346E+03  0.29607779747E+03  0.18172019512E+03  0.50410590727E+03  0.00000000000E+00 0.  1.
<mgrwt>
<rscale>  0 0.24009287E+04</rscale>
<asrwt>0</asrwt>
<pdfrwt beam="1">  1        2 0.10877996E+00 0.24009287E+04</pdfrwt>
<pdfrwt beam="2">  1       -2 0.31356163E+00 0.24009287E+04</pdfrwt>
<totfact> 0.95474843E-01</totfact>
</mgrwt>
</event>
<event>
12    1  0.1663913E-007  0.1779775E+04  0.7818608E-02  0.8717130E-01
          2   -1    0    0  501    0  0.00000000000E+00  0.00000000000E+00  0.12672351873E+04  0.12672351873E+04  0.00000000000E+00 0. -1.
         -2   -1    0    0    0  501 -0.00000000000E+00 -0.00000000000E+00 -0.62490322047E+03  0.62490322047E+03  0.00000000000E+00 0.  1.
         23    2    1    2    0    0 -0.59185777355E+03  0.42900285409E+02  0.53307640372E+03  0.80313645457E+03  0.93389795203E+02 0.  0.
        254    2    1    2    0    0  0.59185777355E+03 -0.42900285409E+02  0.10925556307E+03  0.10890019532E+04  0.90656076318E+03 0.  0.
        -24    2    4    4    0    0  0.15134784099E+03 -0.39686609409E+03  0.25334500564E+03  0.50101886141E+03  0.80170705332E+02 0.  0.
         24    2    4    4    0    0  0.44050993256E+03  0.35396580868E+03 -0.14408944257E+03  0.58798309176E+03  0.74977025379E+02 0.  0.
         11    1    3    3    0    0 -0.25329231796E+03 -0.25108945039E+02  0.24744329258E+03  0.35498681736E+03  0.00000000000E+00 0. -1.
        -11    1    3    3    0    0 -0.33856545559E+03  0.68009230447E+02  0.28563311115E+03  0.44814963721E+03  0.00000000000E+00 0.  1.
          2    1    6    6  502    0  0.22829878234E+03  0.14633772472E+03 -0.93339136699E+02  0.28678782772E+03  0.00000000000E+00 0. -1.
          1    1    5    5  503    0  0.43013732606E+02 -0.52922125733E+02  0.18415367169E+02  0.70640344937E+02  0.00000000000E+00 0. -1.
         -2    1    5    5    0  503  0.10833410839E+03 -0.34394396836E+03  0.23492963847E+03  0.43037851647E+03  0.00000000000E+00 0.  1.
         -1    1    6    6    0  502  0.21221115023E+03  0.20762808397E+03 -0.50750305869E+02  0.30119526404E+03  0.00000000000E+00 0.  1.
<mgrwt>
<rscale>  0 0.17797745E+04</rscale>
<asrwt>0</asrwt>
<pdfrwt beam="1">  1        2 0.19495926E+00 0.17797745E+04</pdfrwt>
<pdfrwt beam="2">  1       -2 0.96138957E-01 0.17797745E+04</pdfrwt>
<totfact> 0.14810725E+01</totfact>
</mgrwt>
</event>
<event>
12    1  0.1663913E-007  0.2728395E+04  0.7818608E-02  0.8325850E-01
         -2   -1    0    0    0  501 -0.00000000000E+00  0.00000000000E+00  0.13054305018E+04  0.13054305018E+04  0.00000000000E+00 0.  1.
          2   -1    0    0  501    0  0.00000000000E+00 -0.00000000000E+00 -0.14256104579E+04  0.14256104579E+04  0.00000000000E+00 0. -1.
         23    2    1    2    0    0 -0.10985971551E+04 -0.16993613172E+03 -0.53949531404E+03  0.12391779212E+04  0.93341997422E+02 0.  0.
        254    2    1    2    0    0  0.10985971551E+04  0.16993613172E+03  0.41931535797E+03  0.14918630385E+04  0.90223941283E+03 0.  0.
        -24    2    4    4    0    0  0.94198775731E+03 -0.24907699746E+03  0.27737035495E+03  0.10156095053E+04  0.71750037571E+02 0.  0.
         24    2    4    4    0    0  0.15660939783E+03  0.41901312918E+03  0.14194500302E+03  0.47625353319E+03  0.81058855627E+02 0.  0.
         11    1    3    3    0    0 -0.18579954981E+03  0.63528904590E+01 -0.89190133497E+02  0.20619580947E+03  0.00000000000E+00 0. -1.
        -11    1    3    3    0    0 -0.91279760533E+03 -0.17628902218E+03 -0.45030518054E+03  0.10329821118E+04  0.00000000000E+00 0.  1.
          4    1    6    6  502    0  0.42635887856E+02  0.16492433009E+03  0.91078549711E+02  0.19316613525E+03  0.00000000000E+00 0. -1.
          1    1    5    5  503    0  0.12377953062E+03 -0.93465352516E+01  0.27459610287E+02  0.12713284437E+03  0.00000000000E+00 0. -1.
         -2    1    5    5    0  503  0.81820822669E+03 -0.23973046221E+03  0.24991074466E+03  0.88847666094E+03  0.00000000000E+00 0.  1.
         -3    1    6    6    0  502  0.11397350998E+03  0.25408879909E+03  0.50866453305E+02  0.28308739794E+03  0.00000000000E+00 0.  1.
<mgrwt>
<rscale>  0 0.27283954E+04</rscale>
<asrwt>0</asrwt>
<pdfrwt beam="1">  1        2 0.21932469E+00 0.27283954E+04</pdfrwt>
<pdfrwt beam="2">  1       -2 0.20083546E+00 0.27283954E+04</pdfrwt>
<totfact> 0.16083645E+00</totfact>
</mgrwt>
</event>
<event>
12    1  0.1663913E-007  0.1398523E+04  0.7818608E-02  0.8954888E-01
         -2   -1    0    0    0  501 -0.00000000000E+00  0.00000000000E+00  0.32728824339E+03  0.32728824339E+03  0.00000000000E+00 0.  1.
          2   -1    0    0  501    0  0.00000000000E+00 -0.00000000000E+00 -0.14939945637E+04  0.14939945637E+04  0.00000000000E+00 0. -1.
         23    2    1    2    0    0  0.13913578827E+03 -0.36532321141E+03 -0.20408527540E+03  0.45019401656E+03  0.90576136656E+02 0.  0.
        254    2    1    2    0    0 -0.13913578827E+03  0.36532321141E+03 -0.96262104488E+03  0.13710887905E+04  0.89466495351E+03 0.  0.
        -24    2    4    4    0    0 -0.43541343522E+03  0.45852527315E+03 -0.50926683870E+03  0.81572097657E+03  0.78852475750E+02 0.  0.
         24    2    4    4    0    0  0.29627764694E+03 -0.93202061739E+02 -0.45335420618E+03  0.55536781394E+03  0.80226579809E+02 0.  0.
         13    1    3    3    0    0  0.77026302605E+02 -0.10218809009E+03 -0.40646189155E+02  0.13426678570E+03  0.00000000000E+00 0.  1.
        -13    1    3    3    0    0  0.62109485667E+02 -0.26313512132E+03 -0.16343908625E+03  0.31592723085E+03  0.00000000000E+00 0. -1.
          2    1    6    6  502    0  0.16358783502E+02  0.11670372548E+02 -0.45148015075E+02  0.49418120748E+02  0.00000000000E+00 0. -1.
          1    1    5    5  503    0 -0.10200869557E+03  0.14903982511E+03 -0.11839519148E+03  0.21595384879E+03  0.00000000000E+00 0. -1.
         -2    1    5    5    0  503 -0.33340473964E+03  0.30948544804E+03 -0.39087164722E+03  0.59976712778E+03  0.00000000000E+00 0.  1.
         -1    1    6    6    0  502  0.27991886344E+03 -0.10487243429E+03 -0.40820619110E+03  0.50594969319E+03  0.00000000000E+00 0.  1.
<mgrwt>
<rscale>  0 0.13985233E+04</rscale>
<asrwt>0</asrwt>
<pdfrwt beam="1">  1        2 0.22984532E+00 0.13985233E+04</pdfrwt>
<pdfrwt beam="2">  1       -2 0.50352037E-01 0.13985233E+04</pdfrwt>
<totfact> 0.46444628E+01</totfact>
</mgrwt>
</event>
<event>
12    1  0.1663913E-007  0.1151353E+04  0.7818608E-02  0.9156537E-01
          1   -1    0    0  501    0  0.00000000000E+00  0.00000000000E+00  0.33774768797E+03  0.33774768797E+03  0.00000000000E+00 0. -1.
         -1   -1    0    0    0  501 -0.00000000000E+00 -0.00000000000E+00 -0.98121545645E+03  0.98121545645E+03  0.00000000000E+00 0.  1.
         23    2    1    2    0    0  0.39899531918E+02 -0.43518386354E+02  0.10163743285E+03  0.14915283121E+03  0.91818171974E+02 0.  0.
        254    2    1    2    0    0 -0.39899531918E+02  0.43518386354E+02 -0.74510520132E+03  0.11698103132E+04  0.89988253969E+03 0.  0.
        -24    2    4    4    0    0 -0.12382809793E+03 -0.35781428666E+03 -0.62501489286E+03  0.73497371802E+03  0.78602088439E+02 0.  0.
         24    2    4    4    0    0  0.83928566009E+02  0.40133267302E+03 -0.12009030846E+03  0.43483659518E+03  0.80927521285E+02 0.  0.
         13    1    3    3    0    0 -0.21815209341E+02 -0.15537274775E+02  0.68849529832E+02  0.73875354647E+02  0.00000000000E+00 0. -1.
        -13    1    3    3    0    0  0.61714741259E+02 -0.27981111579E+02  0.32787903014E+02  0.75277476564E+02  0.00000000000E+00 0.  1.
          2    1    6    6  502    0  0.16532609244E+02  0.25980547951E+03 -0.61558104330E+02  0.26751002703E+03  0.00000000000E+00 0. -1.
          3    1    5    5  503    0 -0.13211639710E+03 -0.33299036989E+03 -0.55878495464E+03  0.66376046459E+03  0.00000000000E+00 0. -1.
         -4    1    5    5    0  503  0.82882991745E+01 -0.24823916771E+02 -0.66229938224E+02  0.71213253431E+02  0.00000000000E+00 0.  1.
         -1    1    6    6    0  502  0.67395956764E+02  0.14152719350E+03 -0.58532204133E+02  0.16732656815E+03  0.00000000000E+00 0.  1.
<mgrwt>
<rscale>  0 0.11513527E+04</rscale>
<asrwt>0</asrwt>
<pdfrwt beam="1">  1        1 0.51961183E-01 0.11513527E+04</pdfrwt>
<pdfrwt beam="2">  1       -1 0.15095622E+00 0.11513527E+04</pdfrwt>
<totfact> 0.25566169E+01</totfact>
</mgrwt>
</event>
<event>
12    1  0.1663913E-007  0.1446745E+04  0.7818608E-02  0.8920660E-01
         -1   -1    0    0    0  501 -0.00000000000E+00  0.00000000000E+00  0.86127094760E+03  0.86127094760E+03  0.00000000000E+00 0.  1.
          1   -1    0    0  501    0  0.00000000000E+00 -0.00000000000E+00 -0.60755269566E+03  0.60755269566E+03  0.00000000000E+00 0. -1.
         23    2    1    2    0    0 -0.35938494158E+02  0.30504740760E+03  0.39484174521E+03  0.50842180205E+03  0.90814254370E+02 0.  0.
        254    2    1    2    0    0  0.35938494158E+02 -0.30504740760E+03 -0.14112349327E+03  0.96040184120E+03  0.89894958701E+03 0.  0.
        -24    2    4    4    0    0  0.28361680567E+03  0.19566970124E+03 -0.17698240620E+03  0.39536443467E+03  0.79152635175E+02 0.  0.
         24    2    4    4    0    0 -0.24767831151E+03 -0.50071710884E+03  0.35858912927E+02  0.56503740653E+03  0.76936597733E+02 0.  0.
         11    1    3    3    0    0 -0.51776698432E+02  0.14681344952E+03  0.14806613875E+03  0.21484551869E+03  0.00000000000E+00 0.  1.
        -11    1    3    3    0    0  0.15838204275E+02  0.15823395808E+03  0.24677560647E+03  0.29357628336E+03  0.00000000000E+00 0. -1.
          4    1    6    6  502    0 -0.85043064725E+02 -0.15762377875E+03 -0.23849017426E+02  0.18068302111E+03  0.00000000000E+00 0. -1.
          3    1    5    5  503    0  0.51053472923E+02  0.66224993336E+02 -0.18664324732E+02  0.85677090623E+02  0.00000000000E+00 0. -1.
         -2    1    5    5    0  503  0.23256333275E+03  0.12944470790E+03 -0.15831808147E+03  0.30968734405E+03  0.00000000000E+00 0.  1.
         -3    1    6    6    0  502 -0.16263524679E+03 -0.34309333008E+03  0.59707930353E+02  0.38435438542E+03  0.00000000000E+00 0.  1.
<mgrwt>
<rscale>  0 0.14467446E+04</rscale>
<asrwt>0</asrwt>
<pdfrwt beam="1">  1        1 0.93469645E-01 0.14467446E+04</pdfrwt>
<pdfrwt beam="2">  1       -1 0.13250322E+00 0.14467446E+04</pdfrwt>
<totfact> 0.15790567E+01</totfact>
</mgrwt>
</event>
<event>
12    1  0.1663913E-007  0.3147982E+04  0.7818608E-02  0.8202692E-01
         -1   -1    0    0    0  501 -0.00000000000E+00  0.00000000000E+00  0.20093060371E+04  0.20093060371E+04  0.00000000000E+00 0.  1.
          1   -1    0    0  501    0  0.00000000000E+00 -0.00000000000E+00 -0.12329865607E+04  0.12329865607E+04  0.00000000000E+00 0. -1.
         23    2    1    2    0    0  0.85637735603E+03  0.10335451060E+04  0.90910826245E+03  0.16237346263E+04  0.91862079563E+02 0.  0.
        254    2    1    2    0    0 -0.85637735603E+03 -0.10335451060E+04 -0.13278878605E+03  0.16185579715E+04  0.89470631134E+03 0.  0.
        -24    2    4    4    0    0 -0.88216460690E+03 -0.96936287664E+03 -0.36558369032E+03  0.13630023678E+04  0.79026828292E+02 0.  0.
         24    2    4    4    0    0  0.25787250868E+02 -0.64182229325E+02  0.23279490428E+03  0.25555560379E+03  0.79566690916E+02 0.  0.
         13    1    3    3    0    0  0.34395098065E+03  0.44278286110E+03  0.43026715213E+03  0.70674518844E+03  0.00000000000E+00 0. -1.
        -13    1    3    3    0    0  0.51242637538E+03  0.59076224487E+03  0.47884111033E+03  0.91698943783E+03  0.00000000000E+00 0.  1.
          4    1    6    6  502    0  0.41422604608E+02 -0.72739377349E+02  0.21332012173E+03  0.22915567530E+03  0.00000000000E+00 0. -1.
          3    1    5    5  503    0 -0.45191403585E+03 -0.44430626633E+03 -0.19512909040E+03  0.66310611218E+03  0.00000000000E+00 0. -1.
         -4    1    5    5    0  503 -0.43025057106E+03 -0.52505661031E+03 -0.17045459992E+03  0.69989625557E+03  0.00000000000E+00 0.  1.
         -3    1    6    6    0  502 -0.15635353740E+02  0.85571480241E+01  0.19474782552E+02  0.26399928491E+02  0.00000000000E+00 0.  1.
<mgrwt>
<rscale>  0 0.31479818E+04</rscale>
<asrwt>0</asrwt>
<pdfrwt beam="1">  1        1 0.18969024E+00 0.31479818E+04</pdfrwt>
<pdfrwt beam="2">  1       -1 0.30912401E+00 0.31479818E+04</pdfrwt>
<totfact> 0.24474774E-01</totfact>
</mgrwt>
</event>
<event>
12    1  0.1663913E-007  0.1235681E+04  0.7818608E-02  0.9082186E-01
         -1   -1    0    0    0  501 -0.00000000000E+00  0.00000000000E+00  0.54428987784E+03  0.54428987784E+03  0.00000000000E+00 0.  1.
          1   -1    0    0  501    0  0.00000000000E+00 -0.00000000000E+00 -0.70133038162E+03  0.70133038162E+03  0.00000000000E+00 0. -1.
         23    2    1    2    0    0 -0.41632823171E+02  0.22278329551E+03 -0.20590328572E+03  0.31989076625E+03  0.92564845033E+02 0.  0.
        254    2    1    2    0    0  0.41632823171E+02 -0.22278329551E+03  0.48862781945E+02  0.92572949321E+03  0.89622644149E+03 0.  0.
        -24    2    4    4    0    0  0.22590353654E+03 -0.41961024122E+03 -0.22507430340E+03  0.53286262897E+03  0.78606468848E+02 0.  0.
         24    2    4    4    0    0 -0.18427071337E+03  0.19682694571E+03  0.27393708535E+03  0.39286686424E+03  0.81279172799E+02 0.  0.
         13    1    3    3    0    0  0.10875437661E+02  0.32519992856E+02  0.51420166752E+00  0.34294161064E+02  0.00000000000E+00 0.  1.
        -13    1    3    3    0    0 -0.52508260832E+02  0.19026330265E+03 -0.20641748739E+03  0.28559660518E+03  0.00000000000E+00 0. -1.
          2    1    6    6  502    0 -0.74634720437E+02  0.39980941028E+02  0.50112555746E+02  0.98387424926E+02  0.00000000000E+00 0. -1.
          3    1    5    5  503    0  0.14907008264E+03 -0.19887492289E+03 -0.10137042840E+03  0.26841961226E+03  0.00000000000E+00 0. -1.
         -4    1    5    5    0  503  0.76833453900E+02 -0.22073531832E+03 -0.12370387500E+03  0.26444301671E+03  0.00000000000E+00 0.  1.
         -1    1    6    6    0  502 -0.10963599293E+03  0.15684600468E+03  0.22382452960E+03  0.29447943932E+03  0.00000000000E+00 0.  1.
<mgrwt>
<rscale>  0 0.12356812E+04</rscale>
<asrwt>0</asrwt>
<pdfrwt beam="1">  1        1 0.10789698E+00 0.12356812E+04</pdfrwt>
<pdfrwt beam="2">  1       -1 0.83736904E-01 0.12356812E+04</pdfrwt>
<totfact> 0.37945143E+01</totfact>
</mgrwt>
</event>
<event>
12    1  0.1663913E-007  0.1890267E+04  0.7818608E-02  0.8659717E-01
          2   -1    0    0  501    0  0.00000000000E+00  0.00000000000E+00  0.27539775821E+04  0.27539775821E+04  0.00000000000E+00 0. -1.
         -2   -1    0    0    0  501 -0.00000000000E+00 -0.00000000000E+00 -0.32435881344E+03  0.32435881344E+03  0.00000000000E+00 0.  1.
         23    2    1    2    0    0 -0.22381494398E+03  0.34921137707E+03  0.19216134671E+04  0.19680437764E+04  0.92500128841E+02 0.  0.
        254    2    1    2    0    0  0.22381494398E+03 -0.34921137707E+03  0.50800530153E+03  0.11102926191E+04  0.89590099825E+03 0.  0.
        -24    2    4    4    0    0  0.28230458859E+03  0.56252706391E+02 -0.14763387397E+03  0.33290715129E+03  0.78556749708E+02 0.  0.
         24    2    4    4    0    0 -0.58489644603E+02 -0.40546408346E+03  0.65563917550E+03  0.77738546783E+03  0.81506291957E+02 0.  0.
         11    1    3    3    0    0 -0.58120733966E+02  0.13470707736E+03  0.85706152257E+03  0.86952772807E+03  0.00000000000E+00 0. -1.
        -11    1    3    3    0    0 -0.16569421002E+03  0.21450429971E+03  0.10645519445E+04  0.10985160483E+04  0.00000000000E+00 0.  1.
          2    1    6    6  502    0 -0.73949638006E+02 -0.23163399982E+03  0.37770867844E+03  0.44920675040E+03  0.00000000000E+00 0. -1.
          3    1    5    5  503    0  0.19246570543E+03  0.58798579550E+02 -0.13455522347E+03  0.24208558174E+03  0.00000000000E+00 0. -1.
         -4    1    5    5    0  503  0.89838883161E+02 -0.25458731595E+01 -0.13078650504E+02  0.90821569557E+02  0.00000000000E+00 0.  1.
         -1    1    6    6    0  502  0.15459993403E+02 -0.17383008364E+03  0.27793049706E+03  0.32817871743E+03  0.00000000000E+00 0.  1.
<mgrwt>
<rscale>  0 0.18902665E+04</rscale>
<asrwt>0</asrwt>
<pdfrwt beam="1">  1        2 0.42368884E+00 0.18902665E+04</pdfrwt>
<pdfrwt beam="2">  1       -2 0.49901358E-01 0.18902665E+04</pdfrwt>
<totfact> 0.87950678E+00</totfact>
</mgrwt>
</event>
<event>
12    1  0.1663913E-007  0.3362936E+04  0.7818608E-02  0.8147063E-01
          2   -1    0    0  501    0  0.00000000000E+00  0.00000000000E+00  0.16751896615E+04  0.16751896615E+04  0.00000000000E+00 0. -1.
         -2   -1    0    0    0  501 -0.00000000000E+00 -0.00000000000E+00 -0.16877703164E+04  0.16877703164E+04  0.00000000000E+00 0.  1.
         23    2    1    2    0    0 -0.12742262411E+04 -0.46475283052E+03 -0.77212233561E+03  0.15633675113E+04  0.91089885934E+02 0.  0.
        254    2    1    2    0    0  0.12742262411E+04  0.46475283052E+03  0.75954168072E+03  0.17995924666E+04  0.90663210526E+03 0.  0.
        -24    2    4    4    0    0  0.12402527377E+04  0.55822740552E+03  0.88152095121E+03  0.16228082279E+04  0.81133639458E+02 0.  0.
         24    2    4    4    0    0  0.33973503401E+02 -0.93474574994E+02 -0.12197927049E+03  0.17678423876E+03  0.80511052283E+02 0.  0.
         13    1    3    3    0    0 -0.31499751406E+03 -0.74248146882E+02 -0.19156464745E+03  0.37607610311E+03  0.00000000000E+00 0. -1.
        -13    1    3    3    0    0 -0.95922872700E+03 -0.39050468364E+03 -0.58055768816E+03  0.11872914082E+04  0.00000000000E+00 0.  1.
          4    1    6    6  502    0  0.48850954444E+01 -0.90174812543E+02 -0.11582396210E+03  0.14686916344E+03  0.00000000000E+00 0. -1.
          3    1    5    5  503    0  0.12414957876E+04  0.55687142653E+03  0.88030199085E+03  0.16206014844E+04  0.00000000000E+00 0. -1.
         -4    1    5    5    0  503 -0.12430499314E+01  0.13559789890E+01  0.12189603617E+01  0.22067434182E+01  0.00000000000E+00 0.  1.
         -3    1    6    6    0  502  0.29088407957E+02 -0.32997624509E+01 -0.61553083974E+01  0.29915075316E+02  0.00000000000E+00 0.  1.
<mgrwt>
<rscale>  0 0.33629364E+04</rscale>
<asrwt>0</asrwt>
<pdfrwt beam="1">  1        2 0.25772149E+00 0.33629364E+04</pdfrwt>
<pdfrwt beam="2">  1       -2 0.25965697E+00 0.33629364E+04</pdfrwt>
<totfact> 0.47164085E-01</totfact>
</mgrwt>
</event>
<event>
12    1  0.1663913E-007  0.1278804E+04  0.7818608E-02  0.9046545E-01
          2   -1    0    0  501    0  0.00000000000E+00  0.00000000000E+00  0.10092549360E+04  0.10092549360E+04  0.00000000000E+00 0. -1.
         -2   -1    0    0    0  501 -0.00000000000E+00 -0.00000000000E+00 -0.40508588349E+03  0.40508588349E+03  0.00000000000E+00 0.  1.
         23    2    1    2    0    0  0.40157067476E+02 -0.29758937643E+03  0.32522199495E+02  0.31538732744E+03  0.90771393161E+02 0.  0.
        254    2    1    2    0    0 -0.40157067476E+02  0.29758937643E+03  0.57164685301E+03  0.10989534921E+04  0.88923935255E+03 0.  0.
        -24    2    4    4    0    0  0.27693863927E+03  0.46607673838E+03  0.21943800241E+03  0.58947375650E+03  0.73510113008E+02 0.  0.
         24    2    4    4    0    0 -0.31709570675E+03 -0.16848736195E+03  0.35220885060E+03  0.50947973556E+03  0.81122426819E+02 0.  0.
         13    1    3    3    0    0  0.36178341193E+02 -0.10275538296E+03  0.49734262054E+02  0.11975407267E+03  0.00000000000E+00 0. -1.
        -13    1    3    3    0    0  0.39787262827E+01 -0.19483399347E+03 -0.17212062559E+02  0.19563325477E+03  0.00000000000E+00 0.  1.
          4    1    6    6  502    0 -0.29597008774E+03 -0.15395202592E+03  0.28943296552E+03  0.44166838313E+03  0.00000000000E+00 0. -1.
          1    1    5    5  503    0  0.11720949338E+03  0.19063540393E+03  0.12974803059E+03  0.25867832150E+03  0.00000000000E+00 0. -1.
         -2    1    5    5    0  503  0.15972914589E+03  0.27544133446E+03  0.89689971819E+02  0.33079543500E+03  0.00000000000E+00 0.  1.
         -3    1    6    6    0  502 -0.21125619007E+02 -0.14535336031E+02  0.62775885078E+02  0.67811352436E+02  0.00000000000E+00 0.  1.
<mgrwt>
<rscale>  0 0.12788040E+04</rscale>
<asrwt>0</asrwt>
<pdfrwt beam="1">  1        2 0.15526999E+00 0.12788040E+04</pdfrwt>
<pdfrwt beam="2">  1       -2 0.62320905E-01 0.12788040E+04</pdfrwt>
<totfact> 0.58279143E+01</totfact>
</mgrwt>
</event>
<event>
12    1  0.1663913E-007  0.1328897E+04  0.7818608E-02  0.9006958E-01
         -1   -1    0    0    0  501 -0.00000000000E+00  0.00000000000E+00  0.21975353794E+03  0.21975353794E+03  0.00000000000E+00 0.  1.
          1   -1    0    0  501    0  0.00000000000E+00 -0.00000000000E+00 -0.20090318930E+04  0.20090318930E+04  0.00000000000E+00 0. -1.
         23    2    1    2    0    0  0.16461572367E+03 -0.30885705016E+03 -0.29796103416E+03  0.46820712309E+03  0.89141002429E+02 0.  0.
        254    2    1    2    0    0 -0.16461572367E+03  0.30885705016E+03 -0.14913173209E+04  0.17605783078E+04  0.86782349158E+03 0.  0.
        -24    2    4    4    0    0 -0.47632413578E+03  0.35538866295E+03 -0.10899375860E+04  0.12440510214E+04  0.80704513293E+02 0.  0.
         24    2    4    4    0    0  0.31170841211E+03 -0.46531612790E+02 -0.40137973485E+03  0.51652728638E+03  0.79796120562E+02 0.  0.
         13    1    3    3    0    0  0.90535969148E+02 -0.24079592214E+03 -0.18452416868E+03  0.31658901853E+03  0.00000000000E+00 0.  1.
        -13    1    3    3    0    0  0.74079754522E+02 -0.68061128028E+02 -0.11343686548E+03  0.15161810456E+03  0.00000000000E+00 0. -1.
          4    1    6    6  502    0  0.13150187522E+02  0.11851219277E+02 -0.42623069547E+02  0.46153059355E+02  0.00000000000E+00 0. -1.
          3    1    5    5  503    0 -0.11145435372E+03  0.90547862674E+02 -0.19742348984E+03  0.24412501457E+03  0.00000000000E+00 0. -1.
         -4    1    5    5    0  503 -0.36486978205E+03  0.26484080028E+03 -0.89251409618E+03  0.99992600687E+03  0.00000000000E+00 0.  1.
         -3    1    6    6    0  502  0.29855822458E+03 -0.58382832067E+02 -0.35875666531E+03  0.47037422702E+03  0.00000000000E+00 0.  1.
<mgrwt>
<rscale>  0 0.13288971E+04</rscale>
<asrwt>0</asrwt>
<pdfrwt beam="1">  1        1 0.30908182E+00 0.13288971E+04</pdfrwt>
<pdfrwt beam="2">  1       -1 0.33808237E-01 0.13288971E+04</pdfrwt>
<totfact> 0.23812658E+01</totfact>
</mgrwt>
</event>
<event>
12    1  0.1663913E-007  0.1703665E+04  0.7818608E-02  0.8759277E-01
         -2   -1    0    0    0  501 -0.00000000000E+00  0.00000000000E+00  0.10160645131E+04  0.10160645131E+04  0.00000000000E+00 0.  1.
          2   -1    0    0  501    0  0.00000000000E+00 -0.00000000000E+00 -0.71414661554E+03  0.71414661554E+03  0.00000000000E+00 0. -1.
         23    2    1    2    0    0  0.58550918038E+03  0.12079953823E+03  0.23318056012E+03  0.64791988356E+03  0.89518004640E+02 0.  0.
        254    2    1    2    0    0 -0.58550918038E+03 -0.12079953823E+03  0.68737337487E+02  0.10822912451E+04  0.89956433285E+03 0.  0.
        -24    2    4    4    0    0 -0.14132509715E+03 -0.72777328047E+02 -0.39568135524E+03  0.43336745908E+03  0.77293577594E+02 0.  0.
         24    2    4    4    0    0 -0.44418408323E+03 -0.48022210180E+02  0.46441869273E+03  0.64892378604E+03  0.76234673666E+02 0.  0.
         13    1    3    3    0    0  0.36549109442E+03  0.47448629566E+02  0.17912072266E+03  0.40977963082E+03  0.00000000000E+00 0.  1.
        -13    1    3    3    0    0  0.22001808596E+03  0.73350908661E+02  0.54059837456E+02  0.23814025274E+03  0.00000000000E+00 0. -1.
          2    1    6    6  502    0 -0.50084901113E+02 -0.14527280872E+02  0.91516593084E+02  0.10533198004E+03  0.00000000000E+00 0. -1.
          1    1    5    5  503    0 -0.53865350572E+02 -0.10572652419E+02 -0.61792387157E+02  0.82653227898E+02  0.00000000000E+00 0. -1.
         -2    1    5    5    0  503 -0.87459746579E+02 -0.62204675628E+02 -0.33388896808E+03  0.35071423118E+03  0.00000000000E+00 0.  1.
         -1    1    6    6    0  502 -0.39409918211E+03 -0.33494929308E+02  0.37290209964E+03  0.54359180600E+03  0.00000000000E+00 0.  1.
<mgrwt>
<rscale>  0 0.17036655E+04</rscale>
<asrwt>0</asrwt>
<pdfrwt beam="1">  1        2 0.10986871E+00 0.17036655E+04</pdfrwt>
<pdfrwt beam="2">  1       -2 0.15631762E+00 0.17036655E+04</pdfrwt>
<totfact> 0.10189426E+01</totfact>
</mgrwt>
</event>
<event>
12    1  0.1663913E-007  0.2002309E+04  0.7818608E-02  0.8605542E-01
         -2   -1    0    0    0  501 -0.00000000000E+00  0.00000000000E+00  0.15289783462E+04  0.15289783462E+04  0.00000000000E+00 0. -1.
          2   -1    0    0  501    0  0.00000000000E+00 -0.00000000000E+00 -0.65554282625E+03  0.65554282625E+03  0.00000000000E+00 0.  1.
         23    2    1    2    0    0 -0.26754613678E+03  0.74608451601E+03  0.43494947865E+03  0.90826537612E+03  0.86844137079E+02 0.  0.
        254    2    1    2    0    0  0.26754613678E+03 -0.74608451601E+03  0.43848604131E+03  0.12762557963E+04  0.89907497405E+03 0.  0.
        -24    2    4    4    0    0 -0.31119593265E+03 -0.39794475197E+03  0.25637582028E+03  0.57189010592E+03  0.78273864729E+02 0.  0.
         24    2    4    4    0    0  0.57874206943E+03 -0.34813976403E+03  0.18211022104E+03  0.70436569043E+03  0.82602754344E+02 0.  0.
         13    1    3    3    0    0 -0.95798040615E+01  0.10560780886E+02 -0.24625187345E+01  0.14469510610E+02  0.00000000000E+00 0.  1.
        -13    1    3    3    0    0 -0.25796633272E+03  0.73552373512E+03  0.43741199738E+03  0.89379586551E+03  0.00000000000E+00 0. -1.
          2    1    6    6  502    0  0.14631815431E+03 -0.67299768340E+02  0.75363412614E+02  0.17781424313E+03  0.00000000000E+00 0. -1.
          1    1    5    5  503    0 -0.13589862683E+03 -0.23650527631E+03  0.13053502967E+03  0.30239473618E+03  0.00000000000E+00 0. -1.
         -2    1    5    5    0  503 -0.17529730582E+03 -0.16143947567E+03  0.12584079061E+03  0.26949536974E+03  0.00000000000E+00 0.  1.
         -1    1    6    6    0  502  0.43242391512E+03 -0.28083999569E+03  0.10674680842E+03  0.52655144730E+03  0.00000000000E+00 0.  1.
<mgrwt>
<rscale>  0 0.20023095E+04</rscale>
<asrwt>0</asrwt>
<pdfrwt beam="1">  1        2 0.10085274E+00 0.20023095E+04</pdfrwt>
<pdfrwt beam="2">  1       -2 0.23522744E+00 0.20023095E+04</pdfrwt>
<totfact> 0.32762513E+00</totfact>
</mgrwt>
</event>
<event>
12    1  0.1663913E-007  0.1862521E+04  0.7818608E-02  0.8673741E-01
          2   -1    0    0  501    0  0.00000000000E+00  0.00000000000E+00  0.15280646756E+04  0.15280646756E+04  0.00000000000E+00 0. -1.
         -2   -1    0    0    0  501 -0.00000000000E+00 -0.00000000000E+00 -0.56754516356E+03  0.56754516356E+03  0.00000000000E+00 0.  1.
         23    2    1    2    0    0  0.61914404045E+03  0.20093276530E+03  0.49275033083E+02  0.65891931059E+03  0.89628734204E+02 0.  0.
        254    2    1    2    0    0 -0.61914404045E+03 -0.20093276530E+03  0.91124447897E+03  0.14366905286E+04  0.89999991971E+03 0.  0.
        -24    2    4    4    0    0 -0.44508331231E+03 -0.70684851617E+02  0.10644334359E+04  0.11589341460E+04  0.83751490817E+02 0.  0.
         24    2    4    4    0    0 -0.17406072813E+03 -0.13024791368E+03 -0.15318895695E+03  0.27775638254E+03  0.80125497911E+02 0.  0.
         13    1    3    3    0    0  0.33790836203E+03  0.10339215587E+03  0.71084094484E+02  0.36045103344E+03  0.00000000000E+00 0. -1.
        -13    1    3    3    0    0  0.28123567842E+03  0.97540609429E+02 -0.21809061401E+02  0.29846827715E+03  0.00000000000E+00 0.  1.
          4    1    6    6  502    0 -0.17096186547E+03 -0.94272815031E+02 -0.12354440141E+03  0.23103796705E+03  0.00000000000E+00 0. -1.
          3    1    5    5  503    0 -0.35061797178E+03 -0.75531695430E+02  0.90603710851E+03  0.97444406774E+03  0.00000000000E+00 0. -1.
         -4    1    5    5    0  503 -0.94465340530E+02  0.48468438125E+01  0.15839632741E+03  0.18449007830E+03  0.00000000000E+00 0.  1.
         -3    1    6    6    0  502 -0.30988626589E+01 -0.35975098653E+02 -0.29644555538E+02  0.46718415491E+02  0.00000000000E+00 0.  1.
<mgrwt>
<rscale>  0 0.18625206E+04</rscale>
<asrwt>0</asrwt>
<pdfrwt beam="1">  1        2 0.23508687E+00 0.18625206E+04</pdfrwt>
<pdfrwt beam="2">  1       -2 0.87314641E-01 0.18625206E+04</pdfrwt>
<totfact> 0.13027916E+01</totfact>
</mgrwt>
</event>
<event>
12    1  0.1663913E-007  0.2146814E+04  0.7818608E-02  0.8540897E-01
          2   -1    0    0  501    0  0.00000000000E+00  0.00000000000E+00  0.87989335381E+03  0.87989335381E+03  0.00000000000E+00 0. -1.
         -2   -1    0    0    0  501 -0.00000000000E+00 -0.00000000000E+00 -0.13094799293E+04  0.13094799293E+04  0.00000000000E+00 0.  1.
         23    2    1    2    0    0 -0.80303221284E+03 -0.81722498240E+02  0.18274116473E+03  0.83295426811E+03  0.94229389795E+02 0.  0.
        254    2    1    2    0    0  0.80303221284E+03  0.81722498240E+02 -0.61232774027E+03  0.13564190150E+04  0.90188024775E+03 0.  0.
        -24    2    4    4    0    0 -0.14948271606E+03  0.18212292300E+03 -0.10405545822E+03  0.26921797837E+03  0.78338623979E+02 0.  0.
         24    2    4    4    0    0  0.95251492890E+03 -0.10040042476E+03 -0.50827228205E+03  0.10872010367E+04  0.79375351103E+02 0.  0.
         13    1    3    3    0    0 -0.55065073443E+03 -0.16668577648E+02  0.14444668653E+03  0.56952516894E+03  0.00000000000E+00 0.  1.
        -13    1    3    3    0    0 -0.25238147841E+03 -0.65053920592E+02  0.38294478205E+02  0.26342909917E+03  0.00000000000E+00 0. -1.
          2    1    6    6  502    0  0.72912166184E+03 -0.11053199035E+03 -0.39013864213E+03  0.83429244198E+03  0.00000000000E+00 0. -1.
          1    1    5    5  503    0 -0.70834918863E+02  0.36434750692E+02 -0.14424106426E+02  0.80951415272E+02  0.00000000000E+00 0. -1.
         -2    1    5    5    0  503 -0.78647797198E+02  0.14568817231E+03 -0.89631351795E+02  0.18826656310E+03  0.00000000000E+00 0.  1.
         -1    1    6    6    0  502  0.22339326706E+03  0.10131565582E+02 -0.11813363991E+03  0.25290859469E+03  0.00000000000E+00 0.  1.
<mgrwt>
<rscale>  0 0.21468141E+04</rscale>
<asrwt>0</asrwt>
<pdfrwt beam="1">  1        2 0.13536821E+00 0.21468141E+04</pdfrwt>
<pdfrwt beam="2">  1       -2 0.20145845E+00 0.21468141E+04</pdfrwt>
<totfact> 0.36130122E+00</totfact>
</mgrwt>
</event>
<event>
12    1  0.1663913E-007  0.2346736E+04  0.7818608E-02  0.8459718E-01
         -2   -1    0    0    0  501 -0.00000000000E+00  0.00000000000E+00  0.67871127379E+03  0.67871127379E+03  0.00000000000E+00 0.  1.
          2   -1    0    0  501    0  0.00000000000E+00 -0.00000000000E+00 -0.20285393340E+04  0.20285393340E+04  0.00000000000E+00 0. -1.
         23    2    1    2    0    0 -0.78049564902E+03  0.19872685275E+03  0.10289683446E+03  0.81709220122E+03  0.91575578694E+02 0.  0.
        254    2    1    2    0    0  0.78049564902E+03 -0.19872685275E+03 -0.14527248947E+04  0.18901584066E+04  0.90201073285E+03 0.  0.
        -24    2    4    4    0    0  0.80306688097E+03 -0.35503006931E+03 -0.72641316297E+03  0.11425987155E+04  0.83023947116E+02 0.  0.
         24    2    4    4    0    0 -0.22571231951E+02  0.15630321656E+03 -0.72631173171E+03  0.74755969112E+03  0.79853642043E+02 0.  0.
         11    1    3    3    0    0 -0.20689270109E+03  0.51942511454E+02  0.68361248053E+02  0.22399971986E+03  0.00000000000E+00 0. -1.
        -11    1    3    3    0    0 -0.57360294793E+03  0.14678434129E+03  0.34535586406E+02  0.59309248137E+03  0.00000000000E+00 0.  1.
          4    1    6    6  502    0  0.74611069905E+01  0.42949055440E+02 -0.36739625575E+03  0.36997337502E+03  0.00000000000E+00 0. -1.
          1    1    5    5  503    0  0.46456774037E+02 -0.19474464015E+02 -0.69893540014E+02  0.86154474859E+02  0.00000000000E+00 0. -1.
         -2    1    5    5    0  503  0.75661010694E+03 -0.33555560529E+03 -0.65651962295E+03  0.10564442406E+04  0.00000000000E+00 0.  1.
         -3    1    6    6    0  502 -0.30032338941E+02  0.11335416112E+03 -0.35891547595E+03  0.37758631610E+03  0.00000000000E+00 0.  1.
<mgrwt>
<rscale>  0 0.23467360E+04</rscale>
<asrwt>0</asrwt>
<pdfrwt beam="1">  1        2 0.31208297E+00 0.23467360E+04</pdfrwt>
<pdfrwt beam="2">  1       -2 0.10441712E+00 0.23467360E+04</pdfrwt>
<totfact> 0.43335160E+00</totfact>
</mgrwt>
</event>
<event>
12    1  0.1663913E-007  0.1691937E+04  0.7818608E-02  0.8765976E-01
          2   -1    0    0  501    0  0.00000000000E+00  0.00000000000E+00  0.90659196029E+03  0.90659196029E+03  0.00000000000E+00 0. -1.
         -2   -1    0    0    0  501 -0.00000000000E+00 -0.00000000000E+00 -0.78939900257E+03  0.78939900257E+03  0.00000000000E+00 0.  1.
         23    2    1    2    0    0  0.30696368840E+02  0.24542431219E+03  0.59672241491E+03  0.65251619771E+03  0.92327610923E+02 0.  0.
        254    2    1    2    0    0 -0.30696368840E+02 -0.24542431219E+03 -0.47952945720E+03  0.10434747652E+04  0.89314932969E+03 0.  0.
        -24    2    4    4    0    0  0.79762796076E+02 -0.11306195882E+03  0.24596074803E+03  0.29338598762E+03  0.80209338545E+02 0.  0.
         24    2    4    4    0    0 -0.11045916492E+03 -0.13236235337E+03 -0.72549020523E+03  0.75008877754E+03  0.81093258657E+02 0.  0.
         13    1    3    3    0    0  0.43613820933E+02  0.13103705317E+03  0.41524319268E+03  0.43760688266E+03  0.00000000000E+00 0. -1.
        -13    1    3    3    0    0 -0.12917452093E+02  0.11438725902E+03  0.18147922223E+03  0.21490931505E+03  0.00000000000E+00 0.  1.
          4    1    6    6  502    0  0.37742819258E+01 -0.44417734034E+02 -0.13135253603E+03  0.13871073867E+03  0.00000000000E+00 0. -1.
          1    1    5    5  503    0 -0.14789627077E+02 -0.31280460210E+02  0.45955358289E+02  0.57524735684E+02  0.00000000000E+00 0. -1.
         -2    1    5    5    0  503  0.94552423153E+02 -0.81781498608E+02  0.20000538974E+03  0.23586125194E+03  0.00000000000E+00 0.  1.
         -3    1    6    6    0  502 -0.11423344684E+03 -0.87944619336E+02 -0.59413766920E+03  0.61137803887E+03  0.00000000000E+00 0.  1.
<mgrwt>
<rscale>  0 0.16919371E+04</rscale>
<asrwt>0</asrwt>
<pdfrwt beam="1">  1        2 0.13947569E+00 0.16919371E+04</pdfrwt>
<pdfrwt beam="2">  1       -2 0.12144600E+00 0.16919371E+04</pdfrwt>
<totfact> 0.14241814E+01</totfact>
</mgrwt>
</event>
<event>
12    1  0.1663913E-007  0.2542180E+04  0.7818608E-02  0.8388111E-01
         -1   -1    0    0    0  501 -0.00000000000E+00  0.00000000000E+00  0.11697330482E+04  0.11697330482E+04  0.00000000000E+00 0.  1.
          1   -1    0    0  501    0  0.00000000000E+00 -0.00000000000E+00 -0.13812295525E+04  0.13812295525E+04  0.00000000000E+00 0. -1.
         23    2    1    2    0    0 -0.59138986522E+03 -0.85750572898E+03 -0.48081091641E+03  0.11510041099E+04  0.92591984738E+02 0.  0.
        254    2    1    2    0    0  0.59138986522E+03  0.85750572898E+03  0.26931441204E+03  0.13999584909E+04  0.89570948175E+03 0.  0.
        -24    2    4    4    0    0  0.17735163099E+03  0.77618062129E+03  0.46774584540E+03  0.92686708047E+03  0.79915274477E+02 0.  0.
         24    2    4    4    0    0  0.41403823423E+03  0.81325107694E+02 -0.19843143336E+03  0.47309141040E+03  0.79993851605E+02 0.  0.
         11    1    3    3    0    0 -0.52151275952E+02 -0.37226946461E+02 -0.32009210252E+02  0.71625349334E+02  0.00000000000E+00 0.  1.
        -11    1    3    3    0    0 -0.53923858927E+03 -0.82027878252E+03 -0.44880170616E+03  0.10793787605E+04  0.00000000000E+00 0. -1.
          4    1    6    6  502    0  0.39389054966E+03  0.63419316208E+02 -0.19960820290E+03  0.44611120749E+03  0.00000000000E+00 0. -1.
          3    1    5    5  503    0  0.13034514389E+03  0.68634632724E+03  0.41496603956E+03  0.81256258309E+03  0.00000000000E+00 0. -1.
         -4    1    5    5    0  503  0.47006487103E+02  0.89834294044E+02  0.52779805840E+02  0.11430449738E+03  0.00000000000E+00 0.  1.
         -3    1    6    6    0  502  0.20147684575E+02  0.17905791486E+02  0.11767695398E+01  0.26980202909E+02  0.00000000000E+00 0.  1.
<mgrwt>
<rscale>  0 0.25421801E+04</rscale>
<asrwt>0</asrwt>
<pdfrwt beam="1">  1        1 0.21249685E+00 0.25421801E+04</pdfrwt>
<pdfrwt beam="2">  1       -1 0.17995893E+00 0.25421801E+04</pdfrwt>
<totfact> 0.14600943E+00</totfact>
</mgrwt>
</event>
<event>
12    1  0.1663913E-007  0.1631524E+04  0.7818608E-02  0.8801412E-01
          1   -1    0    0  501    0  0.00000000000E+00  0.00000000000E+00  0.14144136238E+04  0.14144136238E+04  0.00000000000E+00 0. -1.
         -1   -1    0    0    0  501 -0.00000000000E+00 -0.00000000000E+00 -0.47049022883E+03  0.47049022883E+03  0.00000000000E+00 0.  1.
         23    2    1    2    0    0 -0.45347244363E+03  0.33209484279E+03  0.30877796476E+03  0.64798769806E+03  0.92843866655E+02 0.  0.
        254    2    1    2    0    0  0.45347244363E+03 -0.33209484279E+03  0.63514543018E+03  0.12369161545E+04  0.90034860700E+03 0.  0.
        -24    2    4    4    0    0  0.48035018940E+03 -0.60359244140E+03  0.49365044651E+03  0.91931718087E+03  0.79957338175E+02 0.  0.
         24    2    4    4    0    0 -0.26877745773E+02  0.27149759861E+03  0.14149498366E+03  0.31759897366E+03  0.80093185735E+02 0.  0.
         11    1    3    3    0    0 -0.15203062508E+03  0.12313580387E+03  0.15778191687E+03  0.25133815956E+03  0.00000000000E+00 0. -1.
        -11    1    3    3    0    0 -0.30144181855E+03  0.20895903892E+03  0.15099604789E+03  0.39664953850E+03  0.00000000000E+00 0.  1.
          4    1    6    6  502    0 -0.59232898109E+01  0.18401556550E+03  0.13323726088E+03  0.22726412254E+03  0.00000000000E+00 0. -1.
          1    1    5    5  503    0  0.27698987643E+03 -0.30810949786E+03  0.22752383910E+03  0.47267531317E+03  0.00000000000E+00 0. -1.
         -2    1    5    5    0  503  0.20336031297E+03 -0.29548294354E+03  0.26612660741E+03  0.44664186770E+03  0.00000000000E+00 0.  1.
         -3    1    6    6    0  502 -0.20954455962E+02  0.87482033105E+02  0.82577227862E+01  0.90334851118E+02  0.00000000000E+00 0.  1.
<mgrwt>
<rscale>  0 0.16315242E+04</rscale>
<asrwt>0</asrwt>
<pdfrwt beam="1">  1        1 0.21760209E+00 0.16315242E+04</pdfrwt>
<pdfrwt beam="2">  1       -1 0.72383113E-01 0.16315242E+04</pdfrwt>
<totfact> 0.13830141E+01</totfact>
</mgrwt>
</event>
<event>
12    1  0.1663913E-007  0.1851085E+04  0.7818608E-02  0.8679595E-01
         -2   -1    0    0    0  501 -0.00000000000E+00  0.00000000000E+00  0.12644706053E+04  0.12644706053E+04  0.00000000000E+00 0. -1.
          2   -1    0    0  501    0  0.00000000000E+00 -0.00000000000E+00 -0.67746027902E+03  0.67746027902E+03  0.00000000000E+00 0.  1.
         23    2    1    2    0    0 -0.28004669762E+03 -0.12944855685E+03 -0.44778076311E+03  0.55225449406E+03  0.96407119450E+02 0.  0.
        254    2    1    2    0    0  0.28004669762E+03  0.12944855685E+03  0.10347910894E+04  0.13896763903E+04  0.87477127825E+03 0.  0.
        -24    2    4    4    0    0 -0.24097978949E+03  0.27209736607E+03  0.32018557692E+03  0.49027620297E+03  0.75787307410E+02 0.  0.
         24    2    4    4    0    0  0.52102648711E+03 -0.14264880922E+03  0.71460551245E+03  0.89940018728E+03  0.80264409435E+02 0.  0.
         13    1    3    3    0    0 -0.57762651651E+02 -0.30930441013E+02 -0.37925209526E+02  0.75706919265E+02  0.00000000000E+00 0. -1.
        -13    1    3    3    0    0 -0.22228404597E+03 -0.98518115833E+02 -0.40985555358E+03  0.47654757480E+03  0.00000000000E+00 0.  1.
          4    1    6    6  502    0  0.30863263616E+03 -0.12475859323E+03  0.44364226119E+03  0.55465058064E+03  0.00000000000E+00 0. -1.
          3    1    5    5  503    0  0.11108698502E+01  0.11119429490E+02 -0.45727752869E+00  0.11184133705E+02  0.00000000000E+00 0. -1.
         -4    1    5    5    0  503 -0.24209065934E+03  0.26097793658E+03  0.32064285445E+03  0.47909206926E+03  0.00000000000E+00 0.  1.
         -3    1    6    6    0  502  0.21239385095E+03 -0.17890215986E+02  0.27096325126E+03  0.34474960664E+03  0.00000000000E+00 0.  1.
<mgrwt>
<rscale>  0 0.18510847E+04</rscale>
<asrwt>0</asrwt>
<pdfrwt beam="1">  1        2 0.10422466E+00 0.18510847E+04</pdfrwt>
<pdfrwt beam="2">  1       -2 0.19453394E+00 0.18510847E+04</pdfrwt>
<totfact> 0.57989884E+00</totfact>
</mgrwt>
</event>
<event>
12    1  0.1663913E-007  0.1255112E+04  0.7818608E-02  0.9065940E-01
          2   -1    0    0  501    0  0.00000000000E+00  0.00000000000E+00  0.80079777223E+03  0.80079777223E+03  0.00000000000E+00 0. -1.
         -2   -1    0    0    0  501 -0.00000000000E+00 -0.00000000000E+00 -0.49179239363E+03  0.49179239363E+03  0.00000000000E+00 0.  1.
         23    2    1    2    0    0 -0.45471465517E+02 -0.19564257734E+03  0.28269324289E+03  0.35827118640E+03  0.89995006451E+02 0.  0.
        254    2    1    2    0    0  0.45471465517E+02  0.19564257734E+03  0.26312135716E+02  0.93431897946E+03  0.91209426851E+03 0.  0.
        -24    2    4    4    0    0 -0.19941382907E+03  0.30477959278E+03  0.34686985295E+03  0.50904405913E+03  0.78426295644E+02 0.  0.
         24    2    4    4    0    0  0.24488529459E+03 -0.10913701544E+03 -0.32055771724E+03  0.42527492032E+03  0.78878464293E+02 0.  0.
         11    1    3    3    0    0 -0.45577980653E+02 -0.20111759509E+03  0.24523646314E+03  0.32041623278E+03  0.00000000000E+00 0.  1.
        -11    1    3    3    0    0  0.10651513537E+00  0.54750177466E+01  0.37456779746E+02  0.37854953622E+02  0.00000000000E+00 0. -1.
          2    1    6    6  502    0  0.13207717681E+03 -0.36542581771E+02 -0.21326022766E+03  0.25349490254E+03  0.00000000000E+00 0. -1.
          3    1    5    5  503    0 -0.74260802417E+02  0.52488455500E+02  0.83815990552E+02  0.12367224834E+03  0.00000000000E+00 0. -1.
         -4    1    5    5    0  503 -0.12515302666E+03  0.25229113728E+03  0.26305386240E+03  0.38537181080E+03  0.00000000000E+00 0.  1.
         -1    1    6    6    0  502  0.11280811778E+03 -0.72594433671E+02 -0.10729748958E+03  0.17178001778E+03  0.00000000000E+00 0.  1.
<mgrwt>
<rscale>  0 0.12551116E+04</rscale>
<asrwt>0</asrwt>
<pdfrwt beam="1">  1        2 0.12319966E+00 0.12551116E+04</pdfrwt>
<pdfrwt beam="2">  1       -2 0.75660368E-01 0.12551116E+04</pdfrwt>
<totfact> 0.52987761E+01</totfact>
</mgrwt>
</event>
<event>
12    1  0.1663913E-007  0.1258791E+04  0.7818608E-02  0.9062898E-01
          1   -1    0    0  501    0  0.00000000000E+00  0.00000000000E+00  0.10981030580E+04  0.10981030580E+04  0.00000000000E+00 0. -1.
         -1   -1    0    0    0  501 -0.00000000000E+00 -0.00000000000E+00 -0.36074826797E+03  0.36074826797E+03  0.00000000000E+00 0.  1.
         23    2    1    2    0    0 -0.99965464182E+02  0.10948029348E+03  0.46372115604E+03  0.49527737789E+03  0.91012866145E+02 0.  0.
        254    2    1    2    0    0  0.99965464182E+02 -0.10948029348E+03  0.27363363398E+03  0.96357394806E+03  0.91193221187E+03 0.  0.
        -24    2    4    4    0    0 -0.23924595040E+02 -0.10514894389E+03  0.59476094879E+03  0.60982114075E+03  0.80700377000E+02 0.  0.
         24    2    4    4    0    0  0.12389005922E+03 -0.43313495893E+01 -0.32112731481E+03  0.35375280731E+03  0.81552369655E+02 0.  0.
         11    1    3    3    0    0 -0.40251824993E+02  0.49248802461E+02  0.33595038144E+03  0.34191857620E+03  0.00000000000E+00 0. -1.
        -11    1    3    3    0    0 -0.59713639189E+02  0.60231491020E+02  0.12777077460E+03  0.15335880170E+03  0.00000000000E+00 0.  1.
          4    1    6    6  502    0  0.66638756985E+02  0.28888492725E+02 -0.10467016404E+03  0.12740138219E+03  0.00000000000E+00 0. -1.
          1    1    5    5  503    0 -0.39072148962E+02 -0.65583442503E+02  0.22407990741E+03  0.23672690101E+03  0.00000000000E+00 0. -1.
         -4    1    5    5    0  503  0.15147553922E+02 -0.39565501389E+02  0.37068104138E+03  0.37309423974E+03  0.00000000000E+00 0.  1.
         -3    1    6    6    0  502  0.57251302237E+02 -0.33219842315E+02 -0.21645715077E+03  0.22635142511E+03  0.00000000000E+00 0.  1.
<mgrwt>
<rscale>  0 0.12587911E+04</rscale>
<asrwt>0</asrwt>
<pdfrwt beam="1">  1        1 0.16893893E+00 0.12587911E+04</pdfrwt>
<pdfrwt beam="2">  1       -1 0.55499734E-01 0.12587911E+04</pdfrwt>
<totfact> 0.41149443E+01</totfact>
</mgrwt>
</event>
<event>
12    1  0.1663913E-007  0.3042190E+04  0.7818608E-02  0.8231785E-01
          2   -1    0    0  501    0  0.00000000000E+00  0.00000000000E+00  0.27656184305E+04  0.27656184305E+04  0.00000000000E+00 0. -1.
         -2   -1    0    0    0  501 -0.00000000000E+00 -0.00000000000E+00 -0.83660518169E+03  0.83660518169E+03  0.00000000000E+00 0.  1.
         23    2    1    2    0    0  0.60414761386E+03  0.95123948485E+03  0.18442477904E+04  0.21631398476E+04  0.89850939603E+02 0.  0.
        254    2    1    2    0    0 -0.60414761386E+03 -0.95123948485E+03  0.84765458432E+02  0.14390837645E+04  0.89102525301E+03 0.  0.
        -24    2    4    4    0    0 -0.50308355258E+03 -0.81848036797E+03 -0.30236021752E+03  0.10102437891E+04  0.78534315723E+02 0.  0.
         24    2    4    4    0    0 -0.10106406128E+03 -0.13275911688E+03  0.38712567595E+03  0.42883997538E+03  0.78730603359E+02 0.  0.
         11    1    3    3    0    0  0.50980934871E+03  0.75022209186E+03  0.15222550743E+04  0.17720043088E+04  0.00000000000E+00 0. -1.
        -11    1    3    3    0    0  0.94338265151E+02  0.20101739299E+03  0.32199271601E+03  0.39113553881E+03  0.00000000000E+00 0.  1.
          2    1    6    6  502    0 -0.45776641645E+02 -0.60145763971E+01  0.92890364949E+02  0.10373184636E+03  0.00000000000E+00 0. -1.
          3    1    5    5  503    0 -0.42619194473E+03 -0.72246183179E+03 -0.28562199169E+03  0.88609852403E+03  0.00000000000E+00 0. -1.
         -4    1    5    5    0  503 -0.76891607853E+02 -0.96018536179E+02 -0.16738225826E+02  0.12414526512E+03  0.00000000000E+00 0.  1.
         -1    1    6    6    0  502 -0.55287419640E+02 -0.12674454048E+03  0.29423531100E+03  0.32510812901E+03  0.00000000000E+00 0.  1.
<mgrwt>
<rscale>  0 0.30421905E+04</rscale>
<asrwt>0</asrwt>
<pdfrwt beam="1">  1        2 0.42547975E+00 0.30421905E+04</pdfrwt>
<pdfrwt beam="2">  1       -2 0.12870849E+00 0.30421905E+04</pdfrwt>
<totfact> 0.92127630E-01</totfact>
</mgrwt>
</event>
<event>
12    1  0.1663913E-007  0.1342439E+04  0.7818608E-02  0.8996572E-01
         -1   -1    0    0    0  501 -0.00000000000E+00  0.00000000000E+00  0.33904674468E+03  0.33904674468E+03  0.00000000000E+00 0.  1.
          1   -1    0    0  501    0  0.00000000000E+00 -0.00000000000E+00 -0.13288299378E+04  0.13288299378E+04  0.00000000000E+00 0. -1.
         23    2    1    2    0    0  0.21498076584E+03  0.20734485249E+03 -0.10400757835E+02  0.31282351751E+03  0.92421641452E+02 0.  0.
        254    2    1    2    0    0 -0.21498076584E+03 -0.20734485249E+03 -0.97938243530E+03  0.13550531650E+04  0.88756436827E+03 0.  0.
        -24    2    4    4    0    0  0.18762173416E+03 -0.42359983484E+03 -0.44628371955E+03  0.64790570571E+03  0.77291072926E+02 0.  0.
         24    2    4    4    0    0 -0.40260249999E+03  0.21625498235E+03 -0.53309871575E+03  0.70714745927E+03  0.83715578201E+02 0.  0.
         13    1    3    3    0    0  0.96397821746E+02  0.10645494710E+03  0.40162085925E+02  0.14912474290E+03  0.00000000000E+00 0.  1.
        -13    1    3    3    0    0  0.11858294409E+03  0.10088990539E+03 -0.50562843759E+02  0.16369877461E+03  0.00000000000E+00 0. -1.
          4    1    6    6  502    0 -0.10250150868E+03  0.88841160558E+02 -0.12180243832E+03  0.18230508789E+03  0.00000000000E+00 0. -1.
          3    1    5    5  503    0  0.70461225467E+01 -0.24799635622E+02 -0.55029744470E+02  0.60769585702E+02  0.00000000000E+00 0. -1.
         -4    1    5    5    0  503  0.18057561161E+03 -0.39880019922E+03 -0.39125397508E+03  0.58713612001E+03  0.00000000000E+00 0.  1.
         -3    1    6    6    0  502 -0.30010099132E+03  0.12741382179E+03 -0.41129627743E+03  0.52484237138E+03  0.00000000000E+00 0.  1.
<mgrwt>
<rscale>  0 0.13424388E+04</rscale>
<asrwt>0</asrwt>
<pdfrwt beam="1">  1        1 0.20443538E+00 0.13424388E+04</pdfrwt>
<pdfrwt beam="2">  1       -1 0.52161038E-01 0.13424388E+04</pdfrwt>
<totfact> 0.31270322E+01</totfact>
</mgrwt>
</event>
<event>
12    1  0.1940405E-007  0.2147056E+04  0.7818608E-02  0.8540793E-01
          1   -1    0    0  501    0  0.00000000000E+00  0.00000000000E+00  0.11934966551E+04  0.11934966551E+04  0.00000000000E+00 0. -1.
         -1   -1    0    0    0  501 -0.00000000000E+00 -0.00000000000E+00 -0.96561846952E+03  0.96561846952E+03  0.00000000000E+00 0.  1.
         23    2    1    2    0    0 -0.42069569961E+03 -0.24306880057E+03  0.82933809110E+03  0.96554362051E+03  0.91681515488E+02 0.  0.
        254    2    1    2    0    0  0.42069569961E+03  0.24306880057E+03 -0.60145990551E+03  0.11935715041E+04  0.90928081692E+03 0.  0.
        -24    2    4    4    0    0  0.39108199527E+03  0.34164014766E+03  0.51802545104E+02  0.52783810275E+03  0.79160858449E+02 0.  0.
         24    2    4    4    0    0  0.29613704333E+02 -0.98571347097E+02 -0.65326245061E+03  0.66573340137E+03  0.76523528160E+02 0.  0.
         11    1    3    3    0    0 -0.41987246534E+03 -0.23205704924E+03  0.78613335194E+03  0.92095005743E+03  0.00000000000E+00 0. -1.
        -11    1    3    3    0    0 -0.82323426401E+00 -0.11011751323E+02  0.43204739164E+02  0.44593563079E+02  0.00000000000E+00 0.  1.
          4    1    6    6  502    0  0.41267116922E+02 -0.10634609648E+03 -0.57030944541E+03  0.58160582073E+03  0.00000000000E+00 0. -1.
          3    1    5    5  503    0  0.32733325839E+03  0.31673766541E+03  0.57774661263E+02  0.45913802089E+03  0.00000000000E+00 0. -1.
         -4    1    5    5    0  503  0.63748736880E+02  0.24902482251E+02 -0.59721161586E+01  0.68700081859E+02  0.00000000000E+00 0.  1.
         -3    1    6    6    0  502 -0.11653412590E+02  0.77747493784E+01 -0.82953005198E+02  0.84127580640E+02  0.00000000000E+00 0.  1.
<mgrwt>
<rscale>  0 0.21470560E+04</rscale>
<asrwt>0</asrwt>
<pdfrwt beam="1">  1        1 0.18361487E+00 0.21470560E+04</pdfrwt>
<pdfrwt beam="2">  1       -1 0.14855669E+00 0.21470560E+04</pdfrwt>
<totfact> 0.35439048E+00</totfact>
</mgrwt>
</event>
<event>
12    1  0.1663913E-007  0.2066897E+04  0.7818608E-02  0.8575968E-01
          2   -1    0    0  501    0  0.00000000000E+00  0.00000000000E+00  0.60550494805E+03  0.60550494805E+03  0.00000000000E+00 0.  1.
         -2   -1    0    0    0  501 -0.00000000000E+00 -0.00000000000E+00 -0.17638425138E+04  0.17638425138E+04  0.00000000000E+00 0. -1.
         23    2    1    2    0    0  0.32192131250E+03  0.72035621223E+03 -0.76629573222E+03  0.11071945739E+04  0.12698138140E+03 0.  0.
        254    2    1    2    0    0 -0.32192131250E+03 -0.72035621223E+03 -0.39204183348E+03  0.12621528880E+04  0.90376252933E+03 0.  0.
        -24    2    4    4    0    0  0.64119991118E+02  0.12503502836E+03  0.11648352291E+03  0.19929669021E+03  0.80035167509E+02 0.  0.
         24    2    4    4    0    0 -0.38604130362E+03 -0.84539124059E+03 -0.50852535640E+03  0.10628561977E+04  0.85738096690E+02 0.  0.
         11    1    3    3    0    0  0.25210122945E+03  0.43407542681E+03 -0.52468116970E+03  0.72613141778E+03  0.00000000000E+00 0. -1.
        -11    1    3    3    0    0  0.69820083052E+02  0.28628078542E+03 -0.24161456252E+03  0.38106315608E+03  0.00000000000E+00 0.  1.
          4    1    6    6  502    0 -0.38816803850E+02 -0.16401702294E+03 -0.94203905929E+02  0.19308729624E+03  0.00000000000E+00 0. -1.
          3    1    5    5  503    0  0.27876617728E+02  0.96194777573E+01 -0.25266236331E+01  0.29597702533E+02  0.00000000000E+00 0. -1.
         -4    1    5    5    0  503  0.36243373391E+02  0.11541555060E+03  0.11901014655E+03  0.16969898767E+03  0.00000000000E+00 0.  1.
         -3    1    6    6    0  502 -0.34722449977E+03 -0.68137421765E+03 -0.41432145047E+03  0.86976890151E+03  0.00000000000E+00 0.  1.
<mgrwt>
<rscale>  0 0.20668966E+04</rscale>
<asrwt>0</asrwt>
<pdfrwt beam="1">  1        2 0.93154609E-01 0.20668966E+04</pdfrwt>
<pdfrwt beam="2">  1       -2 0.27136038E+00 0.20668966E+04</pdfrwt>
<totfact> 0.21554666E+00</totfact>
</mgrwt>
</event>
<event>
12    1  0.1663913E-007  0.2368682E+04  0.7818608E-02  0.8451323E-01
          2   -1    0    0  501    0  0.00000000000E+00  0.00000000000E+00  0.15157907128E+04  0.15157907128E+04  0.00000000000E+00 0. -1.
         -2   -1    0    0    0  501 -0.00000000000E+00 -0.00000000000E+00 -0.92536724494E+03  0.92536724494E+03  0.00000000000E+00 0.  1.
         23    2    1    2    0    0 -0.64757242281E+03 -0.94126088695E+02  0.10497032057E+04  0.12404093375E+04  0.92351182814E+02 0.  0.
        254    2    1    2    0    0  0.64757242281E+03  0.94126088695E+02 -0.45927973784E+03  0.12007486203E+04  0.89590714264E+03 0.  0.
        -24    2    4    4    0    0 -0.74592337953E+02 -0.27365749518E+03 -0.10405563877E+03  0.31229071963E+03  0.79028324379E+02 0.  0.
         24    2    4    4    0    0  0.72216476077E+03  0.36778358388E+03 -0.35522409907E+03  0.88845790069E+03  0.79916046391E+02 0.  0.
         11    1    3    3    0    0 -0.56480235061E+03 -0.97013401669E+02  0.96217979973E+03  0.11199121673E+04  0.00000000000E+00 0. -1.
        -11    1    3    3    0    0 -0.82770072204E+02  0.28873129739E+01  0.87523406007E+02  0.12049717021E+03  0.00000000000E+00 0.  1.
          4    1    6    6  502    0  0.17725208115E+03  0.12622498929E+03 -0.78864916083E+02  0.23145350113E+03  0.00000000000E+00 0. -1.
          3    1    5    5  503    0 -0.85164246123E+01 -0.10957238301E+03 -0.60588143607E+01  0.11006973171E+03  0.00000000000E+00 0. -1.
         -4    1    5    5    0  503 -0.66075913340E+02 -0.16408511217E+03 -0.97996824413E+02  0.20222098792E+03  0.00000000000E+00 0.  1.
         -3    1    6    6    0  502  0.54491267961E+03  0.24155859459E+03 -0.27635918299E+03  0.65700439956E+03  0.00000000000E+00 0.  1.
<mgrwt>
<rscale>  0 0.23686816E+04</rscale>
<asrwt>0</asrwt>
<pdfrwt beam="1">  1        2 0.23319857E+00 0.23686816E+04</pdfrwt>
<pdfrwt beam="2">  1       -2 0.14236419E+00 0.23686816E+04</pdfrwt>
<totfact> 0.38553207E+00</totfact>
</mgrwt>
</event>
<event>
12    1  0.1663913E-007  0.1400948E+04  0.7818608E-02  0.8953133E-01
         -2   -1    0    0    0  501 -0.00000000000E+00  0.00000000000E+00  0.18437469811E+03  0.18437469811E+03  0.00000000000E+00 0.  1.
          2   -1    0    0  501    0  0.00000000000E+00 -0.00000000000E+00 -0.26612304027E+04  0.26612304027E+04  0.00000000000E+00 0. -1.
         23    2    1    2    0    0  0.12339020130E+03  0.38408972616E+03 -0.75497235962E+03  0.86068049460E+03  0.89652610053E+02 0.  0.
        254    2    1    2    0    0 -0.12339020130E+03 -0.38408972616E+03 -0.17218833449E+04  0.19849246062E+04  0.90127319890E+03 0.  0.
        -24    2    4    4    0    0 -0.37249286616E+03 -0.48934169003E+03 -0.75070134482E+03  0.97371717679E+03  0.79789763306E+02 0.  0.
         24    2    4    4    0    0  0.24910266486E+03  0.10525196387E+03 -0.97118200013E+03  0.10112074294E+04  0.78840816268E+02 0.  0.
         11    1    3    3    0    0  0.68001875345E+02  0.15927870527E+03 -0.23911516162E+03  0.29524569687E+03  0.00000000000E+00 0.  1.
        -11    1    3    3    0    0  0.55388325953E+02  0.22481102089E+03 -0.51585719799E+03  0.56543479773E+03  0.00000000000E+00 0. -1.
          2    1    6    6  502    0  0.14079901941E+03  0.37287260447E+02 -0.63600712822E+03  0.65247204600E+03  0.00000000000E+00 0. -1.
          1    1    5    5  503    0 -0.33826489571E+03 -0.47415555360E+03 -0.69856768729E+03  0.90952924219E+03  0.00000000000E+00 0. -1.
         -2    1    5    5    0  503 -0.34227970456E+02 -0.15186136430E+02 -0.52133657523E+02  0.64187934598E+02  0.00000000000E+00 0.  1.
         -1    1    6    6    0  502  0.10830364545E+03  0.67964703425E+02 -0.33517487190E+03  0.35873538337E+03  0.00000000000E+00 0.  1.
<mgrwt>
<rscale>  0 0.14009476E+04</rscale>
<asrwt>0</asrwt>
<pdfrwt beam="1">  1        2 0.40942007E+00 0.14009476E+04</pdfrwt>
<pdfrwt beam="2">  1       -2 0.28365338E-01 0.14009476E+04</pdfrwt>
<totfact> 0.31176835E+01</totfact>
</mgrwt>
</event>
<event>
12    1  0.1663913E-007  0.1057013E+04  0.7818608E-02  0.9248133E-01
         -2   -1    0    0    0  501 -0.00000000000E+00  0.00000000000E+00  0.14694427617E+03  0.14694427617E+03  0.00000000000E+00 0. -1.
          2   -1    0    0  501    0  0.00000000000E+00 -0.00000000000E+00 -0.19008506919E+04  0.19008506919E+04  0.00000000000E+00 0.  1.
         23    2    1    2    0    0  0.49660650531E+02  0.10393641831E+03 -0.20141937481E+03  0.24913618510E+03  0.90719980790E+02 0.  0.
        254    2    1    2    0    0 -0.49660650531E+02 -0.10393641831E+03 -0.15524870409E+04  0.17986587829E+04  0.90093753727E+03 0.  0.
        -24    2    4    4    0    0  0.39852973889E+03  0.82133172631E+02 -0.75534541231E+03  0.86162151781E+03  0.79203139000E+02 0.  0.
         24    2    4    4    0    0 -0.44819038942E+03 -0.18606959094E+03 -0.79714162858E+03  0.93703726514E+03  0.84306241778E+02 0.  0.
         11    1    3    3    0    0  0.57849464997E+02  0.20598548619E+02 -0.68082958850E+02  0.91685059260E+02  0.00000000000E+00 0.  1.
        -11    1    3    3    0    0 -0.81888144659E+01  0.83337869692E+02 -0.13333641596E+03  0.15745112584E+03  0.00000000000E+00 0. -1.
          4    1    6    6  502    0 -0.29010129949E+03 -0.13990558867E+03 -0.59225634929E+03  0.67416609303E+03  0.00000000000E+00 0. -1.
          3    1    5    5  503    0  0.20005909433E+02 -0.66979322610E+01 -0.16745513220E+02  0.26935309945E+02  0.00000000000E+00 0. -1.
         -4    1    5    5    0  503  0.37852382945E+03  0.88831104892E+02 -0.73859989909E+03  0.83468620786E+03  0.00000000000E+00 0.  1.
         -3    1    6    6    0  502 -0.15808908992E+03 -0.46164002270E+02 -0.20488527929E+03  0.26287117211E+03  0.00000000000E+00 0.  1.
<mgrwt>
<rscale>  0 0.10570130E+04</rscale>
<asrwt>0</asrwt>
<pdfrwt beam="1">  1        2 0.29243855E+00 0.10570130E+04</pdfrwt>
<pdfrwt beam="2">  1       -2 0.22606813E-01 0.10570130E+04</pdfrwt>
<totfact> 0.13006696E+02</totfact>
</mgrwt>
</event>
<event>
12    1  0.1663913E-007  0.1574438E+04  0.7818608E-02  0.8836407E-01
         -2   -1    0    0    0  501 -0.00000000000E+00  0.00000000000E+00  0.64784906372E+03  0.64784906372E+03  0.00000000000E+00 0.  1.
          2   -1    0    0  501    0  0.00000000000E+00 -0.00000000000E+00 -0.95657140315E+03  0.95657140315E+03  0.00000000000E+00 0. -1.
         23    2    1    2    0    0 -0.19158714790E+03  0.41462257611E+03 -0.27128008670E+03  0.53990962193E+03  0.96395013108E+02 0.  0.
        254    2    1    2    0    0  0.19158714790E+03 -0.41462257611E+03 -0.37442252738E+02  0.10645108449E+04  0.96081418643E+03 0.  0.
        -24    2    4    4    0    0  0.46781015338E+03 -0.68822627516E+02 -0.27802284339E+03  0.55441674826E+03  0.80612254884E+02 0.  0.
         24    2    4    4    0    0 -0.27622300547E+03 -0.34579994859E+03  0.24058059066E+03  0.51009409669E+03  0.80250941893E+02 0.  0.
         11    1    3    3    0    0 -0.18738881800E+03  0.41086127716E+03 -0.24645522209E+03  0.51445284981E+03  0.00000000000E+00 0.  1.
        -11    1    3    3    0    0 -0.41983299000E+01  0.37612989446E+01 -0.24824864610E+02  0.25456772117E+02  0.00000000000E+00 0. -1.
          2    1    6    6  502    0 -0.20826482081E+03 -0.21374470659E+03  0.13310212744E+03  0.32676782509E+03  0.00000000000E+00 0. -1.
          1    1    5    5  503    0  0.15064486387E+03  0.80885134719E+01 -0.11444553396E+03  0.18935965596E+03  0.00000000000E+00 0. -1.
         -2    1    5    5    0  503  0.31716528951E+03 -0.76911140988E+02 -0.16357730943E+03  0.36505709230E+03  0.00000000000E+00 0.  1.
         -1    1    6    6    0  502 -0.67958184659E+02 -0.13205524201E+03  0.10747846322E+03  0.18332627160E+03  0.00000000000E+00 0.  1.
<mgrwt>
<rscale>  0 0.15744382E+04</rscale>
<asrwt>0</asrwt>
<pdfrwt beam="1">  1        2 0.14716483E+00 0.15744382E+04</pdfrwt>
<pdfrwt beam="2">  1       -2 0.99669087E-01 0.15744382E+04</pdfrwt>
<totfact> 0.21505953E+01</totfact>
</mgrwt>
</event>
<event>
12    1  0.1663913E-007  0.1497709E+04  0.7818608E-02  0.8885978E-01
          1   -1    0    0  501    0  0.00000000000E+00  0.00000000000E+00  0.96260922473E+03  0.96260922473E+03  0.00000000000E+00 0. -1.
         -1   -1    0    0    0  501 -0.00000000000E+00 -0.00000000000E+00 -0.58256549138E+03  0.58256549138E+03  0.00000000000E+00 0.  1.
         23    2    1    2    0    0 -0.22377708730E+03 -0.36158340291E+03 -0.69040443497E+02  0.44038029969E+03  0.91375507945E+02 0.  0.
        254    2    1    2    0    0  0.22377708730E+03  0.36158340291E+03  0.44908417685E+03  0.11047944164E+04  0.91546456108E+03 0.  0.
        -24    2    4    4    0    0  0.30237109042E+03  0.60725707175E+03  0.14474350452E+03  0.69800937639E+03  0.77954986457E+02 0.  0.
         24    2    4    4    0    0 -0.78594003113E+02 -0.24567366884E+03  0.30434067233E+03  0.40678504003E+03  0.79487452239E+02 0.  0.
         11    1    3    3    0    0 -0.19689148520E+03 -0.32517419169E+03 -0.31253716738E+02  0.38142011837E+03  0.00000000000E+00 0.  1.
        -11    1    3    3    0    0 -0.26885602105E+02 -0.36409211221E+02 -0.37786726759E+02  0.58960181321E+02  0.00000000000E+00 0. -1.
          2    1    6    6  502    0 -0.51953169254E+02 -0.51896859656E+02  0.98121143352E+02  0.12255682197E+03  0.00000000000E+00 0. -1.
          3    1    5    5  503    0  0.62032937317E+02  0.10862667735E+03  0.57396870992E+02  0.13763081466E+03  0.00000000000E+00 0. -1.
         -4    1    5    5    0  503  0.24033815310E+03  0.49863039440E+03  0.87346633523E+02  0.56037856173E+03  0.00000000000E+00 0.  1.
         -1    1    6    6    0  502 -0.26640833859E+02 -0.19377680919E+03  0.20621952898E+03  0.28422821806E+03  0.00000000000E+00 0.  1.
<mgrwt>
<rscale>  0 0.14977088E+04</rscale>
<asrwt>0</asrwt>
<pdfrwt beam="1">  1        1 0.14809373E+00 0.14977088E+04</pdfrwt>
<pdfrwt beam="2">  1       -1 0.89625460E-01 0.14977088E+04</pdfrwt>
<totfact> 0.19107874E+01</totfact>
</mgrwt>
</event>
<event>
12    1  0.1663913E-007  0.2037555E+04  0.7818608E-02  0.8589261E-01
          1   -1    0    0  501    0  0.00000000000E+00  0.00000000000E+00  0.15222506699E+04  0.15222506699E+04  0.00000000000E+00 0. -1.
         -1   -1    0    0    0  501 -0.00000000000E+00 -0.00000000000E+00 -0.68182410378E+03  0.68182410378E+03  0.00000000000E+00 0.  1.
         23    2    1    2    0    0 -0.74806137764E+03  0.27787516305E+03  0.21829487076E+03  0.83243416271E+03  0.92106208677E+02 0.  0.
        254    2    1    2    0    0  0.74806137764E+03 -0.27787516305E+03  0.62213169541E+03  0.13716406110E+04  0.92603438836E+03 0.  0.
        -24    2    4    4    0    0  0.72595535438E+03 -0.22977227894E+03  0.23816577355E+02  0.76570979902E+03  0.77057058400E+02 0.  0.
         24    2    4    4    0    0  0.22106023269E+02 -0.48102884110E+02  0.59831511805E+03  0.60593081200E+03  0.79803538229E+02 0.  0.
         13    1    3    3    0    0 -0.35623740509E+02 -0.34680165037E+01 -0.58739304707E+00  0.35796969940E+02  0.00000000000E+00 0. -1.
        -13    1    3    3    0    0 -0.71243763714E+03  0.28134317955E+03  0.21888226381E+03  0.79663719277E+03  0.00000000000E+00 0.  1.
          2    1    6    6  502    0  0.50857122624E+02 -0.35835322645E+02  0.45590481168E+03  0.46013021482E+03  0.00000000000E+00 0. -1.
          1    1    5    5  503    0  0.58013759603E+03 -0.21233331807E+03  0.62486768132E+01  0.61780588719E+03  0.00000000000E+00 0. -1.
         -2    1    5    5    0  503  0.14581775835E+03 -0.17438960870E+02  0.17567900541E+02  0.14790391183E+03  0.00000000000E+00 0.  1.
         -1    1    6    6    0  502 -0.28751099355E+02 -0.12267561464E+02  0.14241030637E+03  0.14580059718E+03  0.00000000000E+00 0.  1.
<mgrwt>
<rscale>  0 0.20375546E+04</rscale>
<asrwt>0</asrwt>
<pdfrwt beam="1">  1        1 0.23419241E+00 0.20375546E+04</pdfrwt>
<pdfrwt beam="2">  1       -1 0.10489602E+00 0.20375546E+04</pdfrwt>
<totfact> 0.49813408E+00</totfact>
</mgrwt>
</event>
<event>
12    1  0.1663913E-007  0.2004510E+04  0.7818608E-02  0.8604515E-01
          1   -1    0    0  501    0  0.00000000000E+00  0.00000000000E+00  0.10532493079E+04  0.10532493079E+04  0.00000000000E+00 0. -1.
         -1   -1    0    0    0  501 -0.00000000000E+00 -0.00000000000E+00 -0.95372950874E+03  0.95372950874E+03  0.00000000000E+00 0.  1.
         23    2    1    2    0    0  0.59988558355E+03 -0.40168885499E+03  0.37260501678E+03  0.81751064417E+03  0.90953313452E+02 0.  0.
        254    2    1    2    0    0 -0.59988558355E+03  0.40168885499E+03 -0.27308521764E+03  0.11894681725E+04  0.90500958426E+03 0.  0.
        -24    2    4    4    0    0 -0.69363483422E+03  0.55430337775E+02  0.47207739156E+02  0.70205885630E+03  0.80350864783E+02 0.  0.
         24    2    4    4    0    0  0.93749250671E+02  0.34625851722E+03 -0.32029295679E+03  0.48740931616E+03  0.79349735715E+02 0.  0.
         11    1    3    3    0    0  0.21424800171E+03 -0.12470257111E+03  0.17387365257E+03  0.30279528487E+03  0.00000000000E+00 0.  1.
        -11    1    3    3    0    0  0.38563758184E+03 -0.27698628388E+03  0.19873136421E+03  0.51471535931E+03  0.00000000000E+00 0. -1.
          2    1    6    6  502    0  0.24310204462E+02  0.59481188331E+02 -0.10128461232E+03  0.11994819924E+03  0.00000000000E+00 0. -1.
          3    1    5    5  503    0 -0.45304723501E+03  0.60768802331E+02  0.60253380094E+02  0.46105868856E+03  0.00000000000E+00 0. -1.
         -4    1    5    5    0  503 -0.24058759922E+03 -0.53384645556E+01 -0.13045640937E+02  0.24100016773E+03  0.00000000000E+00 0.  1.
         -1    1    6    6    0  502  0.69439046209E+02  0.28677732889E+03 -0.21900834447E+03  0.36746111692E+03  0.00000000000E+00 0.  1.
<mgrwt>
<rscale>  0 0.20045099E+04</rscale>
<asrwt>0</asrwt>
<pdfrwt beam="1">  1        1 0.16203836E+00 0.20045099E+04</pdfrwt>
<pdfrwt beam="2">  1       -1 0.14672762E+00 0.20045099E+04</pdfrwt>
<totfact> 0.47240203E+00</totfact>
</mgrwt>
</event>
<event>
12    1  0.1663913E-007  0.1220429E+04  0.7818608E-02  0.9095161E-01
          2   -1    0    0  501    0  0.00000000000E+00  0.00000000000E+00  0.13759655710E+04  0.13759655710E+04  0.00000000000E+00 0. -1.
         -2   -1    0    0    0  501 -0.00000000000E+00 -0.00000000000E+00 -0.27061854803E+03  0.27061854803E+03  0.00000000000E+00 0.  1.
         23    2    1    2    0    0 -0.11421073100E+03 -0.82550960634E+02 -0.51030854189E+02  0.17510624035E+03  0.90549959429E+02 0.  0.
        254    2    1    2    0    0  0.11421073100E+03  0.82550960634E+02  0.11563778771E+04  0.14714778786E+04  0.89898754188E+03 0.  0.
        -24    2    4    4    0    0 -0.34422268871E+03  0.18812543259E+03  0.33493206656E+03  0.52202632944E+03  0.80321613601E+02 0.  0.
         24    2    4    4    0    0  0.45843341971E+03 -0.10557447196E+03  0.82144581057E+03  0.94945154921E+03  0.73333860896E+02 0.  0.
         13    1    3    3    0    0 -0.90793374074E+02 -0.10221749258E+03 -0.45029937070E+02  0.14394286296E+03  0.00000000000E+00 0.  1.
        -13    1    3    3    0    0 -0.23417356926E+02  0.19666531942E+02 -0.60009171190E+01  0.31163377389E+02  0.00000000000E+00 0. -1.
          2    1    6    6  502    0  0.10323117050E+03 -0.23930288512E+02  0.12898694028E+03  0.16693401102E+03  0.00000000000E+00 0. -1.
          3    1    5    5  503    0  0.80167313715E+00 -0.44043563616E+01  0.73829465385E+00  0.45371922788E+01  0.00000000000E+00 0. -1.
         -4    1    5    5    0  503 -0.34502436185E+03  0.19252978895E+03  0.33419377190E+03  0.51748913716E+03  0.00000000000E+00 0.  1.
         -1    1    6    6    0  502  0.35520224920E+03 -0.81644183446E+02  0.69245887028E+03  0.78251753818E+03  0.00000000000E+00 0.  1.
<mgrwt>
<rscale>  0 0.12204291E+04</rscale>
<asrwt>0</asrwt>
<pdfrwt beam="1">  1        2 0.21168701E+00 0.12204291E+04</pdfrwt>
<pdfrwt beam="2">  1       -2 0.41633624E-01 0.12204291E+04</pdfrwt>
<totfact> 0.80421637E+01</totfact>
</mgrwt>
</event>
<event>
12    1  0.1663913E-007  0.1588606E+04  0.7818608E-02  0.8827579E-01
         -2   -1    0    0    0  501 -0.00000000000E+00  0.00000000000E+00  0.32816825538E+03  0.32816825538E+03  0.00000000000E+00 0.  1.
          2   -1    0    0  501    0  0.00000000000E+00 -0.00000000000E+00 -0.19225417460E+04  0.19225417460E+04  0.00000000000E+00 0. -1.
         23    2    1    2    0    0  0.68998926808E+02  0.73436711477E+02  0.19841291773E+03  0.24049270410E+03  0.91188005292E+02 0.  0.
        254    2    1    2    0    0 -0.68998926808E+02 -0.73436711477E+02 -0.17927864083E+04  0.20102172972E+04  0.90373484706E+03 0.  0.
        -24    2    4    4    0    0 -0.44664121811E+02 -0.36956202608E+03 -0.16069820917E+04  0.16514047307E+04  0.78582227540E+02 0.  0.
         24    2    4    4    0    0 -0.24334804997E+02  0.29612531461E+03 -0.18580431658E+03  0.35881256655E+03  0.77076774511E+02 0.  0.
         11    1    3    3    0    0  0.22735446949E+02  0.24634654242E+02  0.15911169554E+03  0.16260473054E+03  0.00000000000E+00 0.  1.
        -11    1    3    3    0    0  0.46263479859E+02  0.48802057235E+02  0.39301222194E+02  0.77887973558E+02  0.00000000000E+00 0. -1.
          2    1    6    6  502    0 -0.48721400136E+02  0.12796081988E+03 -0.87737254115E+02  0.16262094581E+03  0.00000000000E+00 0. -1.
          3    1    5    5  503    0  0.15801763800E+02 -0.20197825932E+02 -0.12442648975E+03  0.12704172253E+03  0.00000000000E+00 0. -1.
         -4    1    5    5    0  503 -0.60465885611E+02 -0.34936420015E+03 -0.14825556020E+04  0.15243630082E+04  0.00000000000E+00 0.  1.
         -1    1    6    6    0  502  0.24386595138E+02  0.16816449472E+03 -0.98067062462E+02  0.19619162074E+03  0.00000000000E+00 0.  1.
<mgrwt>
<rscale>  0 0.15886059E+04</rscale>
<asrwt>0</asrwt>
<pdfrwt beam="1">  1        2 0.29577565E+00 0.15886059E+04</pdfrwt>
<pdfrwt beam="2">  1       -2 0.50487424E-01 0.15886059E+04</pdfrwt>
<totfact> 0.26271873E+01</totfact>
</mgrwt>
</event>
<event>
12    1  0.1705816E-007  0.2355202E+04  0.7818608E-02  0.8456468E-01
         -1   -1    0    0    0  501 -0.00000000000E+00  0.00000000000E+00  0.73572783610E+03  0.73572783610E+03  0.00000000000E+00 0.  1.
          1   -1    0    0  501    0  0.00000000000E+00 -0.00000000000E+00 -0.18848602143E+04  0.18848602143E+04  0.00000000000E+00 0. -1.
         23    2    1    2    0    0  0.41541292076E+03  0.43866214685E+03  0.39890770005E+03  0.72991203595E+03  0.93015338774E+02 0.  0.
        254    2    1    2    0    0 -0.41541292076E+03 -0.43866214685E+03 -0.15480400782E+04  0.18906760144E+04  0.90179561650E+03 0.  0.
        -24    2    4    4    0    0 -0.82509557638E+02 -0.65521825472E+03 -0.11129865373E+04  0.12965980148E+04  0.79426641082E+02 0.  0.
         24    2    4    4    0    0 -0.33290336312E+03  0.21655610787E+03 -0.43505354091E+03  0.59407799963E+03  0.77044721790E+02 0.  0.
         13    1    3    3    0    0  0.51067615739E+02  0.29806659398E+02  0.67777865049E+02  0.89945412959E+02  0.00000000000E+00 0. -1.
        -13    1    3    3    0    0  0.36434530502E+03  0.40885548745E+03  0.33112983500E+03  0.63996662299E+03  0.00000000000E+00 0.  1.
          4    1    6    6  502    0 -0.12358891655E+02 -0.55253491430E+01 -0.78201751837E+01  0.15634155749E+02  0.00000000000E+00 0. -1.
          1    1    5    5  503    0 -0.18904604636E+02 -0.11930561062E+03 -0.26816972001E+03  0.29411938313E+03  0.00000000000E+00 0. -1.
         -2    1    5    5    0  503 -0.63604953002E+02 -0.53591264410E+03 -0.84481681729E+03  0.10024786317E+04  0.00000000000E+00 0.  1.
         -1    1    6    6    0  502 -0.32054447147E+03  0.22208145701E+03 -0.42723336572E+03  0.57844384388E+03  0.00000000000E+00 0.  1.
<mgrwt>
<rscale>  0 0.23552020E+04</rscale>
<asrwt>0</asrwt>
<pdfrwt beam="1">  1        1 0.28997849E+00 0.23552020E+04</pdfrwt>
<pdfrwt beam="2">  1       -1 0.11318890E+00 0.23552020E+04</pdfrwt>
<totfact> 0.22879795E+00</totfact>
</mgrwt>
</event>
<event>
12    1  0.1663913E-007  0.1242343E+04  0.7818608E-02  0.9076581E-01
         -2   -1    0    0    0  501 -0.00000000000E+00  0.00000000000E+00  0.41037945036E+03  0.41037945036E+03  0.00000000000E+00 0. -1.
          2   -1    0    0  501    0  0.00000000000E+00 -0.00000000000E+00 -0.94023659179E+03  0.94023659179E+03  0.00000000000E+00 0.  1.
         23    2    1    2    0    0  0.20705876415E+01 -0.27575831561E+03 -0.87005887044E+02  0.30341895860E+03  0.91902688196E+02 0.  0.
        254    2    1    2    0    0 -0.20705876415E+01  0.27575831561E+03 -0.44285125439E+03  0.10471970836E+04  0.90799645502E+03 0.  0.
        -24    2    4    4    0    0  0.27484054383E+03  0.49188384180E+03 -0.16542742528E+03  0.59234440865E+03  0.77579810959E+02 0.  0.
         24    2    4    4    0    0 -0.27691113148E+03 -0.21612552619E+03 -0.27742382911E+03  0.45485267490E+03  0.80851450817E+02 0.  0.
         13    1    3    3    0    0 -0.21214310764E+02 -0.26122855601E+03 -0.86411458223E+02  0.27596620367E+03  0.00000000000E+00 0. -1.
        -13    1    3    3    0    0  0.23284898405E+02 -0.14529759604E+02 -0.59442882027E+00  0.27452754935E+02  0.00000000000E+00 0.  1.
          4    1    6    6  502    0 -0.56926131159E+02 -0.35693993561E+02 -0.17379726646E+02  0.69402453007E+02  0.00000000000E+00 0. -1.
          3    1    5    5  503    0  0.12873001418E+03  0.16002811254E+03 -0.74973460905E+02  0.21863538871E+03  0.00000000000E+00 0. -1.
         -4    1    5    5    0  503  0.14611052965E+03  0.33185572926E+03 -0.90453964376E+02  0.37370901995E+03  0.00000000000E+00 0.  1.
         -3    1    6    6    0  502 -0.21998500032E+03 -0.18043153263E+03 -0.26004410246E+03  0.38545022189E+03  0.00000000000E+00 0.  1.
<mgrwt>
<rscale>  0 0.12423426E+04</rscale>
<asrwt>0</asrwt>
<pdfrwt beam="1">  1        2 0.14465178E+00 0.12423426E+04</pdfrwt>
<pdfrwt beam="2">  1       -2 0.63135301E-01 0.12423426E+04</pdfrwt>
<totfact> 0.63027555E+01</totfact>
</mgrwt>
</event>
<event>
12    1  0.1663913E-007  0.1208203E+04  0.7818608E-02  0.9105706E-01
          1   -1    0    0  501    0  0.00000000000E+00  0.00000000000E+00  0.30998033440E+03  0.30998033440E+03  0.00000000000E+00 0. -1.
         -1   -1    0    0    0  501 -0.00000000000E+00 -0.00000000000E+00 -0.11772964234E+04  0.11772964234E+04  0.00000000000E+00 0.  1.
         23    2    1    2    0    0  0.95284640843E+02 -0.13994509888E+03 -0.37294698227E+03  0.41948568593E+03  0.90636613111E+02 0.  0.
        254    2    1    2    0    0 -0.95284640843E+02  0.13994509888E+03 -0.49436910671E+03  0.10677910718E+04  0.93118911396E+03 0.  0.
        -24    2    4    4    0    0  0.40647865695E+03 -0.65307850971E+01 -0.26546097229E+03  0.49210715748E+03  0.80202100497E+02 0.  0.
         24    2    4    4    0    0 -0.50176329779E+03  0.14647588398E+03 -0.22890813441E+03  0.57568391436E+03  0.76101535179E+02 0.  0.
         11    1    3    3    0    0 -0.10418802739E+02 -0.74185540156E+00 -0.61179530255E+02  0.62064778435E+02  0.00000000000E+00 0. -1.
        -11    1    3    3    0    0  0.10570344358E+03 -0.13920324348E+03 -0.31176745201E+03  0.35742090750E+03  0.00000000000E+00 0.  1.
          4    1    6    6  502    0 -0.41267561343E+03  0.14447177805E+03 -0.17140350326E+03  0.46963008582E+03  0.00000000000E+00 0. -1.
          3    1    5    5  503    0  0.35730817873E+03 -0.24517816027E+02 -0.20715365983E+03  0.41374254878E+03  0.00000000000E+00 0. -1.
         -4    1    5    5    0  503  0.49170478215E+02  0.17987030930E+02 -0.58307312464E+02  0.78364608698E+02  0.00000000000E+00 0.  1.
         -3    1    6    6    0  502 -0.89087684359E+02  0.20041059300E+01 -0.57504631154E+02  0.10605382855E+03  0.00000000000E+00 0.  1.
<mgrwt>
<rscale>  0 0.12082032E+04</rscale>
<asrwt>0</asrwt>
<pdfrwt beam="1">  1        1 0.47689281E-01 0.12082032E+04</pdfrwt>
<pdfrwt beam="2">  1       -1 0.18112253E+00 0.12082032E+04</pdfrwt>
<totfact> 0.16974289E+01</totfact>
</mgrwt>
</event>
<event>
12    1  0.1663913E-007  0.1196310E+04  0.7818608E-02  0.9116092E-01
          2   -1    0    0  501    0  0.00000000000E+00  0.00000000000E+00  0.17599453721E+04  0.17599453721E+04  0.00000000000E+00 0. -1.
         -2   -1    0    0    0  501 -0.00000000000E+00 -0.00000000000E+00 -0.20329586190E+03  0.20329586190E+03  0.00000000000E+00 0.  1.
         23    2    1    2    0    0 -0.16277399233E+03  0.16526082034E+03  0.16945723934E+03  0.30019376212E+03  0.87143717697E+02 0.  0.
        254    2    1    2    0    0  0.16277399233E+03 -0.16526082034E+03  0.13871922708E+04  0.16630474718E+04  0.88747844259E+03 0.  0.
        -24    2    4    4    0    0  0.12605636222E+03 -0.41894149965E+03  0.13106295428E+04  0.13843247851E+04  0.84871230314E+02 0.  0.
         24    2    4    4    0    0  0.36717630112E+02  0.25368067931E+03  0.76562728040E+02  0.27872268671E+03  0.78245851941E+02 0.  0.
         13    1    3    3    0    0 -0.29694102951E+02 -0.38578411514E+00  0.45088021595E+02  0.53989056954E+02  0.00000000000E+00 0. -1.
        -13    1    3    3    0    0 -0.13307988938E+03  0.16564660445E+03  0.12436921774E+03  0.24620470516E+03  0.00000000000E+00 0.  1.
          4    1    6    6  502    0  0.18039364060E+02  0.12931157627E+03 -0.17384782478E+01  0.13057536031E+03  0.00000000000E+00 0. -1.
          3    1    5    5  503    0  0.13368254093E+03 -0.38313908011E+03  0.11474557282E+04  0.12170954049E+04  0.00000000000E+00 0. -1.
         -4    1    5    5    0  503 -0.76261787177E+01 -0.35802419542E+02  0.16317381457E+03  0.16722938022E+03  0.00000000000E+00 0.  1.
         -3    1    6    6    0  502  0.18678266051E+02  0.12436910304E+03  0.78301206288E+02  0.14814732640E+03  0.00000000000E+00 0.  1.
<mgrwt>
<rscale>  0 0.11963103E+04</rscale>
<asrwt>0</asrwt>
<pdfrwt beam="1">  1        2 0.27076082E+00 0.11963103E+04</pdfrwt>
<pdfrwt beam="2">  1       -2 0.31276288E-01 0.11963103E+04</pdfrwt>
<totfact> 0.85022018E+01</totfact>
</mgrwt>
</event>
<event>
12    1  0.1663913E-007  0.1841152E+04  0.7818608E-02  0.8684716E-01
         -2   -1    0    0    0  501 -0.00000000000E+00  0.00000000000E+00  0.73016713340E+03  0.73016713340E+03  0.00000000000E+00 0. -1.
          2   -1    0    0  501    0  0.00000000000E+00 -0.00000000000E+00 -0.11606387238E+04  0.11606387238E+04  0.00000000000E+00 0.  1.
         23    2    1    2    0    0 -0.48772827341E+03  0.41250822232E+03  0.12907872454E+03  0.65836960938E+03  0.93527125798E+02 0.  0.
        254    2    1    2    0    0  0.48772827341E+03 -0.41250822232E+03 -0.55955031496E+03  0.12324362478E+04  0.89317447783E+03 0.  0.
        -24    2    4    4    0    0 -0.44989952484E+02 -0.35263940409E+03 -0.58570225384E+03  0.68957601221E+03  0.78033975429E+02 0.  0.
         24    2    4    4    0    0  0.53271822589E+03 -0.59868818235E+02  0.26151938877E+02  0.54286023563E+03  0.81488207308E+02 0.  0.
         13    1    3    3    0    0 -0.12810053146E+03  0.14270202662E+03  0.43957406743E+01  0.19181485109E+03  0.00000000000E+00 0.  1.
        -13    1    3    3    0    0 -0.35962774195E+03  0.26980619570E+03  0.12468298387E+03  0.46655475829E+03  0.00000000000E+00 0. -1.
          4    1    6    6  502    0  0.13634106473E+03 -0.84666878129E+01  0.41805902804E+02  0.14285763628E+03  0.00000000000E+00 0. -1.
          3    1    5    5  503    0 -0.18049829062E+02 -0.18792576001E+02 -0.69615028741E+02  0.74331752761E+02  0.00000000000E+00 0. -1.
         -4    1    5    5    0  503 -0.26940123422E+02 -0.33384682809E+03 -0.51608722510E+03  0.61524425945E+03  0.00000000000E+00 0.  1.
         -3    1    6    6    0  502  0.39637716116E+03 -0.51402130422E+02 -0.15653963927E+02  0.40000259935E+03  0.00000000000E+00 0.  1.
<mgrwt>
<rscale>  0 0.18411521E+04</rscale>
<asrwt>0</asrwt>
<pdfrwt beam="1">  1        2 0.17855980E+00 0.18411521E+04</pdfrwt>
<pdfrwt beam="2">  1       -2 0.11233341E+00 0.18411521E+04</pdfrwt>
<totfact> 0.11753878E+01</totfact>
</mgrwt>
</event>
<event>
12    1  0.1663913E-007  0.1151694E+04  0.7818608E-02  0.9156222E-01
         -2   -1    0    0    0  501 -0.00000000000E+00  0.00000000000E+00  0.22261890349E+03  0.22261890349E+03  0.00000000000E+00 0.  1.
          2   -1    0    0  501    0  0.00000000000E+00 -0.00000000000E+00 -0.14895395810E+04  0.14895395810E+04  0.00000000000E+00 0. -1.
         23    2    1    2    0    0 -0.16720762656E+03  0.75035312672E+02 -0.41053625839E+03  0.45884523724E+03  0.91707381143E+02 0.  0.
        254    2    1    2    0    0  0.16720762656E+03 -0.75035312672E+02 -0.85638441915E+03  0.12533132473E+04  0.89655514829E+03 0.  0.
        -24    2    4    4    0    0  0.26998945414E+03  0.31214500276E+03 -0.69809914402E+03  0.81496814790E+03  0.80634106380E+02 0.  0.
         24    2    4    4    0    0 -0.10278182759E+03 -0.38718031544E+03 -0.15828527513E+03  0.43834509939E+03  0.81360291839E+02 0.  0.
         13    1    3    3    0    0 -0.25779789011E+01 -0.16352766190E+02 -0.36981763489E+02  0.40518017820E+02  0.00000000000E+00 0.  1.
        -13    1    3    3    0    0 -0.16462964765E+03  0.91388078861E+02 -0.37355449490E+03  0.41832721942E+03  0.00000000000E+00 0. -1.
          4    1    6    6  502    0 -0.87010474792E+02 -0.30058865775E+03 -0.15749116401E+03  0.35032532114E+03  0.00000000000E+00 0. -1.
          3    1    5    5  503    0  0.25520792493E+03  0.27225314936E+03 -0.58239967315E+03  0.69169519412E+03  0.00000000000E+00 0. -1.
         -4    1    5    5    0  503  0.14781529210E+02  0.39891853401E+02 -0.11569947087E+03  0.12327295378E+03  0.00000000000E+00 0.  1.
         -3    1    6    6    0  502 -0.15771352797E+02 -0.86591657685E+02 -0.79411112364E+00  0.88019778245E+02  0.00000000000E+00 0.  1.
<mgrwt>
<rscale>  0 0.11516938E+04</rscale>
<asrwt>0</asrwt>
<pdfrwt beam="1">  1        2 0.22915995E+00 0.11516938E+04</pdfrwt>
<pdfrwt beam="2">  1       -2 0.34249061E-01 0.11516938E+04</pdfrwt>
<totfact> 0.10163243E+02</totfact>
</mgrwt>
</event>
<event>
12    1  0.1663913E-007  0.1582379E+04  0.7818608E-02  0.8831447E-01
          1   -1    0    0  501    0  0.00000000000E+00  0.00000000000E+00  0.66228667683E+03  0.66228667683E+03  0.00000000000E+00 0. -1.
         -1   -1    0    0    0  501 -0.00000000000E+00 -0.00000000000E+00 -0.94518054025E+03  0.94518054025E+03  0.00000000000E+00 0.  1.
         23    2    1    2    0    0  0.15146550532E+03 -0.15265789359E+03 -0.59022645870E+03  0.63451714879E+03  0.89434376920E+02 0.  0.
        254    2    1    2    0    0 -0.15146550532E+03  0.15265789359E+03  0.30733259528E+03  0.97295006830E+03  0.89773731097E+03 0.  0.
        -24    2    4    4    0    0 -0.20865348797E+03  0.36620715796E+03 -0.15180522366E+03  0.45683877012E+03  0.89514665715E+02 0.  0.
         24    2    4    4    0    0  0.57187982647E+02 -0.21354926437E+03  0.45913781893E+03  0.51611129817E+03  0.81789862793E+02 0.  0.
         11    1    3    3    0    0  0.62857950207E+02 -0.36130348891E+02 -0.10433515492E+03  0.12705254255E+03  0.00000000000E+00 0. -1.
        -11    1    3    3    0    0  0.88607555115E+02 -0.11652754469E+03 -0.48589130378E+03  0.50746460624E+03  0.00000000000E+00 0.  1.
          4    1    6    6  502    0  0.41625490092E+02 -0.19509943564E+03  0.33706372418E+03  0.39167387629E+03  0.00000000000E+00 0. -1.
          1    1    5    5  503    0 -0.15965831795E+03  0.31555224746E+03 -0.94620466649E+02  0.36608336766E+03  0.00000000000E+00 0. -1.
         -2    1    5    5    0  503 -0.48995170022E+02  0.50654910499E+02 -0.57184757006E+02  0.90755402467E+02  0.00000000000E+00 0.  1.
         -3    1    6    6    0  502  0.15562492555E+02 -0.18449828734E+02  0.12207409475E+03  0.12443742188E+03  0.00000000000E+00 0.  1.
<mgrwt>
<rscale>  0 0.15823786E+04</rscale>
<asrwt>0</asrwt>
<pdfrwt beam="1">  1        1 0.10189026E+00 0.15823786E+04</pdfrwt>
<pdfrwt beam="2">  1       -1 0.14541239E+00 0.15823786E+04</pdfrwt>
<totfact> 0.10793673E+01</totfact>
</mgrwt>
</event>
<event>
12    1  0.1663913E-007  0.1688444E+04  0.7818608E-02  0.8767983E-01
         -2   -1    0    0    0  501 -0.00000000000E+00  0.00000000000E+00  0.28357425665E+03  0.28357425665E+03  0.00000000000E+00 0.  1.
          2   -1    0    0  501    0  0.00000000000E+00 -0.00000000000E+00 -0.25133123870E+04  0.25133123870E+04  0.00000000000E+00 0. -1.
         23    2    1    2    0    0 -0.96486339561E+02  0.23843447397E+03  0.96489476416E+02  0.29025734857E+03  0.93693634991E+02 0.  0.
        254    2    1    2    0    0  0.96486339561E+02 -0.23843447397E+03 -0.23262276068E+04  0.25066292951E+04  0.89760510940E+03 0.  0.
        -24    2    4    4    0    0 -0.35350854635E+03 -0.14902891770E+03 -0.15741543797E+04  0.16221803408E+04  0.79555869342E+02 0.  0.
         24    2    4    4    0    0  0.44999488592E+03 -0.89405556276E+02 -0.75207322707E+03  0.88444895428E+03  0.78403207855E+02 0.  0.
         13    1    3    3    0    0 -0.11797581105E+01  0.19020444546E+01 -0.12668870411E+02  0.12865064314E+02  0.00000000000E+00 0. -1.
        -13    1    3    3    0    0 -0.95306581451E+02  0.23653242952E+03  0.10915834683E+03  0.27739228425E+03  0.00000000000E+00 0.  1.
          2    1    6    6  502    0  0.20239148994E+03 -0.82287810520E+01 -0.37308115998E+03  0.42452276732E+03  0.00000000000E+00 0. -1.
          3    1    5    5  503    0 -0.73602098252E+02 -0.19446343440E+02 -0.20413142882E+03  0.21786479608E+03  0.00000000000E+00 0. -1.
         -4    1    5    5    0  503 -0.27990644810E+03 -0.12958257426E+03 -0.13700229509E+04  0.14043155448E+04  0.00000000000E+00 0.  1.
         -1    1    6    6    0  502  0.24760339598E+03 -0.81176775224E+02 -0.37899206709E+03  0.45992618696E+03  0.00000000000E+00 0.  1.
<mgrwt>
<rscale>  0 0.16884439E+04</rscale>
<asrwt>0</asrwt>
<pdfrwt beam="1">  1        2 0.38666346E+00 0.16884439E+04</pdfrwt>
<pdfrwt beam="2">  1       -2 0.43626807E-01 0.16884439E+04</pdfrwt>
<totfact> 0.16255362E+01</totfact>
</mgrwt>
</event>
<event>
12    1  0.2361197E-007  0.2176237E+04  0.7818608E-02  0.8528384E-01
         -1   -1    0    0    0  501 -0.00000000000E+00  0.00000000000E+00  0.75760565261E+03  0.75760565261E+03  0.00000000000E+00 0.  1.
          1   -1    0    0  501    0  0.00000000000E+00 -0.00000000000E+00 -0.15628212745E+04  0.15628212745E+04  0.00000000000E+00 0. -1.
         23    2    1    2    0    0 -0.37560306045E+02 -0.12883797583E+03 -0.12948636820E+04  0.13049914675E+04  0.91218280501E+02 0.  0.
        254    2    1    2    0    0  0.37560306045E+02  0.12883797583E+03  0.48964806019E+03  0.10154354595E+04  0.87939976632E+03 0.  0.
        -24    2    4    4    0    0  0.16417555497E+03  0.40162149933E+03  0.54334901437E+03  0.69984271463E+03  0.79361402650E+02 0.  0.
         24    2    4    4    0    0 -0.12661524893E+03 -0.27278352349E+03 -0.53700954186E+02  0.31559274489E+03  0.79200481050E+02 0.  0.
         13    1    3    3    0    0  0.15510183897E+01 -0.11130225916E+03 -0.72243365702E+03  0.73095895052E+03  0.00000000000E+00 0. -1.
        -13    1    3    3    0    0 -0.39111324435E+02 -0.17535716672E+02 -0.57243002502E+03  0.57403251702E+03  0.00000000000E+00 0.  1.
          2    1    6    6  502    0 -0.13000088175E+03 -0.26183201319E+03 -0.36046047190E+02  0.29454295087E+03  0.00000000000E+00 0. -1.
          3    1    5    5  503    0  0.16738607174E+03  0.39048555126E+03  0.54123128185E+03  0.68806130774E+03  0.00000000000E+00 0. -1.
         -4    1    5    5    0  503 -0.32105167703E+01  0.11135948071E+02  0.21177325242E+01  0.11781406894E+02  0.00000000000E+00 0.  1.
         -1    1    6    6    0  502  0.33856328220E+01 -0.10951510301E+02 -0.17654906996E+02  0.21049794026E+02  0.00000000000E+00 0.  1.
<mgrwt>
<rscale>  0 0.21762373E+04</rscale>
<asrwt>0</asrwt>
<pdfrwt beam="1">  1        1 0.24043404E+00 0.21762373E+04</pdfrwt>
<pdfrwt beam="2">  1       -1 0.11655472E+00 0.21762373E+04</pdfrwt>
<totfact> 0.35935085E+00</totfact>
</mgrwt>
</event>
<event>
12    1  0.1663913E-007  0.1993989E+04  0.7818608E-02  0.8609436E-01
          2   -1    0    0  501    0  0.00000000000E+00  0.00000000000E+00  0.92497289931E+03  0.92497289931E+03  0.00000000000E+00 0. -1.
         -2   -1    0    0    0  501 -0.00000000000E+00 -0.00000000000E+00 -0.10746242556E+04  0.10746242556E+04  0.00000000000E+00 0.  1.
         23    2    1    2    0    0 -0.55198736120E+03  0.54160601308E+03  0.95005416875E+02  0.78522531148E+03  0.97599386371E+02 0.  0.
        254    2    1    2    0    0  0.55198736120E+03 -0.54160601308E+03 -0.24465677318E+03  0.12143718435E+04  0.90377813493E+03 0.  0.
        -24    2    4    4    0    0  0.93403187595E+02 -0.52786304770E+03 -0.45129214773E+03  0.70524596015E+03  0.79647405034E+02 0.  0.
         24    2    4    4    0    0  0.45858417361E+03 -0.13742965376E+02  0.20663537455E+03  0.50912588330E+03  0.77605886720E+02 0.  0.
         11    1    3    3    0    0 -0.17169582598E+03  0.14229098127E+03 -0.12784435956E+02  0.22335984825E+03  0.00000000000E+00 0.  1.
        -11    1    3    3    0    0 -0.38029153522E+03  0.39931503181E+03  0.10778985283E+03  0.56186546322E+03  0.00000000000E+00 0. -1.
          2    1    6    6  502    0  0.27772537861E+03 -0.42714590252E+02  0.10748465763E+03  0.30084692748E+03  0.00000000000E+00 0. -1.
          1    1    5    5  503    0  0.39599715284E+02 -0.37047675979E+03 -0.27660006777E+03  0.46403530521E+03  0.00000000000E+00 0. -1.
         -2    1    5    5    0  503  0.53803472311E+02 -0.15738628791E+03 -0.17469207996E+03  0.24121065494E+03  0.00000000000E+00 0.  1.
         -1    1    6    6    0  502  0.18085879499E+03  0.28971624877E+02  0.99150716915E+02  0.20827895582E+03  0.00000000000E+00 0.  1.
<mgrwt>
<rscale>  0 0.19939893E+04</rscale>
<asrwt>0</asrwt>
<pdfrwt beam="1">  1        2 0.14230352E+00 0.19939893E+04</pdfrwt>
<pdfrwt beam="2">  1       -2 0.16532681E+00 0.19939893E+04</pdfrwt>
<totfact> 0.60357704E+00</totfact>
</mgrwt>
</event>
<event>
12    1  0.1663913E-007  0.1804487E+04  0.7818608E-02  0.8703917E-01
          2   -1    0    0  501    0  0.00000000000E+00  0.00000000000E+00  0.17085064383E+04  0.17085064383E+04  0.00000000000E+00 0. -1.
         -2   -1    0    0    0  501 -0.00000000000E+00 -0.00000000000E+00 -0.47646481705E+03  0.47646481705E+03  0.00000000000E+00 0.  1.
         23    2    1    2    0    0  0.63364094383E+03 -0.33215855442E+02  0.55121746829E+03  0.84534985134E+03  0.90396543409E+02 0.  0.
        254    2    1    2    0    0 -0.63364094383E+03  0.33215855442E+02  0.68082415295E+03  0.13396214040E+04  0.96356620947E+03 0.  0.
        -24    2    4    4    0    0 -0.48419182143E+03 -0.38840788481E+03  0.15503043327E+03  0.64473551061E+03  0.79668302834E+02 0.  0.
         24    2    4    4    0    0 -0.14944912240E+03  0.42162374025E+03  0.52579371968E+03  0.69488589338E+03  0.79408756679E+02 0.  0.
         11    1    3    3    0    0  0.59196100676E+03 -0.36650228147E+02  0.53988487631E+03  0.80202041895E+03  0.00000000000E+00 0.  1.
        -11    1    3    3    0    0  0.41679937075E+02  0.34343727050E+01  0.11332591983E+02  0.43329432393E+02  0.00000000000E+00 0. -1.
          2    1    6    6  502    0 -0.87047786841E+02  0.20405192515E+03  0.20343106853E+03  0.30099618767E+03  0.00000000000E+00 0. -1.
          3    1    5    5  503    0 -0.22787330779E+03 -0.16616222687E+03  0.10909616603E+03  0.30238734015E+03  0.00000000000E+00 0. -1.
         -4    1    5    5    0  503 -0.25631851364E+03 -0.22224565794E+03  0.45934267238E+02  0.34234817046E+03  0.00000000000E+00 0.  1.
         -1    1    6    6    0  502 -0.62401335562E+02  0.21757181510E+03  0.32236265115E+03  0.39388970571E+03  0.00000000000E+00 0.  1.
<mgrwt>
<rscale>  0 0.18044869E+04</rscale>
<asrwt>0</asrwt>
<pdfrwt beam="1">  1        2 0.26284714E+00 0.18044869E+04</pdfrwt>
<pdfrwt beam="2">  1       -2 0.73302280E-01 0.18044869E+04</pdfrwt>
<totfact> 0.15376981E+01</totfact>
</mgrwt>
</event>
<event>
12    1  0.1663913E-007  0.1924996E+04  0.7818608E-02  0.8642513E-01
          2   -1    0    0  501    0  0.00000000000E+00  0.00000000000E+00  0.12188812751E+04  0.12188812751E+04  0.00000000000E+00 0. -1.
         -2   -1    0    0    0  501 -0.00000000000E+00 -0.00000000000E+00 -0.76004337969E+03  0.76004337969E+03  0.00000000000E+00 0.  1.
         23    2    1    2    0    0 -0.16049422202E+03 -0.24411808637E+03 -0.52876553688E+03  0.61105968242E+03  0.91917936756E+02 0.  0.
        254    2    1    2    0    0  0.16049422202E+03  0.24411808637E+03  0.98760343230E+03  0.13678649724E+04  0.90018998426E+03 0.  0.
        -24    2    4    4    0    0 -0.11139204341E+03  0.52709444146E+03  0.53431042975E+03  0.76296036469E+03  0.79900846007E+02 0.  0.
         24    2    4    4    0    0  0.27188626543E+03 -0.28297635509E+03  0.45329300255E+03  0.60490460768E+03  0.80232657708E+02 0.  0.
         13    1    3    3    0    0 -0.10214225113E+03 -0.20991196511E+03 -0.45216361460E+03  0.50886934171E+03  0.00000000000E+00 0.  1.
        -13    1    3    3    0    0 -0.58351970895E+02 -0.34206121256E+02 -0.76601922285E+02  0.10219034072E+03  0.00000000000E+00 0. -1.
          4    1    6    6  502    0  0.23987867832E+03 -0.21233892969E+03  0.33559391992E+03  0.46395353266E+03  0.00000000000E+00 0. -1.
          3    1    5    5  503    0 -0.83525164078E+02  0.47761229663E+03  0.50062075893E+03  0.69692976920E+03  0.00000000000E+00 0. -1.
         -4    1    5    5    0  503 -0.27866879332E+02  0.49482144827E+02  0.33689670826E+02  0.66030595490E+02  0.00000000000E+00 0.  1.
         -3    1    6    6    0  502  0.32007587114E+02 -0.70637425402E+02  0.11769908262E+03  0.14095107503E+03  0.00000000000E+00 0.  1.
<mgrwt>
<rscale>  0 0.19249963E+04</rscale>
<asrwt>0</asrwt>
<pdfrwt beam="1">  1        2 0.18752020E+00 0.19249963E+04</pdfrwt>
<pdfrwt beam="2">  1       -2 0.11692975E+00 0.19249963E+04</pdfrwt>
<totfact> 0.97671985E+00</totfact>
</mgrwt>
</event>
<event>
12    1  0.1663913E-007  0.1450208E+04  0.7818608E-02  0.8918256E-01
         -2   -1    0    0    0  501 -0.00000000000E+00  0.00000000000E+00  0.18411793849E+03  0.18411793849E+03  0.00000000000E+00 0.  1.
          2   -1    0    0  501    0  0.00000000000E+00 -0.00000000000E+00 -0.28556471396E+04  0.28556471396E+04  0.00000000000E+00 0. -1.
         23    2    1    2    0    0 -0.17192710483E+03 -0.22472726638E+03 -0.15077679092E+04  0.15367461193E+04  0.90350946918E+02 0.  0.
        254    2    1    2    0    0  0.17192710483E+03  0.22472726638E+03 -0.11637612920E+04  0.15030189588E+04  0.90811033047E+03 0.  0.
        -24    2    4    4    0    0 -0.28453599315E+03  0.36201581681E+03 -0.57723808725E+03  0.74276578742E+03  0.80504798418E+02 0.  0.
         24    2    4    4    0    0  0.45646309798E+03 -0.13728855043E+03 -0.58652320471E+03  0.76025317141E+03  0.82272164622E+02 0.  0.
         11    1    3    3    0    0  0.57660232185E+01 -0.27931436658E+02 -0.90450938123E+02  0.94840837116E+02  0.00000000000E+00 0.  1.
        -11    1    3    3    0    0 -0.17769312805E+03 -0.19679582972E+03 -0.14173169711E+04  0.14419052822E+04  0.00000000000E+00 0. -1.
          2    1    6    6  502    0  0.14535524733E+03 -0.16196918998E+02 -0.22311912845E+03  0.26678199638E+03  0.00000000000E+00 0. -1.
          3    1    5    5  503    0 -0.87083243126E+02  0.58036475471E+02 -0.11829542255E+03  0.15794154208E+03  0.00000000000E+00 0. -1.
         -4    1    5    5    0  503 -0.19745275003E+03  0.30397934134E+03 -0.45894266470E+03  0.58482424534E+03  0.00000000000E+00 0.  1.
         -1    1    6    6    0  502  0.31110785066E+03 -0.12109163144E+03 -0.36340407626E+03  0.49347117503E+03  0.00000000000E+00 0.  1.
<mgrwt>
<rscale>  0 0.14502081E+04</rscale>
<asrwt>0</asrwt>
<pdfrwt beam="1">  1        2 0.43933028E+00 0.14502081E+04</pdfrwt>
<pdfrwt beam="2">  1       -2 0.28325840E-01 0.14502081E+04</pdfrwt>
<totfact> 0.23823248E+01</totfact>
</mgrwt>
</event>
<event>
12    1  0.1663913E-007  0.5201966E+04  0.7818608E-02  0.7798085E-01
          2   -1    0    0  501    0  0.00000000000E+00  0.00000000000E+00  0.23339485580E+04  0.23339485580E+04  0.00000000000E+00 0. -1.
         -2   -1    0    0    0  501 -0.00000000000E+00 -0.00000000000E+00 -0.28985698936E+04  0.28985698936E+04  0.00000000000E+00 0.  1.
         23    2    1    2    0    0  0.23618170753E+04  0.25893060029E+03  0.57841446527E+03  0.24470379424E+04  0.90589430624E+02 0.  0.
        254    2    1    2    0    0 -0.23618170753E+04 -0.25893060029E+03 -0.11430358008E+04  0.27854805092E+04  0.89841297446E+03 0.  0.
        -24    2    4    4    0    0 -0.48268859527E+02 -0.15938631010E+03 -0.22888048102E+03  0.29455469354E+03  0.81500394171E+02 0.  0.
         24    2    4    4    0    0 -0.23135482157E+04 -0.99544290194E+02 -0.91415531980E+03  0.24909258157E+04  0.81345303382E+02 0.  0.
         11    1    3    3    0    0  0.20472005327E+04  0.21396041086E+03  0.47088750152E+03  0.21115264899E+04  0.00000000000E+00 0. -1.
        -11    1    3    3    0    0  0.31461654258E+03  0.44970189430E+02  0.10752696375E+03  0.33551145246E+03  0.00000000000E+00 0.  1.
          2    1    6    6  502    0 -0.14891005529E+04 -0.49817949302E+02 -0.54899450913E+03  0.15878593312E+04  0.00000000000E+00 0. -1.
          1    1    5    5  503    0 -0.18828016231E+02 -0.15421054875E+03 -0.18730739455E+03  0.24335046249E+03  0.00000000000E+00 0. -1.
         -2    1    5    5    0  503 -0.29440843296E+02 -0.51757613543E+01 -0.41573086469E+02  0.51204231057E+02  0.00000000000E+00 0.  1.
         -1    1    6    6    0  502 -0.82444766287E+03 -0.49726340892E+02 -0.36516081067E+03  0.90306648451E+03  0.00000000000E+00 0.  1.
<mgrwt>
<rscale>  0 0.52019662E+04</rscale>
<asrwt>0</asrwt>
<pdfrwt beam="1">  1        2 0.35906901E+00 0.52019662E+04</pdfrwt>
<pdfrwt beam="2">  1       -2 0.44593383E+00 0.52019662E+04</pdfrwt>
<totfact> 0.11507384E-02</totfact>
</mgrwt>
</event>
<event>
12    1  0.1663913E-007  0.1249055E+04  0.7818608E-02  0.9070970E-01
         -1   -1    0    0    0  501 -0.00000000000E+00  0.00000000000E+00  0.45497515127E+03  0.45497515127E+03  0.00000000000E+00 0.  1.
          1   -1    0    0  501    0  0.00000000000E+00 -0.00000000000E+00 -0.85726565303E+03  0.85726565303E+03  0.00000000000E+00 0. -1.
         23    2    1    2    0    0  0.13202439596E+03 -0.12191285028E+03 -0.33095237952E+03  0.38737274644E+03  0.90746807030E+02 0.  0.
        254    2    1    2    0    0 -0.13202439596E+03  0.12191285028E+03 -0.71338122245E+02  0.92486805785E+03  0.90443275735E+03 0.  0.
        -24    2    4    4    0    0 -0.21304859593E+03 -0.15238789672E+03  0.32673433131E+03  0.42828081688E+03  0.89762796070E+02 0.  0.
         24    2    4    4    0    0  0.81024199972E+02  0.27430074700E+03 -0.39807245355E+03  0.49658724097E+03  0.79570024693E+02 0.  0.
         11    1    3    3    0    0  0.97653522471E+02 -0.66975529696E+02 -0.28294490456E+03  0.30672422638E+03  0.00000000000E+00 0. -1.
        -11    1    3    3    0    0  0.34370873485E+02 -0.54937320584E+02 -0.48007474959E+02  0.80648520067E+02  0.00000000000E+00 0.  1.
          4    1    6    6  502    0 -0.28588567959E+01  0.78289193075E+01  0.20563645331E+01  0.85845020121E+01  0.00000000000E+00 0. -1.
          1    1    5    5  503    0 -0.76706998915E+02 -0.79406659372E+02  0.77225595728E+02  0.13473371468E+03  0.00000000000E+00 0. -1.
         -4    1    5    5    0  503 -0.13634159701E+03 -0.72981237350E+02  0.24950873558E+03  0.29354710220E+03  0.00000000000E+00 0.  1.
         -3    1    6    6    0  502  0.83883056768E+02  0.26647182769E+03 -0.40012881809E+03  0.48800273896E+03  0.00000000000E+00 0.  1.
<mgrwt>
<rscale>  0 0.12490550E+04</rscale>
<asrwt>0</asrwt>
<pdfrwt beam="1">  1        1 0.13188702E+00 0.12490550E+04</pdfrwt>
<pdfrwt beam="2">  1       -1 0.69996177E-01 0.12490550E+04</pdfrwt>
<totfact> 0.40197237E+01</totfact>
</mgrwt>
</event>
<event>
12    1  0.1663913E-007  0.2021094E+04  0.7818608E-02  0.8596821E-01
          1   -1    0    0  501    0  0.00000000000E+00  0.00000000000E+00  0.11717546680E+04  0.11717546680E+04  0.00000000000E+00 0. -1.
         -1   -1    0    0    0  501 -0.00000000000E+00 -0.00000000000E+00 -0.87151837664E+03  0.87151837664E+03  0.00000000000E+00 0.  1.
         23    2    1    2    0    0  0.37945952850E+03  0.27917787527E+03 -0.54689334278E+03  0.72759897399E+03  0.91532064127E+02 0.  0.
        254    2    1    2    0    0 -0.37945952850E+03 -0.27917787527E+03  0.84712963418E+03  0.13156740707E+04  0.88962903696E+03 0.  0.
        -24    2    4    4    0    0 -0.24843630426E+03 -0.14273627134E+03 -0.12402143547E+03  0.32319917492E+03  0.83559259112E+02 0.  0.
         24    2    4    4    0    0 -0.13102322424E+03 -0.13644160393E+03  0.97115106965E+03  0.99247489578E+03  0.78029623218E+02 0.  0.
         11    1    3    3    0    0  0.89227575548E+02  0.21650069009E+02 -0.10969733379E+03  0.14305170662E+03  0.00000000000E+00 0. -1.
        -11    1    3    3    0    0  0.29023195295E+03  0.25752780626E+03 -0.43719600899E+03  0.58454726736E+03  0.00000000000E+00 0.  1.
          4    1    6    6  502    0 -0.87258003100E+02 -0.74721428102E+02  0.39466074779E+03  0.41104057800E+03  0.00000000000E+00 0. -1.
          1    1    5    5  503    0 -0.15214914269E+02 -0.34209986031E+02 -0.34266670026E+02  0.50754521327E+02  0.00000000000E+00 0. -1.
         -2    1    5    5    0  503 -0.23322138999E+03 -0.10852628531E+03 -0.89754765444E+02  0.27244465359E+03  0.00000000000E+00 0.  1.
         -3    1    6    6    0  502 -0.43765221137E+02 -0.61720175824E+02  0.57649032187E+03  0.58143431778E+03  0.00000000000E+00 0.  1.
<mgrwt>
<rscale>  0 0.20210945E+04</rscale>
<asrwt>0</asrwt>
<pdfrwt beam="1">  1        1 0.18026995E+00 0.20210945E+04</pdfrwt>
<pdfrwt beam="2">  1       -1 0.13407975E+00 0.20210945E+04</pdfrwt>
<totfact> 0.48660965E+00</totfact>
</mgrwt>
</event>
<event>
12    1  0.1663913E-007  0.2796514E+04  0.7818608E-02  0.8304351E-01
         -1   -1    0    0    0  501 -0.00000000000E+00  0.00000000000E+00  0.19827907766E+04  0.19827907766E+04  0.00000000000E+00 0.  1.
          1   -1    0    0  501    0  0.00000000000E+00 -0.00000000000E+00 -0.98604599857E+03  0.98604599857E+03  0.00000000000E+00 0. -1.
         23    2    1    2    0    0  0.59738518870E+03  0.63505890283E+03  0.14007126075E+04  0.16523993234E+04  0.90878167665E+02 0.  0.
        254    2    1    2    0    0 -0.59738518870E+03 -0.63505890283E+03 -0.40396782942E+03  0.13164374518E+04  0.89980480308E+03 0.  0.
        -24    2    4    4    0    0  0.16514848564E+03 -0.62946728002E+02  0.11949535399E+03  0.22590264884E+03  0.74273509775E+02 0.  0.
         24    2    4    4    0    0 -0.76253367434E+03 -0.57211217483E+03 -0.52346318341E+03  0.10905348030E+04  0.80514017718E+02 0.  0.
         11    1    3    3    0    0  0.88462895876E+02  0.69058399431E+02  0.13625074310E+03  0.17651915328E+03  0.00000000000E+00 0. -1.
        -11    1    3    3    0    0  0.50892229282E+03  0.56600050340E+03  0.12644618644E+04  0.14758801701E+04  0.00000000000E+00 0.  1.
          4    1    6    6  502    0 -0.49594570285E+03 -0.41886555672E+03 -0.35930745217E+03  0.74196518784E+03  0.00000000000E+00 0. -1.
          1    1    5    5  503    0  0.83018441144E+02 -0.29038527748E+02  0.10315358156E+03  0.13555795459E+03  0.00000000000E+00 0. -1.
         -2    1    5    5    0  503  0.82130044498E+02 -0.33908200254E+02  0.16341772426E+02  0.90344694253E+02  0.00000000000E+00 0.  1.
         -3    1    6    6    0  502 -0.26658797149E+03 -0.15324661811E+03 -0.16415573124E+03  0.34856961515E+03  0.00000000000E+00 0.  1.
<mgrwt>
<rscale>  0 0.27965142E+04</rscale>
<asrwt>0</asrwt>
<pdfrwt beam="1">  1        1 0.15169938E+00 0.27965142E+04</pdfrwt>
<pdfrwt beam="2">  1       -1 0.30504473E+00 0.27965142E+04</pdfrwt>
<totfact> 0.41152841E-01</totfact>
</mgrwt>
</event>
<event>
12    1  0.1663913E-007  0.2469946E+04  0.7818608E-02  0.8413771E-01
          1   -1    0    0  501    0  0.00000000000E+00  0.00000000000E+00  0.31924627368E+04  0.31924627368E+04  0.00000000000E+00 0. -1.
         -1   -1    0    0    0  501 -0.00000000000E+00 -0.00000000000E+00 -0.47773730074E+03  0.47773730074E+03  0.00000000000E+00 0.  1.
         23    2    1    2    0    0 -0.67761514863E+02  0.22780194759E+02  0.27630861817E+04  0.27658388419E+04  0.10054199135E+03 0.  0.
        254    2    1    2    0    0  0.67761514863E+02 -0.22780194759E+02 -0.48360745590E+02  0.90436119562E+03  0.90023321993E+03 0.  0.
        -24    2    4    4    0    0 -0.38546000277E+03 -0.15507369517E+03 -0.56844527801E+02  0.42554334417E+03  0.72308870533E+02 0.  0.
         24    2    4    4    0    0  0.45322151764E+03  0.13229350041E+03  0.84837822113E+01  0.47881785145E+03  0.79266928831E+02 0.  0.
         11    1    3    3    0    0  0.10576994886E+02  0.29313135397E+02  0.32622818661E+03  0.32771323206E+03  0.00000000000E+00 0.  1.
        -11    1    3    3    0    0 -0.78338509750E+02 -0.65329406381E+01  0.24368579951E+04  0.24381256099E+04  0.00000000000E+00 0. -1.
          2    1    6    6  502    0  0.85248928584E+02  0.20433305007E+02  0.32440036886E+02  0.93473289080E+02  0.00000000000E+00 0. -1.
          3    1    5    5  503    0 -0.12761262818E+03 -0.25460502029E+02  0.57001637221E+01  0.13025249288E+03  0.00000000000E+00 0. -1.
         -4    1    5    5    0  503 -0.25784737459E+03 -0.12961319314E+03 -0.62544691523E+02  0.29529085129E+03  0.00000000000E+00 0.  1.
         -1    1    6    6    0  502  0.36797258905E+03  0.11186019540E+03 -0.23956254675E+02  0.38534456237E+03  0.00000000000E+00 0.  1.
<mgrwt>
<rscale>  0 0.24699462E+04</rscale>
<asrwt>0</asrwt>
<pdfrwt beam="1">  1        1 0.49114810E+00 0.24699462E+04</pdfrwt>
<pdfrwt beam="2">  1       -1 0.73498048E-01 0.24699462E+04</pdfrwt>
<totfact> 0.71568425E-01</totfact>
</mgrwt>
</event>
<event>
12    1  0.2059351E-007  0.1419143E+04  0.7818608E-02  0.8940077E-01
         -1   -1    0    0    0  501 -0.00000000000E+00  0.00000000000E+00  0.40502900524E+03  0.40502900524E+03  0.00000000000E+00 0.  1.
          1   -1    0    0  501    0  0.00000000000E+00 -0.00000000000E+00 -0.12431005920E+04  0.12431005920E+04  0.00000000000E+00 0. -1.
         23    2    1    2    0    0 -0.31987344173E+03  0.44157142964E+02  0.50196992563E+02  0.34104251758E+03  0.97577603659E+02 0.  0.
        254    2    1    2    0    0  0.31987344173E+03 -0.44157142964E+02 -0.88826857934E+03  0.13070870797E+04  0.90287689793E+03 0.  0.
        -24    2    4    4    0    0 -0.30741262633E+03  0.21951754870E+02 -0.25347591712E+03  0.40825731721E+03  0.86253081802E+02 0.  0.
         24    2    4    4    0    0  0.62728606806E+03 -0.66108897834E+02 -0.63479266222E+03  0.89882976247E+03  0.84113140093E+02 0.  0.
         11    1    3    3    0    0 -0.17389300102E+02  0.24049595750E+01  0.30331035330E+02  0.35044875414E+02  0.00000000000E+00 0. -1.
        -11    1    3    3    0    0 -0.30248414162E+03  0.41752183389E+02  0.19865957233E+02  0.30599764216E+03  0.00000000000E+00 0.  1.
          4    1    6    6  502    0  0.61478679197E+02  0.18055689889E+02 -0.71493552665E+02  0.96005020732E+02  0.00000000000E+00 0. -1.
          3    1    5    5  503    0 -0.34632512011E+01 -0.13627695837E+01  0.65806452284E+01  0.75601680829E+01  0.00000000000E+00 0. -1.
         -4    1    5    5    0  503 -0.30394937513E+03  0.23314524454E+02 -0.26005656235E+03  0.40069714912E+03  0.00000000000E+00 0.  1.
         -1    1    6    6    0  502  0.56580738886E+03 -0.84164587723E+02 -0.56329910956E+03  0.80282474174E+03  0.00000000000E+00 0.  1.
<mgrwt>
<rscale>  0 0.14191431E+04</rscale>
<asrwt>0</asrwt>
<pdfrwt beam="1">  1        1 0.19124624E+00 0.14191431E+04</pdfrwt>
<pdfrwt beam="2">  1       -1 0.62312155E-01 0.14191431E+04</pdfrwt>
<totfact> 0.25281042E+01</totfact>
</mgrwt>
</event>
<event>
12    1  0.1663913E-007  0.1532135E+04  0.7818608E-02  0.8863361E-01
         -3   -1    0    0    0  501 -0.00000000000E+00  0.00000000000E+00  0.80399065727E+03  0.80399065727E+03  0.00000000000E+00 0.  1.
          3   -1    0    0  501    0  0.00000000000E+00 -0.00000000000E+00 -0.72993277885E+03  0.72993277885E+03  0.00000000000E+00 0. -1.
         23    2    1    2    0    0  0.10552228875E+03  0.50700036556E+02  0.50529224293E+03  0.52681549379E+03  0.92243517927E+02 0.  0.
        254    2    1    2    0    0 -0.10552228875E+03 -0.50700036556E+02 -0.43123436451E+03  0.10071079423E+04  0.90255076491E+03 0.  0.
        -24    2    4    4    0    0 -0.18340928633E+03 -0.76241000018E+02  0.24217664801E+03  0.32336767145E+03  0.80408119634E+02 0.  0.
         24    2    4    4    0    0  0.77886997573E+02  0.25540963462E+02 -0.67341101252E+03  0.68374027088E+03  0.85437936788E+02 0.  0.
         11    1    3    3    0    0 -0.13816218788E+02 -0.74253770396E+01  0.40210862621E+02  0.43161760836E+02  0.00000000000E+00 0. -1.
        -11    1    3    3    0    0  0.11933850754E+03  0.58125413595E+02  0.46508138031E+03  0.48365373295E+03  0.00000000000E+00 0.  1.
          4    1    6    6  502    0  0.79548994233E+02  0.25908679720E+02 -0.33378700009E+03  0.34411199281E+03  0.00000000000E+00 0. -1.
          3    1    5    5  503    0 -0.11973774118E+03 -0.34657204886E+02  0.20198455927E+03  0.23735208172E+03  0.00000000000E+00 0. -1.
         -4    1    5    5    0  503 -0.63671545149E+02 -0.41583795132E+02  0.40192088736E+02  0.86015589728E+02  0.00000000000E+00 0.  1.
         -3    1    6    6    0  502 -0.16619966601E+01 -0.36771625859E+00 -0.33962401243E+03  0.33962827807E+03  0.00000000000E+00 0.  1.
<mgrwt>
<rscale>  0 0.15321346E+04</rscale>
<asrwt>0</asrwt>
<pdfrwt beam="1">  1        3 0.11229735E+00 0.15321346E+04</pdfrwt>
<pdfrwt beam="2">  1       -3 0.12369087E+00 0.15321346E+04</pdfrwt>
<totfact> 0.88078992E-01</totfact>
</mgrwt>
</event>
<event>
12    1  0.1663913E-007  0.2688584E+04  0.7818608E-02  0.8338719E-01
          2   -1    0    0  501    0  0.00000000000E+00  0.00000000000E+00  0.16763584780E+04  0.16763584780E+04  0.00000000000E+00 0. -1.
         -2   -1    0    0    0  501 -0.00000000000E+00 -0.00000000000E+00 -0.10780036945E+04  0.10780036945E+04  0.00000000000E+00 0.  1.
         23    2    1    2    0    0 -0.76427701421E+03  0.22561999031E+03 -0.64028531025E+03  0.10263726330E+04  0.91933501695E+02 0.  0.
        254    2    1    2    0    0  0.76427701421E+03 -0.22561999031E+03  0.12386400937E+04  0.17279895395E+04  0.90371169768E+03 0.  0.
        -24    2    4    4    0    0  0.81228607423E+03  0.70872867968E+01  0.52225034356E+03  0.96903844254E+03  0.80194674089E+02 0.  0.
         24    2    4    4    0    0 -0.48009060027E+02 -0.23270727711E+03  0.71638975012E+03  0.75895109697E+03  0.79592379325E+02 0.  0.
         13    1    3    3    0    0 -0.57598407656E+03  0.18681589764E+03 -0.53016190412E+03  0.80481642667E+03  0.00000000000E+00 0.  1.
        -13    1    3    3    0    0 -0.18829293764E+03  0.38804092675E+02 -0.11012340613E+03  0.22155620630E+03  0.00000000000E+00 0. -1.
          4    1    6    6  502    0 -0.39520685201E+02 -0.92431014716E+02  0.20087463052E+03  0.22462411764E+03  0.00000000000E+00 0. -1.
          3    1    5    5  503    0  0.27136554214E+03  0.86440653634E+01  0.21965425169E+03  0.34923053648E+03  0.00000000000E+00 0. -1.
         -4    1    5    5    0  503  0.54092053209E+03 -0.15567785666E+01  0.30259609186E+03  0.61980790606E+03  0.00000000000E+00 0.  1.
         -3    1    6    6    0  502 -0.84883748266E+01 -0.14027626239E+03  0.51551511960E+03  0.53432697932E+03  0.00000000000E+00 0.  1.
<mgrwt>
<rscale>  0 0.26885837E+04</rscale>
<asrwt>0</asrwt>
<pdfrwt beam="1">  1        2 0.25790130E+00 0.26885837E+04</pdfrwt>
<pdfrwt beam="2">  1       -2 0.16584672E+00 0.26885837E+04</pdfrwt>
<totfact> 0.20266382E+00</totfact>
</mgrwt>
</event>
<event>
12    1  0.1663913E-007  0.1287429E+04  0.7818608E-02  0.9039594E-01
         -1   -1    0    0    0  501 -0.00000000000E+00  0.00000000000E+00  0.15328130943E+04  0.15328130943E+04  0.00000000000E+00 0.  1.
          1   -1    0    0  501    0  0.00000000000E+00 -0.00000000000E+00 -0.27033190255E+03  0.27033190255E+03  0.00000000000E+00 0. -1.
         23    2    1    2    0    0 -0.32125300245E+03 -0.53106203309E+02  0.26337738219E+03  0.42869893872E+03  0.91604444191E+02 0.  0.
        254    2    1    2    0    0  0.32125300245E+03  0.53106203309E+02  0.99910380956E+03  0.13744460581E+04  0.88592876915E+03 0.  0.
        -24    2    4    4    0    0  0.18961018528E+03 -0.36835384156E+03  0.75358667266E+03  0.86295751214E+03  0.71876418849E+02 0.  0.
         24    2    4    4    0    0  0.13164281717E+03  0.42146004487E+03  0.24551713690E+03  0.51148854599E+03  0.79896604635E+02 0.  0.
         11    1    3    3    0    0 -0.26110223659E+03 -0.68030212038E+02  0.17817133605E+03  0.32333807801E+03  0.00000000000E+00 0. -1.
        -11    1    3    3    0    0 -0.60150765861E+02  0.14924008729E+02  0.85206046140E+02  0.10536086071E+03  0.00000000000E+00 0.  1.
          2    1    6    6  502    0  0.10558852127E+03  0.21440271322E+03  0.14829707884E+03  0.28126408028E+03  0.00000000000E+00 0. -1.
          1    1    5    5  503    0  0.16741137174E+02 -0.93702130470E+02  0.19349086379E+03  0.21563642851E+03  0.00000000000E+00 0. -1.
         -2    1    5    5    0  503  0.17286904811E+03 -0.27465171109E+03  0.56009580887E+03  0.64732108363E+03  0.00000000000E+00 0.  1.
         -1    1    6    6    0  502  0.26054295901E+02  0.20705733165E+03  0.97220058057E+02  0.23022446571E+03  0.00000000000E+00 0.  1.
<mgrwt>
<rscale>  0 0.12874289E+04</rscale>
<asrwt>0</asrwt>
<pdfrwt beam="1">  1        1 0.41589525E-01 0.12874289E+04</pdfrwt>
<pdfrwt beam="2">  1       -1 0.23581739E+00 0.12874289E+04</pdfrwt>
<totfact> 0.85412980E+00</totfact>
</mgrwt>
</event>
<event>
12    1  0.1663913E-007  0.1676361E+04  0.7818608E-02  0.8774963E-01
          1   -1    0    0  501    0  0.00000000000E+00  0.00000000000E+00  0.80115496965E+03  0.80115496965E+03  0.00000000000E+00 0. -1.
         -1   -1    0    0    0  501 -0.00000000000E+00 -0.00000000000E+00 -0.87691707096E+03  0.87691707096E+03  0.00000000000E+00 0.  1.
         23    2    1    2    0    0  0.94195290391E+02 -0.21650495403E+02  0.56032454067E+03  0.57541361771E+03  0.88293509921E+02 0.  0.
        254    2    1    2    0    0 -0.94195290391E+02  0.21650495403E+02 -0.63608664197E+03  0.11026584229E+04  0.89549309591E+03 0.  0.
        -24    2    4    4    0    0 -0.22444796210E+03 -0.39116062453E+03 -0.36300719308E+03  0.58391105085E+03  0.76120767261E+02 0.  0.
         24    2    4    4    0    0  0.13025267171E+03  0.41281111993E+03 -0.27307944890E+03  0.51874737205E+03  0.84543902054E+02 0.  0.
         13    1    3    3    0    0  0.19579340205E+02  0.37135943547E+01  0.16398665686E+02  0.25808091409E+02  0.00000000000E+00 0.  1.
        -13    1    3    3    0    0  0.74615950186E+02 -0.25364089758E+02  0.54392587498E+03  0.54960552630E+03  0.00000000000E+00 0. -1.
          2    1    6    6  502    0  0.65507172709E+02  0.23350649979E+03 -0.10379967317E+03  0.26380077193E+03  0.00000000000E+00 0. -1.
          3    1    5    5  503    0 -0.44697857168E+02 -0.11905689293E+03 -0.13826860909E+03  0.18785805932E+03  0.00000000000E+00 0. -1.
         -4    1    5    5    0  503 -0.17975010493E+03 -0.27210373159E+03 -0.22473858398E+03  0.39605299153E+03  0.00000000000E+00 0.  1.
         -3    1    6    6    0  502  0.64745498999E+02  0.17930462015E+03 -0.16927977572E+03  0.25494660012E+03  0.00000000000E+00 0.  1.
<mgrwt>
<rscale>  0 0.16763609E+04</rscale>
<asrwt>0</asrwt>
<pdfrwt beam="1">  1        1 0.12325461E+00 0.16763609E+04</pdfrwt>
<pdfrwt beam="2">  1       -1 0.13491032E+00 0.16763609E+04</pdfrwt>
<totfact> 0.97065732E+00</totfact>
</mgrwt>
</event>
<event>
12    1  0.1663913E-007  0.1933950E+04  0.7818608E-02  0.8638139E-01
          1   -1    0    0  501    0  0.00000000000E+00  0.00000000000E+00  0.20552146133E+04  0.20552146133E+04  0.00000000000E+00 0. -1.
         -1   -1    0    0    0  501 -0.00000000000E+00 -0.00000000000E+00 -0.45496015809E+03  0.45496015809E+03  0.00000000000E+00 0.  1.
         23    2    1    2    0    0  0.44449013000E+03  0.60357102651E+03  0.50823278063E+03  0.91049713237E+03  0.93994728771E+02 0.  0.
        254    2    1    2    0    0 -0.44449013000E+03 -0.60357102651E+03  0.10920216746E+04  0.15996776391E+04  0.89698815564E+03 0.  0.
        -24    2    4    4    0    0  0.26031903595E+03 -0.10327010290E+03  0.36857070645E+03  0.46973986205E+03  0.79877767360E+02 0.  0.
         24    2    4    4    0    0 -0.70480916595E+03 -0.50030092361E+03  0.72345096816E+03  0.11299377770E+04  0.79505358221E+02 0.  0.
         13    1    3    3    0    0  0.30494038314E+03  0.35282766074E+03  0.34759500126E+03  0.58163414648E+03  0.00000000000E+00 0. -1.
        -13    1    3    3    0    0  0.13954974687E+03  0.25074336577E+03  0.16063777937E+03  0.32886298589E+03  0.00000000000E+00 0.  1.
          2    1    6    6  502    0 -0.21679660009E+03 -0.11015652961E+03  0.20188238298E+03  0.31605651928E+03  0.00000000000E+00 0. -1.
          3    1    5    5  503    0  0.25349943404E+02 -0.40771170449E+02  0.64798704350E+02  0.80646016987E+02  0.00000000000E+00 0. -1.
         -4    1    5    5    0  503  0.23496909255E+03 -0.62498932451E+02  0.30377200210E+03  0.38909384507E+03  0.00000000000E+00 0.  1.
         -1    1    6    6    0  502 -0.48801256586E+03 -0.39014439401E+03  0.52156858519E+03  0.81388125772E+03  0.00000000000E+00 0.  1.
<mgrwt>
<rscale>  0 0.19339501E+04</rscale>
<asrwt>0</asrwt>
<pdfrwt beam="1">  1        1 0.31618686E+00 0.19339501E+04</pdfrwt>
<pdfrwt beam="2">  1       -1 0.69993872E-01 0.19339501E+04</pdfrwt>
<totfact> 0.52625121E+00</totfact>
</mgrwt>
</event>
<event>
12    1  0.1663913E-007  0.2265988E+04  0.7818608E-02  0.8491454E-01
         -2   -1    0    0    0  501 -0.00000000000E+00  0.00000000000E+00  0.82119532183E+03  0.82119532183E+03  0.00000000000E+00 0.  1.
          2   -1    0    0  501    0  0.00000000000E+00 -0.00000000000E+00 -0.15631790558E+04  0.15631790558E+04  0.00000000000E+00 0. -1.
         23    2    1    2    0    0 -0.31951329161E+03 -0.54227196353E+03  0.44124055756E+03  0.77392427990E+03  0.90099586251E+02 0.  0.
        254    2    1    2    0    0  0.31951329161E+03  0.54227196353E+03 -0.11832242915E+04  0.16104500977E+04  0.89296257887E+03 0.  0.
        -24    2    4    4    0    0  0.14202092592E+03 -0.58627912094E+02  0.85850844931E+02  0.19294761023E+03  0.79064766130E+02 0.  0.
         24    2    4    4    0    0  0.17749236569E+03  0.60089987562E+03 -0.12690751364E+04  0.14175024875E+04  0.78596435625E+02 0.  0.
         11    1    3    3    0    0 -0.22538053153E+03 -0.29887506828E+03  0.24447432257E+03  0.44709102521E+03  0.00000000000E+00 0.  1.
        -11    1    3    3    0    0 -0.94132760076E+02 -0.24339689525E+03  0.19676623499E+03  0.32683325469E+03  0.00000000000E+00 0. -1.
          2    1    6    6  502    0  0.16951745647E+02  0.54903511932E+02 -0.17607956488E+03  0.18521816993E+03  0.00000000000E+00 0. -1.
          3    1    5    5  503    0  0.10644697943E+03 -0.58281317756E+01  0.69349658793E+02  0.12717822819E+03  0.00000000000E+00 0. -1.
         -4    1    5    5    0  503  0.35573946483E+02 -0.52799780319E+02  0.16501186138E+02  0.65769382041E+02  0.00000000000E+00 0.  1.
         -1    1    6    6    0  502  0.16054062004E+03  0.54599636369E+03 -0.10929955716E+04  0.12322843176E+04  0.00000000000E+00 0.  1.
<mgrwt>
<rscale>  0 0.22659879E+04</rscale>
<asrwt>0</asrwt>
<pdfrwt beam="1">  1        2 0.24048908E+00 0.22659879E+04</pdfrwt>
<pdfrwt beam="2">  1       -2 0.12633774E+00 0.22659879E+04</pdfrwt>
<totfact> 0.49640836E+00</totfact>
</mgrwt>
</event>
<event>
12    1  0.1663913E-007  0.1151086E+04  0.7818608E-02  0.9156782E-01
         -1   -1    0    0    0  501 -0.00000000000E+00  0.00000000000E+00  0.18663270239E+03  0.18663270239E+03  0.00000000000E+00 0.  1.
          1   -1    0    0  501    0  0.00000000000E+00 -0.00000000000E+00 -0.17748745362E+04  0.17748745362E+04  0.00000000000E+00 0. -1.
         23    2    1    2    0    0 -0.26626293305E+02  0.30688021752E+02  0.37555500698E+02  0.10700163811E+03  0.91587230282E+02 0.  0.
        254    2    1    2    0    0  0.26626293305E+02 -0.30688021752E+02 -0.16257973345E+04  0.18545056005E+04  0.89124818942E+03 0.  0.
        -24    2    4    4    0    0 -0.19743259882E+03  0.18785076840E+03 -0.14683803555E+04  0.14955906980E+04  0.79894462077E+02 0.  0.
         24    2    4    4    0    0  0.22405889212E+03 -0.21853879015E+03 -0.15741697895E+03  0.35891490249E+03  0.77962888806E+02 0.  0.
         11    1    3    3    0    0 -0.12732040111E+02  0.16300438297E+02 -0.30060755016E+02  0.36489150801E+02  0.00000000000E+00 0. -1.
        -11    1    3    3    0    0 -0.13894253194E+02  0.14387583455E+02  0.67616255713E+02  0.70512487307E+02  0.00000000000E+00 0.  1.
          4    1    6    6  502    0  0.62355313903E+02 -0.43433383035E+02 -0.53304330824E+01  0.76177801561E+02  0.00000000000E+00 0. -1.
          1    1    5    5  503    0 -0.21135117527E+02  0.54714590438E+02 -0.42900465687E+03  0.43299581432E+03  0.00000000000E+00 0. -1.
         -2    1    5    5    0  503 -0.17629748129E+03  0.13313617796E+03 -0.10393756986E+04  0.10625948836E+04  0.00000000000E+00 0.  1.
         -3    1    6    6    0  502  0.16170357822E+03 -0.17510540711E+03 -0.15208654587E+03  0.28273710093E+03  0.00000000000E+00 0.  1.
<mgrwt>
<rscale>  0 0.11510858E+04</rscale>
<asrwt>0</asrwt>
<pdfrwt beam="1">  1        1 0.27305762E+00 0.11510858E+04</pdfrwt>
<pdfrwt beam="2">  1       -1 0.28712723E-01 0.11510858E+04</pdfrwt>
<totfact> 0.46411938E+01</totfact>
</mgrwt>
</event>
<event>
12    1  0.1663913E-007  0.1357718E+04  0.7818608E-02  0.8985006E-01
         -1   -1    0    0    0  501 -0.00000000000E+00  0.00000000000E+00  0.60245183238E+03  0.60245183238E+03  0.00000000000E+00 0.  1.
          1   -1    0    0  501    0  0.00000000000E+00 -0.00000000000E+00 -0.76495688911E+03  0.76495688911E+03  0.00000000000E+00 0. -1.
         23    2    1    2    0    0  0.17295403191E+03 -0.81387468851E+02 -0.37033826933E+03  0.42675663921E+03  0.91835603907E+02 0.  0.
        254    2    1    2    0    0 -0.17295403191E+03  0.81387468851E+02  0.20783321260E+03  0.94065208227E+03  0.89727068289E+03 0.  0.
        -24    2    4    4    0    0 -0.41498451856E+03 -0.30601244932E+02  0.41485092662E+03  0.59309599487E+03  0.80703041878E+02 0.  0.
         24    2    4    4    0    0  0.24203048666E+03  0.11198871378E+03 -0.20701771402E+03  0.34755608741E+03  0.82575247432E+02 0.  0.
         13    1    3    3    0    0  0.15673046129E+03 -0.10096223310E+03 -0.31952289051E+03  0.36993605876E+03  0.00000000000E+00 0. -1.
        -13    1    3    3    0    0  0.16223570618E+02  0.19574764250E+02 -0.50815378818E+02  0.56820580457E+02  0.00000000000E+00 0.  1.
          2    1    6    6  502    0  0.15622431687E+03  0.96415705449E+02 -0.17784261396E+03  0.25559738023E+03  0.00000000000E+00 0. -1.
          3    1    5    5  503    0 -0.27954213909E+03 -0.37828012426E+02  0.32525230838E+03  0.43053899958E+03  0.00000000000E+00 0. -1.
         -4    1    5    5    0  503 -0.13544237948E+03  0.72267674942E+01  0.89598618240E+02  0.16255699529E+03  0.00000000000E+00 0.  1.
         -1    1    6    6    0  502  0.85806169787E+02  0.15573008334E+02 -0.29175100054E+02  0.91958707175E+02  0.00000000000E+00 0.  1.
<mgrwt>
<rscale>  0 0.13577182E+04</rscale>
<asrwt>0</asrwt>
<pdfrwt beam="1">  1        1 0.11768567E+00 0.13577182E+04</pdfrwt>
<pdfrwt beam="2">  1       -1 0.92684898E-01 0.13577182E+04</pdfrwt>
<totfact> 0.26297187E+01</totfact>
</mgrwt>
</event>
<event>
12    1  0.1663913E-007  0.2433429E+04  0.7818608E-02  0.8427093E-01
          2   -1    0    0  501    0  0.00000000000E+00  0.00000000000E+00  0.82165511234E+03  0.82165511234E+03  0.00000000000E+00 0. -1.
         -2   -1    0    0    0  501 -0.00000000000E+00 -0.00000000000E+00 -0.18017215226E+04  0.18017215226E+04  0.00000000000E+00 0.  1.
         23    2    1    2    0    0 -0.70458001976E+03  0.54854507461E+03 -0.99596703021E+03  0.13406840471E+04  0.90270071570E+02 0.  0.
        254    2    1    2    0    0  0.70458001976E+03 -0.54854507461E+03  0.15900619905E+02  0.12826925879E+04  0.92071317039E+03 0.  0.
        -24    2    4    4    0    0  0.55562890512E+03 -0.74234909767E+03 -0.19391737484E+03  0.95033489288E+03  0.75675606077E+02 0.  0.
         24    2    4    4    0    0  0.14895111464E+03  0.19380402306E+03  0.20981799474E+03  0.33235769498E+03  0.81802277416E+02 0.  0.
         11    1    3    3    0    0 -0.53089642944E+03  0.42503510385E+03 -0.69994941937E+03  0.97592778830E+03  0.00000000000E+00 0. -1.
        -11    1    3    3    0    0 -0.17368359032E+03  0.12350997075E+03 -0.29601761084E+03  0.36475625882E+03  0.00000000000E+00 0.  1.
          4    1    6    6  502    0  0.63685536587E+02  0.35520635946E+02  0.32489249258E+02  0.79831788566E+02  0.00000000000E+00 0. -1.
          1    1    5    5  503    0  0.35131765372E+03 -0.49223033182E+03 -0.16031714116E+03  0.62563278297E+03  0.00000000000E+00 0. -1.
         -2    1    5    5    0  503  0.20431125139E+03 -0.25011876585E+03 -0.33600233671E+02  0.32470210991E+03  0.00000000000E+00 0.  1.
         -3    1    6    6    0  502  0.85265578055E+02  0.15828338711E+03  0.17732874548E+03  0.25252590642E+03  0.00000000000E+00 0.  1.
<mgrwt>
<rscale>  0 0.24334286E+04</rscale>
<asrwt>0</asrwt>
<pdfrwt beam="1">  1        2 0.12640848E+00 0.24334286E+04</pdfrwt>
<pdfrwt beam="2">  1       -2 0.27718792E+00 0.24334286E+04</pdfrwt>
<totfact> 0.13057218E+00</totfact>
</mgrwt>
</event>
<event>
12    1  0.1663913E-007  0.1261345E+04  0.7818608E-02  0.9060793E-01
          1   -1    0    0  501    0  0.00000000000E+00  0.00000000000E+00  0.90769909479E+03  0.90769909479E+03  0.00000000000E+00 0. -1.
         -1   -1    0    0    0  501 -0.00000000000E+00 -0.00000000000E+00 -0.43819344565E+03  0.43819344565E+03  0.00000000000E+00 0.  1.
         23    2    1    2    0    0  0.18721974449E+03  0.15442567334E+03  0.28929785466E+03  0.38474432666E+03  0.73732129183E+02 0.  0.
        254    2    1    2    0    0 -0.18721974449E+03 -0.15442567334E+03  0.18020779449E+03  0.96114821378E+03  0.91237739907E+03 0.  0.
        -24    2    4    4    0    0  0.35876322606E+03 -0.28494770519E+01  0.11551332483E+03  0.38525275954E+03  0.79731979941E+02 0.  0.
         24    2    4    4    0    0 -0.54598297055E+03 -0.15157619628E+03  0.64694469658E+02  0.57589545424E+03  0.79984075864E+02 0.  0.
         13    1    3    3    0    0  0.40482443736E+00  0.26029606199E+02  0.20586434814E+02  0.33188937616E+02  0.00000000000E+00 0.  1.
        -13    1    3    3    0    0  0.18681492005E+03  0.12839606714E+03  0.26871141984E+03  0.35155538904E+03  0.00000000000E+00 0. -1.
          2    1    6    6  502    0 -0.43945446141E+03 -0.91148085210E+02  0.64519044716E+02  0.45342133190E+03  0.00000000000E+00 0. -1.
          3    1    5    5  503    0  0.25344158468E+03  0.34472068857E+02  0.78877425504E+02  0.26766136933E+03  0.00000000000E+00 0. -1.
         -4    1    5    5    0  503  0.10532164139E+03 -0.37321545909E+02  0.36635899325E+02  0.11759139022E+03  0.00000000000E+00 0.  1.
         -1    1    6    6    0  502 -0.10652850914E+03 -0.60428111075E+02  0.17542494231E+00  0.12247412234E+03  0.00000000000E+00 0.  1.
<mgrwt>
<rscale>  0 0.12613450E+04</rscale>
<asrwt>0</asrwt>
<pdfrwt beam="1">  1        1 0.13964601E+00 0.12613450E+04</pdfrwt>
<pdfrwt beam="2">  1       -1 0.67414376E-01 0.12613450E+04</pdfrwt>
<totfact> 0.39388156E+01</totfact>
</mgrwt>
</event>
<event>
12    1  0.1663913E-007  0.2228392E+04  0.7818608E-02  0.8506703E-01
          2   -1    0    0  501    0  0.00000000000E+00  0.00000000000E+00  0.12815153946E+04  0.12815153946E+04  0.00000000000E+00 0. -1.
         -2   -1    0    0    0  501 -0.00000000000E+00 -0.00000000000E+00 -0.96872204511E+03  0.96872204511E+03  0.00000000000E+00 0.  1.
         23    2    1    2    0    0 -0.60542625308E+03  0.48005871844E+03  0.65568853874E+03  0.10177376164E+04  0.94154526796E+02 0.  0.
        254    2    1    2    0    0  0.60542625308E+03 -0.48005871844E+03 -0.34289518928E+03  0.12324998233E+04  0.89692886143E+03 0.  0.
        -24    2    4    4    0    0  0.30852598790E+03  0.20699484892E+03 -0.28918058858E+03  0.47783025102E+03  0.81616072488E+02 0.  0.
         24    2    4    4    0    0  0.29690026518E+03 -0.68705356736E+03 -0.53714600698E+02  0.75466957226E+03  0.80302758813E+02 0.  0.
         11    1    3    3    0    0 -0.22762672230E+03  0.15988096053E+03  0.29221377897E+03  0.40344112193E+03  0.00000000000E+00 0.  1.
        -11    1    3    3    0    0 -0.37779953078E+03  0.32017775791E+03  0.36347475977E+03  0.61429649447E+03  0.00000000000E+00 0. -1.
          2    1    6    6  502    0  0.24823373736E+03 -0.48805763767E+03 -0.29032434818E+02  0.54832757392E+03  0.00000000000E+00 0. -1.
          1    1    5    5  503    0  0.19767099351E+03  0.17508840326E+03 -0.21666956024E+03  0.34157791054E+03  0.00000000000E+00 0. -1.
         -2    1    5    5    0  503  0.11085499439E+03  0.31906445655E+02 -0.72511028338E+02  0.13625234048E+03  0.00000000000E+00 0.  1.
         -1    1    6    6    0  502  0.48666527819E+02 -0.19899592969E+03 -0.24682165881E+02  0.20634199833E+03  0.00000000000E+00 0.  1.
<mgrwt>
<rscale>  0 0.22283915E+04</rscale>
<asrwt>0</asrwt>
<pdfrwt beam="1">  1        2 0.19715622E+00 0.22283915E+04</pdfrwt>
<pdfrwt beam="2">  1       -2 0.14903416E+00 0.22283915E+04</pdfrwt>
<totfact> 0.47113254E+00</totfact>
</mgrwt>
</event>
<event>
12    1  0.1663913E-007  0.1262894E+04  0.7818608E-02  0.9059519E-01
         -2   -1    0    0    0  501 -0.00000000000E+00  0.00000000000E+00  0.19483407206E+03  0.19483407206E+03  0.00000000000E+00 0.  1.
          2   -1    0    0  501    0  0.00000000000E+00 -0.00000000000E+00 -0.20464880689E+04  0.20464880689E+04  0.00000000000E+00 0. -1.
         23    2    1    2    0    0  0.14000788522E+03  0.12194284172E+03 -0.89823053098E+03  0.92145593786E+03  0.88264908412E+02 0.  0.
        254    2    1    2    0    0 -0.14000788522E+03 -0.12194284172E+03 -0.95342346590E+03  0.13198662031E+04  0.89362085041E+03 0.  0.
        -24    2    4    4    0    0  0.12812299183E+03 -0.13229878271E+03  0.10410322097E+03  0.22592185226E+03  0.79276312783E+02 0.  0.
         24    2    4    4    0    0 -0.26813087705E+03  0.10355940989E+02 -0.10575266869E+04  0.10939443509E+04  0.79687744631E+02 0.  0.
         11    1    3    3    0    0  0.11568517406E+03  0.13001834823E+03 -0.68805058219E+03  0.70971926424E+03  0.00000000000E+00 0. -1.
        -11    1    3    3    0    0  0.24322711162E+02 -0.80755065088E+01 -0.21017994879E+03  0.21173667362E+03  0.00000000000E+00 0.  1.
          4    1    6    6  502    0 -0.34215742616E+01 -0.11041074517E+02 -0.21378704277E+02  0.24303528416E+02  0.00000000000E+00 0. -1.
          1    1    5    5  503    0  0.35794912438E+02 -0.62116722988E+02  0.80085288836E+02  0.10748682021E+03  0.00000000000E+00 0. -1.
         -2    1    5    5    0  503  0.92328079397E+02 -0.70182059719E+02  0.24017932131E+02  0.11843503204E+03  0.00000000000E+00 0.  1.
         -3    1    6    6    0  502 -0.26470930279E+03  0.21397015506E+02 -0.10361479826E+04  0.10696408225E+04  0.00000000000E+00 0.  1.
<mgrwt>
<rscale>  0 0.12628945E+04</rscale>
<asrwt>0</asrwt>
<pdfrwt beam="1">  1        2 0.31484430E+00 0.12628945E+04</pdfrwt>
<pdfrwt beam="2">  1       -2 0.29974475E-01 0.12628945E+04</pdfrwt>
<totfact> 0.63609177E+01</totfact>
</mgrwt>
</event>
<event>
12    1  0.1663913E-007  0.2432138E+04  0.7818608E-02  0.8427569E-01
          1   -1    0    0  501    0  0.00000000000E+00  0.00000000000E+00  0.31516634386E+04  0.31516634386E+04  0.00000000000E+00 0. -1.
         -1   -1    0    0    0  501 -0.00000000000E+00 -0.00000000000E+00 -0.46921997187E+03  0.46921997187E+03  0.00000000000E+00 0.  1.
         23    2    1    2    0    0  0.18478676090E+03 -0.13662995576E+03 -0.35999980783E+03  0.43664324392E+03  0.90794102317E+02 0.  0.
        254    2    1    2    0    0 -0.18478676090E+03  0.13662995576E+03  0.30424432746E+04  0.31842401666E+04  0.91110398285E+03 0.  0.
        -24    2    4    4    0    0 -0.38370584886E+02 -0.38341151708E+03  0.13196760216E+04  0.13769680433E+04  0.77585417304E+02 0.  0.
         24    2    4    4    0    0 -0.14641617601E+03  0.52004147284E+03  0.17227672530E+04  0.18072721233E+04  0.80154161866E+02 0.  0.
         13    1    3    3    0    0  0.17279243081E+03 -0.10515114476E+03 -0.34465569146E+03  0.39962674216E+03  0.00000000000E+00 0.  1.
        -13    1    3    3    0    0  0.11994330093E+02 -0.31478810998E+02 -0.15344116364E+02  0.37016501769E+02  0.00000000000E+00 0. -1.
          2    1    6    6  502    0 -0.14755642231E+03  0.47371224124E+03  0.15067298794E+04  0.15863199913E+04  0.00000000000E+00 0. -1.
          3    1    5    5  503    0 -0.26608088408E+02 -0.30141062294E+03  0.11335379191E+04  0.11732282677E+04  0.00000000000E+00 0. -1.
         -4    1    5    5    0  503 -0.11762496478E+02 -0.82000894143E+02  0.18613810249E+03  0.20373977560E+03  0.00000000000E+00 0.  1.
         -1    1    6    6    0  502  0.11402462926E+01  0.46329231597E+02  0.21603737357E+03  0.22095213202E+03  0.00000000000E+00 0.  1.
<mgrwt>
<rscale>  0 0.24321377E+04</rscale>
<asrwt>0</asrwt>
<pdfrwt beam="1">  1        1 0.48487129E+00 0.24321377E+04</pdfrwt>
<pdfrwt beam="2">  1       -1 0.72187690E-01 0.24321377E+04</pdfrwt>
<totfact> 0.79967199E-01</totfact>
</mgrwt>
</event>
<event>
12    1  0.1663913E-007  0.1871631E+04  0.7818608E-02  0.8669108E-01
          2   -1    0    0  501    0  0.00000000000E+00  0.00000000000E+00  0.10666017219E+04  0.10666017219E+04  0.00000000000E+00 0. -1.
         -2   -1    0    0    0  501 -0.00000000000E+00 -0.00000000000E+00 -0.82106658163E+03  0.82106658163E+03  0.00000000000E+00 0.  1.
         23    2    1    2    0    0  0.28714718676E+03 -0.92382517186E+01  0.75562152763E+03  0.81311494864E+03  0.87482424094E+02 0.  0.
        254    2    1    2    0    0 -0.28714718676E+03  0.92382517186E+01 -0.51008638739E+03  0.10745533549E+04  0.90107598885E+03 0.  0.
        -24    2    4    4    0    0  0.27709430803E+03  0.89644885717E+02  0.59185578715E+01  0.30177583551E+03  0.78842656528E+02 0.  0.
         24    2    4    4    0    0 -0.56424149479E+03 -0.80406633998E+02 -0.51600494526E+03  0.77277751935E+03  0.78040371875E+02 0.  0.
         13    1    3    3    0    0  0.19266127309E+03 -0.33378783986E+02  0.58215766343E+03  0.61411729699E+03  0.00000000000E+00 0. -1.
        -13    1    3    3    0    0  0.94485913668E+02  0.24140532267E+02  0.17346386420E+03  0.19899765165E+03  0.00000000000E+00 0.  1.
          2    1    6    6  502    0 -0.21111689989E+03 -0.37106042196E+02 -0.24508694122E+03  0.32559915931E+03  0.00000000000E+00 0. -1.
          1    1    5    5  503    0  0.20809628125E+01 -0.58395734974E+01  0.86537390791E+01  0.10645103330E+02  0.00000000000E+00 0. -1.
         -2    1    5    5    0  503  0.27501334522E+03  0.95484459214E+02 -0.27351812076E+01  0.29113073218E+03  0.00000000000E+00 0.  1.
         -1    1    6    6    0  502 -0.35312459490E+03 -0.43300591802E+02 -0.27091800404E+03  0.44717836004E+03  0.00000000000E+00 0.  1.
<mgrwt>
<rscale>  0 0.18716314E+04</rscale>
<asrwt>0</asrwt>
<pdfrwt beam="1">  1        2 0.16409257E+00 0.18716314E+04</pdfrwt>
<pdfrwt beam="2">  1       -2 0.12631794E+00 0.18716314E+04</pdfrwt>
<totfact> 0.10018877E+01</totfact>
</mgrwt>
</event>
<event>
12    1  0.1663913E-007  0.1722762E+04  0.7818608E-02  0.8748488E-01
          2   -1    0    0  501    0  0.00000000000E+00  0.00000000000E+00  0.31215420417E+04  0.31215420417E+04  0.00000000000E+00 0. -1.
         -2   -1    0    0    0  501 -0.00000000000E+00 -0.00000000000E+00 -0.23769568425E+03  0.23769568425E+03  0.00000000000E+00 0.  1.
         23    2    1    2    0    0 -0.15486043573E+03 -0.52433465035E+03  0.12721785986E+04  0.13880275181E+04  0.96298620235E+02 0.  0.
        254    2    1    2    0    0  0.15486043573E+03  0.52433465035E+03  0.16116677589E+04  0.19712102079E+04  0.99462964885E+03 0.  0.
        -24    2    4    4    0    0  0.61084645164E+02  0.15298737601E+03  0.15673275973E+04  0.15780544027E+04  0.81261489719E+02 0.  0.
         24    2    4    4    0    0  0.93775790563E+02  0.37134727434E+03  0.44340161645E+02  0.39315580514E+03  0.76894343904E+02 0.  0.
         13    1    3    3    0    0 -0.12805308130E+03 -0.38670294193E+03  0.10381293529E+04  0.11151902574E+04  0.00000000000E+00 0. -1.
        -13    1    3    3    0    0 -0.26807354422E+02 -0.13763170842E+03  0.23404924568E+03  0.27283726069E+03  0.00000000000E+00 0.  1.
          2    1    6    6  502    0 -0.10348247096E+02  0.72871232664E+02 -0.21791847592E+01  0.73634581646E+02  0.00000000000E+00 0. -1.
          1    1    5    5  503    0  0.72369638907E+02  0.15423112346E+03  0.13971964607E+04  0.14075448674E+04  0.00000000000E+00 0. -1.
         -2    1    5    5    0  503 -0.11284993744E+02 -0.12437474510E+01  0.17013113661E+03  0.17050953532E+03  0.00000000000E+00 0.  1.
         -1    1    6    6    0  502  0.10412403766E+03  0.29847604168E+03  0.46519346404E+02  0.31952122349E+03  0.00000000000E+00 0.  1.
<mgrwt>
<rscale>  0 0.17227618E+04</rscale>
<asrwt>0</asrwt>
<pdfrwt beam="1">  1        2 0.48023721E+00 0.17227618E+04</pdfrwt>
<pdfrwt beam="2">  1       -2 0.36568569E-01 0.17227618E+04</pdfrwt>
<totfact> 0.98050793E+00</totfact>
</mgrwt>
</event>
<event>
12    1  0.1663913E-007  0.1610426E+04  0.7818608E-02  0.8814168E-01
         -1   -1    0    0    0  501 -0.00000000000E+00  0.00000000000E+00  0.61304501573E+03  0.61304501573E+03  0.00000000000E+00 0.  1.
          1   -1    0    0  501    0  0.00000000000E+00 -0.00000000000E+00 -0.10576190603E+04  0.10576190603E+04  0.00000000000E+00 0. -1.
         23    2    1    2    0    0 -0.48829790394E+03 -0.24397699410E+03 -0.20261806362E+03  0.59381164014E+03  0.11661289645E+03 0.  0.
        254    2    1    2    0    0  0.48829790394E+03  0.24397699410E+03 -0.24195598096E+03  0.10768524359E+04  0.89616340884E+03 0.  0.
        -24    2    4    4    0    0  0.25156820454E+03 -0.33014722869E+03 -0.79648723992E+02  0.43000087352E+03  0.79202764169E+02 0.  0.
         24    2    4    4    0    0  0.23672969940E+03  0.57412422279E+03 -0.16230725697E+03  0.64685156238E+03  0.80085731027E+02 0.  0.
         11    1    3    3    0    0 -0.14953609022E+03 -0.76782747750E+02 -0.66389021897E+01  0.16822814168E+03  0.00000000000E+00 0. -1.
        -11    1    3    3    0    0 -0.33876181371E+03 -0.16719424635E+03 -0.19597916143E+03  0.42558349846E+03  0.00000000000E+00 0.  1.
          2    1    6    6  502    0  0.54639897637E+02  0.18518848771E+03 -0.18511324260E+02  0.19396639791E+03  0.00000000000E+00 0. -1.
          3    1    5    5  503    0  0.84652068868E+02 -0.67554624843E+02 -0.43666225879E+02  0.11677473778E+03  0.00000000000E+00 0. -1.
         -4    1    5    5    0  503  0.16691613567E+03 -0.26259260385E+03 -0.35982498113E+02  0.31322613574E+03  0.00000000000E+00 0.  1.
         -1    1    6    6    0  502  0.18208980176E+03  0.38893573509E+03 -0.14379593271E+03  0.45288516447E+03  0.00000000000E+00 0.  1.
<mgrwt>
<rscale>  0 0.16104261E+04</rscale>
<asrwt>0</asrwt>
<pdfrwt beam="1">  1        1 0.16271062E+00 0.16104261E+04</pdfrwt>
<pdfrwt beam="2">  1       -1 0.94314618E-01 0.16104261E+04</pdfrwt>
<totfact> 0.14249594E+01</totfact>
</mgrwt>
</event>
<event>
12    1  0.1663913E-007  0.1622634E+04  0.7818608E-02  0.8806762E-01
         -2   -1    0    0    0  501 -0.00000000000E+00  0.00000000000E+00  0.60212786665E+03  0.60212786665E+03  0.00000000000E+00 0.  1.
          2   -1    0    0  501    0  0.00000000000E+00 -0.00000000000E+00 -0.10931821858E+04  0.10931821858E+04  0.00000000000E+00 0. -1.
         23    2    1    2    0    0  0.13389607201E+03  0.52491285365E+03 -0.41853069245E+02  0.55107194590E+03  0.92016021026E+02 0.  0.
        254    2    1    2    0    0 -0.13389607201E+03 -0.52491285365E+03 -0.44920124992E+03  0.11442381066E+04  0.90224022276E+03 0.  0.
        -24    2    4    4    0    0 -0.19454833431E+03 -0.63112317960E+01 -0.56559459312E+03  0.60346483470E+03  0.79897915650E+02 0.  0.
         24    2    4    4    0    0  0.60652262296E+02 -0.51860162185E+03  0.11639334320E+03  0.54077327187E+03  0.79132686775E+02 0.  0.
         11    1    3    3    0    0  0.49305060865E+02  0.16450378202E+03 -0.55899587485E+02  0.18060245626E+03  0.00000000000E+00 0. -1.
        -11    1    3    3    0    0  0.84591011149E+02  0.36040907163E+03  0.14046518240E+02  0.37046948964E+03  0.00000000000E+00 0.  1.
          2    1    6    6  502    0  0.18348374882E+02 -0.17674273035E+03  0.78394600002E+02  0.19421732390E+03  0.00000000000E+00 0. -1.
          3    1    5    5  503    0 -0.18752394683E+02 -0.26047642955E+02 -0.64143861478E+02  0.71725636805E+02  0.00000000000E+00 0. -1.
         -4    1    5    5    0  503 -0.17579593963E+03  0.19736411159E+02 -0.50145073164E+03  0.53173919789E+03  0.00000000000E+00 0.  1.
         -1    1    6    6    0  502  0.42303887414E+02 -0.34185889150E+03  0.37998743198E+02  0.34655594797E+03  0.00000000000E+00 0.  1.
<mgrwt>
<rscale>  0 0.16226342E+04</rscale>
<asrwt>0</asrwt>
<pdfrwt beam="1">  1        2 0.16818187E+00 0.16226342E+04</pdfrwt>
<pdfrwt beam="2">  1       -2 0.92635057E-01 0.16226342E+04</pdfrwt>
<totfact> 0.20819599E+01</totfact>
</mgrwt>
</event>
<event>
12    1  0.1663913E-007  0.1361140E+04  0.7818608E-02  0.8982438E-01
         -2   -1    0    0    0  501 -0.00000000000E+00  0.00000000000E+00  0.58871723959E+03  0.58871723959E+03  0.00000000000E+00 0.  1.
          2   -1    0    0  501    0  0.00000000000E+00 -0.00000000000E+00 -0.78675365793E+03  0.78675365793E+03  0.00000000000E+00 0. -1.
         23    2    1    2    0    0  0.29481033706E+03 -0.20507833530E+03  0.40322123580E+02  0.37307181786E+03  0.92663095071E+02 0.  0.
        254    2    1    2    0    0 -0.29481033706E+03  0.20507833530E+03 -0.23835854193E+03  0.10023990797E+04  0.90499660880E+03 0.  0.
        -24    2    4    4    0    0 -0.56633011283E+03 -0.45585955924E+02 -0.39143266673E+02  0.57516269709E+03  0.80449094018E+02 0.  0.
         24    2    4    4    0    0  0.27151977577E+03  0.25066429123E+03 -0.19921527525E+03  0.42723638257E+03  0.79300852226E+02 0.  0.
         13    1    3    3    0    0  0.12961482594E+03 -0.10546656448E+03  0.63540481898E+02  0.17877525602E+03  0.00000000000E+00 0.  1.
        -13    1    3    3    0    0  0.16519551112E+03 -0.99611770825E+02 -0.23218358318E+02  0.19429656184E+03  0.00000000000E+00 0. -1.
          4    1    6    6  502    0  0.16902274267E+03  0.20491575184E+03 -0.13615428125E+03  0.29849144242E+03  0.00000000000E+00 0. -1.
          3    1    5    5  503    0 -0.37362296737E+03 -0.61295934677E+02 -0.47797082998E+02  0.38162268603E+03  0.00000000000E+00 0. -1.
         -4    1    5    5    0  503 -0.19270714546E+03  0.15709978753E+02  0.86538163251E+01  0.19354001106E+03  0.00000000000E+00 0.  1.
         -3    1    6    6    0  502  0.10249703310E+03  0.45748539386E+02 -0.63060994000E+02  0.12874494015E+03  0.00000000000E+00 0.  1.
<mgrwt>
<rscale>  0 0.13611399E+04</rscale>
<asrwt>0</asrwt>
<pdfrwt beam="1">  1        2 0.12103902E+00 0.13611399E+04</pdfrwt>
<pdfrwt beam="2">  1       -2 0.90571883E-01 0.13611399E+04</pdfrwt>
<totfact> 0.35810913E+01</totfact>
</mgrwt>
</event>
<event>
12    1  0.1663913E-007  0.1645213E+04  0.7818608E-02  0.8793243E-01
         -2   -1    0    0    0  501 -0.00000000000E+00  0.00000000000E+00  0.36659007227E+03  0.36659007227E+03  0.00000000000E+00 0. -1.
          2   -1    0    0  501    0  0.00000000000E+00 -0.00000000000E+00 -0.18458810324E+04  0.18458810324E+04  0.00000000000E+00 0.  1.
         23    2    1    2    0    0  0.31126393305E+03 -0.13760667403E+03  0.10176987605E+03  0.36726990468E+03  0.93323322155E+02 0.  0.
        254    2    1    2    0    0 -0.31126393305E+03  0.13760667403E+03 -0.15810608361E+04  0.18452011999E+04  0.88836550357E+03 0.  0.
        -24    2    4    4    0    0 -0.57532492794E+03  0.20987187743E+03 -0.13256204225E+04  0.14624816636E+04  0.80858730015E+02 0.  0.
         24    2    4    4    0    0  0.26406099489E+03 -0.72265203397E+02 -0.25544041368E+03  0.38271953636E+03  0.79208395558E+02 0.  0.
         13    1    3    3    0    0  0.27233748833E+03 -0.13384624988E+03  0.11710489756E+03  0.32526309841E+03  0.00000000000E+00 0. -1.
        -13    1    3    3    0    0  0.38926444721E+02 -0.37604241543E+01 -0.15335021508E+02  0.42006806271E+02  0.00000000000E+00 0.  1.
          2    1    6    6  502    0  0.20584976766E+03 -0.34136044963E+02 -0.15242962634E+03  0.25840701887E+03  0.00000000000E+00 0. -1.
          1    1    5    5  503    0 -0.56804097830E+03  0.20007779148E+03 -0.13148108678E+04  0.14461774766E+04  0.00000000000E+00 0. -1.
         -2    1    5    5    0  503 -0.72839496400E+01  0.97940859471E+01 -0.10809554660E+02  0.16304187004E+02  0.00000000000E+00 0.  1.
         -1    1    6    6    0  502  0.58211227232E+02 -0.38129158434E+02 -0.10301078734E+03  0.12431251750E+03  0.00000000000E+00 0.  1.
<mgrwt>
<rscale>  0 0.16452133E+04</rscale>
<asrwt>0</asrwt>
<pdfrwt beam="1">  1        2 0.28398170E+00 0.16452133E+04</pdfrwt>
<pdfrwt beam="2">  1       -2 0.56398473E-01 0.16452133E+04</pdfrwt>
<totfact> 0.22940669E+01</totfact>
</mgrwt>
</event>
<event>
12    1  0.1663913E-007  0.1657878E+04  0.7818608E-02  0.8785760E-01
          2   -1    0    0  501    0  0.00000000000E+00  0.00000000000E+00  0.68586465827E+03  0.68586465827E+03  0.00000000000E+00 0. -1.
         -2   -1    0    0    0  501 -0.00000000000E+00 -0.00000000000E+00 -0.10018592227E+04  0.10018592227E+04  0.00000000000E+00 0.  1.
         23    2    1    2    0    0  0.18578415084E+03  0.50745459209E+03 -0.33079934466E+03  0.64017614397E+03  0.91495219204E+02 0.  0.
        254    2    1    2    0    0 -0.18578415084E+03 -0.50745459209E+03  0.14804780227E+02  0.10475477370E+04  0.89727987052E+03 0.  0.
        -24    2    4    4    0    0  0.34436732909E+03 -0.32370323811E+03  0.14941715035E+02  0.48092863167E+03  0.87729414710E+02 0.  0.
         24    2    4    4    0    0 -0.53015147994E+03 -0.18375135398E+03 -0.13693480853E+00  0.56661910533E+03  0.78943270821E+02 0.  0.
         11    1    3    3    0    0  0.38661696784E+02  0.70957755533E+02 -0.88021431004E+02  0.11948850231E+03  0.00000000000E+00 0. -1.
        -11    1    3    3    0    0  0.14712245406E+03  0.43649683656E+03 -0.24277791366E+03  0.52068764165E+03  0.00000000000E+00 0.  1.
          2    1    6    6  502    0 -0.47318397748E+03 -0.18432470064E+03  0.13662367232E+02  0.50800131111E+03  0.00000000000E+00 0. -1.
          3    1    5    5  503    0  0.31296267303E+03 -0.30622685481E+03 -0.86376035323E+01  0.43794420822E+03  0.00000000000E+00 0. -1.
         -4    1    5    5    0  503  0.31404656059E+02 -0.17476383300E+02  0.23579318567E+02  0.42984423452E+02  0.00000000000E+00 0.  1.
         -1    1    6    6    0  502 -0.56967502460E+02  0.57334666665E+00 -0.13799302041E+02  0.58617794224E+02  0.00000000000E+00 0.  1.
<mgrwt>
<rscale>  0 0.16578780E+04</rscale>
<asrwt>0</asrwt>
<pdfrwt beam="1">  1        2 0.10551764E+00 0.16578780E+04</pdfrwt>
<pdfrwt beam="2">  1       -2 0.15413219E+00 0.16578780E+04</pdfrwt>
<totfact> 0.11178855E+01</totfact>
</mgrwt>
</event>
<event>
12    1  0.1663913E-007  0.2815366E+04  0.7818608E-02  0.8298514E-01
          1   -1    0    0  501    0  0.00000000000E+00  0.00000000000E+00  0.22648231251E+04  0.22648231251E+04  0.00000000000E+00 0. -1.
         -1   -1    0    0    0  501 -0.00000000000E+00 -0.00000000000E+00 -0.87493423609E+03  0.87493423609E+03  0.00000000000E+00 0.  1.
         23    2    1    2    0    0  0.82549892117E+03 -0.63977099440E+03 -0.16567892164E+03  0.10612130362E+04  0.89264825165E+02 0.  0.
        254    2    1    2    0    0 -0.82549892117E+03  0.63977099440E+03  0.15555678106E+04  0.20785443250E+04  0.89988882826E+03 0.  0.
        -24    2    4    4    0    0 -0.91614928104E+03  0.24778070486E+03  0.12276378874E+04  0.15540141869E+04  0.84501643906E+02 0.  0.
         24    2    4    4    0    0  0.90650359866E+02  0.39199028954E+03  0.32792992325E+03  0.52453013803E+03  0.75630392645E+02 0.  0.
         13    1    3    3    0    0  0.78113525721E+03 -0.61378559772E+03 -0.13844405695E+03  0.10030313090E+04  0.00000000000E+00 0. -1.
        -13    1    3    3    0    0  0.44363663963E+02 -0.25985396680E+02 -0.27234864690E+02  0.58181727162E+02  0.00000000000E+00 0.  1.
          4    1    6    6  502    0  0.70989529804E+02  0.15805263028E+03  0.11832360596E+03  0.20981092203E+03  0.00000000000E+00 0. -1.
          1    1    5    5  503    0 -0.64031033493E+03  0.21212121699E+03  0.88183714159E+03  0.11102384789E+04  0.00000000000E+00 0. -1.
         -2    1    5    5    0  503 -0.27583894610E+03  0.35659487861E+02  0.34580074581E+03  0.44377570806E+03  0.00000000000E+00 0.  1.
         -3    1    6    6    0  502  0.19660830062E+02  0.23393765927E+03  0.20960631730E+03  0.31471921599E+03  0.00000000000E+00 0.  1.
<mgrwt>
<rscale>  0 0.28153659E+04</rscale>
<asrwt>0</asrwt>
<pdfrwt beam="1">  1        1 0.34843433E+00 0.28153659E+04</pdfrwt>
<pdfrwt beam="2">  1       -1 0.13460527E+00 0.28153659E+04</pdfrwt>
<totfact> 0.78921153E-01</totfact>
</mgrwt>
</event>
<event>
12    1  0.1663913E-007  0.1991848E+04  0.7818608E-02  0.8610442E-01
         -1   -1    0    0    0  501 -0.00000000000E+00  0.00000000000E+00  0.13757931216E+04  0.13757931216E+04  0.00000000000E+00 0.  1.
          1   -1    0    0  501    0  0.00000000000E+00 -0.00000000000E+00 -0.72093988631E+03  0.72093988631E+03  0.00000000000E+00 0. -1.
         23    2    1    2    0    0  0.20767954306E+03  0.56082706276E+03  0.78632600855E+03  0.99180297138E+03  0.87788127762E+02 0.  0.
        254    2    1    2    0    0 -0.20767954306E+03 -0.56082706276E+03 -0.13147277322E+03  0.11049300366E+04  0.91974317540E+03 0.  0.
        -24    2    4    4    0    0  0.32855332338E+03 -0.10996505283E+03  0.88022526591E+02  0.36637448989E+03  0.80266446936E+02 0.  0.
         24    2    4    4    0    0 -0.53623286644E+03 -0.45086200993E+03 -0.21949529981E+03  0.73855554669E+03  0.80398195593E+02 0.  0.
         13    1    3    3    0    0  0.58331776500E+02  0.11695586844E+03  0.12049124906E+03  0.17776223562E+03  0.00000000000E+00 0. -1.
        -13    1    3    3    0    0  0.14934776656E+03  0.44387119432E+03  0.66583475950E+03  0.81404073576E+03  0.00000000000E+00 0.  1.
          2    1    6    6  502    0 -0.58717791518E+02 -0.29554917828E+02 -0.39949113361E+02  0.76923363596E+02  0.00000000000E+00 0. -1.
          3    1    5    5  503    0  0.31794896096E+03 -0.86967672279E+02  0.87501417464E+02  0.34104459511E+03  0.00000000000E+00 0. -1.
         -4    1    5    5    0  503  0.10604362423E+02 -0.22997380553E+02  0.52110912722E+00  0.25329894777E+02  0.00000000000E+00 0.  1.
         -1    1    6    6    0  502 -0.47751507492E+03 -0.42130709210E+03 -0.17954618645E+03  0.66163218309E+03  0.00000000000E+00 0.  1.
<mgrwt>
<rscale>  0 0.19918475E+04</rscale>
<asrwt>0</asrwt>
<pdfrwt beam="1">  1        1 0.11091383E+00 0.19918475E+04</pdfrwt>
<pdfrwt beam="2">  1       -1 0.21166048E+00 0.19918475E+04</pdfrwt>
<totfact> 0.30277584E+00</totfact>
</mgrwt>
</event>
<event>
12    1  0.1663913E-007  0.1348150E+04  0.7818608E-02  0.8992229E-01
         -1   -1    0    0    0  501 -0.00000000000E+00  0.00000000000E+00  0.62054248003E+03  0.62054248003E+03  0.00000000000E+00 0.  1.
          1   -1    0    0  501    0  0.00000000000E+00 -0.00000000000E+00 -0.73222611153E+03  0.73222611153E+03  0.00000000000E+00 0. -1.
         23    2    1    2    0    0  0.19527329848E+03  0.30301499911E+03 -0.11025322851E+03  0.38707522476E+03  0.87873229396E+02 0.  0.
        254    2    1    2    0    0 -0.19527329848E+03 -0.30301499911E+03 -0.14304029889E+01  0.96569336680E+03  0.89588608753E+03 0.  0.
        -24    2    4    4    0    0 -0.27053179150E+03 -0.51810170297E+03 -0.22941974923E+03  0.63294105660E+03  0.79775528534E+02 0.  0.
         24    2    4    4    0    0  0.75258493019E+02  0.21508670387E+03  0.22798934624E+03  0.33275231020E+03  0.82576188999E+02 0.  0.
         11    1    3    3    0    0  0.12024209328E+03  0.12419098070E+03 -0.81198633887E+02  0.19098371352E+03  0.00000000000E+00 0.  1.
        -11    1    3    3    0    0  0.75031205201E+02  0.17882401841E+03 -0.29054594621E+02  0.19609151125E+03  0.00000000000E+00 0. -1.
          4    1    6    6  502    0  0.44146418110E+02  0.14090496710E+03  0.89702243710E+02  0.17277039246E+03  0.00000000000E+00 0. -1.
          1    1    5    5  503    0 -0.17805420407E+03 -0.40130674762E+03 -0.19298562753E+03  0.47957674850E+03  0.00000000000E+00 0. -1.
         -2    1    5    5    0  503 -0.92477587433E+02 -0.11679495535E+03 -0.36434121705E+02  0.15336430810E+03  0.00000000000E+00 0.  1.
         -3    1    6    6    0  502  0.31112074909E+02  0.74181736767E+02  0.13828710253E+03  0.15998191773E+03  0.00000000000E+00 0.  1.
<mgrwt>
<rscale>  0 0.13481504E+04</rscale>
<asrwt>0</asrwt>
<pdfrwt beam="1">  1        1 0.11265017E+00 0.13481504E+04</pdfrwt>
<pdfrwt beam="2">  1       -1 0.95468075E-01 0.13481504E+04</pdfrwt>
<totfact> 0.26369569E+01</totfact>
</mgrwt>
</event>
<event>
12    1  0.1663913E-007  0.1450394E+04  0.7818608E-02  0.8918128E-01
         -1   -1    0    0    0  501 -0.00000000000E+00  0.00000000000E+00  0.20471778825E+04  0.20471778825E+04  0.00000000000E+00 0.  1.
          1   -1    0    0  501    0  0.00000000000E+00 -0.00000000000E+00 -0.25689530682E+03  0.25689530682E+03  0.00000000000E+00 0. -1.
         23    2    1    2    0    0  0.33502699208E+03  0.22222713026E+03  0.21558062418E+03  0.46514440989E+03  0.90864369705E+02 0.  0.
        254    2    1    2    0    0 -0.33502699208E+03 -0.22222713026E+03  0.15747019515E+04  0.18389287794E+04  0.86043293575E+03 0.  0.
        -24    2    4    4    0    0  0.24936624605E+03 -0.24370283917E+03  0.61505525854E+03  0.71213193870E+03  0.85231030561E+02 0.  0.
         24    2    4    4    0    0 -0.58439323813E+03  0.21475708905E+02  0.95964669295E+03  0.11267968407E+04  0.82296306939E+02 0.  0.
         11    1    3    3    0    0  0.27103750655E+02  0.48208516189E+02  0.10492049006E+02  0.56291717198E+02  0.00000000000E+00 0. -1.
        -11    1    3    3    0    0  0.30792324143E+03  0.17401861407E+03  0.20508857518E+03  0.40885269269E+03  0.00000000000E+00 0.  1.
          2    1    6    6  502    0 -0.30658941448E+03  0.49430920166E+02  0.53442831734E+03  0.61810525909E+03  0.00000000000E+00 0. -1.
          3    1    5    5  503    0  0.23416195152E+03 -0.18578912223E+03  0.51995342305E+03  0.59975076458E+03  0.00000000000E+00 0. -1.
         -4    1    5    5    0  503  0.15204294531E+02 -0.57913716941E+02  0.95101835486E+02  0.11238117411E+03  0.00000000000E+00 0.  1.
         -1    1    6    6    0  502 -0.27780382365E+03 -0.27955211262E+02  0.42521837561E+03  0.50869158163E+03  0.00000000000E+00 0.  1.
<mgrwt>
<rscale>  0 0.14503936E+04</rscale>
<asrwt>0</asrwt>
<pdfrwt beam="1">  1        1 0.39522356E-01 0.14503936E+04</pdfrwt>
<pdfrwt beam="2">  1       -1 0.31495043E+00 0.14503936E+04</pdfrwt>
<totfact> 0.27629135E+00</totfact>
</mgrwt>
</event>
<event>
12    1  0.1663913E-007  0.1737057E+04  0.7818608E-02  0.8740507E-01
          2   -1    0    0  501    0  0.00000000000E+00  0.00000000000E+00  0.19849318519E+04  0.19849318519E+04  0.00000000000E+00 0.  1.
         -2   -1    0    0    0  501 -0.00000000000E+00 -0.00000000000E+00 -0.38003402472E+03  0.38003402472E+03  0.00000000000E+00 0. -1.
         23    2    1    2    0    0  0.37922093076E+03 -0.49760328781E+03  0.71680025067E+03  0.95635415635E+03  0.96918144011E+02 0.  0.
        254    2    1    2    0    0 -0.37922093076E+03  0.49760328781E+03  0.88809757650E+03  0.14086117203E+04  0.89668953751E+03 0.  0.
        -24    2    4    4    0    0  0.19943544798E+01  0.62135189833E+03  0.75016070526E+03  0.97758684425E+03  0.82781612257E+02 0.  0.
         24    2    4    4    0    0 -0.38121528524E+03 -0.12374861052E+03  0.13793687124E+03  0.43102487600E+03  0.78211578273E+02 0.  0.
         11    1    3    3    0    0  0.10112498045E+03 -0.76727903750E+02  0.11711836373E+03  0.17271405272E+03  0.00000000000E+00 0. -1.
        -11    1    3    3    0    0  0.27809595031E+03 -0.42087538406E+03  0.59968188694E+03  0.78364010363E+03  0.00000000000E+00 0.  1.
          2    1    6    6  502    0 -0.17610753718E+03 -0.98135555288E+02  0.64667748111E+02  0.21172238783E+03  0.00000000000E+00 0. -1.
          3    1    5    5  503    0 -0.39116528369E+02  0.26251901108E+03  0.30422236501E+03  0.40372958938E+03  0.00000000000E+00 0. -1.
         -4    1    5    5    0  503  0.41110882849E+02  0.35883288725E+03  0.44593834026E+03  0.57385725488E+03  0.00000000000E+00 0.  1.
         -1    1    6    6    0  502 -0.20510774806E+03 -0.25613055236E+02  0.73269123125E+02  0.21930248817E+03  0.00000000000E+00 0.  1.
<mgrwt>
<rscale>  0 0.17370569E+04</rscale>
<asrwt>0</asrwt>
<pdfrwt beam="1">  1        2 0.30537413E+00 0.17370569E+04</pdfrwt>
<pdfrwt beam="2">  1       -2 0.58466774E-01 0.17370569E+04</pdfrwt>
<totfact> 0.17678999E+01</totfact>
</mgrwt>
</event>
<event>
12    1  0.1663913E-007  0.1562635E+04  0.7818608E-02  0.8843838E-01
         -2   -1    0    0    0  501 -0.00000000000E+00  0.00000000000E+00  0.20312617528E+03  0.20312617528E+03  0.00000000000E+00 0.  1.
          2   -1    0    0  501    0  0.00000000000E+00 -0.00000000000E+00 -0.30053079639E+04  0.30053079639E+04  0.00000000000E+00 0. -1.
         23    2    1    2    0    0 -0.10120452673E+03  0.33108628684E+03 -0.16863275597E+03  0.39547547542E+03  0.90018663112E+02 0.  0.
        254    2    1    2    0    0  0.10120452673E+03 -0.33108628684E+03 -0.26335490326E+04  0.28129586637E+04  0.92590250627E+03 0.  0.
        -24    2    4    4    0    0  0.28636452304E+02 -0.50212696549E+02 -0.24680854931E+04  0.24700970468E+04  0.81191491512E+02 0.  0.
         24    2    4    4    0    0  0.72568074422E+02 -0.28087359030E+03 -0.16546353956E+03  0.34286161693E+03  0.77587410631E+02 0.  0.
         11    1    3    3    0    0  0.62682216607E+01  0.43451675676E+02 -0.49381189860E+02  0.66074508200E+02  0.00000000000E+00 0. -1.
        -11    1    3    3    0    0 -0.10747274839E+03  0.28763461117E+03 -0.11925156611E+03  0.32940096722E+03  0.00000000000E+00 0.  1.
          4    1    6    6  502    0 -0.72484820199E+01 -0.10914165148E+03 -0.77502429911E+02  0.13405620919E+03  0.00000000000E+00 0. -1.
          3    1    5    5  503    0 -0.39715834900E+01  0.17322341332E+02 -0.20487696120E+03  0.20564631340E+03  0.00000000000E+00 0. -1.
         -4    1    5    5    0  503  0.32608035794E+02 -0.67535037880E+02 -0.22632085319E+04  0.22644507334E+04  0.00000000000E+00 0.  1.
         -3    1    6    6    0  502  0.79816556441E+02 -0.17173193881E+03 -0.87961109644E+02  0.20880540774E+03  0.00000000000E+00 0.  1.
<mgrwt>
<rscale>  0 0.15626346E+04</rscale>
<asrwt>0</asrwt>
<pdfrwt beam="1">  1        2 0.46235504E+00 0.15626346E+04</pdfrwt>
<pdfrwt beam="2">  1       -2 0.31250183E-01 0.15626346E+04</pdfrwt>
<totfact> 0.15886414E+01</totfact>
</mgrwt>
</event>
<event>
12    1  0.1663913E-007  0.1285469E+04  0.7818608E-02  0.9041168E-01
         -2   -1    0    0    0  501 -0.00000000000E+00  0.00000000000E+00  0.20412693138E+03  0.20412693138E+03  0.00000000000E+00 0.  1.
          2   -1    0    0  501    0  0.00000000000E+00 -0.00000000000E+00 -0.20237778701E+04  0.20237778701E+04  0.00000000000E+00 0. -1.
         23    2    1    2    0    0 -0.20915671566E+03 -0.21487311682E+03 -0.65464194596E+03  0.72577029309E+03  0.90936532172E+02 0.  0.
        254    2    1    2    0    0  0.20915671566E+03  0.21487311682E+03 -0.11650089927E+04  0.15021345084E+04  0.89958053562E+03 0.  0.
        -24    2    4    4    0    0  0.28677769125E+03 -0.25976980524E+03 -0.80259209891E+03  0.89445807382E+03  0.78608985978E+02 0.  0.
         24    2    4    4    0    0 -0.77620975587E+02  0.47464292206E+03 -0.36241689384E+03  0.60767643457E+03  0.81324810980E+02 0.  0.
         13    1    3    3    0    0 -0.52825984524E+02 -0.13199023500E+02 -0.16299576594E+03  0.17184998859E+03  0.00000000000E+00 0.  1.
        -13    1    3    3    0    0 -0.15633073114E+03 -0.20167409332E+03 -0.49164618001E+03  0.55392030450E+03  0.00000000000E+00 0. -1.
          4    1    6    6  502    0 -0.21728072484E+02  0.41330300029E+02 -0.61301233907E+02  0.77059354480E+02  0.00000000000E+00 0. -1.
          1    1    5    5  503    0  0.13584629812E+03 -0.71678713095E+02 -0.30325405028E+03  0.33993392539E+03  0.00000000000E+00 0. -1.
         -2    1    5    5    0  503  0.15093139313E+03 -0.18809109214E+03 -0.49933804863E+03  0.55452414842E+03  0.00000000000E+00 0.  1.
         -3    1    6    6    0  502 -0.55892903103E+02  0.43331262203E+03 -0.30111565994E+03  0.53061708009E+03  0.00000000000E+00 0.  1.
<mgrwt>
<rscale>  0 0.12854689E+04</rscale>
<asrwt>0</asrwt>
<pdfrwt beam="1">  1        2 0.31135045E+00 0.12854689E+04</pdfrwt>
<pdfrwt beam="2">  1       -2 0.31404142E-01 0.12854689E+04</pdfrwt>
<totfact> 0.59907011E+01</totfact>
</mgrwt>
</event>
<event>
12    1  0.1663913E-007  0.1834344E+04  0.7818608E-02  0.8688246E-01
          2   -1    0    0  501    0  0.00000000000E+00  0.00000000000E+00  0.15933369436E+04  0.15933369436E+04  0.00000000000E+00 0. -1.
         -2   -1    0    0    0  501 -0.00000000000E+00 -0.00000000000E+00 -0.52795123103E+03  0.52795123103E+03  0.00000000000E+00 0.  1.
         23    2    1    2    0    0 -0.50562420768E+03  0.36598575495E+03  0.76316278093E+03  0.98995000341E+03  0.89342973013E+02 0.  0.
        254    2    1    2    0    0  0.50562420768E+03 -0.36598575495E+03  0.30222293159E+03  0.11313381712E+04  0.89386013726E+03 0.  0.
        -24    2    4    4    0    0  0.29794391937E+03 -0.58745992903E+03  0.43259908700E+03  0.79255108635E+03  0.84353465184E+02 0.  0.
         24    2    4    4    0    0  0.20768028831E+03  0.22147417409E+03 -0.13037615541E+03  0.33878708483E+03  0.74811997750E+02 0.  0.
         11    1    3    3    0    0 -0.46990596745E+03  0.36456965121E+03  0.72272814096E+03  0.93598002893E+03  0.00000000000E+00 0. -1.
        -11    1    3    3    0    0 -0.35718240229E+02  0.14161037403E+01  0.40434639975E+02  0.53969974474E+02  0.00000000000E+00 0.  1.
          4    1    6    6  502    0  0.64768212462E+02  0.11804494939E+03 -0.39370130713E+02  0.14028377887E+03  0.00000000000E+00 0. -1.
          3    1    5    5  503    0  0.11173848494E+03 -0.14504882674E+03  0.13895955501E+03  0.22985736682E+03  0.00000000000E+00 0. -1.
         -4    1    5    5    0  503  0.18620543443E+03 -0.44241110229E+03  0.29363953199E+03  0.56269371953E+03  0.00000000000E+00 0.  1.
         -3    1    6    6    0  502  0.14291207585E+03  0.10342922470E+03 -0.91006024702E+02  0.19850330596E+03  0.00000000000E+00 0.  1.
<mgrwt>
<rscale>  0 0.18343437E+04</rscale>
<asrwt>0</asrwt>
<pdfrwt beam="1">  1        2 0.24512876E+00 0.18343437E+04</pdfrwt>
<pdfrwt beam="2">  1       -2 0.81223267E-01 0.18343437E+04</pdfrwt>
<totfact> 0.14145496E+01</totfact>
</mgrwt>
</event>
<event>
12    1  0.2227233E-007  0.1762383E+04  0.7818608E-02  0.8726563E-01
         -2   -1    0    0    0  501 -0.00000000000E+00  0.00000000000E+00  0.47412983597E+03  0.47412983597E+03  0.00000000000E+00 0.  1.
          2   -1    0    0  501    0  0.00000000000E+00 -0.00000000000E+00 -0.16377339932E+04  0.16377339932E+04  0.00000000000E+00 0. -1.
         23    2    1    2    0    0 -0.50529975158E+03  0.39226894379E+03 -0.32952286489E+03  0.72538127727E+03  0.91596483073E+02 0.  0.
        254    2    1    2    0    0  0.50529975158E+03 -0.39226894379E+03 -0.83408129232E+03  0.13864825519E+04  0.90412360949E+03 0.  0.
        -24    2    4    4    0    0  0.23153041233E+03  0.27372564563E+03 -0.17414088934E+03  0.40652546807E+03  0.80036528779E+02 0.  0.
         24    2    4    4    0    0  0.27376933926E+03 -0.66599458942E+03 -0.65994040297E+03  0.97995708380E+03  0.79348007925E+02 0.  0.
         11    1    3    3    0    0 -0.42436383405E+03  0.31317659583E+03 -0.23277164374E+03  0.57649534426E+03  0.00000000000E+00 0. -1.
        -11    1    3    3    0    0 -0.80935917538E+02  0.79092347963E+02 -0.96751221156E+02  0.14888593301E+03  0.00000000000E+00 0.  1.
          2    1    6    6  502    0  0.27274137278E+03 -0.65536771383E+03 -0.63344803594E+03  0.95139429838E+03  0.00000000000E+00 0. -1.
          3    1    5    5  503    0  0.20764197307E+03  0.26154233019E+03 -0.13755879235E+03  0.36116755227E+03  0.00000000000E+00 0. -1.
         -4    1    5    5    0  503  0.23888439257E+02  0.12183315445E+02 -0.36582096991E+02  0.45357915799E+02  0.00000000000E+00 0.  1.
         -1    1    6    6    0  502  0.10279664788E+01 -0.10626875589E+02 -0.26492367035E+02  0.28562785421E+02  0.00000000000E+00 0.  1.
<mgrwt>
<rscale>  0 0.17623831E+04</rscale>
<asrwt>0</asrwt>
<pdfrwt beam="1">  1        2 0.25195908E+00 0.17623831E+04</pdfrwt>
<pdfrwt beam="2">  1       -2 0.72943052E-01 0.17623831E+04</pdfrwt>
<totfact> 0.17080040E+01</totfact>
</mgrwt>
</event>
<event>
12    1  0.1663913E-007  0.1334782E+04  0.7818608E-02  0.9002428E-01
          1   -1    0    0  501    0  0.00000000000E+00  0.00000000000E+00  0.24737848134E+04  0.24737848134E+04  0.00000000000E+00 0. -1.
         -1   -1    0    0    0  501 -0.00000000000E+00 -0.00000000000E+00 -0.18005246426E+03  0.18005246426E+03  0.00000000000E+00 0.  1.
         23    2    1    2    0    0  0.33334665115E+03 -0.32818960910E+02  0.86531042092E+03  0.93231566987E+03  0.90847728104E+02 0.  0.
        254    2    1    2    0    0 -0.33334665115E+03  0.32818960910E+02  0.14284219282E+04  0.17215216078E+04  0.90058334820E+03 0.  0.
        -24    2    4    4    0    0  0.24720570012E+03 -0.10264259314E+03  0.81931315468E+03  0.86554408895E+03  0.79033944433E+02 0.  0.
         24    2    4    4    0    0 -0.58055235126E+03  0.13546155405E+03  0.60910877350E+03  0.85597751881E+03  0.79329374003E+02 0.  0.
         13    1    3    3    0    0  0.29923829218E+03 -0.29161408306E+02  0.67489620891E+03  0.73883613612E+03  0.00000000000E+00 0.  1.
        -13    1    3    3    0    0  0.34108358969E+02 -0.36575526044E+01  0.19041421201E+03  0.19347953375E+03  0.00000000000E+00 0. -1.
          4    1    6    6  502    0 -0.57761702422E+03  0.13299360370E+03  0.58938652334E+03  0.83588587689E+03  0.00000000000E+00 0. -1.
          3    1    5    5  503    0  0.18817296741E+03 -0.72833390832E+02  0.49478493313E+03  0.53434623470E+03  0.00000000000E+00 0. -1.
         -4    1    5    5    0  503  0.59032732713E+02 -0.29809202305E+02  0.32452822155E+03  0.33119785425E+03  0.00000000000E+00 0.  1.
         -3    1    6    6    0  502 -0.29353270446E+01  0.24679503457E+01  0.19722250162E+02  0.20091641924E+02  0.00000000000E+00 0.  1.
<mgrwt>
<rscale>  0 0.13347825E+04</rscale>
<asrwt>0</asrwt>
<pdfrwt beam="1">  1        1 0.38058226E+00 0.13347825E+04</pdfrwt>
<pdfrwt beam="2">  1       -1 0.27700381E-01 0.13347825E+04</pdfrwt>
<totfact> 0.16305547E+01</totfact>
</mgrwt>
</event>
<event>
12    1  0.1663913E-007  0.1599146E+04  0.7818608E-02  0.8821073E-01
         -1   -1    0    0    0  501 -0.00000000000E+00  0.00000000000E+00  0.70615089031E+03  0.70615089031E+03  0.00000000000E+00 0.  1.
          1   -1    0    0  501    0  0.00000000000E+00 -0.00000000000E+00 -0.90535477720E+03  0.90535477720E+03  0.00000000000E+00 0. -1.
         23    2    1    2    0    0 -0.53029000279E+02  0.44772947058E+03 -0.36728944752E+03  0.59058098971E+03  0.10300783200E+03 0.  0.
        254    2    1    2    0    0  0.53029000279E+02 -0.44772947058E+03  0.16808556063E+03  0.10209246778E+04  0.90042250547E+03 0.  0.
        -24    2    4    4    0    0  0.35003681252E+03 -0.56537352105E+03  0.17746961295E+03  0.69271616983E+03  0.78659010878E+02 0.  0.
         24    2    4    4    0    0 -0.29700781224E+03  0.11764405048E+03 -0.93840523117E+01  0.32820850797E+03  0.74692711300E+02 0.  0.
         11    1    3    3    0    0 -0.20117512109E+01  0.32346562903E+03 -0.29621197118E+03  0.43860642058E+03  0.00000000000E+00 0. -1.
        -11    1    3    3    0    0 -0.51017249068E+02  0.12426384155E+03 -0.71077476342E+02  0.15197456913E+03  0.00000000000E+00 0.  1.
          2    1    6    6  502    0 -0.20914553482E+03  0.47560830173E+02 -0.19470731936E+02  0.21536712076E+03  0.00000000000E+00 0. -1.
          1    1    5    5  503    0  0.24271679949E+03 -0.43685922750E+03  0.15809189889E+03  0.52416646011E+03  0.00000000000E+00 0. -1.
         -2    1    5    5    0  503  0.10732001303E+03 -0.12851429355E+03  0.19377714053E+02  0.16854970971E+03  0.00000000000E+00 0.  1.
         -1    1    6    6    0  502 -0.87862277420E+02  0.70083220305E+02  0.10086679625E+02  0.11284138721E+03  0.00000000000E+00 0.  1.
<mgrwt>
<rscale>  0 0.15991461E+04</rscale>
<asrwt>0</asrwt>
<pdfrwt beam="1">  1        1 0.13928535E+00 0.15991461E+04</pdfrwt>
<pdfrwt beam="2">  1       -1 0.10863860E+00 0.15991461E+04</pdfrwt>
<totfact> 0.13589896E+01</totfact>
</mgrwt>
</event>
<event>
12    1  0.1663913E-007  0.1142995E+04  0.7818608E-02  0.9164271E-01
          2   -1    0    0  501    0  0.00000000000E+00  0.00000000000E+00  0.41894395928E+04  0.41894395928E+04  0.00000000000E+00 0. -1.
         -2   -1    0    0    0  501 -0.00000000000E+00 -0.00000000000E+00 -0.77960130829E+02  0.77960130829E+02  0.00000000000E+00 0.  1.
         23    2    1    2    0    0 -0.19177240928E+03 -0.40419784273E+02  0.73624038682E+03  0.76713979627E+03  0.89683576636E+02 0.  0.
        254    2    1    2    0    0  0.19177240928E+03  0.40419784273E+02  0.33752390751E+04  0.35002599274E+04  0.90618448933E+03 0.  0.
        -24    2    4    4    0    0  0.32276674688E+03  0.40813107936E+03  0.20551493784E+04  0.21214832407E+04  0.79390314135E+02 0.  0.
         24    2    4    4    0    0 -0.13099433760E+03 -0.36771129508E+03  0.13200896967E+04  0.13787766867E+04  0.77570814907E+02 0.  0.
         11    1    3    3    0    0 -0.36777196265E+02 -0.29730760412E+02  0.81576638355E+02  0.94293309440E+02  0.00000000000E+00 0. -1.
        -11    1    3    3    0    0 -0.15499521302E+03 -0.10689023860E+02  0.65466374847E+03  0.67284648683E+03  0.00000000000E+00 0.  1.
          2    1    6    6  502    0 -0.61135782385E+02 -0.75989598267E+02  0.29552739058E+03  0.31120482245E+03  0.00000000000E+00 0. -1.
          1    1    5    5  503    0  0.46057705973E+02  0.36515397638E+02  0.33036612455E+03  0.33555396406E+03  0.00000000000E+00 0. -1.
         -2    1    5    5    0  503  0.27670904091E+03  0.37161568172E+03  0.17247832539E+04  0.17859292766E+04  0.00000000000E+00 0.  1.
         -1    1    6    6    0  502 -0.69858555217E+02 -0.29172169682E+03  0.10245623061E+04  0.10675718642E+04  0.00000000000E+00 0.  1.
<mgrwt>
<rscale>  0 0.11429948E+04</rscale>
<asrwt>0</asrwt>
<pdfrwt beam="1">  1        2 0.64452899E+00 0.11429948E+04</pdfrwt>
<pdfrwt beam="2">  1       -2 0.11993870E-01 0.11429948E+04</pdfrwt>
<totfact> 0.12638926E+01</totfact>
</mgrwt>
</event>
<event>
12    1  0.1663913E-007  0.2875167E+04  0.7818608E-02  0.8280305E-01
          2   -1    0    0  501    0  0.00000000000E+00  0.00000000000E+00  0.27395046788E+04  0.27395046788E+04  0.00000000000E+00 0. -1.
         -2   -1    0    0    0  501 -0.00000000000E+00 -0.00000000000E+00 -0.75438659696E+03  0.75438659696E+03  0.00000000000E+00 0.  1.
         23    2    1    2    0    0  0.68886392234E+03 -0.42627152615E+03  0.21168960248E+04  0.22683823029E+04  0.89825245519E+02 0.  0.
        254    2    1    2    0    0 -0.68886392234E+03  0.42627152615E+03 -0.13177794287E+03  0.12255089730E+04  0.91009114876E+03 0.  0.
        -24    2    4    4    0    0  0.11838998542E+03 -0.15666845058E+03 -0.78271293706E+02  0.22516160895E+03  0.77525238945E+02 0.  0.
         24    2    4    4    0    0 -0.80725390776E+03  0.58293997673E+03 -0.53506649161E+02  0.10003473640E+04  0.79711975884E+02 0.  0.
         13    1    3    3    0    0  0.68671326253E+03 -0.43034301939E+03  0.21063968472E+04  0.22569177869E+04  0.00000000000E+00 0. -1.
        -13    1    3    3    0    0  0.21506598135E+01  0.40714932415E+01  0.10499177609E+02  0.11464515922E+02  0.00000000000E+00 0.  1.
          4    1    6    6  502    0 -0.65919536764E+02  0.70779905013E+02  0.89721533409E+01  0.97137427474E+02  0.00000000000E+00 0. -1.
          1    1    5    5  503    0  0.28656642440E+02 -0.49326490753E+02 -0.62094593649E+02  0.84321079253E+02  0.00000000000E+00 0. -1.
         -2    1    5    5    0  503  0.89733342975E+02 -0.10734195983E+03 -0.16176700056E+02  0.14084052970E+03  0.00000000000E+00 0.  1.
         -1    1    6    6    0  502 -0.74133437100E+03  0.51216007172E+03 -0.62478802502E+02  0.90320993653E+03  0.00000000000E+00 0.  1.
<mgrwt>
<rscale>  0 0.28751665E+04</rscale>
<asrwt>0</asrwt>
<pdfrwt beam="1">  1        2 0.42146225E+00 0.28751665E+04</pdfrwt>
<pdfrwt beam="2">  1       -2 0.11605948E+00 0.28751665E+04</pdfrwt>
<totfact> 0.12535454E+00</totfact>
</mgrwt>
</event>
<event>
12    1  0.1663913E-007  0.1501410E+04  0.7818608E-02  0.8883516E-01
          2   -1    0    0  501    0  0.00000000000E+00  0.00000000000E+00  0.14436958402E+04  0.14436958402E+04  0.00000000000E+00 0. -1.
         -2   -1    0    0    0  501 -0.00000000000E+00 -0.00000000000E+00 -0.39035769464E+03  0.39035769464E+03  0.00000000000E+00 0.  1.
         23    2    1    2    0    0 -0.33722200428E+03  0.13485346529E+03  0.71365080680E+03  0.80597069319E+03  0.91581367925E+02 0.  0.
        254    2    1    2    0    0  0.33722200428E+03 -0.13485346529E+03  0.33968733874E+03  0.10280828416E+04  0.89981259376E+03 0.  0.
        -24    2    4    4    0    0  0.36146204539E+03  0.22903200091E+03  0.46276117559E+03  0.63505254345E+03  0.77674703785E+02 0.  0.
         24    2    4    4    0    0 -0.24240041106E+02 -0.36388546620E+03 -0.12307383685E+03  0.39303029818E+03  0.79532596226E+02 0.  0.
         13    1    3    3    0    0 -0.80410227831E+02  0.60716741024E+02  0.26786214837E+03  0.28618605471E+03  0.00000000000E+00 0.  1.
        -13    1    3    3    0    0 -0.25681177645E+03  0.74136724269E+02  0.44578865843E+03  0.51978463848E+03  0.00000000000E+00 0. -1.
          2    1    6    6  502    0 -0.11990672212E+02 -0.35951066902E+03 -0.12254711478E+03  0.38001249019E+03  0.00000000000E+00 0. -1.
          1    1    5    5  503    0  0.19645931289E+03  0.14127150409E+03  0.31258333861E+03  0.39530019361E+03  0.00000000000E+00 0. -1.
         -2    1    5    5    0  503  0.16500273250E+03  0.87760496823E+02  0.15017783698E+03  0.23975234984E+03  0.00000000000E+00 0.  1.
         -1    1    6    6    0  502 -0.12249368895E+02 -0.43747971841E+01 -0.52672207125E+00  0.13017807990E+02  0.00000000000E+00 0.  1.
<mgrwt>
<rscale>  0 0.15014097E+04</rscale>
<asrwt>0</asrwt>
<pdfrwt beam="1">  1        2 0.22210705E+00 0.15014097E+04</pdfrwt>
<pdfrwt beam="2">  1       -2 0.60055030E-01 0.15014097E+04</pdfrwt>
<totfact> 0.34114872E+01</totfact>
</mgrwt>
</event>
<event>
12    1  0.1663913E-007  0.1156143E+04  0.7818608E-02  0.9152135E-01
         -1   -1    0    0    0  501 -0.00000000000E+00  0.00000000000E+00  0.14466667757E+03  0.14466667757E+03  0.00000000000E+00 0.  1.
          1   -1    0    0  501    0  0.00000000000E+00 -0.00000000000E+00 -0.23099056440E+04  0.23099056440E+04  0.00000000000E+00 0. -1.
         23    2    1    2    0    0  0.31896476505E+02 -0.56373671979E+02 -0.86874252828E+03  0.87477929128E+03  0.79560366415E+02 0.  0.
        254    2    1    2    0    0 -0.31896476505E+02  0.56373671979E+02 -0.12964964382E+04  0.15797930303E+04  0.90035972162E+03 0.  0.
        -24    2    4    4    0    0  0.81191862621E+02  0.19225493837E+03  0.42185298293E+02  0.22723600996E+03  0.79388443423E+02 0.  0.
         24    2    4    4    0    0 -0.11308833913E+03 -0.13588126639E+03 -0.13386817365E+04  0.13525570203E+04  0.78032113473E+02 0.  0.
         11    1    3    3    0    0  0.25305316572E+02  0.15968577139E+02 -0.26286718040E+03  0.26456475395E+03  0.00000000000E+00 0. -1.
        -11    1    3    3    0    0  0.65911599336E+01 -0.72342249118E+02 -0.60587534788E+03  0.61021453733E+03  0.00000000000E+00 0.  1.
          4    1    6    6  502    0 -0.67772500917E+02 -0.57753181731E+02 -0.41357607987E+03  0.42305285216E+03  0.00000000000E+00 0. -1.
          3    1    5    5  503    0  0.95179229020E+01  0.11683087705E+03  0.37548051605E+02  0.12308493355E+03  0.00000000000E+00 0. -1.
         -4    1    5    5    0  503  0.71673939719E+02  0.75424061323E+02  0.46372466889E+01  0.10415107641E+03  0.00000000000E+00 0.  1.
         -3    1    6    6    0  502 -0.45315838210E+02 -0.78128084660E+02 -0.92510565660E+03  0.92950416819E+03  0.00000000000E+00 0.  1.
<mgrwt>
<rscale>  0 0.11561425E+04</rscale>
<asrwt>0</asrwt>
<pdfrwt beam="1">  1        1 0.35537010E+00 0.11561425E+04</pdfrwt>
<pdfrwt beam="2">  1       -1 0.22256412E-01 0.11561425E+04</pdfrwt>
<totfact> 0.31230607E+01</totfact>
</mgrwt>
</event>
<event>
12    1  0.1663913E-007  0.1637981E+04  0.7818608E-02  0.8797549E-01
         -2   -1    0    0    0  501 -0.00000000000E+00  0.00000000000E+00  0.35907849531E+03  0.35907849531E+03  0.00000000000E+00 0.  1.
          2   -1    0    0  501    0  0.00000000000E+00 -0.00000000000E+00 -0.18679629881E+04  0.18679629881E+04  0.00000000000E+00 0. -1.
         23    2    1    2    0    0  0.96391840273E+02 -0.68291712673E+02 -0.12890741286E+04  0.12976599029E+04  0.90851360139E+02 0.  0.
        254    2    1    2    0    0 -0.96391840273E+02  0.68291712673E+02 -0.21981036414E+03  0.92938158048E+03  0.89525324968E+03 0.  0.
        -24    2    4    4    0    0 -0.39703826463E+03 -0.77665263867E+02  0.13652057388E+03  0.43451635392E+03  0.80593535352E+02 0.  0.
         24    2    4    4    0    0  0.30064642436E+03  0.14595697654E+03 -0.35633093801E+03  0.49486522656E+03  0.78918588393E+02 0.  0.
         11    1    3    3    0    0  0.68027651498E+02 -0.88358726602E+02 -0.10771039108E+04  0.10828609609E+04  0.00000000000E+00 0. -1.
        -11    1    3    3    0    0  0.28364188775E+02  0.20067013929E+02 -0.21197021782E+03  0.21479894203E+03  0.00000000000E+00 0.  1.
          2    1    6    6  502    0  0.13004433235E+02  0.23413316363E+02 -0.10806991599E+02  0.28880611737E+02  0.00000000000E+00 0. -1.
          1    1    5    5  503    0 -0.72663700522E+02  0.16148592077E+02  0.32180636110E+02  0.81094905758E+02  0.00000000000E+00 0. -1.
         -2    1    5    5    0  503 -0.32437456411E+03 -0.93813855944E+02  0.10433993777E+03  0.35342144816E+03  0.00000000000E+00 0.  1.
         -1    1    6    6    0  502  0.28764199112E+03  0.12254366018E+03 -0.34552394642E+03  0.46598461482E+03  0.00000000000E+00 0.  1.
<mgrwt>
<rscale>  0 0.16379809E+04</rscale>
<asrwt>0</asrwt>
<pdfrwt beam="1">  1        2 0.28737891E+00 0.16379809E+04</pdfrwt>
<pdfrwt beam="2">  1       -2 0.55242847E-01 0.16379809E+04</pdfrwt>
<totfact> 0.23301019E+01</totfact>
</mgrwt>
</event>
<event>
12    1  0.1663913E-007  0.1190812E+04  0.7818608E-02  0.9120937E-01
          1   -1    0    0  501    0  0.00000000000E+00  0.00000000000E+00  0.44183547984E+03  0.44183547984E+03  0.00000000000E+00 0. -1.
         -1   -1    0    0    0  501 -0.00000000000E+00 -0.00000000000E+00 -0.80235367737E+03  0.80235367737E+03  0.00000000000E+00 0.  1.
         23    2    1    2    0    0  0.44160526425E+02 -0.17769023718E+03 -0.35493319596E+03  0.40967457114E+03  0.91278191049E+02 0.  0.
        254    2    1    2    0    0 -0.44160526425E+02  0.17769023718E+03 -0.55850015712E+01  0.83451458607E+03  0.81416179573E+03 0.  0.
        -24    2    4    4    0    0  0.18072697957E+03  0.42994797320E+03  0.72724751380E+02  0.47892890366E+03  0.81033971233E+02 0.  0.
         24    2    4    4    0    0 -0.22488750599E+03 -0.25225773602E+03 -0.78309752951E+02  0.35558568241E+03  0.78105085588E+02 0.  0.
         11    1    3    3    0    0  0.29167070425E+02 -0.17442844155E+03 -0.35217385673E+03  0.39408428614E+03  0.00000000000E+00 0.  1.
        -11    1    3    3    0    0  0.14993456000E+02 -0.32617956362E+01 -0.27593392366E+01  0.15590285008E+02  0.00000000000E+00 0. -1.
          4    1    6    6  502    0 -0.12771224232E+03 -0.12246334351E+03 -0.78187240116E+02  0.19344490652E+03  0.00000000000E+00 0. -1.
          3    1    5    5  503    0  0.12205942341E+03  0.32479553975E+03  0.86888276881E+02  0.35768731896E+03  0.00000000000E+00 0. -1.
         -4    1    5    5    0  503  0.58667556156E+02  0.10515243345E+03 -0.14163525501E+02  0.12124158470E+03  0.00000000000E+00 0.  1.
         -3    1    6    6    0  502 -0.97175263676E+02 -0.12979439250E+03 -0.12251283458E+00  0.16214077589E+03  0.00000000000E+00 0.  1.
<mgrwt>
<rscale>  0 0.11908120E+04</rscale>
<asrwt>0</asrwt>
<pdfrwt beam="1">  1        1 0.67974690E-01 0.11908120E+04</pdfrwt>
<pdfrwt beam="2">  1       -1 0.12343903E+00 0.11908120E+04</pdfrwt>
<totfact> 0.30026016E+01</totfact>
</mgrwt>
</event>
<event>
12    1  0.1663913E-007  0.2416056E+04  0.7818608E-02  0.8433517E-01
          2   -1    0    0  501    0  0.00000000000E+00  0.00000000000E+00  0.18530918735E+04  0.18530918735E+04  0.00000000000E+00 0. -1.
         -2   -1    0    0    0  501 -0.00000000000E+00 -0.00000000000E+00 -0.78751187519E+03  0.78751187519E+03  0.00000000000E+00 0.  1.
         23    2    1    2    0    0 -0.50462398824E+03  0.88313877223E+03  0.20038078946E+03  0.10407073022E+04  0.91322328286E+02 0.  0.
        254    2    1    2    0    0  0.50462398824E+03 -0.88313877223E+03  0.86519920883E+03  0.15998964464E+04  0.88120344290E+03 0.  0.
        -24    2    4    4    0    0  0.22933403401E+03 -0.98011244699E+03  0.80703768301E+03  0.12924656208E+04  0.77091187191E+02 0.  0.
         24    2    4    4    0    0  0.27528995423E+03  0.96973674765E+02  0.58161525820E+02  0.30743082566E+03  0.77087592916E+02 0.  0.
         11    1    3    3    0    0 -0.35485487937E+03  0.61355150330E+03  0.18195370856E+03  0.73176128941E+03  0.00000000000E+00 0. -1.
        -11    1    3    3    0    0 -0.14976910887E+03  0.26958726893E+03  0.18427080907E+02  0.30894601284E+03  0.00000000000E+00 0.  1.
          2    1    6    6  502    0  0.27817186958E+03  0.92626546847E+02  0.49524918405E+02  0.29734152712E+03  0.00000000000E+00 0. -1.
          1    1    5    5  503    0  0.21190376349E+03 -0.95029087306E+03  0.79068598273E+03  0.12542488875E+04  0.00000000000E+00 0. -1.
         -2    1    5    5    0  503  0.17430270523E+02 -0.29821573929E+02  0.16351700282E+02  0.38216733301E+02  0.00000000000E+00 0.  1.
         -1    1    6    6    0  502 -0.28819153557E+01  0.43471279180E+01  0.86366074154E+01  0.10089298534E+02  0.00000000000E+00 0.  1.
<mgrwt>
<rscale>  0 0.24160562E+04</rscale>
<asrwt>0</asrwt>
<pdfrwt beam="1">  1        2 0.28509106E+00 0.24160562E+04</pdfrwt>
<pdfrwt beam="2">  1       -2 0.12115567E+00 0.24160562E+04</pdfrwt>
<totfact> 0.37543462E+00</totfact>
</mgrwt>
</event>
<event>
12    1  0.1663913E-007  0.1932259E+04  0.7818608E-02  0.8638964E-01
         -1   -1    0    0    0  501 -0.00000000000E+00  0.00000000000E+00  0.11165609660E+04  0.11165609660E+04  0.00000000000E+00 0.  1.
          1   -1    0    0  501    0  0.00000000000E+00 -0.00000000000E+00 -0.83596536966E+03  0.83596536966E+03  0.00000000000E+00 0. -1.
         23    2    1    2    0    0 -0.31378229042E+03 -0.36280366456E+03 -0.46846702294E+03  0.67650134038E+03  0.90038253891E+02 0.  0.
        254    2    1    2    0    0  0.31378229042E+03  0.36280366456E+03  0.74906261929E+03  0.12760249953E+04  0.91490937048E+03 0.  0.
        -24    2    4    4    0    0  0.24498152219E+03  0.34671694838E+03  0.95287689406E+03  0.10462745722E+04  0.80545121762E+02 0.  0.
         24    2    4    4    0    0  0.68800768224E+02  0.16086716188E+02 -0.20381427477E+03  0.22975042312E+03  0.79073827399E+02 0.  0.
         13    1    3    3    0    0 -0.15881579915E+03 -0.18509879619E+03 -0.30043877580E+03  0.38697219592E+03  0.00000000000E+00 0. -1.
        -13    1    3    3    0    0 -0.15496649126E+03 -0.17770486838E+03 -0.16802824714E+03  0.28952914446E+03  0.00000000000E+00 0.  1.
          2    1    6    6  502    0  0.79285700274E+02 -0.22370238384E+01 -0.18571050020E+03  0.20193963561E+03  0.00000000000E+00 0. -1.
          1    1    5    5  503    0  0.67071175247E+02  0.16265402423E+03  0.40287744894E+03  0.43961928189E+03  0.00000000000E+00 0. -1.
         -2    1    5    5    0  503  0.17791034695E+03  0.18406292414E+03  0.54999944512E+03  0.60665529028E+03  0.00000000000E+00 0.  1.
         -1    1    6    6    0  502 -0.10484932050E+02  0.18323740026E+02 -0.18103774564E+02  0.27810787513E+02  0.00000000000E+00 0.  1.
<mgrwt>
<rscale>  0 0.19322591E+04</rscale>
<asrwt>0</asrwt>
<pdfrwt beam="1">  1        1 0.12861006E+00 0.19322591E+04</pdfrwt>
<pdfrwt beam="2">  1       -1 0.17177861E+00 0.19322591E+04</pdfrwt>
<totfact> 0.45859776E+00</totfact>
</mgrwt>
</event>
<event>
12    1  0.1663913E-007  0.2728915E+04  0.7818608E-02  0.8325683E-01
         -1   -1    0    0    0  501 -0.00000000000E+00  0.00000000000E+00  0.11353367304E+04  0.11353367304E+04  0.00000000000E+00 0.  1.
          1   -1    0    0  501    0  0.00000000000E+00 -0.00000000000E+00 -0.16398172692E+04  0.16398172692E+04  0.00000000000E+00 0. -1.
         23    2    1    2    0    0 -0.11360990199E+04 -0.43898529181E+02 -0.64196960695E+03  0.13088479330E+04  0.91158497449E+02 0.  0.
        254    2    1    2    0    0  0.11360990199E+04  0.43898529181E+02  0.13748906814E+03  0.14663060666E+04  0.91569764286E+03 0.  0.
        -24    2    4    4    0    0  0.13554319254E+02 -0.24635310855E+03  0.15497963550E+03  0.30391417313E+03  0.86438206526E+02 0.  0.
         24    2    4    4    0    0  0.11225447007E+04  0.29025163773E+03 -0.17490567360E+02  0.11623918934E+04  0.80600098285E+02 0.  0.
         13    1    3    3    0    0 -0.17760417314E+03  0.11344522203E+02 -0.69577327016E+02  0.19108360718E+03  0.00000000000E+00 0. -1.
        -13    1    3    3    0    0 -0.95849484677E+03 -0.55243051384E+02 -0.57239227994E+03  0.11177643258E+04  0.00000000000E+00 0.  1.
          4    1    6    6  502    0  0.29908564957E+03  0.10748189440E+03  0.16157168065E+02  0.31822262252E+03  0.00000000000E+00 0. -1.
          1    1    5    5  503    0  0.10305107536E+01 -0.49907562972E+02 -0.51237492003E+01  0.50180470305E+02  0.00000000000E+00 0. -1.
         -2    1    5    5    0  503  0.12523808501E+02 -0.19644554558E+03  0.16010338470E+03  0.25373370283E+03  0.00000000000E+00 0.  1.
         -3    1    6    6    0  502  0.82345905108E+03  0.18276974333E+03 -0.33647735425E+02  0.84416927093E+03  0.00000000000E+00 0.  1.
<mgrwt>
<rscale>  0 0.27289154E+04</rscale>
<asrwt>0</asrwt>
<pdfrwt beam="1">  1        1 0.25227958E+00 0.27289154E+04</pdfrwt>
<pdfrwt beam="2">  1       -1 0.17466719E+00 0.27289154E+04</pdfrwt>
<totfact> 0.10381219E+00</totfact>
</mgrwt>
</event>
<event>
12    1  0.1663913E-007  0.1243839E+04  0.7818608E-02  0.9075326E-01
         -1   -1    0    0    0  501 -0.00000000000E+00  0.00000000000E+00  0.11787469679E+04  0.11787469679E+04  0.00000000000E+00 0.  1.
          1   -1    0    0  501    0  0.00000000000E+00 -0.00000000000E+00 -0.32813163966E+03  0.32813163966E+03  0.00000000000E+00 0. -1.
         23    2    1    2    0    0 -0.24956500421E+03  0.10496778254E+03  0.88555200219E+02  0.29924568765E+03  0.91678958275E+02 0.  0.
        254    2    1    2    0    0  0.24956500421E+03 -0.10496778254E+03  0.76206012799E+03  0.12076329199E+04  0.89685043560E+03 0.  0.
        -24    2    4    4    0    0  0.24209184859E+03 -0.46998456989E+03  0.30010559208E+03  0.61340687579E+03  0.81918677892E+02 0.  0.
         24    2    4    4    0    0  0.74731556228E+01  0.36501678735E+03  0.46195453591E+03  0.59422604409E+03  0.80059322580E+02 0.  0.
         11    1    3    3    0    0 -0.21962421312E+03  0.64625602994E+02  0.46234263129E+02  0.23355699655E+03  0.00000000000E+00 0. -1.
        -11    1    3    3    0    0 -0.29940791094E+02  0.40342179548E+02  0.42320937089E+02  0.65688691098E+02  0.00000000000E+00 0.  1.
          2    1    6    6  502    0  0.18284760243E+02  0.29782664381E+03  0.41662789082E+03  0.51245862431E+03  0.00000000000E+00 0. -1.
          1    1    5    5  503    0  0.98241377712E+02 -0.18813009398E+03  0.75125439441E+02  0.22514025008E+03  0.00000000000E+00 0. -1.
         -2    1    5    5    0  503  0.14385047088E+03 -0.28185447591E+03  0.22498015264E+03  0.38826662572E+03  0.00000000000E+00 0.  1.
         -1    1    6    6    0  502 -0.10811604620E+02  0.67190143539E+02  0.45326645089E+02  0.81767419785E+02  0.00000000000E+00 0.  1.
<mgrwt>
<rscale>  0 0.12438395E+04</rscale>
<asrwt>0</asrwt>
<pdfrwt beam="1">  1        1 0.50481791E-01 0.12438395E+04</pdfrwt>
<pdfrwt beam="2">  1       -1 0.18134569E+00 0.12438395E+04</pdfrwt>
<totfact> 0.15655189E+01</totfact>
</mgrwt>
</event>
<event>
12    1  0.1663913E-007  0.2129616E+04  0.7818608E-02  0.8548308E-01
         -2   -1    0    0    0  501 -0.00000000000E+00  0.00000000000E+00  0.15970720810E+04  0.15970720810E+04  0.00000000000E+00 0.  1.
          2   -1    0    0  501    0  0.00000000000E+00 -0.00000000000E+00 -0.70993420700E+03  0.70993420700E+03  0.00000000000E+00 0. -1.
         23    2    1    2    0    0  0.16782635580E+02 -0.85563926253E+03  0.16954688577E+03  0.87723179041E+03  0.91592921138E+02 0.  0.
        254    2    1    2    0    0 -0.16782635580E+02  0.85563926253E+03  0.71759098825E+03  0.14297744976E+04  0.89270268464E+03 0.  0.
        -24    2    4    4    0    0 -0.30212015065E+03  0.47754436552E+02  0.40664502663E+03  0.51519263784E+03  0.80661048622E+02 0.  0.
         24    2    4    4    0    0  0.28533751507E+03  0.80788482598E+03  0.31094596162E+03  0.91458185977E+03  0.75347180588E+02 0.  0.
         11    1    3    3    0    0  0.54489480485E+02 -0.56333758005E+03  0.11091667170E+03  0.57673290234E+03  0.00000000000E+00 0. -1.
        -11    1    3    3    0    0 -0.37706844905E+02 -0.29230168248E+03  0.58630214069E+02  0.30049888807E+03  0.00000000000E+00 0.  1.
          2    1    6    6  502    0  0.28868536424E+03  0.77489463021E+03  0.29780793219E+03  0.87891438259E+03  0.00000000000E+00 0. -1.
          1    1    5    5  503    0 -0.30453234618E+03  0.39158455988E+02  0.39882816964E+03  0.50332617997E+03  0.00000000000E+00 0. -1.
         -2    1    5    5    0  503  0.24121955362E+01  0.85959805638E+01  0.78168569974E+01  0.11866457874E+02  0.00000000000E+00 0.  1.
         -1    1    6    6    0  502 -0.33478491709E+01  0.32990195768E+02  0.13138029425E+02  0.35667477176E+02  0.00000000000E+00 0.  1.
<mgrwt>
<rscale>  0 0.21296160E+04</rscale>
<asrwt>0</asrwt>
<pdfrwt beam="1">  1        2 0.10922065E+00 0.21296160E+04</pdfrwt>
<pdfrwt beam="2">  1       -2 0.24570340E+00 0.21296160E+04</pdfrwt>
<totfact> 0.25264032E+00</totfact>
</mgrwt>
</event>
<event>
12    1  0.1663913E-007  0.1193407E+04  0.7818608E-02  0.9118647E-01
          2   -1    0    0  501    0  0.00000000000E+00  0.00000000000E+00  0.22930435194E+04  0.22930435194E+04  0.00000000000E+00 0. -1.
         -2   -1    0    0    0  501 -0.00000000000E+00 -0.00000000000E+00 -0.15527622615E+03  0.15527622615E+03  0.00000000000E+00 0.  1.
         23    2    1    2    0    0 -0.38302531451E+02 -0.22847986743E+03  0.56238599822E+03  0.61487643083E+03  0.90138118800E+02 0.  0.
        254    2    1    2    0    0  0.38302531451E+02  0.22847986743E+03  0.15753812950E+04  0.18334433147E+04  0.90885534040E+03 0.  0.
        -24    2    4    4    0    0 -0.18683319070E+03 -0.29571266857E+03  0.67680007924E+03  0.76581255319E+03  0.77832485857E+02 0.  0.
         24    2    4    4    0    0  0.22513572215E+03  0.52419253600E+03  0.89858121574E+03  0.10676307615E+04  0.83206570581E+02 0.  0.
         11    1    3    3    0    0 -0.51964663465E+02 -0.18816838076E+03  0.51713319790E+03  0.55275167131E+03  0.00000000000E+00 0. -1.
        -11    1    3    3    0    0  0.13662132014E+02 -0.40311486671E+02  0.45252800327E+02  0.62124759527E+02  0.00000000000E+00 0.  1.
          2    1    6    6  502    0  0.10588873980E+03  0.25819777536E+03  0.36314915864E+03  0.45799107834E+03  0.00000000000E+00 0. -1.
          1    1    5    5  503    0 -0.12003202277E+03 -0.17173330841E+03  0.48074011041E+03  0.52441497830E+03  0.00000000000E+00 0. -1.
         -2    1    5    5    0  503 -0.66801167932E+02 -0.12397936016E+03  0.19605996883E+03  0.24139757489E+03  0.00000000000E+00 0.  1.
         -1    1    6    6    0  502  0.11924698235E+03  0.26599476064E+03  0.53543205710E+03  0.60963968314E+03  0.00000000000E+00 0.  1.
<mgrwt>
<rscale>  0 0.11934071E+04</rscale>
<asrwt>0</asrwt>
<pdfrwt beam="1">  1        2 0.35277590E+00 0.11934071E+04</pdfrwt>
<pdfrwt beam="2">  1       -2 0.23888652E-01 0.11934071E+04</pdfrwt>
<totfact> 0.70631730E+01</totfact>
</mgrwt>
</event>
<event>
12    1  0.1663913E-007  0.2112243E+04  0.7818608E-02  0.8555869E-01
          2   -1    0    0  501    0  0.00000000000E+00  0.00000000000E+00  0.87856437879E+03  0.87856437879E+03  0.00000000000E+00 0. -1.
         -2   -1    0    0    0  501 -0.00000000000E+00 -0.00000000000E+00 -0.12695627383E+04  0.12695627383E+04  0.00000000000E+00 0.  1.
         23    2    1    2    0    0 -0.18789534882E+02  0.85901762679E+03 -0.30094940150E+03  0.91456266637E+03  0.87120598576E+02 0.  0.
        254    2    1    2    0    0  0.18789534882E+02 -0.85901762679E+03 -0.90048957991E+02  0.12335644507E+04  0.88051582009E+03 0.  0.
        -24    2    4    4    0    0 -0.25942142152E+03 -0.16396706344E+03  0.25438990504E+03  0.40577233513E+03  0.75843868168E+02 0.  0.
         24    2    4    4    0    0  0.27821095641E+03 -0.69505056336E+03 -0.34443886303E+03  0.82779211557E+03  0.78134719215E+02 0.  0.
         11    1    3    3    0    0 -0.23239511211E+02  0.58454136925E+02 -0.26375578519E+02  0.68210205594E+02  0.00000000000E+00 0. -1.
        -11    1    3    3    0    0  0.44499763283E+01  0.80056348987E+03 -0.27457382298E+03  0.84635246078E+03  0.00000000000E+00 0.  1.
          2    1    6    6  502    0  0.14873160324E+03 -0.46104129613E+03 -0.20298744427E+03  0.52524667450E+03  0.00000000000E+00 0. -1.
          1    1    5    5  503    0 -0.19126352380E+03 -0.82556848546E+02  0.18757031849E+03  0.28032123208E+03  0.00000000000E+00 0. -1.
         -2    1    5    5    0  503 -0.68157897725E+02 -0.81410214892E+02  0.66819586551E+02  0.12545110306E+03  0.00000000000E+00 0.  1.
         -1    1    6    6    0  502  0.12947935316E+03 -0.23400926722E+03 -0.14145141876E+03  0.30254544107E+03  0.00000000000E+00 0.  1.
<mgrwt>
<rscale>  0 0.21122430E+04</rscale>
<asrwt>0</asrwt>
<pdfrwt beam="1">  1        2 0.13516375E+00 0.21122430E+04</pdfrwt>
<pdfrwt beam="2">  1       -2 0.19531734E+00 0.21122430E+04</pdfrwt>
<totfact> 0.39858236E+00</totfact>
</mgrwt>
</event>
<event>
12    1  0.1663913E-007  0.1618943E+04  0.7818608E-02  0.8808994E-01
          2   -1    0    0  501    0  0.00000000000E+00  0.00000000000E+00  0.10803712857E+04  0.10803712857E+04  0.00000000000E+00 0. -1.
         -2   -1    0    0    0  501 -0.00000000000E+00 -0.00000000000E+00 -0.60649936105E+03  0.60649936105E+03  0.00000000000E+00 0.  1.
         23    2    1    2    0    0 -0.12055415478E+03  0.23814927434E+03  0.66918147096E+03  0.72611774609E+03  0.90524908213E+02 0.  0.
        254    2    1    2    0    0  0.12055415478E+03 -0.23814927434E+03 -0.19530954634E+03  0.96075290063E+03  0.90202657171E+03 0.  0.
        -24    2    4    4    0    0 -0.76677387203E+02 -0.12918254173E+03 -0.52567617510E+03  0.55286354498E+03  0.82189461002E+02 0.  0.
         24    2    4    4    0    0  0.19723154198E+03 -0.10896673261E+03  0.33036662876E+03  0.40788935565E+03  0.80359113273E+02 0.  0.
         11    1    3    3    0    0 -0.10785573491E+03  0.23544627909E+03  0.66290805042E+03  0.71169859716E+03  0.00000000000E+00 0. -1.
        -11    1    3    3    0    0 -0.12698419870E+02  0.27029952463E+01  0.62734205393E+01  0.14419148926E+02  0.00000000000E+00 0.  1.
          4    1    6    6  502    0  0.18405407922E+03 -0.91236664520E+02  0.24507792990E+03  0.31978621727E+03  0.00000000000E+00 0. -1.
          3    1    5    5  503    0 -0.77537078561E+02 -0.71566909834E+02 -0.41353400146E+03  0.42678354174E+03  0.00000000000E+00 0. -1.
         -4    1    5    5    0  503  0.85969135872E+00 -0.57615631893E+02 -0.11214217364E+03  0.12608000324E+03  0.00000000000E+00 0.  1.
         -3    1    6    6    0  502  0.13177462756E+02 -0.17730068091E+02  0.85288698857E+02  0.88103138378E+02  0.00000000000E+00 0.  1.
<mgrwt>
<rscale>  0 0.16189435E+04</rscale>
<asrwt>0</asrwt>
<pdfrwt beam="1">  1        2 0.16621097E+00 0.16189435E+04</pdfrwt>
<pdfrwt beam="2">  1       -2 0.93307594E-01 0.16189435E+04</pdfrwt>
<totfact> 0.20856464E+01</totfact>
</mgrwt>
</event>
<event>
12    1  0.1663913E-007  0.2130912E+04  0.7818608E-02  0.8547747E-01
          2   -1    0    0  501    0  0.00000000000E+00  0.00000000000E+00  0.19804969437E+04  0.19804969437E+04  0.00000000000E+00 0.  1.
         -2   -1    0    0    0  501 -0.00000000000E+00 -0.00000000000E+00 -0.57318787070E+03  0.57318787070E+03  0.00000000000E+00 0. -1.
         23    2    1    2    0    0 -0.33268685589E+03  0.50172316297E+03  0.13673295419E+04  0.14968385691E+04  0.92352310871E+02 0.  0.
        254    2    1    2    0    0  0.33268685589E+03 -0.50172316297E+03  0.39979531086E+02  0.10568462453E+04  0.86770902208E+03 0.  0.
        -24    2    4    4    0    0  0.18175259002E+02 -0.41396642299E+03 -0.34575411953E+03  0.54517285456E+03  0.77259243951E+02 0.  0.
         24    2    4    4    0    0  0.31451159689E+03 -0.87756739979E+02  0.38573365062E+03  0.51167339076E+03  0.80002622466E+02 0.  0.
         11    1    3    3    0    0 -0.33947307366E+02  0.34744923048E+02  0.62700171424E+02  0.79315451531E+02  0.00000000000E+00 0. -1.
        -11    1    3    3    0    0 -0.29873954853E+03  0.46697823992E+03  0.13046293705E+04  0.14175231175E+04  0.00000000000E+00 0.  1.
          2    1    6    6  502    0  0.10935960797E+03 -0.63632405972E+02  0.11374394409E+03  0.17013609776E+03  0.00000000000E+00 0. -1.
          3    1    5    5  503    0  0.66198202179E+01 -0.11969481453E+01 -0.19886802035E+00  0.67301005245E+01  0.00000000000E+00 0. -1.
         -4    1    5    5    0  503  0.11555438784E+02 -0.41276947485E+03 -0.34555525151E+03  0.53844275404E+03  0.00000000000E+00 0.  1.
         -1    1    6    6    0  502  0.20515198892E+03 -0.24124334007E+02  0.27198970653E+03  0.34153729300E+03  0.00000000000E+00 0.  1.
<mgrwt>
<rscale>  0 0.21309123E+04</rscale>
<asrwt>0</asrwt>
<pdfrwt beam="1">  1        2 0.30469183E+00 0.21309123E+04</pdfrwt>
<pdfrwt beam="2">  1       -2 0.88182750E-01 0.21309123E+04</pdfrwt>
<totfact> 0.69743334E+00</totfact>
</mgrwt>
</event>
<event>
12    1  0.1663913E-007  0.1594736E+04  0.7818608E-02  0.8823788E-01
         -2   -1    0    0    0  501 -0.00000000000E+00  0.00000000000E+00  0.69130421048E+03  0.69130421048E+03  0.00000000000E+00 0.  1.
          2   -1    0    0  501    0  0.00000000000E+00 -0.00000000000E+00 -0.91970483178E+03  0.91970483178E+03  0.00000000000E+00 0. -1.
         23    2    1    2    0    0  0.44579540251E+03 -0.29430720766E+03 -0.12368798149E+03  0.55531743900E+03  0.87911705170E+02 0.  0.
        254    2    1    2    0    0 -0.44579540251E+03  0.29430720766E+03 -0.10471263981E+03  0.10556916033E+04  0.90452736326E+03 0.  0.
        -24    2    4    4    0    0  0.12659949176E+03  0.19792944186E+03 -0.34262748884E+03  0.42300148076E+03  0.79581162021E+02 0.  0.
         24    2    4    4    0    0 -0.57239489426E+03  0.96377765805E+02  0.23791484903E+03  0.63269012251E+03  0.82272273635E+02 0.  0.
         13    1    3    3    0    0  0.65006243342E+02 -0.16129928011E+02 -0.34652977163E+02  0.75410974515E+02  0.00000000000E+00 0. -1.
        -13    1    3    3    0    0  0.38078915917E+03 -0.27817727965E+03 -0.89035004331E+02  0.47990646448E+03  0.00000000000E+00 0.  1.
          2    1    6    6  502    0 -0.34086626136E+03  0.44035154097E+02  0.99064704140E+02  0.35769081416E+03  0.00000000000E+00 0. -1.
          3    1    5    5  503    0  0.94350610809E+02  0.10714229867E+03 -0.14688623426E+03  0.20483426407E+03  0.00000000000E+00 0. -1.
         -4    1    5    5    0  503  0.32248880947E+02  0.90787143187E+02 -0.19574125458E+03  0.21816721668E+03  0.00000000000E+00 0.  1.
         -1    1    6    6    0  502 -0.23152863291E+03  0.52342611709E+02  0.13885014489E+03  0.27499930835E+03  0.00000000000E+00 0.  1.
<mgrwt>
<rscale>  0 0.15947361E+04</rscale>
<asrwt>0</asrwt>
<pdfrwt beam="1">  1        2 0.14149305E+00 0.15947361E+04</pdfrwt>
<pdfrwt beam="2">  1       -2 0.10635449E+00 0.15947361E+04</pdfrwt>
<totfact> 0.19448223E+01</totfact>
</mgrwt>
</event>
<event>
12    1  0.1663913E-007  0.1830607E+04  0.7818608E-02  0.8690190E-01
          2   -1    0    0  501    0  0.00000000000E+00  0.00000000000E+00  0.13832029892E+04  0.13832029892E+04  0.00000000000E+00 0. -1.
         -2   -1    0    0    0  501 -0.00000000000E+00 -0.00000000000E+00 -0.60568148166E+03  0.60568148166E+03  0.00000000000E+00 0.  1.
         23    2    1    2    0    0  0.26881971298E+03 -0.48281247899E+03  0.75073180144E+03  0.93682505451E+03  0.93118296285E+02 0.  0.
        254    2    1    2    0    0 -0.26881971298E+03  0.48281247899E+03  0.26789706058E+02  0.10520594163E+04  0.89484043223E+03 0.  0.
        -24    2    4    4    0    0 -0.47333961738E+03  0.62635440572E+03  0.28277135173E+02  0.78963299875E+03  0.79689656747E+02 0.  0.
         24    2    4    4    0    0  0.20451990440E+03 -0.14354192673E+03 -0.14874291151E+01  0.26242641757E+03  0.80204340073E+02 0.  0.
         11    1    3    3    0    0  0.13434524561E+02 -0.36937188730E+02  0.21662978876E+02  0.44879026452E+02  0.00000000000E+00 0.  1.
        -11    1    3    3    0    0  0.25538518842E+03 -0.44587529026E+03  0.72906882257E+03  0.89194602806E+03  0.00000000000E+00 0. -1.
          2    1    6    6  502    0  0.80755147138E+01  0.17055452759E+01  0.15464591644E+02  0.17529301677E+02  0.00000000000E+00 0. -1.
          3    1    5    5  503    0 -0.14732011139E+03  0.16516604367E+03  0.39072682975E+02  0.22474365787E+03  0.00000000000E+00 0. -1.
         -4    1    5    5    0  503 -0.32601950599E+03  0.46118836205E+03 -0.10795547803E+02  0.56488934088E+03  0.00000000000E+00 0.  1.
         -1    1    6    6    0  502  0.19644438969E+03 -0.14524747200E+03 -0.16952020759E+02  0.24489711589E+03  0.00000000000E+00 0.  1.
<mgrwt>
<rscale>  0 0.18306069E+04</rscale>
<asrwt>0</asrwt>
<pdfrwt beam="1">  1        2 0.21280046E+00 0.18306069E+04</pdfrwt>
<pdfrwt beam="2">  1       -2 0.93181767E-01 0.18306069E+04</pdfrwt>
<totfact> 0.13586955E+01</totfact>
</mgrwt>
</event>
<event>
12    1  0.1663913E-007  0.1872366E+04  0.7818608E-02  0.8668735E-01
          1   -1    0    0  501    0  0.00000000000E+00  0.00000000000E+00  0.31366026618E+04  0.31366026618E+04  0.00000000000E+00 0. -1.
         -1   -1    0    0    0  501 -0.00000000000E+00 -0.00000000000E+00 -0.27942288384E+03  0.27942288384E+03  0.00000000000E+00 0.  1.
         23    2    1    2    0    0 -0.64506473709E+02 -0.53003640110E+03  0.22961083716E+03  0.58828366635E+03  0.90867287367E+02 0.  0.
        254    2    1    2    0    0  0.64506473709E+02  0.53003640110E+03  0.26275689408E+04  0.28277418793E+04  0.89827942513E+03 0.  0.
        -24    2    4    4    0    0 -0.88315867222E+02  0.68625386132E+03  0.24115770181E+04  0.25100099410E+04  0.75512481560E+02 0.  0.
         24    2    4    4    0    0  0.15282234093E+03 -0.15621746023E+03  0.21599192268E+03  0.31773193832E+03  0.80885791073E+02 0.  0.
         11    1    3    3    0    0 -0.87450133346E+02 -0.40364378764E+03  0.16906678445E+03  0.44627279855E+03  0.00000000000E+00 0.  1.
        -11    1    3    3    0    0  0.22943659637E+02 -0.12639261346E+03  0.60544052715E+02  0.14201086780E+03  0.00000000000E+00 0. -1.
          4    1    6    6  502    0  0.33201625145E+02 -0.46525506927E+01  0.63069701136E+02  0.71426755082E+02  0.00000000000E+00 0. -1.
          1    1    5    5  503    0  0.54228343932E+01  0.21133175060E+02  0.12213201915E+03  0.12406550013E+03  0.00000000000E+00 0. -1.
         -2    1    5    5    0  503 -0.93738701615E+02  0.66512068626E+03  0.22894449990E+04  0.23859444408E+04  0.00000000000E+00 0.  1.
         -3    1    6    6    0  502  0.11962071579E+03 -0.15156490953E+03  0.15292222154E+03  0.24630518323E+03  0.00000000000E+00 0.  1.
<mgrwt>
<rscale>  0 0.18723659E+04</rscale>
<asrwt>0</asrwt>
<pdfrwt beam="1">  1        1 0.48255423E+00 0.18723659E+04</pdfrwt>
<pdfrwt beam="2">  1       -1 0.42988138E-01 0.18723659E+04</pdfrwt>
<totfact> 0.23789148E+00</totfact>
</mgrwt>
</event>
<event>
12    1  0.1663913E-007  0.1285351E+04  0.7818608E-02  0.9041263E-01
          2   -1    0    0  501    0  0.00000000000E+00  0.00000000000E+00  0.10313466807E+04  0.10313466807E+04  0.00000000000E+00 0. -1.
         -2   -1    0    0    0  501 -0.00000000000E+00 -0.00000000000E+00 -0.40047801714E+03  0.40047801714E+03  0.00000000000E+00 0.  1.
         23    2    1    2    0    0  0.63016004942E+02  0.16683723408E+02 -0.18271382143E+03  0.21572364578E+03  0.94355642673E+02 0.  0.
        254    2    1    2    0    0 -0.63016004942E+02 -0.16683723408E+02  0.81358248500E+03  0.12161010521E+04  0.90151868835E+03 0.  0.
        -24    2    4    4    0    0 -0.18794345836E+03 -0.40610053591E+03  0.58478747579E+03  0.74074170369E+03  0.80507707299E+02 0.  0.
         24    2    4    4    0    0  0.12492745341E+03  0.38941681251E+03  0.22879500921E+03  0.47535934838E+03  0.79793680064E+02 0.  0.
         13    1    3    3    0    0  0.22927329407E+02 -0.29343542149E+02 -0.20726100773E+02  0.42617803238E+02  0.00000000000E+00 0. -1.
        -13    1    3    3    0    0  0.40088675535E+02  0.46027265557E+02 -0.16198772065E+03  0.17310584255E+03  0.00000000000E+00 0.  1.
          4    1    6    6  502    0  0.55648650147E+02  0.84104247733E+02  0.79997306748E+02  0.12872399091E+03  0.00000000000E+00 0. -1.
          1    1    5    5  503    0 -0.52718317759E+02 -0.73288878813E+02  0.76562236305E+02  0.11837337882E+03  0.00000000000E+00 0. -1.
         -2    1    5    5    0  503 -0.13522514060E+03 -0.33281165710E+03  0.50822523948E+03  0.62236832487E+03  0.00000000000E+00 0.  1.
         -3    1    6    6    0  502  0.69278803267E+02  0.30531256477E+03  0.14879770246E+03  0.34663535747E+03  0.00000000000E+00 0.  1.
<mgrwt>
<rscale>  0 0.12853508E+04</rscale>
<asrwt>0</asrwt>
<pdfrwt beam="1">  1        2 0.15866872E+00 0.12853508E+04</pdfrwt>
<pdfrwt beam="2">  1       -2 0.61612003E-01 0.12853508E+04</pdfrwt>
<totfact> 0.57783672E+01</totfact>
</mgrwt>
</event>
<event>
12    1  0.1663913E-007  0.1583378E+04  0.7818608E-02  0.8830825E-01
         -2   -1    0    0    0  501 -0.00000000000E+00  0.00000000000E+00  0.40019358569E+03  0.40019358569E+03  0.00000000000E+00 0.  1.
          2   -1    0    0  501    0  0.00000000000E+00 -0.00000000000E+00 -0.15661698999E+04  0.15661698999E+04  0.00000000000E+00 0. -1.
         23    2    1    2    0    0  0.98872155971E+02  0.24528019797E+03 -0.91154755344E+03  0.95345583463E+03  0.90669772695E+02 0.  0.
        254    2    1    2    0    0 -0.98872155971E+02 -0.24528019797E+03 -0.25442876082E+03  0.10129076510E+04  0.94409206987E+03 0.  0.
        -24    2    4    4    0    0 -0.47761774709E+03 -0.29814630819E+03 -0.25185507191E+03  0.62206878845E+03  0.80800166468E+02 0.  0.
         24    2    4    4    0    0  0.37874559112E+03  0.52866110224E+02 -0.25736889124E+01  0.39083886255E+03  0.80655714016E+02 0.  0.
         13    1    3    3    0    0  0.11191502791E+03  0.17856027855E+03 -0.71977850471E+03  0.74999322823E+03  0.00000000000E+00 0. -1.
        -13    1    3    3    0    0 -0.13042871938E+02  0.66719919419E+02 -0.19176904873E+03  0.20346260641E+03  0.00000000000E+00 0.  1.
          4    1    6    6  502    0  0.32547610839E+03  0.16442778061E+02  0.44895014665E+01  0.32592210374E+03  0.00000000000E+00 0. -1.
          1    1    5    5  503    0 -0.21531233448E+03 -0.10546910306E+03 -0.14152185494E+03  0.27840899501E+03  0.00000000000E+00 0. -1.
         -2    1    5    5    0  503 -0.26230541261E+03 -0.19267720513E+03 -0.11033321697E+03  0.34365979344E+03  0.00000000000E+00 0.  1.
         -3    1    6    6    0  502  0.53269482723E+02  0.36423332163E+02 -0.70631903789E+01  0.64916758805E+02  0.00000000000E+00 0.  1.
<mgrwt>
<rscale>  0 0.15833776E+04</rscale>
<asrwt>0</asrwt>
<pdfrwt beam="1">  1        2 0.24094922E+00 0.15833776E+04</pdfrwt>
<pdfrwt beam="2">  1       -2 0.61568244E-01 0.15833776E+04</pdfrwt>
<totfact> 0.27422385E+01</totfact>
</mgrwt>
</event>
<event>
12    1  0.1663913E-007  0.1560481E+04  0.7818608E-02  0.8845200E-01
          2   -1    0    0  501    0  0.00000000000E+00  0.00000000000E+00  0.77868034457E+03  0.77868034457E+03  0.00000000000E+00 0. -1.
         -2   -1    0    0    0  501 -0.00000000000E+00 -0.00000000000E+00 -0.78180421027E+03  0.78180421027E+03  0.00000000000E+00 0.  1.
         23    2    1    2    0    0  0.30206502452E+03  0.33887588524E+03  0.24546553550E+03  0.52412127578E+03  0.91485725513E+02 0.  0.
        254    2    1    2    0    0 -0.30206502452E+03 -0.33887588524E+03 -0.24858940120E+03  0.10363632791E+04  0.89787082098E+03 0.  0.
        -24    2    4    4    0    0 -0.36685634660E+03  0.21144967675E+03 -0.21464575892E+02  0.43244413799E+03  0.85162548228E+02 0.  0.
         24    2    4    4    0    0  0.64791322086E+02 -0.55032556199E+03 -0.22712482531E+03  0.60391914107E+03  0.77951928043E+02 0.  0.
         11    1    3    3    0    0  0.12505286988E+03  0.11825224702E+03  0.14133886351E+03  0.22270718114E+03  0.00000000000E+00 0. -1.
        -11    1    3    3    0    0  0.17701215464E+03  0.22062363822E+03  0.10412667198E+03  0.30141409464E+03  0.00000000000E+00 0.  1.
          4    1    6    6  502    0  0.46962347927E+02 -0.12228852798E+03 -0.59682560777E+02  0.14395122180E+03  0.00000000000E+00 0. -1.
          1    1    5    5  503    0 -0.60463400295E+01 -0.76759305260E+01 -0.70559555618E+00  0.97967342661E+01  0.00000000000E+00 0. -1.
         -2    1    5    5    0  503 -0.36081000657E+03  0.21912560728E+03 -0.20758980335E+02  0.42264740372E+03  0.00000000000E+00 0.  1.
         -3    1    6    6    0  502  0.17828974159E+02 -0.42803703401E+03 -0.16744226453E+03  0.45996791927E+03  0.00000000000E+00 0.  1.
<mgrwt>
<rscale>  0 0.15604814E+04</rscale>
<asrwt>0</asrwt>
<pdfrwt beam="1">  1        2 0.11979698E+00 0.15604814E+04</pdfrwt>
<pdfrwt beam="2">  1       -2 0.12027757E+00 0.15604814E+04</pdfrwt>
<totfact> 0.18128099E+01</totfact>
</mgrwt>
</event>
<event>
12    1  0.1663913E-007  0.2297904E+04  0.7818608E-02  0.8478748E-01
          1   -1    0    0  501    0  0.00000000000E+00  0.00000000000E+00  0.15592928269E+04  0.15592928269E+04  0.00000000000E+00 0. -1.
         -1   -1    0    0    0  501 -0.00000000000E+00 -0.00000000000E+00 -0.84659606350E+03  0.84659606350E+03  0.00000000000E+00 0.  1.
         23    2    1    2    0    0  0.90973602607E+02 -0.19802371969E+03 -0.68059031106E+03  0.71974788405E+03  0.85698629772E+02 0.  0.
        254    2    1    2    0    0 -0.90973602607E+02  0.19802371969E+03  0.13932870745E+04  0.16861410064E+04  0.92430137483E+03 0.  0.
        -24    2    4    4    0    0  0.12119329906E+03 -0.33767083907E+03  0.56517822096E+03  0.67418701281E+03  0.79951832349E+02 0.  0.
         24    2    4    4    0    0 -0.21216690167E+03  0.53569455877E+03  0.82810885353E+03  0.10119539936E+04  0.79392426229E+02 0.  0.
         13    1    3    3    0    0  0.90794941253E+01 -0.41994556202E+02 -0.54880568349E+02  0.69698326712E+02  0.00000000000E+00 0. -1.
        -13    1    3    3    0    0  0.81894108482E+02 -0.15602916349E+03 -0.62570974271E+03  0.65004955733E+03  0.00000000000E+00 0.  1.
          4    1    6    6  502    0 -0.17211887000E+03  0.34836293681E+03  0.58805922569E+03  0.70483706917E+03  0.00000000000E+00 0. -1.
          1    1    5    5  503    0  0.87825105485E+02 -0.13213181128E+03  0.22431632547E+03  0.27475421485E+03  0.00000000000E+00 0. -1.
         -2    1    5    5    0  503  0.33368193574E+02 -0.20553902779E+03  0.34086189549E+03  0.39943279796E+03  0.00000000000E+00 0.  1.
         -3    1    6    6    0  502 -0.40048031663E+02  0.18733162196E+03  0.24004962784E+03  0.30711692440E+03  0.00000000000E+00 0.  1.
<mgrwt>
<rscale>  0 0.22979044E+04</rscale>
<asrwt>0</asrwt>
<pdfrwt beam="1">  1        1 0.23989120E+00 0.22979044E+04</pdfrwt>
<pdfrwt beam="2">  1       -1 0.13024555E+00 0.22979044E+04</pdfrwt>
<totfact> 0.27159253E+00</totfact>
</mgrwt>
</event>
<event>
12    1  0.1663913E-007  0.2527795E+04  0.7818608E-02  0.8393150E-01
          2   -1    0    0  501    0  0.00000000000E+00  0.00000000000E+00  0.32357814978E+04  0.32357814978E+04  0.00000000000E+00 0. -1.
         -2   -1    0    0    0  501 -0.00000000000E+00 -0.00000000000E+00 -0.49367870585E+03  0.49367870585E+03  0.00000000000E+00 0.  1.
         23    2    1    2    0    0  0.34273347547E+03  0.66604680622E+03  0.23966698590E+04  0.25124160673E+04  0.84400821884E+02 0.  0.
        254    2    1    2    0    0 -0.34273347547E+03 -0.66604680622E+03  0.34543293293E+03  0.12170441364E+04  0.89486755189E+03 0.  0.
        -24    2    4    4    0    0 -0.33952022344E+03 -0.49383007062E+03 -0.20188501874E+03  0.63758835872E+03  0.81358672604E+02 0.  0.
         24    2    4    4    0    0 -0.32132520319E+01 -0.17221673561E+03  0.54731795167E+03  0.57945577765E+03  0.80889610074E+02 0.  0.
         11    1    3    3    0    0  0.29986888940E+02  0.11231161283E+03  0.43313720967E+03  0.44846510933E+03  0.00000000000E+00 0.  1.
        -11    1    3    3    0    0  0.31274658653E+03  0.55373519339E+03  0.19635326494E+04  0.20639509580E+04  0.00000000000E+00 0. -1.
          4    1    6    6  502    0 -0.20086555867E+02 -0.97497251121E+02  0.19537170776E+03  0.21926989737E+03  0.00000000000E+00 0. -1.
          1    1    5    5  503    0 -0.81365094278E+02 -0.65746010653E+02 -0.42258940986E+02  0.11282125056E+03  0.00000000000E+00 0. -1.
         -2    1    5    5    0  503 -0.25815512916E+03 -0.42808405996E+03 -0.15962607776E+03  0.52476710816E+03  0.00000000000E+00 0.  1.
         -3    1    6    6    0  502  0.16873303835E+02 -0.74719484486E+02  0.35194624391E+03  0.36018588027E+03  0.00000000000E+00 0.  1.
<mgrwt>
<rscale>  0 0.25277946E+04</rscale>
<asrwt>0</asrwt>
<pdfrwt beam="1">  1        2 0.49781253E+00 0.25277946E+04</pdfrwt>
<pdfrwt beam="2">  1       -2 0.75950572E-01 0.25277946E+04</pdfrwt>
<totfact> 0.16983038E+00</totfact>
</mgrwt>
</event>
<event>
12    1  0.1663913E-007  0.1070435E+04  0.7818608E-02  0.9234497E-01
          1   -1    0    0  501    0  0.00000000000E+00  0.00000000000E+00  0.19207492039E+03  0.19207492039E+03  0.00000000000E+00 0. -1.
         -1   -1    0    0    0  501 -0.00000000000E+00 -0.00000000000E+00 -0.14913859024E+04  0.14913859024E+04  0.00000000000E+00 0.  1.
         23    2    1    2    0    0  0.85323448582E+02 -0.70593060036E+02 -0.75627722019E+02  0.16176420292E+03  0.90468967079E+02 0.  0.
        254    2    1    2    0    0 -0.85323448582E+02  0.70593060036E+02 -0.12236832600E+04  0.15216966199E+04  0.89771733366E+03 0.  0.
        -24    2    4    4    0    0 -0.16418821144E+03 -0.38906863994E+03 -0.53957573231E+03  0.68984453300E+03  0.80070802727E+02 0.  0.
         24    2    4    4    0    0  0.78864762861E+02  0.45966169998E+03 -0.68410752768E+03  0.83185208688E+03  0.80413032283E+02 0.  0.
         13    1    3    3    0    0 -0.66747417805E+01 -0.16742323362E+02 -0.48537316752E+02  0.51775753851E+02  0.00000000000E+00 0.  1.
        -13    1    3    3    0    0  0.91998190363E+02 -0.53850736675E+02 -0.27090405268E+02  0.10998844907E+03  0.00000000000E+00 0. -1.
          2    1    6    6  502    0  0.85217554927E+02  0.45887712122E+03 -0.67234723319E+03  0.81846261126E+03  0.00000000000E+00 0. -1.
          1    1    5    5  503    0 -0.99659507887E+02 -0.31868405615E+03 -0.40650472407E+03  0.52605858595E+03  0.00000000000E+00 0. -1.
         -2    1    5    5    0  503 -0.64528703557E+02 -0.70384583790E+02 -0.13307100824E+03  0.16378594705E+03  0.00000000000E+00 0.  1.
         -1    1    6    6    0  502 -0.63527920658E+01  0.78457876119E+00 -0.11760294494E+02  0.13389475623E+02  0.00000000000E+00 0.  1.
<mgrwt>
<rscale>  0 0.10704351E+04</rscale>
<asrwt>0</asrwt>
<pdfrwt beam="1">  1        1 0.29549988E-01 0.10704351E+04</pdfrwt>
<pdfrwt beam="2">  1       -1 0.22944398E+00 0.10704351E+04</pdfrwt>
<totfact> 0.14949568E+01</totfact>
</mgrwt>
</event>
<event>
12    1  0.1663913E-007  0.1675107E+04  0.7818608E-02  0.8775690E-01
         -1   -1    0    0    0  501 -0.00000000000E+00  0.00000000000E+00  0.25109182208E+04  0.25109182208E+04  0.00000000000E+00 0.  1.
          1   -1    0    0  501    0  0.00000000000E+00 -0.00000000000E+00 -0.27937824696E+03  0.27937824696E+03  0.00000000000E+00 0. -1.
         23    2    1    2    0    0  0.25977783844E+03 -0.40002524413E+03  0.22536292365E+03  0.53542303505E+03  0.91567777202E+02 0.  0.
        254    2    1    2    0    0 -0.25977783844E+03  0.40002524413E+03  0.20061770502E+04  0.22548734327E+04  0.91225167553E+03 0.  0.
        -24    2    4    4    0    0 -0.31997330489E+02  0.58178861158E+03  0.17872203181E+04  0.18814269039E+04  0.78159528122E+02 0.  0.
         24    2    4    4    0    0 -0.22778050795E+03 -0.18176336745E+03  0.21895673213E+03  0.37344652877E+03  0.81230399198E+02 0.  0.
         13    1    3    3    0    0  0.23610038731E+03 -0.39275606773E+03  0.22531670567E+03  0.51065481441E+03  0.00000000000E+00 0. -1.
        -13    1    3    3    0    0  0.23677451133E+02 -0.72691763975E+01  0.46217983758E-01  0.24768220642E+02  0.00000000000E+00 0.  1.
          2    1    6    6  502    0 -0.10525615817E+03 -0.91580022870E+02  0.55521527508E+02  0.15016124479E+03  0.00000000000E+00 0. -1.
          3    1    5    5  503    0 -0.23333096062E+02  0.44391189348E+02  0.16914007295E+03  0.17641818314E+03  0.00000000000E+00 0. -1.
         -4    1    5    5    0  503 -0.86642344271E+01  0.53739742224E+03  0.16180802451E+04  0.17050087208E+04  0.00000000000E+00 0.  1.
         -1    1    6    6    0  502 -0.12252434979E+03 -0.90183344582E+02  0.16343520462E+03  0.22328528398E+03  0.00000000000E+00 0.  1.
<mgrwt>
<rscale>  0 0.16751071E+04</rscale>
<asrwt>0</asrwt>
<pdfrwt beam="1">  1        1 0.42981270E-01 0.16751071E+04</pdfrwt>
<pdfrwt beam="2">  1       -1 0.38629510E+00 0.16751071E+04</pdfrwt>
<totfact> 0.81723008E-01</totfact>
</mgrwt>
</event>
<event>
12    1  0.1663913E-007  0.2158927E+04  0.7818608E-02  0.8535721E-01
         -1   -1    0    0    0  501 -0.00000000000E+00  0.00000000000E+00  0.39866472041E+03  0.39866472041E+03  0.00000000000E+00 0.  1.
          1   -1    0    0  501    0  0.00000000000E+00 -0.00000000000E+00 -0.29228599333E+04  0.29228599333E+04  0.00000000000E+00 0. -1.
         23    2    1    2    0    0 -0.69267286139E+02  0.40797800950E+03  0.16897829740E+03  0.45284401711E+03  0.72594942510E+02 0.  0.
        254    2    1    2    0    0  0.69267286139E+02 -0.40797800950E+03 -0.26931735103E+04  0.28686806366E+04  0.89716276402E+03 0.  0.
        -24    2    4    4    0    0 -0.32054235919E+02  0.78149961496E+02  0.12799321460E+02  0.11635005193E+03  0.78984944336E+02 0.  0.
         24    2    4    4    0    0  0.10132152206E+03 -0.48612797099E+03 -0.27059728318E+04  0.27523305847E+04  0.80300847769E+02 0.  0.
         11    1    3    3    0    0 -0.47509634171E+02  0.10734787863E+03  0.63769408483E+02  0.13359367442E+03  0.00000000000E+00 0. -1.
        -11    1    3    3    0    0 -0.21757651968E+02  0.30063013086E+03  0.10520888892E+03  0.31925034269E+03  0.00000000000E+00 0.  1.
          2    1    6    6  502    0  0.96667990495E+02 -0.45759694521E+03 -0.26253043293E+04  0.26666387993E+04  0.00000000000E+00 0. -1.
          1    1    5    5  503    0 -0.27961702627E+02 -0.35387949625E+01  0.19518366534E+02  0.34283327081E+02  0.00000000000E+00 0. -1.
         -2    1    5    5    0  503 -0.40925332914E+01  0.81688756458E+02 -0.67190450742E+01  0.82066724847E+02  0.00000000000E+00 0.  1.
         -1    1    6    6    0  502  0.46535315625E+01 -0.28531025789E+02 -0.80668502507E+02  0.85691785401E+02  0.00000000000E+00 0.  1.
<mgrwt>
<rscale>  0 0.21589267E+04</rscale>
<asrwt>0</asrwt>
<pdfrwt beam="1">  1        1 0.44967076E+00 0.21589267E+04</pdfrwt>
<pdfrwt beam="2">  1       -1 0.61333034E-01 0.21589267E+04</pdfrwt>
<totfact> 0.16793333E+00</totfact>
</mgrwt>
</event>
<event>
12    1  0.1663913E-007  0.5335814E+04  0.7818608E-02  0.7778694E-01
          2   -1    0    0  501    0  0.00000000000E+00  0.00000000000E+00  0.35919930263E+04  0.35919930263E+04  0.00000000000E+00 0.  1.
         -2   -1    0    0    0  501 -0.00000000000E+00 -0.00000000000E+00 -0.19815535795E+04  0.19815535795E+04  0.00000000000E+00 0. -1.
         23    2    1    2    0    0 -0.14710724303E+03 -0.25065153702E+03 -0.19046555171E+04  0.19289459187E+04  0.93021419284E+02 0.  0.
        254    2    1    2    0    0  0.14710724303E+03  0.25065153702E+03  0.35150949640E+04  0.36446006871E+04  0.91801679112E+03 0.  0.
        -24    2    4    4    0    0  0.10971058195E+03 -0.43153325450E+02  0.29222711941E+02  0.14528745835E+03  0.79723631205E+02 0.  0.
         24    2    4    4    0    0  0.37396661085E+02  0.29380486247E+03  0.34858722520E+04  0.34993132288E+04  0.78536030015E+02 0.  0.
         11    1    3    3    0    0 -0.15208777865E+03 -0.25457809409E+03 -0.18150160996E+04  0.18390824180E+04  0.00000000000E+00 0. -1.
        -11    1    3    3    0    0  0.49805356201E+01  0.39265570725E+01 -0.89639417514E+02  0.89863500699E+02  0.00000000000E+00 0.  1.
          2    1    6    6  502    0  0.28887302256E+02  0.26005265057E+03  0.32886855372E+04  0.32990778136E+04  0.00000000000E+00 0. -1.
          1    1    5    5  503    0  0.12242981559E+03 -0.36234306064E+02  0.24135320856E+02  0.12994036476E+03  0.00000000000E+00 0. -1.
         -2    1    5    5    0  503 -0.12719233641E+02 -0.69190193858E+01  0.50873910859E+01  0.15347093593E+02  0.00000000000E+00 0.  1.
         -1    1    6    6    0  502  0.85093588297E+01  0.33752211897E+02  0.19718671480E+03  0.20023541517E+03  0.00000000000E+00 0.  1.
<mgrwt>
<rscale>  0 0.53358136E+04</rscale>
<asrwt>0</asrwt>
<pdfrwt beam="1">  1        2 0.55261431E+00 0.53358136E+04</pdfrwt>
<pdfrwt beam="2">  1       -2 0.30485440E+00 0.53358136E+04</pdfrwt>
<totfact> 0.14683535E-02</totfact>
</mgrwt>
</event>
<event>
12    1  0.1663913E-007  0.1405837E+04  0.7818608E-02  0.8949604E-01
         -1   -1    0    0    0  501 -0.00000000000E+00  0.00000000000E+00  0.74254532826E+03  0.74254532826E+03  0.00000000000E+00 0.  1.
          1   -1    0    0  501    0  0.00000000000E+00 -0.00000000000E+00 -0.66540627047E+03  0.66540627047E+03  0.00000000000E+00 0. -1.
         23    2    1    2    0    0 -0.23718415146E+03 -0.91947431815E+02 -0.29657256732E+03  0.40137777028E+03  0.91859538771E+02 0.  0.
        254    2    1    2    0    0  0.23718415146E+03  0.91947431815E+02  0.37371162511E+03  0.10065738285E+04  0.89934411739E+03 0.  0.
        -24    2    4    4    0    0  0.43455315429E+03 -0.19533584000E+03  0.42724116489E+03  0.64571982934E+03  0.86177437536E+02 0.  0.
         24    2    4    4    0    0 -0.19736900283E+03  0.28728327181E+03 -0.53529539780E+02  0.36085399912E+03  0.76576729538E+02 0.  0.
         13    1    3    3    0    0 -0.24352099773E+03 -0.79995810838E+02 -0.28703600113E+03  0.38482654798E+03  0.00000000000E+00 0. -1.
        -13    1    3    3    0    0  0.63368462731E+01 -0.11951620977E+02 -0.95365661945E+01  0.16551222295E+02  0.00000000000E+00 0.  1.
          2    1    6    6  502    0 -0.30565864723E+02  0.85573745502E+02  0.10267670410E+02  0.91447050588E+02  0.00000000000E+00 0. -1.
          1    1    5    5  503    0  0.13154413752E+03 -0.10395149795E+03  0.14521359640E+03  0.22180343239E+03  0.00000000000E+00 0. -1.
         -2    1    5    5    0  503  0.30300901677E+03 -0.91384342051E+02  0.28202756849E+03  0.42391639695E+03  0.00000000000E+00 0.  1.
         -1    1    6    6    0  502 -0.16680313811E+03  0.20170952631E+03 -0.63797210189E+02  0.26940694853E+03  0.00000000000E+00 0.  1.
<mgrwt>
<rscale>  0 0.14058369E+04</rscale>
<asrwt>0</asrwt>
<pdfrwt beam="1">  1        1 0.10237020E+00 0.14058369E+04</pdfrwt>
<pdfrwt beam="2">  1       -1 0.11423774E+00 0.14058369E+04</pdfrwt>
<totfact> 0.19999888E+01</totfact>
</mgrwt>
</event>
<event>
12    1  0.1663913E-007  0.2341179E+04  0.7818608E-02  0.8461859E-01
         -2   -1    0    0    0  501 -0.00000000000E+00  0.00000000000E+00  0.67110945306E+03  0.67110945306E+03  0.00000000000E+00 0.  1.
          2   -1    0    0  501    0  0.00000000000E+00 -0.00000000000E+00 -0.20418131087E+04  0.20418131087E+04  0.00000000000E+00 0. -1.
         23    2    1    2    0    0  0.47804214793E+03  0.12497691737E+03  0.41715521437E+03  0.65296738140E+03  0.90578160867E+02 0.  0.
        254    2    1    2    0    0 -0.47804214793E+03 -0.12497691737E+03 -0.17878588700E+04  0.20599551803E+04  0.89600919691E+03 0.  0.
        -24    2    4    4    0    0 -0.52955649877E+03 -0.23017392420E+02 -0.18358893855E+04  0.19124727543E+04  0.78117314061E+02 0.  0.
         24    2    4    4    0    0  0.51514350844E+02 -0.10195952495E+03  0.48030515471E+02  0.14748242599E+03  0.79966633599E+02 0.  0.
         11    1    3    3    0    0  0.38258200696E+03  0.72500220368E+02  0.35828651085E+03  0.52914506316E+03  0.00000000000E+00 0.  1.
        -11    1    3    3    0    0  0.95460140964E+02  0.52476697000E+02  0.58868703515E+02  0.12382231824E+03  0.00000000000E+00 0. -1.
          4    1    6    6  502    0  0.20549123523E+01 -0.31340199063E+02 -0.20364208728E+02  0.37431694314E+02  0.00000000000E+00 0. -1.
          1    1    5    5  503    0 -0.15755271848E+03  0.12472703879E+02 -0.44392961046E+03  0.47122386027E+03  0.00000000000E+00 0. -1.
         -2    1    5    5    0  503 -0.37200378029E+03 -0.35490096299E+02 -0.13919597750E+04  0.14412488941E+04  0.00000000000E+00 0.  1.
         -3    1    6    6    0  502  0.49459438492E+02 -0.70619325885E+02  0.68394724199E+02  0.11005073168E+03  0.00000000000E+00 0.  1.
<mgrwt>
<rscale>  0 0.23411793E+04</rscale>
<asrwt>0</asrwt>
<pdfrwt beam="1">  1        2 0.31412509E+00 0.23411793E+04</pdfrwt>
<pdfrwt beam="2">  1       -2 0.10324761E+00 0.23411793E+04</pdfrwt>
<totfact> 0.43788690E+00</totfact>
</mgrwt>
</event>
<event>
12    1  0.1663913E-007  0.2206559E+04  0.7818608E-02  0.8515703E-01
         -2   -1    0    0    0  501 -0.00000000000E+00  0.00000000000E+00  0.59495069423E+03  0.59495069423E+03  0.00000000000E+00 0.  1.
          2   -1    0    0  501    0  0.00000000000E+00 -0.00000000000E+00 -0.20459275616E+04  0.20459275616E+04  0.00000000000E+00 0. -1.
         23    2    1    2    0    0  0.22776854183E+03  0.87558653780E+03 -0.78758137555E+03  0.12024690182E+04  0.84362449338E+02 0.  0.
        254    2    1    2    0    0 -0.22776854183E+03 -0.87558653780E+03 -0.66339549179E+03  0.14384092376E+04  0.90022067427E+03 0.  0.
        -24    2    4    4    0    0 -0.38501494746E+03 -0.52577053931E+03 -0.78844626810E+03  0.10268166358E+04  0.89630999977E+02 0.  0.
         24    2    4    4    0    0  0.15724640564E+03 -0.34981599849E+03  0.12505077631E+03  0.41159260175E+03  0.81689095177E+02 0.  0.
         13    1    3    3    0    0  0.22309743981E+03  0.82492531640E+03 -0.71728399290E+03  0.11156928662E+04  0.00000000000E+00 0. -1.
        -13    1    3    3    0    0  0.46711020147E+01  0.50661221400E+02 -0.70297382646E+02  0.86776151992E+02  0.00000000000E+00 0.  1.
          2    1    6    6  502    0  0.14480086541E+03 -0.25699320153E+03  0.11789387781E+03  0.31766611824E+03  0.00000000000E+00 0. -1.
          3    1    5    5  503    0 -0.33145104950E+03 -0.49553905637E+03 -0.72045505115E+03  0.93513327143E+03  0.00000000000E+00 0. -1.
         -4    1    5    5    0  503 -0.53563897963E+02 -0.30231482945E+02 -0.67991216953E+02  0.91683364406E+02  0.00000000000E+00 0.  1.
         -1    1    6    6    0  502  0.12445540229E+02 -0.92822796958E+02  0.71568985038E+01  0.93926483501E+02  0.00000000000E+00 0.  1.
<mgrwt>
<rscale>  0 0.22065593E+04</rscale>
<asrwt>0</asrwt>
<pdfrwt beam="1">  1        2 0.31475809E+00 0.22065593E+04</pdfrwt>
<pdfrwt beam="2">  1       -2 0.91530876E-01 0.22065593E+04</pdfrwt>
<totfact> 0.58479081E+00</totfact>
</mgrwt>
</event>
<event>
12    1  0.1663913E-007  0.1980231E+04  0.7818608E-02  0.8615920E-01
          2   -1    0    0  501    0  0.00000000000E+00  0.00000000000E+00  0.96945777183E+03  0.96945777183E+03  0.00000000000E+00 0. -1.
         -2   -1    0    0    0  501 -0.00000000000E+00 -0.00000000000E+00 -0.10112129856E+04  0.10112129856E+04  0.00000000000E+00 0.  1.
         23    2    1    2    0    0  0.75178019384E+02 -0.40326257430E+03  0.64823240669E+03  0.77272780032E+03  0.92900817410E+02 0.  0.
        254    2    1    2    0    0 -0.75178019384E+02  0.40326257430E+03 -0.68998762043E+03  0.12079429571E+04  0.90264657137E+03 0.  0.
        -24    2    4    4    0    0  0.25284251817E+03 -0.14644921212E+03 -0.65383039345E+02  0.30998915973E+03  0.80259744542E+02 0.  0.
         24    2    4    4    0    0 -0.32802053756E+03  0.54971178641E+03 -0.62460458108E+03  0.89795379735E+03  0.80060091740E+02 0.  0.
         11    1    3    3    0    0 -0.19163791593E+02 -0.45577498853E+02  0.97070047640E+02  0.10893646524E+03  0.00000000000E+00 0.  1.
        -11    1    3    3    0    0  0.94341810977E+02 -0.35768507545E+03  0.55116235905E+03  0.66379133508E+03  0.00000000000E+00 0. -1.
          2    1    6    6  502    0 -0.14369043785E+03  0.31294485811E+03 -0.31269579807E+03  0.46514523353E+03  0.00000000000E+00 0. -1.
          3    1    5    5  503    0  0.58453806172E+02 -0.59240959676E+02  0.10369580371E+02  0.83868152217E+02  0.00000000000E+00 0. -1.
         -4    1    5    5    0  503  0.19438871200E+03 -0.87208252440E+02 -0.75752619716E+02  0.22612100752E+03  0.00000000000E+00 0.  1.
         -1    1    6    6    0  502 -0.18433009971E+03  0.23676692831E+03 -0.31190878301E+03  0.43280856382E+03  0.00000000000E+00 0.  1.
<mgrwt>
<rscale>  0 0.19802306E+04</rscale>
<asrwt>0</asrwt>
<pdfrwt beam="1">  1        2 0.14914735E+00 0.19802306E+04</pdfrwt>
<pdfrwt beam="2">  1       -2 0.15557123E+00 0.19802306E+04</pdfrwt>
<totfact> 0.66671330E+00</totfact>
</mgrwt>
</event>
<event>
12    1  0.1663913E-007  0.1895044E+04  0.7818608E-02  0.8657327E-01
         -1   -1    0    0    0  501 -0.00000000000E+00  0.00000000000E+00  0.30673608028E+03  0.30673608028E+03  0.00000000000E+00 0.  1.
          1   -1    0    0  501    0  0.00000000000E+00 -0.00000000000E+00 -0.29269392956E+04  0.29269392956E+04  0.00000000000E+00 0. -1.
         23    2    1    2    0    0 -0.42571184549E+03  0.46697533495E+03 -0.40039168105E+03  0.75396514338E+03  0.94092509467E+02 0.  0.
        254    2    1    2    0    0  0.42571184549E+03 -0.46697533495E+03 -0.22198115343E+04  0.24797102325E+04  0.90669898571E+03 0.  0.
        -24    2    4    4    0    0  0.14777715999E+03  0.18457379727E+03 -0.12579478074E+04  0.12825107499E+04  0.80595048978E+02 0.  0.
         24    2    4    4    0    0  0.27793468550E+03 -0.65154913222E+03 -0.96186372690E+03  0.11971994826E+04  0.79629208848E+02 0.  0.
         13    1    3    3    0    0 -0.34281034584E+02  0.83977862267E+02 -0.46452369515E+02  0.10190825932E+03  0.00000000000E+00 0. -1.
        -13    1    3    3    0    0 -0.39143081091E+03  0.38299747268E+03 -0.35393931153E+03  0.65205688406E+03  0.00000000000E+00 0.  1.
          2    1    6    6  502    0  0.26597492568E+03 -0.59483206047E+03 -0.91127865020E+03  0.11202663164E+04  0.00000000000E+00 0. -1.
          3    1    5    5  503    0  0.12364670314E+03  0.10154284621E+03 -0.91149125147E+03  0.92542733822E+03  0.00000000000E+00 0. -1.
         -4    1    5    5    0  503  0.24130456849E+02  0.83030951057E+02 -0.34645655591E+03  0.35708341171E+03  0.00000000000E+00 0.  1.
         -1    1    6    6    0  502  0.11959759817E+02 -0.56717071747E+02 -0.50585076697E+02  0.76933166234E+02  0.00000000000E+00 0.  1.
<mgrwt>
<rscale>  0 0.18950439E+04</rscale>
<asrwt>0</asrwt>
<pdfrwt beam="1">  1        1 0.45029833E+00 0.18950439E+04</pdfrwt>
<pdfrwt beam="2">  1       -1 0.47190168E-01 0.18950439E+04</pdfrwt>
<totfact> 0.28383210E+00</totfact>
</mgrwt>
</event>
<event>
12    1  0.1663913E-007  0.1585297E+04  0.7818608E-02  0.8829632E-01
          2   -1    0    0  501    0  0.00000000000E+00  0.00000000000E+00  0.51232094883E+03  0.51232094883E+03  0.00000000000E+00 0. -1.
         -2   -1    0    0    0  501 -0.00000000000E+00 -0.00000000000E+00 -0.12263636708E+04  0.12263636708E+04  0.00000000000E+00 0.  1.
         23    2    1    2    0    0 -0.32672254010E+03 -0.23941638942E+03 -0.61452986552E+03  0.74065142894E+03  0.82763263910E+02 0.  0.
        254    2    1    2    0    0  0.32672254010E+03  0.23941638942E+03 -0.99512856499E+02  0.99803319074E+03  0.90669709136E+03 0.  0.
        -24    2    4    4    0    0 -0.16615165098E+03  0.10163216835E+03  0.28386194957E+03  0.35368791439E+03  0.81129930387E+02 0.  0.
         24    2    4    4    0    0  0.49287419107E+03  0.13778422106E+03 -0.38337480607E+03  0.64434527635E+03  0.79341876862E+02 0.  0.
         11    1    3    3    0    0 -0.24339954221E+03 -0.13208386862E+03 -0.39296755149E+03  0.48074211592E+03  0.00000000000E+00 0.  1.
        -11    1    3    3    0    0 -0.83322997891E+02 -0.10733252080E+03 -0.22156231403E+03  0.25990931302E+03  0.00000000000E+00 0. -1.
          2    1    6    6  502    0  0.45802721105E+03  0.12104419196E+03 -0.37636696346E+03  0.60505595911E+03  0.00000000000E+00 0. -1.
          1    1    5    5  503    0 -0.96842758000E+02  0.10332794496E+03  0.18708406774E+03  0.23463936666E+03  0.00000000000E+00 0. -1.
         -2    1    5    5    0  503 -0.69308892978E+02 -0.16957766039E+01  0.96777881832E+02  0.11904854773E+03  0.00000000000E+00 0.  1.
         -1    1    6    6    0  502  0.34846980020E+02  0.16740029102E+02 -0.70078426080E+01  0.39289317236E+02  0.00000000000E+00 0.  1.
<mgrwt>
<rscale>  0 0.15852972E+04</rscale>
<asrwt>0</asrwt>
<pdfrwt beam="1">  1        2 0.78818607E-01 0.15852972E+04</pdfrwt>
<pdfrwt beam="2">  1       -2 0.18867133E+00 0.15852972E+04</pdfrwt>
<totfact> 0.90821265E+00</totfact>
</mgrwt>
</event>
<event>
12    1  0.1663913E-007  0.1441526E+04  0.7818608E-02  0.8924296E-01
          1   -1    0    0  501    0  0.00000000000E+00  0.00000000000E+00  0.22438489958E+03  0.22438489958E+03  0.00000000000E+00 0. -1.
         -1   -1    0    0    0  501 -0.00000000000E+00 -0.00000000000E+00 -0.23152160242E+04  0.23152160242E+04  0.00000000000E+00 0.  1.
         23    2    1    2    0    0  0.29568425083E+03  0.16388322064E+03 -0.11154316832E+04  0.11686375286E+04  0.85082001667E+02 0.  0.
        254    2    1    2    0    0 -0.29568425083E+03 -0.16388322064E+03 -0.97539944134E+03  0.13709633952E+04  0.90213617295E+03 0.  0.
        -24    2    4    4    0    0 -0.49619739585E+03 -0.30596563380E+03 -0.32760796443E+03  0.67338959291E+03  0.79370906311E+02 0.  0.
         24    2    4    4    0    0  0.20051314502E+03  0.14208241316E+03 -0.64779147691E+03  0.69757380227E+03  0.81132475581E+02 0.  0.
         11    1    3    3    0    0  0.25406134968E+02  0.17929498181E+02 -0.42885521846E+02  0.52972696581E+02  0.00000000000E+00 0.  1.
        -11    1    3    3    0    0  0.27027811586E+03  0.14595372246E+03 -0.10725461614E+04  0.11156648320E+04  0.00000000000E+00 0. -1.
          4    1    6    6  502    0  0.16852473242E+03  0.11976408576E+03 -0.60651253008E+03  0.64078192142E+03  0.00000000000E+00 0. -1.
          1    1    5    5  503    0 -0.49006408514E+03 -0.29941480746E+03 -0.33204929127E+03  0.66337679059E+03  0.00000000000E+00 0. -1.
         -2    1    5    5    0  503 -0.61333107091E+01 -0.65508263441E+01  0.44413268433E+01  0.10012802314E+02  0.00000000000E+00 0.  1.
         -3    1    6    6    0  502  0.31988412596E+02  0.22318327400E+02 -0.41278946830E+02  0.56791880844E+02  0.00000000000E+00 0.  1.
<mgrwt>
<rscale>  0 0.14415263E+04</rscale>
<asrwt>0</asrwt>
<pdfrwt beam="1">  1        1 0.34520754E-01 0.14415263E+04</pdfrwt>
<pdfrwt beam="2">  1       -1 0.35618708E+00 0.14415263E+04</pdfrwt>
<totfact> 0.17699445E+00</totfact>
</mgrwt>
</event>
<event>
12    1  0.1663913E-007  0.1473594E+04  0.7818608E-02  0.8902205E-01
         -2   -1    0    0    0  501 -0.00000000000E+00  0.00000000000E+00  0.20678103037E+03  0.20678103037E+03  0.00000000000E+00 0.  1.
          2   -1    0    0  501    0  0.00000000000E+00 -0.00000000000E+00 -0.26253356558E+04  0.26253356558E+04  0.00000000000E+00 0. -1.
         23    2    1    2    0    0 -0.14058278666E+03  0.14524738281E+03  0.16865285400E+02  0.22209443716E+03  0.90449870373E+02 0.  0.
        254    2    1    2    0    0  0.14058278666E+03 -0.14524738281E+03 -0.24354199109E+04  0.26100222490E+04  0.91656187794E+03 0.  0.
        -24    2    4    4    0    0 -0.12879202337E+03  0.18619764794E+03 -0.19209063864E+04  0.19359456707E+04  0.82142225055E+02 0.  0.
         24    2    4    4    0    0  0.26937481003E+03 -0.33144503075E+03 -0.51451352443E+03  0.67407657831E+03  0.85067443392E+02 0.  0.
         11    1    3    3    0    0 -0.17415549833E+02 -0.12406593438E+02  0.21861939826E+01  0.21494287168E+02  0.00000000000E+00 0. -1.
        -11    1    3    3    0    0 -0.12316723682E+03  0.15765397625E+03  0.14679091417E+02  0.20060015000E+03  0.00000000000E+00 0.  1.
          2    1    6    6  502    0  0.45186919418E+02 -0.10083449591E+03 -0.17013157884E+03  0.20286499789E+03  0.00000000000E+00 0. -1.
          3    1    5    5  503    0 -0.32515378924E+02  0.97473562260E+01 -0.15727564161E+03  0.16089713566E+03  0.00000000000E+00 0. -1.
         -4    1    5    5    0  503 -0.96276644446E+02  0.17645029171E+03 -0.17636307448E+04  0.17750485351E+04  0.00000000000E+00 0.  1.
         -1    1    6    6    0  502  0.22418789061E+03 -0.23061053485E+03 -0.34438194559E+03  0.47121158042E+03  0.00000000000E+00 0.  1.
<mgrwt>
<rscale>  0 0.14735937E+04</rscale>
<asrwt>0</asrwt>
<pdfrwt beam="1">  1        2 0.40389781E+00 0.14735937E+04</pdfrwt>
<pdfrwt beam="2">  1       -2 0.31812465E-01 0.14735937E+04</pdfrwt>
<totfact> 0.26252385E+01</totfact>
</mgrwt>
</event>
<event>
12    1  0.1663913E-007  0.1755107E+04  0.7818608E-02  0.8730544E-01
          2   -1    0    0  501    0  0.00000000000E+00  0.00000000000E+00  0.29753743518E+04  0.29753743518E+04  0.00000000000E+00 0. -1.
         -2   -1    0    0    0  501 -0.00000000000E+00 -0.00000000000E+00 -0.25882462436E+03  0.25882462436E+03  0.00000000000E+00 0.  1.
         23    2    1    2    0    0  0.21549475961E+03  0.71394541091E+02 -0.11077389039E+03  0.26795381492E+03  0.89404810954E+02 0.  0.
        254    2    1    2    0    0 -0.21549475961E+03 -0.71394541091E+02  0.28273236178E+04  0.29662451612E+04  0.86793798442E+03 0.  0.
        -24    2    4    4    0    0 -0.29517654885E+03  0.30043442374E+03  0.85693742818E+03  0.95793831316E+03  0.76902653018E+02 0.  0.
         24    2    4    4    0    0  0.79681789244E+02 -0.37182896483E+03  0.19703861896E+04  0.20083068481E+04  0.79175078857E+02 0.  0.
         11    1    3    3    0    0  0.37997791174E+02  0.33071760237E+02  0.79524235051E+01  0.50998181329E+02  0.00000000000E+00 0. -1.
        -11    1    3    3    0    0  0.17749696844E+03  0.38322780854E+02 -0.11872631389E+03  0.21695563359E+03  0.00000000000E+00 0.  1.
          4    1    6    6  502    0  0.61036553332E+02 -0.33333294061E+03  0.18439854039E+04  0.18748649231E+04  0.00000000000E+00 0. -1.
          1    1    5    5  503    0 -0.21103733554E+03  0.16352280805E+03  0.51310267137E+03  0.57840368007E+03  0.00000000000E+00 0. -1.
         -2    1    5    5    0  503 -0.84139213313E+02  0.13691161569E+03  0.34383475681E+03  0.37953463310E+03  0.00000000000E+00 0.  1.
         -3    1    6    6    0  502  0.18645235912E+02 -0.38496024225E+02  0.12640078574E+03  0.13344192496E+03  0.00000000000E+00 0.  1.
<mgrwt>
<rscale>  0 0.17551070E+04</rscale>
<asrwt>0</asrwt>
<pdfrwt beam="1">  1        2 0.45774988E+00 0.17551070E+04</pdfrwt>
<pdfrwt beam="2">  1       -2 0.39819175E-01 0.17551070E+04</pdfrwt>
<totfact> 0.10240966E+01</totfact>
</mgrwt>
</event>
<event>
12    1  0.1663913E-007  0.1755334E+04  0.7818608E-02  0.8730420E-01
         -2   -1    0    0    0  501 -0.00000000000E+00  0.00000000000E+00  0.12805684080E+04  0.12805684080E+04  0.00000000000E+00 0.  1.
          2   -1    0    0  501    0  0.00000000000E+00 -0.00000000000E+00 -0.60152944589E+03  0.60152944589E+03  0.00000000000E+00 0. -1.
         23    2    1    2    0    0  0.18866215371E+03  0.39312305469E+03  0.77628232446E+03  0.89504979140E+03  0.91437068283E+02 0.  0.
        254    2    1    2    0    0 -0.18866215371E+03 -0.39312305469E+03 -0.97243362297E+02  0.98704806253E+03  0.88015252193E+03 0.  0.
        -24    2    4    4    0    0 -0.68557651488E+02 -0.55243694241E+03 -0.34540201159E+03  0.65997693920E+03  0.79876678367E+02 0.  0.
         24    2    4    4    0    0 -0.12010450222E+03  0.15931388772E+03  0.24815864929E+03  0.32707112333E+03  0.74744887628E+02 0.  0.
         13    1    3    3    0    0 -0.14253570894E+01  0.41008967140E+02  0.41409665105E+02  0.58296890078E+02  0.00000000000E+00 0. -1.
        -13    1    3    3    0    0  0.19008751080E+03  0.35211408755E+03  0.73487265935E+03  0.83675290133E+03  0.00000000000E+00 0.  1.
          2    1    6    6  502    0 -0.73869221354E+02  0.10613444556E+03  0.21082998150E+03  0.24732663321E+03  0.00000000000E+00 0. -1.
          3    1    5    5  503    0 -0.85588319830E+02 -0.44999449191E+03 -0.27095248525E+03  0.53219888435E+03  0.00000000000E+00 0. -1.
         -2    1    5    5    0  503  0.17030668342E+02 -0.10244245050E+03 -0.74449526337E+02  0.12777805485E+03  0.00000000000E+00 0.  1.
         -1    1    6    6    0  502 -0.46235280868E+02  0.53179442165E+02  0.37328667793E+02  0.79744490124E+02  0.00000000000E+00 0.  1.
<mgrwt>
<rscale>  0 0.17553343E+04</rscale>
<asrwt>0</asrwt>
<pdfrwt beam="1">  1        2 0.92542992E-01 0.17553343E+04</pdfrwt>
<pdfrwt beam="2">  1       -2 0.19701052E+00 0.17553343E+04</pdfrwt>
<totfact> 0.65139150E+00</totfact>
</mgrwt>
</event>
<event>
12    1  0.1663913E-007  0.1906238E+04  0.7818608E-02  0.8651758E-01
          2   -1    0    0  501    0  0.00000000000E+00  0.00000000000E+00  0.98070478598E+03  0.98070478598E+03  0.00000000000E+00 0. -1.
         -2   -1    0    0    0  501 -0.00000000000E+00 -0.00000000000E+00 -0.92630918708E+03  0.92630918708E+03  0.00000000000E+00 0.  1.
         23    2    1    2    0    0  0.44634113928E+03  0.52324517457E+03 -0.24784168874E+03  0.73641135099E+03  0.88714428775E+02 0.  0.
        254    2    1    2    0    0 -0.44634113928E+03 -0.52324517457E+03  0.30223728764E+03  0.11706026221E+04  0.89775118792E+03 0.  0.
        -24    2    4    4    0    0 -0.56834344318E+03  0.10695602211E+02  0.18590303101E+03  0.60357022402E+03  0.81292146420E+02 0.  0.
         24    2    4    4    0    0  0.12200230390E+03 -0.53394077678E+03  0.11633425663E+03  0.56703239805E+03  0.89525224964E+02 0.  0.
         11    1    3    3    0    0  0.33570686346E+02  0.27558925250E+02  0.47077620422E+01  0.43688080367E+02  0.00000000000E+00 0. -1.
        -11    1    3    3    0    0  0.41277045294E+03  0.49568624932E+03 -0.25254945078E+03  0.69272327063E+03  0.00000000000E+00 0.  1.
          2    1    6    6  502    0  0.89806788779E+02 -0.23112126972E+03  0.25588652359E+02  0.24927310276E+03  0.00000000000E+00 0. -1.
          1    1    5    5  503    0 -0.55198633920E+03  0.10731038537E+02  0.19417319877E+03  0.58524123657E+03  0.00000000000E+00 0. -1.
         -2    1    5    5    0  503 -0.16357103978E+02 -0.35436326346E-01 -0.82701677612E+01  0.18328987454E+02  0.00000000000E+00 0.  1.
         -1    1    6    6    0  502  0.32195515119E+02 -0.30281950705E+03  0.90745604274E+02  0.31775929529E+03  0.00000000000E+00 0.  1.
<mgrwt>
<rscale>  0 0.19062380E+04</rscale>
<asrwt>0</asrwt>
<pdfrwt beam="1">  1        2 0.15087766E+00 0.19062380E+04</pdfrwt>
<pdfrwt beam="2">  1       -2 0.14250911E+00 0.19062380E+04</pdfrwt>
<totfact> 0.83201012E+00</totfact>
</mgrwt>
</event>
<event>
12    1  0.1663913E-007  0.2264825E+04  0.7818608E-02  0.8491921E-01
          2   -1    0    0  501    0  0.00000000000E+00  0.00000000000E+00  0.11687429922E+04  0.11687429922E+04  0.00000000000E+00 0. -1.
         -2   -1    0    0    0  501 -0.00000000000E+00 -0.00000000000E+00 -0.10972116418E+04  0.10972116418E+04  0.00000000000E+00 0.  1.
         23    2    1    2    0    0  0.54464470432E+03 -0.55161320726E+03  0.55048445806E+03  0.95482402829E+03  0.87981828026E+02 0.  0.
        254    2    1    2    0    0 -0.54464470432E+03  0.55161320726E+03 -0.47895310771E+03  0.13111306057E+04  0.94273665545E+03 0.  0.
        -24    2    4    4    0    0 -0.54802275323E+03  0.76691431903E+03 -0.51479623268E+03  0.10771795045E+04  0.82547035187E+02 0.  0.
         24    2    4    4    0    0  0.33780489055E+01 -0.21530111177E+03  0.35843124970E+02  0.23395110119E+03  0.84157044848E+02 0.  0.
         11    1    3    3    0    0  0.70646856474E+02 -0.93369907193E+02  0.51084264716E+02  0.12774396268E+03  0.00000000000E+00 0. -1.
        -11    1    3    3    0    0  0.47399784785E+03 -0.45824330007E+03  0.49940019334E+03  0.82708006561E+03  0.00000000000E+00 0.  1.
          4    1    6    6  502    0 -0.18524573471E+01 -0.18866010780E+03 -0.39651286593E+00  0.18866961890E+03  0.00000000000E+00 0. -1.
          3    1    5    5  503    0 -0.47506050610E+03  0.64947121753E+03 -0.40629520577E+03  0.90142727998E+03  0.00000000000E+00 0. -1.
         -4    1    5    5    0  503 -0.72962247125E+02  0.11744310150E+03 -0.10850102691E+03  0.17575222455E+03  0.00000000000E+00 0.  1.
         -3    1    6    6    0  502  0.52305062527E+01 -0.26641003973E+02  0.36239637836E+02  0.45281482295E+02  0.00000000000E+00 0.  1.
<mgrwt>
<rscale>  0 0.22648253E+04</rscale>
<asrwt>0</asrwt>
<pdfrwt beam="1">  1        2 0.17980661E+00 0.22648253E+04</pdfrwt>
<pdfrwt beam="2">  1       -2 0.16880179E+00 0.22648253E+04</pdfrwt>
<totfact> 0.39089891E+00</totfact>
</mgrwt>
</event>
<event>
12    1  0.1663913E-007  0.1330986E+04  0.7818608E-02  0.9005348E-01
          1   -1    0    0  501    0  0.00000000000E+00  0.00000000000E+00  0.29693450549E+04  0.29693450549E+04  0.00000000000E+00 0. -1.
         -1   -1    0    0    0  501 -0.00000000000E+00 -0.00000000000E+00 -0.14915095441E+03  0.14915095441E+03  0.00000000000E+00 0.  1.
         23    2    1    2    0    0  0.15886523365E+03 -0.19647544908E+03  0.20117412305E+03  0.33572059777E+03  0.91632567511E+02 0.  0.
        254    2    1    2    0    0 -0.15886523365E+03  0.19647544908E+03  0.26190199775E+04  0.27827754116E+04  0.90594292553E+03 0.  0.
        -24    2    4    4    0    0  0.13047445732E+03  0.36054834280E+03  0.49335076964E+03  0.62978480092E+03  0.78836679646E+02 0.  0.
         24    2    4    4    0    0 -0.28933969097E+03 -0.16407289372E+03  0.21256692078E+04  0.21529906106E+04  0.79130381102E+02 0.  0.
         13    1    3    3    0    0  0.16069572913E+03 -0.16236454399E+03  0.19633638889E+03  0.30121975385E+03  0.00000000000E+00 0.  1.
        -13    1    3    3    0    0 -0.18304954833E+01 -0.34110905084E+02  0.48377341631E+01  0.34500843920E+02  0.00000000000E+00 0. -1.
          2    1    6    6  502    0 -0.26615484968E+02 -0.46085273094E+02  0.28497011787E+03  0.28989688601E+03  0.00000000000E+00 0. -1.
          1    1    5    5  503    0  0.71776342832E+01 -0.20847277434E+01  0.43945223219E+01  0.86704296378E+01  0.00000000000E+00 0. -1.
         -2    1    5    5    0  503  0.12329682304E+03  0.36263307054E+03  0.48895624732E+03  0.62111437128E+03  0.00000000000E+00 0.  1.
         -3    1    6    6    0  502 -0.26272420601E+03 -0.11798762063E+03  0.18406990899E+04  0.18630937246E+04  0.00000000000E+00 0.  1.
<mgrwt>
<rscale>  0 0.13309856E+04</rscale>
<asrwt>0</asrwt>
<pdfrwt beam="1">  1        1 0.45682227E+00 0.13309856E+04</pdfrwt>
<pdfrwt beam="2">  1       -1 0.22946303E-01 0.13309856E+04</pdfrwt>
<totfact> 0.10094804E+01</totfact>
</mgrwt>
</event>
<event>
12    1  0.1859508E-007  0.2004588E+04  0.7818608E-02  0.8604479E-01
         -2   -1    0    0    0  501 -0.00000000000E+00  0.00000000000E+00  0.59468016578E+03  0.59468016578E+03  0.00000000000E+00 0.  1.
          2   -1    0    0  501    0  0.00000000000E+00 -0.00000000000E+00 -0.16893002793E+04  0.16893002793E+04  0.00000000000E+00 0. -1.
         23    2    1    2    0    0 -0.22287317311E+03 -0.37438112863E+03 -0.11692530515E+04  0.12508546761E+04  0.87470232907E+02 0.  0.
        254    2    1    2    0    0  0.22287317311E+03  0.37438112863E+03  0.74632937982E+02  0.10331257689E+04  0.93378000526E+03 0.  0.
        -24    2    4    4    0    0  0.48457276466E+03  0.26076828202E+02  0.25581837097E+03  0.55455035043E+03  0.81192900024E+02 0.  0.
         24    2    4    4    0    0 -0.26169959156E+03  0.34830430043E+03 -0.18118543299E+03  0.47857541850E+03  0.80023172553E+02 0.  0.
         11    1    3    3    0    0 -0.21365019843E+03 -0.37687591742E+03 -0.11238819674E+04  0.12044884977E+04  0.00000000000E+00 0.  1.
        -11    1    3    3    0    0 -0.92229746710E+01  0.24947887879E+01 -0.45371084070E+02  0.46366178434E+02  0.00000000000E+00 0. -1.
          4    1    6    6  502    0 -0.41333450949E+02  0.98994091077E+02 -0.21119638852E+02  0.10933582844E+03  0.00000000000E+00 0. -1.
          1    1    5    5  503    0  0.28211957942E+02  0.21516032199E+02  0.14913462977E+02  0.38487213338E+02  0.00000000000E+00 0. -1.
         -2    1    5    5    0  503  0.45636080672E+03  0.45607960035E+01  0.24090490800E+03  0.51606313709E+03  0.00000000000E+00 0.  1.
         -3    1    6    6    0  502 -0.22036614061E+03  0.24931020935E+03 -0.16006579414E+03  0.36923959006E+03  0.00000000000E+00 0.  1.
<mgrwt>
<rscale>  0 0.20045881E+04</rscale>
<asrwt>0</asrwt>
<pdfrwt beam="1">  1        2 0.25989235E+00 0.20045881E+04</pdfrwt>
<pdfrwt beam="2">  1       -2 0.91489258E-01 0.20045881E+04</pdfrwt>
<totfact> 0.93946007E+00</totfact>
</mgrwt>
</event>
<event>
12    1  0.1663913E-007  0.1521412E+04  0.7818608E-02  0.8870338E-01
         -2   -1    0    0    0  501 -0.00000000000E+00  0.00000000000E+00  0.76414821250E+03  0.76414821250E+03  0.00000000000E+00 0.  1.
          2   -1    0    0  501    0  0.00000000000E+00 -0.00000000000E+00 -0.75727931218E+03  0.75727931218E+03  0.00000000000E+00 0. -1.
         23    2    1    2    0    0  0.26182155839E+03  0.38581174767E+03  0.16584956118E+03  0.50315104631E+03  0.90849685646E+02 0.  0.
        254    2    1    2    0    0 -0.26182155839E+03 -0.38581174767E+03 -0.15898066085E+03  0.10182764784E+04  0.89118511141E+03 0.  0.
        -24    2    4    4    0    0  0.18410941149E+03  0.47367609948E+02 -0.31258905042E+03  0.37295278673E+03  0.72400972485E+02 0.  0.
         24    2    4    4    0    0 -0.44593096987E+03 -0.43317935762E+03  0.15360838956E+03  0.64532369165E+03  0.79676495240E+02 0.  0.
         11    1    3    3    0    0  0.15540309545E+03  0.16405590775E+03  0.50841873201E+02  0.23162331276E+03  0.00000000000E+00 0. -1.
        -11    1    3    3    0    0  0.10641846294E+03  0.22175583992E+03  0.11500768797E+03  0.27152773355E+03  0.00000000000E+00 0.  1.
          2    1    6    6  502    0 -0.35674073480E+02 -0.11318957326E+02  0.11620010341E+01  0.37444740084E+02  0.00000000000E+00 0. -1.
          3    1    5    5  503    0  0.58340741297E+01  0.22622294747E+02 -0.39308442196E+02  0.45726997151E+02  0.00000000000E+00 0. -1.
         -4    1    5    5    0  503  0.17827533736E+03  0.24745315201E+02 -0.27328060822E+03  0.32722578958E+03  0.00000000000E+00 0.  1.
         -1    1    6    6    0  502 -0.41025689639E+03 -0.42186040029E+03  0.15244638853E+03  0.60787895156E+03  0.00000000000E+00 0.  1.
<mgrwt>
<rscale>  0 0.15214120E+04</rscale>
<asrwt>0</asrwt>
<pdfrwt beam="1">  1        2 0.11650451E+00 0.15214120E+04</pdfrwt>
<pdfrwt beam="2">  1       -2 0.11756126E+00 0.15214120E+04</pdfrwt>
<totfact> 0.19956198E+01</totfact>
</mgrwt>
</event>
<event>
12    1  0.1663913E-007  0.1209748E+04  0.7818608E-02  0.9104367E-01
         -4   -1    0    0    0  501 -0.00000000000E+00  0.00000000000E+00  0.18083195233E+04  0.18083195233E+04  0.00000000000E+00 0.  1.
          4   -1    0    0  501    0  0.00000000000E+00 -0.00000000000E+00 -0.20232727676E+03  0.20232727676E+03  0.00000000000E+00 0. -1.
         23    2    1    2    0    0 -0.61086024712E+02 -0.34670811749E+02  0.76347371529E+03  0.77241729528E+03  0.93823219467E+02 0.  0.
        254    2    1    2    0    0  0.61086024712E+02  0.34670811749E+02  0.84251853125E+03  0.12382295048E+04  0.90467743611E+03 0.  0.
        -24    2    4    4    0    0  0.27731839374E+03  0.37131646816E+03  0.30087861115E+03  0.55925119465E+03  0.86328147363E+02 0.  0.
         24    2    4    4    0    0 -0.21623236903E+03 -0.33664565642E+03  0.54163992009E+03  0.67897831013E+03  0.86896531539E+02 0.  0.
         11    1    3    3    0    0 -0.25168264145E+02 -0.60385382148E+02  0.31183500784E+03  0.31862345804E+03  0.00000000000E+00 0.  1.
        -11    1    3    3    0    0 -0.35917760567E+02  0.25714570399E+02  0.45163870745E+03  0.45379383724E+03  0.00000000000E+00 0. -1.
          2    1    6    6  502    0 -0.17050043712E+03 -0.30646412192E+03  0.43218083778E+03  0.55657069059E+03  0.00000000000E+00 0. -1.
          1    1    5    5  503    0  0.17978207562E+03  0.18834467304E+03  0.20195657317E+03  0.32951747757E+03  0.00000000000E+00 0. -1.
         -2    1    5    5    0  503  0.97536318118E+02  0.18297179512E+03  0.98922037983E+02  0.22973371708E+03  0.00000000000E+00 0.  1.
         -1    1    6    6    0  502 -0.45731931904E+02 -0.30181534494E+02  0.10945908232E+03  0.12240761954E+03  0.00000000000E+00 0.  1.
<mgrwt>
<rscale>  0 0.12097477E+04</rscale>
<asrwt>0</asrwt>
<pdfrwt beam="1">  1        4 0.31127275E-01 0.12097477E+04</pdfrwt>
<pdfrwt beam="2">  1       -4 0.27820299E+00 0.12097477E+04</pdfrwt>
<totfact> 0.84019130E-01</totfact>
</mgrwt>
</event>
<event>
12    1  0.1663913E-007  0.1088283E+04  0.7818608E-02  0.9216688E-01
          1   -1    0    0  501    0  0.00000000000E+00  0.00000000000E+00  0.69633091791E+03  0.69633091791E+03  0.00000000000E+00 0. -1.
         -1   -1    0    0    0  501 -0.00000000000E+00 -0.00000000000E+00 -0.42521471725E+03  0.42521471725E+03  0.00000000000E+00 0.  1.
         23    2    1    2    0    0 -0.44638906895E+02  0.39770610547E+02  0.22301944887E+03  0.24792172531E+03  0.90294926954E+02 0.  0.
        254    2    1    2    0    0  0.44638906895E+02 -0.39770610547E+02  0.48096751797E+02  0.87362390986E+03  0.87024772615E+03 0.  0.
        -24    2    4    4    0    0  0.34628967285E+03 -0.30122305318E+03  0.19970754533E+02  0.46561212265E+03  0.75788867475E+02 0.  0.
         24    2    4    4    0    0 -0.30165076595E+03  0.26145244263E+03  0.28125997264E+02  0.40801178721E+03  0.79573754589E+02 0.  0.
         11    1    3    3    0    0  0.66044246245E+01  0.48691687110E+02  0.15299921332E+03  0.16069616702E+03  0.00000000000E+00 0. -1.
        -11    1    3    3    0    0 -0.51243331520E+02 -0.89210765634E+01  0.70020235546E+02  0.87225558285E+02  0.00000000000E+00 0.  1.
          4    1    6    6  502    0 -0.65534796190E+02  0.86792788515E+02  0.34962144909E+02  0.11423724973E+03  0.00000000000E+00 0. -1.
          1    1    5    5  503    0  0.77847266403E+02 -0.30430333451E+02 -0.28212585856E+01  0.83631104144E+02  0.00000000000E+00 0. -1.
         -2    1    5    5    0  503  0.26844240645E+03 -0.27079271973E+03  0.22792013118E+02  0.38198101851E+03  0.00000000000E+00 0.  1.
         -3    1    6    6    0  502 -0.23611596976E+03  0.17465965412E+03 -0.68361476448E+01  0.29377453747E+03  0.00000000000E+00 0.  1.
<mgrwt>
<rscale>  0 0.10882833E+04</rscale>
<asrwt>0</asrwt>
<pdfrwt beam="1">  1        1 0.10712783E+00 0.10882833E+04</pdfrwt>
<pdfrwt beam="2">  1       -1 0.65417649E-01 0.10882833E+04</pdfrwt>
<totfact> 0.64893012E+01</totfact>
</mgrwt>
</event>
<event>
12    1  0.1663913E-007  0.2048596E+04  0.7818608E-02  0.8584231E-01
         -2   -1    0    0    0  501 -0.00000000000E+00  0.00000000000E+00  0.53754276068E+03  0.53754276068E+03  0.00000000000E+00 0.  1.
          2   -1    0    0  501    0  0.00000000000E+00 -0.00000000000E+00 -0.19518198524E+04  0.19518198524E+04  0.00000000000E+00 0. -1.
         23    2    1    2    0    0 -0.63568190469E+03 -0.19021076295E+03  0.18307966567E+02  0.67002038282E+03  0.91216848566E+02 0.  0.
        254    2    1    2    0    0  0.63568190469E+03  0.19021076295E+03 -0.14325850583E+04  0.18193422302E+04  0.90412088975E+03 0.  0.
        -24    2    4    4    0    0  0.36540054736E+03 -0.99589258782E+02 -0.13533167729E+04  0.14075651986E+04  0.79611054756E+02 0.  0.
         24    2    4    4    0    0  0.27028135733E+03  0.28980002173E+03 -0.79268285347E+02  0.41177703162E+03  0.78998721438E+02 0.  0.
         11    1    3    3    0    0 -0.17942666697E+03 -0.22768425925E+02  0.32697626165E+02  0.18379734708E+03  0.00000000000E+00 0. -1.
        -11    1    3    3    0    0 -0.45625523772E+03 -0.16744233702E+03 -0.14389659598E+02  0.48622303574E+03  0.00000000000E+00 0.  1.
          4    1    6    6  502    0  0.62019911504E+02  0.51317510788E+02 -0.47748787267E+02  0.93594353579E+02  0.00000000000E+00 0. -1.
          3    1    5    5  503    0  0.10077706035E+03  0.66629043683E+01 -0.31435167870E+03  0.33017781283E+03  0.00000000000E+00 0. -1.
         -4    1    5    5    0  503  0.26462348701E+03 -0.10625216315E+03 -0.10389650942E+04  0.10773873858E+04  0.00000000000E+00 0.  1.
         -3    1    6    6    0  502  0.20826144583E+03  0.23848251094E+03 -0.31519498080E+02  0.31818267804E+03  0.00000000000E+00 0.  1.
<mgrwt>
<rscale>  0 0.20485962E+04</rscale>
<asrwt>0</asrwt>
<pdfrwt beam="1">  1        2 0.30027998E+00 0.20485962E+04</pdfrwt>
<pdfrwt beam="2">  1       -2 0.82698885E-01 0.20485962E+04</pdfrwt>
<totfact> 0.84332481E+00</totfact>
</mgrwt>
</event>
<event>
12    1  0.1663913E-007  0.1717942E+04  0.7818608E-02  0.8751197E-01
         -2   -1    0    0    0  501 -0.00000000000E+00  0.00000000000E+00  0.69305876534E+03  0.69305876534E+03  0.00000000000E+00 0.  1.
          2   -1    0    0  501    0  0.00000000000E+00 -0.00000000000E+00 -0.10646011166E+04  0.10646011166E+04  0.00000000000E+00 0. -1.
         23    2    1    2    0    0  0.97444006388E+02 -0.22261183838E+03 -0.72837287973E+03  0.77316796437E+03  0.90610618718E+02 0.  0.
        254    2    1    2    0    0 -0.97444006388E+02  0.22261183838E+03  0.35683052849E+03  0.98449191755E+03  0.88478525343E+03 0.  0.
        -24    2    4    4    0    0 -0.12706987981E+03  0.24033636802E+02 -0.27631015207E+03  0.31551177247E+03  0.80473650195E+02 0.  0.
         24    2    4    4    0    0  0.29625873424E+02  0.19857820158E+03  0.63314068057E+03  0.66898014508E+03  0.79726523808E+02 0.  0.
         13    1    3    3    0    0  0.32303486663E+02 -0.17073744864E+03 -0.44188458512E+03  0.47482289139E+03  0.00000000000E+00 0. -1.
        -13    1    3    3    0    0  0.65140519725E+02 -0.51874389740E+02 -0.28648829461E+03  0.29834507298E+03  0.00000000000E+00 0.  1.
          2    1    6    6  502    0  0.89451216489E+01  0.94285126741E+01  0.74143812154E+01  0.14962790561E+02  0.00000000000E+00 0. -1.
          1    1    5    5  503    0 -0.38858641208E+02  0.44069883406E+02 -0.78995718724E+02  0.98450353969E+02  0.00000000000E+00 0. -1.
         -2    1    5    5    0  503 -0.88211238604E+02 -0.20036246604E+02 -0.19731443335E+03  0.21706141850E+03  0.00000000000E+00 0.  1.
         -1    1    6    6    0  502  0.20680751776E+02  0.18914968890E+03  0.62572629935E+03  0.65401735451E+03  0.00000000000E+00 0.  1.
<mgrwt>
<rscale>  0 0.17179419E+04</rscale>
<asrwt>0</asrwt>
<pdfrwt beam="1">  1        2 0.16378479E+00 0.17179419E+04</pdfrwt>
<pdfrwt beam="2">  1       -2 0.10662443E+00 0.17179419E+04</pdfrwt>
<totfact> 0.15430725E+01</totfact>
</mgrwt>
</event>
<event>
12    1  0.1663913E-007  0.2428877E+04  0.7818608E-02  0.8428771E-01
         -1   -1    0    0    0  501 -0.00000000000E+00  0.00000000000E+00  0.69122852970E+03  0.69122852970E+03  0.00000000000E+00 0.  1.
          1   -1    0    0  501    0  0.00000000000E+00 -0.00000000000E+00 -0.21336802154E+04  0.21336802154E+04  0.00000000000E+00 0. -1.
         23    2    1    2    0    0  0.53762327226E+03 -0.88244852944E+01  0.41702826612E+03  0.68637031562E+03  0.89860898104E+02 0.  0.
        254    2    1    2    0    0 -0.53762327226E+03  0.88244852944E+01 -0.18594799518E+04  0.21385384295E+04  0.90915580003E+03 0.  0.
        -24    2    4    4    0    0  0.83686075289E+02  0.33103475017E+03 -0.67743572476E+03  0.76257225039E+03  0.77523614857E+02 0.  0.
         24    2    4    4    0    0 -0.62130934755E+03 -0.32221026488E+03 -0.11820442271E+04  0.13759661791E+04  0.78801085841E+02 0.  0.
         11    1    3    3    0    0  0.36564689793E+03  0.15148251294E+02  0.32704289183E+03  0.49079952789E+03  0.00000000000E+00 0.  1.
        -11    1    3    3    0    0  0.17197637433E+03 -0.23972736588E+02  0.89985374290E+02  0.19557078773E+03  0.00000000000E+00 0. -1.
          4    1    6    6  502    0 -0.91593340049E+02 -0.32158643940E+02 -0.12144709701E+03  0.15547641523E+03  0.00000000000E+00 0. -1.
          1    1    5    5  503    0  0.19312669279E+02  0.50329441800E+02 -0.17874827587E+03  0.18670023576E+03  0.00000000000E+00 0. -1.
         -2    1    5    5    0  503  0.64373406010E+02  0.28070530837E+03 -0.49868744889E+03  0.57587201463E+03  0.00000000000E+00 0.  1.
         -3    1    6    6    0  502 -0.52971600750E+03 -0.29005162094E+03 -0.10605971301E+04  0.12204897639E+04  0.00000000000E+00 0.  1.
<mgrwt>
<rscale>  0 0.24288768E+04</rscale>
<asrwt>0</asrwt>
<pdfrwt beam="1">  1        1 0.32825850E+00 0.24288768E+04</pdfrwt>
<pdfrwt beam="2">  1       -1 0.10634285E+00 0.24288768E+04</pdfrwt>
<totfact> 0.17854667E+00</totfact>
</mgrwt>
</event>
<event>
12    1  0.1663913E-007  0.1608888E+04  0.7818608E-02  0.8815106E-01
         -2   -1    0    0    0  501 -0.00000000000E+00  0.00000000000E+00  0.86198549812E+03  0.86198549812E+03  0.00000000000E+00 0.  1.
          2   -1    0    0  501    0  0.00000000000E+00 -0.00000000000E+00 -0.75074366335E+03  0.75074366335E+03  0.00000000000E+00 0. -1.
         23    2    1    2    0    0  0.97027660774E+02  0.51627777751E+03  0.11691162877E+03  0.54562466889E+03  0.89893491678E+02 0.  0.
        254    2    1    2    0    0 -0.97027660774E+02 -0.51627777751E+03 -0.56697939996E+01  0.10671044926E+04  0.92882869304E+03 0.  0.
        -24    2    4    4    0    0 -0.15284373073E+03 -0.36657761013E+03 -0.43971767194E+03  0.59789698248E+03  0.79930096757E+02 0.  0.
         24    2    4    4    0    0  0.55816069955E+02 -0.14970016738E+03  0.43404787794E+03  0.46920751010E+03  0.78946522448E+02 0.  0.
         13    1    3    3    0    0  0.97555859790E+02  0.35026272895E+03  0.10831917816E+03  0.37938656991E+03  0.00000000000E+00 0. -1.
        -13    1    3    3    0    0 -0.52819901598E+00  0.16601504856E+03  0.85924506090E+01  0.16623809897E+03  0.00000000000E+00 0.  1.
          4    1    6    6  502    0 -0.10199642873E+02 -0.63903527404E+02  0.11079216071E+03  0.12830664988E+03  0.00000000000E+00 0. -1.
          1    1    5    5  503    0 -0.44168485107E+02 -0.44125104919E+02 -0.93735714470E+02  0.11262443841E+03  0.00000000000E+00 0. -1.
         -2    1    5    5    0  503 -0.10867524562E+03 -0.32245250521E+03 -0.34598195747E+03  0.48527254407E+03  0.00000000000E+00 0.  1.
         -3    1    6    6    0  502  0.66015712828E+02 -0.85796639980E+02  0.32325571724E+03  0.34090086022E+03  0.00000000000E+00 0.  1.
<mgrwt>
<rscale>  0 0.16088880E+04</rscale>
<asrwt>0</asrwt>
<pdfrwt beam="1">  1        2 0.11549903E+00 0.16088880E+04</pdfrwt>
<pdfrwt beam="2">  1       -2 0.13261315E+00 0.16088880E+04</pdfrwt>
<totfact> 0.14814182E+01</totfact>
</mgrwt>
</event>
<event>
12    1  0.1663913E-007  0.2344992E+04  0.7818608E-02  0.8460390E-01
          2   -1    0    0  501    0  0.00000000000E+00  0.00000000000E+00  0.18336262922E+04  0.18336262922E+04  0.00000000000E+00 0. -1.
         -2   -1    0    0    0  501 -0.00000000000E+00 -0.00000000000E+00 -0.74974214592E+03  0.74974214592E+03  0.00000000000E+00 0.  1.
         23    2    1    2    0    0 -0.52726595911E+03  0.61322025036E+03 -0.17922776005E+03  0.83339343297E+03  0.91507142082E+02 0.  0.
        254    2    1    2    0    0  0.52726595911E+03 -0.61322025036E+03  0.12631119063E+04  0.17499750051E+04  0.90161652805E+03 0.  0.
        -24    2    4    4    0    0  0.59650082404E+03 -0.72384717150E+03  0.71855774784E+03  0.11843527127E+04  0.81228999421E+02 0.  0.
         24    2    4    4    0    0 -0.69234864932E+02  0.11062692113E+03  0.54455415848E+03  0.56562229244E+03  0.79734333782E+02 0.  0.
         13    1    3    3    0    0 -0.63091176227E+02  0.12548381924E+03 -0.25272457270E+02  0.14270733164E+03  0.00000000000E+00 0. -1.
        -13    1    3    3    0    0 -0.46417478288E+03  0.48773643113E+03 -0.15395530278E+03  0.69068610133E+03  0.00000000000E+00 0.  1.
          4    1    6    6  502    0 -0.68595218297E+02  0.37443778916E+02  0.32180594447E+03  0.33115918597E+03  0.00000000000E+00 0. -1.
          1    1    5    5  503    0  0.53114082262E+03 -0.61831794141E+03  0.59477513054E+03  0.10090515874E+04  0.00000000000E+00 0. -1.
         -2    1    5    5    0  503  0.65360001419E+02 -0.10552923009E+03  0.12378261729E+03  0.17530112530E+03  0.00000000000E+00 0.  1.
         -3    1    6    6    0  502 -0.63964663563E+00  0.73183142215E+02  0.22274821401E+03  0.23446310647E+03  0.00000000000E+00 0.  1.
<mgrwt>
<rscale>  0 0.23449920E+04</rscale>
<asrwt>0</asrwt>
<pdfrwt beam="1">  1        2 0.28209635E+00 0.23449920E+04</pdfrwt>
<pdfrwt beam="2">  1       -2 0.11534495E+00 0.23449920E+04</pdfrwt>
<totfact> 0.43706453E+00</totfact>
</mgrwt>
</event>
<event>
12    1  0.2216486E-007  0.2279907E+04  0.7818608E-02  0.8485886E-01
         -1   -1    0    0    0  501 -0.00000000000E+00  0.00000000000E+00  0.11002023011E+04  0.11002023011E+04  0.00000000000E+00 0.  1.
          1   -1    0    0  501    0  0.00000000000E+00 -0.00000000000E+00 -0.11811406389E+04  0.11811406389E+04  0.00000000000E+00 0. -1.
         23    2    1    2    0    0  0.32816315994E+03 -0.24031649940E+03 -0.91329966616E+03  0.10037614212E+04  0.89317584906E+02 0.  0.
        254    2    1    2    0    0 -0.32816315994E+03  0.24031649940E+03  0.83236132841E+03  0.12775815188E+04  0.87974205126E+03 0.  0.
        -24    2    4    4    0    0 -0.31839877244E+03  0.13260689774E+03 -0.73858538268E+02  0.36165282591E+03  0.79845570871E+02 0.  0.
         24    2    4    4    0    0 -0.97643874995E+01  0.10770960166E+03  0.90621986667E+03  0.91592869291E+03  0.77422362294E+02 0.  0.
         13    1    3    3    0    0  0.29024223486E+03 -0.22373265353E+03 -0.74240631529E+03  0.82792752831E+03  0.00000000000E+00 0. -1.
        -13    1    3    3    0    0  0.37920925088E+02 -0.16583845867E+02 -0.17089335087E+03  0.17583389285E+03  0.00000000000E+00 0.  1.
          4    1    6    6  502    0 -0.11692167325E+02  0.11331458629E+03  0.90054962435E+03  0.90772602043E+03  0.00000000000E+00 0. -1.
          3    1    5    5  503    0 -0.23740634280E+03  0.10331739612E+03 -0.89838831981E+02  0.27405705916E+03  0.00000000000E+00 0. -1.
         -4    1    5    5    0  503 -0.80992429644E+02  0.29289501622E+02  0.15980293713E+02  0.87595766747E+02  0.00000000000E+00 0.  1.
         -3    1    6    6    0  502  0.19277798253E+01 -0.56049846343E+01  0.56702423248E+01  0.82026724808E+01  0.00000000000E+00 0.  1.
<mgrwt>
<rscale>  0 0.22799067E+04</rscale>
<asrwt>0</asrwt>
<pdfrwt beam="1">  1        1 0.18171394E+00 0.22799067E+04</pdfrwt>
<pdfrwt beam="2">  1       -1 0.16926189E+00 0.22799067E+04</pdfrwt>
<totfact> 0.24890009E+00</totfact>
</mgrwt>
</event>
<event>
12    1  0.1663913E-007  0.2757521E+04  0.7818608E-02  0.8316579E-01
         -2   -1    0    0    0  501 -0.00000000000E+00  0.00000000000E+00  0.63619236702E+03  0.63619236702E+03  0.00000000000E+00 0.  1.
          2   -1    0    0  501    0  0.00000000000E+00 -0.00000000000E+00 -0.29880600867E+04  0.29880600867E+04  0.00000000000E+00 0. -1.
         23    2    1    2    0    0  0.12275569494E+04 -0.68651100707E+02 -0.99149059666E+03  0.15820725984E+04  0.91055289652E+02 0.  0.
        254    2    1    2    0    0 -0.12275569494E+04  0.68651100707E+02 -0.13603771230E+04  0.20421798553E+04  0.89903481975E+03 0.  0.
        -24    2    4    4    0    0  0.33187549311E+02 -0.46088375152E+02  0.77087701944E+02  0.12510145854E+03  0.80512790188E+02 0.  0.
         24    2    4    4    0    0 -0.12607444987E+04  0.11473947586E+03 -0.14374648249E+04  0.19170783968E+04  0.79010241076E+02 0.  0.
         11    1    3    3    0    0  0.16781804018E+03 -0.31927566711E+02 -0.11028721400E+03  0.20333601181E+03  0.00000000000E+00 0. -1.
        -11    1    3    3    0    0  0.10597389092E+04 -0.36723533995E+02 -0.88120338266E+03  0.13787365866E+04  0.00000000000E+00 0.  1.
          2    1    6    6  502    0 -0.35218872450E+03 -0.29118632355E+01 -0.38981981197E+03  0.52536164916E+03  0.00000000000E+00 0. -1.
          1    1    5    5  503    0 -0.89501029160E+01 -0.12432697226E+02 -0.13009394241E+02  0.20097777017E+02  0.00000000000E+00 0. -1.
         -2    1    5    5    0  503  0.42137652227E+02 -0.33655677926E+02  0.90097096185E+02  0.10500368152E+03  0.00000000000E+00 0.  1.
         -1    1    6    6    0  502 -0.90855577417E+03  0.11765133909E+03 -0.10476450130E+04  0.13917167476E+04  0.00000000000E+00 0.  1.
<mgrwt>
<rscale>  0 0.27575214E+04</rscale>
<asrwt>0</asrwt>
<pdfrwt beam="1">  1        2 0.45970154E+00 0.27575214E+04</pdfrwt>
<pdfrwt beam="2">  1       -2 0.97875751E-01 0.27575214E+04</pdfrwt>
<totfact> 0.13436417E+00</totfact>
</mgrwt>
</event>
<event>
12    1  0.1722378E-007  0.2141730E+04  0.7818608E-02  0.8543081E-01
         -1   -1    0    0    0  501 -0.00000000000E+00  0.00000000000E+00  0.55219759739E+03  0.55219759739E+03  0.00000000000E+00 0.  1.
          1   -1    0    0  501    0  0.00000000000E+00 -0.00000000000E+00 -0.20767050592E+04  0.20767050592E+04  0.00000000000E+00 0. -1.
         23    2    1    2    0    0  0.88212808276E+03  0.15906029805E+02 -0.78525360585E+03  0.11845674970E+04  0.90410029009E+02 0.  0.
        254    2    1    2    0    0 -0.88212808276E+03 -0.15906029805E+02 -0.73925385600E+03  0.14443351596E+04  0.87247053445E+03 0.  0.
        -24    2    4    4    0    0  0.86290699067E+02  0.13810328891E+03  0.43923094952E+02  0.18688731459E+03  0.80492402931E+02 0.  0.
         24    2    4    4    0    0 -0.96841878183E+03 -0.15400931872E+03 -0.78317695095E+03  0.12574478450E+04  0.79089437850E+02 0.  0.
         11    1    3    3    0    0  0.68796056091E+03 -0.12017649797E+02 -0.57158849348E+03  0.89450967751E+03  0.00000000000E+00 0.  1.
        -11    1    3    3    0    0  0.19416752185E+03  0.27923679602E+02 -0.21366511237E+03  0.29005781953E+03  0.00000000000E+00 0. -1.
          2    1    6    6  502    0 -0.62207298399E+02  0.67554671989E+01 -0.63147338878E+02  0.88898654200E+02  0.00000000000E+00 0. -1.
          1    1    5    5  503    0 -0.11443964838E+02  0.13574884573E+02 -0.90876767973E+01  0.19945618365E+02  0.00000000000E+00 0. -1.
         -2    1    5    5    0  503  0.97734663905E+02  0.12452840434E+03  0.53010771750E+02  0.16694169622E+03  0.00000000000E+00 0.  1.
         -1    1    6    6    0  502 -0.90621148343E+03 -0.16076478592E+03 -0.72002961207E+03  0.11685491908E+04  0.00000000000E+00 0.  1.
<mgrwt>
<rscale>  0 0.21417297E+04</rscale>
<asrwt>0</asrwt>
<pdfrwt beam="1">  1        1 0.31949308E+00 0.21417297E+04</pdfrwt>
<pdfrwt beam="2">  1       -1 0.84953477E-01 0.21417297E+04</pdfrwt>
<totfact> 0.33194579E+00</totfact>
</mgrwt>
</event>
<event>
12    1  0.1663913E-007  0.2293691E+04  0.7818608E-02  0.8480413E-01
          1   -1    0    0  501    0  0.00000000000E+00  0.00000000000E+00  0.38037363592E+04  0.38037363592E+04  0.00000000000E+00 0.  1.
         -1   -1    0    0    0  501 -0.00000000000E+00 -0.00000000000E+00 -0.34577965507E+03  0.34577965507E+03  0.00000000000E+00 0. -1.
         23    2    1    2    0    0 -0.57779682523E+03  0.65215075309E+03  0.69670176458E+03  0.11192615212E+04  0.90571674308E+02 0.  0.
        254    2    1    2    0    0  0.57779682523E+03 -0.65215075309E+03  0.27612549396E+04  0.30302544930E+04  0.89373579721E+03 0.  0.
        -24    2    4    4    0    0 -0.18614973951E+03 -0.27994770043E+03  0.12246683018E+04  0.12724809823E+04  0.79830823348E+02 0.  0.
         24    2    4    4    0    0  0.76394656474E+03 -0.37220305266E+03  0.15365866377E+04  0.17577735107E+04  0.80744990534E+02 0.  0.
         11    1    3    3    0    0 -0.31181414517E+03  0.30549201471E+03  0.39060128118E+03  0.58576684188E+03  0.00000000000E+00 0.  1.
        -11    1    3    3    0    0 -0.26598268005E+03  0.34665873838E+03  0.30610048339E+03  0.53349467937E+03  0.00000000000E+00 0. -1.
          4    1    6    6  502    0  0.20298698942E+03 -0.12882672400E+03  0.48528867977E+03  0.54157653697E+03  0.00000000000E+00 0. -1.
          1    1    5    5  503    0 -0.14820191695E+02 -0.71643819212E+02  0.33156261053E+03  0.33953827415E+03  0.00000000000E+00 0. -1.
         -2    1    5    5    0  503 -0.17132954782E+03 -0.20830388122E+03  0.89310569129E+03  0.93294270815E+03  0.00000000000E+00 0.  1.
         -3    1    6    6    0  502  0.56095957532E+03 -0.24337632866E+03  0.10512979580E+04  0.12161969737E+04  0.00000000000E+00 0.  1.
<mgrwt>
<rscale>  0 0.22936910E+04</rscale>
<asrwt>0</asrwt>
<pdfrwt beam="1">  1        1 0.58519018E+00 0.22936910E+04</pdfrwt>
<pdfrwt beam="2">  1       -1 0.53196873E-01 0.22936910E+04</pdfrwt>
<totfact> 0.45765085E-01</totfact>
</mgrwt>
</event>
<event>
12    1  0.1663913E-007  0.1589039E+04  0.7818608E-02  0.8827310E-01
         -1   -1    0    0    0  501 -0.00000000000E+00  0.00000000000E+00  0.47826096376E+03  0.47826096376E+03  0.00000000000E+00 0.  1.
          1   -1    0    0  501    0  0.00000000000E+00 -0.00000000000E+00 -0.13199098781E+04  0.13199098781E+04  0.00000000000E+00 0. -1.
         23    2    1    2    0    0 -0.30296349780E+03 -0.11412201451E+03 -0.76233740270E+03  0.83381157510E+03  0.96294922105E+02 0.  0.
        254    2    1    2    0    0  0.30296349780E+03  0.11412201451E+03 -0.79311511618E+02  0.96435926673E+03  0.90492417597E+03 0.  0.
        -24    2    4    4    0    0 -0.26881380521E+03  0.13941700693E+03 -0.20331368321E+03  0.37333635161E+03  0.79659362065E+02 0.  0.
         24    2    4    4    0    0  0.57177730301E+03 -0.25294992425E+02  0.12400217159E+03  0.59102291511E+03  0.79764821514E+02 0.  0.
         13    1    3    3    0    0 -0.23160389614E+03 -0.10298928754E+03 -0.48519677854E+03  0.54741489929E+03  0.00000000000E+00 0. -1.
        -13    1    3    3    0    0 -0.71359601662E+02 -0.11132726972E+02 -0.27714062415E+03  0.28639667581E+03  0.00000000000E+00 0.  1.
          4    1    6    6  502    0  0.25983520048E+03 -0.12538060644E+02  0.15857868579E+02  0.26062042585E+03  0.00000000000E+00 0. -1.
          3    1    5    5  503    0 -0.16994171455E+03  0.80271247000E+02 -0.79088404141E+02  0.20390839882E+03  0.00000000000E+00 0. -1.
         -4    1    5    5    0  503 -0.98872090654E+02  0.59145759932E+02 -0.12422527907E+03  0.16942795279E+03  0.00000000000E+00 0.  1.
         -3    1    6    6    0  502  0.31194210253E+03 -0.12756931780E+02  0.10814430301E+03  0.33040248926E+03  0.00000000000E+00 0.  1.
<mgrwt>
<rscale>  0 0.15890392E+04</rscale>
<asrwt>0</asrwt>
<pdfrwt beam="1">  1        1 0.20306306E+00 0.15890392E+04</pdfrwt>
<pdfrwt beam="2">  1       -1 0.73578610E-01 0.15890392E+04</pdfrwt>
<totfact> 0.15645147E+01</totfact>
</mgrwt>
</event>
<event>
12    1  0.1663913E-007  0.2658322E+04  0.7818608E-02  0.8348656E-01
         -2   -1    0    0    0  501 -0.00000000000E+00  0.00000000000E+00  0.11765987513E+04  0.11765987513E+04  0.00000000000E+00 0.  1.
          2   -1    0    0  501    0  0.00000000000E+00 -0.00000000000E+00 -0.15015049117E+04  0.15015049117E+04  0.00000000000E+00 0. -1.
         23    2    1    2    0    0  0.34700987904E+03  0.73328923142E+03 -0.10177354332E+04  0.13047733685E+04  0.92299393382E+02 0.  0.
        254    2    1    2    0    0 -0.34700987904E+03 -0.73328923142E+03  0.69282927282E+03  0.13733302945E+04  0.86480907918E+03 0.  0.
        -24    2    4    4    0    0  0.16095068855E+03 -0.45999155941E+02  0.44096040872E+03  0.47844773897E+03  0.80281444756E+02 0.  0.
         24    2    4    4    0    0 -0.50796056759E+03 -0.68729007548E+03  0.25186886410E+03  0.89488255552E+03  0.83577972000E+02 0.  0.
         11    1    3    3    0    0  0.60204336557E+02  0.62292787238E+02 -0.11537246822E+03  0.14427667831E+03  0.00000000000E+00 0.  1.
        -11    1    3    3    0    0  0.28680554248E+03  0.67099644418E+03 -0.90236296499E+03  0.11604966902E+04  0.00000000000E+00 0. -1.
          4    1    6    6  502    0 -0.50947861300E+02 -0.11635399214E+03  0.46644807027E+02  0.13531324429E+03  0.00000000000E+00 0. -1.
          3    1    5    5  503    0  0.51070264562E+02  0.21358737313E+02  0.16085482803E+03  0.17011361874E+03  0.00000000000E+00 0. -1.
         -4    1    5    5    0  503  0.10988042399E+03 -0.67357893254E+02  0.28010558069E+03  0.30833412022E+03  0.00000000000E+00 0.  1.
         -3    1    6    6    0  502 -0.45701270629E+03 -0.57093608334E+03  0.20522405707E+03  0.75956931123E+03  0.00000000000E+00 0.  1.
<mgrwt>
<rscale>  0 0.26583219E+04</rscale>
<asrwt>0</asrwt>
<pdfrwt beam="1">  1        2 0.23100076E+00 0.26583219E+04</pdfrwt>
<pdfrwt beam="2">  1       -2 0.18101519E+00 0.26583219E+04</pdfrwt>
<totfact> 0.19901838E+00</totfact>
</mgrwt>
</event>
<event>
12    1  0.1663913E-007  0.1248369E+04  0.7818608E-02  0.9071542E-01
          2   -1    0    0  501    0  0.00000000000E+00  0.00000000000E+00  0.18080869763E+04  0.18080869763E+04  0.00000000000E+00 0. -1.
         -2   -1    0    0    0  501 -0.00000000000E+00 -0.00000000000E+00 -0.21547972388E+03  0.21547972388E+03  0.00000000000E+00 0.  1.
         23    2    1    2    0    0 -0.25113472990E+03 -0.64404759835E+02  0.17588280092E+03  0.32689595569E+03  0.93325133441E+02 0.  0.
        254    2    1    2    0    0  0.25113472990E+03  0.64404759835E+02  0.14167244515E+04  0.16966707445E+04  0.89686499437E+03 0.  0.
        -24    2    4    4    0    0  0.21706161516E+03  0.36748662590E+03  0.27735260489E+03  0.51448407126E+03  0.74881420625E+02 0.  0.
         24    2    4    4    0    0  0.34073114748E+02 -0.30308186606E+03  0.11393718466E+04  0.11821866733E+04  0.79859444386E+02 0.  0.
         13    1    3    3    0    0 -0.95227633977E+02 -0.42630699908E+02  0.21739856012E+02  0.10657532635E+03  0.00000000000E+00 0. -1.
        -13    1    3    3    0    0 -0.15590709593E+03 -0.21774059927E+02  0.15414294491E+03  0.22032062934E+03  0.00000000000E+00 0.  1.
          2    1    6    6  502    0  0.11031534467E+02 -0.15606844413E+03  0.73076990637E+03  0.74733105787E+03  0.00000000000E+00 0. -1.
          3    1    5    5  503    0  0.13541326300E+03  0.29306977536E+03  0.20519610140E+03  0.38253376983E+03  0.00000000000E+00 0. -1.
         -4    1    5    5    0  503  0.81648352154E+02  0.74416850536E+02  0.72156503486E+02  0.13195030143E+03  0.00000000000E+00 0.  1.
         -1    1    6    6    0  502  0.23041580281E+02 -0.14701342193E+03  0.40860194028E+03  0.43485561541E+03  0.00000000000E+00 0.  1.
<mgrwt>
<rscale>  0 0.12483687E+04</rscale>
<asrwt>0</asrwt>
<pdfrwt beam="1">  1        2 0.27816722E+00 0.12483687E+04</pdfrwt>
<pdfrwt beam="2">  1       -2 0.33150728E-01 0.12483687E+04</pdfrwt>
<totfact> 0.71382284E+01</totfact>
</mgrwt>
</event>
<event>
12    1  0.1663913E-007  0.1867806E+04  0.7818608E-02  0.8671049E-01
         -2   -1    0    0    0  501 -0.00000000000E+00  0.00000000000E+00  0.12271944788E+04  0.12271944788E+04  0.00000000000E+00 0.  1.
          2   -1    0    0  501    0  0.00000000000E+00 -0.00000000000E+00 -0.71070648798E+03  0.71070648798E+03  0.00000000000E+00 0. -1.
         23    2    1    2    0    0  0.66620252532E+03 -0.14949010894E+03  0.23825267603E+02  0.68980659677E+03  0.95354077806E+02 0.  0.
        254    2    1    2    0    0 -0.66620252532E+03  0.14949010894E+03  0.49266272324E+03  0.12480943700E+04  0.92133050542E+03 0.  0.
        -24    2    4    4    0    0 -0.67576680414E+03 -0.92745232270E+02  0.65218218861E+03  0.94722500400E+03  0.81431869506E+02 0.  0.
         24    2    4    4    0    0  0.95642788143E+01  0.24223534121E+03 -0.15951946537E+03  0.30086936604E+03  0.79413346660E+02 0.  0.
         13    1    3    3    0    0  0.33298613162E+02 -0.13808181326E+01  0.21757087929E+02  0.39800441862E+02  0.00000000000E+00 0.  1.
        -13    1    3    3    0    0  0.63290391216E+03 -0.14810929081E+03  0.20681796740E+01  0.65000615491E+03  0.00000000000E+00 0. -1.
          4    1    6    6  502    0  0.34806959560E+01  0.13948177925E+02 -0.41269963403E+02  0.43702137145E+02  0.00000000000E+00 0. -1.
          3    1    5    5  503    0 -0.16471513508E+03  0.99324690093E+01  0.13931102682E+03  0.21595668978E+03  0.00000000000E+00 0. -1.
         -4    1    5    5    0  503 -0.51105166906E+03 -0.10267770128E+03  0.51287116179E+03  0.73126831422E+03  0.00000000000E+00 0.  1.
         -3    1    6    6    0  502  0.60835828583E+01  0.22828716328E+03 -0.11824950197E+03  0.25716722889E+03  0.00000000000E+00 0.  1.
<mgrwt>
<rscale>  0 0.18678063E+04</rscale>
<asrwt>0</asrwt>
<pdfrwt beam="1">  1        2 0.10933946E+00 0.18678063E+04</pdfrwt>
<pdfrwt beam="2">  1       -2 0.18879915E+00 0.18678063E+04</pdfrwt>
<totfact> 0.59549528E+00</totfact>
</mgrwt>
</event>
<event>
12    1  0.2008082E-007  0.1959357E+04  0.7818608E-02  0.8625862E-01
          1   -1    0    0  501    0  0.00000000000E+00  0.00000000000E+00  0.10160067602E+04  0.10160067602E+04  0.00000000000E+00 0. -1.
         -1   -1    0    0    0  501 -0.00000000000E+00 -0.00000000000E+00 -0.94464937593E+03  0.94464937593E+03  0.00000000000E+00 0.  1.
         23    2    1    2    0    0 -0.59114926578E+03 -0.39059830964E+03 -0.27560920784E+03  0.76567635914E+03  0.90968992389E+02 0.  0.
        254    2    1    2    0    0  0.59114926578E+03  0.39059830964E+03  0.34696659213E+03  0.11949797770E+04  0.89753348543E+03 0.  0.
        -24    2    4    4    0    0  0.15835527006E+03  0.43670626590E+03 -0.18239839862E+03  0.50539483459E+03  0.79787272003E+02 0.  0.
         24    2    4    4    0    0  0.43279399572E+03 -0.46107956266E+02  0.52936499075E+03  0.68958494242E+03  0.76573579115E+02 0.  0.
         11    1    3    3    0    0 -0.22550937380E+03 -0.17529753829E+03 -0.15285585801E+03  0.32395774096E+03  0.00000000000E+00 0. -1.
        -11    1    3    3    0    0 -0.36563989198E+03 -0.21530077135E+03 -0.12275334983E+03  0.44171861818E+03  0.00000000000E+00 0.  1.
          4    1    6    6  502    0  0.16267051521E+01  0.69992625315E+01  0.56455274523E+01  0.91382616428E+01  0.00000000000E+00 0. -1.
          3    1    5    5  503    0  0.60498019323E+02  0.10395110301E+03 -0.18190081444E+02  0.12164177417E+03  0.00000000000E+00 0. -1.
         -4    1    5    5    0  503  0.97857250733E+02  0.33275516289E+03 -0.16420831717E+03  0.38375306042E+03  0.00000000000E+00 0.  1.
         -1    1    6    6    0  502  0.43116729057E+03 -0.53107218797E+02  0.52371946329E+03  0.68044668077E+03  0.00000000000E+00 0.  1.
<mgrwt>
<rscale>  0 0.19593572E+04</rscale>
<asrwt>0</asrwt>
<pdfrwt beam="1">  1        1 0.15630873E+00 0.19593572E+04</pdfrwt>
<pdfrwt beam="2">  1       -1 0.14533067E+00 0.19593572E+04</pdfrwt>
<totfact> 0.51980275E+00</totfact>
</mgrwt>
</event>
<event>
12    1  0.1663913E-007  0.2056249E+04  0.7818608E-02  0.8580765E-01
         -2   -1    0    0    0  501 -0.00000000000E+00  0.00000000000E+00  0.49867755938E+03  0.49867755938E+03  0.00000000000E+00 0. -1.
          2   -1    0    0  501    0  0.00000000000E+00 -0.00000000000E+00 -0.21196862739E+04  0.21196862739E+04  0.00000000000E+00 0.  1.
         23    2    1    2    0    0  0.60279930131E+03 -0.31931701402E+03 -0.69430362409E+02  0.69104445021E+03  0.85973855532E+02 0.  0.
        254    2    1    2    0    0 -0.60279930131E+03  0.31931701402E+03 -0.15515783521E+04  0.19273193830E+04  0.91751526882E+03 0.  0.
        -24    2    4    4    0    0 -0.71719300691E+03  0.30733813158E+03 -0.66048712196E+03  0.10254000063E+04  0.79871136650E+02 0.  0.
         24    2    4    4    0    0  0.11439370560E+03  0.11978882444E+02 -0.89109123011E+03  0.90191937669E+03  0.78648383042E+02 0.  0.
         11    1    3    3    0    0  0.22009182199E+03 -0.10157528716E+03 -0.63958831323E+02  0.25069639242E+03  0.00000000000E+00 0.  1.
        -11    1    3    3    0    0  0.38270747933E+03 -0.21774172686E+03 -0.54715310857E+01  0.44034805779E+03  0.00000000000E+00 0. -1.
          2    1    6    6  502    0  0.45338297174E+02  0.37052414447E+02 -0.25696534782E+03  0.26355195424E+03  0.00000000000E+00 0. -1.
          3    1    5    5  503    0 -0.47309241427E+02  0.37566394813E+02 -0.33748570643E+02  0.69198008382E+02  0.00000000000E+00 0. -1.
         -4    1    5    5    0  503 -0.66988376548E+03  0.26977173677E+03 -0.62673855131E+03  0.95620199797E+03  0.00000000000E+00 0.  1.
         -1    1    6    6    0  502  0.69055408422E+02 -0.25073532003E+02 -0.63412588230E+03  0.63836742245E+03  0.00000000000E+00 0.  1.
<mgrwt>
<rscale>  0 0.20562490E+04</rscale>
<asrwt>0</asrwt>
<pdfrwt beam="1">  1        2 0.32610558E+00 0.20562490E+04</pdfrwt>
<pdfrwt beam="2">  1       -2 0.76719625E-01 0.20562490E+04</pdfrwt>
<totfact> 0.80433852E+00</totfact>
</mgrwt>
</event>
<event>
12    1  0.1663913E-007  0.1474137E+04  0.7818608E-02  0.8901836E-01
         -2   -1    0    0    0  501 -0.00000000000E+00  0.00000000000E+00  0.12473060957E+04  0.12473060957E+04  0.00000000000E+00 0.  1.
          2   -1    0    0  501    0  0.00000000000E+00 -0.00000000000E+00 -0.43555462021E+03  0.43555462021E+03  0.00000000000E+00 0. -1.
         23    2    1    2    0    0 -0.11287938211E+03 -0.32425717298E+03  0.60142630346E+03  0.69843177537E+03  0.90602854330E+02 0.  0.
        254    2    1    2    0    0  0.11287938211E+03  0.32425717298E+03  0.21032517204E+03  0.98442894056E+03  0.89832020565E+03 0.  0.
        -24    2    4    4    0    0  0.26239537636E+03  0.58106161077E+03  0.21217352464E+03  0.67673958005E+03  0.80466922418E+02 0.  0.
         24    2    4    4    0    0 -0.14951599425E+03 -0.25680443779E+03 -0.18483526029E+01  0.30768936051E+03  0.79785802977E+02 0.  0.
         13    1    3    3    0    0 -0.58401048308E+02 -0.96026750023E+02  0.13006545926E+03  0.17189776862E+03  0.00000000000E+00 0. -1.
        -13    1    3    3    0    0 -0.54478333798E+02 -0.22823042296E+03  0.47136084420E+03  0.52653400675E+03  0.00000000000E+00 0.  1.
          4    1    6    6  502    0 -0.75090570653E+02 -0.88986226123E+02  0.32580558033E+02  0.12090754733E+03  0.00000000000E+00 0. -1.
          1    1    5    5  503    0  0.26372837214E+03  0.53914556094E+03  0.19163664139E+03  0.63004380203E+03  0.00000000000E+00 0. -1.
         -2    1    5    5    0  503 -0.13329957855E+01  0.41916049834E+02  0.20536883252E+02  0.46695778023E+02  0.00000000000E+00 0.  1.
         -3    1    6    6    0  502 -0.74425423599E+02 -0.16781821166E+03 -0.34428910636E+02  0.18678181317E+03  0.00000000000E+00 0.  1.
<mgrwt>
<rscale>  0 0.14741369E+04</rscale>
<asrwt>0</asrwt>
<pdfrwt beam="1">  1        2 0.67008403E-01 0.14741369E+04</pdfrwt>
<pdfrwt beam="2">  1       -2 0.19189324E+00 0.14741369E+04</pdfrwt>
<totfact> 0.10508872E+01</totfact>
</mgrwt>
</event>
<event>
12    1  0.1663913E-007  0.1892773E+04  0.7818608E-02  0.8658462E-01
         -2   -1    0    0    0  501 -0.00000000000E+00  0.00000000000E+00  0.75615927335E+03  0.75615927335E+03  0.00000000000E+00 0.  1.
          2   -1    0    0  501    0  0.00000000000E+00 -0.00000000000E+00 -0.11844690304E+04  0.11844690304E+04  0.00000000000E+00 0. -1.
         23    2    1    2    0    0 -0.30314569687E+03 -0.19817027112E+03 -0.81369338549E+03  0.89525957869E+03  0.90686370304E+02 0.  0.
        254    2    1    2    0    0  0.30314569687E+03  0.19817027112E+03  0.38538362847E+03  0.10453687250E+04  0.90172415974E+03 0.  0.
        -24    2    4    4    0    0  0.49979167946E+03  0.22985581262E+02  0.53134718734E+03  0.73444065698E+03  0.82177766576E+02 0.  0.
         24    2    4    4    0    0 -0.19664598259E+03  0.17518468986E+03 -0.14596355886E+03  0.31092806804E+03  0.77534411409E+02 0.  0.
         11    1    3    3    0    0 -0.18822309626E+02 -0.48348796086E+02 -0.11997645113E+03  0.13071432304E+03  0.00000000000E+00 0.  1.
        -11    1    3    3    0    0 -0.28432338725E+03 -0.14982147503E+03 -0.69371693437E+03  0.76454525566E+03  0.00000000000E+00 0. -1.
          4    1    6    6  502    0 -0.64812842707E+02  0.10743152233E+03 -0.79098339016E+02  0.14831986989E+03  0.00000000000E+00 0. -1.
          3    1    5    5  503    0  0.95398554838E+02 -0.25773282734E+02  0.12149644356E+03  0.15660948938E+03  0.00000000000E+00 0. -1.
         -4    1    5    5    0  503  0.40439312463E+03  0.48758863995E+02  0.40985074378E+03  0.57783116759E+03  0.00000000000E+00 0.  1.
         -3    1    6    6    0  502 -0.13183313988E+03  0.67753167534E+02 -0.66865219846E+02  0.16260819816E+03  0.00000000000E+00 0.  1.
<mgrwt>
<rscale>  0 0.18927728E+04</rscale>
<asrwt>0</asrwt>
<pdfrwt beam="1">  1        2 0.18222600E+00 0.18927728E+04</pdfrwt>
<pdfrwt beam="2">  1       -2 0.11633220E+00 0.18927728E+04</pdfrwt>
<totfact> 0.10397535E+01</totfact>
</mgrwt>
</event>
<event>
12    1  0.1663913E-007  0.2432318E+04  0.7818608E-02  0.8427502E-01
          2   -1    0    0  501    0  0.00000000000E+00  0.00000000000E+00  0.11503798244E+04  0.11503798244E+04  0.00000000000E+00 0.  1.
         -2   -1    0    0    0  501 -0.00000000000E+00 -0.00000000000E+00 -0.12856993594E+04  0.12856993594E+04  0.00000000000E+00 0. -1.
         23    2    1    2    0    0  0.60446446942E+02  0.10393953037E+04 -0.89540315715E+02  0.10488293294E+04  0.89605378239E+02 0.  0.
        254    2    1    2    0    0 -0.60446446942E+02 -0.10393953037E+04 -0.45779219235E+02  0.13872498544E+04  0.91562549730E+03 0.  0.
        -24    2    4    4    0    0  0.14128496126E+03 -0.85108664015E+03  0.31881780028E+03  0.92300299835E+03  0.77329398495E+02 0.  0.
         24    2    4    4    0    0 -0.20173140821E+03 -0.18830866354E+03 -0.36459701951E+03  0.46424685604E+03  0.80239908295E+02 0.  0.
         13    1    3    3    0    0  0.47584197430E+02  0.67250326252E+03 -0.15745012676E+02  0.67436844482E+03  0.00000000000E+00 0.  1.
        -13    1    3    3    0    0  0.12862249513E+02  0.36689204118E+03 -0.73795303039E+02  0.37446088459E+03  0.00000000000E+00 0. -1.
          2    1    6    6  502    0 -0.48429139064E+02 -0.96141923252E+02 -0.11980768459E+03  0.16106685632E+03  0.00000000000E+00 0. -1.
          1    1    5    5  503    0 -0.21004828764E+01  0.50771356456E+00 -0.59949328242E+00  0.22425863580E+01  0.00000000000E+00 0. -1.
         -2    1    5    5    0  503  0.14338544414E+03 -0.85159435372E+03  0.31941729356E+03  0.92076041200E+03  0.00000000000E+00 0.  1.
         -1    1    6    6    0  502 -0.15330226914E+03 -0.92166740287E+02 -0.24478933492E+03  0.30317999972E+03  0.00000000000E+00 0.  1.
<mgrwt>
<rscale>  0 0.24323179E+04</rscale>
<asrwt>0</asrwt>
<pdfrwt beam="1">  1        2 0.17698151E+00 0.24323179E+04</pdfrwt>
<pdfrwt beam="2">  1       -2 0.19779990E+00 0.24323179E+04</pdfrwt>
<totfact> 0.25023913E+00</totfact>
</mgrwt>
</event>
<event>
12    1  0.1663913E-007  0.1296666E+04  0.7818608E-02  0.9032213E-01
         -1   -1    0    0    0  501 -0.00000000000E+00  0.00000000000E+00  0.29276727523E+03  0.29276727523E+03  0.00000000000E+00 0.  1.
          1   -1    0    0  501    0  0.00000000000E+00 -0.00000000000E+00 -0.14357330209E+04  0.14357330209E+04  0.00000000000E+00 0. -1.
         23    2    1    2    0    0  0.11003420884E+03 -0.27442688119E+03 -0.47752262393E+03  0.56867558290E+03  0.89142705735E+02 0.  0.
        254    2    1    2    0    0 -0.11003420884E+03  0.27442688119E+03 -0.66544312177E+03  0.11598247132E+04  0.90275200189E+03 0.  0.
        -24    2    4    4    0    0  0.12637177484E+03 -0.28644471115E+03 -0.32356649185E+03  0.45728196685E+03  0.79944509134E+02 0.  0.
         24    2    4    4    0    0 -0.23640598368E+03  0.56087159235E+03 -0.34187662992E+03  0.70254274639E+03  0.78879326831E+02 0.  0.
         13    1    3    3    0    0  0.34096199203E+02 -0.18515152847E+03 -0.33370982035E+03  0.38315255903E+03  0.00000000000E+00 0. -1.
        -13    1    3    3    0    0  0.75938009639E+02 -0.89275352729E+02 -0.14381280358E+03  0.18552302387E+03  0.00000000000E+00 0.  1.
          2    1    6    6  502    0 -0.18513056730E+03  0.38691611005E+03 -0.27361781663E+03  0.50876724810E+03  0.00000000000E+00 0. -1.
          3    1    5    5  503    0  0.11356698824E+03 -0.26288670945E+03 -0.32126587038E+03  0.43037035480E+03  0.00000000000E+00 0. -1.
         -4    1    5    5    0  503  0.12804786604E+02 -0.23558001698E+02 -0.23006214691E+01  0.26911612050E+02  0.00000000000E+00 0.  1.
         -1    1    6    6    0  502 -0.51275416388E+02  0.17395548230E+03 -0.68258813296E+02  0.19377549829E+03  0.00000000000E+00 0.  1.
<mgrwt>
<rscale>  0 0.12966659E+04</rscale>
<asrwt>0</asrwt>
<pdfrwt beam="1">  1        1 0.22088200E+00 0.12966659E+04</pdfrwt>
<pdfrwt beam="2">  1       -1 0.45041119E-01 0.12966659E+04</pdfrwt>
<totfact> 0.34837910E+01</totfact>
</mgrwt>
</event>
<event>
12    1  0.1663913E-007  0.2779263E+04  0.7818608E-02  0.8309735E-01
          1   -1    0    0  501    0  0.00000000000E+00  0.00000000000E+00  0.14056074847E+04  0.14056074847E+04  0.00000000000E+00 0. -1.
         -1   -1    0    0    0  501 -0.00000000000E+00 -0.00000000000E+00 -0.13738370795E+04  0.13738370795E+04  0.00000000000E+00 0.  1.
         23    2    1    2    0    0  0.50168730211E+03 -0.63525347632E+03 -0.93267681541E+03  0.12382662757E+04  0.90444453544E+02 0.  0.
        254    2    1    2    0    0 -0.50168730211E+03  0.63525347632E+03  0.96444722070E+03  0.15411782885E+04  0.88872658747E+03 0.  0.
        -24    2    4    4    0    0 -0.59362004535E+03  0.77208979641E+02  0.33560446273E+03  0.69150275006E+03  0.84851123502E+02 0.  0.
         24    2    4    4    0    0  0.91932743240E+02  0.55804449668E+03  0.62884275797E+03  0.84967553848E+03  0.81486298753E+02 0.  0.
         11    1    3    3    0    0  0.39424619332E+03 -0.48910489362E+03 -0.77730873075E+03  0.99943109858E+03  0.00000000000E+00 0.  1.
        -11    1    3    3    0    0  0.10744110879E+03 -0.14614858269E+03 -0.15536808466E+03  0.23883517708E+03  0.00000000000E+00 0. -1.
          2    1    6    6  502    0  0.87553065906E+01  0.28870558564E+03  0.29754942638E+03  0.41468449659E+03  0.00000000000E+00 0. -1.
          3    1    5    5  503    0 -0.19288125357E+03  0.18697314938E+02  0.15463372651E+03  0.24792006159E+03  0.00000000000E+00 0. -1.
         -4    1    5    5    0  503 -0.40073879178E+03  0.58511664703E+02  0.18097073622E+03  0.44358268848E+03  0.00000000000E+00 0.  1.
         -1    1    6    6    0  502  0.83177436649E+02  0.26933891104E+03  0.33129333159E+03  0.43499104189E+03  0.00000000000E+00 0.  1.
<mgrwt>
<rscale>  0 0.27792630E+04</rscale>
<asrwt>0</asrwt>
<pdfrwt beam="1">  1        1 0.21624730E+00 0.27792630E+04</pdfrwt>
<pdfrwt beam="2">  1       -1 0.21135955E+00 0.27792630E+04</pdfrwt>
<totfact> 0.83103423E-01</totfact>
</mgrwt>
</event>
<event>
12    1  0.1663913E-007  0.1637158E+04  0.7818608E-02  0.8798040E-01
         -1   -1    0    0    0  501 -0.00000000000E+00  0.00000000000E+00  0.11185025348E+04  0.11185025348E+04  0.00000000000E+00 0.  1.
          1   -1    0    0  501    0  0.00000000000E+00 -0.00000000000E+00 -0.59907891705E+03  0.59907891705E+03  0.00000000000E+00 0. -1.
         23    2    1    2    0    0  0.38764803352E+03 -0.25347994613E+03  0.52663371179E+03  0.70705828371E+03  0.89806843781E+02 0.  0.
        254    2    1    2    0    0 -0.38764803352E+03  0.25347994613E+03 -0.72100940796E+01  0.10105231681E+04  0.89809910745E+03 0.  0.
        -24    2    4    4    0    0 -0.47056276769E+02  0.54509592765E+03  0.26469959637E+02  0.55356778624E+03  0.79954810211E+02 0.  0.
         24    2    4    4    0    0 -0.34059175675E+03 -0.29161598153E+03 -0.33680053716E+02  0.45695538185E+03  0.81432484480E+02 0.  0.
         11    1    3    3    0    0  0.26792989175E+03 -0.15310120532E+03  0.40440667057E+03  0.50869554860E+03  0.00000000000E+00 0.  1.
        -11    1    3    3    0    0  0.11971814177E+03 -0.10037874081E+03  0.12222704122E+03  0.19836273511E+03  0.00000000000E+00 0. -1.
          2    1    6    6  502    0 -0.29693128757E+03 -0.24365716629E+03 -0.50206687693E+00  0.38410578789E+03  0.00000000000E+00 0. -1.
          3    1    5    5  503    0 -0.34704770645E+02  0.38470800059E+03 -0.17942357881E+02  0.38668668846E+03  0.00000000000E+00 0. -1.
         -4    1    5    5    0  503 -0.12351506124E+02  0.16038792706E+03  0.44412317518E+02  0.16688109779E+03  0.00000000000E+00 0.  1.
         -1    1    6    6    0  502 -0.43660469187E+02 -0.47958815235E+02 -0.33177986839E+02  0.72849593953E+02  0.00000000000E+00 0.  1.
<mgrwt>
<rscale>  0 0.16371576E+04</rscale>
<asrwt>0</asrwt>
<pdfrwt beam="1">  1        1 0.92165987E-01 0.16371576E+04</pdfrwt>
<pdfrwt beam="2">  1       -1 0.17207731E+00 0.16371576E+04</pdfrwt>
<totfact> 0.78001238E+00</totfact>
</mgrwt>
</event>
<event>
12    1  0.1663913E-007  0.2313206E+04  0.7818608E-02  0.8472732E-01
          2   -1    0    0  501    0  0.00000000000E+00  0.00000000000E+00  0.30322435680E+04  0.30322435680E+04  0.00000000000E+00 0.  1.
         -2   -1    0    0    0  501 -0.00000000000E+00 -0.00000000000E+00 -0.44116837879E+03  0.44116837879E+03  0.00000000000E+00 0. -1.
         23    2    1    2    0    0 -0.69665537832E+03  0.49706159816E+03  0.18118957547E+04  0.20059323924E+04  0.91649267658E+02 0.  0.
        254    2    1    2    0    0  0.69665537832E+03 -0.49706159816E+03  0.77917943451E+03  0.14674795544E+04  0.90220657449E+03 0.  0.
        -24    2    4    4    0    0  0.36893423012E+03 -0.44630067159E+03  0.92629996690E+03  0.10953840863E+04  0.80857357860E+02 0.  0.
         24    2    4    4    0    0  0.32772114820E+03 -0.50760926575E+02 -0.14712053238E+03  0.37209546811E+03  0.82660532868E+02 0.  0.
         13    1    3    3    0    0 -0.45130999712E+03  0.34178398038E+03  0.12887389815E+04  0.14076026304E+04  0.00000000000E+00 0.  1.
        -13    1    3    3    0    0 -0.24534538120E+03  0.15527761779E+03  0.52315677329E+03  0.59832976200E+03  0.00000000000E+00 0. -1.
          4    1    6    6  502    0  0.15691164835E+01  0.82252734992E+01 -0.10915020311E+02  0.13756995278E+02  0.00000000000E+00 0. -1.
          1    1    5    5  503    0  0.18801759129E+01 -0.27394005518E+02  0.50541946525E+02  0.57519170355E+02  0.00000000000E+00 0. -1.
         -2    1    5    5    0  503  0.36705405420E+03 -0.41890666607E+03  0.87575802037E+03  0.10378649160E+04  0.00000000000E+00 0.  1.
         -3    1    6    6    0  502  0.32615203172E+03 -0.58986200074E+02 -0.13620551207E+03  0.35833847283E+03  0.00000000000E+00 0.  1.
<mgrwt>
<rscale>  0 0.23132055E+04</rscale>
<asrwt>0</asrwt>
<pdfrwt beam="1">  1        2 0.46649900E+00 0.23132055E+04</pdfrwt>
<pdfrwt beam="2">  1       -2 0.67872060E-01 0.23132055E+04</pdfrwt>
<totfact> 0.29946673E+00</totfact>
</mgrwt>
</event>
<event>
12    1  0.1663913E-007  0.2780984E+04  0.7818608E-02  0.8309196E-01
          1   -1    0    0  501    0  0.00000000000E+00  0.00000000000E+00  0.20361766364E+04  0.20361766364E+04  0.00000000000E+00 0. -1.
         -1   -1    0    0    0  501 -0.00000000000E+00 -0.00000000000E+00 -0.94955805172E+03  0.94955805172E+03  0.00000000000E+00 0.  1.
         23    2    1    2    0    0  0.20685260221E+02 -0.57727037265E+03 -0.69346780321E+03  0.90736856790E+03  0.93547639176E+02 0.  0.
        254    2    1    2    0    0 -0.20685260221E+02  0.57727037265E+03  0.17800863879E+04  0.20783661202E+04  0.90400731093E+03 0.  0.
        -24    2    4    4    0    0 -0.30093688825E+03  0.42688162244E+03  0.40899272266E+03  0.66813778048E+03  0.79637404670E+02 0.  0.
         24    2    4    4    0    0  0.28025162803E+03  0.15038875021E+03  0.13710936652E+04  0.14102283397E+04  0.87683408892E+02 0.  0.
         11    1    3    3    0    0  0.11894421439E+01 -0.42454960789E+03 -0.44474896185E+03  0.61485398543E+03  0.00000000000E+00 0. -1.
        -11    1    3    3    0    0  0.19495818077E+02 -0.15272076477E+03 -0.24871884136E+03  0.29251458247E+03  0.00000000000E+00 0.  1.
          2    1    6    6  502    0  0.20303158147E+03  0.13770670290E+03  0.11446439526E+04  0.11706386023E+04  0.00000000000E+00 0. -1.
          3    1    5    5  503    0 -0.88239931090E+02  0.14320141694E+03  0.87880498939E+02  0.18977859032E+03  0.00000000000E+00 0. -1.
         -4    1    5    5    0  503 -0.21269695716E+03  0.28368020550E+03  0.32111222372E+03  0.47835919015E+03  0.00000000000E+00 0.  1.
         -1    1    6    6    0  502  0.77220046564E+02  0.12682047310E+02  0.22644971263E+03  0.23958973740E+03  0.00000000000E+00 0.  1.
<mgrwt>
<rscale>  0 0.27809839E+04</rscale>
<asrwt>0</asrwt>
<pdfrwt beam="1">  1        1 0.31325794E+00 0.27809839E+04</pdfrwt>
<pdfrwt beam="2">  1       -1 0.14608585E+00 0.27809839E+04</pdfrwt>
<totfact> 0.91454597E-01</totfact>
</mgrwt>
</event>
<event>
12    1  0.1663913E-007  0.1252712E+04  0.7818608E-02  0.9067929E-01
         -1   -1    0    0    0  501 -0.00000000000E+00  0.00000000000E+00  0.10910755591E+04  0.10910755591E+04  0.00000000000E+00 0.  1.
          1   -1    0    0  501    0  0.00000000000E+00 -0.00000000000E+00 -0.35957344818E+03  0.35957344818E+03  0.00000000000E+00 0. -1.
         23    2    1    2    0    0 -0.33550367257E+02  0.13412956384E+03  0.45820860323E+03  0.48708314376E+03  0.90435047524E+02 0.  0.
        254    2    1    2    0    0  0.33550367257E+02 -0.13412956384E+03  0.27329350768E+03  0.96356586350E+03  0.91359370889E+03 0.  0.
        -24    2    4    4    0    0  0.66019531294E+02  0.33148551040E+03  0.33954442170E+03  0.48547713384E+03  0.78462800439E+02 0.  0.
         24    2    4    4    0    0 -0.32469164037E+02 -0.46561507425E+03 -0.66250914020E+02  0.47808872967E+03  0.79548763966E+02 0.  0.
         11    1    3    3    0    0 -0.24303956907E+02  0.13760863576E+03  0.45603971331E+03  0.47696859338E+03  0.00000000000E+00 0.  1.
        -11    1    3    3    0    0 -0.92464103507E+01 -0.34790719131E+01  0.21688899118E+01  0.10114550371E+02  0.00000000000E+00 0. -1.
          4    1    6    6  502    0 -0.43161640497E+02 -0.15913321528E+03 -0.27001032586E+01  0.16490481489E+03  0.00000000000E+00 0. -1.
          3    1    5    5  503    0  0.80754788033E+02  0.31251335355E+03  0.31987822928E+03  0.45443152785E+03  0.00000000000E+00 0. -1.
         -4    1    5    5    0  503 -0.14735256739E+02  0.18972156851E+02  0.19666192421E+02  0.31045605987E+02  0.00000000000E+00 0.  1.
         -3    1    6    6    0  502  0.10692476461E+02 -0.30648185897E+03 -0.63550810762E+02  0.31318391478E+03  0.00000000000E+00 0.  1.
<mgrwt>
<rscale>  0 0.12527119E+04</rscale>
<asrwt>0</asrwt>
<pdfrwt beam="1">  1        1 0.55318993E-01 0.12527119E+04</pdfrwt>
<pdfrwt beam="2">  1       -1 0.16785778E+00 0.12527119E+04</pdfrwt>
<totfact> 0.17388604E+01</totfact>
</mgrwt>
</event>
<event>
12    1  0.1663913E-007  0.4450887E+04  0.7818608E-02  0.7919292E-01
         -3   -1    0    0    0  501 -0.00000000000E+00  0.00000000000E+00  0.16147128220E+04  0.16147128220E+04  0.00000000000E+00 0.  1.
          3   -1    0    0  501    0  0.00000000000E+00 -0.00000000000E+00 -0.30671700694E+04  0.30671700694E+04  0.00000000000E+00 0. -1.
         23    2    1    2    0    0 -0.20578733239E+04 -0.48398127877E+03 -0.69095429494E+03  0.22259441440E+04  0.91263348519E+02 0.  0.
        254    2    1    2    0    0  0.20578733239E+04  0.48398127877E+03 -0.76150295240E+03  0.24559387474E+04  0.99129606530E+03 0.  0.
        -24    2    4    4    0    0  0.14752382646E+04  0.70359655191E+03 -0.26956813469E+03  0.16585916320E+04  0.82964916644E+02 0.  0.
         24    2    4    4    0    0  0.58263505932E+03 -0.21961527314E+03 -0.49193481772E+03  0.79734711539E+03  0.77897862644E+02 0.  0.
         13    1    3    3    0    0 -0.18214544551E+04 -0.44984862907E+03 -0.63365668488E+03  0.19802981885E+04  0.00000000000E+00 0. -1.
        -13    1    3    3    0    0 -0.23641886887E+03 -0.34132649703E+02 -0.57297610066E+02  0.24564595550E+03  0.00000000000E+00 0.  1.
          2    1    6    6  502    0  0.30711376726E+03 -0.76646637634E+02 -0.23145170363E+03  0.39212684710E+03  0.00000000000E+00 0. -1.
          1    1    5    5  503    0  0.72496858618E+02  0.21262825906E+02 -0.25397454314E+02  0.79705288159E+02  0.00000000000E+00 0. -1.
         -2    1    5    5    0  503  0.14027414060E+04  0.68233372600E+03 -0.24417068037E+03  0.15788863439E+04  0.00000000000E+00 0.  1.
         -1    1    6    6    0  502  0.27552129206E+03 -0.14296863550E+03 -0.26048311408E+03  0.40522026830E+03  0.00000000000E+00 0.  1.
<mgrwt>
<rscale>  0 0.44508870E+04</rscale>
<asrwt>0</asrwt>
<pdfrwt beam="1">  1        3 0.47187231E+00 0.44508870E+04</pdfrwt>
<pdfrwt beam="2">  1       -3 0.24841736E+00 0.44508870E+04</pdfrwt>
<totfact> 0.69096616E-04</totfact>
</mgrwt>
</event>
<event>
12    1  0.2152470E-007  0.3740302E+04  0.7818608E-02  0.8059089E-01
          2   -1    0    0  501    0  0.00000000000E+00  0.00000000000E+00  0.26113151704E+04  0.26113151704E+04  0.00000000000E+00 0. -1.
         -2   -1    0    0    0  501 -0.00000000000E+00 -0.00000000000E+00 -0.13393498305E+04  0.13393498305E+04  0.00000000000E+00 0.  1.
         23    2    1    2    0    0 -0.15196129962E+04  0.43097192996E+03  0.14025316058E+04  0.21143568565E+04  0.91921425837E+02 0.  0.
        254    2    1    2    0    0  0.15196129962E+04 -0.43097192996E+03 -0.13056626592E+03  0.18363081444E+04  0.92737241093E+03 0.  0.
        -24    2    4    4    0    0  0.14882515487E+04 -0.55627514063E+03 -0.29064920244E+03  0.16170861954E+04  0.78460820585E+02 0.  0.
         24    2    4    4    0    0  0.31361447547E+02  0.12530321067E+03  0.16008293653E+03  0.21922194893E+03  0.75810825938E+02 0.  0.
         11    1    3    3    0    0 -0.15108441740E+04  0.41993519238E+03  0.13897089828E+04  0.20953011098E+04  0.00000000000E+00 0. -1.
        -11    1    3    3    0    0 -0.87688221898E+01  0.11036737587E+02  0.12822623027E+02  0.19055746652E+02  0.00000000000E+00 0.  1.
          4    1    6    6  502    0  0.26152266779E+02  0.36078248488E+02  0.11816303801E+02  0.46099957778E+02  0.00000000000E+00 0. -1.
          1    1    5    5  503    0  0.10013729682E+03 -0.56344029427E+02 -0.11044735513E+02  0.11543012626E+03  0.00000000000E+00 0. -1.
         -2    1    5    5    0  503  0.13881142519E+04 -0.49993111120E+03 -0.27960446693E+03  0.15016560692E+04  0.00000000000E+00 0.  1.
         -3    1    6    6    0  502  0.52091807682E+01  0.89224962178E+02  0.14826663272E+03  0.17312199115E+03  0.00000000000E+00 0.  1.
<mgrwt>
<rscale>  0 0.37403019E+04</rscale>
<asrwt>0</asrwt>
<pdfrwt beam="1">  1        2 0.40174079E+00 0.37403019E+04</pdfrwt>
<pdfrwt beam="2">  1       -2 0.20605382E+00 0.37403019E+04</pdfrwt>
<totfact> 0.29318811E-01</totfact>
</mgrwt>
</event>
<event>
12    1  0.1663913E-007  0.1240398E+04  0.7818608E-02  0.9078213E-01
         -1   -1    0    0    0  501 -0.00000000000E+00  0.00000000000E+00  0.17893280565E+03  0.17893280565E+03  0.00000000000E+00 0.  1.
          1   -1    0    0  501    0  0.00000000000E+00 -0.00000000000E+00 -0.21496727278E+04  0.21496727278E+04  0.00000000000E+00 0. -1.
         23    2    1    2    0    0 -0.11727752428E+03 -0.88852597755E+02 -0.17933683333E+02  0.17384602762E+03  0.90840643392E+02 0.  0.
        254    2    1    2    0    0  0.11727752428E+03  0.88852597755E+02 -0.19528062389E+04  0.21547595059E+04  0.89882563372E+03 0.  0.
        -24    2    4    4    0    0  0.66700090001E+02  0.44664959052E+03 -0.61834078266E+03  0.76998119532E+03  0.81123109692E+02 0.  0.
         24    2    4    4    0    0  0.50577434282E+02 -0.35779699276E+03 -0.13344654562E+04  0.13847783106E+04  0.78969302442E+02 0.  0.
         11    1    3    3    0    0 -0.65305613619E+01 -0.46060531760E+02  0.17874388761E+02  0.49836879831E+02  0.00000000000E+00 0.  1.
        -11    1    3    3    0    0 -0.11074696292E+03 -0.42792065995E+02 -0.35808072094E+02  0.12400914779E+03  0.00000000000E+00 0. -1.
          2    1    6    6  502    0 -0.11209862445E+02 -0.54908494440E+02 -0.13614588813E+03  0.14722875613E+03  0.00000000000E+00 0. -1.
          3    1    5    5  503    0  0.10370871636E+02  0.17266370396E+03 -0.29925552542E+03  0.34565037124E+03  0.00000000000E+00 0. -1.
         -4    1    5    5    0  503  0.56329218364E+02  0.27398588656E+03 -0.31908525725E+03  0.42433082408E+03  0.00000000000E+00 0.  1.
         -3    1    6    6    0  502  0.61787296727E+02 -0.30288849832E+03 -0.11983195681E+04  0.12375495544E+04  0.00000000000E+00 0.  1.
<mgrwt>
<rscale>  0 0.12403983E+04</rscale>
<asrwt>0</asrwt>
<pdfrwt beam="1">  1        1 0.33071889E+00 0.12403983E+04</pdfrwt>
<pdfrwt beam="2">  1       -1 0.27528124E-01 0.12403983E+04</pdfrwt>
<totfact> 0.27662612E+01</totfact>
</mgrwt>
</event>
<event>
12    1  0.1663913E-007  0.2131695E+04  0.7818608E-02  0.8547408E-01
          1   -1    0    0  501    0  0.00000000000E+00  0.00000000000E+00  0.94654914209E+03  0.94654914209E+03  0.00000000000E+00 0. -1.
         -1   -1    0    0    0  501 -0.00000000000E+00 -0.00000000000E+00 -0.12001819628E+04  0.12001819628E+04  0.00000000000E+00 0.  1.
         23    2    1    2    0    0 -0.42775561258E+03 -0.74239563870E+03 -0.15009168421E+03  0.87444164528E+03  0.89412129403E+02 0.  0.
        254    2    1    2    0    0  0.42775561258E+03  0.74239563870E+03 -0.10354113648E+03  0.12722894596E+04  0.93481204185E+03 0.  0.
        -24    2    4    4    0    0 -0.26057452526E+03  0.11341435072E+03  0.10618663165E+03  0.31339348111E+03  0.78600096032E+02 0.  0.
         24    2    4    4    0    0  0.68833013784E+03  0.62898128798E+03 -0.20972776813E+03  0.95889597848E+03  0.77973851659E+02 0.  0.
         11    1    3    3    0    0 -0.11052803018E+03 -0.17313212859E+03  0.12708027697E+01  0.20540884681E+03  0.00000000000E+00 0.  1.
        -11    1    3    3    0    0 -0.31722758239E+03 -0.56926351011E+03 -0.15136248698E+03  0.66903279847E+03  0.00000000000E+00 0. -1.
          2    1    6    6  502    0  0.38931334427E+03  0.39825245022E+03 -0.10249281666E+03  0.56628144204E+03  0.00000000000E+00 0. -1.
          1    1    5    5  503    0 -0.23164871686E+03  0.83655355029E+02  0.64556823113E+02  0.25461133097E+03  0.00000000000E+00 0. -1.
         -2    1    5    5    0  503 -0.28925808397E+02  0.29758995687E+02  0.41629808533E+02  0.58782150133E+02  0.00000000000E+00 0.  1.
         -1    1    6    6    0  502  0.29901679357E+03  0.23072883776E+03 -0.10723495147E+03  0.39261453645E+03  0.00000000000E+00 0.  1.
<mgrwt>
<rscale>  0 0.21316953E+04</rscale>
<asrwt>0</asrwt>
<pdfrwt beam="1">  1        1 0.14562294E+00 0.21316953E+04</pdfrwt>
<pdfrwt beam="2">  1       -1 0.18464338E+00 0.21316953E+04</pdfrwt>
<totfact> 0.29494514E+00</totfact>
</mgrwt>
</event>
<event>
12    1  0.1663913E-007  0.1950080E+04  0.7818608E-02  0.8630322E-01
          1   -1    0    0  501    0  0.00000000000E+00  0.00000000000E+00  0.16376956669E+04  0.16376956669E+04  0.00000000000E+00 0. -1.
         -1   -1    0    0    0  501 -0.00000000000E+00 -0.00000000000E+00 -0.58051263103E+03  0.58051263103E+03  0.00000000000E+00 0.  1.
         23    2    1    2    0    0 -0.28580711815E+03 -0.57929372615E+03  0.87644961243E+03  0.10925669530E+04  0.90948851679E+02 0.  0.
        254    2    1    2    0    0  0.28580711815E+03  0.57929372615E+03  0.18073342344E+03  0.11256413450E+04  0.90395626951E+03 0.  0.
        -24    2    4    4    0    0 -0.27603375685E+03  0.23845616802E+02  0.16312580968E+03  0.33141074727E+03  0.80372913741E+02 0.  0.
         24    2    4    4    0    0  0.56184087500E+03  0.55544810935E+03  0.17607613759E+02  0.79423059769E+03  0.79400524217E+02 0.  0.
         11    1    3    3    0    0 -0.12599377909E+02 -0.17379234837E+02  0.64903733672E+02  0.68361369001E+02  0.00000000000E+00 0. -1.
        -11    1    3    3    0    0 -0.27320774024E+03 -0.56191449131E+03  0.81154587876E+03  0.10242055840E+04  0.00000000000E+00 0.  1.
          4    1    6    6  502    0  0.24221237813E+03  0.22633678744E+03  0.45468493165E+02  0.33460807124E+03  0.00000000000E+00 0. -1.
          1    1    5    5  503    0 -0.71559377156E+02  0.40771994569E+02  0.59117054666E+02  0.10138010728E+03  0.00000000000E+00 0. -1.
         -2    1    5    5    0  503 -0.20447437969E+03 -0.16926377767E+02  0.10400875501E+03  0.23003063999E+03  0.00000000000E+00 0.  1.
         -3    1    6    6    0  502  0.31962849686E+03  0.32911132191E+03 -0.27860879406E+02  0.45962252645E+03  0.00000000000E+00 0.  1.
<mgrwt>
<rscale>  0 0.19500800E+04</rscale>
<asrwt>0</asrwt>
<pdfrwt beam="1">  1        1 0.25195318E+00 0.19500800E+04</pdfrwt>
<pdfrwt beam="2">  1       -1 0.89309636E-01 0.19500800E+04</pdfrwt>
<totfact> 0.60173715E+00</totfact>
</mgrwt>
</event>
<event>
12    1  0.1663913E-007  0.1659934E+04  0.7818608E-02  0.8784551E-01
         -2   -1    0    0    0  501 -0.00000000000E+00  0.00000000000E+00  0.14486063235E+04  0.14486063235E+04  0.00000000000E+00 0.  1.
          2   -1    0    0  501    0  0.00000000000E+00 -0.00000000000E+00 -0.47552247232E+03  0.47552247232E+03  0.00000000000E+00 0. -1.
         23    2    1    2    0    0  0.13362301024E+02 -0.42245042364E+03  0.80003369050E+03  0.91004764894E+03  0.97416147990E+02 0.  0.
        254    2    1    2    0    0 -0.13362301024E+02  0.42245042364E+03  0.17305016070E+03  0.10140811469E+04  0.90541222813E+03 0.  0.
        -24    2    4    4    0    0  0.31984599386E+03 -0.54522493671E+02  0.25605407897E+03  0.42091510675E+03  0.79571814286E+02 0.  0.
         24    2    4    4    0    0 -0.33320829488E+03  0.47697291731E+03 -0.83003918271E+02  0.59316604015E+03  0.80158400102E+02 0.  0.
         13    1    3    3    0    0  0.48997535893E+02 -0.34526998901E+03  0.64469318396E+03  0.73296754722E+03  0.00000000000E+00 0.  1.
        -13    1    3    3    0    0 -0.35635234869E+02 -0.77180434633E+02  0.15534050654E+03  0.17708010172E+03  0.00000000000E+00 0. -1.
          4    1    6    6  502    0 -0.31432858982E+03  0.45637145130E+03 -0.95912351729E+02  0.56238469321E+03  0.00000000000E+00 0. -1.
          1    1    5    5  503    0  0.19014891634E+03  0.67183947254E+01  0.13604189648E+03  0.23389986065E+03  0.00000000000E+00 0. -1.
         -2    1    5    5    0  503  0.12969707752E+03 -0.61240888396E+02  0.12001218249E+03  0.18701524610E+03  0.00000000000E+00 0.  1.
         -3    1    6    6    0  502 -0.18879705057E+02  0.20601466016E+02  0.12908433458E+02  0.30781346939E+02  0.00000000000E+00 0.  1.
<mgrwt>
<rscale>  0 0.16599336E+04</rscale>
<asrwt>0</asrwt>
<pdfrwt beam="1">  1        2 0.73157304E-01 0.16599336E+04</pdfrwt>
<pdfrwt beam="2">  1       -2 0.22286251E+00 0.16599336E+04</pdfrwt>
<totfact> 0.59025036E+00</totfact>
</mgrwt>
</event>
<event>
12    1  0.1663913E-007  0.1679305E+04  0.7818608E-02  0.8773256E-01
          2   -1    0    0  501    0  0.00000000000E+00  0.00000000000E+00  0.26120471734E+04  0.26120471734E+04  0.00000000000E+00 0. -1.
         -2   -1    0    0    0  501 -0.00000000000E+00 -0.00000000000E+00 -0.26990948953E+03  0.26990948953E+03  0.00000000000E+00 0.  1.
         23    2    1    2    0    0  0.43222709734E+01  0.58757313432E+03  0.88426940722E+03  0.10656046140E+04  0.91213697525E+02 0.  0.
        254    2    1    2    0    0 -0.43222709734E+01 -0.58757313432E+03  0.14578682767E+04  0.18163520490E+04  0.91021644867E+03 0.  0.
        -24    2    4    4    0    0  0.14293887286E+03 -0.79755093599E+03  0.10862753896E+04  0.13578093232E+04  0.84456612784E+02 0.  0.
         24    2    4    4    0    0 -0.14726114383E+03  0.20997780166E+03  0.37159288712E+03  0.45854272573E+03  0.80022721057E+02 0.  0.
         13    1    3    3    0    0  0.17025532782E+02  0.17428885460E+03  0.33602944387E+03  0.37892249966E+03  0.00000000000E+00 0. -1.
        -13    1    3    3    0    0 -0.12703261809E+02  0.41328427973E+03  0.54823996335E+03  0.68668211433E+03  0.00000000000E+00 0.  1.
          2    1    6    6  502    0 -0.44667298650E+02  0.13099275016E+03  0.17440789091E+03  0.22264855844E+03  0.00000000000E+00 0. -1.
          3    1    5    5  503    0  0.10614239954E+03 -0.37031077429E+03  0.48798629886E+03  0.62171288101E+03  0.00000000000E+00 0. -1.
         -4    1    5    5    0  503  0.36796473321E+02 -0.42724016169E+03  0.59828909069E+03  0.73609644222E+03  0.00000000000E+00 0.  1.
         -1    1    6    6    0  502 -0.10259384518E+03  0.78985051503E+02  0.19718499622E+03  0.23589416729E+03  0.00000000000E+00 0.  1.
<mgrwt>
<rscale>  0 0.16793050E+04</rscale>
<asrwt>0</asrwt>
<pdfrwt beam="1">  1        2 0.40185339E+00 0.16793050E+04</pdfrwt>
<pdfrwt beam="2">  1       -2 0.41524539E-01 0.16793050E+04</pdfrwt>
<totfact> 0.15715855E+01</totfact>
</mgrwt>
</event>
<event>
12    1  0.1663913E-007  0.1621608E+04  0.7818608E-02  0.8807382E-01
          1   -1    0    0  501    0  0.00000000000E+00  0.00000000000E+00  0.39837105584E+04  0.39837105584E+04  0.00000000000E+00 0. -1.
         -1   -1    0    0    0  501 -0.00000000000E+00 -0.00000000000E+00 -0.16502283403E+03  0.16502283403E+03  0.00000000000E+00 0.  1.
         23    2    1    2    0    0 -0.12796581883E+03  0.19945497430E+03  0.38867830184E+02  0.25703630183E+03  0.91648320618E+02 0.  0.
        254    2    1    2    0    0  0.12796581883E+03 -0.19945497430E+03  0.37798198942E+04  0.38916970906E+04  0.89560609365E+03 0.  0.
        -24    2    4    4    0    0 -0.11436229580E+03 -0.36100451277E+03  0.33110549974E+04  0.33336249998E+04  0.81039809415E+02 0.  0.
         24    2    4    4    0    0  0.24232811463E+03  0.16154953847E+03  0.46876489683E+03  0.55807209082E+03  0.82962410389E+02 0.  0.
         11    1    3    3    0    0 -0.71236123744E+02  0.16554049096E+03 -0.28175417642E+00  0.18021742107E+03  0.00000000000E+00 0.  1.
        -11    1    3    3    0    0 -0.56729695090E+02  0.33914483345E+02  0.39149584360E+02  0.76818880759E+02  0.00000000000E+00 0. -1.
          2    1    6    6  502    0 -0.26213727978E+00  0.67922904733E+01  0.47057684694E+02  0.47546078856E+02  0.00000000000E+00 0. -1.
          1    1    5    5  503    0  0.10186754246E+01 -0.66299451096E+02  0.79102270115E+03  0.79379693162E+03  0.00000000000E+00 0. -1.
         -2    1    5    5    0  503 -0.11538097122E+03 -0.29470506167E+03  0.25200322962E+04  0.25398280682E+04  0.00000000000E+00 0.  1.
         -1    1    6    6    0  502  0.24259025191E+03  0.15475724799E+03  0.42170721213E+03  0.51052601197E+03  0.00000000000E+00 0.  1.
<mgrwt>
<rscale>  0 0.16216081E+04</rscale>
<asrwt>0</asrwt>
<pdfrwt beam="1">  1        1 0.61287847E+00 0.16216081E+04</pdfrwt>
<pdfrwt beam="2">  1       -1 0.25388131E-01 0.16216081E+04</pdfrwt>
<totfact> 0.13160185E+00</totfact>
</mgrwt>
</event>
<event>
12    1  0.1663913E-007  0.1635174E+04  0.7818608E-02  0.8799226E-01
         -1   -1    0    0    0  501 -0.00000000000E+00  0.00000000000E+00  0.40334610774E+03  0.40334610774E+03  0.00000000000E+00 0.  1.
          1   -1    0    0  501    0  0.00000000000E+00 -0.00000000000E+00 -0.16572568482E+04  0.16572568482E+04  0.00000000000E+00 0. -1.
         23    2    1    2    0    0 -0.11562372376E+03  0.96235562076E+02  0.24700244176E+03  0.30315093578E+03  0.90885393351E+02 0.  0.
        254    2    1    2    0    0  0.11562372376E+03 -0.96235562076E+02 -0.15009131822E+04  0.17574520202E+04  0.90181322550E+03 0.  0.
        -24    2    4    4    0    0  0.15267507745E+03  0.31085757119E+03 -0.23913879086E+03  0.42869936684E+03  0.81570074127E+02 0.  0.
         24    2    4    4    0    0 -0.37051353687E+02 -0.40709313327E+03 -0.12617743914E+04  0.13287526533E+04  0.80071074939E+02 0.  0.
         13    1    3    3    0    0 -0.33823170594E+02 -0.53671351167E+01  0.10447666248E+03  0.10994628693E+03  0.00000000000E+00 0. -1.
        -13    1    3    3    0    0 -0.81800553169E+02  0.10160269719E+03  0.14252577928E+03  0.19320464885E+03  0.00000000000E+00 0.  1.
          2    1    6    6  502    0 -0.38755175000E+02 -0.10013297830E+03 -0.27022727651E+03  0.29077716194E+03  0.00000000000E+00 0. -1.
          3    1    5    5  503    0  0.94716270083E+02  0.11557179199E+03 -0.12738031455E+03  0.19635110251E+03  0.00000000000E+00 0. -1.
         -2    1    5    5    0  503  0.57958807367E+02  0.19528577920E+03 -0.11175847631E+03  0.23234826433E+03  0.00000000000E+00 0.  1.
         -1    1    6    6    0  502  0.17038213134E+01 -0.30696015497E+03 -0.99154711487E+03  0.10379754914E+04  0.00000000000E+00 0.  1.
<mgrwt>
<rscale>  0 0.16351735E+04</rscale>
<asrwt>0</asrwt>
<pdfrwt beam="1">  1        1 0.25496260E+00 0.16351735E+04</pdfrwt>
<pdfrwt beam="2">  1       -1 0.62053246E-01 0.16351735E+04</pdfrwt>
<totfact> 0.12846909E+01</totfact>
</mgrwt>
</event>
<event>
12    1  0.1663913E-007  0.1443277E+04  0.7818608E-02  0.8923075E-01
          1   -1    0    0  501    0  0.00000000000E+00  0.00000000000E+00  0.21700427355E+04  0.21700427355E+04  0.00000000000E+00 0. -1.
         -1   -1    0    0    0  501 -0.00000000000E+00 -0.00000000000E+00 -0.23997785538E+03  0.23997785538E+03  0.00000000000E+00 0.  1.
         23    2    1    2    0    0 -0.34789262298E+03 -0.15475372428E+03  0.93126021322E+03  0.10106864393E+04  0.96247085591E+02 0.  0.
        254    2    1    2    0    0  0.34789262298E+03  0.15475372428E+03  0.99880466695E+03  0.13993341517E+04  0.90307658203E+03 0.  0.
        -24    2    4    4    0    0  0.63633695671E+03  0.23811445176E+02  0.55187904776E+03  0.84633853814E+03  0.78909634338E+02 0.  0.
         24    2    4    4    0    0 -0.28844433373E+03  0.13094227910E+03  0.44692561919E+03  0.55299561353E+03  0.75601755152E+02 0.  0.
         13    1    3    3    0    0 -0.33379009749E+03 -0.12261856042E+03  0.87339670088E+03  0.94301269220E+03  0.00000000000E+00 0. -1.
        -13    1    3    3    0    0 -0.14102525495E+02 -0.32135163861E+02  0.57863512339E+02  0.67673747066E+02  0.00000000000E+00 0.  1.
          2    1    6    6  502    0 -0.23612576911E+03  0.77878914149E+02  0.37100020679E+03  0.44661130476E+03  0.00000000000E+00 0. -1.
          3    1    5    5  503    0  0.56363188501E+03  0.19843978261E+02  0.45211900771E+03  0.72283212602E+03  0.00000000000E+00 0. -1.
         -4    1    5    5    0  503  0.72705071696E+02  0.39674669144E+01  0.99760040045E+02  0.12350641212E+03  0.00000000000E+00 0.  1.
         -1    1    6    6    0  502 -0.52318564615E+02  0.53063364952E+02  0.75925412405E+02  0.10638430877E+03  0.00000000000E+00 0.  1.
<mgrwt>
<rscale>  0 0.14432771E+04</rscale>
<asrwt>0</asrwt>
<pdfrwt beam="1">  1        1 0.33385271E+00 0.14432771E+04</pdfrwt>
<pdfrwt beam="2">  1       -1 0.36919672E-01 0.14432771E+04</pdfrwt>
<totfact> 0.15660786E+01</totfact>
</mgrwt>
</event>
<event>
12    1  0.1663913E-007  0.1658003E+04  0.7818608E-02  0.8785686E-01
          2   -1    0    0  501    0  0.00000000000E+00  0.00000000000E+00  0.10877561150E+04  0.10877561150E+04  0.00000000000E+00 0. -1.
         -2   -1    0    0    0  501 -0.00000000000E+00 -0.00000000000E+00 -0.63179887195E+03  0.63179887195E+03  0.00000000000E+00 0.  1.
         23    2    1    2    0    0  0.39512680418E+03  0.11206318842E+03 -0.26302217426E+03  0.49605963104E+03  0.90615361921E+02 0.  0.
        254    2    1    2    0    0 -0.39512680418E+03 -0.11206318842E+03  0.71897941728E+03  0.12234953559E+04  0.90073643970E+03 0.  0.
        -24    2    4    4    0    0  0.48034571770E+02 -0.39601461591E+03  0.12570130569E+03  0.42648140212E+03  0.83370690297E+02 0.  0.
         24    2    4    4    0    0 -0.44316137595E+03  0.28395142749E+03  0.59327811159E+03  0.79701395376E+03  0.78942425162E+02 0.  0.
         11    1    3    3    0    0  0.28226839466E+03  0.11350206449E+03 -0.21923401052E+03  0.37499562216E+03  0.00000000000E+00 0.  1.
        -11    1    3    3    0    0  0.11285840952E+03 -0.14388760734E+01 -0.43788163745E+02  0.12106400889E+03  0.00000000000E+00 0. -1.
          2    1    6    6  502    0 -0.34833001712E+03  0.20796080397E+03  0.40742614495E+03  0.57495874670E+03  0.00000000000E+00 0. -1.
          1    1    5    5  503    0  0.36859844886E+02 -0.28209720883E+03  0.12807015658E+03  0.31199270569E+03  0.00000000000E+00 0. -1.
         -2    1    5    5    0  503  0.11174726883E+02 -0.11391740708E+03 -0.23688508839E+01  0.11448869643E+03  0.00000000000E+00 0.  1.
         -1    1    6    6    0  502 -0.94831358830E+02  0.75990623519E+02  0.18585196663E+03  0.22205520706E+03  0.00000000000E+00 0.  1.
<mgrwt>
<rscale>  0 0.16580025E+04</rscale>
<asrwt>0</asrwt>
<pdfrwt beam="1">  1        2 0.16734709E+00 0.16580025E+04</pdfrwt>
<pdfrwt beam="2">  1       -2 0.97199826E-01 0.16580025E+04</pdfrwt>
<totfact> 0.18698093E+01</totfact>
</mgrwt>
</event>
<event>
12    1  0.1663913E-007  0.1349271E+04  0.7818608E-02  0.8991380E-01
          2   -1    0    0  501    0  0.00000000000E+00  0.00000000000E+00  0.18926982873E+04  0.18926982873E+04  0.00000000000E+00 0. -1.
         -2   -1    0    0    0  501 -0.00000000000E+00 -0.00000000000E+00 -0.24046785684E+03  0.24046785684E+03  0.00000000000E+00 0.  1.
         23    2    1    2    0    0 -0.55363979299E+02 -0.33979041640E+03  0.65509857975E+03  0.74598488207E+03  0.93896740142E+02 0.  0.
        254    2    1    2    0    0  0.55363979299E+02  0.33979041640E+03  0.99713185073E+03  0.13871812621E+04  0.90082030888E+03 0.  0.
        -24    2    4    4    0    0 -0.37050082781E+03  0.75556087892E+01  0.60780201455E+03  0.71631023738E+03  0.79681344426E+02 0.  0.
         24    2    4    4    0    0  0.42586480711E+03  0.33223480761E+03  0.38932983618E+03  0.67087102472E+03  0.82154787682E+02 0.  0.
         11    1    3    3    0    0 -0.27219813688E+02 -0.28238177692E+03  0.59041939218E+03  0.65503850639E+03  0.00000000000E+00 0. -1.
        -11    1    3    3    0    0 -0.28144165611E+02 -0.57408639481E+02  0.64679187574E+02  0.90946375685E+02  0.00000000000E+00 0.  1.
          2    1    6    6  502    0  0.15594415069E+03  0.86220188765E+02  0.95748021627E+02  0.20228737659E+03  0.00000000000E+00 0. -1.
          3    1    5    5  503    0 -0.67726730636E+02  0.70125322551E+01  0.17793348955E+03  0.19051617348E+03  0.00000000000E+00 0. -1.
         -4    1    5    5    0  503 -0.30277409718E+03  0.54307653415E+00  0.42986852499E+03  0.52579406390E+03  0.00000000000E+00 0.  1.
         -1    1    6    6    0  502  0.26992065643E+03  0.24601461885E+03  0.29358181455E+03  0.46858364812E+03  0.00000000000E+00 0.  1.
<mgrwt>
<rscale>  0 0.13492711E+04</rscale>
<asrwt>0</asrwt>
<pdfrwt beam="1">  1        2 0.29118434E+00 0.13492711E+04</pdfrwt>
<pdfrwt beam="2">  1       -2 0.36995056E-01 0.13492711E+04</pdfrwt>
<totfact> 0.51569241E+01</totfact>
</mgrwt>
</event>
<event>
12    1  0.1663913E-007  0.1299295E+04  0.7818608E-02  0.9030125E-01
          2   -1    0    0  501    0  0.00000000000E+00  0.00000000000E+00  0.32989083056E+03  0.32989083056E+03  0.00000000000E+00 0. -1.
         -2   -1    0    0    0  501 -0.00000000000E+00 -0.00000000000E+00 -0.12793370971E+04  0.12793370971E+04  0.00000000000E+00 0.  1.
         23    2    1    2    0    0  0.10218420460E+03  0.26583640673E+03 -0.45679276157E+03  0.54616911530E+03  0.92360536279E+02 0.  0.
        254    2    1    2    0    0 -0.10218420460E+03 -0.26583640673E+03 -0.49265350497E+03  0.10630588124E+04  0.89792870305E+03 0.  0.
        -24    2    4    4    0    0 -0.34437689392E+03  0.20048806324E+03 -0.26073873556E+03  0.48327794819E+03  0.82352768129E+02 0.  0.
         24    2    4    4    0    0  0.24219268932E+03 -0.46632446997E+03 -0.23191476941E+03  0.57978086417E+03  0.79028982841E+02 0.  0.
         11    1    3    3    0    0  0.75058491036E+02  0.20769783620E+03 -0.27087291975E+03  0.34949149760E+03  0.00000000000E+00 0. -1.
        -11    1    3    3    0    0  0.27125713567E+02  0.58138570534E+02 -0.18591984182E+03  0.19667761770E+03  0.00000000000E+00 0.  1.
          4    1    6    6  502    0  0.20016102510E+03 -0.43418278097E+03 -0.21511930734E+03  0.52426657308E+03  0.00000000000E+00 0. -1.
          3    1    5    5  503    0 -0.21169543073E+03  0.16681460937E+03 -0.16152792292E+03  0.31421861685E+03  0.00000000000E+00 0. -1.
         -4    1    5    5    0  503 -0.13268146319E+03  0.33673453873E+02 -0.99210812636E+02  0.16905933134E+03  0.00000000000E+00 0.  1.
         -3    1    6    6    0  502  0.42031664215E+02 -0.32141689007E+02 -0.16795462078E+02  0.55514291091E+02  0.00000000000E+00 0.  1.
<mgrwt>
<rscale>  0 0.12992945E+04</rscale>
<asrwt>0</asrwt>
<pdfrwt beam="1">  1        2 0.50752435E-01 0.12992945E+04</pdfrwt>
<pdfrwt beam="2">  1       -2 0.19682109E+00 0.12992945E+04</pdfrwt>
<totfact> 0.13497012E+01</totfact>
</mgrwt>
</event>
<event>
12    1  0.1663913E-007  0.1934171E+04  0.7818608E-02  0.8638032E-01
          2   -1    0    0  501    0  0.00000000000E+00  0.00000000000E+00  0.15471389865E+04  0.15471389865E+04  0.00000000000E+00 0. -1.
         -2   -1    0    0    0  501 -0.00000000000E+00 -0.00000000000E+00 -0.60450563738E+03  0.60450563738E+03  0.00000000000E+00 0.  1.
         23    2    1    2    0    0  0.29345420698E+03 -0.27045009287E+03 -0.33409670171E+03  0.53217871171E+03  0.11106282356E+03 0.  0.
        254    2    1    2    0    0 -0.29345420698E+03  0.27045009287E+03  0.12767300508E+04  0.16194659121E+04  0.91289188499E+03 0.  0.
        -24    2    4    4    0    0 -0.27967907926E+03 -0.30095638665E+03  0.51687213836E+03  0.66519995966E+03  0.80864361030E+02 0.  0.
         24    2    4    4    0    0 -0.13775127718E+02  0.57140647952E+03  0.75985791244E+03  0.95426595249E+03  0.80897107511E+02 0.  0.
         11    1    3    3    0    0  0.10460459373E+03 -0.14632100237E+03 -0.95902264362E+02  0.20383621139E+03  0.00000000000E+00 0. -1.
        -11    1    3    3    0    0  0.18884961325E+03 -0.12412909050E+03 -0.23819443734E+03  0.32834250032E+03  0.00000000000E+00 0.  1.
          2    1    6    6  502    0  0.16679366164E+02  0.41957371178E+03  0.59307245597E+03  0.72667409401E+03  0.00000000000E+00 0. -1.
          1    1    5    5  503    0 -0.28016014521E+03 -0.30527149550E+03  0.51047869647E+03  0.65747159062E+03  0.00000000000E+00 0. -1.
         -2    1    5    5    0  503  0.48106594795E+00  0.43151088506E+01  0.63934418874E+01  0.77283690392E+01  0.00000000000E+00 0.  1.
         -1    1    6    6    0  502 -0.30454493882E+02  0.15183276774E+03  0.16678545646E+03  0.22759185848E+03  0.00000000000E+00 0.  1.
<mgrwt>
<rscale>  0 0.19341709E+04</rscale>
<asrwt>0</asrwt>
<pdfrwt beam="1">  1        2 0.23802138E+00 0.19341709E+04</pdfrwt>
<pdfrwt beam="2">  1       -2 0.93000868E-01 0.19341709E+04</pdfrwt>
<totfact> 0.10923379E+01</totfact>
</mgrwt>
</event>
<event>
12    1  0.1663913E-007  0.3576521E+04  0.7818608E-02  0.8095891E-01
         -2   -1    0    0    0  501 -0.00000000000E+00  0.00000000000E+00  0.85518562872E+03  0.85518562872E+03  0.00000000000E+00 0.  1.
          2   -1    0    0  501    0  0.00000000000E+00 -0.00000000000E+00 -0.37393930703E+04  0.37393930703E+04  0.00000000000E+00 0. -1.
         23    2    1    2    0    0  0.64883171705E+03 -0.56885619900E+03 -0.31923208035E+04  0.33082208760E+04  0.93985526517E+02 0.  0.
        254    2    1    2    0    0 -0.64883171705E+03  0.56885619900E+03  0.30811336201E+03  0.12863578230E+04  0.90288572522E+03 0.  0.
        -24    2    4    4    0    0  0.19833542419E+03  0.98619074457E+02 -0.66268165459E+02  0.24470970808E+03  0.80179231364E+02 0.  0.
         24    2    4    4    0    0 -0.84716714124E+03  0.47023712455E+03  0.37438152747E+03  0.10416481149E+04  0.77808410505E+02 0.  0.
         13    1    3    3    0    0  0.33521104180E+03 -0.33005490769E+03 -0.15905902492E+04  0.16586982925E+04  0.00000000000E+00 0. -1.
        -13    1    3    3    0    0  0.31362067524E+03 -0.23880129131E+03 -0.16017305544E+04  0.16495225835E+04  0.00000000000E+00 0.  1.
          4    1    6    6  502    0 -0.13081038314E+03  0.93726630601E+02  0.38669960978E+02  0.16550348487E+03  0.00000000000E+00 0. -1.
          1    1    5    5  503    0  0.72832053170E+02  0.33082367130E+02 -0.65075588741E+02  0.10312023678E+03  0.00000000000E+00 0. -1.
         -2    1    5    5    0  503  0.12550337102E+03  0.65536707327E+02 -0.11925767184E+01  0.14158947130E+03  0.00000000000E+00 0.  1.
         -3    1    6    6    0  502 -0.71635675809E+03  0.37651049395E+03  0.33571156649E+03  0.87614463007E+03  0.00000000000E+00 0.  1.
<mgrwt>
<rscale>  0 0.35765208E+04</rscale>
<asrwt>0</asrwt>
<pdfrwt beam="1">  1        2 0.57529123E+00 0.35765208E+04</pdfrwt>
<pdfrwt beam="2">  1       -2 0.13156702E+00 0.35765208E+04</pdfrwt>
<totfact> 0.18729990E-01</totfact>
</mgrwt>
</event>
<event>
12    1  0.1663913E-007  0.1999140E+04  0.7818608E-02  0.8607023E-01
         -2   -1    0    0    0  501 -0.00000000000E+00  0.00000000000E+00  0.27749844700E+04  0.27749844700E+04  0.00000000000E+00 0.  1.
          2   -1    0    0  501    0  0.00000000000E+00 -0.00000000000E+00 -0.36005248663E+03  0.36005248663E+03  0.00000000000E+00 0. -1.
         23    2    1    2    0    0 -0.21509586378E+03 -0.69580596122E+03  0.45990399913E+03  0.86617886676E+03  0.91334410367E+02 0.  0.
        254    2    1    2    0    0  0.21509586378E+03  0.69580596122E+03  0.19550279842E+04  0.22688580899E+04  0.89172330155E+03 0.  0.
        -24    2    4    4    0    0  0.36638958393E+03  0.28538219933E+03  0.16837412259E+04  0.17484046731E+04  0.79057309748E+02 0.  0.
         24    2    4    4    0    0 -0.15129372015E+03  0.41042376189E+03  0.27128675838E+03  0.52045341681E+03  0.77057119804E+02 0.  0.
         11    1    3    3    0    0 -0.86395099913E+02 -0.31881306565E+03  0.15691173430E+03  0.36568726596E+03  0.00000000000E+00 0.  1.
        -11    1    3    3    0    0 -0.12870076387E+03 -0.37699289556E+03  0.30299226483E+03  0.50049160080E+03  0.00000000000E+00 0. -1.
          4    1    6    6  502    0 -0.61599652949E+01  0.96943583463E+01 -0.50073143183E+01  0.12529922301E+02  0.00000000000E+00 0. -1.
          3    1    5    5  503    0  0.73308662706E+01  0.61994095538E+01  0.10543008956E+03  0.10586632167E+03  0.00000000000E+00 0. -1.
         -4    1    5    5    0  503  0.35905871766E+03  0.27918278978E+03  0.15783111363E+04  0.16425383514E+04  0.00000000000E+00 0.  1.
         -1    1    6    6    0  502 -0.14513375486E+03  0.40072940354E+03  0.27629407270E+03  0.50792349450E+03  0.00000000000E+00 0.  1.
<mgrwt>
<rscale>  0 0.19991399E+04</rscale>
<asrwt>0</asrwt>
<pdfrwt beam="1">  1        2 0.55392692E-01 0.19991399E+04</pdfrwt>
<pdfrwt beam="2">  1       -2 0.42692067E+00 0.19991399E+04</pdfrwt>
<totfact> 0.41149410E-01</totfact>
</mgrwt>
</event>
<event>
12    1  0.1663913E-007  0.1383931E+04  0.7818608E-02  0.8965533E-01
         -1   -1    0    0    0  501 -0.00000000000E+00  0.00000000000E+00  0.32231355555E+03  0.32231355555E+03  0.00000000000E+00 0. -1.
          1   -1    0    0  501    0  0.00000000000E+00 -0.00000000000E+00 -0.14855602454E+04  0.14855602454E+04  0.00000000000E+00 0.  1.
         23    2    1    2    0    0  0.22251792861E+03  0.31076282592E+03 -0.29405459042E+03  0.49085712221E+03  0.91568825223E+02 0.  0.
        254    2    1    2    0    0 -0.22251792861E+03 -0.31076282592E+03 -0.86919209941E+03  0.13170166787E+04  0.91266108922E+03 0.  0.
        -24    2    4    4    0    0 -0.21383797547E+03 -0.39161520298E+03 -0.12951807219E+02  0.45327317987E+03  0.78738042439E+02 0.  0.
         24    2    4    4    0    0 -0.86799531412E+01  0.80852377055E+02 -0.85624029219E+03  0.86374349883E+03  0.79328086723E+02 0.  0.
         11    1    3    3    0    0  0.13430854846E+03  0.16383656652E+03 -0.21598576044E+03  0.30254099793E+03  0.00000000000E+00 0.  1.
        -11    1    3    3    0    0  0.88209380149E+02  0.14692625941E+03 -0.78068829976E+02  0.18831612428E+03  0.00000000000E+00 0. -1.
          4    1    6    6  502    0 -0.32322373853E+01 -0.12827417969E+02 -0.40084372142E+02  0.42210743897E+02  0.00000000000E+00 0. -1.
          1    1    5    5  503    0 -0.20183115403E+02 -0.71737735329E+02 -0.26508887257E+02  0.79097294019E+02  0.00000000000E+00 0. -1.
         -4    1    5    5    0  503 -0.19365486007E+03 -0.31987746765E+03  0.13557080037E+02  0.37417588586E+03  0.00000000000E+00 0.  1.
         -3    1    6    6    0  502 -0.54477157560E+01  0.93679795024E+02 -0.81615592004E+03  0.82153275493E+03  0.00000000000E+00 0.  1.
<mgrwt>
<rscale>  0 0.13839309E+04</rscale>
<asrwt>0</asrwt>
<pdfrwt beam="1">  1        1 0.22854773E+00 0.13839309E+04</pdfrwt>
<pdfrwt beam="2">  1       -1 0.49586701E-01 0.13839309E+04</pdfrwt>
<totfact> 0.26649092E+01</totfact>
</mgrwt>
</event>
<event>
12    1  0.1663913E-007  0.1859058E+04  0.7818608E-02  0.8675509E-01
         -1   -1    0    0    0  501 -0.00000000000E+00  0.00000000000E+00  0.76003396756E+03  0.76003396756E+03  0.00000000000E+00 0.  1.
          1   -1    0    0  501    0  0.00000000000E+00 -0.00000000000E+00 -0.11368231526E+04  0.11368231526E+04  0.00000000000E+00 0. -1.
         23    2    1    2    0    0 -0.27655959652E+03  0.29686785013E+03 -0.73415587805E+03  0.84372161673E+03  0.90915248413E+02 0.  0.
        254    2    1    2    0    0  0.27655959652E+03 -0.29686785013E+03  0.35736669304E+03  0.10531355034E+04  0.90375201485E+03 0.  0.
        -24    2    4    4    0    0 -0.14579023882E+03  0.20090048229E+02  0.47728194670E+03  0.50590455866E+03  0.80516843280E+02 0.  0.
         24    2    4    4    0    0  0.42234983535E+03 -0.31695789836E+03 -0.11991525366E+03  0.54723094473E+03  0.78995861066E+02 0.  0.
         13    1    3    3    0    0 -0.55125098299E+02  0.47212194382E+02 -0.21159380831E+03  0.22369556874E+03  0.00000000000E+00 0.  1.
        -13    1    3    3    0    0 -0.22143449823E+03  0.24965565575E+03 -0.52256206974E+03  0.62002604799E+03  0.00000000000E+00 0. -1.
          4    1    6    6  502    0  0.88404360464E+02 -0.92677667775E+02 -0.56519088450E+02  0.13999602999E+03  0.00000000000E+00 0. -1.
          1    1    5    5  503    0 -0.44128705088E+02  0.12842368295E+02  0.28105362134E+03  0.28478659924E+03  0.00000000000E+00 0. -1.
         -2    1    5    5    0  503 -0.10166153373E+03  0.72476799343E+01  0.19622832536E+03  0.22111795942E+03  0.00000000000E+00 0.  1.
         -3    1    6    6    0  502  0.33394547488E+03 -0.22428023059E+03 -0.63396165210E+02  0.40723491475E+03  0.00000000000E+00 0.  1.
<mgrwt>
<rscale>  0 0.18590581E+04</rscale>
<asrwt>0</asrwt>
<pdfrwt beam="1">  1        1 0.17489587E+00 0.18590581E+04</pdfrwt>
<pdfrwt beam="2">  1       -1 0.11692830E+00 0.18590581E+04</pdfrwt>
<totfact> 0.73673184E+00</totfact>
</mgrwt>
</event>
<event>
12    1  0.1663913E-007  0.1510328E+04  0.7818608E-02  0.8877614E-01
         -2   -1    0    0    0  501 -0.00000000000E+00  0.00000000000E+00  0.46341256155E+03  0.46341256155E+03  0.00000000000E+00 0.  1.
          2   -1    0    0  501    0  0.00000000000E+00 -0.00000000000E+00 -0.12305944574E+04  0.12305944574E+04  0.00000000000E+00 0. -1.
         23    2    1    2    0    0 -0.10867614666E+03  0.48134808717E+03 -0.15477100068E+03  0.52509500859E+03  0.90907752805E+02 0.  0.
        254    2    1    2    0    0  0.10867614666E+03 -0.48134808717E+03 -0.61241089516E+03  0.11689120103E+04  0.86475528188E+03 0.  0.
        -24    2    4    4    0    0 -0.14202861012E+03 -0.25789155023E+03 -0.74088362465E+03  0.80134747662E+03  0.81049708449E+02 0.  0.
         24    2    4    4    0    0  0.25070475678E+03 -0.22345653694E+03  0.12847272949E+03  0.36756453372E+03  0.76241361847E+02 0.  0.
         11    1    3    3    0    0 -0.74496569474E+02  0.35639570164E+03 -0.71372165866E+02  0.37102779016E+03  0.00000000000E+00 0.  1.
        -11    1    3    3    0    0 -0.34179577186E+02  0.12495238553E+03 -0.83398834815E+02  0.15406721843E+03  0.00000000000E+00 0. -1.
          4    1    6    6  502    0  0.12553414147E+01 -0.13874015165E+02  0.19604869203E+02  0.24050261441E+02  0.00000000000E+00 0. -1.
          3    1    5    5  503    0 -0.51866248937E+01 -0.19120850860E+02 -0.12783395061E+03  0.12936006704E+03  0.00000000000E+00 0. -1.
         -4    1    5    5    0  503 -0.13684198522E+03 -0.23877069937E+03 -0.61304967404E+03  0.67198740958E+03  0.00000000000E+00 0.  1.
         -3    1    6    6    0  502  0.24944941536E+03 -0.20958252178E+03  0.10886786028E+03  0.34351427228E+03  0.00000000000E+00 0.  1.
<mgrwt>
<rscale>  0 0.15103283E+04</rscale>
<asrwt>0</asrwt>
<pdfrwt beam="1">  1        2 0.18932222E+00 0.15103283E+04</pdfrwt>
<pdfrwt beam="2">  1       -2 0.71294242E-01 0.15103283E+04</pdfrwt>
<totfact> 0.31314958E+01</totfact>
</mgrwt>
</event>
<event>
12    1  0.1663913E-007  0.2196090E+04  0.7818608E-02  0.8520057E-01
          2   -1    0    0  501    0  0.00000000000E+00  0.00000000000E+00  0.11770673534E+04  0.11770673534E+04  0.00000000000E+00 0. -1.
         -2   -1    0    0    0  501 -0.00000000000E+00 -0.00000000000E+00 -0.10243276787E+04  0.10243276787E+04  0.00000000000E+00 0.  1.
         23    2    1    2    0    0  0.74367869125E+03 -0.18609032723E+03 -0.42798509439E+03  0.88413552321E+03  0.10409983990E+03 0.  0.
        254    2    1    2    0    0 -0.74367869125E+03  0.18609032723E+03  0.58072476903E+03  0.13172595089E+04  0.90013540686E+03 0.  0.
        -24    2    4    4    0    0 -0.55671696847E+01 -0.28985047568E+03  0.15896818025E+03  0.33963972328E+03  0.77717228910E+02 0.  0.
         24    2    4    4    0    0 -0.73811152157E+03  0.47594080291E+03  0.42175658877E+03  0.97761978561E+03  0.80830432973E+02 0.  0.
         13    1    3    3    0    0  0.18903276649E+02  0.10911298568E+02 -0.18952245808E+02  0.28906364795E+02  0.00000000000E+00 0. -1.
        -13    1    3    3    0    0  0.72477541460E+03 -0.19700162580E+03 -0.40903284858E+03  0.85522915841E+03  0.00000000000E+00 0.  1.
          4    1    6    6  502    0 -0.39804983064E+03  0.28826865904E+03  0.20210494838E+03  0.53140276403E+03  0.00000000000E+00 0. -1.
          1    1    5    5  503    0 -0.33268901744E+02 -0.21201102223E+03  0.92898792691E+02  0.23384969330E+03  0.00000000000E+00 0. -1.
         -2    1    5    5    0  503  0.27701732059E+02 -0.77839453447E+02  0.66069387561E+02  0.10579002999E+03  0.00000000000E+00 0.  1.
         -3    1    6    6    0  502 -0.34006169093E+03  0.18767214387E+03  0.21965164039E+03  0.44621702158E+03  0.00000000000E+00 0.  1.
<mgrwt>
<rscale>  0 0.21960899E+04</rscale>
<asrwt>0</asrwt>
<pdfrwt beam="1">  1        2 0.18108728E+00 0.21960899E+04</pdfrwt>
<pdfrwt beam="2">  1       -2 0.15758887E+00 0.21960899E+04</pdfrwt>
<totfact> 0.46928383E+00</totfact>
</mgrwt>
</event>
<event>
12    1  0.1663913E-007  0.2160361E+04  0.7818608E-02  0.8535110E-01
         -1   -1    0    0    0  501 -0.00000000000E+00  0.00000000000E+00  0.14390888540E+04  0.14390888540E+04  0.00000000000E+00 0.  1.
          1   -1    0    0  501    0  0.00000000000E+00 -0.00000000000E+00 -0.81078414705E+03  0.81078414705E+03  0.00000000000E+00 0. -1.
         23    2    1    2    0    0 -0.64800213191E+03 -0.57317236359E+03  0.49509720900E+03  0.10006736535E+04  0.88279064004E+02 0.  0.
        254    2    1    2    0    0  0.64800213191E+03  0.57317236359E+03  0.13320749794E+03  0.12491993475E+04  0.89124713239E+03 0.  0.
        -24    2    4    4    0    0  0.79614710582E+03  0.27483595068E+03  0.25799915864E+03  0.88462031365E+03  0.81268195315E+02 0.  0.
         24    2    4    4    0    0 -0.14814497392E+03  0.29833641290E+03 -0.12479166070E+03  0.36457903386E+03  0.79958519191E+02 0.  0.
         11    1    3    3    0    0 -0.10328362061E+03 -0.57583417893E+02  0.48982429159E+02  0.12799466656E+03  0.00000000000E+00 0. -1.
        -11    1    3    3    0    0 -0.54471851130E+03 -0.51558894570E+03  0.44611477984E+03  0.87267898695E+03  0.00000000000E+00 0.  1.
          2    1    6    6  502    0 -0.54673921311E+02  0.69553162804E+02 -0.66448665165E+02  0.11064495122E+03  0.00000000000E+00 0. -1.
          1    1    5    5  503    0  0.37910769316E+03  0.15826243518E+03  0.15834366077E+03  0.44027531876E+03  0.00000000000E+00 0. -1.
         -2    1    5    5    0  503  0.41703941266E+03  0.11657351550E+03  0.99655497868E+02  0.44434499489E+03  0.00000000000E+00 0.  1.
         -1    1    6    6    0  502 -0.93471052607E+02  0.22878325010E+03 -0.58342995535E+02  0.25393408265E+03  0.00000000000E+00 0.  1.
<mgrwt>
<rscale>  0 0.21603615E+04</rscale>
<asrwt>0</asrwt>
<pdfrwt beam="1">  1        1 0.12473602E+00 0.21603615E+04</pdfrwt>
<pdfrwt beam="2">  1       -1 0.22139828E+00 0.21603615E+04</pdfrwt>
<totfact> 0.21317526E+00</totfact>
</mgrwt>
</event>
<event>
12    1  0.1663913E-007  0.2465988E+04  0.7818608E-02  0.8415204E-01
         -1   -1    0    0    0  501 -0.00000000000E+00  0.00000000000E+00  0.19496394712E+04  0.19496394712E+04  0.00000000000E+00 0.  1.
          1   -1    0    0  501    0  0.00000000000E+00 -0.00000000000E+00 -0.77977207191E+03  0.77977207191E+03  0.00000000000E+00 0. -1.
         23    2    1    2    0    0 -0.63699628194E+03  0.20781938237E+03  0.14197254703E+04  0.15726465976E+04  0.92971775717E+02 0.  0.
        254    2    1    2    0    0  0.63699628194E+03 -0.20781938237E+03 -0.24985807095E+03  0.11567649456E+04  0.90924305044E+03 0.  0.
        -24    2    4    4    0    0  0.53280809891E+03 -0.54467725614E+03 -0.13695292671E+03  0.77809708143E+03  0.78237972709E+02 0.  0.
         24    2    4    4    0    0  0.10418818303E+03  0.33685787378E+03 -0.11290514423E+03  0.37866786413E+03  0.79456749998E+02 0.  0.
         11    1    3    3    0    0 -0.34580098576E+03  0.10128625164E+03  0.86684619213E+03  0.93875425290E+03  0.00000000000E+00 0.  1.
        -11    1    3    3    0    0 -0.29119529618E+03  0.10653313072E+03  0.55287927814E+03  0.63389234469E+03  0.00000000000E+00 0. -1.
          2    1    6    6  502    0  0.62118742119E+02  0.83509728813E+02 -0.42069320001E+02  0.11226059244E+03  0.00000000000E+00 0. -1.
          1    1    5    5  503    0  0.30216360090E+03 -0.26002553038E+03 -0.52090459559E+02  0.40203175762E+03  0.00000000000E+00 0. -1.
         -2    1    5    5    0  503  0.23064449801E+03 -0.28465172576E+03 -0.84862467155E+02  0.37606532381E+03  0.00000000000E+00 0.  1.
         -1    1    6    6    0  502  0.42069440909E+02  0.25334814496E+03 -0.70835824232E+02  0.26640727169E+03  0.00000000000E+00 0.  1.
<mgrwt>
<rscale>  0 0.24659882E+04</rscale>
<asrwt>0</asrwt>
<pdfrwt beam="1">  1        1 0.11996493E+00 0.24659882E+04</pdfrwt>
<pdfrwt beam="2">  1       -1 0.29994453E+00 0.24659882E+04</pdfrwt>
<totfact> 0.67845116E-01</totfact>
</mgrwt>
</event>
<event>
12    1  0.1663913E-007  0.3183014E+04  0.7818608E-02  0.8193318E-01
         -2   -1    0    0    0  501 -0.00000000000E+00  0.00000000000E+00  0.18920319248E+04  0.18920319248E+04  0.00000000000E+00 0.  1.
          2   -1    0    0  501    0  0.00000000000E+00 -0.00000000000E+00 -0.13387166715E+04  0.13387166715E+04  0.00000000000E+00 0. -1.
         23    2    1    2    0    0 -0.92699245392E+03  0.96470522809E+03 -0.35649186292E+03  0.13877339238E+04  0.93529718918E+02 0.  0.
        254    2    1    2    0    0  0.92699245392E+03 -0.96470522809E+03  0.90980711621E+03  0.18430146724E+04  0.88260008341E+03 0.  0.
        -24    2    4    4    0    0  0.29188780780E+03  0.65177402381E+02  0.45027902274E+03  0.54622999973E+03  0.78545707430E+02 0.  0.
         24    2    4    4    0    0  0.63510464611E+03 -0.10298826305E+04  0.45952809347E+03  0.12967846727E+04  0.80425583797E+02 0.  0.
         11    1    3    3    0    0 -0.29730859373E+03  0.35732629682E+03 -0.15449442151E+03  0.48983977848E+03  0.00000000000E+00 0.  1.
        -11    1    3    3    0    0 -0.62968386019E+03  0.60737893126E+03 -0.20199744142E+03  0.89789414536E+03  0.00000000000E+00 0. -1.
          4    1    6    6  502    0  0.61939001718E+03 -0.99844730422E+03  0.45955969473E+03  0.12616402521E+04  0.00000000000E+00 0. -1.
          3    1    5    5  503    0  0.23851761330E+03  0.31127565904E+02  0.39347274704E+03  0.46117283081E+03  0.00000000000E+00 0. -1.
         -4    1    5    5    0  503  0.53370194501E+02  0.34049836477E+02  0.56806275706E+02  0.85057168921E+02  0.00000000000E+00 0.  1.
         -3    1    6    6    0  502  0.15714628938E+02 -0.31435326245E+02 -0.31601263771E-01  0.35144420573E+02  0.00000000000E+00 0.  1.
<mgrwt>
<rscale>  0 0.31830141E+04</rscale>
<asrwt>0</asrwt>
<pdfrwt beam="1">  1        2 0.20595641E+00 0.31830141E+04</pdfrwt>
<pdfrwt beam="2">  1       -2 0.29108184E+00 0.31830141E+04</pdfrwt>
<totfact> 0.47693570E-01</totfact>
</mgrwt>
</event>
<event>
12    1  0.1663913E-007  0.1733235E+04  0.7818608E-02  0.8742633E-01
          1   -1    0    0  501    0  0.00000000000E+00  0.00000000000E+00  0.11291335431E+04  0.11291335431E+04  0.00000000000E+00 0. -1.
         -1   -1    0    0    0  501 -0.00000000000E+00 -0.00000000000E+00 -0.66513443899E+03  0.66513443899E+03  0.00000000000E+00 0.  1.
         23    2    1    2    0    0  0.38060689905E+03 -0.21937880957E+02  0.68879928068E+03  0.79259434489E+03  0.91752189349E+02 0.  0.
        254    2    1    2    0    0 -0.38060689905E+03  0.21937880957E+02 -0.22480017661E+03  0.10016736372E+04  0.89859449908E+03 0.  0.
        -24    2    4    4    0    0  0.90570346507E+02  0.59420843896E+02  0.27693633339E+03  0.30774303512E+03  0.79235210349E+02 0.  0.
         24    2    4    4    0    0 -0.47117724556E+03 -0.37482962938E+02 -0.50173651000E+03  0.69393060205E+03  0.79919870788E+02 0.  0.
         11    1    3    3    0    0  0.11029591373E+03 -0.47317165081E+02  0.19122440510E+03  0.22576730455E+03  0.00000000000E+00 0.  1.
        -11    1    3    3    0    0  0.27031098532E+03  0.25379284123E+02  0.49757487558E+03  0.56682704034E+03  0.00000000000E+00 0. -1.
          2    1    6    6  502    0 -0.13393317463E+03 -0.21537457697E+02 -0.19655857557E+03  0.23882468671E+03  0.00000000000E+00 0. -1.
          3    1    5    5  503    0  0.42235140098E+02  0.72503977581E+02  0.16468101634E+03  0.18482551493E+03  0.00000000000E+00 0. -1.
         -4    1    5    5    0  503  0.48335206410E+02 -0.13083133686E+02  0.11225531705E+03  0.12291752020E+03  0.00000000000E+00 0.  1.
         -1    1    6    6    0  502 -0.33724407093E+03 -0.15945505241E+02 -0.30517793443E+03  0.45510591534E+03  0.00000000000E+00 0.  1.
<mgrwt>
<rscale>  0 0.17332347E+04</rscale>
<asrwt>0</asrwt>
<pdfrwt beam="1">  1        1 0.17371285E+00 0.17332347E+04</pdfrwt>
<pdfrwt beam="2">  1       -1 0.10232838E+00 0.17332347E+04</pdfrwt>
<totfact> 0.10342776E+01</totfact>
</mgrwt>
</event>
<event>
12    1  0.1663913E-007  0.1804177E+04  0.7818608E-02  0.8704081E-01
          2   -1    0    0  501    0  0.00000000000E+00  0.00000000000E+00  0.19988148173E+04  0.19988148173E+04  0.00000000000E+00 0. -1.
         -2   -1    0    0    0  501 -0.00000000000E+00 -0.00000000000E+00 -0.40712323069E+03  0.40712323069E+03  0.00000000000E+00 0.  1.
         23    2    1    2    0    0  0.40474094624E+03  0.49184317120E+03  0.34401898868E+03  0.72999580532E+03  0.93914176778E+02 0.  0.
        254    2    1    2    0    0 -0.40474094624E+03 -0.49184317120E+03  0.12476725979E+04  0.16759422426E+04  0.91998399470E+03 0.  0.
        -24    2    4    4    0    0 -0.30505368224E+03  0.20879798636E+03  0.62117236551E+03  0.72749221788E+03  0.82069916785E+02 0.  0.
         24    2    4    4    0    0 -0.99687263998E+02 -0.70064115756E+03  0.62650023240E+03  0.94845002477E+03  0.78862703592E+02 0.  0.
         13    1    3    3    0    0  0.17718383869E+02  0.55288685173E+02  0.50319652637E+02  0.76829989435E+02  0.00000000000E+00 0. -1.
        -13    1    3    3    0    0  0.38702256237E+03  0.43655448602E+03  0.29369933604E+03  0.65316581589E+03  0.00000000000E+00 0.  1.
          2    1    6    6  502    0 -0.66639101899E+02 -0.21004233476E+03  0.19584714193E+03  0.29481291575E+03  0.00000000000E+00 0. -1.
          3    1    5    5  503    0 -0.42206470102E+02  0.10589627773E+02  0.12210017378E+03  0.12962244703E+03  0.00000000000E+00 0. -1.
         -4    1    5    5    0  503 -0.26284721214E+03  0.19820835859E+03  0.49907219173E+03  0.59786977085E+03  0.00000000000E+00 0.  1.
         -1    1    6    6    0  502 -0.33048162099E+02 -0.49059882280E+03  0.43065309047E+03  0.65363710901E+03  0.00000000000E+00 0.  1.
<mgrwt>
<rscale>  0 0.18041773E+04</rscale>
<asrwt>0</asrwt>
<pdfrwt beam="1">  1        2 0.30750997E+00 0.18041773E+04</pdfrwt>
<pdfrwt beam="2">  1       -2 0.62634344E-01 0.18041773E+04</pdfrwt>
<totfact> 0.14927173E+01</totfact>
</mgrwt>
</event>
<event>
12    1  0.2576205E-007  0.1896340E+04  0.7818608E-02  0.8656680E-01
         -1   -1    0    0    0  501 -0.00000000000E+00  0.00000000000E+00  0.64556139517E+03  0.64556139517E+03  0.00000000000E+00 0.  1.
          1   -1    0    0  501    0  0.00000000000E+00 -0.00000000000E+00 -0.13926275962E+04  0.13926275962E+04  0.00000000000E+00 0. -1.
         23    2    1    2    0    0 -0.40401281014E+02 -0.67655931968E+03  0.20861835436E+02  0.68470009120E+03  0.94943257571E+02 0.  0.
        254    2    1    2    0    0  0.40401281014E+02  0.67655931968E+03 -0.76792803645E+03  0.13534889002E+04  0.88479034643E+03 0.  0.
        -24    2    4    4    0    0  0.89686924307E+02  0.12590895407E+03  0.18149276728E+03  0.25181947393E+03  0.81096323994E+02 0.  0.
         24    2    4    4    0    0 -0.49285643293E+02  0.55065036560E+03 -0.94942080373E+03  0.11016694262E+04  0.81429493208E+02 0.  0.
         13    1    3    3    0    0 -0.34091634991E+01  0.24774355843E+00  0.57800077782E+01  0.67150772557E+01  0.00000000000E+00 0. -1.
        -13    1    3    3    0    0 -0.36992117515E+02 -0.67680706324E+03  0.15081827658E+02  0.67798501394E+03  0.00000000000E+00 0.  1.
          2    1    6    6  502    0 -0.21020691542E+02  0.49665831443E+03 -0.82663938115E+03  0.96459526084E+03  0.00000000000E+00 0. -1.
          3    1    5    5  503    0  0.71253439068E+02  0.10145452437E+03  0.18313395920E+03  0.22115180331E+03  0.00000000000E+00 0. -1.
         -4    1    5    5    0  503  0.18433485239E+02  0.24454429703E+02 -0.16411919191E+01  0.30667670617E+02  0.00000000000E+00 0.  1.
         -1    1    6    6    0  502 -0.28264951751E+02  0.53992051177E+02 -0.12278142258E+03  0.13707416539E+03  0.00000000000E+00 0.  1.
<mgrwt>
<rscale>  0 0.18963403E+04</rscale>
<asrwt>0</asrwt>
<pdfrwt beam="1">  1        1 0.21425040E+00 0.18963403E+04</pdfrwt>
<pdfrwt beam="2">  1       -1 0.99317139E-01 0.18963403E+04</pdfrwt>
<totfact> 0.70453325E+00</totfact>
</mgrwt>
</event>
<event>
12    1  0.1663913E-007  0.1978660E+04  0.7818608E-02  0.8616663E-01
          2   -1    0    0  501    0  0.00000000000E+00  0.00000000000E+00  0.13742760955E+04  0.13742760955E+04  0.00000000000E+00 0. -1.
         -2   -1    0    0    0  501 -0.00000000000E+00 -0.00000000000E+00 -0.71221078838E+03  0.71221078838E+03  0.00000000000E+00 0.  1.
         23    2    1    2    0    0 -0.81079376295E+02  0.71666238733E+03 -0.55127966604E+02  0.72906201936E+03  0.91178356453E+02 0.  0.
        254    2    1    2    0    0  0.81079376295E+02 -0.71666238733E+03  0.71719327373E+03  0.13574248645E+04  0.89892003442E+03 0.  0.
        -24    2    4    4    0    0  0.16269431108E+03  0.14813913505E+03  0.83910679852E+01  0.23352030758E+03  0.77760413069E+02 0.  0.
         24    2    4    4    0    0 -0.81614934780E+02 -0.86480152238E+03  0.70880220575E+03  0.11239045570E+04  0.78855662956E+02 0.  0.
         13    1    3    3    0    0 -0.20050830706E+02  0.22908692111E+03  0.24529436135E+02  0.23126726200E+03  0.00000000000E+00 0. -1.
        -13    1    3    3    0    0 -0.61028545589E+02  0.48757546623E+03 -0.79657402738E+02  0.49779475736E+03  0.00000000000E+00 0.  1.
          2    1    6    6  502    0 -0.66571068889E+02 -0.43718187397E+03  0.39927680469E+03  0.59580337773E+03  0.00000000000E+00 0. -1.
          3    1    5    5  503    0  0.11179504626E+03  0.58609162899E+02 -0.17221616263E+02  0.12739603766E+03  0.00000000000E+00 0. -1.
         -4    1    5    5    0  503  0.50899264812E+02  0.89529972148E+02  0.25612684249E+02  0.10612426992E+03  0.00000000000E+00 0.  1.
         -1    1    6    6    0  502 -0.15043865891E+02 -0.42761964841E+03  0.30952540105E+03  0.52810117923E+03  0.00000000000E+00 0.  1.
<mgrwt>
<rscale>  0 0.19786604E+04</rscale>
<asrwt>0</asrwt>
<pdfrwt beam="1">  1        2 0.21142709E+00 0.19786604E+04</pdfrwt>
<pdfrwt beam="2">  1       -2 0.10957089E+00 0.19786604E+04</pdfrwt>
<totfact> 0.92430762E+00</totfact>
</mgrwt>
</event>
<event>
12    1  0.1663913E-007  0.1442993E+04  0.7818608E-02  0.8923273E-01
          2   -1    0    0  501    0  0.00000000000E+00  0.00000000000E+00  0.21043084979E+04  0.21043084979E+04  0.00000000000E+00 0. -1.
         -2   -1    0    0    0  501 -0.00000000000E+00 -0.00000000000E+00 -0.24737677469E+03  0.24737677469E+03  0.00000000000E+00 0.  1.
         23    2    1    2    0    0 -0.30876912607E+03 -0.79438331458E+02  0.10589768420E+04  0.11090646419E+04  0.83328303541E+02 0.  0.
        254    2    1    2    0    0  0.30876912607E+03  0.79438331458E+02  0.79795488123E+03  0.12426206308E+04  0.89762197935E+03 0.  0.
        -24    2    4    4    0    0 -0.20102459667E+03 -0.47317049265E+02  0.65615917642E+03  0.69258654558E+03  0.80507556807E+02 0.  0.
         24    2    4    4    0    0  0.50979372274E+03  0.12675538072E+03  0.14179570481E+03  0.55003408518E+03  0.80466804820E+02 0.  0.
         11    1    3    3    0    0 -0.30989733193E+02 -0.27283080100E+02  0.78917940454E+02  0.89066106621E+02  0.00000000000E+00 0.  1.
        -11    1    3    3    0    0 -0.27777939287E+03 -0.52155251358E+02  0.98005890158E+03  0.10199985353E+04  0.00000000000E+00 0. -1.
          4    1    6    6  502    0  0.14394552435E+02  0.15173725535E+02  0.17408020034E+02  0.27211840215E+02  0.00000000000E+00 0. -1.
          3    1    5    5  503    0 -0.42481555333E+02 -0.36203951676E+02  0.10427911707E+03  0.11827739816E+03  0.00000000000E+00 0. -1.
         -4    1    5    5    0  503 -0.15854304134E+03 -0.11113097589E+02  0.55188005935E+03  0.57430914741E+03  0.00000000000E+00 0.  1.
         -3    1    6    6    0  502  0.49539917030E+03  0.11158165519E+03  0.12438768478E+03  0.52282224497E+03  0.00000000000E+00 0.  1.
<mgrwt>
<rscale>  0 0.14429928E+04</rscale>
<asrwt>0</asrwt>
<pdfrwt beam="1">  1        2 0.32373976E+00 0.14429928E+04</pdfrwt>
<pdfrwt beam="2">  1       -2 0.38057967E-01 0.14429928E+04</pdfrwt>
<totfact> 0.36985760E+01</totfact>
</mgrwt>
</event>
<event>
12    1  0.1663913E-007  0.1041049E+04  0.7818608E-02  0.9264634E-01
          2   -1    0    0  501    0  0.00000000000E+00  0.00000000000E+00  0.34433072666E+03  0.34433072666E+03  0.00000000000E+00 0. -1.
         -2   -1    0    0    0  501 -0.00000000000E+00 -0.00000000000E+00 -0.78687656285E+03  0.78687656285E+03  0.00000000000E+00 0.  1.
         23    2    1    2    0    0  0.13834233929E+02  0.14105873636E+02  0.70301194635E+02  0.11773782702E+03  0.92355704988E+02 0.  0.
        254    2    1    2    0    0 -0.13834233929E+02 -0.14105873636E+02 -0.51284703082E+03  0.10134694625E+04  0.87390955636E+03 0.  0.
        -24    2    4    4    0    0 -0.77819630105E+01  0.12948452934E+03 -0.72702048778E+03  0.74301533863E+03  0.81769196468E+02 0.  0.
         24    2    4    4    0    0 -0.60522709183E+01 -0.14359040298E+03  0.21417345696E+03  0.27045412387E+03  0.81365408140E+02 0.  0.
         11    1    3    3    0    0  0.29630269565E+02  0.20281447227E+02 -0.86925369541E+01  0.36943878719E+02  0.00000000000E+00 0.  1.
        -11    1    3    3    0    0 -0.15796035636E+02 -0.61755735909E+01  0.78993731589E+02  0.80793948297E+02  0.00000000000E+00 0. -1.
          2    1    6    6  502    0 -0.22294380173E+01 -0.18855706478E+02 -0.37262931937E+01  0.19349246022E+02  0.00000000000E+00 0. -1.
          1    1    5    5  503    0  0.36041213176E+02  0.43040368153E+02 -0.24522949613E+03  0.25157294789E+03  0.00000000000E+00 0. -1.
         -2    1    5    5    0  503 -0.43823176187E+02  0.86444161190E+02 -0.48179099166E+03  0.49144239074E+03  0.00000000000E+00 0.  1.
         -1    1    6    6    0  502 -0.38228329010E+01 -0.12473469650E+03  0.21789975015E+03  0.25110487785E+03  0.00000000000E+00 0.  1.
<mgrwt>
<rscale>  0 0.10410490E+04</rscale>
<asrwt>0</asrwt>
<pdfrwt beam="1">  1        2 0.52973958E-01 0.10410490E+04</pdfrwt>
<pdfrwt beam="2">  1       -2 0.12105793E+00 0.10410490E+04</pdfrwt>
<totfact> 0.48688037E+01</totfact>
</mgrwt>
</event>
<event>
12    1  0.1663913E-007  0.1149818E+04  0.7818608E-02  0.9157951E-01
         -2   -1    0    0    0  501 -0.00000000000E+00  0.00000000000E+00  0.60929956479E+03  0.60929956479E+03  0.00000000000E+00 0.  1.
          2   -1    0    0  501    0  0.00000000000E+00 -0.00000000000E+00 -0.54245998588E+03  0.54245998588E+03  0.00000000000E+00 0. -1.
         23    2    1    2    0    0 -0.87087945222E+02  0.17900379007E+03  0.17278680078E+02  0.21958020023E+03  0.91050779707E+02 0.  0.
        254    2    1    2    0    0  0.87087945222E+02 -0.17900379007E+03  0.49560898842E+02  0.93217935044E+03  0.90932688932E+03 0.  0.
        -24    2    4    4    0    0  0.17330837942E+03 -0.12774202952E+03  0.45361975952E+03  0.50843086744E+03  0.79857624949E+02 0.  0.
         24    2    4    4    0    0 -0.86220434194E+02 -0.51261760552E+02 -0.40405886068E+03  0.42374848300E+03  0.78977734737E+02 0.  0.
         13    1    3    3    0    0 -0.91370950587E+02  0.17019502705E+03  0.37806063034E+02  0.19683570877E+03  0.00000000000E+00 0. -1.
        -13    1    3    3    0    0  0.42830053649E+01  0.88087630207E+01 -0.20527382956E+02  0.22744491463E+02  0.00000000000E+00 0.  1.
          4    1    6    6  502    0  0.34897752911E+01  0.15444560685E+02 -0.53792985109E+02  0.56074934091E+02  0.00000000000E+00 0. -1.
          3    1    5    5  503    0  0.77505322920E+02 -0.10446625373E+03  0.28083558589E+03  0.30949781833E+03  0.00000000000E+00 0. -1.
         -4    1    5    5    0  503  0.95803056496E+02 -0.23275775783E+02  0.17278417363E+03  0.19893304912E+03  0.00000000000E+00 0.  1.
         -3    1    6    6    0  502 -0.89710209485E+02 -0.66706321237E+02 -0.35026587557E+03  0.36767354891E+03  0.00000000000E+00 0.  1.
<mgrwt>
<rscale>  0 0.11498185E+04</rscale>
<asrwt>0</asrwt>
<pdfrwt beam="1">  1        2 0.83455382E-01 0.11498185E+04</pdfrwt>
<pdfrwt beam="2">  1       -2 0.93738395E-01 0.11498185E+04</pdfrwt>
<totfact> 0.53285256E+01</totfact>
</mgrwt>
</event>
<event>
12    1  0.1663913E-007  0.1859772E+04  0.7818608E-02  0.8675143E-01
          2   -1    0    0  501    0  0.00000000000E+00  0.00000000000E+00  0.17600607071E+04  0.17600607071E+04  0.00000000000E+00 0. -1.
         -2   -1    0    0    0  501 -0.00000000000E+00 -0.00000000000E+00 -0.49128324071E+03  0.49128324071E+03  0.00000000000E+00 0.  1.
         23    2    1    2    0    0 -0.34262416410E+03  0.24325018617E+03  0.11735270478E+04  0.12498041985E+04  0.91010064371E+02 0.  0.
        254    2    1    2    0    0  0.34262416410E+03 -0.24325018617E+03  0.95250418642E+02  0.10015397493E+04  0.90412789822E+03 0.  0.
        -24    2    4    4    0    0  0.54212750320E+03  0.78115223974E+02  0.22049477602E+03  0.59627574554E+03  0.83202166552E+02 0.  0.
         24    2    4    4    0    0 -0.19950333910E+03 -0.32136541015E+03 -0.12524435738E+03  0.40526400380E+03  0.73996314553E+02 0.  0.
         11    1    3    3    0    0 -0.20129801903E+03  0.16329306678E+03  0.83580220399E+03  0.87507190694E+03  0.00000000000E+00 0.  1.
        -11    1    3    3    0    0 -0.14132614507E+03  0.79957119395E+02  0.33772484376E+03  0.37473229153E+03  0.00000000000E+00 0. -1.
          4    1    6    6  502    0 -0.15434202869E+03 -0.18580649808E+03 -0.92666879949E+02  0.25871348474E+03  0.00000000000E+00 0. -1.
          1    1    5    5  503    0  0.37524787637E+02  0.28201342572E+02  0.19292892023E+02  0.50750774306E+02  0.00000000000E+00 0. -1.
         -2    1    5    5    0  503  0.50460271556E+03  0.49913881401E+02  0.20120188399E+03  0.54552497123E+03  0.00000000000E+00 0.  1.
         -3    1    6    6    0  502 -0.45161310409E+02 -0.13555891207E+03 -0.32577477427E+02  0.14655051906E+03  0.00000000000E+00 0.  1.
<mgrwt>
<rscale>  0 0.18597724E+04</rscale>
<asrwt>0</asrwt>
<pdfrwt beam="1">  1        2 0.27077857E+00 0.18597724E+04</pdfrwt>
<pdfrwt beam="2">  1       -2 0.75582038E-01 0.18597724E+04</pdfrwt>
<totfact> 0.13391115E+01</totfact>
</mgrwt>
</event>
<event>
12    1  0.1663913E-007  0.2016479E+04  0.7818608E-02  0.8598955E-01
          2   -1    0    0  501    0  0.00000000000E+00  0.00000000000E+00  0.10571915680E+04  0.10571915680E+04  0.00000000000E+00 0. -1.
         -2   -1    0    0    0  501 -0.00000000000E+00 -0.00000000000E+00 -0.96155418486E+03  0.96155418486E+03  0.00000000000E+00 0.  1.
         23    2    1    2    0    0 -0.71508921749E+03  0.72403293292E+02  0.40966080932E+03  0.83234502775E+03  0.91550208486E+02 0.  0.
        254    2    1    2    0    0  0.71508921749E+03 -0.72403293292E+02 -0.31402342617E+03  0.11864007251E+04  0.89013546302E+03 0.  0.
        -24    2    4    4    0    0  0.37797772658E+03 -0.46552967008E+03 -0.73771061358E+02  0.60985809719E+03  0.83064394951E+02 0.  0.
         24    2    4    4    0    0  0.33711149091E+03  0.39312637678E+03 -0.24025236481E+03  0.57654262792E+03  0.80546245021E+02 0.  0.
         13    1    3    3    0    0 -0.18262323863E+03  0.37551880950E+01  0.14804119773E+03  0.23512027762E+03  0.00000000000E+00 0.  1.
        -13    1    3    3    0    0 -0.53246597886E+03  0.68648105197E+02  0.26161961159E+03  0.59722475013E+03  0.00000000000E+00 0. -1.
          2    1    6    6  502    0  0.26601592981E+03  0.26751294621E+03 -0.14807377870E+03  0.40528199472E+03  0.00000000000E+00 0. -1.
          1    1    5    5  503    0  0.16655484713E+03 -0.14235219392E+03 -0.21670125175E+02  0.22016870473E+03  0.00000000000E+00 0. -1.
         -2    1    5    5    0  503  0.21142287945E+03 -0.32317747616E+03 -0.52100936182E+02  0.38968939247E+03  0.00000000000E+00 0.  1.
         -1    1    6    6    0  502  0.71095561103E+02  0.12561343057E+03 -0.92178586112E+02  0.17126063321E+03  0.00000000000E+00 0.  1.
<mgrwt>
<rscale>  0 0.20164791E+04</rscale>
<asrwt>0</asrwt>
<pdfrwt beam="1">  1        2 0.16264486E+00 0.20164791E+04</pdfrwt>
<pdfrwt beam="2">  1       -2 0.14793141E+00 0.20164791E+04</pdfrwt>
<totfact> 0.66809505E+00</totfact>
</mgrwt>
</event>
<event>
12    1  0.1663913E-007  0.2416291E+04  0.7818608E-02  0.8433430E-01
          2   -1    0    0  501    0  0.00000000000E+00  0.00000000000E+00  0.29742263609E+04  0.29742263609E+04  0.00000000000E+00 0. -1.
         -2   -1    0    0    0  501 -0.00000000000E+00 -0.00000000000E+00 -0.49075462969E+03  0.49075462969E+03  0.00000000000E+00 0.  1.
         23    2    1    2    0    0 -0.89577548872E+03  0.43592779780E+03  0.14763770804E+04  0.17833380562E+04  0.90324791515E+02 0.  0.
        254    2    1    2    0    0  0.89577548872E+03 -0.43592779780E+03  0.10070946508E+04  0.16816429345E+04  0.90622102833E+03 0.  0.
        -24    2    4    4    0    0  0.99774147017E+02 -0.51444748233E+03  0.51280296953E+03  0.73799388438E+03  0.84005924427E+02 0.  0.
         24    2    4    4    0    0  0.79600134170E+03  0.78519684529E+02  0.49429168131E+03  0.94364905008E+03  0.79785880014E+02 0.  0.
         13    1    3    3    0    0 -0.55079104647E+02  0.53198047922E+02  0.11524789713E+03  0.13836841353E+03  0.00000000000E+00 0.  1.
        -13    1    3    3    0    0 -0.84069638407E+03  0.38272974988E+03  0.13611291833E+04  0.16449696426E+04  0.00000000000E+00 0. -1.
          4    1    6    6  502    0  0.65208253323E+03  0.90668572887E+02  0.38643469677E+03  0.76338993648E+03  0.00000000000E+00 0. -1.
          3    1    5    5  503    0  0.93798367802E+02 -0.47253429439E+03  0.49865171970E+03  0.69335440486E+03  0.00000000000E+00 0. -1.
         -4    1    5    5    0  503  0.59757792150E+01 -0.41913187936E+02  0.14151249830E+02  0.44639479522E+02  0.00000000000E+00 0.  1.
         -1    1    6    6    0  502  0.14391880848E+03 -0.12148888357E+02  0.10785698455E+03  0.18025911360E+03  0.00000000000E+00 0.  1.
<mgrwt>
<rscale>  0 0.24162908E+04</rscale>
<asrwt>0</asrwt>
<pdfrwt beam="1">  1        2 0.45757328E+00 0.24162908E+04</pdfrwt>
<pdfrwt beam="2">  1       -2 0.75500714E-01 0.24162908E+04</pdfrwt>
<totfact> 0.25541731E+00</totfact>
</mgrwt>
</event>
<event>
12    1  0.1663913E-007  0.2118807E+04  0.7818608E-02  0.8553004E-01
         -1   -1    0    0    0  501 -0.00000000000E+00  0.00000000000E+00  0.10561978646E+04  0.10561978646E+04  0.00000000000E+00 0.  1.
          1   -1    0    0  501    0  0.00000000000E+00 -0.00000000000E+00 -0.10626184818E+04  0.10626184818E+04  0.00000000000E+00 0. -1.
         23    2    1    2    0    0  0.70788222008E+03 -0.49731600153E+03 -0.57496924032E+02  0.87188962682E+03  0.92006424776E+02 0.  0.
        254    2    1    2    0    0 -0.70788222008E+03  0.49731600153E+03  0.51076306822E+02  0.12469267195E+04  0.89654727251E+03 0.  0.
        -24    2    4    4    0    0 -0.85167698263E+03  0.39435808460E+03 -0.16553022831E+03  0.95629085359E+03  0.78866713725E+02 0.  0.
         24    2    4    4    0    0  0.14379476256E+03  0.10295791694E+03  0.21660653514E+03  0.29063586593E+03  0.79205739075E+02 0.  0.
         13    1    3    3    0    0  0.42829289813E+03 -0.34160422297E+03 -0.68586327951E+01  0.54788255364E+03  0.00000000000E+00 0. -1.
        -13    1    3    3    0    0  0.27958932195E+03 -0.15571177856E+03 -0.50638291237E+02  0.32400707318E+03  0.00000000000E+00 0.  1.
          4    1    6    6  502    0  0.18457962397E+02 -0.11878423905E+02  0.13457585958E+02  0.25746843498E+02  0.00000000000E+00 0. -1.
          3    1    5    5  503    0 -0.22955844986E+03  0.13960381998E+03 -0.28221780967E+02  0.27015324795E+03  0.00000000000E+00 0. -1.
         -4    1    5    5    0  503 -0.62211853277E+03  0.25475426461E+03 -0.13730844735E+03  0.68613760564E+03  0.00000000000E+00 0.  1.
         -3    1    6    6    0  502  0.12533680016E+03  0.11483634084E+03  0.20314894918E+03  0.26488902243E+03  0.00000000000E+00 0.  1.
<mgrwt>
<rscale>  0 0.21188066E+04</rscale>
<asrwt>0</asrwt>
<pdfrwt beam="1">  1        1 0.16347977E+00 0.21188066E+04</pdfrwt>
<pdfrwt beam="2">  1       -1 0.16249198E+00 0.21188066E+04</pdfrwt>
<totfact> 0.34778907E+00</totfact>
</mgrwt>
</event>
<event>
12    1  0.1663913E-007  0.2089576E+04  0.7818608E-02  0.8565849E-01
          2   -1    0    0  501    0  0.00000000000E+00  0.00000000000E+00  0.30191680631E+04  0.30191680631E+04  0.00000000000E+00 0. -1.
         -2   -1    0    0    0  501 -0.00000000000E+00 -0.00000000000E+00 -0.36155064244E+03  0.36155064244E+03  0.00000000000E+00 0.  1.
         23    2    1    2    0    0 -0.26996275394E+03 -0.42214671607E+03 -0.20893494027E+02  0.51022333590E+03  0.93827373416E+02 0.  0.
        254    2    1    2    0    0  0.26996275394E+03  0.42214671607E+03  0.26785109146E+04  0.28704953696E+04  0.90234982608E+03 0.  0.
        -24    2    4    4    0    0 -0.21049689568E+03  0.43154263014E+03  0.18118042444E+04  0.18760334084E+04  0.79553408573E+02 0.  0.
         24    2    4    4    0    0  0.48045964962E+03 -0.93959140696E+01  0.86670667026E+03  0.99446196118E+03  0.82730779362E+02 0.  0.
         13    1    3    3    0    0 -0.73488415549E+02 -0.16837100373E+03 -0.42473196105E+02  0.18855586573E+03  0.00000000000E+00 0.  1.
        -13    1    3    3    0    0 -0.19647433839E+03 -0.25377571235E+03  0.21579702077E+02  0.32166747017E+03  0.00000000000E+00 0. -1.
          4    1    6    6  502    0  0.46362814256E+03  0.36461314121E+01  0.80238055822E+03  0.92670324757E+03  0.00000000000E+00 0. -1.
          3    1    5    5  503    0 -0.21030784465E+03  0.39404881694E+03  0.17153239168E+04  0.17725236244E+04  0.00000000000E+00 0. -1.
         -4    1    5    5    0  503 -0.18905102756E+00  0.37493813207E+02  0.96480327627E+02  0.10350978402E+03  0.00000000000E+00 0.  1.
         -3    1    6    6    0  502  0.16831507058E+02 -0.13042045482E+02  0.64326112042E+02  0.67758713614E+02  0.00000000000E+00 0.  1.
<mgrwt>
<rscale>  0 0.20895762E+04</rscale>
<asrwt>0</asrwt>
<pdfrwt beam="1">  1        2 0.46448738E+00 0.20895762E+04</pdfrwt>
<pdfrwt beam="2">  1       -2 0.55623178E-01 0.20895762E+04</pdfrwt>
<totfact> 0.47526522E+00</totfact>
</mgrwt>
</event>
<event>
12    1  0.1663913E-007  0.1382263E+04  0.7818608E-02  0.8966758E-01
          2   -1    0    0  501    0  0.00000000000E+00  0.00000000000E+00  0.11330830427E+04  0.11330830427E+04  0.00000000000E+00 0. -1.
         -2   -1    0    0    0  501 -0.00000000000E+00 -0.00000000000E+00 -0.42156050927E+03  0.42156050927E+03  0.00000000000E+00 0.  1.
         23    2    1    2    0    0  0.18932099291E+03 -0.83018702412E+02 -0.17288724924E+03  0.28314940780E+03  0.86885228198E+02 0.  0.
        254    2    1    2    0    0 -0.18932099291E+03  0.83018702412E+02  0.88440978268E+03  0.12714941442E+04  0.88982141560E+03 0.  0.
        -24    2    4    4    0    0 -0.44847464979E+03 -0.20026383982E+03  0.63459657891E+03  0.80589383250E+03  0.74276067915E+02 0.  0.
         24    2    4    4    0    0  0.25915365687E+03  0.28328254223E+03  0.24981320377E+03  0.46560031167E+03  0.83470934153E+02 0.  0.
         11    1    3    3    0    0 -0.90212681221E+01 -0.72329099763E+01 -0.56514336763E+01  0.12870002636E+02  0.00000000000E+00 0. -1.
        -11    1    3    3    0    0  0.19834226103E+03 -0.75785792435E+02 -0.16723581557E+03  0.27027940516E+03  0.00000000000E+00 0.  1.
          4    1    6    6  502    0  0.89874532450E+02  0.11770823175E+03  0.14287424019E+03  0.20578072775E+03  0.00000000000E+00 0. -1.
          3    1    5    5  503    0 -0.29683131822E+03 -0.12843976676E+03  0.35871463927E+03  0.48299254403E+03  0.00000000000E+00 0. -1.
         -4    1    5    5    0  503 -0.15164333156E+03 -0.71824073059E+02  0.27588193964E+03  0.32290128847E+03  0.00000000000E+00 0.  1.
         -1    1    6    6    0  502  0.16927912442E+03  0.16557431048E+03  0.10693896358E+03  0.25981958392E+03  0.00000000000E+00 0.  1.
<mgrwt>
<rscale>  0 0.13822635E+04</rscale>
<asrwt>0</asrwt>
<pdfrwt beam="1">  1        2 0.17432047E+00 0.13822635E+04</pdfrwt>
<pdfrwt beam="2">  1       -2 0.64855464E-01 0.13822635E+04</pdfrwt>
<totfact> 0.44448752E+01</totfact>
</mgrwt>
</event>
<event>
12    1  0.2296396E-007  0.2061384E+04  0.7818608E-02  0.8578447E-01
         -2   -1    0    0    0  501 -0.00000000000E+00  0.00000000000E+00  0.61622635537E+03  0.61622635537E+03  0.00000000000E+00 0.  1.
          2   -1    0    0  501    0  0.00000000000E+00 -0.00000000000E+00 -0.17239215797E+04  0.17239215797E+04  0.00000000000E+00 0. -1.
         23    2    1    2    0    0 -0.24947907846E+03  0.76749394300E+03 -0.23731103875E+03  0.84609613506E+03  0.90969101979E+02 0.  0.
        254    2    1    2    0    0  0.24947907846E+03 -0.76749394300E+03 -0.87038418557E+03  0.14940518000E+04  0.90737830448E+03 0.  0.
        -24    2    4    4    0    0 -0.21224155339E+03 -0.50913295651E+03 -0.11712063837E+03  0.57012743818E+03  0.84054788350E+02 0.  0.
         24    2    4    4    0    0  0.46172063185E+03 -0.25836098649E+03 -0.75326354720E+03  0.92392436181E+03  0.79334189368E+02 0.  0.
         13    1    3    3    0    0 -0.22254817758E+03  0.69415462588E+03 -0.18497800426E+03  0.75206063454E+03  0.00000000000E+00 0. -1.
        -13    1    3    3    0    0 -0.26930900885E+02  0.73339317128E+02 -0.52333034484E+02  0.94035500518E+02  0.00000000000E+00 0.  1.
          2    1    6    6  502    0  0.15090709927E+02 -0.12747663969E+01 -0.48757253642E+02  0.51055110794E+02  0.00000000000E+00 0. -1.
          1    1    5    5  503    0 -0.23391403686E+02 -0.15062424577E+03 -0.23295885606E+02  0.15419960916E+03  0.00000000000E+00 0. -1.
         -2    1    5    5    0  503 -0.18885014970E+03 -0.35850871074E+03 -0.93824752769E+02  0.41592782902E+03  0.00000000000E+00 0.  1.
         -3    1    6    6    0  502  0.44662992192E+03 -0.25708622010E+03 -0.70450629355E+03  0.87286925102E+03  0.00000000000E+00 0.  1.
<mgrwt>
<rscale>  0 0.20613839E+04</rscale>
<asrwt>0</asrwt>
<pdfrwt beam="1">  1        2 0.26521871E+00 0.20613839E+04</pdfrwt>
<pdfrwt beam="2">  1       -2 0.94804053E-01 0.20613839E+04</pdfrwt>
<totfact> 0.82342731E+00</totfact>
</mgrwt>
</event>
<event>
12    1  0.1663913E-007  0.2834484E+04  0.7818608E-02  0.8292642E-01
          1   -1    0    0  501    0  0.00000000000E+00  0.00000000000E+00  0.10278163334E+04  0.10278163334E+04  0.00000000000E+00 0. -1.
         -1   -1    0    0    0  501 -0.00000000000E+00 -0.00000000000E+00 -0.19542156706E+04  0.19542156706E+04  0.00000000000E+00 0.  1.
         23    2    1    2    0    0 -0.57404728920E+03  0.44026931920E+03  0.68318988430E+03  0.99967552188E+03  0.96100818830E+02 0.  0.
        254    2    1    2    0    0  0.57404728920E+03 -0.44026931920E+03 -0.16095892215E+04  0.19823564821E+04  0.90310154277E+03 0.  0.
        -24    2    4    4    0    0  0.71349748611E+03 -0.14768073887E+03 -0.69861631456E+03  0.10125664635E+04  0.79610456447E+02 0.  0.
         24    2    4    4    0    0 -0.13945019691E+03 -0.29258858033E+03 -0.91097290689E+03  0.96979001855E+03  0.74609705975E+02 0.  0.
         11    1    3    3    0    0 -0.23933237651E+03  0.13731529212E+03  0.29910768262E+03  0.40694088232E+03  0.00000000000E+00 0.  1.
        -11    1    3    3    0    0 -0.33471491269E+03  0.30295402707E+03  0.38408220168E+03  0.59273463956E+03  0.00000000000E+00 0. -1.
          4    1    6    6  502    0 -0.14750422441E+03 -0.26018066328E+03 -0.82702688473E+03  0.87944581518E+03  0.00000000000E+00 0. -1.
          3    1    5    5  503    0  0.45322046149E+03 -0.13209310096E+03 -0.44066763999E+03  0.64579047916E+03  0.00000000000E+00 0. -1.
         -4    1    5    5    0  503  0.26027702462E+03 -0.15587637912E+02 -0.25794867456E+03  0.36677598437E+03  0.00000000000E+00 0.  1.
         -3    1    6    6    0  502  0.80540274930E+01 -0.32407917045E+02 -0.83946022164E+02  0.90344203374E+02  0.00000000000E+00 0.  1.
<mgrwt>
<rscale>  0 0.28344839E+04</rscale>
<asrwt>0</asrwt>
<pdfrwt beam="1">  1        1 0.15812559E+00 0.28344839E+04</pdfrwt>
<pdfrwt beam="2">  1       -1 0.30064857E+00 0.28344839E+04</pdfrwt>
<totfact> 0.40636442E-01</totfact>
</mgrwt>
</event>
<event>
12    1  0.1663913E-007  0.2166445E+04  0.7818608E-02  0.8532526E-01
         -2   -1    0    0    0  501 -0.00000000000E+00  0.00000000000E+00  0.63866719054E+03  0.63866719054E+03  0.00000000000E+00 0.  1.
          2   -1    0    0  501    0  0.00000000000E+00 -0.00000000000E+00 -0.18372178672E+04  0.18372178672E+04  0.00000000000E+00 0. -1.
         23    2    1    2    0    0  0.23192342851E+03  0.10907199792E+03  0.47830734788E+03  0.55013119222E+03  0.90450164130E+02 0.  0.
        254    2    1    2    0    0 -0.23192342851E+03 -0.10907199792E+03 -0.16768580245E+04  0.19257538655E+04  0.91158649546E+03 0.  0.
        -24    2    4    4    0    0 -0.53705386742E+03  0.11280962253E+03 -0.11019703525E+04  0.12336761540E+04  0.80407261743E+02 0.  0.
         24    2    4    4    0    0  0.30513043890E+03 -0.22188162046E+03 -0.57488767204E+03  0.69207771152E+03  0.78356142533E+02 0.  0.
         13    1    3    3    0    0  0.15661702252E+03  0.62071521310E+02  0.39040613506E+03  0.42520432240E+03  0.00000000000E+00 0.  1.
        -13    1    3    3    0    0  0.75306405998E+02  0.47000476614E+02  0.87901212821E+02  0.12492686982E+03  0.00000000000E+00 0. -1.
          2    1    6    6  502    0  0.27767237488E+03 -0.19611195520E+03 -0.55117564672E+03  0.64757736239E+03  0.00000000000E+00 0. -1.
          3    1    5    5  503    0 -0.50305442955E+03  0.10229779216E+03 -0.10655167698E+04  0.11827318310E+04  0.00000000000E+00 0. -1.
         -4    1    5    5    0  503 -0.33999437871E+02  0.10511830372E+02 -0.36453582664E+02  0.50944322965E+02  0.00000000000E+00 0.  1.
         -1    1    6    6    0  502  0.27458064020E+02 -0.25769665263E+02 -0.23712025317E+02  0.44500349124E+02  0.00000000000E+00 0.  1.
<mgrwt>
<rscale>  0 0.21664448E+04</rscale>
<asrwt>0</asrwt>
<pdfrwt beam="1">  1        2 0.28264889E+00 0.21664448E+04</pdfrwt>
<pdfrwt beam="2">  1       -2 0.98256495E-01 0.21664448E+04</pdfrwt>
<totfact> 0.64935971E+00</totfact>
</mgrwt>
</event>
<event>
12    1  0.1663913E-007  0.1572615E+04  0.7818608E-02  0.8837550E-01
         -1   -1    0    0    0  501 -0.00000000000E+00  0.00000000000E+00  0.39469035526E+03  0.39469035526E+03  0.00000000000E+00 0.  1.
          1   -1    0    0  501    0  0.00000000000E+00 -0.00000000000E+00 -0.15664928546E+04  0.15664928546E+04  0.00000000000E+00 0. -1.
         23    2    1    2    0    0  0.62336315883E+02  0.10001176044E+03 -0.10306417959E+04  0.10412742611E+04  0.90229744755E+02 0.  0.
        254    2    1    2    0    0 -0.62336315883E+02 -0.10001176044E+03 -0.14116070350E+03  0.91990894883E+03  0.90134231090E+03 0.  0.
        -24    2    4    4    0    0 -0.13724564720E+02 -0.27247727707E+02  0.37872812070E+03  0.38757070278E+03  0.76454286363E+02 0.  0.
         24    2    4    4    0    0 -0.48611751163E+02 -0.72764032737E+02 -0.51988882420E+03  0.53233824605E+03  0.73769315203E+02 0.  0.
         13    1    3    3    0    0  0.27264703063E+02  0.10091124929E+03 -0.58594807933E+03  0.59519878691E+03  0.00000000000E+00 0. -1.
        -13    1    3    3    0    0  0.35071612820E+02 -0.89948884585E+00 -0.44469371656E+03  0.44607547417E+03  0.00000000000E+00 0.  1.
          2    1    6    6  502    0 -0.56433874979E+02 -0.77021824309E+02 -0.51067106999E+03  0.51952101535E+03  0.00000000000E+00 0. -1.
          1    1    5    5  503    0  0.15753795310E+02 -0.44309194421E+02  0.25171321618E+03  0.25606840879E+03  0.00000000000E+00 0. -1.
         -2    1    5    5    0  503 -0.29478360030E+02  0.17061466714E+02  0.12701490451E+03  0.13150229399E+03  0.00000000000E+00 0.  1.
         -1    1    6    6    0  502  0.78221238161E+01  0.42577915720E+01 -0.92177542065E+01  0.12817230695E+02  0.00000000000E+00 0.  1.
<mgrwt>
<rscale>  0 0.15726152E+04</rscale>
<asrwt>0</asrwt>
<pdfrwt beam="1">  1        1 0.24099891E+00 0.15726152E+04</pdfrwt>
<pdfrwt beam="2">  1       -1 0.60721592E-01 0.15726152E+04</pdfrwt>
<totfact> 0.15564150E+01</totfact>
</mgrwt>
</event>
<event>
12    1  0.1663913E-007  0.1064412E+04  0.7818608E-02  0.9240590E-01
         -1   -1    0    0    0  501 -0.00000000000E+00  0.00000000000E+00  0.20687748295E+03  0.20687748295E+03  0.00000000000E+00 0.  1.
          1   -1    0    0  501    0  0.00000000000E+00 -0.00000000000E+00 -0.13691348695E+04  0.13691348695E+04  0.00000000000E+00 0. -1.
         23    2    1    2    0    0 -0.36331331229E+02  0.12599510220E+03 -0.18450830252E+03  0.24804186848E+03  0.10142348551E+03 0.  0.
        254    2    1    2    0    0  0.36331331229E+02 -0.12599510220E+03 -0.97774908404E+03  0.13279704840E+04  0.88899808973E+03 0.  0.
        -24    2    4    4    0    0  0.44414748696E+03  0.88034208728E+00 -0.61375547209E+03  0.76164960683E+03  0.78400120421E+02 0.  0.
         24    2    4    4    0    0 -0.40781615574E+03 -0.12687544429E+03 -0.36399361194E+03  0.56632087714E+03  0.76266579214E+02 0.  0.
         11    1    3    3    0    0 -0.39622988495E+02  0.10130070956E+03 -0.19315018722E+03  0.22167275384E+03  0.00000000000E+00 0. -1.
        -11    1    3    3    0    0  0.32916572656E+01  0.24694392645E+02  0.86418846992E+01  0.26369114639E+02  0.00000000000E+00 0.  1.
          2    1    6    6  502    0 -0.28463127740E+03 -0.11844039624E+03 -0.23404558562E+03  0.38706643833E+03  0.00000000000E+00 0. -1.
          3    1    5    5  503    0  0.26903509902E+03  0.21668359468E+02 -0.42388622134E+03  0.50252256761E+03  0.00000000000E+00 0. -1.
         -4    1    5    5    0  503  0.17511238794E+03 -0.20788017381E+02 -0.18986925075E+03  0.25912703922E+03  0.00000000000E+00 0.  1.
         -1    1    6    6    0  502 -0.12318487834E+03 -0.84350480462E+01 -0.12994802632E+03  0.17925443880E+03  0.00000000000E+00 0.  1.
<mgrwt>
<rscale>  0 0.10644119E+04</rscale>
<asrwt>0</asrwt>
<pdfrwt beam="1">  1        1 0.21063613E+00 0.10644119E+04</pdfrwt>
<pdfrwt beam="2">  1       -1 0.31827306E-01 0.10644119E+04</pdfrwt>
<totfact> 0.74114468E+01</totfact>
</mgrwt>
</event>
<event>
12    1  0.1663913E-007  0.1116666E+04  0.7818608E-02  0.9189099E-01
          2   -1    0    0  501    0  0.00000000000E+00  0.00000000000E+00  0.35667144514E+03  0.35667144514E+03  0.00000000000E+00 0. -1.
         -2   -1    0    0    0  501 -0.00000000000E+00 -0.00000000000E+00 -0.87401301157E+03  0.87401301157E+03  0.00000000000E+00 0.  1.
         23    2    1    2    0    0 -0.12155499835E+03 -0.12039046616E+03 -0.77914888230E+02  0.20767518369E+03  0.88254009230E+02 0.  0.
        254    2    1    2    0    0  0.12155499835E+03  0.12039046616E+03 -0.43942667820E+03  0.10230092730E+04  0.90784507776E+03 0.  0.
        -24    2    4    4    0    0  0.27836038482E+03  0.10972456368E+03 -0.66695006956E+03  0.73502570062E+03  0.76918148525E+02 0.  0.
         24    2    4    4    0    0 -0.15680538647E+03  0.10665902478E+02  0.22752339136E+03  0.28798357240E+03  0.80411153811E+02 0.  0.
         11    1    3    3    0    0 -0.90943601678E+02 -0.32402873777E+02 -0.21985804372E+02  0.99015455910E+02  0.00000000000E+00 0. -1.
        -11    1    3    3    0    0 -0.30611396674E+02 -0.87987592379E+02 -0.55929083858E+02  0.10865972778E+03  0.00000000000E+00 0.  1.
          2    1    6    6  502    0 -0.73826891280E+01  0.11467296489E+02  0.68212489937E+02  0.69562538560E+02  0.00000000000E+00 0. -1.
          1    1    5    5  503    0  0.23443306978E+02 -0.12017402506E+02 -0.62143098780E+02  0.67496454210E+02  0.00000000000E+00 0. -1.
         -2    1    5    5    0  503  0.25491707785E+03  0.12174196618E+03 -0.60480697078E+03  0.66752924641E+03  0.00000000000E+00 0.  1.
         -1    1    6    6    0  502 -0.14942269734E+03 -0.80139401093E+00  0.15931090142E+03  0.21842103384E+03  0.00000000000E+00 0.  1.
<mgrwt>
<rscale>  0 0.11166655E+04</rscale>
<asrwt>0</asrwt>
<pdfrwt beam="1">  1        2 0.54872530E-01 0.11166655E+04</pdfrwt>
<pdfrwt beam="2">  1       -2 0.13446354E+00 0.11166655E+04</pdfrwt>
<totfact> 0.35736582E+01</totfact>
</mgrwt>
</event>
<event>
12    1  0.1663913E-007  0.1372236E+04  0.7818608E-02  0.8974164E-01
          2   -1    0    0  501    0  0.00000000000E+00  0.00000000000E+00  0.76919091056E+03  0.76919091056E+03  0.00000000000E+00 0. -1.
         -2   -1    0    0    0  501 -0.00000000000E+00 -0.00000000000E+00 -0.61201711641E+03  0.61201711641E+03  0.00000000000E+00 0.  1.
         23    2    1    2    0    0  0.20753377861E+03  0.26041371425E+03  0.23515924196E+03  0.41717114659E+03  0.88579482001E+02 0.  0.
        254    2    1    2    0    0 -0.20753377861E+03 -0.26041371425E+03 -0.77985447816E+02  0.96403688038E+03  0.90133223888E+03 0.  0.
        -24    2    4    4    0    0 -0.11209562345E+03  0.32974727128E+03 -0.46304117708E+02  0.36009692620E+03  0.78911553207E+02 0.  0.
         24    2    4    4    0    0 -0.95438155158E+02 -0.59016098553E+03 -0.31681330107E+02  0.60393995418E+03  0.79632476332E+02 0.  0.
         13    1    3    3    0    0  0.17124779802E+02  0.67637816168E+02  0.74922382276E+02  0.10237917574E+03  0.00000000000E+00 0.  1.
        -13    1    3    3    0    0  0.19040899881E+03  0.19277589808E+03  0.16023685968E+03  0.31479197085E+03  0.00000000000E+00 0. -1.
          2    1    6    6  502    0 -0.42444850876E+02 -0.40998469748E+03  0.67918973906E+01  0.41223190974E+03  0.00000000000E+00 0. -1.
          3    1    5    5  503    0 -0.35672325823E+02  0.15827086101E+03 -0.57241497539E+02  0.17204292870E+03  0.00000000000E+00 0. -1.
         -4    1    5    5    0  503 -0.76423297629E+02  0.17147641027E+03  0.10937379831E+02  0.18805399750E+03  0.00000000000E+00 0.  1.
         -1    1    6    6    0  502 -0.52993304282E+02 -0.18017628805E+03 -0.38473227498E+02  0.19170804445E+03  0.00000000000E+00 0.  1.
<mgrwt>
<rscale>  0 0.13722361E+04</rscale>
<asrwt>0</asrwt>
<pdfrwt beam="1">  1        2 0.11833706E+00 0.13722361E+04</pdfrwt>
<pdfrwt beam="2">  1       -2 0.94156479E-01 0.13722361E+04</pdfrwt>
<totfact> 0.33683484E+01</totfact>
</mgrwt>
</event>
<event>
12    1  0.1663913E-007  0.1968084E+04  0.7818608E-02  0.8621690E-01
          1   -1    0    0  501    0  0.00000000000E+00  0.00000000000E+00  0.16154445789E+04  0.16154445789E+04  0.00000000000E+00 0. -1.
         -1   -1    0    0    0  501 -0.00000000000E+00 -0.00000000000E+00 -0.59942519836E+03  0.59942519836E+03  0.00000000000E+00 0.  1.
         23    2    1    2    0    0 -0.48572181422E+03  0.53506339925E+03  0.71549068819E+03  0.10210769049E+04  0.91938016372E+02 0.  0.
        254    2    1    2    0    0  0.48572181422E+03 -0.53506339925E+03  0.30052869235E+03  0.11937928723E+04  0.90144628520E+03 0.  0.
        -24    2    4    4    0    0 -0.16811152627E+03  0.38993423389E+02 -0.11880691346E+03  0.22511367585E+03  0.82335363202E+02 0.  0.
         24    2    4    4    0    0  0.65383334050E+03 -0.57405682264E+03  0.41933560582E+03  0.96867919650E+03  0.73876671910E+02 0.  0.
         11    1    3    3    0    0 -0.96216489627E+02  0.74951819533E+02  0.84353435983E+02  0.14829325773E+03  0.00000000000E+00 0.  1.
        -11    1    3    3    0    0 -0.38950532460E+03  0.46011157972E+03  0.63113725221E+03  0.87278364720E+03  0.00000000000E+00 0. -1.
          2    1    6    6  502    0  0.61196287088E+03 -0.52800460051E+03  0.36843259902E+03  0.88827360285E+03  0.00000000000E+00 0. -1.
          3    1    5    5  503    0 -0.45845929562E+01  0.46026603660E+01 -0.39704945798E+02  0.40232893207E+02  0.00000000000E+00 0. -1.
         -4    1    5    5    0  503 -0.16352693332E+03  0.34390763023E+02 -0.79101967666E+02  0.18488078264E+03  0.00000000000E+00 0.  1.
         -1    1    6    6    0  502  0.41870469617E+02 -0.46052222127E+02  0.50903006792E+02  0.80405593644E+02  0.00000000000E+00 0.  1.
<mgrwt>
<rscale>  0 0.19680835E+04</rscale>
<asrwt>0</asrwt>
<pdfrwt beam="1">  1        1 0.24852993E+00 0.19680835E+04</pdfrwt>
<pdfrwt beam="2">  1       -1 0.92219262E-01 0.19680835E+04</pdfrwt>
<totfact> 0.57962222E+00</totfact>
</mgrwt>
</event>
<event>
12    1  0.1663913E-007  0.1607890E+04  0.7818608E-02  0.8815715E-01
          3   -1    0    0  501    0  0.00000000000E+00  0.00000000000E+00  0.85830684376E+03  0.85830684376E+03  0.00000000000E+00 0. -1.
         -3   -1    0    0    0  501 -0.00000000000E+00 -0.00000000000E+00 -0.75302651112E+03  0.75302651112E+03  0.00000000000E+00 0.  1.
         23    2    1    2    0    0  0.40550522054E+03 -0.18279069315E+03  0.58475977302E+02  0.45772511441E+03  0.90807042952E+02 0.  0.
        254    2    1    2    0    0 -0.40550522054E+03  0.18279069315E+03  0.46804355333E+02  0.11536082405E+04  0.10633787676E+04 0.  0.
        -24    2    4    4    0    0  0.18648826663E+03  0.33243390987E+03 -0.25723375746E+03  0.46676811692E+03  0.80081776807E+02 0.  0.
         24    2    4    4    0    0 -0.59199348717E+03 -0.14964321672E+03  0.30403811280E+03  0.68684012355E+03  0.80379102490E+02 0.  0.
         11    1    3    3    0    0  0.38822308896E+03 -0.16387993450E+03  0.73894487716E+02  0.42782495842E+03  0.00000000000E+00 0.  1.
        -11    1    3    3    0    0  0.17282131585E+02 -0.18910758648E+02 -0.15418510414E+02  0.29900155989E+02  0.00000000000E+00 0. -1.
          4    1    6    6  502    0 -0.12605535162E+03 -0.10956669600E+02  0.35287528509E+02  0.13135908781E+03  0.00000000000E+00 0. -1.
          3    1    5    5  503    0  0.21018194976E+01  0.52920370279E+02 -0.50858958874E+02  0.73427630585E+02  0.00000000000E+00 0. -1.
         -4    1    5    5    0  503  0.18438644713E+03  0.27951353959E+03 -0.20637479859E+03  0.39334048634E+03  0.00000000000E+00 0.  1.
         -3    1    6    6    0  502 -0.46593813555E+03 -0.13868654712E+03  0.26875058429E+03  0.55548103574E+03  0.00000000000E+00 0.  1.
<mgrwt>
<rscale>  0 0.16078903E+04</rscale>
<asrwt>0</asrwt>
<pdfrwt beam="1">  1        3 0.13204721E+00 0.16078903E+04</pdfrwt>
<pdfrwt beam="2">  1       -3 0.11585023E+00 0.16078903E+04</pdfrwt>
<totfact> 0.69128615E-01</totfact>
</mgrwt>
</event>
<event>
12    1  0.1918338E-007  0.2115105E+04  0.7818608E-02  0.8554618E-01
         -2   -1    0    0    0  501 -0.00000000000E+00  0.00000000000E+00  0.66050611569E+03  0.66050611569E+03  0.00000000000E+00 0. -1.
          2   -1    0    0  501    0  0.00000000000E+00 -0.00000000000E+00 -0.16932734889E+04  0.16932734889E+04  0.00000000000E+00 0.  1.
         23    2    1    2    0    0  0.19755486254E+02 -0.23134512744E+03 -0.13495322201E+04  0.13724810981E+04  0.92500293610E+02 0.  0.
        254    2    1    2    0    0 -0.19755486254E+02  0.23134512744E+03  0.31676484693E+03  0.98129850645E+03  0.89927523222E+03 0.  0.
        -24    2    4    4    0    0 -0.58426940606E+02  0.10805600644E+01  0.59803196742E+03  0.60598829792E+03  0.78515655531E+02 0.  0.
         24    2    4    4    0    0  0.38671454351E+02  0.23026456738E+03 -0.28126712049E+03  0.37531020852E+03  0.85025332600E+02 0.  0.
         11    1    3    3    0    0  0.38406775209E+02 -0.44223776684E+02 -0.23459592081E+03  0.24179757829E+03  0.00000000000E+00 0. -1.
        -11    1    3    3    0    0 -0.18651288955E+02 -0.18712135076E+03 -0.11149362993E+04  0.11306835198E+04  0.00000000000E+00 0.  1.
          2    1    6    6  502    0  0.32288836278E+02  0.23644552159E+03 -0.27644951406E+03  0.36520321391E+03  0.00000000000E+00 0. -1.
          1    1    5    5  503    0 -0.64901520260E+02 -0.24912831739E+02  0.47608285634E+03  0.48113173104E+03  0.00000000000E+00 0. -1.
         -4    1    5    5    0  503  0.64745796543E+01  0.25993391803E+02  0.12194911108E+03  0.12485656688E+03  0.00000000000E+00 0.  1.
         -1    1    6    6    0  502  0.63826180726E+01 -0.61809542104E+01 -0.48176064285E+01  0.10106994613E+02  0.00000000000E+00 0.  1.
<mgrwt>
<rscale>  0 0.21151052E+04</rscale>
<asrwt>0</asrwt>
<pdfrwt beam="1">  1        2 0.26050361E+00 0.21151052E+04</pdfrwt>
<pdfrwt beam="2">  1       -2 0.10161633E+00 0.21151052E+04</pdfrwt>
<totfact> 0.72391228E+00</totfact>
</mgrwt>
</event>
<event>
12    1  0.1972805E-007  0.1928443E+04  0.7818608E-02  0.8640827E-01
         -1   -1    0    0    0  501 -0.00000000000E+00  0.00000000000E+00  0.67376336570E+03  0.67376336570E+03  0.00000000000E+00 0.  1.
          1   -1    0    0  501    0  0.00000000000E+00 -0.00000000000E+00 -0.13798954865E+04  0.13798954865E+04  0.00000000000E+00 0. -1.
         23    2    1    2    0    0  0.20211001089E+03  0.71754887865E+03 -0.35986620678E+03  0.83284487967E+03  0.91662735340E+02 0.  0.
        254    2    1    2    0    0 -0.20211001089E+03 -0.71754887865E+03 -0.34626591400E+03  0.12208139725E+04  0.90264158032E+03 0.  0.
        -24    2    4    4    0    0 -0.68282866012E+02 -0.61786996573E+03 -0.62554870877E+03  0.88596481051E+03  0.84832859682E+02 0.  0.
         24    2    4    4    0    0 -0.13382714488E+03 -0.99678912923E+02  0.27928279477E+03  0.33484916200E+03  0.79243242279E+02 0.  0.
         11    1    3    3    0    0  0.17754070532E+03  0.68458143729E+03 -0.32251106948E+03  0.77729391884E+03  0.00000000000E+00 0. -1.
        -11    1    3    3    0    0  0.24569305564E+02  0.32967441361E+02 -0.37355137308E+02  0.55550960829E+02  0.00000000000E+00 0.  1.
          4    1    6    6  502    0 -0.10068460333E+03 -0.87959829073E+02  0.26517293628E+03  0.29696970723E+03  0.00000000000E+00 0. -1.
          3    1    5    5  503    0 -0.18375897399E+02 -0.48670688322E+03 -0.48672078625E+03  0.68856255166E+03  0.00000000000E+00 0. -1.
         -4    1    5    5    0  503 -0.49906968612E+02 -0.13116308251E+03 -0.13882792251E+03  0.19740225885E+03  0.00000000000E+00 0.  1.
         -3    1    6    6    0  502 -0.33142541549E+02 -0.11719083850E+02  0.14109858490E+02  0.37879454764E+02  0.00000000000E+00 0.  1.
<mgrwt>
<rscale>  0 0.19284429E+04</rscale>
<asrwt>0</asrwt>
<pdfrwt beam="1">  1        1 0.21229161E+00 0.19284429E+04</pdfrwt>
<pdfrwt beam="2">  1       -1 0.10365590E+00 0.19284429E+04</pdfrwt>
<totfact> 0.64994184E+00</totfact>
</mgrwt>
</event>
<event>
12    1  0.1663913E-007  0.2366837E+04  0.7818608E-02  0.8452025E-01
         -2   -1    0    0    0  501 -0.00000000000E+00  0.00000000000E+00  0.81219766023E+03  0.81219766023E+03  0.00000000000E+00 0.  1.
          2   -1    0    0  501    0  0.00000000000E+00 -0.00000000000E+00 -0.17243087691E+04  0.17243087691E+04  0.00000000000E+00 0. -1.
         23    2    1    2    0    0  0.74483039232E+03  0.17262187237E+03 -0.10972505513E+04  0.13406644535E+04  0.94083901816E+02 0.  0.
        254    2    1    2    0    0 -0.74483039232E+03 -0.17262187237E+03  0.18513944234E+03  0.11958419758E+04  0.90066130922E+03 0.  0.
        -24    2    4    4    0    0  0.54147774298E+02  0.19845762343E+03  0.21958629476E+03  0.31063468472E+03  0.77190392841E+02 0.  0.
         24    2    4    4    0    0 -0.79897816661E+03 -0.37107949580E+03 -0.34446852420E+02  0.88520729112E+03  0.79619467977E+02 0.  0.
         11    1    3    3    0    0  0.51975718577E+03  0.96816017654E+02 -0.81919513169E+03  0.97498796773E+03  0.00000000000E+00 0. -1.
        -11    1    3    3    0    0  0.22507320655E+03  0.75805854721E+02 -0.27805541957E+03  0.36567648580E+03  0.00000000000E+00 0.  1.
          4    1    6    6  502    0 -0.18849016400E+02  0.30968495047E+01 -0.35825984867E+01  0.19434786029E+02  0.00000000000E+00 0. -1.
          3    1    5    5  503    0  0.27512255500E+02  0.10810606954E+02  0.38139762123E+02  0.48253858708E+02  0.00000000000E+00 0. -1.
         -4    1    5    5    0  503  0.26635518798E+02  0.18764701647E+03  0.18144653264E+03  0.26238082601E+03  0.00000000000E+00 0.  1.
         -1    1    6    6    0  502 -0.78012915021E+03 -0.37417634531E+03 -0.30864253933E+02  0.86577250509E+03  0.00000000000E+00 0.  1.
<mgrwt>
<rscale>  0 0.23668372E+04</rscale>
<asrwt>0</asrwt>
<pdfrwt beam="1">  1        2 0.26527827E+00 0.23668372E+04</pdfrwt>
<pdfrwt beam="2">  1       -2 0.12495349E+00 0.23668372E+04</pdfrwt>
<totfact> 0.41141943E+00</totfact>
</mgrwt>
</event>
<event>
12    1  0.1663913E-007  0.1919434E+04  0.7818608E-02  0.8645243E-01
         -1   -1    0    0    0  501 -0.00000000000E+00  0.00000000000E+00  0.64952895994E+03  0.64952895994E+03  0.00000000000E+00 0.  1.
          1   -1    0    0  501    0  0.00000000000E+00 -0.00000000000E+00 -0.14180381279E+04  0.14180381279E+04  0.00000000000E+00 0. -1.
         23    2    1    2    0    0  0.10560870743E+03 -0.73512170175E+03 -0.23726841013E+03  0.78523452953E+03  0.93487178022E+02 0.  0.
        254    2    1    2    0    0 -0.10560870743E+03  0.73512170175E+03 -0.53124075784E+03  0.12823325583E+04  0.90033489984E+03 0.  0.
        -24    2    4    4    0    0 -0.21531155764E+03 -0.44944545032E+02 -0.42286365964E+03  0.48337770825E+03  0.80381933336E+02 0.  0.
         24    2    4    4    0    0  0.10970285021E+03  0.78006624678E+03 -0.10837709820E+03  0.79895485008E+03  0.77750834912E+02 0.  0.
         13    1    3    3    0    0  0.12282563981E+03 -0.64246680181E+03 -0.21316454242E+03  0.68795991988E+03  0.00000000000E+00 0.  1.
        -13    1    3    3    0    0 -0.17216932380E+02 -0.92654899945E+02 -0.24103867718E+02  0.97274609654E+02  0.00000000000E+00 0. -1.
          4    1    6    6  502    0  0.32122685882E+01  0.10856404059E+03 -0.39541255973E+02  0.11558538187E+03  0.00000000000E+00 0. -1.
          1    1    5    5  503    0 -0.42990147119E+02 -0.12471916373E+02 -0.16908163694E+03  0.17490655047E+03  0.00000000000E+00 0. -1.
         -2    1    5    5    0  503 -0.17232141052E+03 -0.32472628660E+02 -0.25378202270E+03  0.30847115778E+03  0.00000000000E+00 0.  1.
         -3    1    6    6    0  502  0.10649058162E+03  0.67150220619E+03 -0.68835842232E+02  0.68336946820E+03  0.00000000000E+00 0.  1.
<mgrwt>
<rscale>  0 0.19194341E+04</rscale>
<asrwt>0</asrwt>
<pdfrwt beam="1">  1        1 0.21815971E+00 0.19194341E+04</pdfrwt>
<pdfrwt beam="2">  1       -1 0.99927533E-01 0.19194341E+04</pdfrwt>
<totfact> 0.66543583E+00</totfact>
</mgrwt>
</event>
<event>
12    1  0.1663913E-007  0.2066807E+04  0.7818608E-02  0.8576008E-01
         -2   -1    0    0    0  501 -0.00000000000E+00  0.00000000000E+00  0.85258217627E+03  0.85258217627E+03  0.00000000000E+00 0.  1.
          2   -1    0    0  501    0  0.00000000000E+00 -0.00000000000E+00 -0.12525748959E+04  0.12525748959E+04  0.00000000000E+00 0. -1.
         23    2    1    2    0    0  0.46007799774E+03 -0.21826789659E+03  0.54185108250E+03  0.74919790845E+03  0.91554747186E+02 0.  0.
        254    2    1    2    0    0 -0.46007799774E+03  0.21826789659E+03 -0.94184380217E+03  0.13559591638E+04  0.83201133852E+03 0.  0.
        -24    2    4    4    0    0  0.12004193644E+02 -0.17301025670E+03  0.42052568090E+02  0.19392199524E+03  0.75899092000E+02 0.  0.
         24    2    4    4    0    0 -0.47208219138E+03  0.39127815329E+03 -0.98389637026E+03  0.11620371685E+04  0.79486633832E+02 0.  0.
         13    1    3    3    0    0  0.18194671965E+03 -0.13039045756E+03  0.20403332918E+03  0.30287931529E+03  0.00000000000E+00 0. -1.
        -13    1    3    3    0    0  0.27813127808E+03 -0.87877439031E+02  0.33781775332E+03  0.44631859316E+03  0.00000000000E+00 0.  1.
          2    1    6    6  502    0 -0.39473673613E+03  0.28702399838E+03 -0.75940916820E+03  0.90271930922E+03  0.00000000000E+00 0. -1.
          1    1    5    5  503    0  0.32757281110E+02 -0.16117935599E+03  0.43041837797E+02  0.17001301146E+03  0.00000000000E+00 0. -1.
         -2    1    5    5    0  503 -0.20753087466E+02 -0.11830900706E+02 -0.98926970736E+00  0.23908983781E+02  0.00000000000E+00 0.  1.
         -1    1    6    6    0  502 -0.77345455254E+02  0.10425415491E+03 -0.22448720206E+03  0.25931785930E+03  0.00000000000E+00 0.  1.
<mgrwt>
<rscale>  0 0.20668072E+04</rscale>
<asrwt>0</asrwt>
<pdfrwt beam="1">  1        2 0.19270383E+00 0.20668072E+04</pdfrwt>
<pdfrwt beam="2">  1       -2 0.13116649E+00 0.20668072E+04</pdfrwt>
<totfact> 0.69160545E+00</totfact>
</mgrwt>
</event>
<event>
12    1  0.1663913E-007  0.2394776E+04  0.7818608E-02  0.8441462E-01
         -1   -1    0    0    0  501 -0.00000000000E+00  0.00000000000E+00  0.75033837115E+03  0.75033837115E+03  0.00000000000E+00 0.  1.
          1   -1    0    0  501    0  0.00000000000E+00 -0.00000000000E+00 -0.19107893918E+04  0.19107893918E+04  0.00000000000E+00 0. -1.
         23    2    1    2    0    0  0.89690688895E+02  0.10205843090E+04 -0.52240697015E+03  0.11536165268E+04  0.91023607085E+02 0.  0.
        254    2    1    2    0    0 -0.89690688895E+02 -0.10205843090E+04 -0.63804405049E+03  0.15075112361E+04  0.90324590512E+03 0.  0.
        -24    2    4    4    0    0  0.19105164448E+03 -0.67588502020E+02  0.12585315429E+03  0.25173120881E+03  0.80378159837E+02 0.  0.
         24    2    4    4    0    0 -0.28074233338E+03 -0.95299580700E+03 -0.76389720478E+03  0.12557800273E+04  0.80170266064E+02 0.  0.
         13    1    3    3    0    0  0.79018970751E+02  0.79078854013E+03 -0.36276649914E+03  0.87360748957E+03  0.00000000000E+00 0. -1.
        -13    1    3    3    0    0  0.10671718143E+02  0.22979576889E+03 -0.15964047101E+03  0.28000903727E+03  0.00000000000E+00 0.  1.
          4    1    6    6  502    0 -0.28427752159E+03 -0.93875841506E+03 -0.74422327159E+03  0.12312389488E+04  0.00000000000E+00 0. -1.
          1    1    5    5  503    0  0.16936433376E+03 -0.83193743627E+02  0.12209438167E+03  0.22474989335E+03  0.00000000000E+00 0. -1.
         -2    1    5    5    0  503  0.21687310727E+02  0.15605241606E+02  0.37587726241E+01  0.26981315457E+02  0.00000000000E+00 0.  1.
         -3    1    6    6    0  502  0.35351882177E+01 -0.14237391944E+02 -0.19673933197E+02  0.24541078472E+02  0.00000000000E+00 0.  1.
<mgrwt>
<rscale>  0 0.23947765E+04</rscale>
<asrwt>0</asrwt>
<pdfrwt beam="1">  1        1 0.29396760E+00 0.23947765E+04</pdfrwt>
<pdfrwt beam="2">  1       -1 0.11543667E+00 0.23947765E+04</pdfrwt>
<totfact> 0.20887504E+00</totfact>
</mgrwt>
</event>
<event>
12    1  0.1663913E-007  0.1455999E+04  0.7818608E-02  0.8914252E-01
         -1   -1    0    0    0  501 -0.00000000000E+00  0.00000000000E+00  0.31442413677E+03  0.31442413677E+03  0.00000000000E+00 0.  1.
          1   -1    0    0  501    0  0.00000000000E+00 -0.00000000000E+00 -0.16855683571E+04  0.16855683571E+04  0.00000000000E+00 0. -1.
         23    2    1    2    0    0 -0.37213762347E+03 -0.52129511873E+01 -0.75924492684E+03  0.85358430283E+03  0.11678920088E+03 0.  0.
        254    2    1    2    0    0  0.37213762347E+03  0.52129511873E+01 -0.61189929345E+03  0.11464081910E+04  0.89516334231E+03 0.  0.
        -24    2    4    4    0    0  0.50282102125E+03  0.19889992156E+03 -0.70180269582E+02  0.55127155626E+03  0.81147398566E+02 0.  0.
         24    2    4    4    0    0 -0.13068339778E+03 -0.19368697037E+03 -0.54171902387E+03  0.59513663475E+03  0.78328285106E+02 0.  0.
         13    1    3    3    0    0 -0.17306066273E+03  0.45315908082E+02 -0.42727387141E+03  0.46321321840E+03  0.00000000000E+00 0. -1.
        -13    1    3    3    0    0 -0.19907696073E+03 -0.50528859269E+02 -0.33197105543E+03  0.39037108442E+03  0.00000000000E+00 0.  1.
          2    1    6    6  502    0 -0.11148502550E+03 -0.16652080610E+03 -0.51451937041E+03  0.55216688809E+03  0.00000000000E+00 0. -1.
          1    1    5    5  503    0  0.41144380777E+03  0.18259444992E+03 -0.82495055313E+02  0.45763760143E+03  0.00000000000E+00 0. -1.
         -2    1    5    5    0  503  0.91377213478E+02  0.16305471638E+02  0.12314785731E+02  0.93633954823E+02  0.00000000000E+00 0.  1.
         -1    1    6    6    0  502 -0.19198372283E+02 -0.27166164269E+02 -0.27199653458E+02  0.42969746655E+02  0.00000000000E+00 0.  1.
<mgrwt>
<rscale>  0 0.14559991E+04</rscale>
<asrwt>0</asrwt>
<pdfrwt beam="1">  1        1 0.25931821E+00 0.14559991E+04</pdfrwt>
<pdfrwt beam="2">  1       -1 0.48372944E-01 0.14559991E+04</pdfrwt>
<totfact> 0.20231953E+01</totfact>
</mgrwt>
</event>
<event>
12    1  0.1663913E-007  0.1831424E+04  0.7818608E-02  0.8689765E-01
          2   -1    0    0  501    0  0.00000000000E+00  0.00000000000E+00  0.17039428537E+04  0.17039428537E+04  0.00000000000E+00 0. -1.
         -2   -1    0    0    0  501 -0.00000000000E+00 -0.00000000000E+00 -0.49211076515E+03  0.49211076515E+03  0.00000000000E+00 0.  1.
         23    2    1    2    0    0  0.20133445477E+03  0.54292651751E+03  0.13406644979E+02  0.58379003467E+03  0.72981506941E+02 0.  0.
        254    2    1    2    0    0 -0.20133445477E+03 -0.54292651751E+03  0.11984254436E+04  0.16122635842E+04  0.90987117496E+03 0.  0.
        -24    2    4    4    0    0 -0.48094223019E+03 -0.59313438020E+03  0.97916161812E+03  0.12441527310E+04  0.77747810007E+02 0.  0.
         24    2    4    4    0    0  0.27960777543E+03  0.50207862684E+02  0.21926382545E+03  0.36811085317E+03  0.82022176969E+02 0.  0.
         13    1    3    3    0    0  0.25358088253E+02  0.96006989573E+02 -0.23547516959E+02  0.10205322259E+03  0.00000000000E+00 0. -1.
        -13    1    3    3    0    0  0.17597636651E+03  0.44691952794E+03  0.36954161938E+02  0.48173681208E+03  0.00000000000E+00 0.  1.
          4    1    6    6  502    0  0.16057201559E+03  0.60556576548E+02  0.96868331623E+02  0.19706330157E+03  0.00000000000E+00 0. -1.
          3    1    5    5  503    0 -0.47784196079E+03 -0.56814497748E+03  0.94815645614E+03  0.12042102475E+04  0.00000000000E+00 0. -1.
         -4    1    5    5    0  503 -0.31002694016E+01 -0.24989402718E+02  0.31005161982E+02  0.39942483500E+02  0.00000000000E+00 0.  1.
         -3    1    6    6    0  502  0.11903575983E+03 -0.10348713865E+02  0.12239549383E+03  0.17104755160E+03  0.00000000000E+00 0.  1.
<mgrwt>
<rscale>  0 0.18314242E+04</rscale>
<asrwt>0</asrwt>
<pdfrwt beam="1">  1        2 0.26214505E+00 0.18314242E+04</pdfrwt>
<pdfrwt beam="2">  1       -2 0.75709350E-01 0.18314242E+04</pdfrwt>
<totfact> 0.14367498E+01</totfact>
</mgrwt>
</event>
<event>
12    1  0.1663913E-007  0.1899687E+04  0.7818608E-02  0.8655012E-01
         -2   -1    0    0    0  501 -0.00000000000E+00  0.00000000000E+00  0.12489326082E+04  0.12489326082E+04  0.00000000000E+00 0. -1.
          2   -1    0    0  501    0  0.00000000000E+00 -0.00000000000E+00 -0.72237920700E+03  0.72237920700E+03  0.00000000000E+00 0.  1.
         23    2    1    2    0    0  0.29722730161E+03 -0.36960709396E+03  0.79083683388E+03  0.92669524552E+03  0.91584428408E+02 0.  0.
        254    2    1    2    0    0 -0.29722730161E+03  0.36960709396E+03 -0.26428343264E+03  0.10446165697E+04  0.89242622789E+03 0.  0.
        -24    2    4    4    0    0 -0.45944158804E+03 -0.11915016811E+03 -0.59794062784E+02  0.48483179334E+03  0.78760412039E+02 0.  0.
         24    2    4    4    0    0  0.16221428643E+03  0.48875726208E+03 -0.20448936985E+03  0.55978477637E+03  0.79661518459E+02 0.  0.
         13    1    3    3    0    0  0.19573555557E+03 -0.23929745287E+03  0.42744053413E+03  0.52752354344E+03  0.00000000000E+00 0. -1.
        -13    1    3    3    0    0  0.10149174605E+03 -0.13030964110E+03  0.36339629974E+03  0.39917170208E+03  0.00000000000E+00 0.  1.
          2    1    6    6  502    0  0.16698242642E+03  0.42080081551E+03 -0.17178241120E+03  0.48421653614E+03  0.00000000000E+00 0. -1.
          3    1    5    5  503    0 -0.37475653843E+03 -0.12232040695E+03 -0.66657622364E+02  0.39980993443E+03  0.00000000000E+00 0. -1.
         -4    1    5    5    0  503 -0.84685049609E+02  0.31702388312E+01  0.68635595795E+01  0.85021858905E+02  0.00000000000E+00 0.  1.
         -1    1    6    6    0  502 -0.47681399905E+01  0.67956446562E+02 -0.32706958650E+02  0.75568240237E+02  0.00000000000E+00 0.  1.
<mgrwt>
<rscale>  0 0.18996873E+04</rscale>
<asrwt>0</asrwt>
<pdfrwt beam="1">  1        2 0.11113526E+00 0.18996873E+04</pdfrwt>
<pdfrwt beam="2">  1       -2 0.19214348E+00 0.18996873E+04</pdfrwt>
<totfact> 0.55245628E+00</totfact>
</mgrwt>
</event>
<event>
12    1  0.1663913E-007  0.1103208E+04  0.7818608E-02  0.9202071E-01
          2   -1    0    0  501    0  0.00000000000E+00  0.00000000000E+00  0.34798604027E+03  0.34798604027E+03  0.00000000000E+00 0. -1.
         -2   -1    0    0    0  501 -0.00000000000E+00 -0.00000000000E+00 -0.87436582024E+03  0.87436582024E+03  0.00000000000E+00 0.  1.
         23    2    1    2    0    0  0.74895687513E+02  0.13606418342E+03  0.23901788293E+01  0.18014928603E+03  0.91242677989E+02 0.  0.
        254    2    1    2    0    0 -0.74895687513E+02 -0.13606418342E+03 -0.52876995880E+03  0.10422025745E+04  0.88457091909E+03 0.  0.
        -24    2    4    4    0    0 -0.40159166984E+03 -0.11722624332E+03 -0.56044174435E+03  0.70397797732E+03  0.80449874654E+02 0.  0.
         24    2    4    4    0    0  0.32669598233E+03 -0.18837940097E+02  0.31671785552E+02  0.33822459716E+03  0.79420672775E+02 0.  0.
         13    1    3    3    0    0  0.55441044369E+02  0.49305020437E+02 -0.36992119544E+02  0.82904229985E+02  0.00000000000E+00 0.  1.
        -13    1    3    3    0    0  0.19454643144E+02  0.86759162980E+02  0.39382298373E+02  0.97245056049E+02  0.00000000000E+00 0. -1.
          2    1    6    6  502    0  0.10170854687E+03  0.14068659949E+02 -0.21047160210E+02  0.10481192037E+03  0.00000000000E+00 0. -1.
          1    1    5    5  503    0 -0.13891058241E+02  0.46482828374E+01 -0.44883812047E+01  0.15320365473E+02  0.00000000000E+00 0. -1.
         -2    1    5    5    0  503 -0.38770061160E+03 -0.12187452616E+03 -0.55595336314E+03  0.68865761185E+03  0.00000000000E+00 0.  1.
         -1    1    6    6    0  502  0.22498743546E+03 -0.32906600046E+02  0.52718945762E+02  0.23341267679E+03  0.00000000000E+00 0.  1.
<mgrwt>
<rscale>  0 0.11032082E+04</rscale>
<asrwt>0</asrwt>
<pdfrwt beam="1">  1        2 0.53536314E-01 0.11032082E+04</pdfrwt>
<pdfrwt beam="2">  1       -2 0.13451782E+00 0.11032082E+04</pdfrwt>
<totfact> 0.36729775E+01</totfact>
</mgrwt>
</event>
<event>
12    1  0.1663913E-007  0.2910740E+04  0.7818608E-02  0.8269689E-01
          2   -1    0    0  501    0  0.00000000000E+00  0.00000000000E+00  0.21080948397E+04  0.21080948397E+04  0.00000000000E+00 0. -1.
         -2   -1    0    0    0  501 -0.00000000000E+00 -0.00000000000E+00 -0.10047472670E+04  0.10047472670E+04  0.00000000000E+00 0.  1.
         23    2    1    2    0    0  0.80070060658E+03 -0.29107638546E+03  0.15650164297E+04  0.17841683011E+04  0.90184134382E+02 0.  0.
        254    2    1    2    0    0 -0.80070060658E+03  0.29107638546E+03 -0.46166885698E+03  0.13286738056E+04  0.90905941762E+03 0.  0.
        -24    2    4    4    0    0  0.12910939501E+03  0.15445760483E+03  0.88965986981E+02  0.23657191715E+03  0.86746398053E+02 0.  0.
         24    2    4    4    0    0 -0.92981000158E+03  0.13661878062E+03 -0.55063484396E+03  0.10921018885E+04  0.79224195790E+02 0.  0.
         11    1    3    3    0    0  0.63249010320E+03 -0.20091216299E+03  0.11594265666E+04  0.13359189314E+04  0.00000000000E+00 0. -1.
        -11    1    3    3    0    0  0.16821050338E+03 -0.90164222463E+02  0.40558986309E+03  0.44824936978E+03  0.00000000000E+00 0.  1.
          4    1    6    6  502    0 -0.10016938009E+03  0.37909557849E+02 -0.74450367626E+02  0.13043732796E+03  0.00000000000E+00 0. -1.
          1    1    5    5  503    0  0.27112770714E+02  0.36248805319E+02  0.64102720943E+02  0.78474435679E+02  0.00000000000E+00 0. -1.
         -2    1    5    5    0  503  0.10199662429E+03  0.11820879951E+03  0.24863266038E+02  0.15809748147E+03  0.00000000000E+00 0.  1.
         -3    1    6    6    0  502 -0.82964062149E+03  0.98709222772E+02 -0.47618447633E+03  0.96166456053E+03  0.00000000000E+00 0.  1.
<mgrwt>
<rscale>  0 0.29107405E+04</rscale>
<asrwt>0</asrwt>
<pdfrwt beam="1">  1        2 0.32432228E+00 0.29107405E+04</pdfrwt>
<pdfrwt beam="2">  1       -2 0.15457650E+00 0.29107405E+04</pdfrwt>
<totfact> 0.13866988E+00</totfact>
</mgrwt>
</event>
<event>
12    1  0.1663913E-007  0.1440583E+04  0.7818608E-02  0.8924955E-01
         -2   -1    0    0    0  501 -0.00000000000E+00  0.00000000000E+00  0.22651595716E+03  0.22651595716E+03  0.00000000000E+00 0.  1.
          2   -1    0    0  501    0  0.00000000000E+00 -0.00000000000E+00 -0.22904338332E+04  0.22904338332E+04  0.00000000000E+00 0. -1.
         23    2    1    2    0    0 -0.17094710890E+03  0.26621737235E+03 -0.11849161192E+04  0.12299059868E+04  0.92454980173E+02 0.  0.
        254    2    1    2    0    0  0.17094710890E+03 -0.26621737235E+03 -0.87900175684E+03  0.12870438036E+04  0.88529264115E+03 0.  0.
        -24    2    4    4    0    0 -0.18846972230E+03 -0.47338054828E+03 -0.52292261789E+03  0.73450495132E+03  0.80246367563E+02 0.  0.
         24    2    4    4    0    0  0.35941683120E+03  0.20716317592E+03 -0.35607913895E+03  0.55253885227E+03  0.80061164560E+02 0.  0.
         11    1    3    3    0    0 -0.13513821380E+03  0.17689974387E+03 -0.66820644593E+03  0.70431222521E+03  0.00000000000E+00 0. -1.
        -11    1    3    3    0    0 -0.35808895099E+02  0.89317628486E+02 -0.51670967329E+03  0.52559376157E+03  0.00000000000E+00 0.  1.
          2    1    6    6  502    0  0.30171255007E+03  0.18445232211E+03 -0.33480663504E+03  0.48697906000E+03  0.00000000000E+00 0. -1.
          1    1    5    5  503    0 -0.18086630400E+03 -0.37645388253E+03 -0.44084054944E+03  0.60726479861E+03  0.00000000000E+00 0. -1.
         -2    1    5    5    0  503 -0.76034183037E+01 -0.96926665751E+02 -0.82082068444E+02  0.12724015272E+03  0.00000000000E+00 0.  1.
         -1    1    6    6    0  502  0.57704281130E+02  0.22710853809E+02 -0.21272503901E+02  0.65559792279E+02  0.00000000000E+00 0.  1.
<mgrwt>
<rscale>  0 0.14405830E+04</rscale>
<asrwt>0</asrwt>
<pdfrwt beam="1">  1        2 0.35237446E+00 0.14405830E+04</pdfrwt>
<pdfrwt beam="2">  1       -2 0.34848607E-01 0.14405830E+04</pdfrwt>
<totfact> 0.34476761E+01</totfact>
</mgrwt>
</event>
<event>
12    1  0.1663913E-007  0.2841072E+04  0.7818608E-02  0.8290629E-01
         -2   -1    0    0    0  501 -0.00000000000E+00  0.00000000000E+00  0.56094394834E+03  0.56094394834E+03  0.00000000000E+00 0.  1.
          2   -1    0    0  501    0  0.00000000000E+00 -0.00000000000E+00 -0.35973705022E+04  0.35973705022E+04  0.00000000000E+00 0. -1.
         23    2    1    2    0    0  0.12128256045E+04  0.38230500238E+03 -0.12212378823E+04  0.17652759097E+04  0.87601429491E+02 0.  0.
        254    2    1    2    0    0 -0.12128256045E+04 -0.38230500238E+03 -0.18151886715E+04  0.23930385408E+04  0.90256328466E+03 0.  0.
        -24    2    4    4    0    0 -0.48086572210E+03 -0.61569271408E+03 -0.97175545637E+03  0.12493436439E+04  0.79003245354E+02 0.  0.
         24    2    4    4    0    0 -0.73195988240E+03  0.23338771171E+03 -0.84343321518E+03  0.11436948969E+04  0.80145713047E+02 0.  0.
         11    1    3    3    0    0  0.11703298003E+04  0.35712944115E+03 -0.11899414236E+04  0.17068022354E+04  0.00000000000E+00 0.  1.
        -11    1    3    3    0    0  0.42495804206E+02  0.25175561222E+02 -0.31296458664E+02  0.58473674273E+02  0.00000000000E+00 0. -1.
          2    1    6    6  502    0 -0.51778688258E+03  0.18301200607E+03 -0.55333055743E+03  0.77959691887E+03  0.00000000000E+00 0. -1.
          1    1    5    5  503    0 -0.40203367880E+03 -0.55652350796E+03 -0.85598869417E+03  0.10972994752E+04  0.00000000000E+00 0. -1.
         -2    1    5    5    0  503 -0.78832043304E+02 -0.59169206127E+02 -0.11576676220E+03  0.15204416870E+03  0.00000000000E+00 0.  1.
         -3    1    6    6    0  502 -0.21417299982E+03  0.50375705639E+02 -0.29010265775E+03  0.36409797803E+03  0.00000000000E+00 0.  1.
<mgrwt>
<rscale>  0 0.28410725E+04</rscale>
<asrwt>0</asrwt>
<pdfrwt beam="1">  1        2 0.55344162E+00 0.28410725E+04</pdfrwt>
<pdfrwt beam="2">  1       -2 0.86299068E-01 0.28410725E+04</pdfrwt>
<totfact> 0.69975541E-01</totfact>
</mgrwt>
</event>
<event>
12    1  0.1663913E-007  0.2176831E+04  0.7818608E-02  0.8528134E-01
          2   -1    0    0  501    0  0.00000000000E+00  0.00000000000E+00  0.13710653524E+04  0.13710653524E+04  0.00000000000E+00 0.  1.
         -2   -1    0    0    0  501 -0.00000000000E+00 -0.00000000000E+00 -0.86403472082E+03  0.86403472082E+03  0.00000000000E+00 0. -1.
         23    2    1    2    0    0  0.52601448850E+03  0.72302969004E+03  0.13441458604E+03  0.90876057974E+03  0.91188461810E+02 0.  0.
        254    2    1    2    0    0 -0.52601448850E+03 -0.72302969004E+03  0.37261604558E+03  0.13263394935E+04  0.90601907259E+03 0.  0.
        -24    2    4    4    0    0  0.13063149980E+03  0.10070844961E+03  0.17047555763E+03  0.25066631041E+03  0.81024088153E+02 0.  0.
         24    2    4    4    0    0 -0.65664598829E+03 -0.82373813964E+03  0.20214048795E+03  0.10756731831E+04  0.80520453222E+02 0.  0.
         13    1    3    3    0    0  0.22195255415E+03  0.28183586338E+03  0.97056669718E+02  0.37163744068E+03  0.00000000000E+00 0.  1.
        -13    1    3    3    0    0  0.30406193435E+03  0.44119382666E+03  0.37357916323E+02  0.53712313906E+03  0.00000000000E+00 0. -1.
          2    1    6    6  502    0 -0.34510892540E+03 -0.49669518434E+03  0.11310198178E+03  0.61530344938E+03  0.00000000000E+00 0. -1.
          1    1    5    5  503    0  0.13502355017E+02  0.35151396887E+02  0.56132940631E+01  0.38071555844E+02  0.00000000000E+00 0. -1.
         -2    1    5    5    0  503  0.11712914478E+03  0.65557052719E+02  0.16486226357E+03  0.21259475456E+03  0.00000000000E+00 0.  1.
         -1    1    6    6    0  502 -0.31153706289E+03 -0.32704295531E+03  0.89038506173E+02  0.46036973375E+03  0.00000000000E+00 0.  1.
<mgrwt>
<rscale>  0 0.21768308E+04</rscale>
<asrwt>0</asrwt>
<pdfrwt beam="1">  1        2 0.21093313E+00 0.21768308E+04</pdfrwt>
<pdfrwt beam="2">  1       -2 0.13292842E+00 0.21768308E+04</pdfrwt>
<totfact> 0.56517653E+00</totfact>
</mgrwt>
</event>
<event>
12    1  0.1663913E-007  0.1054510E+04  0.7818608E-02  0.9250700E-01
          2   -1    0    0  501    0  0.00000000000E+00  0.00000000000E+00  0.29881199146E+04  0.29881199146E+04  0.00000000000E+00 0. -1.
         -2   -1    0    0    0  501 -0.00000000000E+00 -0.00000000000E+00 -0.93034410695E+02  0.93034410695E+02  0.00000000000E+00 0.  1.
         23    2    1    2    0    0 -0.52980547478E+02  0.10269448721E+03  0.40180871917E+03  0.43285144704E+03  0.11205816473E+03 0.  0.
        254    2    1    2    0    0  0.52980547478E+02 -0.10269448721E+03  0.24932767847E+04  0.26483028783E+04  0.88528295680E+03 0.  0.
        -24    2    4    4    0    0  0.33781487125E+03 -0.18856408539E+03  0.21551266547E+04  0.21910261212E+04  0.79682271704E+02 0.  0.
         24    2    4    4    0    0 -0.28483432377E+03  0.85869598185E+02  0.33815013006E+03  0.45727675709E+03  0.79071753653E+02 0.  0.
         11    1    3    3    0    0 -0.61689105939E+02  0.10592610592E+03  0.40491052536E+03  0.42305841116E+03  0.00000000000E+00 0. -1.
        -11    1    3    3    0    0  0.87085584608E+01 -0.32316187117E+01 -0.31018061892E+01  0.97930358724E+01  0.00000000000E+00 0.  1.
          4    1    6    6  502    0 -0.15737673366E+03  0.11489104846E+02  0.20345653446E+03  0.25747620714E+03  0.00000000000E+00 0. -1.
          3    1    5    5  503    0  0.83611828283E+02 -0.17997362005E+02  0.36280118365E+03  0.37274594797E+03  0.00000000000E+00 0. -1.
         -4    1    5    5    0  503  0.25420304297E+03 -0.17056672339E+03  0.17923254710E+04  0.18182801732E+04  0.00000000000E+00 0.  1.
         -3    1    6    6    0  502 -0.12745759011E+03  0.74380493339E+02  0.13469359561E+03  0.19980054996E+03  0.00000000000E+00 0.  1.
<mgrwt>
<rscale>  0 0.10545103E+04</rscale>
<asrwt>0</asrwt>
<pdfrwt beam="1">  1        2 0.45971068E+00 0.10545103E+04</pdfrwt>
<pdfrwt beam="2">  1       -2 0.14312989E-01 0.10545103E+04</pdfrwt>
<totfact> 0.68428431E+01</totfact>
</mgrwt>
</event>
<event>
12    1  0.1663913E-007  0.1616415E+04  0.7818608E-02  0.8810527E-01
         -2   -1    0    0    0  501 -0.00000000000E+00  0.00000000000E+00  0.42318370578E+03  0.42318370578E+03  0.00000000000E+00 0. -1.
          2   -1    0    0  501    0  0.00000000000E+00 -0.00000000000E+00 -0.15435360224E+04  0.15435360224E+04  0.00000000000E+00 0.  1.
         23    2    1    2    0    0 -0.32993529775E+03 -0.42995332457E+03 -0.58198519222E+03  0.80045355094E+03  0.91115098840E+02 0.  0.
        254    2    1    2    0    0  0.32993529775E+03  0.42995332457E+03 -0.53836712437E+03  0.11662661772E+04  0.88126072956E+03 0.  0.
        -24    2    4    4    0    0  0.23567652563E+03  0.35756946316E+03 -0.77507630881E+03  0.88906757183E+03  0.79363197222E+02 0.  0.
         24    2    4    4    0    0  0.94258772120E+02  0.72383861406E+02  0.23670918445E+03  0.27719860537E+03  0.81753833570E+02 0.  0.
         13    1    3    3    0    0 -0.25976582545E+03 -0.30204732223E+03 -0.37420708175E+03  0.54657278469E+03  0.00000000000E+00 0. -1.
        -13    1    3    3    0    0 -0.70169472299E+02 -0.12790600234E+03 -0.20777811047E+03  0.25388076624E+03  0.00000000000E+00 0.  1.
          4    1    6    6  502    0 -0.99139974978E+01 -0.78226354053E+00  0.51550990574E+02  0.52501465806E+02  0.00000000000E+00 0. -1.
          3    1    5    5  503    0  0.75790703960E+02  0.64886582330E+02 -0.14244890395E+03  0.17391431686E+03  0.00000000000E+00 0. -1.
         -4    1    5    5    0  503  0.15988582167E+03  0.29268288083E+03 -0.63262740487E+03  0.71515325497E+03  0.00000000000E+00 0.  1.
         -3    1    6    6    0  502  0.10417276962E+03  0.73166124946E+02  0.18515819387E+03  0.22469713956E+03  0.00000000000E+00 0.  1.
<mgrwt>
<rscale>  0 0.16164149E+04</rscale>
<asrwt>0</asrwt>
<pdfrwt beam="1">  1        2 0.23746708E+00 0.16164149E+04</pdfrwt>
<pdfrwt beam="2">  1       -2 0.65105185E-01 0.16164149E+04</pdfrwt>
<totfact> 0.24992515E+01</totfact>
</mgrwt>
</event>
<event>
12    1  0.1663913E-007  0.1816449E+04  0.7818608E-02  0.8697601E-01
         -1   -1    0    0    0  501 -0.00000000000E+00  0.00000000000E+00  0.66431284903E+03  0.66431284903E+03  0.00000000000E+00 0.  1.
          1   -1    0    0  501    0  0.00000000000E+00 -0.00000000000E+00 -0.12416912425E+04  0.12416912425E+04  0.00000000000E+00 0. -1.
         23    2    1    2    0    0 -0.17829232384E+03 -0.23045953979E+03  0.41633229258E+03  0.51609257413E+03  0.90106686817E+02 0.  0.
        254    2    1    2    0    0  0.17829232384E+03  0.23045953979E+03 -0.99371068609E+03  0.13899115174E+04  0.92708864000E+03 0.  0.
        -24    2    4    4    0    0 -0.19902717500E+03 -0.11020293387E+03 -0.80709252995E+03  0.84214233432E+03  0.77774393749E+02 0.  0.
         24    2    4    4    0    0  0.37731949884E+03  0.34066247366E+03 -0.18661815614E+03  0.54776918311E+03  0.82485250832E+02 0.  0.
         11    1    3    3    0    0 -0.12521445597E+03 -0.12340281152E+03  0.18194584119E+03  0.25300435372E+03  0.00000000000E+00 0.  1.
        -11    1    3    3    0    0 -0.53077867873E+02 -0.10705672827E+03  0.23438645139E+03  0.26308822041E+03  0.00000000000E+00 0. -1.
          2    1    6    6  502    0  0.11931154297E+03  0.99322009965E+02 -0.97821582538E+02  0.18349160188E+03  0.00000000000E+00 0. -1.
          3    1    5    5  503    0 -0.83577026833E+02 -0.45186869533E+02 -0.47850746372E+03  0.48784871162E+03  0.00000000000E+00 0. -1.
         -4    1    5    5    0  503 -0.11545014817E+03 -0.65016064340E+02 -0.32858506623E+03  0.35429362270E+03  0.00000000000E+00 0.  1.
         -1    1    6    6    0  502  0.25800795587E+03  0.24134046370E+03 -0.88796573600E+02  0.36427758124E+03  0.00000000000E+00 0.  1.
<mgrwt>
<rscale>  0 0.18164487E+04</rscale>
<asrwt>0</asrwt>
<pdfrwt beam="1">  1        1 0.19102942E+00 0.18164487E+04</pdfrwt>
<pdfrwt beam="2">  1       -1 0.10220198E+00 0.18164487E+04</pdfrwt>
<totfact> 0.85115299E+00</totfact>
</mgrwt>
</event>
<event>
12    1  0.1663913E-007  0.2311919E+04  0.7818608E-02  0.8473236E-01
          1   -1    0    0  501    0  0.00000000000E+00  0.00000000000E+00  0.18723741132E+04  0.18723741132E+04  0.00000000000E+00 0. -1.
         -1   -1    0    0    0  501 -0.00000000000E+00 -0.00000000000E+00 -0.71366212294E+03  0.71366212294E+03  0.00000000000E+00 0.  1.
         23    2    1    2    0    0  0.97531456495E+01 -0.86656843535E+02 -0.59730344235E+03  0.61059233867E+03  0.91907939956E+02 0.  0.
        254    2    1    2    0    0 -0.97531456495E+01  0.86656843535E+02  0.17560154326E+04  0.19754438975E+04  0.90065745991E+03 0.  0.
        -24    2    4    4    0    0  0.16392411854E+03  0.25089891157E+03  0.16853542593E+04  0.17135124881E+04  0.76711715849E+02 0.  0.
         24    2    4    4    0    0 -0.17367726419E+03 -0.16424206803E+03  0.70661173363E+02  0.26193140934E+03  0.80472434827E+02 0.  0.
         13    1    3    3    0    0  0.63877470744E+01 -0.79855220768E+02 -0.59765055869E+03  0.60299572959E+03  0.00000000000E+00 0.  1.
        -13    1    3    3    0    0  0.33653985751E+01 -0.68016227675E+01  0.34711634610E+00  0.75966090855E+01  0.00000000000E+00 0. -1.
          4    1    6    6  502    0 -0.14659636470E+03 -0.14644645573E+03  0.88063791767E+02  0.22514948359E+03  0.00000000000E+00 0. -1.
          1    1    5    5  503    0  0.94610594735E+02  0.13405134551E+03  0.70816028073E+03  0.72691946670E+03  0.00000000000E+00 0. -1.
         -2    1    5    5    0  503  0.69313523806E+02  0.11684756606E+03  0.97719397853E+03  0.98659302144E+03  0.00000000000E+00 0.  1.
         -3    1    6    6    0  502 -0.27080899488E+02 -0.17795612302E+02 -0.17402618404E+02  0.36781925747E+02  0.00000000000E+00 0.  1.
<mgrwt>
<rscale>  0 0.23119191E+04</rscale>
<asrwt>0</asrwt>
<pdfrwt beam="1">  1        1 0.28805755E+00 0.23119191E+04</pdfrwt>
<pdfrwt beam="2">  1       -1 0.10979417E+00 0.23119191E+04</pdfrwt>
<totfact> 0.25176879E+00</totfact>
</mgrwt>
</event>
<event>
12    1  0.1663913E-007  0.1685802E+04  0.7818608E-02  0.8769504E-01
         -1   -1    0    0    0  501 -0.00000000000E+00  0.00000000000E+00  0.65451228009E+03  0.65451228009E+03  0.00000000000E+00 0. -1.
          1   -1    0    0  501    0  0.00000000000E+00 -0.00000000000E+00 -0.10855134023E+04  0.10855134023E+04  0.00000000000E+00 0.  1.
         23    2    1    2    0    0  0.87238522341E+02  0.45617552468E+03  0.23628721229E+03  0.52888517405E+03  0.90450049996E+02 0.  0.
        254    2    1    2    0    0 -0.87238522341E+02 -0.45617552468E+03 -0.66728833451E+03  0.12111405083E+04  0.89770871694E+03 0.  0.
        -24    2    4    4    0    0 -0.22248241162E+03  0.10546154105E+02  0.13310063996E+03  0.27124933251E+03  0.79061844045E+02 0.  0.
         24    2    4    4    0    0  0.13524388928E+03 -0.46672167879E+03 -0.80038897447E+03  0.93989117583E+03  0.81565169729E+02 0.  0.
         11    1    3    3    0    0  0.28310705299E+02  0.28388884948E+03  0.18383206687E+03  0.33939446623E+03  0.00000000000E+00 0. -1.
        -11    1    3    3    0    0  0.58927817042E+02  0.17228667520E+03  0.52455145421E+02  0.18949070783E+03  0.00000000000E+00 0.  1.
          2    1    6    6  502    0  0.13054669975E+03 -0.46835481037E+03 -0.78187563500E+03  0.92072155282E+03  0.00000000000E+00 0. -1.
          3    1    5    5  503    0 -0.16900569738E+03  0.51705098413E+01  0.13662948359E+03  0.21738738626E+03  0.00000000000E+00 0. -1.
         -4    1    5    5    0  503 -0.53476714235E+02  0.53756442636E+01 -0.35288436251E+01  0.53861946251E+02  0.00000000000E+00 0.  1.
         -1    1    6    6    0  502  0.46971895218E+01  0.16331315826E+01 -0.18513339467E+02  0.19169623011E+02  0.00000000000E+00 0.  1.
<mgrwt>
<rscale>  0 0.16858017E+04</rscale>
<asrwt>0</asrwt>
<pdfrwt beam="1">  1        1 0.16700206E+00 0.16858017E+04</pdfrwt>
<pdfrwt beam="2">  1       -1 0.10069420E+00 0.16858017E+04</pdfrwt>
<totfact> 0.11623216E+01</totfact>
</mgrwt>
</event>
<event>
12    1  0.1663913E-007  0.2184536E+04  0.7818608E-02  0.8524892E-01
          2   -1    0    0  501    0  0.00000000000E+00  0.00000000000E+00  0.23401845661E+04  0.23401845661E+04  0.00000000000E+00 0. -1.
         -2   -1    0    0    0  501 -0.00000000000E+00 -0.00000000000E+00 -0.50981010590E+03  0.50981010590E+03  0.00000000000E+00 0.  1.
         23    2    1    2    0    0 -0.68053120531E+03 -0.43017144704E+03  0.12959793444E+04  0.15284777915E+04  0.92258889618E+02 0.  0.
        254    2    1    2    0    0  0.68053120531E+03  0.43017144704E+03  0.53439511587E+03  0.13215168806E+04  0.90147575151E+03 0.  0.
        -24    2    4    4    0    0  0.35367826244E+03  0.32256276310E+03  0.76028834439E+03  0.90211421463E+03  0.81465576585E+02 0.  0.
         24    2    4    4    0    0  0.32685294287E+03  0.10760868394E+03 -0.22589322851E+03  0.41940266595E+03  0.80363986955E+02 0.  0.
         11    1    3    3    0    0 -0.60000374457E+03 -0.40841362521E+03  0.11855487829E+04  0.13900834865E+04  0.00000000000E+00 0. -1.
        -11    1    3    3    0    0 -0.80527460735E+02 -0.21757821829E+02  0.11043056142E+03  0.13839430494E+03  0.00000000000E+00 0.  1.
          4    1    6    6  502    0  0.86139538979E+02  0.48556532393E+02 -0.29544525293E+02  0.10320191853E+03  0.00000000000E+00 0. -1.
          3    1    5    5  503    0  0.13132099998E+02  0.65193221526E+01  0.52309432772E+01  0.15566514680E+02  0.00000000000E+00 0. -1.
         -4    1    5    5    0  503  0.34054616244E+03  0.31604344094E+03  0.75505740111E+03  0.88654769995E+03  0.00000000000E+00 0.  1.
         -3    1    6    6    0  502  0.24071340389E+03  0.59052151547E+02 -0.19634870322E+03  0.31620074742E+03  0.00000000000E+00 0.  1.
<mgrwt>
<rscale>  0 0.21845363E+04</rscale>
<asrwt>0</asrwt>
<pdfrwt beam="1">  1        2 0.36002839E+00 0.21845363E+04</pdfrwt>
<pdfrwt beam="2">  1       -2 0.78432325E-01 0.21845363E+04</pdfrwt>
<totfact> 0.56884369E+00</totfact>
</mgrwt>
</event>
<event>
12    1  0.1663913E-007  0.2086046E+04  0.7818608E-02  0.8567415E-01
          2   -1    0    0  501    0  0.00000000000E+00  0.00000000000E+00  0.27168474018E+04  0.27168474018E+04  0.00000000000E+00 0. -1.
         -2   -1    0    0    0  501 -0.00000000000E+00 -0.00000000000E+00 -0.40042616470E+03  0.40042616470E+03  0.00000000000E+00 0.  1.
         23    2    1    2    0    0  0.63380804992E+03 -0.61576992087E+03  0.76961299605E+03  0.11753976852E+04  0.91489426158E+02 0.  0.
        254    2    1    2    0    0 -0.63380804992E+03  0.61576992087E+03  0.15468082411E+04  0.19418758813E+04  0.77290424001E+03 0.  0.
        -24    2    4    4    0    0 -0.52247084644E+03 -0.77136716484E+01  0.59608651099E+03  0.79677446476E+03  0.80592387942E+02 0.  0.
         24    2    4    4    0    0 -0.11133720347E+03  0.62348359252E+03  0.95072173008E+03  0.11451014166E+04  0.79105519084E+02 0.  0.
         13    1    3    3    0    0  0.23766826525E+03 -0.21409473579E+03  0.33547891854E+03  0.46353949668E+03  0.00000000000E+00 0.  1.
        -13    1    3    3    0    0  0.39613978467E+03 -0.40167518508E+03  0.43413407751E+03  0.71185818852E+03  0.00000000000E+00 0. -1.
          2    1    6    6  502    0 -0.22173753257E+02  0.34660273101E+03  0.52600020112E+03  0.63031844338E+03  0.00000000000E+00 0. -1.
          1    1    5    5  503    0 -0.45232731121E+03  0.13784457573E+02  0.48209654749E+03  0.66121637067E+03  0.00000000000E+00 0. -1.
         -2    1    5    5    0  503 -0.70143535233E+02 -0.21498129221E+02  0.11398996350E+03  0.13555809409E+03  0.00000000000E+00 0.  1.
         -1    1    6    6    0  502 -0.89163450215E+02  0.27688086151E+03  0.42472152896E+03  0.51478297319E+03  0.00000000000E+00 0.  1.
<mgrwt>
<rscale>  0 0.20860458E+04</rscale>
<asrwt>0</asrwt>
<pdfrwt beam="1">  1        2 0.41797651E+00 0.20860458E+04</pdfrwt>
<pdfrwt beam="2">  1       -2 0.61604027E-01 0.20860458E+04</pdfrwt>
<totfact> 0.58673602E+00</totfact>
</mgrwt>
</event>
<event>
12    1  0.1663913E-007  0.1750507E+04  0.7818608E-02  0.8733071E-01
         -2   -1    0    0    0  501 -0.00000000000E+00  0.00000000000E+00  0.46188390678E+03  0.46188390678E+03  0.00000000000E+00 0. -1.
          2   -1    0    0  501    0  0.00000000000E+00 -0.00000000000E+00 -0.16585747216E+04  0.16585747216E+04  0.00000000000E+00 0.  1.
         23    2    1    2    0    0  0.44690005121E+03  0.20326870574E+03 -0.95568508800E+03  0.10811363989E+04  0.12034991920E+03 0.  0.
        254    2    1    2    0    0 -0.44690005121E+03 -0.20326870574E+03 -0.24100572687E+03  0.10393222295E+04  0.88378114595E+03 0.  0.
        -24    2    4    4    0    0 -0.30913909628E+02  0.29333689207E+03 -0.23681358784E+03  0.38675798329E+03  0.80615508431E+02 0.  0.
         24    2    4    4    0    0 -0.41598614159E+03 -0.49660559781E+03 -0.41921390377E+01  0.65256424625E+03  0.78491602681E+02 0.  0.
         11    1    3    3    0    0  0.96263977878E+02  0.48572751624E+01 -0.12442760136E+03  0.15739305747E+03  0.00000000000E+00 0. -1.
        -11    1    3    3    0    0  0.35063607334E+03  0.19841143058E+03 -0.83125748664E+03  0.92374334141E+03  0.00000000000E+00 0.  1.
          4    1    6    6  502    0 -0.52213179769E+02 -0.10427435638E+03 -0.13949600869E+02  0.11744764325E+03  0.00000000000E+00 0. -1.
          1    1    5    5  503    0 -0.30156237750E+02  0.34245651672E+02 -0.47532972831E+02  0.65890415387E+02  0.00000000000E+00 0. -1.
         -2    1    5    5    0  503 -0.75767187765E+00  0.25909124039E+03 -0.18928061501E+03  0.32086756790E+03  0.00000000000E+00 0.  1.
         -3    1    6    6    0  502 -0.36377296182E+03 -0.39233124143E+03  0.97574618318E+01  0.53511660300E+03  0.00000000000E+00 0.  1.
<mgrwt>
<rscale>  0 0.17505073E+04</rscale>
<asrwt>0</asrwt>
<pdfrwt beam="1">  1        2 0.25516534E+00 0.17505073E+04</pdfrwt>
<pdfrwt beam="2">  1       -2 0.71059063E-01 0.17505073E+04</pdfrwt>
<totfact> 0.17630332E+01</totfact>
</mgrwt>
</event>
<event>
12    1  0.1663913E-007  0.1537165E+04  0.7818608E-02  0.8860108E-01
         -2   -1    0    0    0  501 -0.00000000000E+00  0.00000000000E+00  0.76104038269E+03  0.76104038269E+03  0.00000000000E+00 0.  1.
          2   -1    0    0  501    0  0.00000000000E+00 -0.00000000000E+00 -0.77619975002E+03  0.77619975002E+03  0.00000000000E+00 0. -1.
         23    2    1    2    0    0  0.13612766711E+03  0.42326934790E+03 -0.22653247059E+03  0.50683463772E+03  0.88750814852E+02 0.  0.
        254    2    1    2    0    0 -0.13612766711E+03 -0.42326934790E+03  0.21137310326E+03  0.10304054950E+04  0.90519015279E+03 0.  0.
        -24    2    4    4    0    0 -0.35336419535E+03 -0.34440086450E+03  0.46111061685E+03  0.67995493294E+03  0.78977843946E+02 0.  0.
         24    2    4    4    0    0  0.21723652824E+03 -0.78868483406E+02 -0.24973751359E+03  0.35045056205E+03  0.83873856882E+02 0.  0.
         11    1    3    3    0    0  0.14757772984E+03  0.39771727019E+03 -0.20312035531E+03  0.47033614798E+03  0.00000000000E+00 0. -1.
        -11    1    3    3    0    0 -0.11450062728E+02  0.25552077708E+02 -0.23412115275E+02  0.36498489741E+02  0.00000000000E+00 0.  1.
          2    1    6    6  502    0  0.11913415176E+03 -0.80340066381E+01 -0.87379380784E+02  0.14796164221E+03  0.00000000000E+00 0. -1.
          1    1    5    5  503    0 -0.26281101811E+02 -0.29581156003E+02  0.11957643838E+02  0.41336743329E+02  0.00000000000E+00 0. -1.
         -2    1    5    5    0  503 -0.32708309354E+03 -0.31481970849E+03  0.44915297301E+03  0.63861818961E+03  0.00000000000E+00 0.  1.
         -1    1    6    6    0  502  0.98102376484E+02 -0.70834476768E+02 -0.16235813281E+03  0.20248891985E+03  0.00000000000E+00 0.  1.
<mgrwt>
<rscale>  0 0.15371654E+04</rscale>
<asrwt>0</asrwt>
<pdfrwt beam="1">  1        2 0.11941535E+00 0.15371654E+04</pdfrwt>
<pdfrwt beam="2">  1       -2 0.11708314E+00 0.15371654E+04</pdfrwt>
<totfact> 0.19492547E+01</totfact>
</mgrwt>
</event>
<event>
12    1  0.1663913E-007  0.1469193E+04  0.7818608E-02  0.8905202E-01
         -1   -1    0    0    0  501 -0.00000000000E+00  0.00000000000E+00  0.21068522262E+03  0.21068522262E+03  0.00000000000E+00 0.  1.
          1   -1    0    0  501    0  0.00000000000E+00 -0.00000000000E+00 -0.25613186051E+04  0.25613186051E+04  0.00000000000E+00 0. -1.
         23    2    1    2    0    0  0.18703886222E+03 -0.37961106875E+03 -0.40722039707E+03  0.59442481562E+03  0.91784040709E+02 0.  0.
        254    2    1    2    0    0 -0.18703886222E+03  0.37961106875E+03 -0.19434129854E+04  0.21775790121E+04  0.88651464885E+03 0.  0.
        -24    2    4    4    0    0  0.35015581499E+03  0.12468718334E+03 -0.81119221424E+03  0.89619262577E+03  0.83501051404E+02 0.  0.
         24    2    4    4    0    0 -0.53719467721E+03  0.25492388541E+03 -0.11322207712E+04  0.12813863864E+04  0.80392088204E+02 0.  0.
         11    1    3    3    0    0  0.19260601944E+03 -0.32612436344E+03 -0.34682271961E+03  0.51355640196E+03  0.00000000000E+00 0.  1.
        -11    1    3    3    0    0 -0.55671572220E+01 -0.53486705311E+02 -0.60397677465E+02  0.80868413659E+02  0.00000000000E+00 0. -1.
          4    1    6    6  502    0 -0.36398237285E+03  0.18585250406E+03 -0.69846613020E+03  0.80924610351E+03  0.00000000000E+00 0. -1.
          3    1    5    5  503    0  0.29261821557E+03  0.12699227156E+03 -0.73002572082E+03  0.79667434387E+03  0.00000000000E+00 0. -1.
         -4    1    5    5    0  503  0.57537599421E+02 -0.23050882281E+01 -0.81166493415E+02  0.99518281899E+02  0.00000000000E+00 0.  1.
         -3    1    6    6    0  502 -0.17321230436E+03  0.69071381351E+02 -0.43375464100E+03  0.47214028285E+03  0.00000000000E+00 0.  1.
<mgrwt>
<rscale>  0 0.14691929E+04</rscale>
<asrwt>0</asrwt>
<pdfrwt beam="1">  1        1 0.39404900E+00 0.14691929E+04</pdfrwt>
<pdfrwt beam="2">  1       -1 0.32413112E-01 0.14691929E+04</pdfrwt>
<totfact> 0.10632950E+01</totfact>
</mgrwt>
</event>
<event>
12    1  0.1663913E-007  0.1842776E+04  0.7818608E-02  0.8683877E-01
          2   -1    0    0  501    0  0.00000000000E+00  0.00000000000E+00  0.49441536187E+03  0.49441536187E+03  0.00000000000E+00 0. -1.
         -2   -1    0    0    0  501 -0.00000000000E+00 -0.00000000000E+00 -0.17170907803E+04  0.17170907803E+04  0.00000000000E+00 0.  1.
         23    2    1    2    0    0 -0.43607475777E+03 -0.45213028190E+03 -0.83137840676E+03  0.10458256858E+04  0.89321462205E+02 0.  0.
        254    2    1    2    0    0  0.43607475777E+03  0.45213028190E+03 -0.39129701167E+03  0.11656804564E+04  0.90061900319E+03 0.  0.
        -24    2    4    4    0    0  0.30913850308E+03  0.14009047083E+03 -0.64739855242E+03  0.73511349100E+03  0.77942317547E+02 0.  0.
         24    2    4    4    0    0  0.12693625469E+03  0.31203981107E+03  0.25610154075E+03  0.43056696540E+03  0.79487458596E+02 0.  0.
         11    1    3    3    0    0 -0.37150343641E+03 -0.42460384914E+03 -0.73346535918E+03  0.92535110368E+03  0.00000000000E+00 0.  1.
        -11    1    3    3    0    0 -0.64571321358E+02 -0.27526432764E+02 -0.97913047578E+02  0.12047458209E+03  0.00000000000E+00 0. -1.
          2    1    6    6  502    0 -0.39102147985E+01  0.25938278932E+02  0.22638873505E+01  0.26328867800E+02  0.00000000000E+00 0. -1.
          1    1    5    5  503    0  0.11524900256E+03  0.20766780738E+02 -0.27099113514E+03  0.29521142779E+03  0.00000000000E+00 0. -1.
         -2    1    5    5    0  503  0.19388950052E+03  0.11932369010E+03 -0.37640741728E+03  0.43990206321E+03  0.00000000000E+00 0.  1.
         -1    1    6    6    0  502  0.13084646949E+03  0.28610153213E+03  0.25383765340E+03  0.40423809760E+03  0.00000000000E+00 0.  1.
<mgrwt>
<rscale>  0 0.18427762E+04</rscale>
<asrwt>0</asrwt>
<pdfrwt beam="1">  1        2 0.76063902E-01 0.18427762E+04</pdfrwt>
<pdfrwt beam="2">  1       -2 0.26416781E+00 0.18427762E+04</pdfrwt>
<totfact> 0.30891806E+00</totfact>
</mgrwt>
</event>
<event>
12    1  0.1663913E-007  0.2902752E+04  0.7818608E-02  0.8272059E-01
          1   -1    0    0  501    0  0.00000000000E+00  0.00000000000E+00  0.18182693604E+04  0.18182693604E+04  0.00000000000E+00 0. -1.
         -1   -1    0    0    0  501 -0.00000000000E+00 -0.00000000000E+00 -0.11585152624E+04  0.11585152624E+04  0.00000000000E+00 0.  1.
         23    2    1    2    0    0  0.76943797650E+03  0.14165209613E+03 -0.77949542986E+03  0.11082154031E+04  0.91804893420E+02 0.  0.
        254    2    1    2    0    0 -0.76943797650E+03 -0.14165209613E+03  0.14392495278E+04  0.18685692197E+04  0.89889465994E+03 0.  0.
        -24    2    4    4    0    0 -0.12716433621E+03  0.11742958358E+02  0.11211218229E+04  0.11311090330E+04  0.78643736150E+02 0.  0.
         24    2    4    4    0    0 -0.64227364028E+03 -0.15339505449E+03  0.31812770487E+03  0.73746018673E+03  0.81220801953E+02 0.  0.
         11    1    3    3    0    0  0.42033630044E+03  0.10914030635E+03 -0.47781296684E+03  0.64567750714E+03  0.00000000000E+00 0. -1.
        -11    1    3    3    0    0  0.34910167605E+03  0.32511789777E+02 -0.30168246302E+03  0.46253789595E+03  0.00000000000E+00 0.  1.
          4    1    6    6  502    0 -0.32079447198E+03 -0.64618734228E+02  0.20068802746E+03  0.38387544651E+03  0.00000000000E+00 0. -1.
          1    1    5    5  503    0 -0.19144915791E+02  0.29802247000E+02  0.41929287756E+03  0.42078642909E+03  0.00000000000E+00 0. -1.
         -2    1    5    5    0  503 -0.10801942042E+03 -0.18059288642E+02  0.70182894534E+03  0.71032260390E+03  0.00000000000E+00 0.  1.
         -3    1    6    6    0  502 -0.32147916830E+03 -0.88776320257E+02  0.11743967741E+03  0.35358474023E+03  0.00000000000E+00 0.  1.
<mgrwt>
<rscale>  0 0.29027524E+04</rscale>
<asrwt>0</asrwt>
<pdfrwt beam="1">  1        1 0.27973375E+00 0.29027524E+04</pdfrwt>
<pdfrwt beam="2">  1       -1 0.17823312E+00 0.29027524E+04</pdfrwt>
<totfact> 0.72812582E-01</totfact>
</mgrwt>
</event>
<event>
12    1  0.1663913E-007  0.1304276E+04  0.7818608E-02  0.9026181E-01
         -2   -1    0    0    0  501 -0.00000000000E+00  0.00000000000E+00  0.39992725266E+03  0.39992725266E+03  0.00000000000E+00 0.  1.
          2   -1    0    0  501    0  0.00000000000E+00 -0.00000000000E+00 -0.10634030500E+04  0.10634030500E+04  0.00000000000E+00 0. -1.
         23    2    1    2    0    0  0.74904741973E+02 -0.99333754734E+02 -0.49958494896E+03  0.52279719814E+03  0.90850833532E+02 0.  0.
        254    2    1    2    0    0 -0.74904741973E+02  0.99333754734E+02 -0.16389084836E+03  0.94053310451E+03  0.91774963651E+03 0.  0.
        -24    2    4    4    0    0 -0.15785625967E+03 -0.30840625033E+03  0.17634323463E+03  0.39720512920E+03  0.81498247264E+02 0.  0.
         24    2    4    4    0    0  0.82951517693E+02  0.40774000506E+03 -0.34023408300E+03  0.54332797531E+03  0.79455594533E+02 0.  0.
         11    1    3    3    0    0  0.44228367701E+02 -0.23402318464E+02 -0.73516101669E+02  0.88929377731E+02  0.00000000000E+00 0.  1.
        -11    1    3    3    0    0  0.30676374271E+02 -0.75931436270E+02 -0.42606884729E+03  0.43386782041E+03  0.00000000000E+00 0. -1.
          2    1    6    6  502    0  0.16678077789E+02  0.43017191028E+02 -0.72970421268E+02  0.86332609034E+02  0.00000000000E+00 0. -1.
          1    1    5    5  503    0 -0.71343154152E+02 -0.10477379061E+03  0.25142075469E+02  0.12922661027E+03  0.00000000000E+00 0. -1.
         -2    1    5    5    0  503 -0.86513105514E+02 -0.20363245972E+03  0.15120115916E+03  0.26797851893E+03  0.00000000000E+00 0.  1.
         -1    1    6    6    0  502  0.66273439904E+02  0.36472281404E+03 -0.26726366173E+03  0.45699536627E+03  0.00000000000E+00 0.  1.
<mgrwt>
<rscale>  0 0.13042758E+04</rscale>
<asrwt>0</asrwt>
<pdfrwt beam="1">  1        2 0.16360047E+00 0.13042758E+04</pdfrwt>
<pdfrwt beam="2">  1       -2 0.61527270E-01 0.13042758E+04</pdfrwt>
<totfact> 0.55244453E+01</totfact>
</mgrwt>
</event>
<event>
12    1  0.1663913E-007  0.1925634E+04  0.7818608E-02  0.8642201E-01
          1   -1    0    0  501    0  0.00000000000E+00  0.00000000000E+00  0.13904745004E+04  0.13904745004E+04  0.00000000000E+00 0. -1.
         -1   -1    0    0    0  501 -0.00000000000E+00 -0.00000000000E+00 -0.66669078384E+03  0.66669078384E+03  0.00000000000E+00 0.  1.
         23    2    1    2    0    0  0.19648892180E+03  0.33579710561E+03 -0.40094893381E+03  0.56554482035E+03  0.87825416461E+02 0.  0.
        254    2    1    2    0    0 -0.19648892180E+03 -0.33579710561E+03  0.11247326504E+04  0.14916204639E+04  0.89918879053E+03 0.  0.
        -24    2    4    4    0    0  0.65498002941E+02 -0.39602990399E+03  0.11405733549E+04  0.12118301039E+04  0.80591249798E+02 0.  0.
         24    2    4    4    0    0 -0.26198692474E+03  0.60232798379E+02 -0.15840704446E+02  0.27979036009E+03  0.75937994088E+02 0.  0.
         13    1    3    3    0    0  0.16726700537E+03  0.28549242147E+03 -0.37961805857E+03  0.50358121906E+03  0.00000000000E+00 0.  1.
        -13    1    3    3    0    0  0.29221916423E+02  0.50304684142E+02 -0.21330875247E+02  0.61963601291E+02  0.00000000000E+00 0. -1.
          2    1    6    6  502    0 -0.27074951578E+01 -0.29699132037E+01  0.10866470091E+02  0.11585814028E+02  0.00000000000E+00 0. -1.
          3    1    5    5  503    0  0.65061603025E+02 -0.17424337761E+03  0.57458311231E+03  0.60393668524E+03  0.00000000000E+00 0. -1.
         -4    1    5    5    0  503  0.43639991623E+00 -0.22178652638E+03  0.56599024255E+03  0.60789341861E+03  0.00000000000E+00 0.  1.
         -1    1    6    6    0  502 -0.25927942958E+03  0.63202711583E+02 -0.26707174536E+02  0.26820454606E+03  0.00000000000E+00 0.  1.
<mgrwt>
<rscale>  0 0.19256340E+04</rscale>
<asrwt>0</asrwt>
<pdfrwt beam="1">  1        1 0.21391915E+00 0.19256340E+04</pdfrwt>
<pdfrwt beam="2">  1       -1 0.10256781E+00 0.19256340E+04</pdfrwt>
<totfact> 0.65485937E+00</totfact>
</mgrwt>
</event>
<event>
12    1  0.1663913E-007  0.1213803E+04  0.7818608E-02  0.9100859E-01
          2   -1    0    0  501    0  0.00000000000E+00  0.00000000000E+00  0.61718873318E+03  0.61718873318E+03  0.00000000000E+00 0.  1.
         -2   -1    0    0    0  501 -0.00000000000E+00 -0.00000000000E+00 -0.59678615748E+03  0.59678615748E+03  0.00000000000E+00 0. -1.
         23    2    1    2    0    0 -0.18070289254E+03  0.17835702606E+03 -0.58613247957E+02  0.27688490320E+03  0.93621432748E+02 0.  0.
        254    2    1    2    0    0  0.18070289254E+03 -0.17835702606E+03  0.79015823659E+02  0.93708998746E+03  0.89857074296E+03 0.  0.
        -24    2    4    4    0    0 -0.24612721497E+03  0.27875345939E+02  0.30956881127E+03  0.40431425032E+03  0.79256061230E+02 0.  0.
         24    2    4    4    0    0  0.42683010751E+03 -0.20623237200E+03 -0.23055298761E+03  0.53277573714E+03  0.77327705617E+02 0.  0.
         11    1    3    3    0    0 -0.11168987698E+03  0.16165262063E+03 -0.61309899159E+02  0.20582784581E+03  0.00000000000E+00 0. -1.
        -11    1    3    3    0    0 -0.69013015560E+02  0.16704405424E+02  0.26966512020E+01  0.71057057391E+02  0.00000000000E+00 0.  1.
          4    1    6    6  502    0  0.35346891661E+03 -0.19731290186E+03 -0.21015140369E+03  0.45610993053E+03  0.00000000000E+00 0. -1.
          1    1    5    5  503    0 -0.22410391087E+03  0.15662312890E+02  0.30486478057E+03  0.37869566323E+03  0.00000000000E+00 0. -1.
         -2    1    5    5    0  503 -0.22023304105E+02  0.12213033049E+02  0.47040306920E+01  0.25618587095E+02  0.00000000000E+00 0.  1.
         -3    1    6    6    0  502  0.73361190898E+02 -0.89194701328E+01 -0.20401583914E+02  0.76665806613E+02  0.00000000000E+00 0.  1.
<mgrwt>
<rscale>  0 0.12138034E+04</rscale>
<asrwt>0</asrwt>
<pdfrwt beam="1">  1        2 0.94952113E-01 0.12138034E+04</pdfrwt>
<pdfrwt beam="2">  1       -2 0.91813255E-01 0.12138034E+04</pdfrwt>
<totfact> 0.47693055E+01</totfact>
</mgrwt>
</event>
<event>
12    1  0.2064908E-007  0.1418394E+04  0.7818608E-02  0.8940611E-01
         -1   -1    0    0    0  501 -0.00000000000E+00  0.00000000000E+00  0.19210028845E+03  0.19210028845E+03  0.00000000000E+00 0.  1.
          1   -1    0    0  501    0  0.00000000000E+00 -0.00000000000E+00 -0.26182167109E+04  0.26182167109E+04  0.00000000000E+00 0. -1.
         23    2    1    2    0    0 -0.17176025952E+03  0.18177153485E+03 -0.69359751953E+02  0.27517542438E+03  0.91478201538E+02 0.  0.
        254    2    1    2    0    0  0.17176025952E+03 -0.18177153485E+03 -0.23567566705E+04  0.25351415750E+04  0.90005462256E+03 0.  0.
        -24    2    4    4    0    0 -0.25974589411E+03  0.16636778568E+03 -0.13011721511E+04  0.13396968140E+04  0.81193700240E+02 0.  0.
         24    2    4    4    0    0  0.43150615363E+03 -0.34813932053E+03 -0.10555845194E+04  0.11954447610E+04  0.86202969099E+02 0.  0.
         11    1    3    3    0    0  0.80166115097E+01  0.12843150188E+02 -0.17412889866E+02  0.23074256225E+02  0.00000000000E+00 0. -1.
        -11    1    3    3    0    0 -0.17977687103E+03  0.16892838466E+03 -0.51946862087E+02  0.25210116815E+03  0.00000000000E+00 0.  1.
          2    1    6    6  502    0  0.41975573281E+03 -0.32774982401E+03 -0.10358522395E+04  0.11647337397E+04  0.00000000000E+00 0. -1.
          1    1    5    5  503    0 -0.23022964170E+03  0.11384838423E+03 -0.11063846772E+04  0.11358055276E+04  0.00000000000E+00 0. -1.
         -2    1    5    5    0  503 -0.29516252409E+02  0.52519401448E+02 -0.19478747391E+03  0.20389128642E+03  0.00000000000E+00 0.  1.
         -1    1    6    6    0  502  0.11750420822E+02 -0.20389496513E+02 -0.19732279882E+02  0.30711021261E+02  0.00000000000E+00 0.  1.
<mgrwt>
<rscale>  0 0.14183937E+04</rscale>
<asrwt>0</asrwt>
<pdfrwt beam="1">  1        1 0.40280256E+00 0.14183937E+04</pdfrwt>
<pdfrwt beam="2">  1       -1 0.29553891E-01 0.14183937E+04</pdfrwt>
<totfact> 0.11476236E+01</totfact>
</mgrwt>
</event>
<event>
12    1  0.1663913E-007  0.1023459E+04  0.7818608E-02  0.9283183E-01
          2   -1    0    0  501    0  0.00000000000E+00  0.00000000000E+00  0.14763832813E+04  0.14763832813E+04  0.00000000000E+00 0. -1.
         -2   -1    0    0    0  501 -0.00000000000E+00 -0.00000000000E+00 -0.17737059657E+03  0.17737059657E+03  0.00000000000E+00 0.  1.
         23    2    1    2    0    0 -0.13824090091E+02  0.57961481639E+02  0.27344639353E+03  0.29443083038E+03  0.91465539514E+02 0.  0.
        254    2    1    2    0    0  0.13824090091E+02 -0.57961481639E+02  0.10255662912E+04  0.13593230475E+04  0.89018104395E+03 0.  0.
        -24    2    4    4    0    0 -0.43445227988E+02  0.15948114632E+03 -0.10012730133E+03  0.20857773029E+03  0.78469543350E+02 0.  0.
         24    2    4    4    0    0  0.57269318079E+02 -0.21744262796E+03  0.11256935925E+04  0.11507453172E+04  0.80421698573E+02 0.  0.
         13    1    3    3    0    0 -0.28636601991E+02  0.78422185422E+02  0.19850761690E+03  0.21534940935E+03  0.00000000000E+00 0.  1.
        -13    1    3    3    0    0  0.14812511900E+02 -0.20460703784E+02  0.74938776636E+02  0.79081421028E+02  0.00000000000E+00 0. -1.
          4    1    6    6  502    0  0.47265232262E+02 -0.17552959261E+03  0.10283156772E+04  0.10442594371E+04  0.00000000000E+00 0. -1.
          3    1    5    5  503    0  0.46721931122E+01  0.12171030270E+03 -0.66192414453E+02  0.13862417864E+03  0.00000000000E+00 0. -1.
         -4    1    5    5    0  503 -0.48117421100E+02  0.37770843621E+02 -0.33934886874E+02  0.69953551649E+02  0.00000000000E+00 0.  1.
         -3    1    6    6    0  502  0.10004085817E+02 -0.41913035345E+02  0.97377915331E+02  0.10648588009E+03  0.00000000000E+00 0.  1.
<mgrwt>
<rscale>  0 0.10234588E+04</rscale>
<asrwt>0</asrwt>
<pdfrwt beam="1">  1        2 0.22713588E+00 0.10234588E+04</pdfrwt>
<pdfrwt beam="2">  1       -2 0.27287785E-01 0.10234588E+04</pdfrwt>
<totfact> 0.15941999E+02</totfact>
</mgrwt>
</event>
<event>
12    1  0.1663913E-007  0.2062315E+04  0.7818608E-02  0.8578028E-01
         -2   -1    0    0    0  501 -0.00000000000E+00  0.00000000000E+00  0.39221412637E+03  0.39221412637E+03  0.00000000000E+00 0.  1.
          2   -1    0    0  501    0  0.00000000000E+00 -0.00000000000E+00 -0.27109821234E+04  0.27109821234E+04  0.00000000000E+00 0. -1.
         23    2    1    2    0    0  0.47923681028E+03 -0.22665015371E+03 -0.19188624200E+04  0.19928065627E+04  0.90591373728E+02 0.  0.
        254    2    1    2    0    0 -0.47923681028E+03  0.22665015371E+03 -0.39990557701E+03  0.11103896870E+04  0.88994526464E+03 0.  0.
        -24    2    4    4    0    0 -0.24909174031E+03  0.45992776180E+02  0.26673797295E+03  0.37736435163E+03  0.84218033205E+02 0.  0.
         24    2    4    4    0    0 -0.23014506997E+03  0.18065737753E+03 -0.66664354997E+03  0.73302533540E+03  0.85490808526E+02 0.  0.
         11    1    3    3    0    0  0.30052240433E+03 -0.18476918479E+03 -0.13305891857E+04  0.13765612766E+04  0.00000000000E+00 0.  1.
        -11    1    3    3    0    0  0.17871440595E+03 -0.41880968914E+02 -0.58827323430E+03  0.61624528610E+03  0.00000000000E+00 0. -1.
          4    1    6    6  502    0 -0.20159757313E+03  0.16165619384E+03 -0.63799645336E+03  0.68834132594E+03  0.00000000000E+00 0. -1.
          3    1    5    5  503    0 -0.24123669829E+03  0.59754715652E+02  0.26128980315E+03  0.36060800306E+03  0.00000000000E+00 0. -1.
         -4    1    5    5    0  503 -0.78550420232E+01 -0.13761939472E+02  0.54481698039E+01  0.16756348571E+02  0.00000000000E+00 0.  1.
         -3    1    6    6    0  502 -0.28547496845E+02  0.19001183692E+02 -0.28647096610E+02  0.44684009466E+02  0.00000000000E+00 0.  1.
<mgrwt>
<rscale>  0 0.20623147E+04</rscale>
<asrwt>0</asrwt>
<pdfrwt beam="1">  1        2 0.41707418E+00 0.20623147E+04</pdfrwt>
<pdfrwt beam="2">  1       -2 0.60340634E-01 0.20623147E+04</pdfrwt>
<totfact> 0.61934397E+00</totfact>
</mgrwt>
</event>
<event>
12    1  0.1663913E-007  0.1139583E+04  0.7818608E-02  0.9167447E-01
         -2   -1    0    0    0  501 -0.00000000000E+00  0.00000000000E+00  0.15548554458E+04  0.15548554458E+04  0.00000000000E+00 0.  1.
          2   -1    0    0  501    0  0.00000000000E+00 -0.00000000000E+00 -0.20880562123E+03  0.20880562123E+03  0.00000000000E+00 0. -1.
         23    2    1    2    0    0 -0.19042867499E+03  0.93813366678E+02  0.36805798430E+03  0.43449891213E+03  0.90876822192E+02 0.  0.
        254    2    1    2    0    0  0.19042867499E+03 -0.93813366678E+02  0.97799184028E+03  0.13291621549E+04  0.87472279401E+03 0.  0.
        -24    2    4    4    0    0 -0.30116069738E+03  0.44031540863E+01  0.66305839441E+03  0.73235457482E+03  0.77328102565E+02 0.  0.
         24    2    4    4    0    0  0.49158937237E+03 -0.98216520764E+02  0.31493344587E+03  0.59680758009E+03  0.75429545619E+02 0.  0.
         13    1    3    3    0    0 -0.30543081906E+02  0.47841643309E+02  0.50369795293E+02  0.75886882692E+02  0.00000000000E+00 0. -1.
        -13    1    3    3    0    0 -0.15988559309E+03  0.45971723369E+02  0.31768818901E+03  0.35861202944E+03  0.00000000000E+00 0.  1.
          4    1    6    6  502    0  0.66258681855E+02  0.10113506506E+02  0.54993642690E+02  0.86699461771E+02  0.00000000000E+00 0. -1.
          3    1    5    5  503    0 -0.48964683316E+02  0.15754428723E+02  0.62844599537E+02  0.81210750074E+02  0.00000000000E+00 0. -1.
         -4    1    5    5    0  503 -0.25219601406E+03 -0.11351274636E+02  0.60021379487E+03  0.65114382474E+03  0.00000000000E+00 0.  1.
         -3    1    6    6    0  502  0.42533069052E+03 -0.10833002727E+03  0.25993980318E+03  0.51010811832E+03  0.00000000000E+00 0.  1.
<mgrwt>
<rscale>  0 0.11395834E+04</rscale>
<asrwt>0</asrwt>
<pdfrwt beam="1">  1        2 0.32123943E-01 0.11395834E+04</pdfrwt>
<pdfrwt beam="2">  1       -2 0.23920852E+00 0.11395834E+04</pdfrwt>
<totfact> 0.12261677E+01</totfact>
</mgrwt>
</event>
<event>
12    1  0.1663913E-007  0.2174829E+04  0.7818608E-02  0.8528979E-01
          1   -1    0    0  501    0  0.00000000000E+00  0.00000000000E+00  0.14215026957E+04  0.14215026957E+04  0.00000000000E+00 0. -1.
         -1   -1    0    0    0  501 -0.00000000000E+00 -0.00000000000E+00 -0.83184501647E+03  0.83184501647E+03  0.00000000000E+00 0.  1.
         23    2    1    2    0    0 -0.71843453124E+03  0.54038930357E+03  0.20224981009E+03  0.92859357191E+03  0.11494459974E+03 0.  0.
        254    2    1    2    0    0  0.71843453124E+03 -0.54038930357E+03  0.38740786915E+03  0.13247541403E+04  0.89259167595E+03 0.  0.
        -24    2    4    4    0    0 -0.25794408357E+02 -0.23860210127E+02 -0.21479418672E+03  0.23386056101E+03  0.85554416694E+02 0.  0.
         24    2    4    4    0    0  0.74422893960E+03 -0.51652909344E+03  0.60220205587E+03  0.10908935793E+04  0.81990647448E+02 0.  0.
         11    1    3    3    0    0 -0.59931639458E+03  0.43636173342E+03  0.20918863413E+03  0.77029318305E+03  0.00000000000E+00 0. -1.
        -11    1    3    3    0    0 -0.11911813666E+03  0.10402757015E+03 -0.69388240357E+01  0.15830038886E+03  0.00000000000E+00 0.  1.
          2    1    6    6  502    0  0.64103050757E+03 -0.47534037238E+03  0.51698776148E+03  0.95086535680E+03  0.00000000000E+00 0. -1.
          1    1    5    5  503    0  0.12257027052E+02 -0.13667715467E+02 -0.18108603700E+03  0.18201426855E+03  0.00000000000E+00 0. -1.
         -2    1    5    5    0  503 -0.38051435409E+02 -0.10192494660E+02 -0.33708149715E+02  0.51846292455E+02  0.00000000000E+00 0.  1.
         -1    1    6    6    0  502  0.10319843203E+03 -0.41188721064E+02  0.85214294391E+02  0.14002822246E+03  0.00000000000E+00 0.  1.
<mgrwt>
<rscale>  0 0.21748287E+04</rscale>
<asrwt>0</asrwt>
<pdfrwt beam="1">  1        1 0.21869272E+00 0.21748287E+04</pdfrwt>
<pdfrwt beam="2">  1       -1 0.12797616E+00 0.21748287E+04</pdfrwt>
<totfact> 0.35774372E+00</totfact>
</mgrwt>
</event>
<event>
12    1  0.1663913E-007  0.1868785E+04  0.7818608E-02  0.8670552E-01
          1   -1    0    0  501    0  0.00000000000E+00  0.00000000000E+00  0.13720593024E+04  0.13720593024E+04  0.00000000000E+00 0. -1.
         -1   -1    0    0    0  501 -0.00000000000E+00 -0.00000000000E+00 -0.63633494261E+03  0.63633494261E+03  0.00000000000E+00 0.  1.
         23    2    1    2    0    0 -0.39842370980E+02  0.36119817785E+03  0.93465321016E+03  0.10069318825E+04  0.91014584034E+02 0.  0.
        254    2    1    2    0    0  0.39842370980E+02 -0.36119817785E+03 -0.19892885034E+03  0.10014623625E+04  0.91175799305E+03 0.  0.
        -24    2    4    4    0    0  0.13557484662E+03 -0.95135179403E+02  0.34053347843E+03  0.38710178961E+03  0.80333705185E+02 0.  0.
         24    2    4    4    0    0 -0.95732475637E+02 -0.26606299844E+03 -0.53946232877E+03  0.61436057294E+03  0.80405742229E+02 0.  0.
         13    1    3    3    0    0 -0.46329756387E+02  0.31570437451E+03  0.87675006531E+03  0.93300931154E+03  0.00000000000E+00 0. -1.
        -13    1    3    3    0    0  0.64873854067E+01  0.45493803335E+02  0.57903144853E+02  0.73922570946E+02  0.00000000000E+00 0.  1.
          2    1    6    6  502    0 -0.93872007588E+02 -0.17288261575E+03 -0.41096213640E+03  0.45562070870E+03  0.00000000000E+00 0. -1.
          1    1    5    5  503    0  0.13562753181E+03 -0.82072855225E+02  0.33863210389E+03  0.37390170196E+03  0.00000000000E+00 0. -1.
         -2    1    5    5    0  503 -0.52685189305E-01 -0.13062324178E+02  0.19013745471E+01  0.13200087645E+02  0.00000000000E+00 0.  1.
         -1    1    6    6    0  502 -0.18604680496E+01 -0.93180382691E+02 -0.12850019237E+03  0.15873986424E+03  0.00000000000E+00 0.  1.
<mgrwt>
<rscale>  0 0.18687849E+04</rscale>
<asrwt>0</asrwt>
<pdfrwt beam="1">  1        1 0.21108605E+00 0.18687849E+04</pdfrwt>
<pdfrwt beam="2">  1       -1 0.97897684E-01 0.18687849E+04</pdfrwt>
<totfact> 0.75450887E+00</totfact>
</mgrwt>
</event>
<event>
12    1  0.1663913E-007  0.1801686E+04  0.7818608E-02  0.8705403E-01
          1   -1    0    0  501    0  0.00000000000E+00  0.00000000000E+00  0.18399086612E+04  0.18399086612E+04  0.00000000000E+00 0.  1.
         -1   -1    0    0    0  501 -0.00000000000E+00 -0.00000000000E+00 -0.44106440741E+03  0.44106440741E+03  0.00000000000E+00 0. -1.
         23    2    1    2    0    0  0.32333668796E+03 -0.43746714362E+03  0.10371529549E+04  0.11747221856E+04  0.91443129895E+02 0.  0.
        254    2    1    2    0    0 -0.32333668796E+03  0.43746714362E+03  0.36169129888E+03  0.11062508830E+04  0.89277449833E+03 0.  0.
        -24    2    4    4    0    0 -0.39083469924E+03  0.67614287441E+03  0.27239805191E+03  0.83107019717E+03  0.80969285545E+02 0.  0.
         24    2    4    4    0    0  0.67498011284E+02 -0.23867573079E+03  0.89293246971E+02  0.27518068580E+03  0.78924266784E+02 0.  0.
         11    1    3    3    0    0  0.98268549052E+02 -0.10843416485E+03  0.20345060831E+03  0.25061290042E+03  0.00000000000E+00 0. -1.
        -11    1    3    3    0    0  0.22506813891E+03 -0.32903297877E+03  0.83370234657E+03  0.92410928517E+03  0.00000000000E+00 0.  1.
          4    1    6    6  502    0  0.72603983080E+02 -0.16727147542E+03  0.90527043547E+02  0.20358347296E+03  0.00000000000E+00 0. -1.
          1    1    5    5  503    0 -0.15953437147E+03  0.27130935806E+03  0.68083114924E+02  0.32201753677E+03  0.00000000000E+00 0. -1.
         -2    1    5    5    0  503 -0.23130032778E+03  0.40483351634E+03  0.20431493698E+03  0.50905266040E+03  0.00000000000E+00 0.  1.
         -3    1    6    6    0  502 -0.51059717961E+01 -0.71404255363E+02 -0.12337965761E+01  0.71597212836E+02  0.00000000000E+00 0.  1.
<mgrwt>
<rscale>  0 0.18016861E+04</rscale>
<asrwt>0</asrwt>
<pdfrwt beam="1">  1        1 0.28306287E+00 0.18016861E+04</pdfrwt>
<pdfrwt beam="2">  1       -1 0.67856064E-01 0.18016861E+04</pdfrwt>
<totfact> 0.79405622E+00</totfact>
</mgrwt>
</event>
<event>
12    1  0.1663913E-007  0.1781083E+04  0.7818608E-02  0.8716424E-01
          1   -1    0    0  501    0  0.00000000000E+00  0.00000000000E+00  0.79500828759E+03  0.79500828759E+03  0.00000000000E+00 0. -1.
         -1   -1    0    0    0  501 -0.00000000000E+00 -0.00000000000E+00 -0.99755480027E+03  0.99755480027E+03  0.00000000000E+00 0.  1.
         23    2    1    2    0    0  0.10158059784E+03 -0.50131429785E+03  0.33223450510E+03  0.61682268591E+03  0.91955513081E+02 0.  0.
        254    2    1    2    0    0 -0.10158059784E+03  0.50131429785E+03 -0.53478101778E+03  0.11757404020E+04  0.91364112907E+03 0.  0.
        -24    2    4    4    0    0  0.13898089929E+03  0.67233223041E+03 -0.19383324370E+03  0.71782347945E+03  0.79705099418E+02 0.  0.
         24    2    4    4    0    0 -0.24056149713E+03 -0.17101793257E+03 -0.34094777408E+03  0.45791692250E+03  0.79533364744E+02 0.  0.
         11    1    3    3    0    0  0.86044455458E+02 -0.41546802610E+03  0.23067431833E+03  0.48293681799E+03  0.00000000000E+00 0. -1.
        -11    1    3    3    0    0  0.15536142384E+02 -0.85846271745E+02  0.10156018677E+03  0.13388586792E+03  0.00000000000E+00 0.  1.
          4    1    6    6  502    0 -0.85159901772E+02 -0.10285671681E+03 -0.17923100073E+03  0.22350719158E+03  0.00000000000E+00 0. -1.
          3    1    5    5  503    0  0.36940037444E+02  0.35524747664E+03 -0.11854279160E+03  0.37632131147E+03  0.00000000000E+00 0. -1.
         -4    1    5    5    0  503  0.10204086184E+03  0.31708475377E+03 -0.75290452098E+02  0.34150216798E+03  0.00000000000E+00 0.  1.
         -3    1    6    6    0  502 -0.15540159536E+03 -0.68161215757E+02 -0.16171677334E+03  0.23440973093E+03  0.00000000000E+00 0.  1.
<mgrwt>
<rscale>  0 0.17810832E+04</rscale>
<asrwt>0</asrwt>
<pdfrwt beam="1">  1        1 0.12230897E+00 0.17810832E+04</pdfrwt>
<pdfrwt beam="2">  1       -1 0.15346997E+00 0.17810832E+04</pdfrwt>
<totfact> 0.69216193E+00</totfact>
</mgrwt>
</event>
<event>
12    1  0.1663913E-007  0.1592826E+04  0.7818608E-02  0.8824967E-01
         -2   -1    0    0    0  501 -0.00000000000E+00  0.00000000000E+00  0.29411481429E+03  0.29411481429E+03  0.00000000000E+00 0.  1.
          2   -1    0    0  501    0  0.00000000000E+00 -0.00000000000E+00 -0.21565509959E+04  0.21565509959E+04  0.00000000000E+00 0. -1.
         23    2    1    2    0    0 -0.28145546796E+03 -0.16745097837E+03 -0.12532878587E+04  0.12986184001E+04  0.91772990540E+02 0.  0.
        254    2    1    2    0    0  0.28145546796E+03  0.16745097837E+03 -0.60914832290E+03  0.11520474101E+04  0.92135473360E+03 0.  0.
        -24    2    4    4    0    0 -0.27251263036E+03  0.54889631853E+01  0.31833514678E+02  0.28574179364E+03  0.79635027150E+02 0.  0.
         24    2    4    4    0    0  0.55396809832E+03  0.16196201519E+03 -0.64098183758E+03  0.86630561642E+03  0.80717758952E+02 0.  0.
         13    1    3    3    0    0 -0.10129797404E+03 -0.11125600896E+03 -0.50854586248E+03  0.53033769743E+03  0.00000000000E+00 0. -1.
        -13    1    3    3    0    0 -0.18015749392E+03 -0.56194969409E+02 -0.74474199623E+03  0.76828070270E+03  0.00000000000E+00 0.  1.
          2    1    6    6  502    0  0.12439848040E+03  0.23536022961E+02 -0.18970085332E+03  0.22806871783E+03  0.00000000000E+00 0. -1.
          3    1    5    5  503    0 -0.25712647991E+03  0.22244252584E+01  0.80926839918E+01  0.25726341806E+03  0.00000000000E+00 0. -1.
         -4    1    5    5    0  503 -0.15386150453E+02  0.32645379269E+01  0.23740830687E+02  0.28478375574E+02  0.00000000000E+00 0.  1.
         -1    1    6    6    0  502  0.42956961792E+03  0.13842599223E+03 -0.45128098426E+03  0.63823689859E+03  0.00000000000E+00 0.  1.
<mgrwt>
<rscale>  0 0.15928259E+04</rscale>
<asrwt>0</asrwt>
<pdfrwt beam="1">  1        2 0.33177710E+00 0.15928259E+04</pdfrwt>
<pdfrwt beam="2">  1       -2 0.45248430E-01 0.15928259E+04</pdfrwt>
<totfact> 0.24291126E+01</totfact>
</mgrwt>
</event>
<event>
12    1  0.1663913E-007  0.2768455E+04  0.7818608E-02  0.8313129E-01
          2   -1    0    0  501    0  0.00000000000E+00  0.00000000000E+00  0.16157863176E+04  0.16157863176E+04  0.00000000000E+00 0. -1.
         -2   -1    0    0    0  501 -0.00000000000E+00 -0.00000000000E+00 -0.11858537755E+04  0.11858537755E+04  0.00000000000E+00 0.  1.
         23    2    1    2    0    0 -0.18001563091E+03  0.90970049319E+03  0.10243504440E+04  0.13848369753E+04  0.92298435899E+02 0.  0.
        254    2    1    2    0    0  0.18001563091E+03 -0.90970049319E+03 -0.59441790190E+03  0.14168031179E+04  0.89108799679E+03 0.  0.
        -24    2    4    4    0    0  0.26964036164E+03 -0.95858742751E+03 -0.72387071790E+03  0.12340445690E+04  0.85331126457E+02 0.  0.
         24    2    4    4    0    0 -0.89624730735E+02  0.48886934316E+02  0.12945281600E+03  0.18275854891E+03  0.78867806635E+02 0.  0.
         13    1    3    3    0    0 -0.12032340782E+03  0.76615774756E+03  0.87552861354E+03  0.11696263377E+04  0.00000000000E+00 0. -1.
        -13    1    3    3    0    0 -0.59692223086E+02  0.14354274563E+03  0.14882183047E+03  0.21521063762E+03  0.00000000000E+00 0.  1.
          4    1    6    6  502    0 -0.97865429353E+02  0.49213936655E+02  0.13420845461E+03  0.17323845737E+03  0.00000000000E+00 0. -1.
          1    1    5    5  503    0  0.22195900214E+03 -0.73926363731E+03 -0.51875959734E+03  0.92999357197E+03  0.00000000000E+00 0. -1.
         -2    1    5    5    0  503  0.47681359500E+02 -0.21932379020E+03 -0.20511112056E+03  0.30405099699E+03  0.00000000000E+00 0.  1.
         -3    1    6    6    0  502  0.82406986189E+01 -0.32700233858E+00 -0.47556386127E+01  0.95200915369E+01  0.00000000000E+00 0.  1.
<mgrwt>
<rscale>  0 0.27684554E+04</rscale>
<asrwt>0</asrwt>
<pdfrwt beam="1">  1        2 0.24858251E+00 0.27684554E+04</pdfrwt>
<pdfrwt beam="2">  1       -2 0.18243904E+00 0.27684554E+04</pdfrwt>
<totfact> 0.16632463E+00</totfact>
</mgrwt>
</event>
<event>
12    1  0.1663913E-007  0.1376008E+04  0.7818608E-02  0.8971371E-01
         -1   -1    0    0    0  501 -0.00000000000E+00  0.00000000000E+00  0.10296268391E+04  0.10296268391E+04  0.00000000000E+00 0.  1.
          1   -1    0    0  501    0  0.00000000000E+00 -0.00000000000E+00 -0.45972893421E+03  0.45972893421E+03  0.00000000000E+00 0. -1.
         23    2    1    2    0    0 -0.65335818647E+01  0.24056625352E+03 -0.16661527123E+03  0.30604174695E+03  0.89364938591E+02 0.  0.
        254    2    1    2    0    0  0.65335818647E+01 -0.24056625352E+03  0.73651317613E+03  0.11833140264E+04  0.89435206510E+03 0.  0.
        -24    2    4    4    0    0  0.41170722703E+03 -0.11189222615E+03  0.15925193794E+03  0.46210271783E+03  0.78454005813E+02 0.  0.
         24    2    4    4    0    0 -0.40517364517E+03 -0.12867402737E+03  0.57726123820E+03  0.72121130853E+03  0.78692606858E+02 0.  0.
         11    1    3    3    0    0  0.59311758742E+01  0.24179992761E+03 -0.14785588377E+03  0.28348500173E+03  0.00000000000E+00 0. -1.
        -11    1    3    3    0    0 -0.12464757739E+02 -0.12336740953E+01 -0.18759387461E+02  0.22556745226E+02  0.00000000000E+00 0.  1.
          4    1    6    6  502    0 -0.35848741405E+03 -0.13478889912E+03  0.53490218937E+03  0.65787660359E+03  0.00000000000E+00 0. -1.
          1    1    5    5  503    0  0.37662476157E+03 -0.85998437544E+02  0.16085682432E+03  0.41846966463E+03  0.00000000000E+00 0. -1.
         -4    1    5    5    0  503  0.35082465461E+02 -0.25893788606E+02 -0.16048863810E+01  0.43633053199E+02  0.00000000000E+00 0.  1.
         -3    1    6    6    0  502 -0.46686231120E+02  0.61148717555E+01  0.42359048826E+02  0.63334704943E+02  0.00000000000E+00 0.  1.
<mgrwt>
<rscale>  0 0.13760076E+04</rscale>
<asrwt>0</asrwt>
<pdfrwt beam="1">  1        1 0.70727529E-01 0.13760076E+04</pdfrwt>
<pdfrwt beam="2">  1       -1 0.15840413E+00 0.13760076E+04</pdfrwt>
<totfact> 0.14601105E+01</totfact>
</mgrwt>
</event>
<event>
12    1  0.1663913E-007  0.2017120E+04  0.7818608E-02  0.8598658E-01
          1   -1    0    0  501    0  0.00000000000E+00  0.00000000000E+00  0.70468048031E+03  0.70468048031E+03  0.00000000000E+00 0. -1.
         -1   -1    0    0    0  501 -0.00000000000E+00 -0.00000000000E+00 -0.14434810507E+04  0.14434810507E+04  0.00000000000E+00 0.  1.
         23    2    1    2    0    0  0.55197456622E+03  0.59005555470E+03 -0.60947625242E+03  0.10163321597E+04  0.92888520174E+02 0.  0.
        254    2    1    2    0    0 -0.55197456622E+03 -0.59005555470E+03 -0.12932431797E+03  0.11318293713E+04  0.78196641050E+03 0.  0.
        -24    2    4    4    0    0  0.54655557364E+02 -0.40233373630E+03  0.14143756896E+03  0.43683080319E+03  0.77180952251E+02 0.  0.
         24    2    4    4    0    0 -0.60663012359E+03 -0.18772181840E+03 -0.27076188693E+03  0.69499856812E+03  0.80445151051E+02 0.  0.
         13    1    3    3    0    0  0.21613152697E+03  0.24115936409E+03 -0.18877129726E+03  0.37484033735E+03  0.00000000000E+00 0. -1.
        -13    1    3    3    0    0  0.33584303926E+03  0.34889619061E+03 -0.42070495516E+03  0.64149182234E+03  0.00000000000E+00 0.  1.
          2    1    6    6  502    0 -0.46001597464E+03 -0.17023301640E+03 -0.18490955305E+03  0.52419988516E+03  0.00000000000E+00 0. -1.
          1    1    5    5  503    0  0.72952616449E+02 -0.32967990511E+03  0.10563288584E+03  0.35379263793E+03  0.00000000000E+00 0. -1.
         -2    1    5    5    0  503 -0.18297059085E+02 -0.72653831184E+02  0.35804683118E+02  0.83038165262E+02  0.00000000000E+00 0.  1.
         -1    1    6    6    0  502 -0.14661414895E+03 -0.17488802002E+02 -0.85852333881E+02  0.17079868296E+03  0.00000000000E+00 0.  1.
<mgrwt>
<rscale>  0 0.20171196E+04</rscale>
<asrwt>0</asrwt>
<pdfrwt beam="1">  1        1 0.10841238E+00 0.20171196E+04</pdfrwt>
<pdfrwt beam="2">  1       -1 0.22207401E+00 0.20171196E+04</pdfrwt>
<totfact> 0.26622474E+00</totfact>
</mgrwt>
</event>
<event>
12    1  0.1663913E-007  0.1292085E+04  0.7818608E-02  0.9035866E-01
         -1   -1    0    0    0  501 -0.00000000000E+00  0.00000000000E+00  0.13671901468E+04  0.13671901468E+04  0.00000000000E+00 0.  1.
          1   -1    0    0  501    0  0.00000000000E+00 -0.00000000000E+00 -0.30527621150E+03  0.30527621150E+03  0.00000000000E+00 0. -1.
         23    2    1    2    0    0  0.20576523547E+03 -0.16742439131E+02  0.64496451430E+03  0.68323302408E+03  0.90600767614E+02 0.  0.
        254    2    1    2    0    0 -0.20576523547E+03  0.16742439131E+02  0.41694942097E+03  0.98923333419E+03  0.87299262793E+03 0.  0.
        -24    2    4    4    0    0  0.22930366254E+03  0.22153009036E+02 -0.13765201787E+03  0.27985349918E+03  0.79366098043E+02 0.  0.
         24    2    4    4    0    0 -0.43506889800E+03 -0.54105699055E+01  0.55460143884E+03  0.70937983501E+03  0.79515873122E+02 0.  0.
         13    1    3    3    0    0  0.16161158612E+03 -0.18304611110E+02  0.36225415248E+03  0.39709121690E+03  0.00000000000E+00 0. -1.
        -13    1    3    3    0    0  0.44153649352E+02  0.15621719787E+01  0.28271036183E+03  0.28614180718E+03  0.00000000000E+00 0.  1.
          2    1    6    6  502    0 -0.28675713298E+03 -0.17629311758E+02  0.41909135489E+03  0.50811220187E+03  0.00000000000E+00 0. -1.
          1    1    5    5  503    0  0.18930300385E+03  0.47657938942E+02 -0.10027630856E+03  0.21945898129E+03  0.00000000000E+00 0. -1.
         -2    1    5    5    0  503  0.40000658689E+02 -0.25504929906E+02 -0.37375709313E+02  0.60394517895E+02  0.00000000000E+00 0.  1.
         -1    1    6    6    0  502 -0.14831176502E+03  0.12218741853E+02  0.13551008395E+03  0.20126763314E+03  0.00000000000E+00 0.  1.
<mgrwt>
<rscale>  0 0.12920846E+04</rscale>
<asrwt>0</asrwt>
<pdfrwt beam="1">  1        1 0.46965572E-01 0.12920846E+04</pdfrwt>
<pdfrwt beam="2">  1       -1 0.21033694E+00 0.12920846E+04</pdfrwt>
<totfact> 0.10776982E+01</totfact>
</mgrwt>
</event>
<event>
12    1  0.1663913E-007  0.3062298E+04  0.7818608E-02  0.8226162E-01
          1   -1    0    0  501    0  0.00000000000E+00  0.00000000000E+00  0.21992306026E+04  0.21992306026E+04  0.00000000000E+00 0. -1.
         -1   -1    0    0    0  501 -0.00000000000E+00 -0.00000000000E+00 -0.10660172073E+04  0.10660172073E+04  0.00000000000E+00 0.  1.
         23    2    1    2    0    0 -0.11522476547E+03 -0.95070605078E+03 -0.56855957140E+03  0.11175632969E+04  0.92568865636E+02 0.  0.
        254    2    1    2    0    0  0.11522476547E+03  0.95070605078E+03  0.17017729667E+04  0.21476845129E+04  0.89409104433E+03 0.  0.
        -24    2    4    4    0    0  0.18493397700E+03  0.11045535378E+04  0.14479550191E+04  0.18324495937E+04  0.84015963154E+02 0.  0.
         24    2    4    4    0    0 -0.69709211524E+02 -0.15384748707E+03  0.25381794751E+03  0.31523491928E+03  0.80131644196E+02 0.  0.
         13    1    3    3    0    0 -0.82714029820E+02 -0.70319683153E+03 -0.37192185830E+03  0.79978326019E+03  0.00000000000E+00 0.  1.
        -13    1    3    3    0    0 -0.32510735651E+02 -0.24750921925E+03 -0.19663771310E+03  0.31778003675E+03  0.00000000000E+00 0. -1.
          2    1    6    6  502    0  0.35463492020E+01 -0.86146895150E+02  0.13384528611E+03  0.15921188633E+03  0.00000000000E+00 0. -1.
          1    1    5    5  503    0  0.47168437201E+02  0.12130743127E+03  0.17440937374E+03  0.21762119382E+03  0.00000000000E+00 0. -1.
         -2    1    5    5    0  503  0.13776553979E+03  0.98324610658E+03  0.12735456454E+04  0.16148283999E+04  0.00000000000E+00 0.  1.
         -1    1    6    6    0  502 -0.73255560726E+02 -0.67700591921E+02  0.11997266141E+03  0.15602303294E+03  0.00000000000E+00 0.  1.
<mgrwt>
<rscale>  0 0.30622983E+04</rscale>
<asrwt>0</asrwt>
<pdfrwt beam="1">  1        1 0.33834317E+00 0.30622983E+04</pdfrwt>
<pdfrwt beam="2">  1       -1 0.16400265E+00 0.30622983E+04</pdfrwt>
<totfact> 0.50333452E-01</totfact>
</mgrwt>
</event>
<event>
12    1  0.1663913E-007  0.2004075E+04  0.7818608E-02  0.8604718E-01
         -1   -1    0    0    0  501 -0.00000000000E+00  0.00000000000E+00  0.54369886712E+03  0.54369886712E+03  0.00000000000E+00 0.  1.
          1   -1    0    0  501    0  0.00000000000E+00 -0.00000000000E+00 -0.18467554492E+04  0.18467554492E+04  0.00000000000E+00 0. -1.
         23    2    1    2    0    0 -0.39095398995E+03 -0.69609853532E+03 -0.46863518376E+03  0.93035592109E+03  0.92439230405E+02 0.  0.
        254    2    1    2    0    0  0.39095398995E+03  0.69609853532E+03 -0.83442139831E+03  0.14600983952E+04  0.89343721696E+03 0.  0.
        -24    2    4    4    0    0 -0.25570781120E+03  0.78495525536E+02 -0.32134671489E+03  0.42599343864E+03  0.81600651699E+02 0.  0.
         24    2    4    4    0    0  0.64666180115E+03  0.61760300978E+03 -0.51307468342E+03  0.10341049566E+04  0.80761796112E+02 0.  0.
         11    1    3    3    0    0 -0.10317840335E+03 -0.18313766643E+03 -0.17207013150E+03  0.27164925536E+03  0.00000000000E+00 0. -1.
        -11    1    3    3    0    0 -0.28777558661E+03 -0.51296086889E+03 -0.29656505226E+03  0.65870666573E+03  0.00000000000E+00 0.  1.
          2    1    6    6  502    0  0.47714158023E+02  0.21704878437E+02 -0.21811376482E+02  0.56775688176E+02  0.00000000000E+00 0. -1.
          1    1    5    5  503    0 -0.19496811227E+02  0.29747041191E+02 -0.23027580712E+02  0.42370763282E+02  0.00000000000E+00 0. -1.
         -2    1    5    5    0  503 -0.23621099997E+03  0.48748484346E+02 -0.29831913418E+03  0.38362267536E+03  0.00000000000E+00 0.  1.
         -1    1    6    6    0  502  0.59894764313E+03  0.59589813134E+03 -0.49126330693E+03  0.97732926841E+03  0.00000000000E+00 0.  1.
<mgrwt>
<rscale>  0 0.20040747E+04</rscale>
<asrwt>0</asrwt>
<pdfrwt beam="1">  1        1 0.28411622E+00 0.20040747E+04</pdfrwt>
<pdfrwt beam="2">  1       -1 0.83645981E-01 0.20040747E+04</pdfrwt>
<totfact> 0.49770386E+00</totfact>
</mgrwt>
</event>
<event>
12    1  0.1663913E-007  0.1824625E+04  0.7818608E-02  0.8693313E-01
         -2   -1    0    0    0  501 -0.00000000000E+00  0.00000000000E+00  0.23352349112E+03  0.23352349112E+03  0.00000000000E+00 0.  1.
          2   -1    0    0  501    0  0.00000000000E+00 -0.00000000000E+00 -0.35641556516E+04  0.35641556516E+04  0.00000000000E+00 0. -1.
         23    2    1    2    0    0  0.49589864419E+03 -0.25012229190E+03 -0.20840322270E+04  0.21587087364E+04  0.91413670814E+02 0.  0.
        254    2    1    2    0    0 -0.49589864419E+03  0.25012229190E+03 -0.12465999335E+04  0.16389704063E+04  0.90759901521E+03 0.  0.
        -24    2    4    4    0    0 -0.12003281798E+03  0.25403679685E+03  0.41136919537E+02  0.29512422469E+03  0.80395835097E+02 0.  0.
         24    2    4    4    0    0 -0.37586582621E+03 -0.39145049521E+01 -0.12877368530E+04  0.13438461816E+04  0.79786681960E+02 0.  0.
         11    1    3    3    0    0  0.35230093300E+03 -0.15720576366E+03 -0.12893042669E+04  0.13457841923E+04  0.00000000000E+00 0. -1.
        -11    1    3    3    0    0  0.14359771119E+03 -0.92916528244E+02 -0.79472796009E+03  0.81292454412E+03  0.00000000000E+00 0.  1.
          2    1    6    6  502    0 -0.37541750709E+03 -0.14918923154E+01 -0.12877754075E+04  0.13413821344E+04  0.00000000000E+00 0. -1.
          3    1    5    5  503    0 -0.12212376399E+03  0.21368043911E+03  0.14134659024E+02  0.24652247844E+03  0.00000000000E+00 0. -1.
         -4    1    5    5    0  503  0.20909460149E+01  0.40356357740E+02  0.27002260513E+02  0.48601746245E+02  0.00000000000E+00 0.  1.
         -1    1    6    6    0  502 -0.44831911639E+00 -0.24226126367E+01  0.38554529894E-01  0.24640471727E+01  0.00000000000E+00 0.  1.
<mgrwt>
<rscale>  0 0.18246250E+04</rscale>
<asrwt>0</asrwt>
<pdfrwt beam="1">  1        2 0.54833163E+00 0.18246250E+04</pdfrwt>
<pdfrwt beam="2">  1       -2 0.35926692E-01 0.18246250E+04</pdfrwt>
<totfact> 0.50710586E+00</totfact>
</mgrwt>
</event>
<event>
12    1  0.1663913E-007  0.1233015E+04  0.7818608E-02  0.9084439E-01
          1   -1    0    0  501    0  0.00000000000E+00  0.00000000000E+00  0.13296764719E+04  0.13296764719E+04  0.00000000000E+00 0. -1.
         -1   -1    0    0    0  501 -0.00000000000E+00 -0.00000000000E+00 -0.28584517523E+03  0.28584517523E+03  0.00000000000E+00 0.  1.
         23    2    1    2    0    0  0.19656710978E+03 -0.14652632148E+03  0.40646338158E+03  0.48355967498E+03  0.92243629412E+02 0.  0.
        254    2    1    2    0    0 -0.19656710978E+03  0.14652632148E+03  0.63736791509E+03  0.11319619721E+04  0.90276877199E+03 0.  0.
        -24    2    4    4    0    0  0.24522838906E+03 -0.16333386904E+03  0.47149281953E+03  0.56170201231E+03  0.79929695280E+02 0.  0.
         24    2    4    4    0    0 -0.44179549884E+03  0.30986019052E+03  0.16587509556E+03  0.57025995984E+03  0.80531198954E+02 0.  0.
         13    1    3    3    0    0  0.13078884818E+03 -0.67484821152E+02  0.16492858553E+03  0.22104606357E+03  0.00000000000E+00 0.  1.
        -13    1    3    3    0    0  0.65778261602E+02 -0.79041500331E+02  0.24153479605E+03  0.26251361141E+03  0.00000000000E+00 0. -1.
          4    1    6    6  502    0 -0.28316574822E+03  0.15873797188E+03  0.75681013401E+02  0.33332896734E+03  0.00000000000E+00 0. -1.
          3    1    5    5  503    0  0.18779100693E+03 -0.15338093381E+03  0.33741104572E+03  0.41549655464E+03  0.00000000000E+00 0. -1.
         -4    1    5    5    0  503  0.57437382127E+02 -0.99529352300E+01  0.13408177381E+03  0.14620545767E+03  0.00000000000E+00 0.  1.
         -3    1    6    6    0  502 -0.15862975063E+03  0.15112221864E+03  0.90194082161E+02  0.23693099250E+03  0.00000000000E+00 0.  1.
<mgrwt>
<rscale>  0 0.12330152E+04</rscale>
<asrwt>0</asrwt>
<pdfrwt beam="1">  1        1 0.20456561E+00 0.12330152E+04</pdfrwt>
<pdfrwt beam="2">  1       -1 0.43976181E-01 0.12330152E+04</pdfrwt>
<totfact> 0.43473171E+01</totfact>
</mgrwt>
</event>
<event>
12    1  0.2613176E-007  0.1849153E+04  0.7818608E-02  0.8680588E-01
          1   -1    0    0  501    0  0.00000000000E+00  0.00000000000E+00  0.16014440795E+04  0.16014440795E+04  0.00000000000E+00 0. -1.
         -1   -1    0    0    0  501 -0.00000000000E+00 -0.00000000000E+00 -0.53379457427E+03  0.53379457427E+03  0.00000000000E+00 0.  1.
         23    2    1    2    0    0  0.23416868550E+03  0.31321651978E+02  0.11767787449E+04  0.12037789774E+04  0.91976045019E+02 0.  0.
        254    2    1    2    0    0 -0.23416868550E+03 -0.31321651978E+02 -0.10912923963E+03  0.93145967640E+03  0.89436676965E+03 0.  0.
        -24    2    4    4    0    0 -0.49954359882E+03  0.21184181104E+03 -0.12487481503E+03  0.56233195826E+03  0.78757550896E+02 0.  0.
         24    2    4    4    0    0  0.26537491332E+03 -0.24316346302E+03  0.15745575401E+02  0.36912771814E+03  0.80343231095E+02 0.  0.
         11    1    3    3    0    0  0.36660753388E+02  0.32374861517E+02  0.13853036686E+03  0.14691087447E+03  0.00000000000E+00 0.  1.
        -11    1    3    3    0    0  0.19750793211E+03 -0.10532095390E+01  0.10382483780E+04  0.10568681029E+04  0.00000000000E+00 0. -1.
          2    1    6    6  502    0  0.24091826331E+03 -0.22644295857E+03  0.36955962649E+02  0.33269169851E+03  0.00000000000E+00 0. -1.
          1    1    5    5  503    0 -0.48860229718E+03  0.19097741623E+03 -0.11696698923E+03  0.53748102747E+03  0.00000000000E+00 0. -1.
         -2    1    5    5    0  503 -0.10941301645E+02  0.20864394809E+02 -0.79078257975E+01  0.24850930793E+02  0.00000000000E+00 0.  1.
         -1    1    6    6    0  502  0.24456650016E+02 -0.16720504443E+02 -0.21210387248E+02  0.36436019624E+02  0.00000000000E+00 0.  1.
<mgrwt>
<rscale>  0 0.18491535E+04</rscale>
<asrwt>0</asrwt>
<pdfrwt beam="1">  1        1 0.24637601E+00 0.18491535E+04</pdfrwt>
<pdfrwt beam="2">  1       -1 0.82122243E-01 0.18491535E+04</pdfrwt>
<totfact> 0.77150555E+00</totfact>
</mgrwt>
</event>
<event>
12    1  0.1663913E-007  0.1274802E+04  0.7818608E-02  0.9049789E-01
         -1   -1    0    0    0  501 -0.00000000000E+00  0.00000000000E+00  0.71658136420E+03  0.71658136420E+03  0.00000000000E+00 0.  1.
          1   -1    0    0  501    0  0.00000000000E+00 -0.00000000000E+00 -0.56697005963E+03  0.56697005963E+03  0.00000000000E+00 0. -1.
         23    2    1    2    0    0  0.16866191156E+03 -0.21009652765E+03  0.12486246722E+03  0.31059032170E+03  0.91040215680E+02 0.  0.
        254    2    1    2    0    0 -0.16866191156E+03  0.21009652765E+03  0.24748837351E+02  0.97296110214E+03  0.93458729394E+03 0.  0.
        -24    2    4    4    0    0 -0.33964398964E+02  0.52170832637E+03  0.22012247783E+03  0.57280512872E+03  0.79489949311E+02 0.  0.
         24    2    4    4    0    0 -0.13469751260E+03 -0.31161179872E+03 -0.19537364048E+03  0.40015597342E+03  0.81906108842E+02 0.  0.
         11    1    3    3    0    0  0.15218851535E+02 -0.25726573763E+02 -0.14450197299E+02  0.33200575923E+02  0.00000000000E+00 0.  1.
        -11    1    3    3    0    0  0.15344306003E+03 -0.18436995388E+03  0.13931266452E+03  0.27738974577E+03  0.00000000000E+00 0. -1.
          2    1    6    6  502    0 -0.81143004657E+02 -0.24996825276E+03 -0.17579482179E+03  0.31618370287E+03  0.00000000000E+00 0. -1.
          1    1    5    5  503    0 -0.24928688028E+02  0.15499787654E+03  0.10290373051E+03  0.18770977325E+03  0.00000000000E+00 0. -1.
         -2    1    5    5    0  503 -0.90357109363E+01  0.36671044983E+03  0.11721874732E+03  0.38509535547E+03  0.00000000000E+00 0.  1.
         -1    1    6    6    0  502 -0.53554507941E+02 -0.61643545963E+02 -0.19578818685E+02  0.83972270547E+02  0.00000000000E+00 0.  1.
<mgrwt>
<rscale>  0 0.12748022E+04</rscale>
<asrwt>0</asrwt>
<pdfrwt beam="1">  1        1 0.87226163E-01 0.12748022E+04</pdfrwt>
<pdfrwt beam="2">  1       -1 0.11024329E+00 0.12748022E+04</pdfrwt>
<totfact> 0.27777933E+01</totfact>
</mgrwt>
</event>
<event>
12    1  0.1663913E-007  0.2581200E+04  0.7818608E-02  0.8374615E-01
         -1   -1    0    0    0  501 -0.00000000000E+00  0.00000000000E+00  0.92979218183E+03  0.92979218183E+03  0.00000000000E+00 0.  1.
          1   -1    0    0  501    0  0.00000000000E+00 -0.00000000000E+00 -0.17914193639E+04  0.17914193639E+04  0.00000000000E+00 0. -1.
         23    2    1    2    0    0 -0.98762038868E+03 -0.55068340142E+03 -0.45710217854E+03  0.12229508564E+04  0.89555316518E+02 0.  0.
        254    2    1    2    0    0  0.98762038868E+03  0.55068340142E+03 -0.40452500352E+03  0.14982606894E+04  0.89582273585E+03 0.  0.
        -24    2    4    4    0    0  0.10241203605E+02 -0.12775444887E+03  0.12258051391E+03  0.19450870784E+03  0.79884751863E+02 0.  0.
         24    2    4    4    0    0  0.97737918507E+03  0.67843785029E+03 -0.52710551742E+03  0.13037519815E+04  0.79881253688E+02 0.  0.
         11    1    3    3    0    0 -0.46963304994E+03 -0.26191017443E+03 -0.16922131201E+03  0.56372687846E+03  0.00000000000E+00 0.  1.
        -11    1    3    3    0    0 -0.51798733874E+03 -0.28877322699E+03 -0.28788086653E+03  0.65922397790E+03  0.00000000000E+00 0. -1.
          4    1    6    6  502    0  0.87472163153E+03  0.59279383617E+03 -0.44276782486E+03  0.11456813744E+04  0.00000000000E+00 0. -1.
          3    1    5    5  503    0 -0.31754691520E+02 -0.75853048534E+02  0.51688073323E+02  0.97127248130E+02  0.00000000000E+00 0. -1.
         -4    1    5    5    0  503  0.41995895124E+02 -0.51901400333E+02  0.70892440584E+02  0.97381459713E+02  0.00000000000E+00 0.  1.
         -3    1    6    6    0  502  0.10265755355E+03  0.85644014119E+02 -0.84337692567E+02  0.15807060714E+03  0.00000000000E+00 0.  1.
<mgrwt>
<rscale>  0 0.25811995E+04</rscale>
<asrwt>0</asrwt>
<pdfrwt beam="1">  1        1 0.27560298E+00 0.25811995E+04</pdfrwt>
<pdfrwt beam="2">  1       -1 0.14304495E+00 0.25811995E+04</pdfrwt>
<totfact> 0.14427255E+00</totfact>
</mgrwt>
</event>
<event>
12    1  0.1663913E-007  0.1690602E+04  0.7818608E-02  0.8766743E-01
          2   -1    0    0  501    0  0.00000000000E+00  0.00000000000E+00  0.19195396349E+04  0.19195396349E+04  0.00000000000E+00 0. -1.
         -2   -1    0    0    0  501 -0.00000000000E+00 -0.00000000000E+00 -0.37224209124E+03  0.37224209124E+03  0.00000000000E+00 0.  1.
         23    2    1    2    0    0  0.30087968646E+03 -0.44057981943E+03  0.94641496089E+03  0.10902769416E+04  0.91451452468E+02 0.  0.
        254    2    1    2    0    0 -0.30087968646E+03  0.44057981943E+03  0.60088258272E+03  0.12015047845E+04  0.89326071555E+03 0.  0.
        -24    2    4    4    0    0  0.15475432957E+03 -0.17317499821E+03  0.41109016449E+02  0.25063569099E+03  0.84792781746E+02 0.  0.
         24    2    4    4    0    0 -0.45563401603E+03  0.61375481764E+03  0.55977356627E+03  0.95086909352E+03  0.80673755079E+02 0.  0.
         13    1    3    3    0    0  0.94242272476E+02 -0.85749483842E+02  0.17615096800E+03  0.21740226178E+03  0.00000000000E+00 0. -1.
        -13    1    3    3    0    0  0.20663741398E+03 -0.35483033559E+03  0.77026399289E+03  0.87287467981E+03  0.00000000000E+00 0.  1.
          4    1    6    6  502    0 -0.94650618166E+02  0.18407590537E+03  0.13631014024E+03  0.24783690764E+03  0.00000000000E+00 0. -1.
          1    1    5    5  503    0  0.18433963398E-01 -0.47401557435E+02  0.13802410558E+02  0.49370178491E+02  0.00000000000E+00 0. -1.
         -2    1    5    5    0  503  0.15473589561E+03 -0.12577344077E+03  0.27306605891E+02  0.20126551250E+03  0.00000000000E+00 0.  1.
         -3    1    6    6    0  502 -0.36098339787E+03  0.42967891227E+03  0.42346342603E+03  0.70303218587E+03  0.00000000000E+00 0.  1.
<mgrwt>
<rscale>  0 0.16906016E+04</rscale>
<asrwt>0</asrwt>
<pdfrwt beam="1">  1        2 0.29531379E+00 0.16906016E+04</pdfrwt>
<pdfrwt beam="2">  1       -2 0.57268015E-01 0.16906016E+04</pdfrwt>
<totfact> 0.20150282E+01</totfact>
</mgrwt>
</event>
<event>
12    1  0.1663913E-007  0.1240955E+04  0.7818608E-02  0.9077745E-01
         -1   -1    0    0    0  501 -0.00000000000E+00  0.00000000000E+00  0.48451560496E+03  0.48451560496E+03  0.00000000000E+00 0.  1.
          1   -1    0    0  501    0  0.00000000000E+00 -0.00000000000E+00 -0.79459256454E+03  0.79459256454E+03  0.00000000000E+00 0. -1.
         23    2    1    2    0    0  0.41064484653E+02  0.16500125177E+03  0.15969390435E+03  0.25067693218E+03  0.91788214149E+02 0.  0.
        254    2    1    2    0    0 -0.41064484653E+02 -0.16500125177E+03 -0.46977086393E+03  0.10284312373E+04  0.89892960809E+03 0.  0.
        -24    2    4    4    0    0 -0.43090140571E+03 -0.39282456616E+02 -0.61233215049E+02  0.44425494858E+03  0.79961364822E+02 0.  0.
         24    2    4    4    0    0  0.38983692106E+03 -0.12571879515E+03 -0.40853764888E+03  0.58417628874E+03  0.81122655858E+02 0.  0.
         11    1    3    3    0    0  0.40528676860E+02  0.17366276484E+03  0.16279515376E+03  0.24146136673E+03  0.00000000000E+00 0.  1.
        -11    1    3    3    0    0  0.53580779362E+00 -0.86615130671E+01 -0.31012494093E+01  0.92155654466E+01  0.00000000000E+00 0. -1.
          2    1    6    6  502    0  0.28963739471E+03 -0.11085220924E+03 -0.26170508326E+03  0.40579253728E+03  0.00000000000E+00 0. -1.
          1    1    5    5  503    0 -0.19872654973E+03 -0.45988764382E+02  0.26940290540E+00  0.20397862779E+03  0.00000000000E+00 0. -1.
         -2    1    5    5    0  503 -0.23217485598E+03  0.67063077659E+01 -0.61502617955E+02  0.24027632079E+03  0.00000000000E+00 0.  1.
         -1    1    6    6    0  502  0.10019952635E+03 -0.14866585913E+02 -0.14683256562E+03  0.17838375146E+03  0.00000000000E+00 0.  1.
<mgrwt>
<rscale>  0 0.12409553E+04</rscale>
<asrwt>0</asrwt>
<pdfrwt beam="1">  1        1 0.12224501E+00 0.12409553E+04</pdfrwt>
<pdfrwt beam="2">  1       -1 0.74540863E-01 0.12409553E+04</pdfrwt>
<totfact> 0.39960508E+01</totfact>
</mgrwt>
</event>
<event>
12    1  0.1663913E-007  0.1356118E+04  0.7818608E-02  0.8986210E-01
          1   -1    0    0  501    0  0.00000000000E+00  0.00000000000E+00  0.59374266702E+03  0.59374266702E+03  0.00000000000E+00 0. -1.
         -1   -1    0    0    0  501 -0.00000000000E+00 -0.00000000000E+00 -0.77434925287E+03  0.77434925287E+03  0.00000000000E+00 0.  1.
         23    2    1    2    0    0  0.38292167503E+02 -0.33196788521E+03  0.12297657227E+03  0.36761505063E+03  0.91370789743E+02 0.  0.
        254    2    1    2    0    0 -0.38292167503E+02  0.33196788521E+03 -0.30358315812E+03  0.10004768693E+04  0.89281703900E+03 0.  0.
        -24    2    4    4    0    0 -0.27500146191E+03  0.55173641483E+03 -0.19459795018E+03  0.65167431096E+03  0.82293194428E+02 0.  0.
         24    2    4    4    0    0  0.23670929441E+03 -0.21976852962E+03 -0.10898520794E+03  0.34880255830E+03  0.73864419429E+02 0.  0.
         11    1    3    3    0    0  0.31549429139E+02 -0.59855443544E+02  0.54648295754E+02  0.86974000883E+02  0.00000000000E+00 0. -1.
        -11    1    3    3    0    0  0.67427383635E+01 -0.27211244167E+03  0.68328276513E+02  0.28064104975E+03  0.00000000000E+00 0.  1.
          4    1    6    6  502    0  0.23264280492E+03 -0.20594931020E+03 -0.11737010650E+03  0.33213481442E+03  0.00000000000E+00 0. -1.
          1    1    5    5  503    0 -0.18907949204E+03  0.33993074355E+03 -0.15956910999E+03  0.42043580435E+03  0.00000000000E+00 0. -1.
         -2    1    5    5    0  503 -0.85921969875E+02  0.21180567128E+03 -0.35028840198E+02  0.23123850661E+03  0.00000000000E+00 0.  1.
         -3    1    6    6    0  502  0.40664894856E+01 -0.13819219420E+02  0.83848985574E+01  0.16667743876E+02  0.00000000000E+00 0.  1.
<mgrwt>
<rscale>  0 0.13561183E+04</rscale>
<asrwt>0</asrwt>
<pdfrwt beam="1">  1        1 0.91345027E-01 0.13561183E+04</pdfrwt>
<pdfrwt beam="2">  1       -1 0.11913065E+00 0.13561183E+04</pdfrwt>
<totfact> 0.21447658E+01</totfact>
</mgrwt>
</event>
<event>
12    1  0.1663913E-007  0.1852159E+04  0.7818608E-02  0.8679043E-01
         -2   -1    0    0    0  501 -0.00000000000E+00  0.00000000000E+00  0.29278501610E+03  0.29278501610E+03  0.00000000000E+00 0.  1.
          2   -1    0    0  501    0  0.00000000000E+00 -0.00000000000E+00 -0.29291913180E+04  0.29291913180E+04  0.00000000000E+00 0. -1.
         23    2    1    2    0    0  0.39677247734E+03 -0.13829441237E+03 -0.19953456279E+04  0.20410912459E+04  0.89975308238E+02 0.  0.
        254    2    1    2    0    0 -0.39677247734E+03  0.13829441237E+03 -0.64106067408E+03  0.11808850883E+04  0.89831901937E+03 0.  0.
        -24    2    4    4    0    0  0.27858467936E+03  0.95088083117E+02 -0.14269961991E+03  0.33665334662E+03  0.79505516444E+02 0.  0.
         24    2    4    4    0    0 -0.67535715670E+03  0.43206329250E+02 -0.49836105417E+03  0.84423174164E+03  0.79933830699E+02 0.  0.
         11    1    3    3    0    0  0.18497705292E+03 -0.32222011588E+02 -0.10403298125E+04  0.10571380642E+04  0.00000000000E+00 0. -1.
        -11    1    3    3    0    0  0.21179542443E+03 -0.10607240078E+03 -0.95501581538E+03  0.98395318163E+03  0.00000000000E+00 0.  1.
          4    1    6    6  502    0 -0.66127877954E+03  0.53691331153E+02 -0.48041615075E+03  0.81912884287E+03  0.00000000000E+00 0. -1.
          1    1    5    5  503    0  0.22493486269E+03  0.50255360530E+02 -0.13290455305E+03  0.26605434395E+03  0.00000000000E+00 0. -1.
         -2    1    5    5    0  503  0.53649816671E+02  0.44832722587E+02 -0.97950668650E+01  0.70599002672E+02  0.00000000000E+00 0.  1.
         -3    1    6    6    0  502 -0.14078377163E+02 -0.10485001903E+02 -0.17944903418E+02  0.25102898779E+02  0.00000000000E+00 0.  1.
<mgrwt>
<rscale>  0 0.18521591E+04</rscale>
<asrwt>0</asrwt>
<pdfrwt beam="1">  1        2 0.45064481E+00 0.18521591E+04</pdfrwt>
<pdfrwt beam="2">  1       -2 0.45043850E-01 0.18521591E+04</pdfrwt>
<totfact> 0.84946256E+00</totfact>
</mgrwt>
</event>
<event>
12    1  0.1663913E-007  0.3084280E+04  0.7818608E-02  0.8220065E-01
         -1   -1    0    0    0  501 -0.00000000000E+00  0.00000000000E+00  0.18981653683E+04  0.18981653683E+04  0.00000000000E+00 0. -1.
          1   -1    0    0  501    0  0.00000000000E+00 -0.00000000000E+00 -0.12528916090E+04  0.12528916090E+04  0.00000000000E+00 0.  1.
         23    2    1    2    0    0 -0.12294277828E+04  0.11782741539E+03 -0.39462387701E+03  0.12998254645E+04  0.91881776620E+02 0.  0.
        254    2    1    2    0    0  0.12294277828E+04 -0.11782741539E+03  0.10398976362E+04  0.18512315128E+04  0.90570141183E+03 0.  0.
        -24    2    4    4    0    0  0.12879348099E+03  0.26942817134E+03  0.38592682131E+02  0.31166140643E+03  0.80399856261E+02 0.  0.
         24    2    4    4    0    0  0.11006343018E+04 -0.38725558673E+03  0.10013049541E+04  0.15395701064E+04  0.79383535407E+02 0.  0.
         11    1    3    3    0    0 -0.87883956218E+03  0.48167576921E+02 -0.25840224913E+03  0.91730628139E+03  0.00000000000E+00 0.  1.
        -11    1    3    3    0    0 -0.35058822060E+03  0.69659838470E+02 -0.13622162788E+03  0.38251918308E+03  0.00000000000E+00 0. -1.
          4    1    6    6  502    0  0.50727230848E+03 -0.21825272465E+03  0.45613265679E+03  0.71625166482E+03  0.00000000000E+00 0. -1.
          3    1    5    5  503    0  0.95820439338E+02  0.25122175229E+03  0.47296041966E+02  0.27300337179E+03  0.00000000000E+00 0. -1.
         -4    1    5    5    0  503  0.32973041651E+02  0.18206419049E+02 -0.87033598354E+01  0.38658034646E+02  0.00000000000E+00 0.  1.
         -3    1    6    6    0  502  0.59336199331E+03 -0.16900286208E+03  0.54517229730E+03  0.82331844158E+03  0.00000000000E+00 0.  1.
<mgrwt>
<rscale>  0 0.30842798E+04</rscale>
<asrwt>0</asrwt>
<pdfrwt beam="1">  1        1 0.19275256E+00 0.30842798E+04</pdfrwt>
<pdfrwt beam="2">  1       -1 0.29202544E+00 0.30842798E+04</pdfrwt>
<totfact> 0.30735486E-01</totfact>
</mgrwt>
</event>
<event>
12    1  0.1663913E-007  0.3225873E+04  0.7818608E-02  0.8182017E-01
          2   -1    0    0  501    0  0.00000000000E+00  0.00000000000E+00  0.34500499621E+04  0.34500499621E+04  0.00000000000E+00 0. -1.
         -2   -1    0    0    0  501 -0.00000000000E+00 -0.00000000000E+00 -0.75406585295E+03  0.75406585295E+03  0.00000000000E+00 0.  1.
         23    2    1    2    0    0  0.92139780525E+03  0.58024754003E+02 -0.27236743452E+03  0.96687477707E+03  0.91225147552E+02 0.  0.
        254    2    1    2    0    0 -0.92139780525E+03 -0.58024754003E+02  0.29683515437E+04  0.32372410380E+04  0.90348097028E+03 0.  0.
        -24    2    4    4    0    0 -0.41669409948E+02  0.46947585791E+02 -0.33292255017E+02  0.10654499666E+03  0.79391728359E+02 0.  0.
         24    2    4    4    0    0 -0.87972839530E+03 -0.10497233979E+03  0.30016437987E+04  0.31306960413E+04  0.80317914523E+02 0.  0.
         11    1    3    3    0    0  0.15789811366E+03  0.20105796813E+02 -0.82156393143E+02  0.17912490139E+03  0.00000000000E+00 0.  1.
        -11    1    3    3    0    0  0.76349969159E+03  0.37918957190E+02 -0.19021104137E+03  0.78774987568E+03  0.00000000000E+00 0. -1.
          2    1    6    6  502    0 -0.66626415188E+03 -0.76271860585E+02  0.23866135083E+04  0.24790420236E+04  0.00000000000E+00 0. -1.
          1    1    5    5  503    0  0.37759290036E+01 -0.98957088232E+01  0.15610278622E+02  0.18864344452E+02  0.00000000000E+00 0. -1.
         -2    1    5    5    0  503 -0.45445338952E+02  0.56843294614E+02 -0.48902533639E+02  0.87680652207E+02  0.00000000000E+00 0.  1.
         -1    1    6    6    0  502 -0.21346424342E+03 -0.28700479210E+02  0.61503029037E+03  0.65165401772E+03  0.00000000000E+00 0.  1.
<mgrwt>
<rscale>  0 0.32258734E+04</rscale>
<asrwt>0</asrwt>
<pdfrwt beam="1">  1        2 0.53077691E+00 0.32258734E+04</pdfrwt>
<pdfrwt beam="2">  1       -2 0.11601013E+00 0.32258734E+04</pdfrwt>
<totfact> 0.42660721E-01</totfact>
</mgrwt>
</event>
<event>
12    1  0.1663913E-007  0.2006080E+04  0.7818608E-02  0.8603783E-01
          2   -1    0    0  501    0  0.00000000000E+00  0.00000000000E+00  0.18410235294E+04  0.18410235294E+04  0.00000000000E+00 0.  1.
         -2   -1    0    0    0  501 -0.00000000000E+00 -0.00000000000E+00 -0.54648366066E+03  0.54648366066E+03  0.00000000000E+00 0. -1.
         23    2    1    2    0    0 -0.55747891538E+03  0.10250732469E+03  0.11838281638E+04  0.13156155365E+04  0.90025695562E+02 0.  0.
        254    2    1    2    0    0  0.55747891538E+03 -0.10250732469E+03  0.11071170498E+03  0.10718916536E+04  0.90299731044E+03 0.  0.
        -24    2    4    4    0    0  0.70790160557E+03 -0.31297583629E+03 -0.35991557513E+01  0.77826264294E+03  0.81247955100E+02 0.  0.
         24    2    4    4    0    0 -0.15042269019E+03  0.21046851160E+03  0.11431086073E+03  0.29362901063E+03  0.78911614508E+02 0.  0.
         13    1    3    3    0    0 -0.26928485790E+03  0.58392168353E+02  0.47441891527E+03  0.54863219663E+03  0.00000000000E+00 0. -1.
        -13    1    3    3    0    0 -0.28819405748E+03  0.44115156333E+02  0.70940924853E+03  0.76698333990E+03  0.00000000000E+00 0.  1.
          2    1    6    6  502    0 -0.13715862039E+03  0.20481059179E+03  0.12432404443E+03  0.27607305859E+03  0.00000000000E+00 0. -1.
          1    1    5    5  503    0  0.32158814712E+03 -0.14856277144E+03 -0.41705329988E+02  0.35669197913E+03  0.00000000000E+00 0. -1.
         -2    1    5    5    0  503  0.38631345844E+03 -0.16441306485E+03  0.38106174236E+02  0.42157066381E+03  0.00000000000E+00 0.  1.
         -1    1    6    6    0  502 -0.13264069801E+02  0.56579198161E+01 -0.10013183701E+02  0.17555952044E+02  0.00000000000E+00 0.  1.
<mgrwt>
<rscale>  0 0.20060800E+04</rscale>
<asrwt>0</asrwt>
<pdfrwt beam="1">  1        2 0.28323439E+00 0.20060800E+04</pdfrwt>
<pdfrwt beam="2">  1       -2 0.84074410E-01 0.20060800E+04</pdfrwt>
<totfact> 0.93920076E+00</totfact>
</mgrwt>
</event>
<event>
12    1  0.1663913E-007  0.1519746E+04  0.7818608E-02  0.8871427E-01
         -2   -1    0    0    0  501 -0.00000000000E+00  0.00000000000E+00  0.40477854992E+03  0.40477854992E+03  0.00000000000E+00 0.  1.
          2   -1    0    0  501    0  0.00000000000E+00 -0.00000000000E+00 -0.14264769726E+04  0.14264769726E+04  0.00000000000E+00 0. -1.
         23    2    1    2    0    0 -0.33178056226E+03 -0.34799396334E+03 -0.51094521342E+03  0.70731273599E+03  0.89711511884E+02 0.  0.
        254    2    1    2    0    0  0.33178056226E+03  0.34799396334E+03 -0.51075320928E+03  0.11239427865E+04  0.87818016752E+03 0.  0.
        -24    2    4    4    0    0  0.28762088378E+03 -0.20297025867E+03  0.78543464904E+01  0.36156955585E+03  0.82147150100E+02 0.  0.
         24    2    4    4    0    0  0.44159678484E+02  0.55096422200E+03 -0.51860755577E+03  0.76237323070E+03  0.82143136308E+02 0.  0.
         13    1    3    3    0    0 -0.22664234294E+02 -0.92258995892E+01 -0.57022237736E+02  0.62050949516E+02  0.00000000000E+00 0. -1.
        -13    1    3    3    0    0 -0.30911632797E+03 -0.33876806375E+03 -0.45392297569E+03  0.64526178648E+03  0.00000000000E+00 0.  1.
          2    1    6    6  502    0  0.34487376140E+02  0.49603685143E+03 -0.49560214585E+03  0.70204232355E+03  0.00000000000E+00 0. -1.
          3    1    5    5  503    0  0.20762925252E+03 -0.11417155056E+03  0.33579841635E+02  0.23931706003E+03  0.00000000000E+00 0. -1.
         -4    1    5    5    0  503  0.79991631261E+02 -0.88798708105E+02 -0.25725495145E+02  0.12225249582E+03  0.00000000000E+00 0.  1.
         -1    1    6    6    0  502  0.96723023435E+01  0.54927370578E+02 -0.23005409928E+02  0.60330907147E+02  0.00000000000E+00 0.  1.
<mgrwt>
<rscale>  0 0.15197464E+04</rscale>
<asrwt>0</asrwt>
<pdfrwt beam="1">  1        2 0.21945800E+00 0.15197464E+04</pdfrwt>
<pdfrwt beam="2">  1       -2 0.62273623E-01 0.15197464E+04</pdfrwt>
<totfact> 0.32261585E+01</totfact>
</mgrwt>
</event>
<event>
12    1  0.1663913E-007  0.1214986E+04  0.7818608E-02  0.9099839E-01
          1   -1    0    0  501    0  0.00000000000E+00  0.00000000000E+00  0.13904956300E+04  0.13904956300E+04  0.00000000000E+00 0. -1.
         -1   -1    0    0    0  501 -0.00000000000E+00 -0.00000000000E+00 -0.26540744114E+03  0.26540744114E+03  0.00000000000E+00 0.  1.
         23    2    1    2    0    0  0.65462452493E+02  0.15746728087E+03  0.52126153058E+03  0.55643520848E+03  0.93942965404E+02 0.  0.
        254    2    1    2    0    0 -0.65462452493E+02 -0.15746728087E+03  0.60382665831E+03  0.10994678627E+04  0.90285196491E+03 0.  0.
        -24    2    4    4    0    0 -0.26037094255E+01  0.15137788823E+02 -0.22886970823E+03  0.24285746423E+03  0.79765109114E+02 0.  0.
         24    2    4    4    0    0 -0.62858743067E+02 -0.17260506970E+03  0.83269636654E+03  0.85661039845E+03  0.81574531642E+02 0.  0.
         13    1    3    3    0    0  0.53404713630E+01  0.61608269630E+02  0.31653977547E+03  0.32252368746E+03  0.00000000000E+00 0. -1.
        -13    1    3    3    0    0  0.60121981130E+02  0.95859011242E+02  0.20472175511E+03  0.23391152102E+03  0.00000000000E+00 0.  1.
          2    1    6    6  502    0 -0.94751377973E+01  0.70105221980E+01  0.27892105607E+02  0.30280277623E+02  0.00000000000E+00 0. -1.
          3    1    5    5  503    0  0.34393439054E+02 -0.10761323667E+02 -0.98228360952E+02  0.10463042403E+03  0.00000000000E+00 0. -1.
         -4    1    5    5    0  503 -0.36997148479E+02  0.25899112489E+02 -0.13064134728E+03  0.13822704020E+03  0.00000000000E+00 0.  1.
         -1    1    6    6    0  502 -0.53383605270E+02 -0.17961559189E+03  0.80480426093E+03  0.82633012082E+03  0.00000000000E+00 0.  1.
<mgrwt>
<rscale>  0 0.12149862E+04</rscale>
<asrwt>0</asrwt>
<pdfrwt beam="1">  1        1 0.21392240E+00 0.12149862E+04</pdfrwt>
<pdfrwt beam="2">  1       -1 0.40831915E-01 0.12149862E+04</pdfrwt>
<totfact> 0.45224409E+01</totfact>
</mgrwt>
</event>
<event>
12    1  0.1663913E-007  0.1126702E+04  0.7818608E-02  0.9179551E-01
         -2   -1    0    0    0  501 -0.00000000000E+00  0.00000000000E+00  0.37729380938E+03  0.37729380938E+03  0.00000000000E+00 0.  1.
          2   -1    0    0  501    0  0.00000000000E+00 -0.00000000000E+00 -0.84115907453E+03  0.84115907453E+03  0.00000000000E+00 0. -1.
         23    2    1    2    0    0 -0.80073707438E+02 -0.15393285288E+03 -0.72000899951E+02  0.21034698513E+03  0.94628762752E+02 0.  0.
        254    2    1    2    0    0  0.80073707438E+02  0.15393285288E+03 -0.39186436519E+03  0.10081058988E+04  0.91247613702E+03 0.  0.
        -24    2    4    4    0    0  0.37902254699E+03  0.36300433251E+03 -0.11586240149E+03  0.54372241207E+03  0.82339108309E+02 0.  0.
         24    2    4    4    0    0 -0.29894883955E+03 -0.20907147963E+03 -0.27600196370E+03  0.46438348671E+03  0.79960280773E+02 0.  0.
         13    1    3    3    0    0 -0.10113576798E+03 -0.13331984379E+03 -0.67907550924E+02  0.18059363163E+03  0.00000000000E+00 0. -1.
        -13    1    3    3    0    0  0.21062060542E+02 -0.20613009089E+02 -0.40933490263E+01  0.29753353496E+02  0.00000000000E+00 0.  1.
          4    1    6    6  502    0 -0.26606067771E+03 -0.18030168712E+03 -0.20563425675E+03  0.38155265711E+03  0.00000000000E+00 0. -1.
          3    1    5    5  503    0  0.29444951468E+03  0.31943556920E+03 -0.11132508258E+03  0.44847839812E+03  0.00000000000E+00 0. -1.
         -4    1    5    5    0  503  0.84573032308E+02  0.43568763307E+02 -0.45373189080E+01  0.95244013947E+02  0.00000000000E+00 0.  1.
         -3    1    6    6    0  502 -0.32888161842E+02 -0.28769792507E+02 -0.70367706953E+02  0.82830829599E+02  0.00000000000E+00 0.  1.
<mgrwt>
<rscale>  0 0.11267016E+04</rscale>
<asrwt>0</asrwt>
<pdfrwt beam="1">  1        2 0.12940909E+00 0.11267016E+04</pdfrwt>
<pdfrwt beam="2">  1       -2 0.58045202E-01 0.11267016E+04</pdfrwt>
<totfact> 0.88661034E+01</totfact>
</mgrwt>
</event>
<event>
12    1  0.1663913E-007  0.2154827E+04  0.7818608E-02  0.8537469E-01
          1   -1    0    0  501    0  0.00000000000E+00  0.00000000000E+00  0.22190904073E+04  0.22190904073E+04  0.00000000000E+00 0. -1.
         -1   -1    0    0    0  501 -0.00000000000E+00 -0.00000000000E+00 -0.52310591478E+03  0.52310591478E+03  0.00000000000E+00 0.  1.
         23    2    1    2    0    0  0.83546583502E+03 -0.10194082420E+03  0.31889414384E+03  0.90465798789E+03  0.91200367081E+02 0.  0.
        254    2    1    2    0    0 -0.83546583502E+03  0.10194082420E+03  0.13770903487E+04  0.18375383342E+04  0.87850680595E+03 0.  0.
        -24    2    4    4    0    0 -0.60838390035E+03 -0.31330020040E+03  0.10541799274E+04  0.12590722101E+04  0.75362625187E+02 0.  0.
         24    2    4    4    0    0 -0.22708193467E+03  0.41524102460E+03  0.32291042131E+03  0.57846612406E+03  0.79753388248E+02 0.  0.
         11    1    3    3    0    0  0.40811747049E+02  0.66015040820E+01 -0.56010981546E+00  0.41346006776E+02  0.00000000000E+00 0. -1.
        -11    1    3    3    0    0  0.79465408797E+03 -0.10854232829E+03  0.31945425366E+03  0.86331198111E+03  0.00000000000E+00 0.  1.
          4    1    6    6  502    0 -0.10812128744E+03  0.16935792559E+03  0.92863491414E+02  0.22135028302E+03  0.00000000000E+00 0. -1.
          3    1    5    5  503    0 -0.15536173987E+03 -0.44716065555E+02  0.23740071838E+03  0.28722099126E+03  0.00000000000E+00 0. -1.
         -4    1    5    5    0  503 -0.45302216048E+03 -0.26858413484E+03  0.81677920900E+03  0.97185121888E+03  0.00000000000E+00 0.  1.
         -3    1    6    6    0  502 -0.11896064723E+03  0.24588309902E+03  0.23004692989E+03  0.35711584104E+03  0.00000000000E+00 0.  1.
<mgrwt>
<rscale>  0 0.21548265E+04</rscale>
<asrwt>0</asrwt>
<pdfrwt beam="1">  1        1 0.34139852E+00 0.21548265E+04</pdfrwt>
<pdfrwt beam="2">  1       -1 0.80477835E-01 0.21548265E+04</pdfrwt>
<totfact> 0.29801246E+00</totfact>
</mgrwt>
</event>
<event>
12    1  0.1663913E-007  0.1243672E+04  0.7818608E-02  0.9075467E-01
          1   -1    0    0  501    0  0.00000000000E+00  0.00000000000E+00  0.87866325571E+03  0.87866325571E+03  0.00000000000E+00 0. -1.
         -1   -1    0    0    0  501 -0.00000000000E+00 -0.00000000000E+00 -0.44007733166E+03  0.44007733166E+03  0.00000000000E+00 0.  1.
         23    2    1    2    0    0  0.19773052596E+03 -0.70495342674E+01  0.32958962869E+03  0.39519469632E+03  0.91664976000E+02 0.  0.
        254    2    1    2    0    0 -0.19773052596E+03  0.70495342674E+01  0.10899629536E+03  0.92354589105E+03  0.89549414496E+03 0.  0.
        -24    2    4    4    0    0  0.30145686652E+03 -0.15447107180E+03 -0.85903687079E+02  0.35837967420E+03  0.79492094144E+02 0.  0.
         24    2    4    4    0    0 -0.49918739248E+03  0.16152060607E+03  0.19489998244E+03  0.56516621685E+03  0.78421237719E+02 0.  0.
         13    1    3    3    0    0  0.68040290988E+02 -0.12195662939E+02  0.20073105544E+03  0.21229972211E+03  0.00000000000E+00 0. -1.
        -13    1    3    3    0    0  0.12969023497E+03  0.51461286714E+01  0.12885857326E+03  0.18289497420E+03  0.00000000000E+00 0.  1.
          2    1    6    6  502    0 -0.11437018296E+03  0.48301331595E+02  0.80792743190E+02  0.14812503075E+03  0.00000000000E+00 0. -1.
          1    1    5    5  503    0  0.16812262992E+03 -0.10271450456E+03 -0.86945920916E+02  0.21534874344E+03  0.00000000000E+00 0. -1.
         -2    1    5    5    0  503  0.13333423660E+03 -0.51756567235E+02  0.10422338367E+01  0.14303093076E+03  0.00000000000E+00 0.  1.
         -1    1    6    6    0  502 -0.38481720952E+03  0.11321927447E+03  0.11410723925E+03  0.41704118610E+03  0.00000000000E+00 0.  1.
<mgrwt>
<rscale>  0 0.12436716E+04</rscale>
<asrwt>0</asrwt>
<pdfrwt beam="1">  1        1 0.13517896E+00 0.12436716E+04</pdfrwt>
<pdfrwt beam="2">  1       -1 0.67704205E-01 0.12436716E+04</pdfrwt>
<totfact> 0.41312167E+01</totfact>
</mgrwt>
</event>
<event>
12    1  0.1663913E-007  0.1880731E+04  0.7818608E-02  0.8664508E-01
          1   -1    0    0  501    0  0.00000000000E+00  0.00000000000E+00  0.20352299911E+04  0.20352299911E+04  0.00000000000E+00 0. -1.
         -1   -1    0    0    0  501 -0.00000000000E+00 -0.00000000000E+00 -0.43448992294E+03  0.43448992294E+03  0.00000000000E+00 0.  1.
         23    2    1    2    0    0 -0.10282100844E+03 -0.64115625536E+03  0.21085673198E+03  0.68863689950E+03  0.90037294339E+02 0.  0.
        254    2    1    2    0    0  0.10282100844E+03  0.64115625536E+03  0.13898833362E+04  0.17810830146E+04  0.90489088455E+03 0.  0.
        -24    2    4    4    0    0 -0.29458370360E+03  0.48559653280E+03  0.39736230075E+03  0.69775660048E+03  0.79899464068E+02 0.  0.
         24    2    4    4    0    0  0.39740471204E+03  0.15555972256E+03  0.99252103545E+03  0.10833264141E+04  0.79804643955E+02 0.  0.
         11    1    3    3    0    0 -0.30216131948E+02 -0.23320987528E+03  0.32001515188E+02  0.23732668946E+03  0.00000000000E+00 0. -1.
        -11    1    3    3    0    0 -0.72604876493E+02 -0.40794638008E+03  0.17885521680E+03  0.45131021004E+03  0.00000000000E+00 0.  1.
          4    1    6    6  502    0  0.23497873632E+03  0.70717601456E+02  0.65163392165E+03  0.69630650832E+03  0.00000000000E+00 0. -1.
          1    1    5    5  503    0 -0.27533108948E+03  0.39910539365E+03  0.33156540324E+03  0.58739079044E+03  0.00000000000E+00 0. -1.
         -2    1    5    5    0  503 -0.19252614122E+02  0.86491139158E+02  0.65796897512E+02  0.11036581004E+03  0.00000000000E+00 0.  1.
         -3    1    6    6    0  502  0.16242597573E+03  0.84842121099E+02  0.34088711380E+03  0.38701990576E+03  0.00000000000E+00 0.  1.
<mgrwt>
<rscale>  0 0.18807306E+04</rscale>
<asrwt>0</asrwt>
<pdfrwt beam="1">  1        1 0.31311230E+00 0.18807306E+04</pdfrwt>
<pdfrwt beam="2">  1       -1 0.66844605E-01 0.18807306E+04</pdfrwt>
<totfact> 0.59930476E+00</totfact>
</mgrwt>
</event>
<event>
12    1  0.1663913E-007  0.2072862E+04  0.7818608E-02  0.8573293E-01
         -1   -1    0    0    0  501 -0.00000000000E+00  0.00000000000E+00  0.12834293349E+04  0.12834293349E+04  0.00000000000E+00 0.  1.
          1   -1    0    0  501    0  0.00000000000E+00 -0.00000000000E+00 -0.83696795796E+03  0.83696795796E+03  0.00000000000E+00 0. -1.
         23    2    1    2    0    0  0.56299279780E+03  0.48845064056E+03 -0.22225282866E+03  0.78303451669E+03  0.90563877161E+02 0.  0.
        254    2    1    2    0    0 -0.56299279780E+03 -0.48845064056E+03  0.66871420562E+03  0.13373627762E+04  0.88646240063E+03 0.  0.
        -24    2    4    4    0    0  0.40867596346E+02 -0.40120218549E+03 -0.22836357053E+02  0.41172022608E+03  0.79741402623E+02 0.  0.
         24    2    4    4    0    0 -0.60386039414E+03 -0.87248455068E+02  0.69155056267E+03  0.92564255011E+03  0.79449866687E+02 0.  0.
         13    1    3    3    0    0  0.16663879108E+03  0.10525021542E+03 -0.31120547456E+02  0.19953591911E+03  0.00000000000E+00 0.  1.
        -13    1    3    3    0    0  0.39635400672E+03  0.38320042513E+03 -0.19113228120E+03  0.58349859758E+03  0.00000000000E+00 0. -1.
          2    1    6    6  502    0 -0.46809309603E+03 -0.95639402355E+02  0.56414552619E+03  0.73926870390E+03  0.00000000000E+00 0. -1.
          1    1    5    5  503    0  0.19115635981E+02 -0.37543343174E+03 -0.11334450873E+02  0.37609059943E+03  0.00000000000E+00 0. -1.
         -2    1    5    5    0  503  0.21751960365E+02 -0.25768753749E+02 -0.11501906180E+02  0.35629626651E+02  0.00000000000E+00 0.  1.
         -1    1    6    6    0  502 -0.13576729811E+03  0.83909472869E+01  0.12740503648E+03  0.18637384622E+03  0.00000000000E+00 0.  1.
<mgrwt>
<rscale>  0 0.20728620E+04</rscale>
<asrwt>0</asrwt>
<pdfrwt beam="1">  1        1 0.12876430E+00 0.20728620E+04</pdfrwt>
<pdfrwt beam="2">  1       -1 0.19745067E+00 0.20728620E+04</pdfrwt>
<totfact> 0.29682715E+00</totfact>
</mgrwt>
</event>
<event>
12    1  0.1663913E-007  0.2567444E+04  0.7818608E-02  0.8379344E-01
         -2   -1    0    0    0  501 -0.00000000000E+00  0.00000000000E+00  0.41848658473E+03  0.41848658473E+03  0.00000000000E+00 0.  1.
          2   -1    0    0  501    0  0.00000000000E+00 -0.00000000000E+00 -0.39378619649E+04  0.39378619649E+04  0.00000000000E+00 0. -1.
         23    2    1    2    0    0  0.10296120907E+03 -0.99572048194E+03 -0.24066761596E+04  0.26081485645E+04  0.91041246613E+02 0.  0.
        254    2    1    2    0    0 -0.10296120907E+03  0.99572048194E+03 -0.11126992205E+04  0.17481999851E+04  0.90335117411E+03 0.  0.
        -24    2    4    4    0    0  0.37112052587E+03  0.50132818855E+03 -0.71561737085E+03  0.95281615728E+03  0.81792485970E+02 0.  0.
         24    2    4    4    0    0 -0.47408173494E+03  0.49439229339E+03 -0.39708184964E+03  0.79538382778E+03  0.76053974339E+02 0.  0.
         11    1    3    3    0    0  0.10785267230E+03 -0.74892011389E+03 -0.17479532289E+04  0.19046926330E+04  0.00000000000E+00 0. -1.
        -11    1    3    3    0    0 -0.48914632277E+01 -0.24680036805E+03 -0.65872293079E+03  0.70345593155E+03  0.00000000000E+00 0.  1.
          4    1    6    6  502    0 -0.15019261865E+03  0.10956246035E+03 -0.97215346271E+02  0.20979175142E+03  0.00000000000E+00 0. -1.
          1    1    5    5  503    0  0.12887582940E+03  0.24041138543E+03 -0.32449642110E+03  0.42391572388E+03  0.00000000000E+00 0. -1.
         -2    1    5    5    0  503  0.24224469647E+03  0.26091680312E+03 -0.39112094975E+03  0.52890043340E+03  0.00000000000E+00 0.  1.
         -3    1    6    6    0  502 -0.32388911629E+03  0.38482983304E+03 -0.29986650337E+03  0.58559207636E+03  0.00000000000E+00 0.  1.
<mgrwt>
<rscale>  0 0.25674442E+04</rscale>
<asrwt>0</asrwt>
<pdfrwt beam="1">  1        2 0.60582490E+00 0.25674442E+04</pdfrwt>
<pdfrwt beam="2">  1       -2 0.64382554E-01 0.25674442E+04</pdfrwt>
<totfact> 0.76030542E-01</totfact>
</mgrwt>
</event>
<event>
12    1  0.1892174E-007  0.1925619E+04  0.7818608E-02  0.8642208E-01
          2   -1    0    0  501    0  0.00000000000E+00  0.00000000000E+00  0.93112147343E+03  0.93112147343E+03  0.00000000000E+00 0. -1.
         -2   -1    0    0    0  501 -0.00000000000E+00 -0.00000000000E+00 -0.99557633282E+03  0.99557633282E+03  0.00000000000E+00 0.  1.
         23    2    1    2    0    0 -0.59711478658E+03 -0.45683337286E+03  0.19572763841E+02  0.75758838676E+03  0.91182628588E+02 0.  0.
        254    2    1    2    0    0  0.59711478658E+03  0.45683337286E+03 -0.84027623228E+02  0.11691094195E+04  0.89135480835E+03 0.  0.
        -24    2    4    4    0    0  0.37582732394E+02  0.14634635180E+03 -0.41150362657E+03  0.44582139600E+03  0.81189691392E+02 0.  0.
         24    2    4    4    0    0  0.55953205418E+03  0.31048702106E+03  0.32747600334E+03  0.72328802349E+03  0.80166840165E+02 0.  0.
         13    1    3    3    0    0 -0.48428535867E+03 -0.37931021741E+03  0.50580823878E+02  0.61722521773E+03  0.00000000000E+00 0.  1.
        -13    1    3    3    0    0 -0.11282942791E+03 -0.77523155447E+02 -0.31008060036E+02  0.14036316903E+03  0.00000000000E+00 0. -1.
          2    1    6    6  502    0  0.53929848960E+02  0.29766393561E+02  0.66669571734E+01  0.61958979272E+02  0.00000000000E+00 0. -1.
          3    1    5    5  503    0 -0.24190985431E+02  0.51504615803E+02 -0.11159025932E+03  0.12526098834E+03  0.00000000000E+00 0. -1.
         -4    1    5    5    0  503  0.61773717825E+02  0.94841736000E+02 -0.29991336725E+03  0.32056040765E+03  0.00000000000E+00 0.  1.
         -1    1    6    6    0  502  0.50560220522E+03  0.28072062749E+03  0.32080904617E+03  0.66132904422E+03  0.00000000000E+00 0.  1.
<mgrwt>
<rscale>  0 0.19256194E+04</rscale>
<asrwt>0</asrwt>
<pdfrwt beam="1">  1        2 0.14324946E+00 0.19256194E+04</pdfrwt>
<pdfrwt beam="2">  1       -2 0.15316559E+00 0.19256194E+04</pdfrwt>
<totfact> 0.74003660E+00</totfact>
</mgrwt>
</event>
<event>
12    1  0.1663913E-007  0.1129198E+04  0.7818608E-02  0.9177192E-01
         -1   -1    0    0    0  501 -0.00000000000E+00  0.00000000000E+00  0.23696686171E+03  0.23696686171E+03  0.00000000000E+00 0.  1.
          1   -1    0    0  501    0  0.00000000000E+00 -0.00000000000E+00 -0.13452175694E+04  0.13452175694E+04  0.00000000000E+00 0. -1.
         23    2    1    2    0    0  0.14896906387E+03 -0.11492050229E+03 -0.13761755437E+03  0.24802748416E+03  0.84738053970E+02 0.  0.
        254    2    1    2    0    0 -0.14896906387E+03  0.11492050229E+03 -0.97063315330E+03  0.13341569469E+04  0.89579436084E+03 0.  0.
        -24    2    4    4    0    0 -0.10260516878E+03  0.45229399629E+03 -0.83778220706E+03  0.96117951651E+03  0.83002149039E+02 0.  0.
         24    2    4    4    0    0 -0.46363895089E+02 -0.33737349401E+03 -0.13285094624E+03  0.37297743042E+03  0.74110083384E+02 0.  0.
         13    1    3    3    0    0  0.33610261394E+02 -0.16697407876E+02 -0.75431160809E+02  0.84251487356E+02  0.00000000000E+00 0. -1.
        -13    1    3    3    0    0  0.11535880247E+03 -0.98223094410E+02 -0.62186393562E+02  0.16377599680E+03  0.00000000000E+00 0.  1.
          2    1    6    6  502    0  0.15740331826E+02 -0.28148526864E+02 -0.20247344459E+02  0.38079555778E+02  0.00000000000E+00 0. -1.
          3    1    5    5  503    0 -0.37253711573E+02  0.56416707224E+02 -0.15731149612E+03  0.17122380293E+03  0.00000000000E+00 0. -1.
         -4    1    5    5    0  503 -0.65351457204E+02  0.39587728907E+03 -0.68047071095E+03  0.78995571358E+03  0.00000000000E+00 0.  1.
         -1    1    6    6    0  502 -0.62104226916E+02 -0.30922496714E+03 -0.11260360178E+03  0.33489787464E+03  0.00000000000E+00 0.  1.
<mgrwt>
<rscale>  0 0.11291979E+04</rscale>
<asrwt>0</asrwt>
<pdfrwt beam="1">  1        1 0.20695655E+00 0.11291979E+04</pdfrwt>
<pdfrwt beam="2">  1       -1 0.36456440E-01 0.11291979E+04</pdfrwt>
<totfact> 0.60196976E+01</totfact>
</mgrwt>
</event>
<event>
12    1  0.1663913E-007  0.2246076E+04  0.7818608E-02  0.8499491E-01
          1   -1    0    0  501    0  0.00000000000E+00  0.00000000000E+00  0.75977177440E+03  0.75977177440E+03  0.00000000000E+00 0. -1.
         -1   -1    0    0    0  501 -0.00000000000E+00 -0.00000000000E+00 -0.16599917232E+04  0.16599917232E+04  0.00000000000E+00 0.  1.
         23    2    1    2    0    0 -0.36813045778E+02  0.86707355752E+03  0.22262310190E+02  0.87736661038E+03  0.12690470470E+03 0.  0.
        254    2    1    2    0    0  0.36813045778E+02 -0.86707355752E+03 -0.92248225901E+03  0.15423968872E+04  0.88025160327E+03 0.  0.
        -24    2    4    4    0    0  0.31520055032E+03 -0.95612285987E+02 -0.53113953727E+03  0.63016908704E+03  0.80689367659E+02 0.  0.
         24    2    4    4    0    0 -0.27838750454E+03 -0.77146127153E+03 -0.39134272174E+03  0.91222780019E+03  0.79739183763E+02 0.  0.
         13    1    3    3    0    0 -0.44498808400E+02  0.16647675128E+03 -0.29458617101E+02  0.17482123094E+03  0.00000000000E+00 0.  1.
        -13    1    3    3    0    0  0.76857626212E+01  0.70059680623E+03  0.51720927291E+02  0.70254537944E+03  0.00000000000E+00 0. -1.
          2    1    6    6  502    0 -0.19638943722E+03 -0.55390727052E+03 -0.31928353600E+03  0.66882288518E+03  0.00000000000E+00 0. -1.
          1    1    5    5  503    0  0.16224093892E+03 -0.10396164296E+02 -0.22668929591E+03  0.27895920736E+03  0.00000000000E+00 0. -1.
         -2    1    5    5    0  503  0.15295961140E+03 -0.85216121692E+02 -0.30445024137E+03  0.35120987968E+03  0.00000000000E+00 0.  1.
         -1    1    6    6    0  502 -0.81998067322E+02 -0.21755400101E+03 -0.72059185745E+02  0.24340491501E+03  0.00000000000E+00 0.  1.
<mgrwt>
<rscale>  0 0.22460765E+04</rscale>
<asrwt>0</asrwt>
<pdfrwt beam="1">  1        1 0.11688797E+00 0.22460765E+04</pdfrwt>
<pdfrwt beam="2">  1       -1 0.25538334E+00 0.22460765E+04</pdfrwt>
<totfact> 0.14013683E+00</totfact>
</mgrwt>
</event>
<event>
12    1  0.1663913E-007  0.2478595E+04  0.7818608E-02  0.8410651E-01
         -2   -1    0    0    0  501 -0.00000000000E+00  0.00000000000E+00  0.68151167497E+03  0.68151167497E+03  0.00000000000E+00 0. -1.
          2   -1    0    0  501    0  0.00000000000E+00 -0.00000000000E+00 -0.22536050645E+04  0.22536050645E+04  0.00000000000E+00 0.  1.
         23    2    1    2    0    0  0.33911511916E+03  0.92686791393E+03 -0.11492931173E+04  0.15176972074E+04  0.91907289560E+02 0.  0.
        254    2    1    2    0    0 -0.33911511916E+03 -0.92686791393E+03 -0.42280027226E+03  0.14174195321E+04  0.92532959855E+03 0.  0.
        -24    2    4    4    0    0 -0.14052684245E+02  0.16171633386E+03  0.45718646303E+02  0.18595583492E+03  0.78356412315E+02 0.  0.
         24    2    4    4    0    0 -0.32506243492E+03 -0.10885842478E+04 -0.46851891856E+03  0.12314636972E+04  0.79445638015E+02 0.  0.
         11    1    3    3    0    0  0.28410325513E+03  0.72173820377E+03 -0.95031575481E+03  0.12266705867E+04  0.00000000000E+00 0. -1.
        -11    1    3    3    0    0  0.55011864031E+02  0.20512971016E+03 -0.19897736248E+03  0.29102662069E+03  0.00000000000E+00 0.  1.
          2    1    6    6  502    0 -0.16913574583E+03 -0.66382721372E+03 -0.25272496018E+03  0.73016667666E+03  0.00000000000E+00 0. -1.
          1    1    5    5  503    0 -0.36574173832E+02  0.32019102463E+02  0.12155212564E+02  0.50106310047E+02  0.00000000000E+00 0. -1.
         -2    1    5    5    0  503  0.22521489587E+02  0.12969723139E+03  0.33563433739E+02  0.13584952487E+03  0.00000000000E+00 0.  1.
         -1    1    6    6    0  502 -0.15592668909E+03 -0.42475703406E+03 -0.21579395837E+03  0.50129702056E+03  0.00000000000E+00 0.  1.
<mgrwt>
<rscale>  0 0.24785949E+04</rscale>
<asrwt>0</asrwt>
<pdfrwt beam="1">  1        2 0.34670847E+00 0.24785949E+04</pdfrwt>
<pdfrwt beam="2">  1       -2 0.10484795E+00 0.24785949E+04</pdfrwt>
<totfact> 0.31738493E+00</totfact>
</mgrwt>
</event>
<event>
12    1  0.1663913E-007  0.1801777E+04  0.7818608E-02  0.8705355E-01
         -1   -1    0    0    0  501 -0.00000000000E+00  0.00000000000E+00  0.20288278617E+04  0.20288278617E+04  0.00000000000E+00 0.  1.
          1   -1    0    0  501    0  0.00000000000E+00 -0.00000000000E+00 -0.40003386423E+03  0.40003386423E+03  0.00000000000E+00 0. -1.
         23    2    1    2    0    0 -0.11355064785E+03 -0.37324007288E+03  0.13615221937E+04  0.14193726455E+04  0.93134962124E+02 0.  0.
        254    2    1    2    0    0  0.11355064785E+03  0.37324007288E+03  0.26727180376E+03  0.10094890804E+04  0.89186999322E+03 0.  0.
        -24    2    4    4    0    0 -0.29028050111E+03 -0.10418311792E+03 -0.12219448883E+02  0.32060649273E+03  0.86731291148E+02 0.  0.
         24    2    4    4    0    0  0.40383114895E+03  0.47742319080E+03  0.27949125265E+03  0.68888258771E+03  0.73697756848E+02 0.  0.
         11    1    3    3    0    0 -0.89170163718E+02 -0.36426184994E+03  0.12654132081E+04  0.13198138507E+04  0.00000000000E+00 0.  1.
        -11    1    3    3    0    0 -0.24380484127E+02 -0.89782229432E+01  0.96108985670E+02  0.99558794790E+02  0.00000000000E+00 0. -1.
          2    1    6    6  502    0  0.24778318110E+03  0.24119108199E+03  0.13713879280E+03  0.37199017642E+03  0.00000000000E+00 0. -1.
          3    1    5    5  503    0 -0.14892862032E+03 -0.10692733454E+02 -0.21643666258E+02  0.15087251834E+03  0.00000000000E+00 0. -1.
         -4    1    5    5    0  503 -0.14135188078E+03 -0.93490384467E+02  0.94242173747E+01  0.16973397439E+03  0.00000000000E+00 0.  1.
         -1    1    6    6    0  502  0.15604796786E+03  0.23623210882E+03  0.14235245985E+03  0.31689241129E+03  0.00000000000E+00 0.  1.
<mgrwt>
<rscale>  0 0.18017767E+04</rscale>
<asrwt>0</asrwt>
<pdfrwt beam="1">  1        1 0.61543672E-01 0.18017767E+04</pdfrwt>
<pdfrwt beam="2">  1       -1 0.31212736E+00 0.18017767E+04</pdfrwt>
<totfact> 0.15612821E+00</totfact>
</mgrwt>
</event>
<event>
12    1  0.1663913E-007  0.1805681E+04  0.7818608E-02  0.8703284E-01
          1   -1    0    0  501    0  0.00000000000E+00  0.00000000000E+00  0.15263807065E+04  0.15263807065E+04  0.00000000000E+00 0. -1.
         -1   -1    0    0    0  501 -0.00000000000E+00 -0.00000000000E+00 -0.53402213922E+03  0.53402213922E+03  0.00000000000E+00 0.  1.
         23    2    1    2    0    0  0.11592185754E+03 -0.57320507212E+02  0.11217319363E+04  0.11327468876E+04  0.90052523211E+02 0.  0.
        254    2    1    2    0    0 -0.11592185754E+03  0.57320507212E+02 -0.12937336905E+03  0.92765595805E+03  0.90944191144E+03 0.  0.
        -24    2    4    4    0    0 -0.26707385499E+03 -0.31739207098E+03 -0.25976648588E+03  0.49563280828E+03  0.78147826071E+02 0.  0.
         24    2    4    4    0    0  0.15115199745E+03  0.37471257819E+03  0.13039311683E+03  0.43202314977E+03  0.79907411632E+02 0.  0.
         13    1    3    3    0    0 -0.27539402028E+01  0.13211439350E+02  0.39425116313E+02  0.41670926467E+02  0.00000000000E+00 0.  1.
        -13    1    3    3    0    0  0.11867579774E+03 -0.70531946562E+02  0.10823068200E+04  0.10910759612E+04  0.00000000000E+00 0. -1.
          2    1    6    6  502    0 -0.17182638418E+01  0.28917912575E+02 -0.69161063511E+01  0.29783059369E+02  0.00000000000E+00 0. -1.
          3    1    5    5  503    0 -0.25029812670E+02 -0.49227824496E+02 -0.91782588397E+01  0.55983128371E+02  0.00000000000E+00 0. -1.
         -4    1    5    5    0  503 -0.24204404232E+03 -0.26816424648E+03 -0.25058822704E+03  0.43964967991E+03  0.00000000000E+00 0.  1.
         -1    1    6    6    0  502  0.15287026129E+03  0.34579466561E+03  0.13730922318E+03  0.40224009040E+03  0.00000000000E+00 0.  1.
<mgrwt>
<rscale>  0 0.18056811E+04</rscale>
<asrwt>0</asrwt>
<pdfrwt beam="1">  1        1 0.23482780E+00 0.18056811E+04</pdfrwt>
<pdfrwt beam="2">  1       -1 0.82157253E-01 0.18056811E+04</pdfrwt>
<totfact> 0.87160295E+00</totfact>
</mgrwt>
</event>
<event>
12    1  0.1663913E-007  0.1958516E+04  0.7818608E-02  0.8626265E-01
         -2   -1    0    0    0  501 -0.00000000000E+00  0.00000000000E+00  0.41108955191E+03  0.41108955191E+03  0.00000000000E+00 0.  1.
          2   -1    0    0  501    0  0.00000000000E+00 -0.00000000000E+00 -0.23326947489E+04  0.23326947489E+04  0.00000000000E+00 0. -1.
         23    2    1    2    0    0  0.16233680204E+03 -0.49594088576E+03 -0.15519450761E+04  0.16399766587E+04  0.93162881430E+02 0.  0.
        254    2    1    2    0    0 -0.16233680204E+03  0.49594088576E+03 -0.36966012087E+03  0.11038076421E+04  0.89968444815E+03 0.  0.
        -24    2    4    4    0    0  0.22193586614E+03  0.59069346313E+02 -0.44895384531E+03  0.51067899112E+03  0.80552842270E+02 0.  0.
         24    2    4    4    0    0 -0.38427266819E+03  0.43687153945E+03  0.79293724439E+02  0.59312865095E+03  0.83617440418E+02 0.  0.
         11    1    3    3    0    0  0.57482209856E+02 -0.29708980841E+03 -0.80778362595E+03  0.86260126656E+03  0.00000000000E+00 0. -1.
        -11    1    3    3    0    0  0.10485459219E+03 -0.19885107735E+03 -0.74416145012E+03  0.77737539214E+03  0.00000000000E+00 0.  1.
          2    1    6    6  502    0 -0.10240039252E+03  0.12245033110E+03  0.59635505527E+02  0.17040046214E+03  0.00000000000E+00 0. -1.
          3    1    5    5  503    0  0.25067035976E+02  0.11065354115E+01 -0.12275056649E+03  0.12528879554E+03  0.00000000000E+00 0. -1.
         -4    1    5    5    0  503  0.19686883017E+03  0.57962810901E+02 -0.32620327882E+03  0.38539019558E+03  0.00000000000E+00 0.  1.
         -1    1    6    6    0  502 -0.28187227566E+03  0.31442120835E+03  0.19658218912E+02  0.42272818881E+03  0.00000000000E+00 0.  1.
<mgrwt>
<rscale>  0 0.19585162E+04</rscale>
<asrwt>0</asrwt>
<pdfrwt beam="1">  1        2 0.35887611E+00 0.19585162E+04</pdfrwt>
<pdfrwt beam="2">  1       -2 0.63244547E-01 0.19585162E+04</pdfrwt>
<totfact> 0.93772217E+00</totfact>
</mgrwt>
</event>
<event>
12    1  0.1663913E-007  0.1525153E+04  0.7818608E-02  0.8867896E-01
         -2   -1    0    0    0  501 -0.00000000000E+00  0.00000000000E+00  0.50652793558E+03  0.50652793558E+03  0.00000000000E+00 0.  1.
          2   -1    0    0  501    0  0.00000000000E+00 -0.00000000000E+00 -0.11480576868E+04  0.11480576868E+04  0.00000000000E+00 0. -1.
         23    2    1    2    0    0  0.18854823608E+03 -0.11379458436E+03 -0.69051559862E+03  0.72964748548E+03  0.84107171985E+02 0.  0.
        254    2    1    2    0    0 -0.18854823608E+03  0.11379458436E+03  0.48985847375E+02  0.92493813691E+03  0.89700128156E+03 0.  0.
        -24    2    4    4    0    0  0.33459341969E+03 -0.53330784232E+02 -0.77447681331E+02  0.35586760282E+03  0.76463575302E+02 0.  0.
         24    2    4    4    0    0 -0.52314165577E+03  0.16712536859E+03  0.12643352871E+03  0.56907053409E+03  0.79042740122E+02 0.  0.
         13    1    3    3    0    0  0.84824901731E+02 -0.10341286736E+02 -0.19434806694E+03  0.21230491584E+03  0.00000000000E+00 0.  1.
        -13    1    3    3    0    0  0.10372333435E+03 -0.10345329762E+03 -0.49616753167E+03  0.51734256964E+03  0.00000000000E+00 0. -1.
          4    1    6    6  502    0 -0.98710286167E+02  0.26658175898E+01  0.35234001051E+02  0.10484398890E+03  0.00000000000E+00 0. -1.
          3    1    5    5  503    0  0.47894934660E+01 -0.13229143948E+02 -0.88658323783E+01  0.16629867138E+02  0.00000000000E+00 0. -1.
         -4    1    5    5    0  503  0.32980392622E+03 -0.40101640284E+02 -0.68581848953E+02  0.33923773568E+03  0.00000000000E+00 0.  1.
         -3    1    6    6    0  502 -0.42443136960E+03  0.16445955100E+03  0.91199527655E+02  0.46422654519E+03  0.00000000000E+00 0.  1.
<mgrwt>
<rscale>  0 0.15251535E+04</rscale>
<asrwt>0</asrwt>
<pdfrwt beam="1">  1        2 0.17662426E+00 0.15251535E+04</pdfrwt>
<pdfrwt beam="2">  1       -2 0.77927376E-01 0.15251535E+04</pdfrwt>
<totfact> 0.28789260E+01</totfact>
</mgrwt>
</event>
<event>
12    1  0.1663913E-007  0.2320122E+04  0.7818608E-02  0.8470029E-01
          2   -1    0    0  501    0  0.00000000000E+00  0.00000000000E+00  0.78702915597E+03  0.78702915597E+03  0.00000000000E+00 0. -1.
         -2   -1    0    0    0  501 -0.00000000000E+00 -0.00000000000E+00 -0.17099000365E+04  0.17099000365E+04  0.00000000000E+00 0.  1.
         23    2    1    2    0    0 -0.57270231175E+03 -0.19596241332E+03  0.43997319765E+03  0.75405901087E+03  0.92948221671E+02 0.  0.
        254    2    1    2    0    0  0.57270231175E+03  0.19596241332E+03 -0.13628440782E+04  0.17428701816E+04  0.90214371537E+03 0.  0.
        -24    2    4    4    0    0  0.58121982889E+03 -0.24706443688E+03 -0.80646481368E+03  0.10274987800E+04  0.80690282104E+02 0.  0.
         24    2    4    4    0    0 -0.85175171467E+01  0.44302685020E+03 -0.55637926454E+03  0.71537140169E+03  0.76505021052E+02 0.  0.
         13    1    3    3    0    0 -0.52333778418E+03 -0.19400701046E+03  0.42765582821E+03  0.70314341628E+03  0.00000000000E+00 0. -1.
        -13    1    3    3    0    0 -0.49364527571E+02 -0.19554028578E+01  0.12317369436E+02  0.50915594590E+02  0.00000000000E+00 0.  1.
          4    1    6    6  502    0  0.23608282957E+02  0.62766041810E+02 -0.10096753167E+03  0.12120795964E+03  0.00000000000E+00 0. -1.
          3    1    5    5  503    0  0.57453543713E+02 -0.26682031850E+02 -0.46506307357E+02  0.78585476602E+02  0.00000000000E+00 0. -1.
         -4    1    5    5    0  503  0.52376628518E+03 -0.22038240503E+03 -0.75995850633E+03  0.94891330335E+03  0.00000000000E+00 0.  1.
         -3    1    6    6    0  502 -0.32125800104E+02  0.38026080839E+03 -0.45541173287E+03  0.59416344205E+03  0.00000000000E+00 0.  1.
<mgrwt>
<rscale>  0 0.23201217E+04</rscale>
<asrwt>0</asrwt>
<pdfrwt beam="1">  1        2 0.12108141E+00 0.23201217E+04</pdfrwt>
<pdfrwt beam="2">  1       -2 0.26306154E+00 0.23201217E+04</pdfrwt>
<totfact> 0.17025634E+00</totfact>
</mgrwt>
</event>
<event>
12    1  0.1663913E-007  0.1385815E+04  0.7818608E-02  0.8964151E-01
          2   -1    0    0  501    0  0.00000000000E+00  0.00000000000E+00  0.20980503636E+04  0.20980503636E+04  0.00000000000E+00 0. -1.
         -2   -1    0    0    0  501 -0.00000000000E+00 -0.00000000000E+00 -0.22884133355E+03  0.22884133355E+03  0.00000000000E+00 0.  1.
         23    2    1    2    0    0 -0.34695940438E+03 -0.16246484512E+03  0.40955328784E+03  0.56812820536E+03  0.90885136096E+02 0.  0.
        254    2    1    2    0    0  0.34695940438E+03  0.16246484512E+03  0.14596557422E+04  0.17587634917E+04  0.90325991833E+03 0.  0.
        -24    2    4    4    0    0  0.37076217302E+03  0.41548141423E+03  0.46778143628E+03  0.73157117738E+03  0.79293889635E+02 0.  0.
         24    2    4    4    0    0 -0.23802768640E+02 -0.25301656911E+03  0.99187430588E+03  0.10271923144E+04  0.82008877375E+02 0.  0.
         11    1    3    3    0    0 -0.33714003484E+03 -0.15276388401E+03  0.35867395290E+03  0.51540975139E+03  0.00000000000E+00 0.  1.
        -11    1    3    3    0    0 -0.98193695407E+01 -0.97009611179E+01  0.50879334940E+02  0.52718453968E+02  0.00000000000E+00 0. -1.
          4    1    6    6  502    0 -0.26661552271E+02 -0.82344594115E+02  0.47616430307E+03  0.48396685224E+03  0.00000000000E+00 0. -1.
          1    1    5    5  503    0  0.65913904345E+02  0.41776469806E+02  0.44164343148E+02  0.89668307786E+02  0.00000000000E+00 0. -1.
         -2    1    5    5    0  503  0.30484826867E+03  0.37370494443E+03  0.42361709313E+03  0.64190286960E+03  0.00000000000E+00 0.  1.
         -3    1    6    6    0  502  0.28587836313E+01 -0.17067197500E+03  0.51571000282E+03  0.54322546212E+03  0.00000000000E+00 0.  1.
<mgrwt>
<rscale>  0 0.13858148E+04</rscale>
<asrwt>0</asrwt>
<pdfrwt beam="1">  1        2 0.32277697E+00 0.13858148E+04</pdfrwt>
<pdfrwt beam="2">  1       -2 0.35206360E-01 0.13858148E+04</pdfrwt>
<totfact> 0.43521256E+01</totfact>
</mgrwt>
</event>
<event>
12    1  0.1663913E-007  0.1363383E+04  0.7818608E-02  0.8980759E-01
          1   -1    0    0  501    0  0.00000000000E+00  0.00000000000E+00  0.47404646252E+03  0.47404646252E+03  0.00000000000E+00 0. -1.
         -1   -1    0    0    0  501 -0.00000000000E+00 -0.00000000000E+00 -0.98029049371E+03  0.98029049371E+03  0.00000000000E+00 0.  1.
         23    2    1    2    0    0  0.31136896022E+03 -0.71360169425E+02 -0.79167488269E+02  0.34125769172E+03  0.90257508228E+02 0.  0.
        254    2    1    2    0    0 -0.31136896022E+03  0.71360169425E+02 -0.42707654292E+03  0.11130792645E+04  0.97698934097E+03 0.  0.
        -24    2    4    4    0    0  0.22107250624E+03  0.12775353284E+03  0.16247570145E+03  0.31291019867E+03  0.79501073584E+02 0.  0.
         24    2    4    4    0    0 -0.53244146646E+03 -0.56393363416E+02 -0.58955224437E+03  0.80016906583E+03  0.77618029056E+02 0.  0.
         13    1    3    3    0    0  0.10725089034E+03 -0.19971542303E+01  0.10478444603E+02  0.10778005337E+03  0.00000000000E+00 0. -1.
        -13    1    3    3    0    0  0.20411806988E+03 -0.69363015195E+02 -0.89645932873E+02  0.23347763835E+03  0.00000000000E+00 0.  1.
          4    1    6    6  502    0 -0.49339326770E+01 -0.79360433310E+01 -0.29934979966E+01  0.98125178048E+01  0.00000000000E+00 0. -1.
          1    1    5    5  503    0  0.31044711807E+02  0.32626929846E+02  0.65086870727E+02  0.79149171968E+02  0.00000000000E+00 0. -1.
         -2    1    5    5    0  503  0.19002779443E+03  0.95126602995E+02  0.97388830723E+02  0.23376102670E+03  0.00000000000E+00 0.  1.
         -3    1    6    6    0  502 -0.52750753378E+03 -0.48457320085E+02 -0.58655874637E+03  0.79035654803E+03  0.00000000000E+00 0.  1.
<mgrwt>
<rscale>  0 0.13633829E+04</rscale>
<asrwt>0</asrwt>
<pdfrwt beam="1">  1        1 0.72930225E-01 0.13633829E+04</pdfrwt>
<pdfrwt beam="2">  1       -1 0.15081392E+00 0.13633829E+04</pdfrwt>
<totfact> 0.16037009E+01</totfact>
</mgrwt>
</event>
<event>
12    1  0.1663913E-007  0.2157858E+04  0.7818608E-02  0.8536176E-01
          2   -1    0    0  501    0  0.00000000000E+00  0.00000000000E+00  0.10544665417E+04  0.10544665417E+04  0.00000000000E+00 0. -1.
         -2   -1    0    0    0  501 -0.00000000000E+00 -0.00000000000E+00 -0.11039593186E+04  0.11039593186E+04  0.00000000000E+00 0.  1.
         23    2    1    2    0    0 -0.33549371750E+03 -0.85127476994E+02 -0.80235085303E+03  0.87856100972E+03  0.91103428186E+02 0.  0.
        254    2    1    2    0    0  0.33549371750E+03  0.85127476994E+02  0.75285807610E+03  0.12798648505E+04  0.97542607669E+03 0.  0.
        -24    2    4    4    0    0  0.43869121294E+03  0.56840632587E+02  0.94487556733E+03  0.10463498785E+04  0.79858579813E+02 0.  0.
         24    2    4    4    0    0 -0.10319749544E+03  0.28286844407E+02 -0.19201749123E+03  0.23351497200E+03  0.78795028907E+02 0.  0.
         11    1    3    3    0    0 -0.24011469020E+02  0.11941561953E+02 -0.10952039088E+03  0.11275578728E+03  0.00000000000E+00 0. -1.
        -11    1    3    3    0    0 -0.31148224848E+03 -0.97069038947E+02 -0.69283046214E+03  0.76580522244E+03  0.00000000000E+00 0.  1.
          4    1    6    6  502    0 -0.86984116317E+02 -0.20832762557E+01 -0.87183297501E+02  0.12317265888E+03  0.00000000000E+00 0. -1.
          1    1    5    5  503    0  0.22123873516E+03  0.21816187362E+02  0.38297589548E+03  0.44282396105E+03  0.00000000000E+00 0. -1.
         -2    1    5    5    0  503  0.21745247778E+03  0.35024445225E+02  0.56189967185E+03  0.60352591749E+03  0.00000000000E+00 0.  1.
         -3    1    6    6    0  502 -0.16213379121E+02  0.30370120663E+02 -0.10483419373E+03  0.11034231313E+03  0.00000000000E+00 0.  1.
<mgrwt>
<rscale>  0 0.21578584E+04</rscale>
<asrwt>0</asrwt>
<pdfrwt beam="1">  1        2 0.16222562E+00 0.21578584E+04</pdfrwt>
<pdfrwt beam="2">  1       -2 0.16983990E+00 0.21578584E+04</pdfrwt>
<totfact> 0.45579343E+00</totfact>
</mgrwt>
</event>
<event>
12    1  0.1663913E-007  0.1865983E+04  0.7818608E-02  0.8671977E-01
          2   -1    0    0  501    0  0.00000000000E+00  0.00000000000E+00  0.18457342913E+04  0.18457342913E+04  0.00000000000E+00 0. -1.
         -2   -1    0    0    0  501 -0.00000000000E+00 -0.00000000000E+00 -0.47161322745E+03  0.47161322745E+03  0.00000000000E+00 0.  1.
         23    2    1    2    0    0  0.91007739893E+02  0.70595814822E+03  0.51974172329E+03  0.88627656556E+03  0.93248999810E+02 0.  0.
        254    2    1    2    0    0 -0.91007739893E+02 -0.70595814822E+03  0.85437934057E+03  0.14310709532E+04  0.90074452523E+03 0.  0.
        -24    2    4    4    0    0 -0.17501427347E+03 -0.84746510525E+03  0.88904656007E+03  0.12432275029E+04  0.79898294203E+02 0.  0.
         24    2    4    4    0    0  0.84006533580E+02  0.14150695703E+03 -0.34667219501E+02  0.18784345031E+03  0.83678128234E+02 0.  0.
         13    1    3    3    0    0  0.20069885527E+02  0.77722784232E+02  0.26931506384E+02  0.84669578539E+02  0.00000000000E+00 0. -1.
        -13    1    3    3    0    0  0.70937854366E+02  0.62823536399E+03  0.49281021690E+03  0.80160698702E+03  0.00000000000E+00 0.  1.
          4    1    6    6  502    0 -0.12346233201E+02  0.37541646266E+02  0.69184872964E+01  0.40120694723E+02  0.00000000000E+00 0. -1.
          1    1    5    5  503    0 -0.51453485436E+02 -0.13845014317E+03  0.18109390424E+03  0.23368976328E+03  0.00000000000E+00 0. -1.
         -4    1    5    5    0  503 -0.12356078804E+03 -0.70901496208E+03  0.70795265583E+03  0.10095377396E+04  0.00000000000E+00 0.  1.
         -3    1    6    6    0  502  0.96352766781E+02  0.10396531076E+03 -0.41585706797E+02  0.14772275559E+03  0.00000000000E+00 0.  1.
<mgrwt>
<rscale>  0 0.18659825E+04</rscale>
<asrwt>0</asrwt>
<pdfrwt beam="1">  1        2 0.28395912E+00 0.18659825E+04</pdfrwt>
<pdfrwt beam="2">  1       -2 0.72555882E-01 0.18659825E+04</pdfrwt>
<totfact> 0.13131299E+01</totfact>
</mgrwt>
</event>
<event>
12    1  0.1663913E-007  0.1432333E+04  0.7818608E-02  0.8930741E-01
         -2   -1    0    0    0  501 -0.00000000000E+00  0.00000000000E+00  0.18387783713E+03  0.18387783713E+03  0.00000000000E+00 0.  1.
          2   -1    0    0  501    0  0.00000000000E+00 -0.00000000000E+00 -0.27893200183E+04  0.27893200183E+04  0.00000000000E+00 0. -1.
         23    2    1    2    0    0  0.21853279651E+03 -0.36707225841E+03 -0.69177510779E+03  0.81656606446E+03  0.75688254193E+02 0.  0.
        254    2    1    2    0    0 -0.21853279651E+03  0.36707225841E+03 -0.19136670734E+04  0.21566317910E+04  0.89802026038E+03 0.  0.
        -24    2    4    4    0    0 -0.48950457763E+03  0.12269806247E+02 -0.13157992061E+04  0.14062216129E+04  0.79789687687E+02 0.  0.
         24    2    4    4    0    0  0.27097178112E+03  0.35480245216E+03 -0.59786786727E+03  0.75041017803E+03  0.79743102155E+02 0.  0.
         13    1    3    3    0    0  0.20889830882E+03 -0.31579760806E+03 -0.57255022524E+03  0.68642581035E+03  0.00000000000E+00 0. -1.
        -13    1    3    3    0    0  0.96344876842E+01 -0.51274650349E+02 -0.11922488255E+03  0.13014025411E+03  0.00000000000E+00 0.  1.
          2    1    6    6  502    0  0.31973802054E+02  0.93369925782E+02 -0.14669450993E+03  0.17680369425E+03  0.00000000000E+00 0. -1.
          3    1    5    5  503    0 -0.14936580208E+03  0.10883986785E+02 -0.51103404835E+03  0.53252643369E+03  0.00000000000E+00 0. -1.
         -4    1    5    5    0  503 -0.34013877554E+03  0.13858194623E+01 -0.80476515776E+03  0.87369517926E+03  0.00000000000E+00 0.  1.
         -1    1    6    6    0  502  0.23899797907E+03  0.26143252638E+03 -0.45117335735E+03  0.57360648378E+03  0.00000000000E+00 0.  1.
<mgrwt>
<rscale>  0 0.14323325E+04</rscale>
<asrwt>0</asrwt>
<pdfrwt beam="1">  1        2 0.42912610E+00 0.14323325E+04</pdfrwt>
<pdfrwt beam="2">  1       -2 0.28288902E-01 0.14323325E+04</pdfrwt>
<totfact> 0.26226421E+01</totfact>
</mgrwt>
</event>
<event>
12    1  0.1663913E-007  0.2214244E+04  0.7818608E-02  0.8512523E-01
          2   -1    0    0  501    0  0.00000000000E+00  0.00000000000E+00  0.20872671385E+04  0.20872671385E+04  0.00000000000E+00 0.  1.
         -2   -1    0    0    0  501 -0.00000000000E+00 -0.00000000000E+00 -0.58723628100E+03  0.58723628100E+03  0.00000000000E+00 0. -1.
         23    2    1    2    0    0  0.26914344740E+03  0.17640265806E+03  0.16745360986E+04  0.17076425172E+04  0.91737276325E+02 0.  0.
        254    2    1    2    0    0 -0.26914344740E+03 -0.17640265806E+03 -0.17450524111E+03  0.96686090232E+03  0.89488090393E+03 0.  0.
        -24    2    4    4    0    0  0.54726013928E+02  0.32303712975E+03  0.13729002298E+02  0.33749664039E+03  0.79797073689E+02 0.  0.
         24    2    4    4    0    0 -0.32386946132E+03 -0.49943978781E+03 -0.18823424341E+03  0.62936426193E+03  0.79597199596E+02 0.  0.
         11    1    3    3    0    0  0.61359976937E+02 -0.98118256495E+00  0.29558618705E+03  0.30188938945E+03  0.00000000000E+00 0. -1.
        -11    1    3    3    0    0  0.20778347046E+03  0.17738384062E+03  0.13789499115E+04  0.14057531277E+04  0.00000000000E+00 0.  1.
          2    1    6    6  502    0 -0.34057310371E+02 -0.25298879703E+02  0.68325515098E+00  0.42431127036E+02  0.00000000000E+00 0. -1.
          1    1    5    5  503    0  0.85107312315E+01  0.69366847780E+02 -0.29848638347E+02  0.75994297998E+02  0.00000000000E+00 0. -1.
         -2    1    5    5    0  503  0.46215282697E+02  0.25367028197E+03  0.43577640645E+02  0.26150234239E+03  0.00000000000E+00 0.  1.
         -1    1    6    6    0  502 -0.28981215095E+03 -0.47414090810E+03 -0.18891749856E+03  0.58693313490E+03  0.00000000000E+00 0.  1.
<mgrwt>
<rscale>  0 0.22142439E+04</rscale>
<asrwt>0</asrwt>
<pdfrwt beam="1">  1        2 0.32111802E+00 0.22142439E+04</pdfrwt>
<pdfrwt beam="2">  1       -2 0.90344044E-01 0.22142439E+04</pdfrwt>
<totfact> 0.57117060E+00</totfact>
</mgrwt>
</event>
<event>
12    1  0.1663913E-007  0.2911400E+04  0.7818608E-02  0.8269494E-01
          2   -1    0    0  501    0  0.00000000000E+00  0.00000000000E+00  0.14885115786E+04  0.14885115786E+04  0.00000000000E+00 0. -1.
         -2   -1    0    0    0  501 -0.00000000000E+00 -0.00000000000E+00 -0.14236119039E+04  0.14236119039E+04  0.00000000000E+00 0.  1.
         23    2    1    2    0    0  0.21249899201E+03  0.12557349377E+04  0.38241765196E+03  0.13331485583E+04  0.94951370498E+02 0.  0.
        254    2    1    2    0    0 -0.21249899201E+03 -0.12557349377E+04 -0.31751797730E+03  0.15789749242E+04  0.87767766855E+03 0.  0.
        -24    2    4    4    0    0 -0.18190673336E+03  0.73325979261E+02 -0.13201426778E+02  0.21266180528E+03  0.81141893487E+02 0.  0.
         24    2    4    4    0    0 -0.30592258648E+02 -0.13290609169E+04 -0.30431655053E+03  0.13663131189E+04  0.82850278600E+02 0.  0.
         13    1    3    3    0    0  0.16041926225E+03  0.89118348905E+03  0.31529081886E+03  0.95882774851E+03  0.00000000000E+00 0. -1.
        -13    1    3    3    0    0  0.52079729757E+02  0.36455144863E+03  0.67126833103E+02  0.37432080983E+03  0.00000000000E+00 0.  1.
          2    1    6    6  502    0 -0.23374623438E+02 -0.41445809129E+03 -0.13193911521E+03  0.43557985786E+03  0.00000000000E+00 0. -1.
          3    1    5    5  503    0 -0.38756961146E+01 -0.36542916316E+01 -0.17867179147E+02  0.18644327780E+02  0.00000000000E+00 0. -1.
         -4    1    5    5    0  503 -0.17803103724E+03  0.76980270893E+02  0.46657523693E+01  0.19401747750E+03  0.00000000000E+00 0.  1.
         -1    1    6    6    0  502 -0.72176352102E+01 -0.91460282565E+03 -0.17237743532E+03  0.93073326101E+03  0.00000000000E+00 0.  1.
<mgrwt>
<rscale>  0 0.29114002E+04</rscale>
<asrwt>0</asrwt>
<pdfrwt beam="1">  1        2 0.22900178E+00 0.29114002E+04</pdfrwt>
<pdfrwt beam="2">  1       -2 0.21901722E+00 0.29114002E+04</pdfrwt>
<totfact> 0.11140525E+00</totfact>
</mgrwt>
</event>
<event>
12    1  0.1663913E-007  0.1279619E+04  0.7818608E-02  0.9045885E-01
          2   -1    0    0  501    0  0.00000000000E+00  0.00000000000E+00  0.71040134252E+03  0.71040134252E+03  0.00000000000E+00 0. -1.
         -2   -1    0    0    0  501 -0.00000000000E+00 -0.00000000000E+00 -0.57623266313E+03  0.57623266313E+03  0.00000000000E+00 0.  1.
         23    2    1    2    0    0  0.57895200713E+02 -0.18395037589E+03  0.27457365132E+03  0.34876478019E+03  0.95166101344E+02 0.  0.
        254    2    1    2    0    0 -0.57895200713E+02  0.18395037589E+03 -0.14040497193E+03  0.93786922546E+03  0.90702565171E+03 0.  0.
        -24    2    4    4    0    0  0.86419711446E+01 -0.28430049490E+03  0.19390706327E+03  0.35331899831E+03  0.79579584773E+02 0.  0.
         24    2    4    4    0    0 -0.66537171857E+02  0.46825087079E+03 -0.33431203520E+03  0.58455022715E+03  0.79046555530E+02 0.  0.
         11    1    3    3    0    0  0.70302370804E+02 -0.16561940394E+03  0.27249005501E+03  0.32653183670E+03  0.00000000000E+00 0. -1.
        -11    1    3    3    0    0 -0.12407170091E+02 -0.18330971956E+02  0.20835963095E+01  0.22232943487E+02  0.00000000000E+00 0.  1.
          4    1    6    6  502    0  0.25166069849E+01 -0.25965449280E+01 -0.29270286621E+01  0.46521879872E+01  0.00000000000E+00 0. -1.
          3    1    5    5  503    0 -0.92194824849E+01 -0.78706682747E+02  0.97216054801E+02  0.12542209565E+03  0.00000000000E+00 0. -1.
         -4    1    5    5    0  503  0.17861453629E+02 -0.20559381215E+03  0.96691008470E+02  0.22789690266E+03  0.00000000000E+00 0.  1.
         -3    1    6    6    0  502 -0.69053778842E+02  0.47084741572E+03 -0.33138500654E+03  0.57989803916E+03  0.00000000000E+00 0.  1.
<mgrwt>
<rscale>  0 0.12796194E+04</rscale>
<asrwt>0</asrwt>
<pdfrwt beam="1">  1        2 0.10929251E+00 0.12796194E+04</pdfrwt>
<pdfrwt beam="2">  1       -2 0.88651178E-01 0.12796194E+04</pdfrwt>
<totfact> 0.43206870E+01</totfact>
</mgrwt>
</event>
<event>
12    1  0.1663913E-007  0.1118396E+04  0.7818608E-02  0.9187446E-01
          1   -1    0    0  501    0  0.00000000000E+00  0.00000000000E+00  0.94044958816E+03  0.94044958816E+03  0.00000000000E+00 0. -1.
         -1   -1    0    0    0  501 -0.00000000000E+00 -0.00000000000E+00 -0.33250280533E+03  0.33250280533E+03  0.00000000000E+00 0.  1.
         23    2    1    2    0    0 -0.41796756569E+01 -0.14083074099E+01 -0.95517750181E+02  0.13077269696E+03  0.89209891002E+02 0.  0.
        254    2    1    2    0    0  0.41796756569E+01  0.14083074099E+01  0.70346453301E+03  0.11421796965E+04  0.89982923766E+03 0.  0.
        -24    2    4    4    0    0  0.19009130938E+03 -0.36345374279E+03  0.56510064362E+03  0.70298494342E+03  0.81337348141E+02 0.  0.
         24    2    4    4    0    0 -0.18591163372E+03  0.36486205020E+03  0.13836388938E+03  0.43919475311E+03  0.77846092013E+02 0.  0.
         13    1    3    3    0    0 -0.73137367012E+01 -0.23898701226E+02  0.68517127832E+01  0.25914949988E+02  0.00000000000E+00 0. -1.
        -13    1    3    3    0    0  0.31340610443E+01  0.22490393816E+02 -0.10236946296E+03  0.10485774697E+03  0.00000000000E+00 0.  1.
          4    1    6    6  502    0 -0.12032066235E+03  0.28269263890E+03  0.74347131862E+02  0.31610075276E+03  0.00000000000E+00 0. -1.
          1    1    5    5  503    0  0.18726441896E+03 -0.36626321361E+03  0.56513998851E+03  0.69899922094E+03  0.00000000000E+00 0. -1.
         -2    1    5    5    0  503  0.28268904151E+01  0.28094708190E+01 -0.39344889199E-01  0.39857224843E+01  0.00000000000E+00 0.  1.
         -3    1    6    6    0  502 -0.65590971366E+02  0.82169411300E+02  0.64016757522E+02  0.12309400035E+03  0.00000000000E+00 0.  1.
<mgrwt>
<rscale>  0 0.11183955E+04</rscale>
<asrwt>0</asrwt>
<pdfrwt beam="1">  1        1 0.14468455E+00 0.11183955E+04</pdfrwt>
<pdfrwt beam="2">  1       -1 0.51154278E-01 0.11183955E+04</pdfrwt>
<totfact> 0.64499321E+01</totfact>
</mgrwt>
</event>
<event>
12    1  0.1663913E-007  0.2455428E+04  0.7818608E-02  0.8419039E-01
          2   -1    0    0  501    0  0.00000000000E+00  0.00000000000E+00  0.18205660997E+04  0.18205660997E+04  0.00000000000E+00 0. -1.
         -2   -1    0    0    0  501 -0.00000000000E+00 -0.00000000000E+00 -0.82791951884E+03  0.82791951884E+03  0.00000000000E+00 0.  1.
         23    2    1    2    0    0  0.65562723982E+03  0.47359318582E+02  0.13283512880E+04  0.14849241618E+04  0.91611349707E+02 0.  0.
        254    2    1    2    0    0 -0.65562723982E+03 -0.47359318582E+02 -0.33570470718E+03  0.11635614567E+04  0.89949298520E+03 0.  0.
        -24    2    4    4    0    0 -0.83947065520E+03 -0.19428807243E+03 -0.26410704552E+03  0.90484534342E+03  0.80831478879E+02 0.  0.
         24    2    4    4    0    0  0.18384341539E+03  0.14692875384E+03 -0.71597661660E+02  0.25871611327E+03  0.80133276622E+02 0.  0.
         13    1    3    3    0    0  0.54922865706E+03  0.21986414790E+02  0.11672709833E+04  0.12902159000E+04  0.00000000000E+00 0. -1.
        -13    1    3    3    0    0  0.10639858276E+03  0.25372903793E+02  0.16108030472E+03  0.19470826184E+03  0.00000000000E+00 0.  1.
          4    1    6    6  502    0  0.16074687710E+03  0.13687746008E+03 -0.87918345142E+02  0.22870206162E+03  0.00000000000E+00 0. -1.
          1    1    5    5  503    0 -0.22485735016E+03 -0.74245913870E+02 -0.42610859664E+02  0.24060126560E+03  0.00000000000E+00 0. -1.
         -2    1    5    5    0  503 -0.61461330505E+03 -0.12004215856E+03 -0.22149618585E+03  0.66424407782E+03  0.00000000000E+00 0.  1.
         -3    1    6    6    0  502  0.23096538291E+02  0.10051293763E+02  0.16320683482E+02  0.30014051654E+02  0.00000000000E+00 0.  1.
<mgrwt>
<rscale>  0 0.24554284E+04</rscale>
<asrwt>0</asrwt>
<pdfrwt beam="1">  1        2 0.28008709E+00 0.24554284E+04</pdfrwt>
<pdfrwt beam="2">  1       -2 0.12737223E+00 0.24554284E+04</pdfrwt>
<totfact> 0.34410169E+00</totfact>
</mgrwt>
</event>
<event>
12    1  0.1663913E-007  0.2162086E+04  0.7818608E-02  0.8534377E-01
          2   -1    0    0  501    0  0.00000000000E+00  0.00000000000E+00  0.17209142741E+04  0.17209142741E+04  0.00000000000E+00 0. -1.
         -2   -1    0    0    0  501 -0.00000000000E+00 -0.00000000000E+00 -0.67908891759E+03  0.67908891759E+03  0.00000000000E+00 0.  1.
         23    2    1    2    0    0 -0.24990997689E+03  0.11733530853E+03 -0.51380131526E+03  0.59013595143E+03  0.89699935523E+02 0.  0.
        254    2    1    2    0    0  0.24990997689E+03 -0.11733530853E+03  0.15556266718E+04  0.18098672403E+04  0.88284908921E+03 0.  0.
        -24    2    4    4    0    0  0.25639879000E+03 -0.46952953908E+03  0.73084969279E+03  0.90945825898E+03  0.82308710387E+02 0.  0.
         24    2    4    4    0    0 -0.64888131147E+01  0.35219423054E+03  0.82477697902E+03  0.90040898132E+03  0.79977420572E+02 0.  0.
         11    1    3    3    0    0 -0.25001315396E+03  0.11298245180E+03 -0.45601185977E+03  0.53218270154E+03  0.00000000000E+00 0.  1.
        -11    1    3    3    0    0  0.10317707179E+00  0.43528567346E+01 -0.57789455488E+02  0.57953249890E+02  0.00000000000E+00 0. -1.
          2    1    6    6  502    0  0.13471996527E+02  0.64808421335E+02  0.94605871895E+02  0.11546383487E+03  0.00000000000E+00 0. -1.
          1    1    5    5  503    0  0.54669468893E+02 -0.45451209420E+02  0.11065459961E+03  0.13152567689E+03  0.00000000000E+00 0. -1.
         -2    1    5    5    0  503  0.20172932111E+03 -0.42407832966E+03  0.62019509318E+03  0.77793258209E+03  0.00000000000E+00 0.  1.
         -1    1    6    6    0  502 -0.19960809642E+02  0.28738580921E+03  0.73017110712E+03  0.78494514645E+03  0.00000000000E+00 0.  1.
<mgrwt>
<rscale>  0 0.21620859E+04</rscale>
<asrwt>0</asrwt>
<pdfrwt beam="1">  1        2 0.26475604E+00 0.21620859E+04</pdfrwt>
<pdfrwt beam="2">  1       -2 0.10447522E+00 0.21620859E+04</pdfrwt>
<totfact> 0.65131956E+00</totfact>
</mgrwt>
</event>
<event>
12    1  0.1663913E-007  0.1274133E+04  0.7818608E-02  0.9050333E-01
         -1   -1    0    0    0  501 -0.00000000000E+00  0.00000000000E+00  0.43090352202E+03  0.43090352202E+03  0.00000000000E+00 0.  1.
          1   -1    0    0  501    0  0.00000000000E+00 -0.00000000000E+00 -0.94186697856E+03  0.94186697856E+03  0.00000000000E+00 0. -1.
         23    2    1    2    0    0  0.15763687749E+03  0.16477267261E+03  0.74998939128E+02  0.25668930763E+03  0.90912820876E+02 0.  0.
        254    2    1    2    0    0 -0.15763687749E+03 -0.16477267261E+03 -0.58596239567E+03  0.11160811929E+04  0.92210947360E+03 0.  0.
        -24    2    4    4    0    0  0.10873544079E+02 -0.29725322138E+03  0.15248329350E+03  0.34301263672E+03  0.76998717994E+02 0.  0.
         24    2    4    4    0    0 -0.16851042157E+03  0.13248054877E+03 -0.73844568917E+03  0.77306855622E+03  0.79913070121E+02 0.  0.
         13    1    3    3    0    0  0.81485606194E+02  0.12724319158E+03  0.81257641650E+02  0.17156205334E+03  0.00000000000E+00 0. -1.
        -13    1    3    3    0    0  0.76151271294E+02  0.37529481034E+02 -0.62587025225E+01  0.85127254294E+02  0.00000000000E+00 0.  1.
          2    1    6    6  502    0 -0.13987125206E+03  0.75408428713E+02 -0.43857172601E+03  0.46647138940E+03  0.00000000000E+00 0. -1.
          1    1    5    5  503    0  0.34750384469E+02 -0.14256130838E+03  0.46284300976E+02  0.15386212134E+03  0.00000000000E+00 0. -1.
         -2    1    5    5    0  503 -0.23876840391E+02 -0.15469191301E+03  0.10619899252E+03  0.18915051538E+03  0.00000000000E+00 0.  1.
         -1    1    6    6    0  502 -0.28639169508E+02  0.57072120058E+02 -0.29987396316E+03  0.30659716682E+03  0.00000000000E+00 0.  1.
<mgrwt>
<rscale>  0 0.12741331E+04</rscale>
<asrwt>0</asrwt>
<pdfrwt beam="1">  1        1 0.14490261E+00 0.12741331E+04</pdfrwt>
<pdfrwt beam="2">  1       -1 0.66292849E-01 0.12741331E+04</pdfrwt>
<totfact> 0.38199030E+01</totfact>
</mgrwt>
</event>
<event>
12    1  0.1663913E-007  0.2179588E+04  0.7818608E-02  0.8526972E-01
          2   -1    0    0  501    0  0.00000000000E+00  0.00000000000E+00  0.18839145645E+04  0.18839145645E+04  0.00000000000E+00 0. -1.
         -2   -1    0    0    0  501 -0.00000000000E+00 -0.00000000000E+00 -0.63041643034E+03  0.63041643034E+03  0.00000000000E+00 0.  1.
         23    2    1    2    0    0 -0.69870428730E+03 -0.20410493013E+03 -0.93784490787E+02  0.73933014825E+03  0.89258242199E+02 0.  0.
        254    2    1    2    0    0  0.69870428730E+03  0.20410493013E+03  0.13472826249E+04  0.17750008466E+04  0.89755837151E+03 0.  0.
        -24    2    4    4    0    0  0.52201718541E+03  0.48466530989E+03  0.53593959876E+03  0.89495989308E+03  0.79495611391E+02 0.  0.
         24    2    4    4    0    0  0.17668710190E+03 -0.28056037977E+03  0.81134302617E+03  0.88004095348E+03  0.79133526565E+02 0.  0.
         11    1    3    3    0    0 -0.26136410176E+03 -0.89113253391E+02 -0.77603295012E+02  0.28683555745E+03  0.00000000000E+00 0.  1.
        -11    1    3    3    0    0 -0.43734018554E+03 -0.11499167674E+03 -0.16181195775E+02  0.45249459080E+03  0.00000000000E+00 0. -1.
          2    1    6    6  502    0  0.10245088790E+02 -0.68896315878E+02  0.13135168402E+03  0.14867726484E+03  0.00000000000E+00 0. -1.
          1    1    5    5  503    0  0.86735156355E+02  0.12469360868E+03  0.11505448957E+03  0.19054925600E+03  0.00000000000E+00 0. -1.
         -2    1    5    5    0  503  0.43528202905E+03  0.35997170122E+03  0.42088510919E+03  0.70441063708E+03  0.00000000000E+00 0.  1.
         -1    1    6    6    0  502  0.16644201311E+03 -0.21166406389E+03  0.67999134215E+03  0.73136368864E+03  0.00000000000E+00 0.  1.
<mgrwt>
<rscale>  0 0.21795878E+04</rscale>
<asrwt>0</asrwt>
<pdfrwt beam="1">  1        2 0.28983301E+00 0.21795878E+04</pdfrwt>
<pdfrwt beam="2">  1       -2 0.96987143E-01 0.21795878E+04</pdfrwt>
<totfact> 0.63006332E+00</totfact>
</mgrwt>
</event>
<event>
12    1  0.1663913E-007  0.2066067E+04  0.7818608E-02  0.8576340E-01
         -1   -1    0    0    0  501 -0.00000000000E+00  0.00000000000E+00  0.14720395899E+04  0.14720395899E+04  0.00000000000E+00 0.  1.
          1   -1    0    0  501    0  0.00000000000E+00 -0.00000000000E+00 -0.72495232609E+03  0.72495232609E+03  0.00000000000E+00 0. -1.
         23    2    1    2    0    0  0.67080477195E+03 -0.29433863654E+03  0.72571804913E+03  0.10353776036E+04  0.93412098623E+02 0.  0.
        254    2    1    2    0    0 -0.67080477195E+03  0.29433863654E+03  0.21369214642E+02  0.11616143124E+04  0.90126405248E+03 0.  0.
        -24    2    4    4    0    0 -0.60410618910E+03  0.58772499402E+03 -0.15033409126E+02  0.84717058880E+03  0.84303302578E+02 0.  0.
         24    2    4    4    0    0 -0.66698582848E+02 -0.29338635748E+03  0.36402623769E+02  0.31444372355E+03  0.83817948888E+02 0.  0.
         13    1    3    3    0    0  0.36795070207E+03 -0.16421946146E+03  0.33352882378E+03  0.52306522248E+03  0.00000000000E+00 0.  1.
        -13    1    3    3    0    0  0.30285406988E+03 -0.13011917508E+03  0.39218922535E+03  0.51231238112E+03  0.00000000000E+00 0. -1.
          4    1    6    6  502    0  0.15288440738E+02 -0.24968029764E+02 -0.78618539680E+01  0.30314149804E+02  0.00000000000E+00 0. -1.
          1    1    5    5  503    0 -0.47387780939E+02  0.24690081042E+02 -0.14523417048E+02  0.55372660465E+02  0.00000000000E+00 0. -1.
         -2    1    5    5    0  503 -0.55671840816E+03  0.56303491298E+03 -0.50999207789E+00  0.79179792833E+03  0.00000000000E+00 0.  1.
         -3    1    6    6    0  502 -0.81987023586E+02 -0.26841832772E+03  0.44264477737E+02  0.28412957375E+03  0.00000000000E+00 0.  1.
<mgrwt>
<rscale>  0 0.20660673E+04</rscale>
<asrwt>0</asrwt>
<pdfrwt beam="1">  1        1 0.11153113E+00 0.20660673E+04</pdfrwt>
<pdfrwt beam="2">  1       -1 0.22646763E+00 0.20660673E+04</pdfrwt>
<totfact> 0.23725307E+00</totfact>
</mgrwt>
</event>
<event>
12    1  0.1663913E-007  0.2580102E+04  0.7818608E-02  0.8374992E-01
          1   -1    0    0  501    0  0.00000000000E+00  0.00000000000E+00  0.17658710854E+04  0.17658710854E+04  0.00000000000E+00 0. -1.
         -1   -1    0    0    0  501 -0.00000000000E+00 -0.00000000000E+00 -0.94244236677E+03  0.94244236677E+03  0.00000000000E+00 0.  1.
         23    2    1    2    0    0  0.25149649933E+03 -0.97256556582E+03  0.90727966827E+03  0.13566937192E+04  0.91253395771E+02 0.  0.
        254    2    1    2    0    0 -0.25149649933E+03  0.97256556582E+03 -0.83850949674E+02  0.13516197329E+04  0.90039471996E+03 0.  0.
        -24    2    4    4    0    0 -0.33226427877E+03  0.13428096281E+03  0.24710390363E+03  0.44314708503E+03  0.82994408606E+02 0.  0.
         24    2    4    4    0    0  0.80767779443E+02  0.83828460301E+03 -0.33095485330E+03  0.90847264792E+03  0.80913084576E+02 0.  0.
         13    1    3    3    0    0  0.19580600719E+03 -0.73940336954E+03  0.63681948382E+03  0.99528708939E+03  0.00000000000E+00 0. -1.
        -13    1    3    3    0    0  0.55690492141E+02 -0.23316219628E+03  0.27046018445E+03  0.36140662980E+03  0.00000000000E+00 0.  1.
          2    1    6    6  502    0  0.29284711837E+02  0.68233437432E+02 -0.30911676369E+02  0.80429646693E+02  0.00000000000E+00 0. -1.
          3    1    5    5  503    0 -0.14901878222E+03  0.77739531563E+02  0.69877555372E+02  0.18202446255E+03  0.00000000000E+00 0. -1.
         -4    1    5    5    0  503 -0.18324549656E+03  0.56541431248E+02  0.17722634825E+03  0.26112262248E+03  0.00000000000E+00 0.  1.
         -1    1    6    6    0  502  0.51483067606E+02  0.77005116558E+03 -0.30004317693E+03  0.82804300122E+03  0.00000000000E+00 0.  1.
<mgrwt>
<rscale>  0 0.25801021E+04</rscale>
<asrwt>0</asrwt>
<pdfrwt beam="1">  1        1 0.27167247E+00 0.25801021E+04</pdfrwt>
<pdfrwt beam="2">  1       -1 0.14499113E+00 0.25801021E+04</pdfrwt>
<totfact> 0.14489490E+00</totfact>
</mgrwt>
</event>
<event>
12    1  0.1663913E-007  0.1860191E+04  0.7818608E-02  0.8674930E-01
          2   -1    0    0  501    0  0.00000000000E+00  0.00000000000E+00  0.35559013483E+04  0.35559013483E+04  0.00000000000E+00 0. -1.
         -2   -1    0    0    0  501 -0.00000000000E+00 -0.00000000000E+00 -0.24327939451E+03  0.24327939451E+03  0.00000000000E+00 0.  1.
         23    2    1    2    0    0  0.62403227254E+03  0.14535404037E+03  0.19045738613E+04  0.20113931526E+04  0.88072395045E+02 0.  0.
        254    2    1    2    0    0 -0.62403227254E+03 -0.14535404037E+03  0.14080480925E+04  0.17877875902E+04  0.89612552853E+03 0.  0.
        -24    2    4    4    0    0 -0.22686491119E+03 -0.28796138994E+03  0.69280774613E+02  0.38213736894E+03  0.82702436411E+02 0.  0.
         24    2    4    4    0    0 -0.39716736135E+03  0.14260734957E+03  0.13387673179E+04  0.14056502213E+04  0.73998947177E+02 0.  0.
         13    1    3    3    0    0  0.57300116419E+03  0.14742156727E+03  0.16817731500E+04  0.17828136136E+04  0.00000000000E+00 0.  1.
        -13    1    3    3    0    0  0.51031108343E+02 -0.20675269033E+01  0.22280071132E+03  0.22857953900E+03  0.00000000000E+00 0. -1.
          2    1    6    6  502    0 -0.97496331535E+02  0.25055748738E+01  0.31775450073E+03  0.33238492039E+03  0.00000000000E+00 0. -1.
          1    1    5    5  503    0 -0.69051986398E+02 -0.41481795179E+02  0.33666564276E+02  0.87306092038E+02  0.00000000000E+00 0. -1.
         -2    1    5    5    0  503 -0.15781292479E+03 -0.24647959476E+03  0.35614210337E+02  0.29483127691E+03  0.00000000000E+00 0.  1.
         -1    1    6    6    0  502 -0.29967102982E+03  0.14010177470E+03  0.10210128171E+04  0.10732653009E+04  0.00000000000E+00 0.  1.
<mgrwt>
<rscale>  0 0.18601909E+04</rscale>
<asrwt>0</asrwt>
<pdfrwt beam="1">  1        2 0.54706171E+00 0.18601909E+04</pdfrwt>
<pdfrwt beam="2">  1       -2 0.37427602E-01 0.18601909E+04</pdfrwt>
<totfact> 0.47331102E+00</totfact>
</mgrwt>
</event>
<event>
12    1  0.1663913E-007  0.1666124E+04  0.7818608E-02  0.8780924E-01
         -1   -1    0    0    0  501 -0.00000000000E+00  0.00000000000E+00  0.23070812149E+03  0.23070812149E+03  0.00000000000E+00 0.  1.
          1   -1    0    0  501    0  0.00000000000E+00 -0.00000000000E+00 -0.30080981676E+04  0.30080981676E+04  0.00000000000E+00 0. -1.
         23    2    1    2    0    0  0.12406743953E+03  0.45813137399E+03 -0.16630240969E+04  0.17318194244E+04  0.90952111914E+02 0.  0.
        254    2    1    2    0    0 -0.12406743953E+03 -0.45813137399E+03 -0.11143659492E+04  0.15069868647E+04  0.89661633716E+03 0.  0.
        -24    2    4    4    0    0 -0.47562540955E+03 -0.75727431138E+02 -0.57341268660E+03  0.75279782624E+03  0.77125119088E+02 0.  0.
         24    2    4    4    0    0  0.35155797003E+03 -0.38240394285E+03 -0.54095326263E+03  0.75418903842E+03  0.79654827391E+02 0.  0.
         11    1    3    3    0    0  0.13001547609E+03  0.35844539828E+03 -0.12479310636E+04  0.13048827790E+04  0.00000000000E+00 0. -1.
        -11    1    3    3    0    0 -0.59480365594E+01  0.99685975701E+02 -0.41509303329E+03  0.42693664539E+03  0.00000000000E+00 0.  1.
          4    1    6    6  502    0  0.51846358907E+02 -0.58524536748E+02 -0.12702192236E+03  0.14915674672E+03  0.00000000000E+00 0. -1.
          1    1    5    5  503    0 -0.93900615023E+02 -0.46831637578E+02 -0.12468998498E+03  0.16296662277E+03  0.00000000000E+00 0. -1.
         -2    1    5    5    0  503 -0.38172479453E+03 -0.28895793560E+02 -0.44872270161E+03  0.58983120347E+03  0.00000000000E+00 0.  1.
         -1    1    6    6    0  502  0.29971161112E+03 -0.32387940610E+03 -0.41393134027E+03  0.60503229169E+03  0.00000000000E+00 0.  1.
<mgrwt>
<rscale>  0 0.16661245E+04</rscale>
<asrwt>0</asrwt>
<pdfrwt beam="1">  1        1 0.46278431E+00 0.16661245E+04</pdfrwt>
<pdfrwt beam="2">  1       -1 0.35493559E-01 0.16661245E+04</pdfrwt>
<totfact> 0.42767009E+00</totfact>
</mgrwt>
</event>
<event>
12    1  0.1663913E-007  0.1384408E+04  0.7818608E-02  0.8965182E-01
          2   -1    0    0  501    0  0.00000000000E+00  0.00000000000E+00  0.50784979911E+03  0.50784979911E+03  0.00000000000E+00 0. -1.
         -2   -1    0    0    0  501 -0.00000000000E+00 -0.00000000000E+00 -0.94348114920E+03  0.94348114920E+03  0.00000000000E+00 0.  1.
         23    2    1    2    0    0 -0.14174278349E+03 -0.25283175851E+03 -0.28088342724E+03  0.41376890782E+03  0.91073017962E+02 0.  0.
        254    2    1    2    0    0  0.14174278349E+03  0.25283175851E+03 -0.15474792286E+03  0.10375620405E+04  0.98416114201E+03 0.  0.
        -24    2    4    4    0    0 -0.25535192912E+02  0.50160211726E+03  0.21717614536E+03  0.55335076659E+03  0.82309553843E+02 0.  0.
         24    2    4    4    0    0  0.16727797640E+03 -0.24877035875E+03 -0.37192406822E+03  0.48421127390E+03  0.79148167783E+02 0.  0.
         13    1    3    3    0    0 -0.14820550458E+03 -0.19548263266E+03 -0.21513351403E+03  0.32628325136E+03  0.00000000000E+00 0.  1.
        -13    1    3    3    0    0  0.64627210901E+01 -0.57349125855E+02 -0.65749913207E+02  0.87485656464E+02  0.00000000000E+00 0. -1.
          4    1    6    6  502    0  0.21006300384E+02 -0.61886350184E+02 -0.12896312260E+03  0.14457756391E+03  0.00000000000E+00 0. -1.
          3    1    5    5  503    0  0.24735442145E+02  0.13043154359E+03  0.76667126112E+02  0.15330387434E+03  0.00000000000E+00 0. -1.
         -4    1    5    5    0  503 -0.50270635056E+02  0.37117057367E+03  0.14050901925E+03  0.40004689225E+03  0.00000000000E+00 0.  1.
         -1    1    6    6    0  502  0.14627167602E+03 -0.18688400856E+03 -0.24296094563E+03  0.33963370999E+03  0.00000000000E+00 0.  1.
<mgrwt>
<rscale>  0 0.13844085E+04</rscale>
<asrwt>0</asrwt>
<pdfrwt beam="1">  1        2 0.78130739E-01 0.13844085E+04</pdfrwt>
<pdfrwt beam="2">  1       -2 0.14515095E+00 0.13844085E+04</pdfrwt>
<totfact> 0.19239248E+01</totfact>
</mgrwt>
</event>
<event>
12    1  0.1663913E-007  0.1284788E+04  0.7818608E-02  0.9041716E-01
         -2   -1    0    0    0  501 -0.00000000000E+00  0.00000000000E+00  0.12352396655E+04  0.12352396655E+04  0.00000000000E+00 0.  1.
          2   -1    0    0  501    0  0.00000000000E+00 -0.00000000000E+00 -0.33408105230E+03  0.33408105230E+03  0.00000000000E+00 0. -1.
         23    2    1    2    0    0 -0.37335933272E+02 -0.58494394995E+02 -0.16341326033E+03  0.20060632008E+03  0.93399335370E+02 0.  0.
        254    2    1    2    0    0  0.37335933272E+02  0.58494394995E+02  0.10645718736E+04  0.13687143977E+04  0.85746735359E+03 0.  0.
        -24    2    4    4    0    0  0.12088221522E+03 -0.29509037165E+03  0.11434522184E+03  0.34806963888E+03  0.79917497164E+02 0.  0.
         24    2    4    4    0    0 -0.83546281947E+02  0.35358476665E+03  0.95022665171E+03  0.10206447589E+04  0.82358155306E+02 0.  0.
         11    1    3    3    0    0  0.17335859648E+02 -0.22806367556E+02 -0.47542007276E+01  0.29039022976E+02  0.00000000000E+00 0.  1.
        -11    1    3    3    0    0 -0.54671792921E+02 -0.35688027438E+02 -0.15865905960E+03  0.17156729711E+03  0.00000000000E+00 0. -1.
          4    1    6    6  502    0 -0.58936649824E+02  0.29848414130E+03  0.70029480786E+03  0.76353069959E+03  0.00000000000E+00 0. -1.
          1    1    5    5  503    0  0.62507551258E+02 -0.24126317994E+03  0.82690660218E+02  0.26258876832E+03  0.00000000000E+00 0. -1.
         -4    1    5    5    0  503  0.58374663962E+02 -0.53827191711E+02  0.31654561626E+02  0.85480870561E+02  0.00000000000E+00 0.  1.
         -3    1    6    6    0  502 -0.24609632123E+02  0.55100625350E+02  0.24993184385E+03  0.25711405927E+03  0.00000000000E+00 0.  1.
<mgrwt>
<rscale>  0 0.12847882E+04</rscale>
<asrwt>0</asrwt>
<pdfrwt beam="1">  1        2 0.51397086E-01 0.12847882E+04</pdfrwt>
<pdfrwt beam="2">  1       -2 0.19003687E+00 0.12847882E+04</pdfrwt>
<totfact> 0.14782416E+01</totfact>
</mgrwt>
</event>
<event>
12    1  0.1663913E-007  0.1400127E+04  0.7818608E-02  0.8953726E-01
         -2   -1    0    0    0  501 -0.00000000000E+00  0.00000000000E+00  0.33334855709E+03  0.33334855709E+03  0.00000000000E+00 0.  1.
          2   -1    0    0  501    0  0.00000000000E+00 -0.00000000000E+00 -0.14702004321E+04  0.14702004321E+04  0.00000000000E+00 0. -1.
         23    2    1    2    0    0  0.29255633946E+03 -0.17858532664E+03 -0.50156009584E+02  0.35837824560E+03  0.91855380761E+02 0.  0.
        254    2    1    2    0    0 -0.29255633946E+03  0.17858532664E+03 -0.10866958654E+04  0.14451707436E+04  0.88889180644E+03 0.  0.
        -24    2    4    4    0    0  0.19368094542E+03  0.12346167040E+03  0.86184576778E+01  0.24279391640E+03  0.78227331239E+02 0.  0.
         24    2    4    4    0    0 -0.48623728488E+03  0.55123656240E+02 -0.10953143231E+04  0.12023768272E+04  0.80816171007E+02 0.  0.
         11    1    3    3    0    0  0.29337582301E+03 -0.17388015761E+03 -0.61076301997E+02  0.34645922907E+03  0.00000000000E+00 0.  1.
        -11    1    3    3    0    0 -0.81948355079E+00 -0.47051690268E+01  0.10920292412E+02  0.11919016538E+02  0.00000000000E+00 0. -1.
          2    1    6    6  502    0 -0.71349162565E+02 -0.92055217882E+01 -0.22235703859E+03  0.23370515022E+03  0.00000000000E+00 0. -1.
          3    1    5    5  503    0  0.11612864275E+02 -0.10322171166E+02  0.65166675414E+01  0.16848524864E+02  0.00000000000E+00 0. -1.
         -4    1    5    5    0  503  0.18206808114E+03  0.13378384157E+03  0.21017901364E+01  0.22594539154E+03  0.00000000000E+00 0.  1.
         -1    1    6    6    0  502 -0.41488812231E+03  0.64329178028E+02 -0.87295728451E+03  0.96867167697E+03  0.00000000000E+00 0.  1.
<mgrwt>
<rscale>  0 0.14001274E+04</rscale>
<asrwt>0</asrwt>
<pdfrwt beam="1">  1        2 0.22618468E+00 0.14001274E+04</pdfrwt>
<pdfrwt beam="2">  1       -2 0.51284394E-01 0.14001274E+04</pdfrwt>
<totfact> 0.46135642E+01</totfact>
</mgrwt>
</event>
<event>
12    1  0.1663913E-007  0.1737376E+04  0.7818608E-02  0.8740330E-01
         -1   -1    0    0    0  501 -0.00000000000E+00  0.00000000000E+00  0.65639834060E+03  0.65639834060E+03  0.00000000000E+00 0.  1.
          1   -1    0    0  501    0  0.00000000000E+00 -0.00000000000E+00 -0.11496356329E+04  0.11496356329E+04  0.00000000000E+00 0. -1.
         23    2    1    2    0    0 -0.10067204186E+03 -0.32583720922E+03  0.37407267767E+03  0.51461837753E+03  0.92719789615E+02 0.  0.
        254    2    1    2    0    0  0.10067204186E+03  0.32583720922E+03 -0.86730996993E+03  0.12914155959E+04  0.89399267926E+03 0.  0.
        -24    2    4    4    0    0 -0.59571973693E+02  0.13157591936E+03 -0.98770720270E+03  0.10008910327E+04  0.73186737648E+02 0.  0.
         24    2    4    4    0    0  0.16024401556E+03  0.19426128986E+03  0.12039723277E+03  0.29052456319E+03  0.80581852154E+02 0.  0.
         11    1    3    3    0    0 -0.55274742864E+02 -0.21453349613E+03  0.30171402276E+03  0.37431439952E+03  0.00000000000E+00 0.  1.
        -11    1    3    3    0    0 -0.45397298999E+02 -0.11130371309E+03  0.72358654912E+02  0.14030397801E+03  0.00000000000E+00 0. -1.
          4    1    6    6  502    0  0.18958602583E+02  0.74415464290E+02  0.53311592539E+02  0.93483773118E+02  0.00000000000E+00 0. -1.
          3    1    5    5  503    0 -0.28902229784E+02  0.82854167218E+01 -0.10994465115E+03  0.11398163595E+03  0.00000000000E+00 0. -1.
         -4    1    5    5    0  503 -0.30669743909E+02  0.12329050264E+03 -0.87776255155E+03  0.88690939680E+03  0.00000000000E+00 0.  1.
         -3    1    6    6    0  502  0.14128541297E+03  0.11984582557E+03  0.67085640234E+02  0.19704079007E+03  0.00000000000E+00 0.  1.
<mgrwt>
<rscale>  0 0.17373761E+04</rscale>
<asrwt>0</asrwt>
<pdfrwt beam="1">  1        1 0.17686702E+00 0.17373761E+04</pdfrwt>
<pdfrwt beam="2">  1       -1 0.10098436E+00 0.17373761E+04</pdfrwt>
<totfact> 0.10291130E+01</totfact>
</mgrwt>
</event>
<event>
12    1  0.1663913E-007  0.1659505E+04  0.7818608E-02  0.8784803E-01
         -2   -1    0    0    0  501 -0.00000000000E+00  0.00000000000E+00  0.15974763354E+03  0.15974763354E+03  0.00000000000E+00 0.  1.
          2   -1    0    0  501    0  0.00000000000E+00 -0.00000000000E+00 -0.43098547474E+04  0.43098547474E+04  0.00000000000E+00 0. -1.
         23    2    1    2    0    0  0.73543334382E+02 -0.38689637105E+03 -0.31995987444E+03  0.51534994241E+03  0.90076733502E+02 0.  0.
        254    2    1    2    0    0 -0.73543334382E+02  0.38689637105E+03 -0.38301472394E+04  0.39542524386E+04  0.90054819310E+03 0.  0.
        -24    2    4    4    0    0  0.30386364486E+03  0.37165396773E+03 -0.29964650310E+04  0.30356283611E+04  0.76007092531E+02 0.  0.
         24    2    4    4    0    0 -0.37740697924E+03  0.15242403320E+02 -0.83368220846E+03  0.91862407751E+03  0.78586336239E+02 0.  0.
         13    1    3    3    0    0  0.89827902947E+02 -0.24525421109E+03 -0.21526658275E+03  0.33846474241E+03  0.00000000000E+00 0.  1.
        -13    1    3    3    0    0 -0.16284568565E+02 -0.14164215997E+03 -0.10469329169E+03  0.17688520000E+03  0.00000000000E+00 0. -1.
          2    1    6    6  502    0 -0.75010769530E+01  0.12268762740E+02 -0.49936935731E+02  0.51966202910E+02  0.00000000000E+00 0. -1.
          1    1    5    5  503    0  0.36419871886E+02  0.13789992753E+02 -0.27293411480E+03  0.27569838953E+03  0.00000000000E+00 0. -1.
         -2    1    5    5    0  503  0.26744377297E+03  0.35786397498E+03 -0.27235309162E+04  0.27599299715E+04  0.00000000000E+00 0.  1.
         -1    1    6    6    0  502 -0.36990590229E+03  0.29736405800E+01 -0.78374527273E+03  0.86665787460E+03  0.00000000000E+00 0.  1.
<mgrwt>
<rscale>  0 0.16595049E+04</rscale>
<asrwt>0</asrwt>
<pdfrwt beam="1">  1        2 0.66305445E+00 0.16595049E+04</pdfrwt>
<pdfrwt beam="2">  1       -2 0.24576564E-01 0.16595049E+04</pdfrwt>
<totfact> 0.26889707E+00</totfact>
</mgrwt>
</event>
<event>
12    1  0.1663913E-007  0.2564450E+04  0.7818608E-02  0.8380378E-01
          1   -1    0    0  501    0  0.00000000000E+00  0.00000000000E+00  0.17550793058E+04  0.17550793058E+04  0.00000000000E+00 0. -1.
         -1   -1    0    0    0  501 -0.00000000000E+00 -0.00000000000E+00 -0.93676726068E+03  0.93676726068E+03  0.00000000000E+00 0.  1.
         23    2    1    2    0    0 -0.77718775449E+02 -0.10887017691E+04  0.72200842615E+02  0.10974705159E+04  0.88976521887E+02 0.  0.
        254    2    1    2    0    0  0.77718775449E+02  0.10887017691E+04  0.74611120249E+03  0.15943760506E+04  0.89108995844E+03 0.  0.
        -24    2    4    4    0    0 -0.35196005710E+02 -0.11879122191E+03 -0.30718049082E+02  0.15189123076E+03  0.82323958974E+02 0.  0.
         24    2    4    4    0    0  0.11291478116E+03  0.12074929910E+04  0.77682925157E+03  0.14424848198E+04  0.80682700362E+02 0.  0.
         13    1    3    3    0    0 -0.37445400272E+02 -0.49225634093E+03 -0.11643810798E+02  0.49381579715E+03  0.00000000000E+00 0.  1.
        -13    1    3    3    0    0 -0.40273375177E+02 -0.59644542818E+03  0.83844653413E+02  0.60365471874E+03  0.00000000000E+00 0. -1.
          2    1    6    6  502    0  0.12184365714E+03  0.11845405673E+04  0.76233031408E+03  0.14139058455E+04  0.00000000000E+00 0. -1.
          3    1    5    5  503    0 -0.50512858739E+02 -0.10252283981E+03 -0.47680119265E+02  0.12383810139E+03  0.00000000000E+00 0. -1.
         -4    1    5    5    0  503  0.15316853029E+02 -0.16268382093E+02  0.16962070183E+02  0.28053129371E+02  0.00000000000E+00 0.  1.
         -1    1    6    6    0  502 -0.89288759778E+01  0.22952423759E+02  0.14498937494E+02  0.28578974283E+02  0.00000000000E+00 0.  1.
<mgrwt>
<rscale>  0 0.25644499E+04</rscale>
<asrwt>0</asrwt>
<pdfrwt beam="1">  1        1 0.27001220E+00 0.25644499E+04</pdfrwt>
<pdfrwt beam="2">  1       -1 0.14411804E+00 0.25644499E+04</pdfrwt>
<totfact> 0.14995421E+00</totfact>
</mgrwt>
</event>
<event>
12    1  0.1663913E-007  0.2606526E+04  0.7818608E-02  0.8365988E-01
          2   -1    0    0  501    0  0.00000000000E+00  0.00000000000E+00  0.11332751570E+04  0.11332751570E+04  0.00000000000E+00 0.  1.
         -2   -1    0    0    0  501 -0.00000000000E+00 -0.00000000000E+00 -0.14987480302E+04  0.14987480302E+04  0.00000000000E+00 0. -1.
         23    2    1    2    0    0  0.42741548513E+02 -0.45256092735E+03  0.90206191121E+03  0.10143919793E+04  0.92936338366E+02 0.  0.
        254    2    1    2    0    0 -0.42741548513E+02  0.45256092735E+03 -0.12675347845E+04  0.16176312079E+04  0.89635264381E+03 0.  0.
        -24    2    4    4    0    0 -0.43934483088E+03  0.35492103042E+03 -0.58027590283E+03  0.81467312034E+03  0.89327215018E+02 0.  0.
         24    2    4    4    0    0  0.39660328237E+03  0.97639896929E+02 -0.68725888166E+03  0.80295808760E+03  0.74760998905E+02 0.  0.
         11    1    3    3    0    0  0.19573337931E+02 -0.29440811851E+02  0.11752678004E+03  0.12272905518E+03  0.00000000000E+00 0. -1.
        -11    1    3    3    0    0  0.23168210582E+02 -0.42312011549E+03  0.78453513117E+03  0.89166292407E+03  0.00000000000E+00 0.  1.
          4    1    6    6  502    0  0.43092279090E+02  0.36012751555E+02 -0.84144077029E+02  0.10116367179E+03  0.00000000000E+00 0. -1.
          3    1    5    5  503    0 -0.91963480379E+02  0.33428986700E+02 -0.11442807486E+03  0.15056082887E+03  0.00000000000E+00 0. -1.
         -4    1    5    5    0  503 -0.34738135051E+03  0.32149204372E+03 -0.46584782798E+03  0.66411229147E+03  0.00000000000E+00 0.  1.
         -3    1    6    6    0  502  0.35351100328E+03  0.61627145374E+02 -0.60311480463E+03  0.70179441581E+03  0.00000000000E+00 0.  1.
<mgrwt>
<rscale>  0 0.26065256E+04</rscale>
<asrwt>0</asrwt>
<pdfrwt beam="1">  1        2 0.17435002E+00 0.26065256E+04</pdfrwt>
<pdfrwt beam="2">  1       -2 0.23057662E+00 0.26065256E+04</pdfrwt>
<totfact> 0.15579385E+00</totfact>
</mgrwt>
</event>
<event>
12    1  0.1663913E-007  0.1846200E+04  0.7818608E-02  0.8682109E-01
          1   -1    0    0  501    0  0.00000000000E+00  0.00000000000E+00  0.19808584756E+04  0.19808584756E+04  0.00000000000E+00 0. -1.
         -1   -1    0    0    0  501 -0.00000000000E+00 -0.00000000000E+00 -0.43017394327E+03  0.43017394327E+03  0.00000000000E+00 0.  1.
         23    2    1    2    0    0  0.31669916331E+03  0.41025400961E+03  0.11703542305E+04  0.12835400519E+04  0.95599830161E+02 0.  0.
        254    2    1    2    0    0 -0.31669916331E+03 -0.41025400961E+03  0.38033030186E+03  0.11274923670E+04  0.92627273882E+03 0.  0.
        -24    2    4    4    0    0 -0.21269421667E+03  0.13604557034E+03  0.48847216610E+03  0.55549355606E+03  0.78872091117E+02 0.  0.
         24    2    4    4    0    0 -0.10400494665E+03 -0.54629957995E+03 -0.10814186424E+03  0.57199881094E+03  0.78915885134E+02 0.  0.
         11    1    3    3    0    0  0.23943323948E+03  0.24084481068E+03  0.71355808764E+03  0.79025289840E+03  0.00000000000E+00 0.  1.
        -11    1    3    3    0    0  0.77265923833E+02  0.16940919893E+03  0.45679614287E+03  0.49328715350E+03  0.00000000000E+00 0. -1.
          2    1    6    6  502    0 -0.56056045420E+02 -0.31335364015E+03 -0.10134824157E+03  0.33407222287E+03  0.00000000000E+00 0. -1.
          3    1    5    5  503    0 -0.93781281703E+02  0.64205122292E+02  0.30405081331E+03  0.32459840357E+03  0.00000000000E+00 0. -1.
         -4    1    5    5    0  503 -0.11891293497E+03  0.71840448053E+02  0.18442135278E+03  0.23089515248E+03  0.00000000000E+00 0.  1.
         -1    1    6    6    0  502 -0.47948901226E+02 -0.23294593980E+03 -0.67936226663E+01  0.23792658806E+03  0.00000000000E+00 0.  1.
<mgrwt>
<rscale>  0 0.18462001E+04</rscale>
<asrwt>0</asrwt>
<pdfrwt beam="1">  1        1 0.30474745E+00 0.18462001E+04</pdfrwt>
<pdfrwt beam="2">  1       -1 0.66180608E-01 0.18462001E+04</pdfrwt>
<totfact> 0.66778004E+00</totfact>
</mgrwt>
</event>
<event>
12    1  0.2656566E-007  0.2444829E+04  0.7818608E-02  0.8422908E-01
          1   -1    0    0  501    0  0.00000000000E+00  0.00000000000E+00  0.12154408209E+04  0.12154408209E+04  0.00000000000E+00 0. -1.
         -1   -1    0    0    0  501 -0.00000000000E+00 -0.00000000000E+00 -0.12294283160E+04  0.12294283160E+04  0.00000000000E+00 0.  1.
         23    2    1    2    0    0  0.80261916474E+03 -0.47875736371E+03 -0.49791000810E+03  0.10627303522E+04  0.89862608513E+02 0.  0.
        254    2    1    2    0    0 -0.80261916474E+03  0.47875736371E+03  0.48392251307E+03  0.13821387847E+04  0.89594669746E+03 0.  0.
        -24    2    4    4    0    0 -0.47508879296E+03  0.38685112226E+03  0.72853805257E+03  0.95531770772E+03  0.80629254230E+02 0.  0.
         24    2    4    4    0    0 -0.32753037178E+03  0.91906241449E+02 -0.24461553951E+03  0.42682107701E+03  0.81342288869E+02 0.  0.
         11    1    3    3    0    0  0.13525135394E+03 -0.12027354848E+03 -0.10712933138E+03  0.21032201228E+03  0.00000000000E+00 0. -1.
        -11    1    3    3    0    0  0.66736781080E+03 -0.35848381523E+03 -0.39078067672E+03  0.85240833992E+03  0.00000000000E+00 0.  1.
          4    1    6    6  502    0 -0.32826369230E+03  0.80044847410E+02 -0.23669695383E+03  0.41254051587E+03  0.00000000000E+00 0. -1.
          1    1    5    5  503    0 -0.43989981145E+03  0.33029273337E+03  0.62982928848E+03  0.83623565247E+03  0.00000000000E+00 0. -1.
         -2    1    5    5    0  503 -0.35188981513E+02  0.56558388883E+02  0.98708764094E+02  0.11908205525E+03  0.00000000000E+00 0.  1.
         -3    1    6    6    0  502  0.73332051886E+00  0.11861394040E+02 -0.79185856751E+01  0.14280561146E+02  0.00000000000E+00 0.  1.
<mgrwt>
<rscale>  0 0.24448291E+04</rscale>
<asrwt>0</asrwt>
<pdfrwt beam="1">  1        1 0.18699090E+00 0.24448291E+04</pdfrwt>
<pdfrwt beam="2">  1       -1 0.18914282E+00 0.24448291E+04</pdfrwt>
<totfact> 0.16652516E+00</totfact>
</mgrwt>
</event>
<event>
12    1  0.1663913E-007  0.2550276E+04  0.7818608E-02  0.8385290E-01
         -3   -1    0    0    0  501 -0.00000000000E+00  0.00000000000E+00  0.11225344833E+04  0.11225344833E+04  0.00000000000E+00 0.  1.
          3   -1    0    0  501    0  0.00000000000E+00 -0.00000000000E+00 -0.14484869796E+04  0.14484869796E+04  0.00000000000E+00 0. -1.
         23    2    1    2    0    0 -0.13689766449E+03 -0.61986713282E+03 -0.10707331227E+04  0.12480641580E+04  0.90655885605E+02 0.  0.
        254    2    1    2    0    0  0.13689766449E+03  0.61986713282E+03  0.74478062632E+03  0.13229573049E+04  0.89024806452E+03 0.  0.
        -24    2    4    4    0    0  0.38189778483E+03  0.10017716851E+03  0.60415699958E+03  0.72606778259E+03  0.79292885055E+02 0.  0.
         24    2    4    4    0    0 -0.24500012034E+03  0.51968996430E+03  0.14062362674E+03  0.59688952233E+03  0.79996121791E+02 0.  0.
         13    1    3    3    0    0 -0.47093227424E+02 -0.22710886877E+03 -0.30923629872E+03  0.38655309957E+03  0.00000000000E+00 0. -1.
        -13    1    3    3    0    0 -0.89804437069E+02 -0.39275826405E+03 -0.76149682395E+03  0.86151105842E+03  0.00000000000E+00 0.  1.
          4    1    6    6  502    0 -0.12704991367E+03  0.35808601795E+03  0.96223402676E+02  0.39195180831E+03  0.00000000000E+00 0. -1.
          1    1    5    5  503    0  0.12737117407E+03 -0.39823782643E+01  0.17945221985E+03  0.22009628468E+03  0.00000000000E+00 0. -1.
         -2    1    5    5    0  503  0.25452661076E+03  0.10415954678E+03  0.42470477973E+03  0.50597149791E+03  0.00000000000E+00 0.  1.
         -3    1    6    6    0  502 -0.11795020666E+03  0.16160394636E+03  0.44400224067E+02  0.20493771402E+03  0.00000000000E+00 0.  1.
<mgrwt>
<rscale>  0 0.25502757E+04</rscale>
<asrwt>0</asrwt>
<pdfrwt beam="1">  1        3 0.22284415E+00 0.25502757E+04</pdfrwt>
<pdfrwt beam="2">  1       -3 0.17269761E+00 0.25502757E+04</pdfrwt>
<totfact> 0.54628177E-02</totfact>
</mgrwt>
</event>
<event>
12    1  0.1663913E-007  0.2319360E+04  0.7818608E-02  0.8470327E-01
          2   -1    0    0  501    0  0.00000000000E+00  0.00000000000E+00  0.21204338273E+04  0.21204338273E+04  0.00000000000E+00 0. -1.
         -2   -1    0    0    0  501 -0.00000000000E+00 -0.00000000000E+00 -0.63423724926E+03  0.63423724926E+03  0.00000000000E+00 0.  1.
         23    2    1    2    0    0 -0.22526381393E+03  0.92141243764E+03  0.33088976284E+03  0.10078994118E+04  0.81415742462E+02 0.  0.
        254    2    1    2    0    0  0.22526381393E+03 -0.92141243764E+03  0.11553068152E+04  0.17467716648E+04  0.90373267363E+03 0.  0.
        -24    2    4    4    0    0  0.22348097254E+03 -0.27426039646E+03 -0.59796923328E+02  0.36776050947E+03  0.80682154986E+02 0.  0.
         24    2    4    4    0    0  0.17828413856E+01 -0.64715204118E+03  0.12151037386E+04  0.13790111553E+04  0.79910750360E+02 0.  0.
         13    1    3    3    0    0 -0.57709692984E+01  0.26694014969E+02 -0.41392789117E+01  0.27622602189E+02  0.00000000000E+00 0. -1.
        -13    1    3    3    0    0 -0.21949284463E+03  0.89471842267E+03  0.33502904175E+03  0.98027680964E+03  0.00000000000E+00 0.  1.
          2    1    6    6  502    0 -0.26906058772E+02 -0.11372648781E+03  0.18987994588E+03  0.22296197854E+03  0.00000000000E+00 0. -1.
          3    1    5    5  503    0  0.19329615182E+03 -0.18766581674E+03 -0.28736132130E+02  0.27093841804E+03  0.00000000000E+00 0. -1.
         -4    1    5    5    0  503  0.30184820720E+02 -0.86594579721E+02 -0.31060791198E+02  0.96822091430E+02  0.00000000000E+00 0.  1.
         -1    1    6    6    0  502  0.28688900158E+02 -0.53342555337E+03  0.10252237927E+04  0.11560491767E+04  0.00000000000E+00 0.  1.
<mgrwt>
<rscale>  0 0.23193604E+04</rscale>
<asrwt>0</asrwt>
<pdfrwt beam="1">  1        2 0.32622058E+00 0.23193604E+04</pdfrwt>
<pdfrwt beam="2">  1       -2 0.97574963E-01 0.23193604E+04</pdfrwt>
<totfact> 0.45340956E+00</totfact>
</mgrwt>
</event>
<event>
12    1  0.1663913E-007  0.1337053E+04  0.7818608E-02  0.9000687E-01
         -2   -1    0    0    0  501 -0.00000000000E+00  0.00000000000E+00  0.48157963078E+03  0.48157963078E+03  0.00000000000E+00 0.  1.
          2   -1    0    0  501    0  0.00000000000E+00 -0.00000000000E+00 -0.92804556939E+03  0.92804556939E+03  0.00000000000E+00 0. -1.
         23    2    1    2    0    0 -0.22286315057E+03  0.16858648267E+03 -0.34116025832E+03  0.45062049058E+03  0.92623531844E+02 0.  0.
        254    2    1    2    0    0  0.22286315057E+03 -0.16858648267E+03 -0.10530568028E+03  0.95900470959E+03  0.91132396034E+03 0.  0.
        -24    2    4    4    0    0  0.35680747904E+03 -0.25313784462E+03  0.28628191545E+03  0.52899868741E+03  0.80572518227E+02 0.  0.
         24    2    4    4    0    0 -0.13394432846E+03  0.84551361945E+02 -0.39158759574E+03  0.43000602218E+03  0.80463147080E+02 0.  0.
         11    1    3    3    0    0 -0.21632064978E+03  0.16612083748E+03 -0.34710453626E+03  0.44144344514E+03  0.00000000000E+00 0. -1.
        -11    1    3    3    0    0 -0.65425007960E+01  0.24656451899E+01  0.59442779364E+01  0.91770454425E+01  0.00000000000E+00 0.  1.
          4    1    6    6  502    0 -0.10348259520E+03  0.42155393586E+02 -0.33439436501E+03  0.35256959039E+03  0.00000000000E+00 0. -1.
          3    1    5    5  503    0  0.25262403674E+03 -0.21082067201E+03  0.18398928436E+03  0.37698317793E+03  0.00000000000E+00 0. -1.
         -4    1    5    5    0  503  0.10418344230E+03 -0.42317172611E+02  0.10229263109E+03  0.15201550948E+03  0.00000000000E+00 0.  1.
         -3    1    6    6    0  502 -0.30461733267E+02  0.42395968358E+02 -0.57193230724E+02  0.77436431783E+02  0.00000000000E+00 0.  1.
<mgrwt>
<rscale>  0 0.13370532E+04</rscale>
<asrwt>0</asrwt>
<pdfrwt beam="1">  1        2 0.14277624E+00 0.13370532E+04</pdfrwt>
<pdfrwt beam="2">  1       -2 0.74089174E-01 0.13370532E+04</pdfrwt>
<totfact> 0.45047589E+01</totfact>
</mgrwt>
</event>
<event>
12    1  0.1663913E-007  0.1227558E+04  0.7818608E-02  0.9089072E-01
          2   -1    0    0  501    0  0.00000000000E+00  0.00000000000E+00  0.73488631767E+03  0.73488631767E+03  0.00000000000E+00 0. -1.
         -2   -1    0    0    0  501 -0.00000000000E+00 -0.00000000000E+00 -0.51262954134E+03  0.51262954134E+03  0.00000000000E+00 0.  1.
         23    2    1    2    0    0  0.23708983502E+03 -0.71696062552E+02 -0.69571974805E+02  0.27259851653E+03  0.90098702976E+02 0.  0.
        254    2    1    2    0    0 -0.23708983502E+03  0.71696062552E+02  0.29182875113E+03  0.97491734247E+03  0.89663141224E+03 0.  0.
        -24    2    4    4    0    0 -0.13478995751E+03  0.47681491570E+03  0.19444954616E+03  0.53822684546E+03  0.79729007823E+02 0.  0.
         24    2    4    4    0    0 -0.10229987752E+03 -0.40511885315E+03  0.97379204972E+02  0.43669049701E+03  0.81420700705E+02 0.  0.
         13    1    3    3    0    0  0.13233878572E+03 -0.40143131174E+02  0.79417787120E+01  0.13852110683E+03  0.00000000000E+00 0.  1.
        -13    1    3    3    0    0  0.10475104930E+03 -0.31552931378E+02 -0.77513753518E+02  0.13407740970E+03  0.00000000000E+00 0. -1.
          4    1    6    6  502    0 -0.36938085644E+01 -0.97413374608E+02  0.51743470169E+02  0.11036483353E+03  0.00000000000E+00 0. -1.
          3    1    5    5  503    0 -0.20052169322E+02  0.86832784835E+02  0.37186912821E+01  0.89195575460E+02  0.00000000000E+00 0. -1.
         -4    1    5    5    0  503 -0.11473778818E+03  0.38998213087E+03  0.19073085488E+03  0.44903127000E+03  0.00000000000E+00 0.  1.
         -3    1    6    6    0  502 -0.98606068954E+02 -0.30770547854E+03  0.45635734803E+02  0.32632566349E+03  0.00000000000E+00 0.  1.
<mgrwt>
<rscale>  0 0.12275576E+04</rscale>
<asrwt>0</asrwt>
<pdfrwt beam="1">  1        2 0.11305943E+00 0.12275576E+04</pdfrwt>
<pdfrwt beam="2">  1       -2 0.78866083E-01 0.12275576E+04</pdfrwt>
<totfact> 0.54156294E+01</totfact>
</mgrwt>
</event>
<event>
12    1  0.2113460E-007  0.2313391E+04  0.7818608E-02  0.8472660E-01
         -1   -1    0    0    0  501 -0.00000000000E+00  0.00000000000E+00  0.79510290370E+03  0.79510290370E+03  0.00000000000E+00 0.  1.
          1   -1    0    0  501    0  0.00000000000E+00 -0.00000000000E+00 -0.16827306178E+04  0.16827306178E+04  0.00000000000E+00 0. -1.
         23    2    1    2    0    0  0.23935961027E+03 -0.86373381557E+03 -0.79998134647E+03  0.12048788121E+04  0.91835014744E+02 0.  0.
        254    2    1    2    0    0 -0.23935961027E+03  0.86373381557E+03 -0.87646367666E+02  0.12729547094E+04  0.89966809400E+03 0.  0.
        -24    2    4    4    0    0 -0.32983757771E+03  0.17653435612E+03  0.28976367072E+03  0.47978107628E+03  0.79181372365E+02 0.  0.
         24    2    4    4    0    0  0.90477967440E+02  0.68719945944E+03 -0.37741003838E+03  0.79317363317E+03  0.79099403436E+02 0.  0.
         11    1    3    3    0    0  0.16696379775E+01 -0.29233979084E+00 -0.11660526353E+02  0.11783082294E+02  0.00000000000E+00 0. -1.
        -11    1    3    3    0    0  0.23768997229E+03 -0.86344147578E+03 -0.78832082012E+03  0.11930957298E+04  0.00000000000E+00 0.  1.
          2    1    6    6  502    0  0.36440093554E+02  0.11701023901E+03 -0.42589049613E+02  0.12974245102E+03  0.00000000000E+00 0. -1.
          1    1    5    5  503    0 -0.10380014738E+03  0.32901959853E+02  0.48051489586E+02  0.11902081839E+03  0.00000000000E+00 0. -1.
         -2    1    5    5    0  503 -0.22603743033E+03  0.14363239627E+03  0.24171218113E+03  0.36076025789E+03  0.00000000000E+00 0.  1.
         -1    1    6    6    0  502  0.54037873886E+02  0.57018922044E+03 -0.33482098877E+03  0.66343118214E+03  0.00000000000E+00 0.  1.
<mgrwt>
<rscale>  0 0.23133906E+04</rscale>
<asrwt>0</asrwt>
<pdfrwt beam="1">  1        1 0.25888163E+00 0.23133906E+04</pdfrwt>
<pdfrwt beam="2">  1       -1 0.12232353E+00 0.23133906E+04</pdfrwt>
<totfact> 0.26107826E+00</totfact>
</mgrwt>
</event>
<event>
12    1  0.1663913E-007  0.1643838E+04  0.7818608E-02  0.8794060E-01
         -1   -1    0    0    0  501 -0.00000000000E+00  0.00000000000E+00  0.47497809631E+03  0.47497809631E+03  0.00000000000E+00 0.  1.
          1   -1    0    0  501    0  0.00000000000E+00 -0.00000000000E+00 -0.14222786605E+04  0.14222786605E+04  0.00000000000E+00 0. -1.
         23    2    1    2    0    0 -0.27462709285E+02  0.91392961694E+02 -0.98118964601E+03  0.98993320569E+03  0.90154070554E+02 0.  0.
        254    2    1    2    0    0  0.27462709285E+02 -0.91392961694E+02  0.33889081827E+02  0.90732355111E+03  0.90165441422E+03 0.  0.
        -24    2    4    4    0    0 -0.36964954782E+03 -0.26559672514E+03 -0.22455144894E+02  0.46263850068E+03  0.79672706597E+02 0.  0.
         24    2    4    4    0    0  0.39711225710E+03  0.17420376344E+03  0.56344226721E+02  0.44468505043E+03  0.80777634581E+02 0.  0.
         13    1    3    3    0    0 -0.39481252084E+02  0.87150006828E+02 -0.96289430286E+03  0.96763594985E+03  0.00000000000E+00 0. -1.
        -13    1    3    3    0    0  0.12018542800E+02  0.42429548667E+01 -0.18295343147E+02  0.22297255837E+02  0.00000000000E+00 0.  1.
          4    1    6    6  502    0  0.22491973534E+03  0.94475733468E+02  0.71798473895E+02  0.25430212821E+03  0.00000000000E+00 0. -1.
          1    1    5    5  503    0 -0.35790297878E+03 -0.23219973532E+03 -0.18700967491E+02  0.42703745209E+03  0.00000000000E+00 0. -1.
         -2    1    5    5    0  503 -0.11746569042E+02 -0.33396989821E+02 -0.37541774028E+01  0.35601048599E+02  0.00000000000E+00 0.  1.
         -3    1    6    6    0  502  0.17219252176E+03  0.79728029977E+02 -0.15454247174E+02  0.19038292222E+03  0.00000000000E+00 0.  1.
<mgrwt>
<rscale>  0 0.16438384E+04</rscale>
<asrwt>0</asrwt>
<pdfrwt beam="1">  1        1 0.21881210E+00 0.16438384E+04</pdfrwt>
<pdfrwt beam="2">  1       -1 0.73073553E-01 0.16438384E+04</pdfrwt>
<totfact> 0.13375229E+01</totfact>
</mgrwt>
</event>
<event>
12    1  0.1663913E-007  0.1597666E+04  0.7818608E-02  0.8821983E-01
          2   -1    0    0  501    0  0.00000000000E+00  0.00000000000E+00  0.29453762365E+04  0.29453762365E+04  0.00000000000E+00 0. -1.
         -2   -1    0    0    0  501 -0.00000000000E+00 -0.00000000000E+00 -0.21665619305E+03  0.21665619305E+03  0.00000000000E+00 0.  1.
         23    2    1    2    0    0 -0.57083156975E+02 -0.40991609236E+02 -0.12650765599E+03  0.17076084428E+03  0.90643698506E+02 0.  0.
        254    2    1    2    0    0  0.57083156975E+02  0.40991609236E+02  0.28552276994E+04  0.29912715853E+04  0.88906787272E+03 0.  0.
        -24    2    4    4    0    0 -0.13806288388E+03 -0.32158005531E+03  0.61448192861E+03  0.71163193814E+03  0.79730062781E+02 0.  0.
         24    2    4    4    0    0  0.19514604086E+03  0.36257166454E+03  0.22407457708E+04  0.22796396471E+04  0.79215668011E+02 0.  0.
         11    1    3    3    0    0 -0.52232082647E+02 -0.84560135741E+01 -0.15727825772E+02  0.55200173249E+02  0.00000000000E+00 0. -1.
        -11    1    3    3    0    0 -0.48510743286E+01 -0.32535595662E+02 -0.11077983022E+03  0.11556067104E+03  0.00000000000E+00 0.  1.
          2    1    6    6  502    0  0.27813944903E+01  0.57967535699E+02  0.26000923781E+03  0.26640716037E+03  0.00000000000E+00 0. -1.
          1    1    5    5  503    0 -0.41072885883E+02 -0.19059333427E+03  0.36066785659E+03  0.40999280945E+03  0.00000000000E+00 0. -1.
         -2    1    5    5    0  503 -0.96989998000E+02 -0.13098672103E+03  0.25381407202E+03  0.30163912869E+03  0.00000000000E+00 0.  1.
         -1    1    6    6    0  502  0.19236464637E+03  0.30460412884E+03  0.19807365330E+04  0.20132324868E+04  0.00000000000E+00 0.  1.
<mgrwt>
<rscale>  0 0.15976658E+04</rscale>
<asrwt>0</asrwt>
<pdfrwt beam="1">  1        2 0.45313478E+00 0.15976658E+04</pdfrwt>
<pdfrwt beam="2">  1       -2 0.33331724E-01 0.15976658E+04</pdfrwt>
<totfact> 0.15272847E+01</totfact>
</mgrwt>
</event>
<event>
12    1  0.1663913E-007  0.2266114E+04  0.7818608E-02  0.8491403E-01
         -1   -1    0    0    0  501 -0.00000000000E+00  0.00000000000E+00  0.65619797411E+03  0.65619797411E+03  0.00000000000E+00 0.  1.
          1   -1    0    0  501    0  0.00000000000E+00 -0.00000000000E+00 -0.19564486659E+04  0.19564486659E+04  0.00000000000E+00 0. -1.
         23    2    1    2    0    0 -0.15496458201E+03 -0.26183615190E+03  0.48880688121E+03  0.58331121121E+03  0.93528658120E+02 0.  0.
        254    2    1    2    0    0  0.15496458201E+03  0.26183615190E+03 -0.17890575730E+04  0.20293354288E+04  0.90824175800E+03 0.  0.
        -24    2    4    4    0    0 -0.16913198398E+03  0.14151859199E+03 -0.16185481241E+04  0.16357078625E+04  0.84906074904E+02 0.  0.
         24    2    4    4    0    0  0.32409656599E+03  0.12031755992E+03 -0.17050944884E+03  0.39362756624E+03  0.79713797121E+02 0.  0.
         13    1    3    3    0    0 -0.16238531705E+03 -0.25646258845E+03  0.44575640637E+03  0.53929660140E+03  0.00000000000E+00 0.  1.
        -13    1    3    3    0    0  0.74207350372E+01 -0.53735634501E+01  0.43050474839E+02  0.44014609807E+02  0.00000000000E+00 0. -1.
          4    1    6    6  502    0  0.24604580887E+03  0.53718007007E+02 -0.12884895211E+03  0.28288905387E+03  0.00000000000E+00 0. -1.
          1    1    5    5  503    0 -0.17758997641E+03  0.14046378694E+03 -0.15851254832E+04  0.16012154985E+04  0.00000000000E+00 0. -1.
         -2    1    5    5    0  503  0.84579924348E+01  0.10548050488E+01 -0.33422640935E+02  0.34492364036E+02  0.00000000000E+00 0.  1.
         -3    1    6    6    0  502  0.78050757118E+02  0.66599552909E+02 -0.41660496731E+02  0.11073851237E+03  0.00000000000E+00 0.  1.
<mgrwt>
<rscale>  0 0.22661135E+04</rscale>
<asrwt>0</asrwt>
<pdfrwt beam="1">  1        1 0.30099210E+00 0.22661135E+04</pdfrwt>
<pdfrwt beam="2">  1       -1 0.10095353E+00 0.22661135E+04</pdfrwt>
<totfact> 0.26962363E+00</totfact>
</mgrwt>
</event>
<event>
12    1  0.1663913E-007  0.1374366E+04  0.7818608E-02  0.8972586E-01
          1   -1    0    0  501    0  0.00000000000E+00  0.00000000000E+00  0.82759508999E+03  0.82759508999E+03  0.00000000000E+00 0. -1.
         -1   -1    0    0    0  501 -0.00000000000E+00 -0.00000000000E+00 -0.57059343765E+03  0.57059343765E+03  0.00000000000E+00 0.  1.
         23    2    1    2    0    0  0.23895277829E+03 -0.28261992427E+02 -0.24556653293E+03  0.35477407841E+03  0.87547439424E+02 0.  0.
        254    2    1    2    0    0 -0.23895277829E+03  0.28261992427E+02  0.50256818527E+03  0.10434144492E+04  0.88218011854E+03 0.  0.
        -24    2    4    4    0    0  0.10388943589E+03 -0.49999001381E+02 -0.20573268913E+03  0.24908163388E+03  0.80142410313E+02 0.  0.
         24    2    4    4    0    0 -0.34284221417E+03  0.78260993808E+02  0.70830087440E+03  0.79433281535E+03  0.74892762604E+02 0.  0.
         11    1    3    3    0    0  0.22033938268E+03 -0.50013975070E+02 -0.22898132258E+03  0.32168818343E+03  0.00000000000E+00 0.  1.
        -11    1    3    3    0    0  0.18613395606E+02  0.21751982642E+02 -0.16585210350E+02  0.33085894989E+02  0.00000000000E+00 0. -1.
          4    1    6    6  502    0 -0.13998512308E+03  0.11192557352E+02  0.21561803442E+03  0.25731740087E+03  0.00000000000E+00 0. -1.
          1    1    5    5  503    0  0.10452414287E+03 -0.58569953584E+02 -0.20813471599E+03  0.24015785622E+03  0.00000000000E+00 0. -1.
         -2    1    5    5    0  503 -0.63470698364E+00  0.85709522030E+01  0.24020268587E+01  0.89237776558E+01  0.00000000000E+00 0.  1.
         -3    1    6    6    0  502 -0.20285709110E+03  0.67068436456E+02  0.49268283997E+03  0.53701541447E+03  0.00000000000E+00 0.  1.
<mgrwt>
<rscale>  0 0.13743658E+04</rscale>
<asrwt>0</asrwt>
<pdfrwt beam="1">  1        1 0.12732232E+00 0.13743658E+04</pdfrwt>
<pdfrwt beam="2">  1       -1 0.87783606E-01 0.13743658E+04</pdfrwt>
<totfact> 0.26101145E+01</totfact>
</mgrwt>
</event>
<event>
12    1  0.1663913E-007  0.1658418E+04  0.7818608E-02  0.8785442E-01
          2   -1    0    0  501    0  0.00000000000E+00  0.00000000000E+00  0.43915284130E+03  0.43915284130E+03  0.00000000000E+00 0. -1.
         -2   -1    0    0    0  501 -0.00000000000E+00 -0.00000000000E+00 -0.15657126971E+04  0.15657126971E+04  0.00000000000E+00 0.  1.
         23    2    1    2    0    0 -0.41699186770E+03  0.31768856418E+03 -0.70775531600E+03  0.88519163155E+03  0.88534714653E+02 0.  0.
        254    2    1    2    0    0  0.41699186770E+03 -0.31768856418E+03 -0.41880453981E+03  0.11196739069E+04  0.89636163104E+03 0.  0.
        -24    2    4    4    0    0  0.44135090069E+03 -0.55824061006E+03 -0.11997222697E+03  0.72608783169E+03  0.79918757639E+02 0.  0.
         24    2    4    4    0    0 -0.24359032984E+02  0.24055204588E+03 -0.29883231283E+03  0.39358607517E+03  0.84561209232E+02 0.  0.
         13    1    3    3    0    0 -0.68239041801E+02  0.80551764420E+02 -0.19050401638E+03  0.21780021541E+03  0.00000000000E+00 0. -1.
        -13    1    3    3    0    0 -0.34875282590E+03  0.23713679976E+03 -0.51725129962E+03  0.66739141614E+03  0.00000000000E+00 0.  1.
          4    1    6    6  502    0  0.24810412288E+02  0.11334181995E+03 -0.10433470137E+03  0.15603735007E+03  0.00000000000E+00 0. -1.
          3    1    5    5  503    0  0.12917632678E+03 -0.22510874568E+03 -0.40420755602E+02  0.26266767648E+03  0.00000000000E+00 0. -1.
         -4    1    5    5    0  503  0.31217457390E+03 -0.33313186438E+03 -0.79551471371E+02  0.46342015521E+03  0.00000000000E+00 0.  1.
         -3    1    6    6    0  502 -0.49169445272E+02  0.12721022594E+03 -0.19449761146E+03  0.23754872510E+03  0.00000000000E+00 0.  1.
<mgrwt>
<rscale>  0 0.16584175E+04</rscale>
<asrwt>0</asrwt>
<pdfrwt beam="1">  1        2 0.67561975E-01 0.16584175E+04</pdfrwt>
<pdfrwt beam="2">  1       -2 0.24087888E+00 0.16584175E+04</pdfrwt>
<totfact> 0.49935010E+00</totfact>
</mgrwt>
</event>
<event>
12    1  0.1663913E-007  0.3375983E+04  0.7818608E-02  0.8143826E-01
          1   -1    0    0  501    0  0.00000000000E+00  0.00000000000E+00  0.31050853013E+04  0.31050853013E+04  0.00000000000E+00 0. -1.
         -1   -1    0    0    0  501 -0.00000000000E+00 -0.00000000000E+00 -0.91762863575E+03  0.91762863575E+03  0.00000000000E+00 0.  1.
         23    2    1    2    0    0 -0.28825850636E+03 -0.36169310838E+03  0.27978653950E+04  0.28371288675E+04  0.85642110988E+02 0.  0.
        254    2    1    2    0    0  0.28825850636E+03  0.36169310838E+03 -0.61040872945E+03  0.11855850695E+04  0.90504047920E+03 0.  0.
        -24    2    4    4    0    0  0.34577408051E+03  0.52873248701E+03 -0.72137986008E+03  0.96200368253E+03  0.77100097897E+02 0.  0.
         24    2    4    4    0    0 -0.57515574149E+02 -0.16703937863E+03  0.11097113062E+03  0.22358138701E+03  0.80398069035E+02 0.  0.
         11    1    3    3    0    0 -0.97546249031E+02 -0.74813265246E+02  0.60415313164E+03  0.61653329337E+03  0.00000000000E+00 0.  1.
        -11    1    3    3    0    0 -0.19071225733E+03 -0.28687984314E+03  0.21937122633E+04  0.22205955741E+04  0.00000000000E+00 0. -1.
          2    1    6    6  502    0 -0.21203889404E+02 -0.11585698847E+03  0.10948544016E+03  0.16080891862E+03  0.00000000000E+00 0. -1.
          3    1    5    5  503    0  0.11487218161E+01  0.26546399866E+02 -0.21216752301E+02  0.34002668805E+02  0.00000000000E+00 0. -1.
         -4    1    5    5    0  503  0.34462535870E+03  0.50218608715E+03 -0.70016310777E+03  0.92800101372E+03  0.00000000000E+00 0.  1.
         -1    1    6    6    0  502 -0.36311684745E+02 -0.51182390165E+02  0.14856904687E+01  0.62772468393E+02  0.00000000000E+00 0.  1.
<mgrwt>
<rscale>  0 0.33759829E+04</rscale>
<asrwt>0</asrwt>
<pdfrwt beam="1">  1        1 0.47770543E+00 0.33759829E+04</pdfrwt>
<pdfrwt beam="2">  1       -1 0.14117364E+00 0.33759829E+04</pdfrwt>
<totfact> 0.16896873E-01</totfact>
</mgrwt>
</event>
<event>
12    1  0.1663913E-007  0.2692163E+04  0.7818608E-02  0.8337552E-01
         -2   -1    0    0    0  501 -0.00000000000E+00  0.00000000000E+00  0.86887677239E+03  0.86887677239E+03  0.00000000000E+00 0.  1.
          2   -1    0    0  501    0  0.00000000000E+00 -0.00000000000E+00 -0.20853763187E+04  0.20853763187E+04  0.00000000000E+00 0. -1.
         23    2    1    2    0    0  0.11183373593E+04 -0.28821442342E+03 -0.14332503387E+03  0.11660772639E+04  0.73811361180E+02 0.  0.
        254    2    1    2    0    0 -0.11183373593E+04  0.28821442342E+03 -0.10731745124E+04  0.17881758272E+04  0.84387395491E+03 0.  0.
        -24    2    4    4    0    0 -0.88040839570E+03  0.23832688431E+03 -0.28418598524E+03  0.95878009150E+03  0.81110681359E+02 0.  0.
         24    2    4    4    0    0 -0.23792896356E+03  0.49887539103E+02 -0.78898852717E+03  0.82939573567E+03  0.79343758917E+02 0.  0.
         11    1    3    3    0    0  0.12471696920E+03 -0.13779762483E+02 -0.30252375719E+02  0.12907133879E+03  0.00000000000E+00 0. -1.
        -11    1    3    3    0    0  0.99362039007E+03 -0.27443466093E+03 -0.11307265815E+03  0.10370059251E+04  0.00000000000E+00 0.  1.
          4    1    6    6  502    0 -0.14538433886E+03  0.26872942204E+02 -0.34609207994E+03  0.37634889240E+03  0.00000000000E+00 0. -1.
          1    1    5    5  503    0 -0.37095780940E+03  0.72402010040E+02 -0.86869970103E+02  0.38781198940E+03  0.00000000000E+00 0. -1.
         -2    1    5    5    0  503 -0.50945058630E+03  0.16592487427E+03 -0.19731601513E+03  0.57096810210E+03  0.00000000000E+00 0.  1.
         -3    1    6    6    0  502 -0.92544624697E+02  0.23014596899E+02 -0.44289644723E+03  0.45304684327E+03  0.00000000000E+00 0.  1.
<mgrwt>
<rscale>  0 0.26921627E+04</rscale>
<asrwt>0</asrwt>
<pdfrwt beam="1">  1        2 0.32082712E+00 0.26921627E+04</pdfrwt>
<pdfrwt beam="2">  1       -2 0.13367335E+00 0.26921627E+04</pdfrwt>
<totfact> 0.21266195E+00</totfact>
</mgrwt>
</event>
<event>
12    1  0.1663913E-007  0.1426851E+04  0.7818608E-02  0.8934609E-01
          1   -1    0    0  501    0  0.00000000000E+00  0.00000000000E+00  0.13706292337E+04  0.13706292337E+04  0.00000000000E+00 0. -1.
         -1   -1    0    0    0  501 -0.00000000000E+00 -0.00000000000E+00 -0.37134455287E+03  0.37134455287E+03  0.00000000000E+00 0.  1.
         23    2    1    2    0    0 -0.35915437975E+02  0.54234298636E+02  0.80481871644E+03  0.81251083704E+03  0.90605828427E+02 0.  0.
        254    2    1    2    0    0  0.35915437975E+02 -0.54234298636E+02  0.19446596440E+03  0.92946294955E+03  0.90656113166E+03 0.  0.
        -24    2    4    4    0    0  0.32096791289E+03 -0.11692750666E+03 -0.22155404928E+03  0.41500663046E+03  0.80323493792E+02 0.  0.
         24    2    4    4    0    0 -0.28505247492E+03  0.62693208020E+02  0.41602001368E+03  0.51445631909E+03  0.80045616209E+02 0.  0.
         13    1    3    3    0    0 -0.66185261625E+02  0.39242941754E+02  0.51182412274E+03  0.51757553068E+03  0.00000000000E+00 0. -1.
        -13    1    3    3    0    0  0.30269823650E+02  0.14991356882E+02  0.29299459369E+03  0.29493530636E+03  0.00000000000E+00 0.  1.
          2    1    6    6  502    0 -0.64141368943E+02  0.49639722966E+02  0.12081165112E+03  0.14551176019E+03  0.00000000000E+00 0. -1.
          1    1    5    5  503    0  0.98015044997E+02 -0.39163011372E+02 -0.11455973052E+03  0.15577105752E+03  0.00000000000E+00 0. -1.
         -2    1    5    5    0  503  0.22295286790E+03 -0.77764495284E+02 -0.10699431877E+03  0.25923557294E+03  0.00000000000E+00 0.  1.
         -1    1    6    6    0  502 -0.22091110597E+03  0.13053485054E+02  0.29520836256E+03  0.36894455890E+03  0.00000000000E+00 0.  1.
<mgrwt>
<rscale>  0 0.14268507E+04</rscale>
<asrwt>0</asrwt>
<pdfrwt beam="1">  1        1 0.21086603E+00 0.14268507E+04</pdfrwt>
<pdfrwt beam="2">  1       -1 0.57129932E-01 0.14268507E+04</pdfrwt>
<totfact> 0.24321731E+01</totfact>
</mgrwt>
</event>
<event>
12    1  0.1663913E-007  0.2230952E+04  0.7818608E-02  0.8505655E-01
          2   -1    0    0  501    0  0.00000000000E+00  0.00000000000E+00  0.98943828312E+03  0.98943828312E+03  0.00000000000E+00 0.  1.
         -2   -1    0    0    0  501 -0.00000000000E+00 -0.00000000000E+00 -0.12575683496E+04  0.12575683496E+04  0.00000000000E+00 0. -1.
         23    2    1    2    0    0  0.76037216168E+03  0.47773944704E+03 -0.36488458510E+03  0.97363627908E+03  0.91793463712E+02 0.  0.
        254    2    1    2    0    0 -0.76037216168E+03 -0.47773944704E+03  0.96754518622E+02  0.12733703536E+04  0.89761340072E+03 0.  0.
        -24    2    4    4    0    0  0.16491487670E+03 -0.16222656358E+02  0.14552486739E+03  0.23494998448E+03  0.81018004420E+02 0.  0.
         24    2    4    4    0    0 -0.92528703838E+03 -0.46151679069E+03 -0.48770348771E+02  0.10384203692E+04  0.82367862064E+02 0.  0.
         11    1    3    3    0    0  0.36463355378E+03  0.27787113659E+03 -0.16390798084E+03  0.48686324905E+03  0.00000000000E+00 0. -1.
        -11    1    3    3    0    0  0.39573860789E+03  0.19986831045E+03 -0.20097660426E+03  0.48677303002E+03  0.00000000000E+00 0.  1.
          2    1    6    6  502    0 -0.83444900724E+02 -0.40508542699E+02 -0.28195769768E+02  0.96948413712E+02  0.00000000000E+00 0. -1.
          3    1    5    5  503    0  0.18925111252E+02 -0.98722587850E+01  0.64331601680E+02  0.67780353378E+02  0.00000000000E+00 0. -1.
         -4    1    5    5    0  503  0.14598976545E+03 -0.63503975727E+01  0.81193265714E+02  0.16716963110E+03  0.00000000000E+00 0.  1.
         -1    1    6    6    0  502 -0.84184213765E+03 -0.42100824799E+03 -0.20574579004E+02  0.94147195545E+03  0.00000000000E+00 0.  1.
<mgrwt>
<rscale>  0 0.22309516E+04</rscale>
<asrwt>0</asrwt>
<pdfrwt beam="1">  1        2 0.15222127E+00 0.22309516E+04</pdfrwt>
<pdfrwt beam="2">  1       -2 0.19347205E+00 0.22309516E+04</pdfrwt>
<totfact> 0.34266127E+00</totfact>
</mgrwt>
</event>
<event>
12    1  0.1663913E-007  0.2970112E+04  0.7818608E-02  0.8252318E-01
         -1   -1    0    0    0  501 -0.00000000000E+00  0.00000000000E+00  0.12118499152E+04  0.12118499152E+04  0.00000000000E+00 0.  1.
          1   -1    0    0  501    0  0.00000000000E+00 -0.00000000000E+00 -0.18198545617E+04  0.18198545617E+04  0.00000000000E+00 0. -1.
         23    2    1    2    0    0  0.92358230252E+03 -0.66505405004E+03 -0.99921025379E+03  0.15172325645E+04  0.90952539560E+02 0.  0.
        254    2    1    2    0    0 -0.92358230252E+03  0.66505405004E+03  0.39120560730E+03  0.15144719124E+04  0.91939229243E+03 0.  0.
        -24    2    4    4    0    0  0.18830421531E+02  0.14352119958E+03 -0.21873031898E+03  0.27411211196E+03  0.79634025264E+02 0.  0.
         24    2    4    4    0    0 -0.94241272405E+03  0.52153285046E+03  0.60993592628E+03  0.12403598005E+04  0.79576025906E+02 0.  0.
         11    1    3    3    0    0  0.34467142528E+03 -0.26175778562E+03 -0.43744403192E+03  0.61536396613E+03  0.00000000000E+00 0. -1.
        -11    1    3    3    0    0  0.57891087723E+03 -0.40329626442E+03 -0.56176622187E+03  0.90186859836E+03  0.00000000000E+00 0.  1.
          2    1    6    6  502    0 -0.42223658703E+02  0.37671874015E+02  0.47174895754E+02  0.73671420751E+02  0.00000000000E+00 0. -1.
          3    1    5    5  503    0  0.17344107411E+01 -0.21438917592E+01  0.55134459103E+01  0.61646198829E+01  0.00000000000E+00 0. -1.
         -4    1    5    5    0  503  0.17096010789E+02  0.14566509134E+03 -0.22424376489E+03  0.26794749208E+03  0.00000000000E+00 0.  1.
         -1    1    6    6    0  502 -0.90018906535E+03  0.48386097645E+03  0.56276103053E+03  0.11666883797E+04  0.00000000000E+00 0.  1.
<mgrwt>
<rscale>  0 0.29701115E+04</rscale>
<asrwt>0</asrwt>
<pdfrwt beam="1">  1        1 0.27997762E+00 0.29701115E+04</pdfrwt>
<pdfrwt beam="2">  1       -1 0.18643845E+00 0.29701115E+04</pdfrwt>
<totfact> 0.63090687E-01</totfact>
</mgrwt>
</event>
<event>
12    1  0.1663913E-007  0.1142641E+04  0.7818608E-02  0.9164600E-01
         -2   -1    0    0    0  501 -0.00000000000E+00  0.00000000000E+00  0.14053480183E+03  0.14053480183E+03  0.00000000000E+00 0.  1.
          2   -1    0    0  501    0  0.00000000000E+00 -0.00000000000E+00 -0.23226052856E+04  0.23226052856E+04  0.00000000000E+00 0. -1.
         23    2    1    2    0    0  0.10901860348E+03  0.39307507797E+01 -0.56122749283E+02  0.15293394367E+03  0.91315504885E+02 0.  0.
        254    2    1    2    0    0 -0.10901860348E+03 -0.39307507797E+01 -0.21259477345E+04  0.23102061438E+04  0.89749548756E+03 0.  0.
        -24    2    4    4    0    0 -0.10682868694E+03  0.19028826762E+03 -0.71953730470E+02  0.24549660710E+03  0.86424832210E+02 0.  0.
         24    2    4    4    0    0 -0.21899165376E+01 -0.19421901840E+03 -0.20539940040E+04  0.20647095367E+04  0.80051729509E+02 0.  0.
         11    1    3    3    0    0  0.81151916487E+02 -0.14859229695E+02 -0.77425157843E+02  0.11314188139E+03  0.00000000000E+00 0. -1.
        -11    1    3    3    0    0  0.27866686989E+02  0.18789980474E+02  0.21302408560E+02  0.39792062279E+02  0.00000000000E+00 0.  1.
          2    1    6    6  502    0  0.18977300333E+02 -0.15607714560E+03 -0.18125667669E+04  0.18193731057E+04  0.00000000000E+00 0. -1.
          3    1    5    5  503    0 -0.10938110948E+03  0.14964573174E+03 -0.31352964521E+02  0.18799223527E+03  0.00000000000E+00 0. -1.
         -2    1    5    5    0  503  0.25524225398E+01  0.40642535876E+02 -0.40600765949E+02  0.57504371824E+02  0.00000000000E+00 0.  1.
         -1    1    6    6    0  502 -0.21167216871E+02 -0.38141872791E+02 -0.24142723716E+03  0.24533643099E+03  0.00000000000E+00 0.  1.
<mgrwt>
<rscale>  0 0.11426406E+04</rscale>
<asrwt>0</asrwt>
<pdfrwt beam="1">  1        2 0.35732391E+00 0.11426406E+04</pdfrwt>
<pdfrwt beam="2">  1       -2 0.21620737E-01 0.11426406E+04</pdfrwt>
<totfact> 0.81597890E+01</totfact>
</mgrwt>
</event>
<event>
12    1  0.1663913E-007  0.1144207E+04  0.7818608E-02  0.9163145E-01
         -2   -1    0    0    0  501 -0.00000000000E+00  0.00000000000E+00  0.15994349322E+03  0.15994349322E+03  0.00000000000E+00 0.  1.
          2   -1    0    0  501    0  0.00000000000E+00 -0.00000000000E+00 -0.20463627789E+04  0.20463627789E+04  0.00000000000E+00 0. -1.
         23    2    1    2    0    0  0.10681792331E+03 -0.73438752535E+02 -0.94819426770E+01  0.16023017764E+03  0.93704234029E+02 0.  0.
        254    2    1    2    0    0 -0.10681792331E+03  0.73438752535E+02 -0.18769373430E+04  0.20460760945E+04  0.80419542134E+03 0.  0.
        -24    2    4    4    0    0  0.28060189667E+03  0.59746149335E+02 -0.30943274342E+03  0.42935507881E+03  0.79310366463E+02 0.  0.
         24    2    4    4    0    0 -0.38741981998E+03  0.13692603199E+02 -0.15675045996E+04  0.16167210157E+04  0.80215761999E+02 0.  0.
         11    1    3    3    0    0  0.88050448774E+02 -0.28528782686E+02  0.30275795586E+02  0.97382733425E+02  0.00000000000E+00 0.  1.
        -11    1    3    3    0    0  0.18767474533E+02 -0.44909969849E+02 -0.39757738263E+02  0.62847444212E+02  0.00000000000E+00 0. -1.
          2    1    6    6  502    0 -0.29139351570E+03  0.38103640329E+02 -0.12518655308E+04  0.12858963316E+04  0.00000000000E+00 0. -1.
          1    1    5    5  503    0  0.28378699610E+03  0.55238995906E+02 -0.29136460907E+03  0.41046283783E+03  0.00000000000E+00 0. -1.
         -2    1    5    5    0  503 -0.31850994282E+01  0.45071534290E+01 -0.18068134355E+02  0.18892240986E+02  0.00000000000E+00 0.  1.
         -1    1    6    6    0  502 -0.96026304278E+02 -0.24411037130E+02 -0.31563906879E+03  0.33082468408E+03  0.00000000000E+00 0.  1.
<mgrwt>
<rscale>  0 0.11442070E+04</rscale>
<asrwt>0</asrwt>
<pdfrwt beam="1">  1        2 0.31482503E+00 0.11442070E+04</pdfrwt>
<pdfrwt beam="2">  1       -2 0.24606693E-01 0.11442070E+04</pdfrwt>
<totfact> 0.92240592E+01</totfact>
</mgrwt>
</event>
<event>
12    1  0.1663913E-007  0.1417299E+04  0.7818608E-02  0.8941391E-01
          3   -1    0    0  501    0  0.00000000000E+00  0.00000000000E+00  0.56427758719E+03  0.56427758719E+03  0.00000000000E+00 0. -1.
         -3   -1    0    0    0  501 -0.00000000000E+00 -0.00000000000E+00 -0.88995946161E+03  0.88995946161E+03  0.00000000000E+00 0.  1.
         23    2    1    2    0    0 -0.25560294139E+03 -0.27070979396E+03 -0.29664338966E+03  0.48516134353E+03  0.93635316172E+02 0.  0.
        254    2    1    2    0    0  0.25560294139E+03  0.27070979396E+03 -0.29038484761E+02  0.96907570527E+03  0.89423030185E+03 0.  0.
        -24    2    4    4    0    0  0.14841210943E+03 -0.20194556494E+03 -0.30725125482E+03  0.40450256592E+03  0.80067639092E+02 0.  0.
         24    2    4    4    0    0  0.10719083196E+03  0.47265535889E+03  0.27821277006E+03  0.56457313935E+03  0.80296460059E+02 0.  0.
         11    1    3    3    0    0 -0.15723533408E+03 -0.16831096139E+03 -0.12386342671E+03  0.26152185087E+03  0.00000000000E+00 0. -1.
        -11    1    3    3    0    0 -0.98367607314E+02 -0.10239883257E+03 -0.17277996295E+03  0.22363949266E+03  0.00000000000E+00 0.  1.
          4    1    6    6  502    0  0.46722591714E+02  0.35163959662E+03  0.18306664849E+03  0.39918267031E+03  0.00000000000E+00 0. -1.
          1    1    5    5  503    0  0.86690633635E+02 -0.17588243274E+03 -0.23052523349E+03  0.30264133786E+03  0.00000000000E+00 0. -1.
         -2    1    5    5    0  503  0.61721475791E+02 -0.26063132198E+02 -0.76726021332E+02  0.10186122807E+03  0.00000000000E+00 0.  1.
         -3    1    6    6    0  502  0.60468240251E+02  0.12101576228E+03  0.95146121571E+02  0.16539046904E+03  0.00000000000E+00 0.  1.
<mgrwt>
<rscale>  0 0.14172991E+04</rscale>
<asrwt>0</asrwt>
<pdfrwt beam="1">  1        3 0.86811937E-01 0.14172991E+04</pdfrwt>
<pdfrwt beam="2">  1       -3 0.13691684E+00 0.14172991E+04</pdfrwt>
<totfact> 0.12570274E+00</totfact>
</mgrwt>
</event>
<event>
12    1  0.2160128E-007  0.1437683E+04  0.7818608E-02  0.8926985E-01
         -2   -1    0    0    0  501 -0.00000000000E+00  0.00000000000E+00  0.33432602999E+03  0.33432602999E+03  0.00000000000E+00 0.  1.
          2   -1    0    0  501    0  0.00000000000E+00 -0.00000000000E+00 -0.15455955833E+04  0.15455955833E+04  0.00000000000E+00 0. -1.
         23    2    1    2    0    0 -0.36408542738E+03  0.11032639954E+03 -0.10855019261E+03  0.40588659456E+03  0.90723042628E+02 0.  0.
        254    2    1    2    0    0  0.36408542738E+03 -0.11032639954E+03 -0.11027193607E+04  0.14740350187E+04  0.90114323785E+03 0.  0.
        -24    2    4    4    0    0 -0.41390186942E+02 -0.39631553851E+03 -0.77076086563E+03  0.87135296592E+03  0.80028279984E+02 0.  0.
         24    2    4    4    0    0  0.40547561432E+03  0.28598913897E+03 -0.33195849504E+03  0.60268205279E+03  0.82637478814E+02 0.  0.
         13    1    3    3    0    0 -0.32227449613E+03  0.11574054046E+03 -0.11888546810E+03  0.36247824498E+03  0.00000000000E+00 0. -1.
        -13    1    3    3    0    0 -0.41810931247E+02 -0.54141409166E+01  0.10335275486E+02  0.43408349577E+02  0.00000000000E+00 0.  1.
          4    1    6    6  502    0  0.37241324773E+03  0.27786563384E+03 -0.28646574083E+03  0.54586038345E+03  0.00000000000E+00 0. -1.
          1    1    5    5  503    0 -0.60324997162E+01 -0.31573119658E+03 -0.64102228076E+03  0.71458529511E+03  0.00000000000E+00 0. -1.
         -2    1    5    5    0  503 -0.35357687225E+02 -0.80584341934E+02 -0.12973858487E+03  0.15676767082E+03  0.00000000000E+00 0.  1.
         -3    1    6    6    0  502  0.33062366590E+02  0.81235051293E+01 -0.45492754212E+02  0.56821669334E+02  0.00000000000E+00 0.  1.
<mgrwt>
<rscale>  0 0.14376826E+04</rscale>
<asrwt>0</asrwt>
<pdfrwt beam="1">  1        2 0.23778394E+00 0.14376826E+04</pdfrwt>
<pdfrwt beam="2">  1       -2 0.51434773E-01 0.14376826E+04</pdfrwt>
<totfact> 0.41463633E+01</totfact>
</mgrwt>
</event>
<event>
12    1  0.1663913E-007  0.1370151E+04  0.7818608E-02  0.8975712E-01
         -2   -1    0    0    0  501 -0.00000000000E+00  0.00000000000E+00  0.20858604543E+03  0.20858604543E+03  0.00000000000E+00 0.  1.
          2   -1    0    0  501    0  0.00000000000E+00 -0.00000000000E+00 -0.22500485520E+04  0.22500485520E+04  0.00000000000E+00 0. -1.
         23    2    1    2    0    0 -0.22497846309E+03 -0.24063255026E+01 -0.41912897130E+02  0.24669960270E+03  0.92102680568E+02 0.  0.
        254    2    1    2    0    0  0.22497846309E+03  0.24063255026E+01 -0.19995496095E+04  0.22119349948E+04  0.91860583554E+03 0.  0.
        -24    2    4    4    0    0  0.37276427253E+03  0.37647854738E+03 -0.11073399741E+04  0.12299780698E+04  0.77168220436E+02 0.  0.
         24    2    4    4    0    0 -0.14778580944E+03 -0.37407222188E+03 -0.89220963534E+03  0.98195692502E+03  0.80191623922E+02 0.  0.
         11    1    3    3    0    0 -0.18577834309E+03  0.30754125535E+02 -0.49731830051E+02  0.19476309691E+03  0.00000000000E+00 0.  1.
        -11    1    3    3    0    0 -0.39200120002E+02 -0.33160451037E+02  0.78189329213E+01  0.51936505786E+02  0.00000000000E+00 0. -1.
          2    1    6    6  502    0 -0.74922631098E+02 -0.28294949125E+03 -0.61041062147E+03  0.67696007420E+03  0.00000000000E+00 0. -1.
          3    1    5    5  503    0  0.10609339847E+02  0.44115076057E+00 -0.91831374040E+01  0.14038615265E+02  0.00000000000E+00 0. -1.
         -4    1    5    5    0  503  0.36215493268E+03  0.37603739662E+03 -0.10981568367E+04  0.12159394545E+04  0.00000000000E+00 0.  1.
         -1    1    6    6    0  502 -0.72863178340E+02 -0.91122730624E+02 -0.28179901387E+03  0.30499685082E+03  0.00000000000E+00 0.  1.
<mgrwt>
<rscale>  0 0.13701514E+04</rscale>
<asrwt>0</asrwt>
<pdfrwt beam="1">  1        2 0.34616131E+00 0.13701514E+04</pdfrwt>
<pdfrwt beam="2">  1       -2 0.32090161E-01 0.13701514E+04</pdfrwt>
<totfact> 0.42733020E+01</totfact>
</mgrwt>
</event>
<event>
12    1  0.1663913E-007  0.1135266E+04  0.7818608E-02  0.9171485E-01
         -1   -1    0    0    0  501 -0.00000000000E+00  0.00000000000E+00  0.18995079566E+03  0.18995079566E+03  0.00000000000E+00 0.  1.
          1   -1    0    0  501    0  0.00000000000E+00 -0.00000000000E+00 -0.16962680526E+04  0.16962680526E+04  0.00000000000E+00 0. -1.
         23    2    1    2    0    0  0.15544795660E+03 -0.47292561645E+02 -0.10859012762E+03  0.21491233281E+03  0.89413876882E+02 0.  0.
        254    2    1    2    0    0 -0.15544795660E+03  0.47292561645E+02 -0.13977271293E+04  0.16713065155E+04  0.90178915880E+03 0.  0.
        -24    2    4    4    0    0 -0.18090213711E+03  0.11892749696E+03  0.35674182110E+02  0.23364263780E+03  0.80292603530E+02 0.  0.
         24    2    4    4    0    0  0.25454180513E+02 -0.71634935318E+02 -0.14334013114E+04  0.14376638777E+04  0.80365578534E+02 0.  0.
         13    1    3    3    0    0  0.16346159434E+02  0.38282762234E+01 -0.54703034747E+02  0.57221277840E+02  0.00000000000E+00 0. -1.
        -13    1    3    3    0    0  0.13910179717E+03 -0.51120837869E+02 -0.53887092875E+02  0.15769105497E+03  0.00000000000E+00 0.  1.
          2    1    6    6  502    0  0.87306544517E+01  0.17056637056E+02 -0.34239748298E+03  0.34293321441E+03  0.00000000000E+00 0. -1.
          1    1    5    5  503    0 -0.89031899325E+02  0.11919241799E+02  0.11715826629E+02  0.90587019027E+02  0.00000000000E+00 0. -1.
         -2    1    5    5    0  503 -0.91870237789E+02  0.10700825516E+03  0.23958355481E+02  0.14305561877E+03  0.00000000000E+00 0.  1.
         -1    1    6    6    0  502  0.16723526061E+02 -0.88691572374E+02 -0.10910038285E+04  0.10947306632E+04  0.00000000000E+00 0.  1.
<mgrwt>
<rscale>  0 0.11352664E+04</rscale>
<asrwt>0</asrwt>
<pdfrwt beam="1">  1        1 0.26096432E+00 0.11352664E+04</pdfrwt>
<pdfrwt beam="2">  1       -1 0.29223199E-01 0.11352664E+04</pdfrwt>
<totfact> 0.50949129E+01</totfact>
</mgrwt>
</event>
<event>
12    1  0.1663913E-007  0.3212808E+04  0.7818608E-02  0.8185443E-01
          1   -1    0    0  501    0  0.00000000000E+00  0.00000000000E+00  0.11052739635E+04  0.11052739635E+04  0.00000000000E+00 0. -1.
         -1   -1    0    0    0  501 -0.00000000000E+00 -0.00000000000E+00 -0.23347459569E+04  0.23347459569E+04  0.00000000000E+00 0.  1.
         23    2    1    2    0    0  0.53566860691E+03 -0.62616708835E+03 -0.18830614530E+04  0.20573902704E+04  0.88928116057E+02 0.  0.
        254    2    1    2    0    0 -0.53566860691E+03  0.62616708835E+03  0.65358945960E+03  0.13826296500E+04  0.89747394852E+03 0.  0.
        -24    2    4    4    0    0 -0.21867285827E+03 -0.16811646544E+03 -0.24819136549E+02  0.28784271396E+03  0.78463198663E+02 0.  0.
         24    2    4    4    0    0 -0.31699574863E+03  0.79428355380E+03  0.67840859615E+03  0.10947869360E+04  0.83351924992E+02 0.  0.
         11    1    3    3    0    0  0.77946580951E+02 -0.13966575120E+03 -0.40276803793E+03  0.43336391626E+03  0.00000000000E+00 0. -1.
        -11    1    3    3    0    0  0.45772202595E+03 -0.48650133715E+03 -0.14802934151E+04  0.16240263541E+04  0.00000000000E+00 0.  1.
          2    1    6    6  502    0 -0.95615068615E+02  0.21467302351E+03  0.23369011318E+03  0.33141788932E+03  0.00000000000E+00 0. -1.
          3    1    5    5  503    0  0.30286467586E+01  0.13451298275E+01  0.62443870939E+01  0.70692606134E+01  0.00000000000E+00 0. -1.
         -4    1    5    5    0  503 -0.22170150503E+03 -0.16946159527E+03 -0.31063523643E+02  0.28077345335E+03  0.00000000000E+00 0.  1.
         -1    1    6    6    0  502 -0.22138068002E+03  0.57961053029E+03  0.44471848297E+03  0.76336904666E+03  0.00000000000E+00 0.  1.
<mgrwt>
<rscale>  0 0.32128081E+04</rscale>
<asrwt>0</asrwt>
<pdfrwt beam="1">  1        1 0.17004215E+00 0.32128081E+04</pdfrwt>
<pdfrwt beam="2">  1       -1 0.35919169E+00 0.32128081E+04</pdfrwt>
<totfact> 0.14165093E-01</totfact>
</mgrwt>
</event>
<event>
12    1  0.1663913E-007  0.1973287E+04  0.7818608E-02  0.8619213E-01
          2   -1    0    0  501    0  0.00000000000E+00  0.00000000000E+00  0.25649794622E+04  0.25649794622E+04  0.00000000000E+00 0. -1.
         -2   -1    0    0    0  501 -0.00000000000E+00 -0.00000000000E+00 -0.37952179963E+03  0.37952179963E+03  0.00000000000E+00 0.  1.
         23    2    1    2    0    0  0.88279310958E+01 -0.73962023321E+03  0.12069007496E+04  0.14182910155E+04  0.88453172088E+02 0.  0.
        254    2    1    2    0    0 -0.88279310958E+01  0.73962023321E+03  0.97855691299E+03  0.15262102463E+04  0.90809033814E+03 0.  0.
        -24    2    4    4    0    0 -0.19572592136E+03  0.65344900960E+03  0.10821628924E+04  0.12817392226E+04  0.80465299956E+02 0.  0.
         24    2    4    4    0    0  0.18689799026E+03  0.86171223613E+02 -0.10360597945E+03  0.24447102372E+03  0.81704001862E+02 0.  0.
         13    1    3    3    0    0  0.34506822009E+02 -0.66359057559E+03  0.10869524330E+04  0.12739736121E+04  0.00000000000E+00 0. -1.
        -13    1    3    3    0    0 -0.25678890913E+02 -0.76029657621E+02  0.11994831664E+03  0.14431740346E+03  0.00000000000E+00 0.  1.
          4    1    6    6  502    0  0.42081219030E+01  0.26321063501E+01  0.11796799701E+02  0.12798466977E+02  0.00000000000E+00 0. -1.
          1    1    5    5  503    0 -0.16262453757E+03  0.44302967569E+03  0.70012866164E+03  0.84433534606E+03  0.00000000000E+00 0. -1.
         -2    1    5    5    0  503 -0.33101383782E+02  0.21041933391E+03  0.38203423080E+03  0.43740387652E+03  0.00000000000E+00 0.  1.
         -3    1    6    6    0  502  0.18268986836E+03  0.83539117263E+02 -0.11540277915E+03  0.23167255675E+03  0.00000000000E+00 0.  1.
<mgrwt>
<rscale>  0 0.19732872E+04</rscale>
<asrwt>0</asrwt>
<pdfrwt beam="1">  1        2 0.39461222E+00 0.19732872E+04</pdfrwt>
<pdfrwt beam="2">  1       -2 0.58387971E-01 0.19732872E+04</pdfrwt>
<totfact> 0.81556773E+00</totfact>
</mgrwt>
</event>
<event>
12    1  0.1663913E-007  0.2393590E+04  0.7818608E-02  0.8441907E-01
          2   -1    0    0  501    0  0.00000000000E+00  0.00000000000E+00  0.10083145088E+04  0.10083145088E+04  0.00000000000E+00 0. -1.
         -2   -1    0    0    0  501 -0.00000000000E+00 -0.00000000000E+00 -0.14205069014E+04  0.14205069014E+04  0.00000000000E+00 0.  1.
         23    2    1    2    0    0 -0.81300956251E+03 -0.47195502526E+03  0.27294223021E+03  0.98311310445E+03  0.91037467537E+02 0.  0.
        254    2    1    2    0    0  0.81300956251E+03  0.47195502526E+03 -0.68513462282E+03  0.14457083057E+04  0.85845032420E+03 0.  0.
        -24    2    4    4    0    0 -0.13842797389E+03  0.81407237463E+02  0.40447821042E+02  0.18467767475E+03  0.81733561375E+02 0.  0.
         24    2    4    4    0    0  0.95143753641E+03  0.39054778780E+03 -0.72558244386E+03  0.12610306309E+04  0.77249006984E+02 0.  0.
         11    1    3    3    0    0 -0.63031841377E+03 -0.39189407932E+03  0.24554468526E+03  0.78177647996E+03  0.00000000000E+00 0. -1.
        -11    1    3    3    0    0 -0.18269114874E+03 -0.80060945938E+02  0.27397544945E+02  0.20133662449E+03  0.00000000000E+00 0.  1.
          2    1    6    6  502    0  0.51150184892E+03  0.22022234346E+03 -0.34704954993E+03  0.65618245337E+03  0.00000000000E+00 0. -1.
          1    1    5    5  503    0 -0.60978064988E+02  0.41005330604E+01 -0.13627086163E+02  0.62616581337E+02  0.00000000000E+00 0. -1.
         -2    1    5    5    0  503 -0.77449908904E+02  0.77306704403E+02  0.54074907204E+02  0.12206109341E+03  0.00000000000E+00 0.  1.
         -1    1    6    6    0  502  0.43993568748E+03  0.17032544434E+03 -0.37853289393E+03  0.60484817756E+03  0.00000000000E+00 0.  1.
<mgrwt>
<rscale>  0 0.23935895E+04</rscale>
<asrwt>0</asrwt>
<pdfrwt beam="1">  1        2 0.15512531E+00 0.23935895E+04</pdfrwt>
<pdfrwt beam="2">  1       -2 0.21853952E+00 0.23935895E+04</pdfrwt>
<totfact> 0.22597274E+00</totfact>
</mgrwt>
</event>
<event>
12    1  0.1798280E-007  0.1373158E+04  0.7818608E-02  0.8973481E-01
          2   -1    0    0  501    0  0.00000000000E+00  0.00000000000E+00  0.19553020904E+04  0.19553020904E+04  0.00000000000E+00 0. -1.
         -2   -1    0    0    0  501 -0.00000000000E+00 -0.00000000000E+00 -0.24108328940E+03  0.24108328940E+03  0.00000000000E+00 0.  1.
         23    2    1    2    0    0  0.23637364694E+03 -0.10421431821E+03  0.10104668317E+04  0.10470679927E+04  0.92601502431E+02 0.  0.
        254    2    1    2    0    0 -0.23637364694E+03  0.10421431821E+03  0.70375196927E+03  0.11493173871E+04  0.87116617067E+03 0.  0.
        -24    2    4    4    0    0 -0.34133706302E+03 -0.30191041287E+03  0.24800647340E+03  0.52467357035E+03  0.78193711951E+02 0.  0.
         24    2    4    4    0    0  0.10496341608E+03  0.40612473108E+03  0.45574549587E+03  0.62464381673E+03  0.80754720430E+02 0.  0.
         13    1    3    3    0    0  0.25725357422E+02 -0.36180907665E+02  0.89946561892E+02  0.10030571315E+03  0.00000000000E+00 0.  1.
        -13    1    3    3    0    0  0.21064828952E+03 -0.68033410540E+02  0.92052026980E+03  0.94676227953E+03  0.00000000000E+00 0. -1.
          2    1    6    6  502    0 -0.97820388233E+01  0.10812411591E+02  0.88174505873E+01  0.17039482469E+02  0.00000000000E+00 0. -1.
          1    1    5    5  503    0 -0.18928815076E+02 -0.21935939272E+01  0.24329747901E+02  0.30903859426E+02  0.00000000000E+00 0. -1.
         -2    1    5    5    0  503 -0.32240824794E+03 -0.29971681894E+03  0.22367672550E+03  0.49376971093E+03  0.00000000000E+00 0.  1.
         -1    1    6    6    0  502  0.11474545490E+03  0.39531231948E+03  0.44692804528E+03  0.60760433427E+03  0.00000000000E+00 0.  1.
<mgrwt>
<rscale>  0 0.13731579E+04</rscale>
<asrwt>0</asrwt>
<pdfrwt beam="1">  1        2 0.30081570E+00 0.13731579E+04</pdfrwt>
<pdfrwt beam="2">  1       -2 0.37089738E-01 0.13731579E+04</pdfrwt>
<totfact> 0.47294433E+01</totfact>
</mgrwt>
</event>
<event>
12    1  0.1663913E-007  0.1814236E+04  0.7818608E-02  0.8698765E-01
          1   -1    0    0  501    0  0.00000000000E+00  0.00000000000E+00  0.65175190401E+03  0.65175190401E+03  0.00000000000E+00 0. -1.
         -1   -1    0    0    0  501 -0.00000000000E+00 -0.00000000000E+00 -0.12625403058E+04  0.12625403058E+04  0.00000000000E+00 0.  1.
         23    2    1    2    0    0 -0.11625027144E+03 -0.27315806347E+02  0.47740916381E+03  0.50003403690E+03  0.88624203732E+02 0.  0.
        254    2    1    2    0    0  0.11625027144E+03  0.27315806347E+02 -0.10881975655E+04  0.14142581729E+04  0.89537252525E+03 0.  0.
        -24    2    4    4    0    0 -0.37643070265E+03  0.95591482891E+02 -0.42631090957E+03  0.58243563838E+03  0.81562710510E+02 0.  0.
         24    2    4    4    0    0  0.49268097409E+03 -0.68275676544E+02 -0.66188665598E+03  0.83182253448E+03  0.80241343918E+02 0.  0.
         11    1    3    3    0    0 -0.22149522806E+02 -0.28759801024E+02  0.46626893714E+02  0.59091409975E+02  0.00000000000E+00 0.  1.
        -11    1    3    3    0    0 -0.94100748635E+02  0.14439946772E+01  0.43078227009E+03  0.44094262693E+03  0.00000000000E+00 0. -1.
          2    1    6    6  502    0  0.48697500284E+03 -0.71545712331E+02 -0.63111480795E+03  0.80035576036E+03  0.00000000000E+00 0. -1.
          3    1    5    5  503    0 -0.33393224215E+03  0.72177412229E+02 -0.33206170277E+03  0.47642973839E+03  0.00000000000E+00 0. -1.
         -4    1    5    5    0  503 -0.42498460498E+02  0.23414070662E+02 -0.94249206801E+02  0.10600589999E+03  0.00000000000E+00 0.  1.
         -1    1    6    6    0  502  0.57059712526E+01  0.32700357868E+01 -0.30771848037E+02  0.31466774122E+02  0.00000000000E+00 0.  1.
<mgrwt>
<rscale>  0 0.18142360E+04</rscale>
<asrwt>0</asrwt>
<pdfrwt beam="1">  1        1 0.10026952E+00 0.18142360E+04</pdfrwt>
<pdfrwt beam="2">  1       -1 0.19423697E+00 0.18142360E+04</pdfrwt>
<totfact> 0.47173475E+00</totfact>
</mgrwt>
</event>
<event>
12    1  0.1663913E-007  0.1246143E+04  0.7818608E-02  0.9073400E-01
          2   -1    0    0  501    0  0.00000000000E+00  0.00000000000E+00  0.98301782229E+03  0.98301782229E+03  0.00000000000E+00 0. -1.
         -2   -1    0    0    0  501 -0.00000000000E+00 -0.00000000000E+00 -0.39492462775E+03  0.39492462775E+03  0.00000000000E+00 0.  1.
         23    2    1    2    0    0  0.13443293492E+03  0.81422075487E+02 -0.93670766748E+02  0.20463821496E+03  0.91655976944E+02 0.  0.
        254    2    1    2    0    0 -0.13443293492E+03 -0.81422075487E+02  0.68176396128E+03  0.11733042351E+04  0.94188054487E+03 0.  0.
        -24    2    4    4    0    0 -0.26329540358E+03  0.12351702464E+03 -0.12552798131E+03  0.32664278382E+03  0.79732736095E+02 0.  0.
         24    2    4    4    0    0  0.12886246867E+03 -0.20493910013E+03  0.80729194259E+03  0.84666145127E+03  0.80683095527E+02 0.  0.
         11    1    3    3    0    0  0.38496226095E+02  0.42875153629E+02  0.97037232473E+01  0.58432871461E+02  0.00000000000E+00 0. -1.
        -11    1    3    3    0    0  0.95936708823E+02  0.38546921858E+02 -0.10337449000E+03  0.14620534349E+03  0.00000000000E+00 0.  1.
          4    1    6    6  502    0  0.13878189176E+03 -0.20031999481E+03  0.78230406525E+03  0.81938279473E+03  0.00000000000E+00 0. -1.
          1    1    5    5  503    0 -0.21111948568E+03  0.12601228080E+03 -0.12150729679E+03  0.27425272162E+03  0.00000000000E+00 0. -1.
         -2    1    5    5    0  503 -0.52175917908E+02 -0.24952561577E+01 -0.40206845147E+01  0.52390062195E+02  0.00000000000E+00 0.  1.
         -3    1    6    6    0  502 -0.99194230919E+01 -0.46191053220E+01  0.24987877335E+02  0.27278656531E+02  0.00000000000E+00 0.  1.
<mgrwt>
<rscale>  0 0.12461428E+04</rscale>
<asrwt>0</asrwt>
<pdfrwt beam="1">  1        2 0.15123351E+00 0.12461428E+04</pdfrwt>
<pdfrwt beam="2">  1       -2 0.60757635E-01 0.12461428E+04</pdfrwt>
<totfact> 0.64100871E+01</totfact>
</mgrwt>
</event>
<event>
12    1  0.1663913E-007  0.1261582E+04  0.7818608E-02  0.9060598E-01
         -2   -1    0    0    0  501 -0.00000000000E+00  0.00000000000E+00  0.14334561059E+03  0.14334561059E+03  0.00000000000E+00 0.  1.
          2   -1    0    0  501    0  0.00000000000E+00 -0.00000000000E+00 -0.27757893197E+04  0.27757893197E+04  0.00000000000E+00 0. -1.
         23    2    1    2    0    0 -0.34448329750E+02  0.56738643535E+02 -0.13521681691E+04  0.13568340689E+04  0.90741235779E+02 0.  0.
        254    2    1    2    0    0  0.34448329750E+02 -0.56738643535E+02 -0.12802755400E+04  0.15623008614E+04  0.89290120511E+03 0.  0.
        -24    2    4    4    0    0 -0.11765287258E+03  0.30650085683E+03 -0.10407097577E+04  0.10942005296E+04  0.80081369486E+02 0.  0.
         24    2    4    4    0    0  0.15210120233E+03 -0.36323950037E+03 -0.23956578235E+03  0.46810033174E+03  0.81538004210E+02 0.  0.
         13    1    3    3    0    0 -0.41240206638E+02 -0.36539828403E+01 -0.29140525790E+03  0.29433166762E+03  0.00000000000E+00 0.  1.
        -13    1    3    3    0    0  0.67918768882E+01  0.60392626375E+02 -0.10607629112E+04  0.10625024013E+04  0.00000000000E+00 0. -1.
          4    1    6    6  502    0  0.11539792776E+03 -0.33880562561E+03 -0.21709416665E+03  0.41861176628E+03  0.00000000000E+00 0. -1.
          1    1    5    5  503    0 -0.48886852196E+02  0.22545611136E+03 -0.74947996375E+03  0.78418148316E+03  0.00000000000E+00 0. -1.
         -2    1    5    5    0  503 -0.68766020382E+02  0.81044745477E+02 -0.29122979390E+03  0.31001904649E+03  0.00000000000E+00 0.  1.
         -3    1    6    6    0  502  0.36703274565E+02 -0.24433874761E+02 -0.22471615695E+02  0.49488565463E+02  0.00000000000E+00 0.  1.
<mgrwt>
<rscale>  0 0.12615819E+04</rscale>
<asrwt>0</asrwt>
<pdfrwt beam="1">  1        2 0.42704455E+00 0.12615819E+04</pdfrwt>
<pdfrwt beam="2">  1       -2 0.22053169E-01 0.12615819E+04</pdfrwt>
<totfact> 0.42632703E+01</totfact>
</mgrwt>
</event>
<event>
12    1  0.1663913E-007  0.1577058E+04  0.7818608E-02  0.8834767E-01
         -1   -1    0    0    0  501 -0.00000000000E+00  0.00000000000E+00  0.24878618507E+03  0.24878618507E+03  0.00000000000E+00 0. -1.
          1   -1    0    0  501    0  0.00000000000E+00 -0.00000000000E+00 -0.24992469474E+04  0.24992469474E+04  0.00000000000E+00 0.  1.
         23    2    1    2    0    0  0.86746044619E+02 -0.28045150692E+03 -0.15330960942E+04  0.15636201839E+04  0.91359299059E+02 0.  0.
        254    2    1    2    0    0 -0.86746044619E+02  0.28045150692E+03 -0.71736466815E+03  0.11844129486E+04  0.89556911606E+03 0.  0.
        -24    2    4    4    0    0 -0.45394211993E+03  0.18057165994E+03 -0.19204943867E+03  0.53078009541E+03  0.78580851155E+02 0.  0.
         24    2    4    4    0    0  0.36719607532E+03  0.99879846982E+02 -0.52531522948E+03  0.65363285316E+03  0.80441748152E+02 0.  0.
         11    1    3    3    0    0  0.10274839299E+03 -0.21214754822E+03 -0.12438292445E+04  0.12659680106E+04  0.00000000000E+00 0.  1.
        -11    1    3    3    0    0 -0.16002348370E+02 -0.68303958694E+02 -0.28926684976E+03  0.29765217335E+03  0.00000000000E+00 0. -1.
          4    1    6    6  502    0  0.16950332813E+03  0.36796324321E+02 -0.30574454051E+03  0.35151823819E+03  0.00000000000E+00 0. -1.
          3    1    5    5  503    0 -0.28990514245E+03  0.13188641954E+03 -0.87645988702E+02  0.33033443449E+03  0.00000000000E+00 0. -1.
         -4    1    5    5    0  503 -0.16403697749E+03  0.48685240394E+02 -0.10440344997E+03  0.20044566092E+03  0.00000000000E+00 0.  1.
         -3    1    6    6    0  502  0.19769274719E+03  0.63083522661E+02 -0.21957068897E+03  0.30211461497E+03  0.00000000000E+00 0.  1.
<mgrwt>
<rscale>  0 0.15770582E+04</rscale>
<asrwt>0</asrwt>
<pdfrwt beam="1">  1        1 0.38449953E+00 0.15770582E+04</pdfrwt>
<pdfrwt beam="2">  1       -1 0.38274798E-01 0.15770582E+04</pdfrwt>
<totfact> 0.86264942E+00</totfact>
</mgrwt>
</event>
<event>
12    1  0.1663913E-007  0.1248907E+04  0.7818608E-02  0.9071093E-01
          4   -1    0    0  501    0  0.00000000000E+00  0.00000000000E+00  0.68255474975E+03  0.68255474975E+03  0.00000000000E+00 0. -1.
         -4   -1    0    0    0  501 -0.00000000000E+00 -0.00000000000E+00 -0.57129814806E+03  0.57129814806E+03  0.00000000000E+00 0.  1.
         23    2    1    2    0    0 -0.25852419168E+03 -0.12112959296E+01  0.13523040962E+03  0.30524585505E+03  0.89730392944E+02 0.  0.
        254    2    1    2    0    0  0.25852419168E+03  0.12112959296E+01 -0.23973807931E+02  0.94860704277E+03  0.91238388478E+03 0.  0.
        -24    2    4    4    0    0  0.46798382708E+03 -0.28413717386E+03  0.10687949428E+03  0.56348907845E+03  0.79711475081E+02 0.  0.
         24    2    4    4    0    0 -0.20945963541E+03  0.28534846979E+03 -0.13085330221E+03  0.38511796431E+03  0.76786533076E+02 0.  0.
         11    1    3    3    0    0 -0.26513324344E+03 -0.18761679944E+01  0.13689976393E+03  0.29839688696E+03  0.00000000000E+00 0. -1.
        -11    1    3    3    0    0  0.66090517640E+01  0.66487206476E+00 -0.16693543062E+01  0.68489680888E+01  0.00000000000E+00 0.  1.
          4    1    6    6  502    0 -0.20482402706E+03  0.23590702191E+03 -0.10932484951E+03  0.33099384853E+03  0.00000000000E+00 0. -1.
          3    1    5    5  503    0  0.38871360502E+03 -0.21743769727E+03  0.11365921680E+03  0.45966926859E+03  0.00000000000E+00 0. -1.
         -4    1    5    5    0  503  0.79270222060E+02 -0.66699476586E+02 -0.67797225174E+01  0.10381980986E+03  0.00000000000E+00 0.  1.
         -3    1    6    6    0  502 -0.46356083480E+01  0.49441447883E+02 -0.21528452699E+02  0.54124115782E+02  0.00000000000E+00 0.  1.
<mgrwt>
<rscale>  0 0.12489071E+04</rscale>
<asrwt>0</asrwt>
<pdfrwt beam="1">  1        4 0.10500842E+00 0.12489071E+04</pdfrwt>
<pdfrwt beam="2">  1       -4 0.87892022E-01 0.12489071E+04</pdfrwt>
<totfact> 0.16110376E+00</totfact>
</mgrwt>
</event>
<event>
12    1  0.1663913E-007  0.1904698E+04  0.7818608E-02  0.8652521E-01
         -2   -1    0    0    0  501 -0.00000000000E+00  0.00000000000E+00  0.49238848376E+03  0.49238848376E+03  0.00000000000E+00 0.  1.
          2   -1    0    0  501    0  0.00000000000E+00 -0.00000000000E+00 -0.18419782700E+04  0.18419782700E+04  0.00000000000E+00 0. -1.
         23    2    1    2    0    0 -0.38315264474E+03 -0.80061148395E+02  0.23682894786E+03  0.46641338772E+03  0.90762112382E+02 0.  0.
        254    2    1    2    0    0  0.38315264474E+03  0.80061148395E+02 -0.15864187341E+04  0.18679533661E+04  0.90515724666E+03 0.  0.
        -24    2    4    4    0    0  0.39145342693E+03 -0.28902625091E+03 -0.13111112696E+04  0.14007508315E+04  0.79486925720E+02 0.  0.
         24    2    4    4    0    0 -0.83007821898E+01  0.36908739931E+03 -0.27530746453E+03  0.46720253463E+03  0.78673992037E+02 0.  0.
         13    1    3    3    0    0 -0.47174319309E+01  0.61012282902E+01  0.20885472757E+02  0.22263919757E+02  0.00000000000E+00 0. -1.
        -13    1    3    3    0    0 -0.37843521281E+03 -0.86162376685E+02  0.21594347511E+03  0.44414946796E+03  0.00000000000E+00 0.  1.
          4    1    6    6  502    0  0.66132580556E+01  0.18698288111E+03 -0.18602878921E+03  0.26384283849E+03  0.00000000000E+00 0. -1.
          1    1    5    5  503    0  0.11287507203E+03 -0.10669944717E+03 -0.33094758866E+03  0.36558427257E+03  0.00000000000E+00 0. -1.
         -2    1    5    5    0  503  0.27857835490E+03 -0.18232680374E+03 -0.98016368095E+03  0.10351665589E+04  0.00000000000E+00 0.  1.
         -3    1    6    6    0  502 -0.14914040245E+02  0.18210451820E+03 -0.89278675326E+02  0.20335969613E+03  0.00000000000E+00 0.  1.
<mgrwt>
<rscale>  0 0.19046983E+04</rscale>
<asrwt>0</asrwt>
<pdfrwt beam="1">  1        2 0.28338127E+00 0.19046983E+04</pdfrwt>
<pdfrwt beam="2">  1       -2 0.75752075E-01 0.19046983E+04</pdfrwt>
<totfact> 0.11956505E+01</totfact>
</mgrwt>
</event>
<event>
12    1  0.1663913E-007  0.1692113E+04  0.7818608E-02  0.8765876E-01
         -2   -1    0    0    0  501 -0.00000000000E+00  0.00000000000E+00  0.23063840849E+03  0.23063840849E+03  0.00000000000E+00 0.  1.
          2   -1    0    0  501    0  0.00000000000E+00 -0.00000000000E+00 -0.31036081543E+04  0.31036081543E+04  0.00000000000E+00 0. -1.
         23    2    1    2    0    0  0.29492342440E+03  0.47432269958E+03 -0.59406208746E+03  0.81967178237E+03  0.83607520361E+02 0.  0.
        254    2    1    2    0    0 -0.29492342440E+03 -0.47432269958E+03 -0.22789076584E+04  0.25145747804E+04  0.90427007107E+03 0.  0.
        -24    2    4    4    0    0 -0.53342307593E+03 -0.39137031120E+03 -0.95600635618E+03  0.11654928951E+04  0.81942888888E+02 0.  0.
         24    2    4    4    0    0  0.23849965152E+03 -0.82952388380E+02 -0.13229013022E+04  0.13490818853E+04  0.78682243940E+02 0.  0.
         11    1    3    3    0    0  0.17312238609E+03  0.33329514140E+03 -0.43472106227E+03  0.57449056896E+03  0.00000000000E+00 0. -1.
        -11    1    3    3    0    0  0.12180103831E+03  0.14102755818E+03 -0.15934102519E+03  0.24518121341E+03  0.00000000000E+00 0.  1.
          4    1    6    6  502    0  0.21049078449E+03 -0.93828218786E+02 -0.12312276143E+04  0.12526098926E+04  0.00000000000E+00 0. -1.
          1    1    5    5  503    0 -0.51138549224E+03 -0.35934606135E+03 -0.92178388479E+03  0.11137011465E+04  0.00000000000E+00 0. -1.
         -2    1    5    5    0  503 -0.22037583692E+02 -0.32024249851E+02 -0.34222471385E+02  0.51791748583E+02  0.00000000000E+00 0.  1.
         -3    1    6    6    0  502  0.28008867036E+02  0.10875830406E+02 -0.91673687923E+02  0.96471992708E+02  0.00000000000E+00 0.  1.
<mgrwt>
<rscale>  0 0.16921126E+04</rscale>
<asrwt>0</asrwt>
<pdfrwt beam="1">  1        2 0.47747820E+00 0.16921126E+04</pdfrwt>
<pdfrwt beam="2">  1       -2 0.35482831E-01 0.16921126E+04</pdfrwt>
<totfact> 0.10697473E+01</totfact>
</mgrwt>
</event>
<event>
12    1  0.1663913E-007  0.3039323E+04  0.7818608E-02  0.8232590E-01
         -2   -1    0    0    0  501 -0.00000000000E+00  0.00000000000E+00  0.12010396699E+04  0.12010396699E+04  0.00000000000E+00 0.  1.
          2   -1    0    0  501    0  0.00000000000E+00 -0.00000000000E+00 -0.19228094977E+04  0.19228094977E+04  0.00000000000E+00 0. -1.
         23    2    1    2    0    0 -0.57047593927E+03 -0.81829410786E+03 -0.13161207261E+04  0.16540405471E+04  0.92888758240E+02 0.  0.
        254    2    1    2    0    0  0.57047593927E+03  0.81829410786E+03  0.59435089828E+03  0.14698086205E+04  0.90113059341E+03 0.  0.
        -24    2    4    4    0    0  0.44083585465E+03  0.64832617253E+03 -0.46283724303E+02  0.78939080955E+03  0.79577574290E+02 0.  0.
         24    2    4    4    0    0  0.12964008462E+03  0.16996793533E+03  0.64063462259E+03  0.68041781096E+03  0.82825281333E+02 0.  0.
         11    1    3    3    0    0 -0.53728316229E+03 -0.72259327680E+03 -0.11896498472E+04  0.14920056967E+04  0.00000000000E+00 0. -1.
        -11    1    3    3    0    0 -0.33192776981E+02 -0.95700831065E+02 -0.12647087891E+03  0.16203485033E+03  0.00000000000E+00 0.  1.
          2    1    6    6  502    0  0.10830842066E+03  0.10216257939E+03  0.33450464048E+03  0.36614377110E+03  0.00000000000E+00 0. -1.
          1    1    5    5  503    0  0.18430861527E+03  0.33188509218E+03 -0.42645930871E+02  0.38201577911E+03  0.00000000000E+00 0. -1.
         -2    1    5    5    0  503  0.25652723939E+03  0.31644108035E+03 -0.36377934324E+01  0.40737503044E+03  0.00000000000E+00 0.  1.
         -1    1    6    6    0  502  0.21331663957E+02  0.67805355946E+02  0.30612998210E+03  0.31427403985E+03  0.00000000000E+00 0.  1.
<mgrwt>
<rscale>  0 0.30393226E+04</rscale>
<asrwt>0</asrwt>
<pdfrwt beam="1">  1        2 0.29581684E+00 0.30393226E+04</pdfrwt>
<pdfrwt beam="2">  1       -2 0.18477534E+00 0.30393226E+04</pdfrwt>
<totfact> 0.10582246E+00</totfact>
</mgrwt>
</event>
<event>
12    1  0.1663913E-007  0.1642818E+04  0.7818608E-02  0.8794667E-01
          1   -1    0    0  501    0  0.00000000000E+00  0.00000000000E+00  0.59093646091E+03  0.59093646091E+03  0.00000000000E+00 0. -1.
         -1   -1    0    0    0  501 -0.00000000000E+00 -0.00000000000E+00 -0.11417684152E+04  0.11417684152E+04  0.00000000000E+00 0.  1.
         23    2    1    2    0    0 -0.62738371678E+02 -0.53678080986E+03 -0.36745615045E+03  0.65975271281E+03  0.90442680387E+02 0.  0.
        254    2    1    2    0    0  0.62738371678E+02  0.53678080986E+03 -0.18337580389E+03  0.10729521633E+04  0.90858676980E+03 0.  0.
        -24    2    4    4    0    0 -0.33818754686E+02 -0.23733861175E+03  0.41693507835E+02  0.25717762058E+03  0.83238543573E+02 0.  0.
         24    2    4    4    0    0  0.96557126364E+02  0.77411942161E+03 -0.22506931172E+03  0.81577454277E+03  0.79042722539E+02 0.  0.
         11    1    3    3    0    0 -0.41315722458E+02 -0.48092146116E+03 -0.35357387681E+03  0.59833680071E+03  0.00000000000E+00 0. -1.
        -11    1    3    3    0    0 -0.21422649219E+02 -0.55859348706E+02 -0.13882273647E+02  0.61415912100E+02  0.00000000000E+00 0.  1.
          2    1    6    6  502    0  0.10409921193E+03  0.54966392630E+03 -0.16633952230E+03  0.58364022692E+03  0.00000000000E+00 0. -1.
          1    1    5    5  503    0 -0.16412480175E+02 -0.12817602228E+02  0.23274648014E+02  0.31230908929E+02  0.00000000000E+00 0. -1.
         -2    1    5    5    0  503 -0.17406274511E+02 -0.22452100952E+03  0.18418859821E+02  0.22594671165E+03  0.00000000000E+00 0.  1.
         -1    1    6    6    0  502 -0.75420855647E+01  0.22445549531E+03 -0.58729789417E+02  0.23213431585E+03  0.00000000000E+00 0.  1.
<mgrwt>
<rscale>  0 0.16428178E+04</rscale>
<asrwt>0</asrwt>
<pdfrwt beam="1">  1        1 0.90913303E-01 0.16428178E+04</pdfrwt>
<pdfrwt beam="2">  1       -1 0.17565668E+00 0.16428178E+04</pdfrwt>
<totfact> 0.74880121E+00</totfact>
</mgrwt>
</event>
<event>
12    1  0.1663913E-007  0.2174441E+04  0.7818608E-02  0.8529142E-01
          2   -1    0    0  501    0  0.00000000000E+00  0.00000000000E+00  0.12560869105E+04  0.12560869105E+04  0.00000000000E+00 0. -1.
         -2   -1    0    0    0  501 -0.00000000000E+00 -0.00000000000E+00 -0.94105586393E+03  0.94105586393E+03  0.00000000000E+00 0.  1.
         23    2    1    2    0    0 -0.23379326648E+03 -0.24365367263E+03 -0.71020150747E+03  0.79209499332E+03  0.94878309358E+02 0.  0.
        254    2    1    2    0    0  0.23379326648E+03  0.24365367263E+03  0.10252325540E+04  0.14050477811E+04  0.89946154654E+03 0.  0.
        -24    2    4    4    0    0  0.45575346187E+03  0.29946588515E+03  0.10231764113E+04  0.11624535119E+04  0.83768516550E+02 0.  0.
         24    2    4    4    0    0 -0.22196019539E+03 -0.55812212517E+02  0.20561427478E+01  0.24259426919E+03  0.80414055488E+02 0.  0.
         11    1    3    3    0    0 -0.16310242796E+03 -0.10512525143E+03 -0.36163148283E+03  0.41040352078E+03  0.00000000000E+00 0.  1.
        -11    1    3    3    0    0 -0.70690838528E+02 -0.13852842120E+03 -0.34857002464E+03  0.38169147254E+03  0.00000000000E+00 0. -1.
          4    1    6    6  502    0 -0.17897036154E+03 -0.76140547473E+02  0.80741519014E+01  0.19466115485E+03  0.00000000000E+00 0. -1.
          3    1    5    5  503    0  0.42894486133E+03  0.26800366346E+03  0.89817099411E+03  0.10307913428E+04  0.00000000000E+00 0. -1.
         -4    1    5    5    0  503  0.26808600542E+02  0.31462221689E+02  0.12500541719E+03  0.13166216914E+03  0.00000000000E+00 0.  1.
         -3    1    6    6    0  502 -0.42989833847E+02  0.20328334956E+02 -0.60180091535E+01  0.47933114342E+02  0.00000000000E+00 0.  1.
<mgrwt>
<rscale>  0 0.21744406E+04</rscale>
<asrwt>0</asrwt>
<pdfrwt beam="1">  1        2 0.19324414E+00 0.21744406E+04</pdfrwt>
<pdfrwt beam="2">  1       -2 0.14477782E+00 0.21744406E+04</pdfrwt>
<totfact> 0.52869585E+00</totfact>
</mgrwt>
</event>
<event>
12    1  0.1663913E-007  0.1417664E+04  0.7818608E-02  0.8941131E-01
          2   -1    0    0  501    0  0.00000000000E+00  0.00000000000E+00  0.46938862886E+03  0.46938862886E+03  0.00000000000E+00 0. -1.
         -2   -1    0    0    0  501 -0.00000000000E+00 -0.00000000000E+00 -0.10704196603E+04  0.10704196603E+04  0.00000000000E+00 0.  1.
         23    2    1    2    0    0 -0.17346635036E+03  0.66575450524E+01 -0.59204657375E+03  0.62400494236E+03  0.93424434658E+02 0.  0.
        254    2    1    2    0    0  0.17346635036E+03 -0.66575450524E+01 -0.89844576672E+01  0.91580334678E+03  0.89915524348E+03 0.  0.
        -24    2    4    4    0    0  0.31357260065E+03 -0.28039815624E+03 -0.26813435343E+03  0.50512942601E+03  0.79427977615E+02 0.  0.
         24    2    4    4    0    0 -0.14010625029E+03  0.27374061119E+03  0.25914989577E+03  0.41067392077E+03  0.83250928760E+02 0.  0.
         13    1    3    3    0    0 -0.14768966968E+03  0.35608035878E+02 -0.52521148235E+03  0.54674241828E+03  0.00000000000E+00 0.  1.
        -13    1    3    3    0    0 -0.25776680683E+02 -0.28950490826E+02 -0.66835091397E+02  0.77262524086E+02  0.00000000000E+00 0. -1.
          2    1    6    6  502    0 -0.24948336440E+02  0.67990429984E+02  0.10991524133E+03  0.13163008143E+03  0.00000000000E+00 0. -1.
          1    1    5    5  503    0  0.65550091419E+01  0.46984801282E+01 -0.74055367012E+00  0.80989061053E+01  0.00000000000E+00 0. -1.
         -2    1    5    5    0  503  0.30701759151E+03 -0.28509663637E+03 -0.26739379976E+03  0.49703051991E+03  0.00000000000E+00 0.  1.
         -1    1    6    6    0  502 -0.11515791385E+03  0.20575018121E+03  0.14923465444E+03  0.27904383934E+03  0.00000000000E+00 0.  1.
<mgrwt>
<rscale>  0 0.14176640E+04</rscale>
<asrwt>0</asrwt>
<pdfrwt beam="1">  1        2 0.72213636E-01 0.14176640E+04</pdfrwt>
<pdfrwt beam="2">  1       -2 0.16467995E+00 0.14176640E+04</pdfrwt>
<totfact> 0.14974905E+01</totfact>
</mgrwt>
</event>
<event>
12    1  0.1663913E-007  0.1554754E+04  0.7818608E-02  0.8848837E-01
          1   -1    0    0  501    0  0.00000000000E+00  0.00000000000E+00  0.96895602641E+03  0.96895602641E+03  0.00000000000E+00 0. -1.
         -1   -1    0    0    0  501 -0.00000000000E+00 -0.00000000000E+00 -0.62367613666E+03  0.62367613666E+03  0.00000000000E+00 0.  1.
         23    2    1    2    0    0  0.34745742158E+03 -0.17613373520E+03  0.44268353608E+03  0.59657522075E+03  0.90462856574E+02 0.  0.
        254    2    1    2    0    0 -0.34745742158E+03  0.17613373520E+03 -0.97403646322E+02  0.99605694231E+03  0.91153288999E+03 0.  0.
        -24    2    4    4    0    0 -0.17550279122E+03  0.20196178909E+03  0.38623167422E+03  0.47587885870E+03  0.75471769623E+02 0.  0.
         24    2    4    4    0    0 -0.17195463036E+03 -0.25828053881E+02 -0.48363532054E+03  0.52017808361E+03  0.80290921818E+02 0.  0.
         13    1    3    3    0    0  0.33715386604E+03 -0.14494136187E+03  0.40947393843E+03  0.54986328666E+03  0.00000000000E+00 0. -1.
        -13    1    3    3    0    0  0.10303555540E+02 -0.31192373332E+02  0.33209597641E+02  0.46711934089E+02  0.00000000000E+00 0.  1.
          2    1    6    6  502    0 -0.11315120528E+03  0.18597999184E+02 -0.24675009590E+03  0.27209316540E+03  0.00000000000E+00 0. -1.
          3    1    5    5  503    0 -0.45596799236E+02  0.30201083395E+02  0.13083346983E+03  0.14180469092E+03  0.00000000000E+00 0. -1.
         -4    1    5    5    0  503 -0.12990599198E+03  0.17176070569E+03  0.25539820439E+03  0.33407416778E+03  0.00000000000E+00 0.  1.
         -1    1    6    6    0  502 -0.58803425078E+02 -0.44426053065E+02 -0.23688522464E+03  0.24808491821E+03  0.00000000000E+00 0.  1.
<mgrwt>
<rscale>  0 0.15547537E+04</rscale>
<asrwt>0</asrwt>
<pdfrwt beam="1">  1        1 0.14907016E+00 0.15547537E+04</pdfrwt>
<pdfrwt beam="2">  1       -1 0.95950175E-01 0.15547537E+04</pdfrwt>
<totfact> 0.16146015E+01</totfact>
</mgrwt>
</event>
<event>
12    1  0.1663913E-007  0.2522816E+04  0.7818608E-02  0.8394902E-01
          1   -1    0    0  501    0  0.00000000000E+00  0.00000000000E+00  0.21619140972E+04  0.21619140972E+04  0.00000000000E+00 0. -1.
         -1   -1    0    0    0  501 -0.00000000000E+00 -0.00000000000E+00 -0.73599116317E+03  0.73599116317E+03  0.00000000000E+00 0.  1.
         23    2    1    2    0    0 -0.39287282974E+03 -0.67984894633E+03 -0.20758512488E+03  0.81784591859E+03  0.96107816112E+02 0.  0.
        254    2    1    2    0    0  0.39287282974E+03  0.67984894633E+03  0.16335080589E+04  0.20800593417E+04  0.10206638215E+04 0.  0.
        -24    2    4    4    0    0 -0.23492254416E+02  0.32970727255E+03 -0.16887150129E+02  0.34038084861E+03  0.79468073268E+02 0.  0.
         24    2    4    4    0    0  0.41636508415E+03  0.35014167378E+03  0.16503952090E+04  0.17396784931E+04  0.81962421638E+02 0.  0.
         13    1    3    3    0    0 -0.72369997176E+01 -0.70202159985E+01 -0.16182626114E+02  0.19066593443E+02  0.00000000000E+00 0. -1.
        -13    1    3    3    0    0 -0.38563583002E+03 -0.67282873033E+03 -0.19140249876E+03  0.79877932515E+03  0.00000000000E+00 0.  1.
          4    1    6    6  502    0  0.26271554012E+03  0.27040134534E+03  0.11410080103E+04  0.12016803328E+04  0.00000000000E+00 0. -1.
          1    1    5    5  503    0  0.22451285649E+02  0.17989497300E+03 -0.27308628076E+02  0.18333581948E+03  0.00000000000E+00 0. -1.
         -2    1    5    5    0  503 -0.45943540064E+02  0.14981229955E+03  0.10421477947E+02  0.15704502912E+03  0.00000000000E+00 0.  1.
         -3    1    6    6    0  502  0.15364954404E+03  0.79740328441E+02  0.50938719866E+03  0.53799816033E+03  0.00000000000E+00 0.  1.
<mgrwt>
<rscale>  0 0.25228156E+04</rscale>
<asrwt>0</asrwt>
<pdfrwt beam="1">  1        1 0.33260217E+00 0.25228156E+04</pdfrwt>
<pdfrwt beam="2">  1       -1 0.11322941E+00 0.25228156E+04</pdfrwt>
<totfact> 0.14605073E+00</totfact>
</mgrwt>
</event>
<event>
12    1  0.1663913E-007  0.1980540E+04  0.7818608E-02  0.8615773E-01
         -2   -1    0    0    0  501 -0.00000000000E+00  0.00000000000E+00  0.57322919362E+03  0.57322919362E+03  0.00000000000E+00 0.  1.
          2   -1    0    0  501    0  0.00000000000E+00 -0.00000000000E+00 -0.17107196720E+04  0.17107196720E+04  0.00000000000E+00 0. -1.
         23    2    1    2    0    0 -0.66461011619E+03 -0.52808615037E+02 -0.92768989600E+03  0.11460068769E+04  0.90707564653E+02 0.  0.
        254    2    1    2    0    0  0.66461011619E+03  0.52808615037E+02 -0.20980058236E+03  0.11379419888E+04  0.89799795603E+03 0.  0.
        -24    2    4    4    0    0  0.39594118633E+03  0.39033163694E+03 -0.36745495647E+03  0.67120202958E+03  0.79754684211E+02 0.  0.
         24    2    4    4    0    0  0.26866892986E+03 -0.33752302191E+03  0.15765437411E+03  0.46673995917E+03  0.82984960186E+02 0.  0.
         11    1    3    3    0    0 -0.56499209709E+03 -0.12740159111E+02 -0.79254909039E+03  0.97340250776E+03  0.00000000000E+00 0. -1.
        -11    1    3    3    0    0 -0.99618019101E+02 -0.40068455925E+02 -0.13514080561E+03  0.17260436909E+03  0.00000000000E+00 0.  1.
          2    1    6    6  502    0  0.10154587737E+02  0.39455786712E+01  0.22123829299E+01  0.11116558882E+02  0.00000000000E+00 0. -1.
          1    1    5    5  503    0  0.11079542614E+03  0.12734225060E+03 -0.71622642203E+02  0.18336160480E+03  0.00000000000E+00 0. -1.
         -2    1    5    5    0  503  0.28514576019E+03  0.26298938635E+03 -0.29583231426E+03  0.48784042478E+03  0.00000000000E+00 0.  1.
         -1    1    6    6    0  502  0.25851434212E+03 -0.34146860058E+03  0.15544199118E+03  0.45562340029E+03  0.00000000000E+00 0.  1.
<mgrwt>
<rscale>  0 0.19805398E+04</rscale>
<asrwt>0</asrwt>
<pdfrwt beam="1">  1        2 0.26318764E+00 0.19805398E+04</pdfrwt>
<pdfrwt beam="2">  1       -2 0.88189106E-01 0.19805398E+04</pdfrwt>
<totfact> 0.99682886E+00</totfact>
</mgrwt>
</event>
<event>
12    1  0.1663913E-007  0.1402920E+04  0.7818608E-02  0.8951707E-01
          2   -1    0    0  501    0  0.00000000000E+00  0.00000000000E+00  0.20011352134E+04  0.20011352134E+04  0.00000000000E+00 0.  1.
         -2   -1    0    0    0  501 -0.00000000000E+00 -0.00000000000E+00 -0.24588358956E+03  0.24588358956E+03  0.00000000000E+00 0. -1.
         23    2    1    2    0    0 -0.22633409346E+01 -0.21158865726E+03 -0.34027151641E+02  0.23331598195E+03  0.92215062726E+02 0.  0.
        254    2    1    2    0    0  0.22633409346E+01  0.21158865726E+03  0.17892787754E+04  0.20137028210E+04  0.89928061936E+03 0.  0.
        -24    2    4    4    0    0  0.33302279333E+03  0.25465291701E+03  0.15169457779E+04  0.15759110756E+04  0.81356843127E+02 0.  0.
         24    2    4    4    0    0 -0.33075945240E+03 -0.43064259751E+02  0.27233299750E+03  0.43779174539E+03  0.78993702164E+02 0.  0.
         13    1    3    3    0    0 -0.16970600657E+02 -0.19062767092E+03 -0.56180224278E+02  0.19945708262E+03  0.00000000000E+00 0. -1.
        -13    1    3    3    0    0  0.14707259722E+02 -0.20960986337E+02  0.22153072637E+02  0.33858899333E+02  0.00000000000E+00 0.  1.
          2    1    6    6  502    0 -0.30118620123E+03 -0.21617074232E+02  0.21845705173E+03  0.37269814751E+03  0.00000000000E+00 0. -1.
          1    1    5    5  503    0  0.29265262100E+03  0.25068421981E+03  0.14031806325E+04  0.14551302423E+04  0.00000000000E+00 0. -1.
         -2    1    5    5    0  503  0.40370172335E+02  0.39686972027E+01  0.11376514543E+03  0.12078083327E+03  0.00000000000E+00 0.  1.
         -1    1    6    6    0  502 -0.29573251172E+02 -0.21447185520E+02  0.53875945771E+02  0.65093597875E+02  0.00000000000E+00 0.  1.
<mgrwt>
<rscale>  0 0.14029203E+04</rscale>
<asrwt>0</asrwt>
<pdfrwt beam="1">  1        2 0.30786695E+00 0.14029203E+04</pdfrwt>
<pdfrwt beam="2">  1       -2 0.37828246E-01 0.14029203E+04</pdfrwt>
<totfact> 0.42839216E+01</totfact>
</mgrwt>
</event>
<event>
12    1  0.1663913E-007  0.2137305E+04  0.7818608E-02  0.8544986E-01
         -2   -1    0    0    0  501 -0.00000000000E+00  0.00000000000E+00  0.41709311073E+03  0.41709311073E+03  0.00000000000E+00 0.  1.
          2   -1    0    0  501    0  0.00000000000E+00 -0.00000000000E+00 -0.27380407906E+04  0.27380407906E+04  0.00000000000E+00 0. -1.
         23    2    1    2    0    0 -0.43325588142E+03  0.57219478668E+03 -0.17231673892E+04  0.18688441715E+04  0.90305887297E+02 0.  0.
        254    2    1    2    0    0  0.43325588142E+03 -0.57219478668E+03 -0.59778029066E+03  0.12862897299E+04  0.88435426193E+03 0.  0.
        -24    2    4    4    0    0  0.53209676522E+03 -0.55456574984E+03 -0.10853559939E+03  0.78020365503E+03  0.79168355616E+02 0.  0.
         24    2    4    4    0    0 -0.98840883801E+02 -0.17629036838E+02 -0.48924469127E+03  0.50608607485E+03  0.81746216848E+02 0.  0.
         13    1    3    3    0    0 -0.12180900937E+03  0.10404966809E+03 -0.34461293822E+03  0.38002874284E+03  0.00000000000E+00 0.  1.
        -13    1    3    3    0    0 -0.31144687205E+03  0.46814511859E+03 -0.13785544510E+04  0.14888154286E+04  0.00000000000E+00 0. -1.
          2    1    6    6  502    0 -0.48992451754E+02  0.22280740591E+02 -0.12218847519E+03  0.13351672255E+03  0.00000000000E+00 0. -1.
          3    1    5    5  503    0  0.55671835494E+02 -0.49248731737E+02 -0.33942906754E+02  0.81712372160E+02  0.00000000000E+00 0. -1.
         -4    1    5    5    0  503  0.47642492973E+03 -0.50531701811E+03 -0.74592692636E+02  0.69849128287E+03  0.00000000000E+00 0.  1.
         -1    1    6    6    0  502 -0.49848432047E+02 -0.39909777430E+02 -0.36705621608E+03  0.37256935230E+03  0.00000000000E+00 0.  1.
<mgrwt>
<rscale>  0 0.21373048E+04</rscale>
<asrwt>0</asrwt>
<pdfrwt beam="1">  1        2 0.42123707E+00 0.21373048E+04</pdfrwt>
<pdfrwt beam="2">  1       -2 0.64168168E-01 0.21373048E+04</pdfrwt>
<totfact> 0.52002362E+00</totfact>
</mgrwt>
</event>
<event>
12    1  0.1663913E-007  0.1894376E+04  0.7818608E-02  0.8657661E-01
         -1   -1    0    0    0  501 -0.00000000000E+00  0.00000000000E+00  0.55905413004E+03  0.55905413004E+03  0.00000000000E+00 0.  1.
          1   -1    0    0  501    0  0.00000000000E+00 -0.00000000000E+00 -0.16047917162E+04  0.16047917162E+04  0.00000000000E+00 0. -1.
         23    2    1    2    0    0  0.55860480447E+03 -0.17826667931E+03  0.68675263304E+02  0.59750465530E+03  0.92071628512E+02 0.  0.
        254    2    1    2    0    0 -0.55860480447E+03  0.17826667931E+03 -0.11144128495E+04  0.15663411910E+04  0.93149900208E+03 0.  0.
        -24    2    4    4    0    0 -0.45019104330E+03  0.10743968147E+03 -0.28785391741E+02  0.46998328200E+03  0.76422679630E+02 0.  0.
         24    2    4    4    0    0 -0.10841376118E+03  0.70826997839E+02 -0.10856274577E+04  0.10963579090E+04  0.81508774412E+02 0.  0.
         13    1    3    3    0    0  0.79034108138E+02 -0.15044184736E+02 -0.20750135841E+02  0.83086014954E+02  0.00000000000E+00 0. -1.
        -13    1    3    3    0    0  0.47957069634E+03 -0.16322249458E+03  0.89425399144E+02  0.51441864034E+03  0.00000000000E+00 0.  1.
          2    1    6    6  502    0 -0.90223962730E+02  0.63729671939E+02 -0.10494523674E+04  0.10552497837E+04  0.00000000000E+00 0. -1.
          1    1    5    5  503    0 -0.25504910326E+03  0.64744337869E+02 -0.54055132026E+02  0.26863326610E+03  0.00000000000E+00 0. -1.
         -2    1    5    5    0  503 -0.19514194004E+03  0.42695343606E+02  0.25269740285E+02  0.20135001590E+03  0.00000000000E+00 0.  1.
         -1    1    6    6    0  502 -0.18189798448E+02  0.70973259000E+01 -0.36175090376E+02  0.41108125307E+02  0.00000000000E+00 0.  1.
<mgrwt>
<rscale>  0 0.18943763E+04</rscale>
<asrwt>0</asrwt>
<pdfrwt beam="1">  1        1 0.24689103E+00 0.18943763E+04</pdfrwt>
<pdfrwt beam="2">  1       -1 0.86008328E-01 0.18943763E+04</pdfrwt>
<totfact> 0.69169067E+00</totfact>
</mgrwt>
</event>
<event>
12    1  0.1663913E-007  0.5485013E+04  0.7818608E-02  0.7757755E-01
         -2   -1    0    0    0  501 -0.00000000000E+00  0.00000000000E+00  0.29354638557E+04  0.29354638557E+04  0.00000000000E+00 0.  1.
          2   -1    0    0  501    0  0.00000000000E+00 -0.00000000000E+00 -0.25622330286E+04  0.25622330286E+04  0.00000000000E+00 0. -1.
         23    2    1    2    0    0 -0.50755675527E+02  0.38541273560E+02 -0.24911413400E+04  0.24936932879E+04  0.93056271444E+02 0.  0.
        254    2    1    2    0    0  0.50755675527E+02 -0.38541273560E+02  0.28643721672E+04  0.30040035965E+04  0.90296629351E+03 0.  0.
        -24    2    4    4    0    0  0.75875863992E+02  0.36728976292E+03  0.67873222834E+03  0.77945294194E+03  0.78806942824E+02 0.  0.
         24    2    4    4    0    0 -0.25120188465E+02 -0.40583103648E+03  0.21856399388E+04  0.22245506545E+04  0.79207438666E+02 0.  0.
         11    1    3    3    0    0  0.19594341348E+01 -0.27766402543E+02 -0.54816359326E+03  0.54886987298E+03  0.00000000000E+00 0.  1.
        -11    1    3    3    0    0 -0.52715109662E+02  0.66307676103E+02 -0.19429777468E+04  0.19448234149E+04  0.00000000000E+00 0. -1.
          2    1    6    6  502    0 -0.35539766945E+02 -0.95593266227E+02  0.63622763105E+03  0.64434986311E+03  0.00000000000E+00 0. -1.
          1    1    5    5  503    0  0.69552828951E+02  0.23168176314E+03  0.36829756465E+03  0.44063264916E+03  0.00000000000E+00 0. -1.
         -2    1    5    5    0  503  0.63230350413E+01  0.13560799978E+03  0.31043466369E+03  0.33882029278E+03  0.00000000000E+00 0.  1.
         -1    1    6    6    0  502  0.10419578480E+02 -0.31023777025E+03  0.15494123078E+04  0.15802007914E+04  0.00000000000E+00 0.  1.
<mgrwt>
<rscale>  0 0.54850132E+04</rscale>
<asrwt>0</asrwt>
<pdfrwt beam="1">  1        2 0.39418970E+00 0.54850132E+04</pdfrwt>
<pdfrwt beam="2">  1       -2 0.45160983E+00 0.54850132E+04</pdfrwt>
<totfact> 0.76296701E-03</totfact>
</mgrwt>
</event>
<event>
12    1  0.1663913E-007  0.1064310E+04  0.7818608E-02  0.9240693E-01
         -1   -1    0    0    0  501 -0.00000000000E+00  0.00000000000E+00  0.40096975765E+03  0.40096975765E+03  0.00000000000E+00 0.  1.
          1   -1    0    0  501    0  0.00000000000E+00 -0.00000000000E+00 -0.70626017825E+03  0.70626017825E+03  0.00000000000E+00 0. -1.
         23    2    1    2    0    0 -0.98843396307E+02 -0.26902229207E+02  0.76584492307E+02  0.15725177451E+03  0.91483272751E+02 0.  0.
        254    2    1    2    0    0  0.98843396307E+02  0.26902229207E+02 -0.38187491290E+03  0.94997816139E+03  0.86379182162E+03 0.  0.
        -24    2    4    4    0    0 -0.37707605740E+03 -0.14438936089E+02 -0.16223364331E+03  0.41793792534E+03  0.77184962761E+02 0.  0.
         24    2    4    4    0    0  0.47591945371E+03  0.41341165296E+02 -0.21964126959E+03  0.53204023605E+03  0.81339456052E+02 0.  0.
         11    1    3    3    0    0  0.64120707416E+01  0.45721192195E+00 -0.14199429124E+02  0.15586772642E+02  0.00000000000E+00 0. -1.
        -11    1    3    3    0    0 -0.10525546705E+03 -0.27359441129E+02  0.90783921431E+02  0.14166500186E+03  0.00000000000E+00 0.  1.
          2    1    6    6  502    0  0.40410937222E+03  0.13089214529E+02 -0.16133371765E+03  0.43532089394E+03  0.00000000000E+00 0. -1.
          1    1    5    5  503    0 -0.27501276306E+03 -0.76979291989E+01 -0.79487205549E+02  0.28637299769E+03  0.00000000000E+00 0. -1.
         -2    1    5    5    0  503 -0.10206329434E+03 -0.67410068901E+01 -0.82746437762E+02  0.13156492765E+03  0.00000000000E+00 0.  1.
         -1    1    6    6    0  502  0.71810081485E+02  0.28251950767E+02 -0.58307551942E+02  0.96719342111E+02  0.00000000000E+00 0.  1.
<mgrwt>
<rscale>  0 0.10643101E+04</rscale>
<asrwt>0</asrwt>
<pdfrwt beam="1">  1        1 0.10865541E+00 0.10643101E+04</pdfrwt>
<pdfrwt beam="2">  1       -1 0.61687655E-01 0.10643101E+04</pdfrwt>
<totfact> 0.71558244E+01</totfact>
</mgrwt>
</event>
<event>
12    1  0.2099333E-007  0.2429631E+04  0.7818608E-02  0.8428493E-01
         -2   -1    0    0    0  501 -0.00000000000E+00  0.00000000000E+00  0.15243769721E+04  0.15243769721E+04  0.00000000000E+00 0.  1.
          2   -1    0    0  501    0  0.00000000000E+00 -0.00000000000E+00 -0.96811827685E+03  0.96811827685E+03  0.00000000000E+00 0. -1.
         23    2    1    2    0    0  0.86202087111E+03 -0.49064046560E+03  0.58160109488E+03  0.11534150035E+04  0.91094939602E+02 0.  0.
        254    2    1    2    0    0 -0.86202087111E+03  0.49064046560E+03 -0.25342399595E+02  0.13390802455E+04  0.89926949126E+03 0.  0.
        -24    2    4    4    0    0 -0.90564573123E+03  0.29301033940E+03 -0.28856823414E+03  0.99786194369E+03  0.80047382408E+02 0.  0.
         24    2    4    4    0    0  0.43624860114E+02  0.19763012620E+03  0.26322583455E+03  0.34121830179E+03  0.78621207717E+02 0.  0.
         13    1    3    3    0    0  0.11959962512E+03 -0.39391930885E+02  0.54393025662E+02  0.13716557800E+03  0.00000000000E+00 0. -1.
        -13    1    3    3    0    0  0.74242124599E+03 -0.45124853472E+03  0.52720806922E+03  0.10162494255E+04  0.00000000000E+00 0.  1.
          4    1    6    6  502    0  0.24839272103E+02  0.14761397444E+03  0.24023424625E+03  0.28305364856E+03  0.00000000000E+00 0. -1.
          1    1    5    5  503    0 -0.86252526517E+03  0.26118887934E+03 -0.26534762869E+03  0.93945666627E+03  0.00000000000E+00 0. -1.
         -2    1    5    5    0  503 -0.43120466058E+02  0.31821460061E+02 -0.23220605451E+02  0.58405277424E+02  0.00000000000E+00 0.  1.
         -3    1    6    6    0  502  0.18785588011E+02  0.50016151757E+02  0.22991588294E+02  0.58164653233E+02  0.00000000000E+00 0.  1.
<mgrwt>
<rscale>  0 0.24296314E+04</rscale>
<asrwt>0</asrwt>
<pdfrwt beam="1">  1        2 0.14894127E+00 0.24296314E+04</pdfrwt>
<pdfrwt beam="2">  1       -2 0.23451953E+00 0.24296314E+04</pdfrwt>
<totfact> 0.18981823E+00</totfact>
</mgrwt>
</event>
<event>
12    1  0.1663913E-007  0.1715703E+04  0.7818608E-02  0.8752459E-01
         -1   -1    0    0    0  501 -0.00000000000E+00  0.00000000000E+00  0.34289615292E+03  0.34289615292E+03  0.00000000000E+00 0.  1.
          1   -1    0    0  501    0  0.00000000000E+00 -0.00000000000E+00 -0.21461578438E+04  0.21461578438E+04  0.00000000000E+00 0. -1.
         23    2    1    2    0    0  0.54072225443E+03  0.23142161384E+03 -0.84150910412E+03  0.10305413922E+04  0.89114919852E+02 0.  0.
        254    2    1    2    0    0 -0.54072225443E+03 -0.23142161384E+03 -0.96175258679E+03  0.14585126045E+04  0.92539421850E+03 0.  0.
        -24    2    4    4    0    0 -0.58244830581E+03 -0.52344635837E+03 -0.74644007544E+03  0.10848743512E+04  0.80854515373E+02 0.  0.
         24    2    4    4    0    0  0.41726051374E+02  0.29202474453E+03 -0.21531251135E+03  0.37363825334E+03  0.78908504170E+02 0.  0.
         13    1    3    3    0    0  0.40833370783E+03  0.20151634287E+03 -0.59633752568E+03  0.75030906827E+03  0.00000000000E+00 0. -1.
        -13    1    3    3    0    0  0.13238854661E+03  0.29905270968E+02 -0.24517157844E+03  0.28023232394E+03  0.00000000000E+00 0.  1.
          4    1    6    6  502    0 -0.15478168513E+02  0.38865961504E+02 -0.53003187152E+02  0.67523881052E+02  0.00000000000E+00 0. -1.
          3    1    5    5  503    0 -0.39204542821E+02 -0.19034166653E+02 -0.62902783504E+02  0.76524870797E+02  0.00000000000E+00 0. -1.
         -4    1    5    5    0  503 -0.54324376299E+03 -0.50441219172E+03 -0.68353729193E+03  0.10083494804E+04  0.00000000000E+00 0.  1.
         -3    1    6    6    0  502  0.57204219887E+02  0.25315878303E+03 -0.16230932420E+03  0.30611437229E+03  0.00000000000E+00 0.  1.
<mgrwt>
<rscale>  0 0.17157031E+04</rscale>
<asrwt>0</asrwt>
<pdfrwt beam="1">  1        1 0.33017812E+00 0.17157031E+04</pdfrwt>
<pdfrwt beam="2">  1       -1 0.52753255E-01 0.17157031E+04</pdfrwt>
<totfact> 0.81641106E+00</totfact>
</mgrwt>
</event>
<event>
12    1  0.1663913E-007  0.1210255E+04  0.7818608E-02  0.9103927E-01
         -2   -1    0    0    0  501 -0.00000000000E+00  0.00000000000E+00  0.11290116381E+03  0.11290116381E+03  0.00000000000E+00 0. -1.
          2   -1    0    0  501    0  0.00000000000E+00 -0.00000000000E+00 -0.32433630026E+04  0.32433630026E+04  0.00000000000E+00 0.  1.
         23    2    1    2    0    0  0.15098558141E+03 -0.21574914345E+03 -0.13355508831E+04  0.13644380320E+04  0.93008832434E+02 0.  0.
        254    2    1    2    0    0 -0.15098558141E+03  0.21574914345E+03 -0.17949109556E+04  0.19918261344E+04  0.82238778717E+03 0.  0.
        -24    2    4    4    0    0  0.11697084788E+03 -0.10947535805E+03 -0.13909954066E+04  0.14027103558E+04  0.84030279559E+02 0.  0.
         24    2    4    4    0    0 -0.26795642928E+03  0.32522450150E+03 -0.40391554900E+03  0.58911577858E+03  0.79611591384E+02 0.  0.
         11    1    3    3    0    0  0.61468622627E+02 -0.23461104700E+02 -0.26199715353E+03  0.27013204819E+03  0.00000000000E+00 0. -1.
        -11    1    3    3    0    0  0.89516958779E+02 -0.19228803875E+03 -0.10735537296E+04  0.10943059838E+04  0.00000000000E+00 0.  1.
          2    1    6    6  502    0 -0.23492401421E+03  0.29713920026E+03 -0.38976971113E+03  0.54350844013E+03  0.00000000000E+00 0. -1.
          3    1    5    5  503    0  0.17510307528E+01 -0.51878678329E+02 -0.42901379486E+03  0.43214268425E+03  0.00000000000E+00 0. -1.
         -4    1    5    5    0  503  0.11521981712E+03 -0.57596679719E+02 -0.96198161175E+03  0.97056767158E+03  0.00000000000E+00 0.  1.
         -1    1    6    6    0  502 -0.33032415076E+02  0.28085301245E+02 -0.14145837871E+02  0.45607338453E+02  0.00000000000E+00 0.  1.
<mgrwt>
<rscale>  0 0.12102553E+04</rscale>
<asrwt>0</asrwt>
<pdfrwt beam="1">  1        2 0.49897894E+00 0.12102553E+04</pdfrwt>
<pdfrwt beam="2">  1       -2 0.17369409E-01 0.12102553E+04</pdfrwt>
<totfact> 0.33360444E+01</totfact>
</mgrwt>
</event>
<event>
12    1  0.1663913E-007  0.1326479E+04  0.7818608E-02  0.9008827E-01
          3   -1    0    0  501    0  0.00000000000E+00  0.00000000000E+00  0.39960954790E+03  0.39960954790E+03  0.00000000000E+00 0. -1.
         -3   -1    0    0    0  501 -0.00000000000E+00 -0.00000000000E+00 -0.11007903536E+04  0.11007903536E+04  0.00000000000E+00 0.  1.
         23    2    1    2    0    0  0.11396208076E+03  0.28841119491E+03 -0.15371272049E+03  0.35943546226E+03  0.96942652568E+02 0.  0.
        254    2    1    2    0    0 -0.11396208076E+03 -0.28841119491E+03 -0.54746808518E+03  0.11409644392E+04  0.95179313617E+03 0.  0.
        -24    2    4    4    0    0 -0.35503781432E+03 -0.20809342370E+03  0.10910672596E+03  0.43273455771E+03  0.77460939835E+02 0.  0.
         24    2    4    4    0    0  0.24107573356E+03 -0.80317771208E+02 -0.65657481115E+03  0.70822988151E+03  0.77010575519E+02 0.  0.
         13    1    3    3    0    0  0.13149367147E+03  0.25393283708E+03 -0.13053933636E+03  0.31434533514E+03  0.00000000000E+00 0. -1.
        -13    1    3    3    0    0 -0.17531590715E+02  0.34478357832E+02 -0.23173384129E+02  0.45090127120E+02  0.00000000000E+00 0.  1.
          4    1    6    6  502    0  0.44066787420E+02  0.13152705736E+01 -0.58352583234E+02  0.73134367163E+02  0.00000000000E+00 0. -1.
          3    1    5    5  503    0 -0.24348461331E+03 -0.16000425252E+03  0.43221520916E+02  0.29454068923E+03  0.00000000000E+00 0. -1.
         -4    1    5    5    0  503 -0.11155320101E+03 -0.48089171183E+02  0.65885205047E+02  0.13819386848E+03  0.00000000000E+00 0.  1.
         -3    1    6    6    0  502  0.19700894614E+03 -0.81633041782E+02 -0.59822222791E+03  0.63509551434E+03  0.00000000000E+00 0.  1.
<mgrwt>
<rscale>  0 0.13264785E+04</rscale>
<asrwt>0</asrwt>
<pdfrwt beam="1">  1        3 0.61478393E-01 0.13264785E+04</pdfrwt>
<pdfrwt beam="2">  1       -3 0.16935236E+00 0.13264785E+04</pdfrwt>
<totfact> 0.15454759E+00</totfact>
</mgrwt>
</event>
<event>
12    1  0.1663913E-007  0.1735762E+04  0.7818608E-02  0.8741227E-01
          2   -1    0    0  501    0  0.00000000000E+00  0.00000000000E+00  0.91227198197E+03  0.91227198197E+03  0.00000000000E+00 0. -1.
         -2   -1    0    0    0  501 -0.00000000000E+00 -0.00000000000E+00 -0.82565009438E+03  0.82565009438E+03  0.00000000000E+00 0.  1.
         23    2    1    2    0    0 -0.40793489258E+03 -0.14574253284E+03 -0.43281522345E+03  0.61912064731E+03  0.91266619417E+02 0.  0.
        254    2    1    2    0    0  0.40793489258E+03  0.14574253284E+03  0.51943711104E+03  0.11188014290E+04  0.89120702579E+03 0.  0.
        -24    2    4    4    0    0  0.65871970065E+03  0.82921806670E+02  0.51721948247E+03  0.84546164398E+03  0.80633295562E+02 0.  0.
         24    2    4    4    0    0 -0.25078480808E+03  0.62820726165E+02  0.22176285696E+01  0.27333978505E+03  0.88714466781E+02 0.  0.
         11    1    3    3    0    0 -0.23314764495E+03 -0.11327319760E+03 -0.30442423871E+03  0.39982841164E+03  0.00000000000E+00 0.  1.
        -11    1    3    3    0    0 -0.17478724762E+03 -0.32469335233E+02 -0.12839098473E+03  0.21929223567E+03  0.00000000000E+00 0. -1.
          4    1    6    6  502    0 -0.14769150878E+03  0.45475372026E+01 -0.29643515744E+02  0.15070567304E+03  0.00000000000E+00 0. -1.
          1    1    5    5  503    0  0.58671665393E+03  0.98205512798E+02  0.45200580754E+03  0.74712114466E+03  0.00000000000E+00 0. -1.
         -2    1    5    5    0  503  0.72003046725E+02 -0.15283706128E+02  0.65213674923E+02  0.98340499326E+02  0.00000000000E+00 0.  1.
         -3    1    6    6    0  502 -0.10309329930E+03  0.58273188962E+02  0.31861144313E+02  0.12263411201E+03  0.00000000000E+00 0.  1.
<mgrwt>
<rscale>  0 0.17357620E+04</rscale>
<asrwt>0</asrwt>
<pdfrwt beam="1">  1        2 0.14034954E+00 0.17357620E+04</pdfrwt>
<pdfrwt beam="2">  1       -2 0.12702309E+00 0.17357620E+04</pdfrwt>
<totfact> 0.12569400E+01</totfact>
</mgrwt>
</event>
<event>
12    1  0.2560663E-007  0.1768057E+04  0.7818608E-02  0.8723473E-01
         -1   -1    0    0    0  501 -0.00000000000E+00  0.00000000000E+00  0.12399700412E+04  0.12399700412E+04  0.00000000000E+00 0.  1.
          1   -1    0    0  501    0  0.00000000000E+00 -0.00000000000E+00 -0.63026201827E+03  0.63026201827E+03  0.00000000000E+00 0. -1.
         23    2    1    2    0    0  0.25586232834E+03 -0.42815066398E+03 -0.23562914533E+03  0.55904911058E+03  0.90754017987E+02 0.  0.
        254    2    1    2    0    0 -0.25586232834E+03  0.42815066398E+03  0.84533716829E+03  0.13111829489E+04  0.86938327297E+03 0.  0.
        -24    2    4    4    0    0  0.21697640365E+03  0.19695413226E+03 -0.96398815300E+01  0.30391630157E+03  0.80015630276E+02 0.  0.
         24    2    4    4    0    0 -0.47283873199E+03  0.23119653172E+03  0.85497704982E+03  0.10072666473E+04  0.81068121900E+02 0.  0.
         13    1    3    3    0    0  0.24250612627E+03 -0.42603383197E+03 -0.23860432881E+03  0.54520278153E+03  0.00000000000E+00 0. -1.
        -13    1    3    3    0    0  0.13356202068E+02 -0.21168320121E+01  0.29751834783E+01  0.13846329051E+02  0.00000000000E+00 0.  1.
          4    1    6    6  502    0 -0.45494235298E+03  0.20678661045E+03  0.82574259820E+03  0.96518603662E+03  0.00000000000E+00 0. -1.
          1    1    5    5  503    0  0.20002244598E+03  0.20078533125E+03 -0.19227591111E+02  0.28406588743E+03  0.00000000000E+00 0. -1.
         -2    1    5    5    0  503  0.16953957672E+02 -0.38311989934E+01  0.95877095814E+01  0.19850414139E+02  0.00000000000E+00 0.  1.
         -3    1    6    6    0  502 -0.17896379011E+02  0.24409921265E+02  0.29234451619E+02  0.42080610729E+02  0.00000000000E+00 0.  1.
<mgrwt>
<rscale>  0 0.17680566E+04</rscale>
<asrwt>0</asrwt>
<pdfrwt beam="1">  1        1 0.96963388E-01 0.17680566E+04</pdfrwt>
<pdfrwt beam="2">  1       -1 0.19076462E+00 0.17680566E+04</pdfrwt>
<totfact> 0.52629649E+00</totfact>
</mgrwt>
</event>
<event>
12    1  0.1663913E-007  0.2517292E+04  0.7818608E-02  0.8396851E-01
          2   -1    0    0  501    0  0.00000000000E+00  0.00000000000E+00  0.12988300068E+04  0.12988300068E+04  0.00000000000E+00 0.  1.
         -2   -1    0    0    0  501 -0.00000000000E+00 -0.00000000000E+00 -0.12197050770E+04  0.12197050770E+04  0.00000000000E+00 0. -1.
         23    2    1    2    0    0 -0.56894503348E+03 -0.67620044469E+03 -0.61464180298E+03  0.10812279636E+04  0.10160645097E+03 0.  0.
        254    2    1    2    0    0  0.56894503348E+03  0.67620044469E+03  0.69376673283E+03  0.14373071201E+04  0.89643403851E+03 0.  0.
        -24    2    4    4    0    0  0.55100566344E+03  0.86644108077E+03  0.66992205753E+03  0.12285360809E+04  0.78599944290E+02 0.  0.
         24    2    4    4    0    0  0.17939370049E+02 -0.19024063608E+03  0.23844675301E+02  0.20877103924E+03  0.80644018198E+02 0.  0.
         13    1    3    3    0    0 -0.26837460479E+03 -0.25523932361E+03 -0.22173707945E+03  0.43167044515E+03  0.00000000000E+00 0.  1.
        -13    1    3    3    0    0 -0.30057042870E+03 -0.42096112108E+03 -0.39290472353E+03  0.64955751850E+03  0.00000000000E+00 0. -1.
          4    1    6    6  502    0  0.18727098914E+02 -0.67903061108E+02  0.46429593592E+02  0.84363719113E+02  0.00000000000E+00 0. -1.
          1    1    5    5  503    0  0.94342261291E+02  0.18868184987E+03  0.11035719647E+03  0.23807564670E+03  0.00000000000E+00 0. -1.
         -2    1    5    5    0  503  0.45666340215E+03  0.67775923089E+03  0.55956486106E+03  0.99046043417E+03  0.00000000000E+00 0.  1.
         -3    1    6    6    0  502 -0.78772886493E+00 -0.12233757497E+03 -0.22584918291E+02  0.12440732013E+03  0.00000000000E+00 0.  1.
<mgrwt>
<rscale>  0 0.25172918E+04</rscale>
<asrwt>0</asrwt>
<pdfrwt beam="1">  1        2 0.19982000E+00 0.25172918E+04</pdfrwt>
<pdfrwt beam="2">  1       -2 0.18764693E+00 0.25172918E+04</pdfrwt>
<totfact> 0.23707904E+00</totfact>
</mgrwt>
</event>
<event>
12    1  0.1663913E-007  0.2171313E+04  0.7818608E-02  0.8530464E-01
         -2   -1    0    0    0  501 -0.00000000000E+00  0.00000000000E+00  0.63053527417E+03  0.63053527417E+03  0.00000000000E+00 0.  1.
          2   -1    0    0  501    0  0.00000000000E+00 -0.00000000000E+00 -0.18692843600E+04  0.18692843600E+04  0.00000000000E+00 0. -1.
         23    2    1    2    0    0  0.42168301451E+03  0.79104896569E+03 -0.60583455531E+03  0.10858187192E+04  0.91606504424E+02 0.  0.
        254    2    1    2    0    0 -0.42168301451E+03 -0.79104896569E+03 -0.63291453055E+03  0.14140009150E+04  0.89176384422E+03 0.  0.
        -24    2    4    4    0    0 -0.21297177817E+03 -0.95777128893E+03 -0.50019623854E+03  0.11042339768E+04  0.80334166513E+02 0.  0.
         24    2    4    4    0    0 -0.20871123634E+03  0.16672232324E+03 -0.13271829202E+03  0.30976693821E+03  0.83574504091E+02 0.  0.
         11    1    3    3    0    0  0.38555398249E+03  0.68711333546E+03 -0.50004986840E+03  0.93318083996E+03  0.00000000000E+00 0.  1.
        -11    1    3    3    0    0  0.36129032021E+02  0.10393563023E+03 -0.10578468691E+03  0.15263787922E+03  0.00000000000E+00 0. -1.
          4    1    6    6  502    0 -0.14577577931E+02  0.48478697382E+02 -0.10560658753E+02  0.51712835849E+02  0.00000000000E+00 0. -1.
          1    1    5    5  503    0 -0.94585835758E+02 -0.29005536295E+03 -0.18097657551E+03  0.35472681712E+03  0.00000000000E+00 0. -1.
         -2    1    5    5    0  503 -0.11838594241E+03 -0.66771592597E+03 -0.31921966303E+03  0.74950715969E+03  0.00000000000E+00 0.  1.
         -3    1    6    6    0  502 -0.19413365841E+03  0.11824362585E+03 -0.12215763326E+03  0.25805410236E+03  0.00000000000E+00 0.  1.
<mgrwt>
<rscale>  0 0.21713127E+04</rscale>
<asrwt>0</asrwt>
<pdfrwt beam="1">  1        2 0.28758221E+00 0.21713127E+04</pdfrwt>
<pdfrwt beam="2">  1       -2 0.97005428E-01 0.21713127E+04</pdfrwt>
<totfact> 0.64211066E+00</totfact>
</mgrwt>
</event>
<event>
12    1  0.1663913E-007  0.1598330E+04  0.7818608E-02  0.8821575E-01
         -2   -1    0    0    0  501 -0.00000000000E+00  0.00000000000E+00  0.78514509006E+03  0.78514509006E+03  0.00000000000E+00 0.  1.
          2   -1    0    0  501    0  0.00000000000E+00 -0.00000000000E+00 -0.81343485086E+03  0.81343485086E+03  0.00000000000E+00 0. -1.
         23    2    1    2    0    0 -0.30897839902E+02  0.35825015291E+03 -0.29387744697E+03  0.47358451369E+03  0.92846589622E+02 0.  0.
        254    2    1    2    0    0  0.30897839902E+02 -0.35825015291E+03  0.26558768617E+03  0.11249954272E+04  0.10323662352E+04 0.  0.
        -24    2    4    4    0    0 -0.47375827464E+03 -0.32485429412E+03  0.10740846133E+03  0.58921979577E+03  0.75273999224E+02 0.  0.
         24    2    4    4    0    0  0.50465611454E+03 -0.33395858788E+02  0.15817922484E+03  0.53577563146E+03  0.79004954066E+02 0.  0.
         11    1    3    3    0    0 -0.94861492848E+01  0.11126966403E+03 -0.39675098355E+02  0.11851176562E+03  0.00000000000E+00 0.  1.
        -11    1    3    3    0    0 -0.21411690617E+02  0.24698048887E+03 -0.25420234862E+03  0.35507274807E+03  0.00000000000E+00 0. -1.
          2    1    6    6  502    0  0.49036594527E+03 -0.42220633109E+02  0.16271297882E+03  0.51837906557E+03  0.00000000000E+00 0. -1.
          1    1    5    5  503    0 -0.39366149262E+03 -0.24047288286E+03  0.67438411306E+02  0.46620222810E+03  0.00000000000E+00 0. -1.
         -2    1    5    5    0  503 -0.80096782020E+02 -0.84381411262E+02  0.39970050026E+02  0.12301756767E+03  0.00000000000E+00 0.  1.
         -1    1    6    6    0  502  0.14290169271E+02  0.88247743217E+01 -0.45337539854E+01  0.17396565892E+02  0.00000000000E+00 0.  1.
<mgrwt>
<rscale>  0 0.15983296E+04</rscale>
<asrwt>0</asrwt>
<pdfrwt beam="1">  1        2 0.12514382E+00 0.15983296E+04</pdfrwt>
<pdfrwt beam="2">  1       -2 0.12079155E+00 0.15983296E+04</pdfrwt>
<totfact> 0.16875942E+01</totfact>
</mgrwt>
</event>
<event>
12    1  0.1663913E-007  0.2532428E+04  0.7818608E-02  0.8391523E-01
          1   -1    0    0  501    0  0.00000000000E+00  0.00000000000E+00  0.17429327910E+04  0.17429327910E+04  0.00000000000E+00 0. -1.
         -1   -1    0    0    0  501 -0.00000000000E+00 -0.00000000000E+00 -0.91988513649E+03  0.91988513649E+03  0.00000000000E+00 0.  1.
         23    2    1    2    0    0 -0.10231259529E+03 -0.70762578966E+03 -0.52581961248E+03  0.89141301694E+03  0.83239272948E+02 0.  0.
        254    2    1    2    0    0  0.10231259529E+03  0.70762578966E+03  0.13488672670E+04  0.17714049106E+04  0.89845997565E+03 0.  0.
        -24    2    4    4    0    0 -0.31209608362E+03  0.38052744961E+03  0.10434402106E+04  0.11563665030E+04  0.78809331153E+02 0.  0.
         24    2    4    4    0    0  0.41440867891E+03  0.32709834004E+03  0.30542705638E+03  0.61503840761E+03  0.79111812348E+02 0.  0.
         13    1    3    3    0    0  0.47795881236E+01 -0.20875293870E+02 -0.33140649977E+02  0.39457889423E+02  0.00000000000E+00 0. -1.
        -13    1    3    3    0    0 -0.10709218341E+03 -0.68675049579E+03 -0.49267896250E+03  0.85195512752E+03  0.00000000000E+00 0.  1.
          2    1    6    6  502    0  0.24496582366E+03  0.15613571588E+03  0.13646114069E+03  0.32094899821E+03  0.00000000000E+00 0. -1.
          1    1    5    5  503    0 -0.30655627506E+03  0.38290222015E+03  0.10387297628E+04  0.11487168407E+04  0.00000000000E+00 0. -1.
         -2    1    5    5    0  503 -0.55398085651E+01 -0.23747705407E+01  0.47104478653E+01  0.76496622900E+01  0.00000000000E+00 0.  1.
         -1    1    6    6    0  502  0.16944285525E+03  0.17096262416E+03  0.16896591569E+03  0.29408940940E+03  0.00000000000E+00 0.  1.
<mgrwt>
<rscale>  0 0.25324281E+04</rscale>
<asrwt>0</asrwt>
<pdfrwt beam="1">  1        1 0.26814351E+00 0.25324281E+04</pdfrwt>
<pdfrwt beam="2">  1       -1 0.14152079E+00 0.25324281E+04</pdfrwt>
<totfact> 0.16080719E+00</totfact>
</mgrwt>
</event>
<event>
12    1  0.1663913E-007  0.1580476E+04  0.7818608E-02  0.8832633E-01
          2   -1    0    0  501    0  0.00000000000E+00  0.00000000000E+00  0.24859163299E+04  0.24859163299E+04  0.00000000000E+00 0. -1.
         -2   -1    0    0    0  501 -0.00000000000E+00 -0.00000000000E+00 -0.25120555529E+03  0.25120555529E+03  0.00000000000E+00 0.  1.
         23    2    1    2    0    0 -0.39428710169E+03  0.16717580145E+02  0.13877156170E+04  0.14456046215E+04  0.90974128202E+02 0.  0.
        254    2    1    2    0    0  0.39428710169E+03 -0.16717580145E+02  0.84699515759E+03  0.12915172637E+04  0.89155720473E+03 0.  0.
        -24    2    4    4    0    0  0.54750620558E+02 -0.27859227318E+03  0.79954182177E+03  0.85181972971E+03  0.75620381084E+02 0.  0.
         24    2    4    4    0    0  0.33953648113E+03  0.26187469304E+03  0.47453335820E+02  0.43969753395E+03  0.84963082644E+02 0.  0.
         11    1    3    3    0    0 -0.14477902000E+02 -0.15749120287E+02  0.44980405977E+02  0.49808446653E+02  0.00000000000E+00 0. -1.
        -11    1    3    3    0    0 -0.37980919969E+03  0.32466700433E+02  0.13427352110E+04  0.13957961749E+04  0.00000000000E+00 0.  1.
          2    1    6    6  502    0  0.53091036515E+02  0.19797503053E+02  0.30333106638E+02  0.64270495904E+02  0.00000000000E+00 0. -1.
          3    1    5    5  503    0 -0.17588915406E+01 -0.73317008622E+02  0.13023493876E+03  0.14946443299E+03  0.00000000000E+00 0. -1.
         -4    1    5    5    0  503  0.56509512099E+02 -0.20527526456E+03  0.66930688300E+03  0.70235529672E+03  0.00000000000E+00 0.  1.
         -1    1    6    6    0  502  0.28644544462E+03  0.24207718998E+03  0.17120229183E+02  0.37542703805E+03  0.00000000000E+00 0.  1.
<mgrwt>
<rscale>  0 0.15804759E+04</rscale>
<asrwt>0</asrwt>
<pdfrwt beam="1">  1        2 0.38244865E+00 0.15804759E+04</pdfrwt>
<pdfrwt beam="2">  1       -2 0.38647010E-01 0.15804759E+04</pdfrwt>
<totfact> 0.21595902E+01</totfact>
</mgrwt>
</event>
<event>
12    1  0.1663913E-007  0.1274361E+04  0.7818608E-02  0.9050148E-01
         -2   -1    0    0    0  501 -0.00000000000E+00  0.00000000000E+00  0.18047242956E+03  0.18047242956E+03  0.00000000000E+00 0.  1.
          2   -1    0    0  501    0  0.00000000000E+00 -0.00000000000E+00 -0.22496466057E+04  0.22496466057E+04  0.00000000000E+00 0. -1.
         23    2    1    2    0    0  0.26749726082E+02  0.31212045201E+03 -0.59113531041E+03  0.67516128382E+03  0.90923481882E+02 0.  0.
        254    2    1    2    0    0 -0.26749726082E+02 -0.31212045201E+03 -0.14780388657E+04  0.17549577514E+04  0.89282870488E+03 0.  0.
        -24    2    4    4    0    0 -0.15184693912E+03 -0.45375341812E+03 -0.14717919020E+04  0.15495607695E+04  0.77572663986E+02 0.  0.
         24    2    4    4    0    0  0.12509721304E+03  0.14163296611E+03 -0.62469637246E+01  0.20539698192E+03  0.80247653095E+02 0.  0.
         11    1    3    3    0    0  0.92404552674E+01  0.30571968924E+03 -0.57074241942E+03  0.64753133031E+03  0.00000000000E+00 0. -1.
        -11    1    3    3    0    0  0.17509270815E+02  0.64007627611E+01 -0.20392890984E+02  0.27629953512E+02  0.00000000000E+00 0.  1.
          4    1    6    6  502    0  0.12704248340E+03  0.11517830181E+03  0.13963510675E+02  0.17204886930E+03  0.00000000000E+00 0. -1.
          1    1    5    5  503    0 -0.12684154114E+03 -0.42112844859E+03 -0.13915920538E+04  0.14594404377E+04  0.00000000000E+00 0. -1.
         -2    1    5    5    0  503 -0.25005397982E+02 -0.32624969526E+02 -0.80199848121E+02  0.90120331798E+02  0.00000000000E+00 0.  1.
         -3    1    6    6    0  502 -0.19452703618E+01  0.26454664308E+02 -0.20210474399E+02  0.33348112628E+02  0.00000000000E+00 0.  1.
<mgrwt>
<rscale>  0 0.12743613E+04</rscale>
<asrwt>0</asrwt>
<pdfrwt beam="1">  1        2 0.34609946E+00 0.12743613E+04</pdfrwt>
<pdfrwt beam="2">  1       -2 0.27764991E-01 0.12743613E+04</pdfrwt>
<totfact> 0.56434404E+01</totfact>
</mgrwt>
</event>
<event>
12    1  0.1663913E-007  0.2164629E+04  0.7818608E-02  0.8533296E-01
         -2   -1    0    0    0  501 -0.00000000000E+00  0.00000000000E+00  0.68584492032E+03  0.68584492032E+03  0.00000000000E+00 0. -1.
          2   -1    0    0  501    0  0.00000000000E+00 -0.00000000000E+00 -0.17079732837E+04  0.17079732837E+04  0.00000000000E+00 0.  1.
         23    2    1    2    0    0 -0.13678039433E+03  0.51332413952E+03 -0.12146894061E+04  0.13287496076E+04  0.88851661820E+02 0.  0.
        254    2    1    2    0    0  0.13678039433E+03 -0.51332413952E+03  0.19256104273E+03  0.10650685965E+04  0.90281826050E+03 0.  0.
        -24    2    4    4    0    0 -0.31461102231E+03 -0.16003755340E+03 -0.15008120747E+03  0.39210449139E+03  0.81421431265E+02 0.  0.
         24    2    4    4    0    0  0.45139141664E+03 -0.35328658612E+03  0.34264225021E+03  0.67296410507E+03  0.83134542399E+02 0.  0.
         13    1    3    3    0    0 -0.97019054720E+02  0.36266854778E+03 -0.95165258202E+03  0.10230267882E+04  0.00000000000E+00 0. -1.
        -13    1    3    3    0    0 -0.39761339609E+02  0.15065559173E+03 -0.26303682410E+03  0.30572281936E+03  0.00000000000E+00 0.  1.
          4    1    6    6  502    0  0.28977976459E+03 -0.18292502210E+03  0.17785592214E+03  0.38609144606E+03  0.00000000000E+00 0. -1.
          1    1    5    5  503    0 -0.27171158533E+03 -0.10570169280E+03 -0.10698775728E+03  0.31055822911E+03  0.00000000000E+00 0. -1.
         -2    1    5    5    0  503 -0.42899436982E+02 -0.54335860599E+02 -0.43093450199E+02  0.81546262271E+02  0.00000000000E+00 0.  1.
         -3    1    6    6    0  502  0.16161165205E+03 -0.17036156402E+03  0.16478632807E+03  0.28687265901E+03  0.00000000000E+00 0.  1.
<mgrwt>
<rscale>  0 0.21646291E+04</rscale>
<asrwt>0</asrwt>
<pdfrwt beam="1">  1        2 0.26276512E+00 0.21646291E+04</pdfrwt>
<pdfrwt beam="2">  1       -2 0.10551460E+00 0.21646291E+04</pdfrwt>
<totfact> 0.64651446E+00</totfact>
</mgrwt>
</event>
<event>
12    1  0.1663913E-007  0.2580126E+04  0.7818608E-02  0.8374984E-01
         -2   -1    0    0    0  501 -0.00000000000E+00  0.00000000000E+00  0.19954786594E+04  0.19954786594E+04  0.00000000000E+00 0.  1.
          2   -1    0    0  501    0  0.00000000000E+00 -0.00000000000E+00 -0.83401640960E+03  0.83401640960E+03  0.00000000000E+00 0. -1.
         23    2    1    2    0    0 -0.16033974368E+03  0.98659007367E+03  0.10928731661E+04  0.14838303280E+04  0.91169503239E+02 0.  0.
        254    2    1    2    0    0  0.16033974368E+03 -0.98659007367E+03  0.68589083788E+02  0.13456647410E+04  0.89835423193E+03 0.  0.
        -24    2    4    4    0    0 -0.33605223192E+03 -0.18792712651E+03  0.82023338512E+02  0.40216434098E+03  0.82222999433E+02 0.  0.
         24    2    4    4    0    0  0.49639197560E+03 -0.79866294716E+03 -0.13434254724E+02  0.94350040007E+03  0.75795970454E+02 0.  0.
         13    1    3    3    0    0 -0.38643319716E+02  0.36812770902E+03  0.34797051516E+03  0.50803030985E+03  0.00000000000E+00 0. -1.
        -13    1    3    3    0    0 -0.12169642397E+03  0.61846236465E+03  0.74490265090E+03  0.97580001815E+03  0.00000000000E+00 0.  1.
          4    1    6    6  502    0  0.20079410027E+03 -0.28741269757E+03  0.26438735672E+02  0.35160110377E+03  0.00000000000E+00 0. -1.
          3    1    5    5  503    0 -0.17553964260E+03 -0.85746136713E+02  0.10259430168E+01  0.19536534658E+03  0.00000000000E+00 0. -1.
         -4    1    5    5    0  503 -0.16051258931E+03 -0.10218098980E+03  0.80997395495E+02  0.20679899439E+03  0.00000000000E+00 0.  1.
         -3    1    6    6    0  502  0.29559787533E+03 -0.51125024958E+03 -0.39872990397E+02  0.59189929630E+03  0.00000000000E+00 0.  1.
<mgrwt>
<rscale>  0 0.25801255E+04</rscale>
<asrwt>0</asrwt>
<pdfrwt beam="1">  1        2 0.12831022E+00 0.25801255E+04</pdfrwt>
<pdfrwt beam="2">  1       -2 0.30699671E+00 0.25801255E+04</pdfrwt>
<totfact> 0.83102996E-01</totfact>
</mgrwt>
</event>
<event>
12    1  0.1663913E-007  0.1481688E+04  0.7818608E-02  0.8896722E-01
         -1   -1    0    0    0  501 -0.00000000000E+00  0.00000000000E+00  0.12967427513E+04  0.12967427513E+04  0.00000000000E+00 0.  1.
          1   -1    0    0  501    0  0.00000000000E+00 -0.00000000000E+00 -0.42325272481E+03  0.42325272481E+03  0.00000000000E+00 0. -1.
         23    2    1    2    0    0 -0.19075638181E+02 -0.40422249690E+03  0.54376178053E+03  0.68446051701E+03  0.95129482367E+02 0.  0.
        254    2    1    2    0    0  0.19075638181E+02  0.40422249690E+03  0.32972824599E+03  0.10355349591E+04  0.89434458034E+03 0.  0.
        -24    2    4    4    0    0  0.19282959640E+03  0.50748122246E+03  0.51327407572E+03  0.75156359575E+03  0.81713629596E+02 0.  0.
         24    2    4    4    0    0 -0.17375395822E+03 -0.10325872556E+03 -0.18354582973E+03  0.28397136336E+03  0.78088803271E+02 0.  0.
         11    1    3    3    0    0 -0.17489429926E+02 -0.33630820014E+03  0.50272091523E+03  0.60509288895E+03  0.00000000000E+00 0.  1.
        -11    1    3    3    0    0 -0.15862082554E+01 -0.67914296754E+02  0.41040865293E+02  0.79367628062E+02  0.00000000000E+00 0. -1.
          2    1    6    6  502    0 -0.17031923000E+03 -0.94182297498E+02 -0.19025855151E+03  0.27217138294E+03  0.00000000000E+00 0. -1.
          3    1    5    5  503    0  0.68360846542E+02  0.13744422653E+03  0.19293126412E+03  0.24654937319E+03  0.00000000000E+00 0. -1.
         -2    1    5    5    0  503  0.12446874986E+03  0.37003699593E+03  0.32034281160E+03  0.50501422257E+03  0.00000000000E+00 0.  1.
         -1    1    6    6    0  502 -0.34347282245E+01 -0.90764280657E+01  0.67127217759E+01  0.11799980426E+02  0.00000000000E+00 0.  1.
<mgrwt>
<rscale>  0 0.14816881E+04</rscale>
<asrwt>0</asrwt>
<pdfrwt beam="1">  1        1 0.65115804E-01 0.14816881E+04</pdfrwt>
<pdfrwt beam="2">  1       -1 0.19949888E+00 0.14816881E+04</pdfrwt>
<totfact> 0.81737590E+00</totfact>
</mgrwt>
</event>
<event>
12    1  0.1663913E-007  0.1483814E+04  0.7818608E-02  0.8895289E-01
          1   -1    0    0  501    0  0.00000000000E+00  0.00000000000E+00  0.14252195869E+04  0.14252195869E+04  0.00000000000E+00 0. -1.
         -1   -1    0    0    0  501 -0.00000000000E+00 -0.00000000000E+00 -0.38620415964E+03  0.38620415964E+03  0.00000000000E+00 0.  1.
         23    2    1    2    0    0 -0.21516923174E+03 -0.39798379992E+03  0.22846695567E+03  0.51563778977E+03  0.94848706460E+02 0.  0.
        254    2    1    2    0    0  0.21516923174E+03  0.39798379992E+03  0.81054847163E+03  0.12957859568E+04  0.90409264886E+03 0.  0.
        -24    2    4    4    0    0  0.71501319986E+02 -0.11556667682E+03 -0.13477372711E+03  0.20750250114E+03  0.80157562998E+02 0.  0.
         24    2    4    4    0    0  0.14366791176E+03  0.51355047674E+03  0.94532219874E+03  0.10882834557E+04  0.79701062959E+02 0.  0.
         13    1    3    3    0    0 -0.18092501637E+03 -0.29479585800E+03  0.13177438538E+03  0.37013909289E+03  0.00000000000E+00 0.  1.
        -13    1    3    3    0    0 -0.34244215372E+02 -0.10318794192E+03  0.96692570293E+02  0.14549869688E+03  0.00000000000E+00 0. -1.
          2    1    6    6  502    0  0.10354358088E+03  0.41851485132E+03  0.69946774014E+03  0.82166360112E+03  0.00000000000E+00 0. -1.
          3    1    5    5  503    0  0.44931449104E+02 -0.91127607332E+02 -0.45730722797E+02  0.11141981397E+03  0.00000000000E+00 0. -1.
         -2    1    5    5    0  503  0.26569870882E+02 -0.24439069492E+02 -0.89043004315E+02  0.96082687170E+02  0.00000000000E+00 0.  1.
         -1    1    6    6    0  502  0.40124330881E+02  0.95035625428E+02  0.24585445860E+03  0.26661985456E+03  0.00000000000E+00 0.  1.
<mgrwt>
<rscale>  0 0.14838136E+04</rscale>
<asrwt>0</asrwt>
<pdfrwt beam="1">  1        1 0.21926455E+00 0.14838136E+04</pdfrwt>
<pdfrwt beam="2">  1       -1 0.59416025E-01 0.14838136E+04</pdfrwt>
<totfact> 0.20514933E+01</totfact>
</mgrwt>
</event>
<event>
12    1  0.1663913E-007  0.1409836E+04  0.7818608E-02  0.8946729E-01
          2   -1    0    0  501    0  0.00000000000E+00  0.00000000000E+00  0.27357311405E+04  0.27357311405E+04  0.00000000000E+00 0. -1.
         -2   -1    0    0    0  501 -0.00000000000E+00 -0.00000000000E+00 -0.18163683729E+03  0.18163683729E+03  0.00000000000E+00 0.  1.
         23    2    1    2    0    0 -0.35717982456E+03 -0.19423526753E+03  0.69948847020E+03  0.81439706117E+03  0.93025195940E+02 0.  0.
        254    2    1    2    0    0  0.35717982456E+03  0.19423526753E+03  0.18546058330E+04  0.21029709166E+04  0.90422293382E+03 0.  0.
        -24    2    4    4    0    0  0.32935542446E+03  0.39648376737E+03  0.18035900121E+04  0.18774692431E+04  0.79243003996E+02 0.  0.
         24    2    4    4    0    0  0.27824400096E+02 -0.20224849983E+03  0.51015820931E+02  0.22550167352E+03  0.81053919391E+02 0.  0.
         13    1    3    3    0    0  0.23673682205E+01 -0.50005705780E+01  0.76693953860E-01  0.55331745282E+01  0.00000000000E+00 0.  1.
        -13    1    3    3    0    0 -0.35954719278E+03 -0.18923469695E+03  0.69941177625E+03  0.80886388665E+03  0.00000000000E+00 0. -1.
          4    1    6    6  502    0  0.55523591590E+02 -0.11731001205E+03  0.22514764909E+02  0.13172479945E+03  0.00000000000E+00 0. -1.
          3    1    5    5  503    0  0.16678694970E+02  0.54609752365E+02  0.16272694873E+03  0.17245423671E+03  0.00000000000E+00 0. -1.
         -4    1    5    5    0  503  0.31267672949E+03  0.34187401500E+03  0.16408630633E+04  0.17050150064E+04  0.00000000000E+00 0.  1.
         -3    1    6    6    0  502 -0.27699191494E+02 -0.84938487785E+02  0.28501056023E+02  0.93776874073E+02  0.00000000000E+00 0.  1.
<mgrwt>
<rscale>  0 0.14098362E+04</rscale>
<asrwt>0</asrwt>
<pdfrwt beam="1">  1        2 0.42088168E+00 0.14098362E+04</pdfrwt>
<pdfrwt beam="2">  1       -2 0.27944131E-01 0.14098362E+04</pdfrwt>
<totfact> 0.28936564E+01</totfact>
</mgrwt>
</event>
<event>
12    1  0.1663913E-007  0.1422263E+04  0.7818608E-02  0.8937859E-01
          2   -1    0    0  501    0  0.00000000000E+00  0.00000000000E+00  0.25714048245E+04  0.25714048245E+04  0.00000000000E+00 0. -1.
         -2   -1    0    0    0  501 -0.00000000000E+00 -0.00000000000E+00 -0.19666614891E+03  0.19666614891E+03  0.00000000000E+00 0.  1.
         23    2    1    2    0    0 -0.19307863532E+03 -0.31671361261E+03  0.11092528270E+04  0.11729594464E+04  0.88346799403E+02 0.  0.
        254    2    1    2    0    0  0.19307863532E+03  0.31671361261E+03  0.12654858486E+04  0.15951115270E+04  0.89740708635E+03 0.  0.
        -24    2    4    4    0    0  0.53142407713E+03  0.31374321807E+03  0.77483063111E+03  0.99373773943E+03  0.79409264127E+02 0.  0.
         24    2    4    4    0    0 -0.33834544180E+03  0.29703945382E+01  0.49065521751E+03  0.60137378755E+03  0.80133817157E+02 0.  0.
         11    1    3    3    0    0 -0.79426089626E+01 -0.32396793555E+02  0.45544847353E+02  0.56453258455E+02  0.00000000000E+00 0.  1.
        -11    1    3    3    0    0 -0.18513602636E+03 -0.28431681906E+03  0.10637079796E+04  0.11165061880E+04  0.00000000000E+00 0. -1.
          4    1    6    6  502    0 -0.27522274262E+03  0.27093422601E+02  0.42569112863E+03  0.50763623650E+03  0.00000000000E+00 0. -1.
          3    1    5    5  503    0  0.32193470173E+03  0.14576865886E+03  0.42494820976E+03  0.55269470330E+03  0.00000000000E+00 0. -1.
         -4    1    5    5    0  503  0.20948937540E+03  0.16797455921E+03  0.34988242135E+03  0.44104303613E+03  0.00000000000E+00 0.  1.
         -3    1    6    6    0  502 -0.63122699179E+02 -0.24123028062E+02  0.64964088876E+02  0.93737551056E+02  0.00000000000E+00 0.  1.
<mgrwt>
<rscale>  0 0.14222634E+04</rscale>
<asrwt>0</asrwt>
<pdfrwt beam="1">  1        2 0.39560072E+00 0.14222634E+04</pdfrwt>
<pdfrwt beam="2">  1       -2 0.30256332E-01 0.14222634E+04</pdfrwt>
<totfact> 0.31148147E+01</totfact>
</mgrwt>
</event>
<event>
12    1  0.1663913E-007  0.2110354E+04  0.7818608E-02  0.8556696E-01
          2   -1    0    0  501    0  0.00000000000E+00  0.00000000000E+00  0.18682801718E+04  0.18682801718E+04  0.00000000000E+00 0. -1.
         -2   -1    0    0    0  501 -0.00000000000E+00 -0.00000000000E+00 -0.59594849294E+03  0.59594849294E+03  0.00000000000E+00 0.  1.
         23    2    1    2    0    0  0.43599415060E+03 -0.30284214455E+02 -0.29279652424E+03  0.53398842424E+03  0.91683147938E+02 0.  0.
        254    2    1    2    0    0 -0.43599415060E+03  0.30284214455E+02  0.15651282031E+04  0.19302402405E+04  0.10417260009E+04 0.  0.
        -24    2    4    4    0    0  0.23255207299E+03 -0.52183564882E+01  0.21614541276E+02  0.24585937674E+03  0.76628629400E+02 0.  0.
         24    2    4    4    0    0 -0.66854622359E+03  0.35502570943E+02  0.15435136619E+04  0.16843808638E+04  0.80560439188E+02 0.  0.
         11    1    3    3    0    0  0.22147542204E+03 -0.10173742968E+02 -0.20286198521E+03  0.30051264975E+03  0.00000000000E+00 0.  1.
        -11    1    3    3    0    0  0.21451872856E+03 -0.20110471486E+02 -0.89934539027E+02  0.23347577449E+03  0.00000000000E+00 0. -1.
          2    1    6    6  502    0 -0.64288576975E+03  0.18078871883E+02  0.14798845312E+04  0.16135944919E+04  0.00000000000E+00 0. -1.
          3    1    5    5  503    0  0.23461571928E+03 -0.14655851614E+02  0.22558157425E+02  0.23615291695E+03  0.00000000000E+00 0. -1.
         -4    1    5    5    0  503 -0.20636462909E+01  0.94374951256E+01 -0.94361614889E+00  0.97064597922E+01  0.00000000000E+00 0.  1.
         -3    1    6    6    0  502 -0.25660453836E+02  0.17423699060E+02  0.63629130678E+02  0.70786371928E+02  0.00000000000E+00 0.  1.
<mgrwt>
<rscale>  0 0.21103542E+04</rscale>
<asrwt>0</asrwt>
<pdfrwt beam="1">  1        2 0.28742772E+00 0.21103542E+04</pdfrwt>
<pdfrwt beam="2">  1       -2 0.91684384E-01 0.21103542E+04</pdfrwt>
<totfact> 0.73711764E+00</totfact>
</mgrwt>
</event>
<event>
12    1  0.1663913E-007  0.2634683E+04  0.7818608E-02  0.8356515E-01
         -4   -1    0    0    0  501 -0.00000000000E+00  0.00000000000E+00  0.19917843834E+04  0.19917843834E+04  0.00000000000E+00 0.  1.
          4   -1    0    0  501    0  0.00000000000E+00 -0.00000000000E+00 -0.87127317229E+03  0.87127317229E+03  0.00000000000E+00 0. -1.
         23    2    1    2    0    0 -0.10191685539E+04 -0.10982912746E+03  0.10678909753E+04  0.14832783522E+04  0.94639085146E+02 0.  0.
        254    2    1    2    0    0  0.10191685539E+04  0.10982912746E+03  0.52620235833E+02  0.13797792035E+04  0.92209261076E+03 0.  0.
        -24    2    4    4    0    0  0.10726221138E+03  0.29546902781E+02 -0.35182300809E+03  0.37578068613E+03  0.71087928616E+02 0.  0.
         24    2    4    4    0    0  0.91190634252E+03  0.80282224676E+02  0.40444324392E+03  0.10039985174E+04  0.80126601605E+02 0.  0.
         11    1    3    3    0    0 -0.33287548741E+02  0.93618294939E+01  0.53611959339E+02  0.63796135751E+02  0.00000000000E+00 0. -1.
        -11    1    3    3    0    0 -0.98588100515E+03 -0.11919095695E+03  0.10142790159E+04  0.14194822164E+04  0.00000000000E+00 0.  1.
          2    1    6    6  502    0  0.26218029110E+03  0.45819390341E+02  0.86708973055E+02  0.27992207412E+03  0.00000000000E+00 0. -1.
          3    1    5    5  503    0  0.49745978184E+02 -0.19330317986E+02 -0.18757535882E+03  0.19502009839E+03  0.00000000000E+00 0. -1.
         -4    1    5    5    0  503  0.57516233194E+02  0.48877220767E+02 -0.16424764926E+03  0.18076058774E+03  0.00000000000E+00 0.  1.
         -1    1    6    6    0  502  0.64972605141E+03  0.34462834335E+02  0.31773427087E+03  0.72407644328E+03  0.00000000000E+00 0.  1.
<mgrwt>
<rscale>  0 0.26346827E+04</rscale>
<asrwt>0</asrwt>
<pdfrwt beam="1">  1        4 0.13404203E+00 0.26346827E+04</pdfrwt>
<pdfrwt beam="2">  1       -4 0.30642837E+00 0.26346827E+04</pdfrwt>
<totfact> 0.19794998E-02</totfact>
</mgrwt>
</event>
<event>
12    1  0.1663913E-007  0.2999642E+04  0.7818608E-02  0.8243833E-01
          1   -1    0    0  501    0  0.00000000000E+00  0.00000000000E+00  0.30781923299E+04  0.30781923299E+04  0.00000000000E+00 0. -1.
         -1   -1    0    0    0  501 -0.00000000000E+00 -0.00000000000E+00 -0.73077393846E+03  0.73077393846E+03  0.00000000000E+00 0.  1.
         23    2    1    2    0    0 -0.65821402657E+01  0.11071591615E+04  0.20757555022E+04  0.23543257088E+04  0.90795950860E+02 0.  0.
        254    2    1    2    0    0  0.65821402657E+01 -0.11071591615E+04  0.27166288917E+03  0.14546405595E+04  0.90351186967E+03 0.  0.
        -24    2    4    4    0    0  0.40146940475E+03 -0.86917043933E+03  0.16597722182E+03  0.97491903750E+03  0.79270145448E+02 0.  0.
         24    2    4    4    0    0 -0.39488726449E+03 -0.23798872214E+03  0.10568566735E+03  0.47972152201E+03  0.79929311783E+02 0.  0.
         11    1    3    3    0    0 -0.10716648390E+02  0.74818159024E+02  0.10271099315E+03  0.12752314138E+03  0.00000000000E+00 0.  1.
        -11    1    3    3    0    0  0.41345081245E+01  0.10323410024E+04  0.19730445091E+04  0.22268025674E+04  0.00000000000E+00 0. -1.
          2    1    6    6  502    0 -0.61234042055E+01 -0.46126031949E+01  0.15662611438E+02  0.17438164592E+02  0.00000000000E+00 0. -1.
          1    1    5    5  503    0  0.58106783843E+02 -0.16261645227E+03  0.34814766639E+01  0.17272124814E+03  0.00000000000E+00 0. -1.
         -2    1    5    5    0  503  0.34336262091E+03 -0.70655398706E+03  0.16249574516E+03  0.80219778937E+03  0.00000000000E+00 0.  1.
         -1    1    6    6    0  502 -0.38876386028E+03 -0.23337611894E+03  0.90023055910E+02  0.46228335742E+03  0.00000000000E+00 0.  1.
<mgrwt>
<rscale>  0 0.29996418E+04</rscale>
<asrwt>0</asrwt>
<pdfrwt beam="1">  1        1 0.47356804E+00 0.29996418E+04</pdfrwt>
<pdfrwt beam="2">  1       -1 0.11242676E+00 0.29996418E+04</pdfrwt>
<totfact> 0.32273528E-01</totfact>
</mgrwt>
</event>
<event>
12    1  0.1663913E-007  0.3254969E+04  0.7818608E-02  0.8174449E-01
          2   -1    0    0  501    0  0.00000000000E+00  0.00000000000E+00  0.23073745463E+04  0.23073745463E+04  0.00000000000E+00 0.  1.
         -2   -1    0    0    0  501 -0.00000000000E+00 -0.00000000000E+00 -0.11479307110E+04  0.11479307110E+04  0.00000000000E+00 0. -1.
         23    2    1    2    0    0 -0.14413798422E+04 -0.37064740839E+03  0.61139939135E+03  0.16116988267E+04  0.93853831019E+02 0.  0.
        254    2    1    2    0    0  0.14413798422E+04  0.37064740839E+03  0.54804444402E+03  0.18436064306E+04  0.93998755712E+03 0.  0.
        -24    2    4    4    0    0  0.10465786031E+03 -0.15905305290E+03 -0.13781429779E+03  0.24861066627E+03  0.81014451484E+02 0.  0.
         24    2    4    4    0    0  0.13367219819E+04  0.52970046129E+03  0.68585874181E+03  0.15949957643E+04  0.78746676066E+02 0.  0.
         13    1    3    3    0    0 -0.53699961946E+03 -0.14939132659E+03  0.27689583977E+03  0.62238064385E+03  0.00000000000E+00 0.  1.
        -13    1    3    3    0    0 -0.90438022270E+03 -0.22125608180E+03  0.33450355158E+03  0.98931818288E+03  0.00000000000E+00 0. -1.
          4    1    6    6  502    0  0.12911635698E+04  0.50085524146E+03  0.64733302685E+03  0.15287247576E+04  0.00000000000E+00 0. -1.
          3    1    5    5  503    0  0.66453384990E+02 -0.10851859157E+03 -0.13452629511E+03  0.18517467745E+03  0.00000000000E+00 0. -1.
         -4    1    5    5    0  503  0.38204475315E+02 -0.50534461330E+02 -0.32880026770E+01  0.63435988821E+02  0.00000000000E+00 0.  1.
         -3    1    6    6    0  502  0.45558412040E+02  0.28845219828E+02  0.38525714958E+02  0.66271006689E+02  0.00000000000E+00 0.  1.
<mgrwt>
<rscale>  0 0.32549692E+04</rscale>
<asrwt>0</asrwt>
<pdfrwt beam="1">  1        2 0.35498070E+00 0.32549692E+04</pdfrwt>
<pdfrwt beam="2">  1       -2 0.17660473E+00 0.32549692E+04</pdfrwt>
<totfact> 0.72059295E-01</totfact>
</mgrwt>
</event>
<event>
12    1  0.1663913E-007  0.1174319E+04  0.7818608E-02  0.9135637E-01
          1   -1    0    0  501    0  0.00000000000E+00  0.00000000000E+00  0.35549179341E+03  0.35549179341E+03  0.00000000000E+00 0. -1.
         -1   -1    0    0    0  501 -0.00000000000E+00 -0.00000000000E+00 -0.96980126330E+03  0.96980126330E+03  0.00000000000E+00 0.  1.
         23    2    1    2    0    0 -0.10542666474E+03 -0.71678548051E+02  0.90148532156E+02  0.18042957963E+03  0.90418358008E+02 0.  0.
        254    2    1    2    0    0  0.10542666474E+03  0.71678548051E+02 -0.70445800205E+03  0.11448634771E+04  0.89341967105E+03 0.  0.
        -24    2    4    4    0    0  0.48597628688E+03  0.74938526829E+02 -0.29216665225E+03  0.57785802319E+03  0.82278843381E+02 0.  0.
         24    2    4    4    0    0 -0.38054962214E+03 -0.32599787782E+01 -0.41229134980E+03  0.56700545389E+03  0.81745857695E+02 0.  0.
         13    1    3    3    0    0 -0.57259520847E+02 -0.56689647890E+02  0.40938810563E+01  0.80679171833E+02  0.00000000000E+00 0.  1.
        -13    1    3    3    0    0 -0.48167143896E+02 -0.14988900161E+02  0.86054651100E+02  0.99750407794E+02  0.00000000000E+00 0. -1.
          2    1    6    6  502    0 -0.81643966554E+02 -0.33608519107E+02 -0.81761505716E+02  0.12033375939E+03  0.00000000000E+00 0. -1.
          3    1    5    5  503    0  0.96367103118E+02  0.48561169729E+02 -0.57578419680E+02  0.12231140659E+03  0.00000000000E+00 0. -1.
         -4    1    5    5    0  503  0.38960918376E+03  0.26377357100E+02 -0.23458823257E+03  0.45554661660E+03  0.00000000000E+00 0.  1.
         -1    1    6    6    0  502 -0.29890565558E+03  0.30348540329E+02 -0.33052984408E+03  0.44667169450E+03  0.00000000000E+00 0.  1.
<mgrwt>
<rscale>  0 0.11743192E+04</rscale>
<asrwt>0</asrwt>
<pdfrwt beam="1">  1        1 0.54691045E-01 0.11743192E+04</pdfrwt>
<pdfrwt beam="2">  1       -1 0.14920020E+00 0.11743192E+04</pdfrwt>
<totfact> 0.24626609E+01</totfact>
</mgrwt>
</event>
<event>
12    1  0.1663913E-007  0.1877365E+04  0.7818608E-02  0.8666206E-01
         -2   -1    0    0    0  501 -0.00000000000E+00  0.00000000000E+00  0.37956602207E+03  0.37956602207E+03  0.00000000000E+00 0. -1.
          2   -1    0    0  501    0  0.00000000000E+00 -0.00000000000E+00 -0.23214013652E+04  0.23214013652E+04  0.00000000000E+00 0.  1.
         23    2    1    2    0    0 -0.12617507624E+03 -0.70509497991E+03 -0.66227467340E+03  0.97941415195E+03  0.86978488429E+02 0.  0.
        254    2    1    2    0    0  0.12617507624E+03  0.70509497991E+03 -0.12795606697E+04  0.17215532353E+04  0.90188189581E+03 0.  0.
        -24    2    4    4    0    0  0.26069386858E+03  0.78928409612E+03 -0.62320598101E+03  0.10417302259E+04  0.76716955434E+02 0.  0.
         24    2    4    4    0    0 -0.13451879234E+03 -0.84189116203E+02 -0.65635468872E+03  0.67982300945E+03  0.78579475622E+02 0.  0.
         11    1    3    3    0    0 -0.53361619102E+02 -0.32046546070E+03 -0.35933905309E+03  0.48442763027E+03  0.00000000000E+00 0. -1.
        -11    1    3    3    0    0 -0.72813457140E+02 -0.38462951921E+03 -0.30293562031E+03  0.49498652168E+03  0.00000000000E+00 0.  1.
          4    1    6    6  502    0 -0.38253308782E+02 -0.20507377869E+02 -0.71146707516E+02  0.83340999336E+02  0.00000000000E+00 0. -1.
          1    1    5    5  503    0  0.66132447865E+02  0.30412597736E+03 -0.21060599150E+03  0.37579381904E+03  0.00000000000E+00 0. -1.
         -2    1    5    5    0  503  0.19456142072E+03  0.48515811875E+03 -0.41259998951E+03  0.66593640685E+03  0.00000000000E+00 0.  1.
         -3    1    6    6    0  502 -0.96265483560E+02 -0.63681738335E+02 -0.58520798121E+03  0.59648201012E+03  0.00000000000E+00 0.  1.
<mgrwt>
<rscale>  0 0.18773653E+04</rscale>
<asrwt>0</asrwt>
<pdfrwt beam="1">  1        2 0.35713867E+00 0.18773653E+04</pdfrwt>
<pdfrwt beam="2">  1       -2 0.58394773E-01 0.18773653E+04</pdfrwt>
<totfact> 0.11348379E+01</totfact>
</mgrwt>
</event>
<event>
12    1  0.1663913E-007  0.1430905E+04  0.7818608E-02  0.8931747E-01
          1   -1    0    0  501    0  0.00000000000E+00  0.00000000000E+00  0.15415587557E+04  0.15415587557E+04  0.00000000000E+00 0. -1.
         -1   -1    0    0    0  501 -0.00000000000E+00 -0.00000000000E+00 -0.33204866661E+03  0.33204866661E+03  0.00000000000E+00 0.  1.
         23    2    1    2    0    0  0.12995702970E+03 -0.14071334278E+03 -0.13094334988E+03  0.24951567634E+03  0.91776017876E+02 0.  0.
        254    2    1    2    0    0 -0.12995702970E+03  0.14071334278E+03  0.13404534390E+04  0.16240917460E+04  0.89675498486E+03 0.  0.
        -24    2    4    4    0    0 -0.32144517435E+03 -0.13094369839E+03  0.12047291139E+04  0.12562339607E+04  0.79235558935E+02 0.  0.
         24    2    4    4    0    0  0.19148814465E+03  0.27165704116E+03  0.13572432504E+03  0.36785778527E+03  0.80205986213E+02 0.  0.
         13    1    3    3    0    0  0.20745216008E+02 -0.88228565923E+02 -0.46872548479E+02  0.10203763832E+03  0.00000000000E+00 0. -1.
        -13    1    3    3    0    0  0.10921181369E+03 -0.52484776854E+02 -0.84070801396E+02  0.14747803802E+03  0.00000000000E+00 0.  1.
          4    1    6    6  502    0 -0.79030304583E+01  0.13315176412E+02  0.45141236487E+01  0.16128519016E+02  0.00000000000E+00 0. -1.
          1    1    5    5  503    0 -0.24918097793E+02 -0.27811385162E+02  0.76331649594E+02  0.84975911128E+02  0.00000000000E+00 0. -1.
         -2    1    5    5    0  503 -0.29652707655E+03 -0.10313231322E+03  0.11283974643E+04  0.11712580496E+04  0.00000000000E+00 0.  1.
         -3    1    6    6    0  502  0.19939117511E+03  0.25834186475E+03  0.13121020139E+03  0.35172926626E+03  0.00000000000E+00 0.  1.
<mgrwt>
<rscale>  0 0.14309053E+04</rscale>
<asrwt>0</asrwt>
<pdfrwt beam="1">  1        1 0.23716288E+00 0.14309053E+04</pdfrwt>
<pdfrwt beam="2">  1       -1 0.51084411E-01 0.14309053E+04</pdfrwt>
<totfact> 0.22941922E+01</totfact>
</mgrwt>
</event>
<event>
12    1  0.1663913E-007  0.2812285E+04  0.7818608E-02  0.8299464E-01
          2   -1    0    0  501    0  0.00000000000E+00  0.00000000000E+00  0.38338264094E+04  0.38338264094E+04  0.00000000000E+00 0. -1.
         -2   -1    0    0    0  501 -0.00000000000E+00 -0.00000000000E+00 -0.51573468231E+03  0.51573468231E+03  0.00000000000E+00 0.  1.
         23    2    1    2    0    0 -0.12410761083E+04 -0.19890239599E+03  0.16235015141E+04  0.20551953156E+04  0.90766453072E+02 0.  0.
        254    2    1    2    0    0  0.12410761083E+04  0.19890239599E+03  0.16945902129E+04  0.22943657761E+04  0.90146894289E+03 0.  0.
        -24    2    4    4    0    0  0.55390826271E+02 -0.35228002478E+02 -0.90336328736E+02  0.13725250332E+03  0.79802516158E+02 0.  0.
         24    2    4    4    0    0  0.11856852821E+04  0.23413039846E+03  0.17849265416E+04  0.21571132728E+04  0.80673917002E+02 0.  0.
         13    1    3    3    0    0 -0.20856275152E+03 -0.41478675988E+01  0.24139379596E+03  0.31904010853E+03  0.00000000000E+00 0.  1.
        -13    1    3    3    0    0 -0.10325133568E+04 -0.19475452839E+03  0.13821077182E+04  0.17361552071E+04  0.00000000000E+00 0. -1.
          4    1    6    6  502    0  0.58138578718E+03  0.74479861711E+02  0.84995994951E+03  0.10324672388E+04  0.00000000000E+00 0. -1.
          3    1    5    5  503    0  0.10010077531E+02  0.10497463743E+02 -0.67284366497E+02  0.68830112393E+02  0.00000000000E+00 0. -1.
         -4    1    5    5    0  503  0.45380748740E+02 -0.45725466221E+02 -0.23051962239E+02  0.68422390929E+02  0.00000000000E+00 0.  1.
         -3    1    6    6    0  502  0.60429949488E+03  0.15965053675E+03  0.93496659214E+03  0.11246460340E+04  0.00000000000E+00 0.  1.
<mgrwt>
<rscale>  0 0.28122854E+04</rscale>
<asrwt>0</asrwt>
<pdfrwt beam="1">  1        2 0.58981943E+00 0.28122854E+04</pdfrwt>
<pdfrwt beam="2">  1       -2 0.79343800E-01 0.28122854E+04</pdfrwt>
<totfact> 0.56655906E-01</totfact>
</mgrwt>
</event>
<event>
12    1  0.1663913E-007  0.2604662E+04  0.7818608E-02  0.8366619E-01
         -2   -1    0    0    0  501 -0.00000000000E+00  0.00000000000E+00  0.70061502833E+03  0.70061502833E+03  0.00000000000E+00 0.  1.
          2   -1    0    0  501    0  0.00000000000E+00 -0.00000000000E+00 -0.24208246500E+04  0.24208246500E+04  0.00000000000E+00 0. -1.
         23    2    1    2    0    0 -0.31683782321E+03 -0.75374437974E+03 -0.17205851021E+04  0.19072177210E+04  0.92463751842E+02 0.  0.
        254    2    1    2    0    0  0.31683782321E+03  0.75374437974E+03  0.37548049799E+00  0.12142219573E+04  0.89767367366E+03 0.  0.
        -24    2    4    4    0    0 -0.14956590069E+03  0.36903347730E+03  0.32793285962E+03  0.52202016287E+03  0.80058878354E+02 0.  0.
         24    2    4    4    0    0  0.46640372390E+03  0.38471090243E+03 -0.32755737912E+03  0.69220179442E+03  0.79464303104E+02 0.  0.
         11    1    3    3    0    0 -0.25321787019E+03 -0.57290211382E+03 -0.12250790296E+04  0.13759196018E+04  0.00000000000E+00 0. -1.
        -11    1    3    3    0    0 -0.63619953020E+02 -0.18084226592E+03 -0.49550607256E+03  0.53129811924E+03  0.00000000000E+00 0.  1.
          2    1    6    6  502    0  0.29829548331E+03  0.19532797031E+03 -0.19007848465E+03  0.40405821570E+03  0.00000000000E+00 0. -1.
          1    1    5    5  503    0 -0.46970628833E+02  0.15630065453E+03  0.88302743887E+02  0.18556268255E+03  0.00000000000E+00 0. -1.
         -2    1    5    5    0  503 -0.10259527186E+03  0.21273282278E+03  0.23963011573E+03  0.33645748031E+03  0.00000000000E+00 0.  1.
         -1    1    6    6    0  502  0.16810824059E+03  0.18938293213E+03 -0.13747889447E+03  0.28814357872E+03  0.00000000000E+00 0.  1.
<mgrwt>
<rscale>  0 0.26046621E+04</rscale>
<asrwt>0</asrwt>
<pdfrwt beam="1">  1        2 0.37243456E+00 0.26046621E+04</pdfrwt>
<pdfrwt beam="2">  1       -2 0.10778693E+00 0.26046621E+04</pdfrwt>
<totfact> 0.23596110E+00</totfact>
</mgrwt>
</event>
<event>
12    1  0.1663913E-007  0.1821718E+04  0.7818608E-02  0.8694835E-01
         -1   -1    0    0    0  501 -0.00000000000E+00  0.00000000000E+00  0.74831554289E+03  0.74831554289E+03  0.00000000000E+00 0.  1.
          1   -1    0    0  501    0  0.00000000000E+00 -0.00000000000E+00 -0.11087086431E+04  0.11087086431E+04  0.00000000000E+00 0. -1.
         23    2    1    2    0    0 -0.11317794556E+03 -0.35586674512E+03 -0.60005587602E+03  0.71288283265E+03  0.93190617005E+02 0.  0.
        254    2    1    2    0    0  0.11317794556E+03  0.35586674512E+03  0.23966277585E+03  0.11441413533E+04  0.10545950894E+04 0.  0.
        -24    2    4    4    0    0  0.18466722716E+03  0.63621179227E+03  0.42421830067E+03  0.79075891271E+03  0.80442911491E+02 0.  0.
         24    2    4    4    0    0 -0.71489281598E+02 -0.28034504715E+03 -0.18455552482E+03  0.35338244058E+03  0.84346575068E+02 0.  0.
         13    1    3    3    0    0 -0.10457205105E+03 -0.21320151360E+03 -0.32022994087E+03  0.39866955526E+03  0.00000000000E+00 0.  1.
        -13    1    3    3    0    0 -0.86058945083E+01 -0.14266523152E+03 -0.27982593515E+03  0.31421327739E+03  0.00000000000E+00 0. -1.
          2    1    6    6  502    0 -0.19853354421E+02 -0.15168575697E+02 -0.39519912822E+02  0.46755372738E+02  0.00000000000E+00 0. -1.
          1    1    5    5  503    0  0.62291964302E+02  0.11104472406E+03  0.96343460786E+02  0.15966615795E+03  0.00000000000E+00 0. -1.
         -2    1    5    5    0  503  0.12237526285E+03  0.52516706821E+03  0.32787483988E+03  0.63109275476E+03  0.00000000000E+00 0.  1.
         -1    1    6    6    0  502 -0.51635927178E+02 -0.26517647145E+03 -0.14503561200E+03  0.30662706784E+03  0.00000000000E+00 0.  1.
<mgrwt>
<rscale>  0 0.18217178E+04</rscale>
<asrwt>0</asrwt>
<pdfrwt beam="1">  1        1 0.17057056E+00 0.18217178E+04</pdfrwt>
<pdfrwt beam="2">  1       -1 0.11512547E+00 0.18217178E+04</pdfrwt>
<totfact> 0.80539463E+00</totfact>
</mgrwt>
</event>
<event>
12    1  0.1663913E-007  0.1411167E+04  0.7818608E-02  0.8945775E-01
         -1   -1    0    0    0  501 -0.00000000000E+00  0.00000000000E+00  0.32936945522E+03  0.32936945522E+03  0.00000000000E+00 0.  1.
          1   -1    0    0  501    0  0.00000000000E+00 -0.00000000000E+00 -0.15115181406E+04  0.15115181406E+04  0.00000000000E+00 0. -1.
         23    2    1    2    0    0  0.34945849583E+02 -0.33317119582E+03 -0.66460069926E+03  0.74920146555E+03  0.85933045986E+02 0.  0.
        254    2    1    2    0    0 -0.34945849583E+02  0.33317119582E+03 -0.51754798608E+03  0.10916861302E+04  0.90094307864E+03 0.  0.
        -24    2    4    4    0    0 -0.99950217202E+02  0.56650140044E+03 -0.81606084076E+02  0.58667091325E+03  0.81297754481E+02 0.  0.
         24    2    4    4    0    0  0.65004367619E+02 -0.23333020461E+03 -0.43594190201E+03  0.50501521699E+03  0.79539143021E+02 0.  0.
         13    1    3    3    0    0  0.60433806610E+02 -0.17582890094E+03 -0.37836115855E+03  0.42157468340E+03  0.00000000000E+00 0. -1.
        -13    1    3    3    0    0 -0.25487957027E+02 -0.15734229488E+03 -0.28623954072E+03  0.32762678215E+03  0.00000000000E+00 0.  1.
          2    1    6    6  502    0  0.82755609183E+02 -0.18237486991E+03 -0.35813934755E+03  0.41033264103E+03  0.00000000000E+00 0. -1.
          1    1    5    5  503    0 -0.97208956499E+02  0.41521192582E+03 -0.87156485799E+02  0.43525484212E+03  0.00000000000E+00 0. -1.
         -2    1    5    5    0  503 -0.27412607036E+01  0.15128947461E+03  0.55504017234E+01  0.15141607114E+03  0.00000000000E+00 0.  1.
         -1    1    6    6    0  502 -0.17751241564E+02 -0.50955334701E+02 -0.77802554455E+02  0.94682575965E+02  0.00000000000E+00 0.  1.
<mgrwt>
<rscale>  0 0.14111668E+04</rscale>
<asrwt>0</asrwt>
<pdfrwt beam="1">  1        1 0.23254126E+00 0.14111668E+04</pdfrwt>
<pdfrwt beam="2">  1       -1 0.50672222E-01 0.14111668E+04</pdfrwt>
<totfact> 0.24480098E+01</totfact>
</mgrwt>
</event>
<event>
12    1  0.1663913E-007  0.2159179E+04  0.7818608E-02  0.8535614E-01
         -1   -1    0    0    0  501 -0.00000000000E+00  0.00000000000E+00  0.19025400053E+04  0.19025400053E+04  0.00000000000E+00 0.  1.
          1   -1    0    0  501    0  0.00000000000E+00 -0.00000000000E+00 -0.61260894948E+03  0.61260894948E+03  0.00000000000E+00 0. -1.
         23    2    1    2    0    0  0.51840937818E+03 -0.71013515137E+03  0.36709052660E+03  0.95724441641E+03  0.92310353940E+02 0.  0.
        254    2    1    2    0    0 -0.51840937818E+03  0.71013515137E+03  0.92284052927E+03  0.15579045384E+04  0.89576318955E+03 0.  0.
        -24    2    4    4    0    0 -0.36614546026E+03  0.91479461418E+03  0.70216897565E+03  0.12125713165E+04  0.79851380502E+02 0.  0.
         24    2    4    4    0    0 -0.15226391791E+03 -0.20465946281E+03  0.22067155362E+03  0.34533322194E+03  0.74089831830E+02 0.  0.
         13    1    3    3    0    0  0.41907082196E+03 -0.57719458525E+03  0.33575500572E+03  0.78835611682E+03  0.00000000000E+00 0. -1.
        -13    1    3    3    0    0  0.99338556220E+02 -0.13294056611E+03  0.31335520881E+02  0.16888829959E+03  0.00000000000E+00 0.  1.
          2    1    6    6  502    0 -0.92286682306E+00  0.54619345808E+01  0.73591285768E+00  0.55880211410E+01  0.00000000000E+00 0. -1.
          3    1    5    5  503    0 -0.38236448738E+02  0.12796254161E+03  0.12662108907E+03  0.18403624172E+03  0.00000000000E+00 0. -1.
         -4    1    5    5    0  503 -0.32790901152E+03  0.78683207257E+03  0.57554788658E+03  0.10285350748E+04  0.00000000000E+00 0.  1.
         -1    1    6    6    0  502 -0.15134105109E+03 -0.21012139739E+03  0.21993564076E+03  0.33974520080E+03  0.00000000000E+00 0.  1.
<mgrwt>
<rscale>  0 0.21591786E+04</rscale>
<asrwt>0</asrwt>
<pdfrwt beam="1">  1        1 0.94247531E-01 0.21591786E+04</pdfrwt>
<pdfrwt beam="2">  1       -1 0.29269846E+00 0.21591786E+04</pdfrwt>
<totfact> 0.11200603E+00</totfact>
</mgrwt>
</event>
<event>
12    1  0.1663913E-007  0.1675223E+04  0.7818608E-02  0.8775623E-01
          1   -1    0    0  501    0  0.00000000000E+00  0.00000000000E+00  0.14195685823E+04  0.14195685823E+04  0.00000000000E+00 0. -1.
         -1   -1    0    0    0  501 -0.00000000000E+00 -0.00000000000E+00 -0.49422954035E+03  0.49422954035E+03  0.00000000000E+00 0.  1.
         23    2    1    2    0    0  0.41907392120E+03 -0.18954787736E+03 -0.91489124855E+02  0.47844091148E+03  0.94784474281E+02 0.  0.
        254    2    1    2    0    0 -0.41907392120E+03  0.18954787736E+03  0.10168281668E+04  0.14353572111E+04  0.90264026811E+03 0.  0.
        -24    2    4    4    0    0  0.16085634078E+03 -0.19538951329E+03  0.49646871713E+03  0.56261350341E+03  0.77465752793E+02 0.  0.
         24    2    4    4    0    0 -0.57993026198E+03  0.38493739065E+03  0.52035944964E+03  0.87274370774E+03  0.80073210765E+02 0.  0.
         11    1    3    3    0    0  0.40170552305E+03 -0.20050374755E+03 -0.85324198560E+02  0.45700032701E+03  0.00000000000E+00 0.  1.
        -11    1    3    3    0    0  0.17368398152E+02  0.10955870188E+02 -0.61649262949E+01  0.21440584464E+02  0.00000000000E+00 0. -1.
          2    1    6    6  502    0 -0.45469240849E+03  0.26989212154E+03  0.36596114281E+03  0.64305093239E+03  0.00000000000E+00 0. -1.
          3    1    5    5  503    0  0.47327167223E+02 -0.12584443254E+02  0.10627372831E+03  0.11701424827E+03  0.00000000000E+00 0. -1.
         -4    1    5    5    0  503  0.11352917356E+03 -0.18280507003E+03  0.39019498882E+03  0.44559925513E+03  0.00000000000E+00 0.  1.
         -1    1    6    6    0  502 -0.12523785349E+03  0.11504526911E+03  0.15439830684E+03  0.22969277535E+03  0.00000000000E+00 0.  1.
<mgrwt>
<rscale>  0 0.16752226E+04</rscale>
<asrwt>0</asrwt>
<pdfrwt beam="1">  1        1 0.21839517E+00 0.16752226E+04</pdfrwt>
<pdfrwt beam="2">  1       -1 0.76035314E-01 0.16752226E+04</pdfrwt>
<totfact> 0.12330476E+01</totfact>
</mgrwt>
</event>
<event>
12    1  0.1663913E-007  0.1552299E+04  0.7818608E-02  0.8850400E-01
         -2   -1    0    0    0  501 -0.00000000000E+00  0.00000000000E+00  0.30798704077E+03  0.30798704077E+03  0.00000000000E+00 0.  1.
          2   -1    0    0  501    0  0.00000000000E+00 -0.00000000000E+00 -0.19559531322E+04  0.19559531322E+04  0.00000000000E+00 0. -1.
         23    2    1    2    0    0  0.13650867416E+03 -0.42245950453E+03 -0.92336276806E+03  0.10287638028E+04  0.93002739075E+02 0.  0.
        254    2    1    2    0    0 -0.13650867416E+03  0.42245950453E+03 -0.72460332336E+03  0.12351763701E+04  0.89638386758E+03 0.  0.
        -24    2    4    4    0    0  0.37496574162E+03  0.12157245724E+03 -0.29029178856E+03  0.49540754905E+03  0.76027280659E+02 0.  0.
         24    2    4    4    0    0 -0.51147441578E+03  0.30088704728E+03 -0.43431153481E+03  0.73976882110E+03  0.80574848283E+02 0.  0.
         11    1    3    3    0    0  0.11312272560E+03 -0.39035378585E+03 -0.77404179680E+03  0.87425026873E+03  0.00000000000E+00 0. -1.
        -11    1    3    3    0    0  0.23385948562E+02 -0.32105718681E+02 -0.14932097125E+03  0.15451353409E+03  0.00000000000E+00 0.  1.
          4    1    6    6  502    0 -0.10818128559E+03  0.80125893259E+02 -0.13803291241E+03  0.19281191414E+03  0.00000000000E+00 0. -1.
          1    1    5    5  503    0  0.11211900502E+03  0.15603736878E+02 -0.49608100986E+02  0.12359252232E+03  0.00000000000E+00 0. -1.
         -2    1    5    5    0  503  0.26284673660E+03  0.10596872037E+03 -0.24068368757E+03  0.37181502673E+03  0.00000000000E+00 0.  1.
         -3    1    6    6    0  502 -0.40329313019E+03  0.22076115403E+03 -0.29627862239E+03  0.54695690696E+03  0.00000000000E+00 0.  1.
<mgrwt>
<rscale>  0 0.15522992E+04</rscale>
<asrwt>0</asrwt>
<pdfrwt beam="1">  1        2 0.30091586E+00 0.15522992E+04</pdfrwt>
<pdfrwt beam="2">  1       -2 0.47382622E-01 0.15522992E+04</pdfrwt>
<totfact> 0.28723891E+01</totfact>
</mgrwt>
</event>
<event>
12    1  0.1924987E-007  0.1346361E+04  0.7818608E-02  0.8993587E-01
          2   -1    0    0  501    0  0.00000000000E+00  0.00000000000E+00  0.21960725710E+04  0.21960725710E+04  0.00000000000E+00 0. -1.
         -2   -1    0    0    0  501 -0.00000000000E+00 -0.00000000000E+00 -0.20635568507E+03  0.20635568507E+03  0.00000000000E+00 0.  1.
         23    2    1    2    0    0 -0.21047305616E+03  0.94991889547E+02  0.60972570383E+02  0.25595276819E+03  0.92042374789E+02 0.  0.
        254    2    1    2    0    0  0.21047305616E+03 -0.94991889547E+02  0.19287443156E+04  0.21464754879E+04  0.91322506472E+03 0.  0.
        -24    2    4    4    0    0  0.47327872274E+03 -0.32831109115E+03  0.12081234283E+04  0.13408050361E+04  0.80093725134E+02 0.  0.
         24    2    4    4    0    0 -0.26280566658E+03  0.23331920161E+03  0.72062088726E+03  0.80567045180E+03  0.79408724455E+02 0.  0.
         11    1    3    3    0    0  0.60612150515E+01 -0.38315012399E+00  0.13255861012E+02  0.14580911600E+02  0.00000000000E+00 0. -1.
        -11    1    3    3    0    0 -0.21653427121E+03  0.95375039671E+02  0.47716709372E+02  0.24137185659E+03  0.00000000000E+00 0.  1.
          4    1    6    6  502    0 -0.24123317943E+03  0.18156937099E+03  0.63781771900E+03  0.70567154258E+03  0.00000000000E+00 0. -1.
          1    1    5    5  503    0  0.46885776337E+03 -0.31777714161E+03  0.11542109014E+04  0.12856954223E+04  0.00000000000E+00 0. -1.
         -4    1    5    5    0  503  0.44209593754E+01 -0.10533949547E+02  0.53912526955E+02  0.55109613839E+02  0.00000000000E+00 0.  1.
         -3    1    6    6    0  502 -0.21572487157E+02  0.51749830617E+02  0.82803168265E+02  0.99998909223E+02  0.00000000000E+00 0.  1.
<mgrwt>
<rscale>  0 0.13463611E+04</rscale>
<asrwt>0</asrwt>
<pdfrwt beam="1">  1        2 0.33785730E+00 0.13463611E+04</pdfrwt>
<pdfrwt beam="2">  1       -2 0.31747030E-01 0.13463611E+04</pdfrwt>
<totfact> 0.46843875E+01</totfact>
</mgrwt>
</event>
<event>
12    1  0.1663913E-007  0.1435803E+04  0.7818608E-02  0.8928303E-01
         -1   -1    0    0    0  501 -0.00000000000E+00  0.00000000000E+00  0.29209870544E+03  0.29209870544E+03  0.00000000000E+00 0.  1.
          1   -1    0    0  501    0  0.00000000000E+00 -0.00000000000E+00 -0.17644114765E+04  0.17644114765E+04  0.00000000000E+00 0. -1.
         23    2    1    2    0    0 -0.18520556674E+03  0.99110333629E+02 -0.95885480685E+03  0.98591571528E+03  0.92213322434E+02 0.  0.
        254    2    1    2    0    0  0.18520556674E+03 -0.99110333629E+02 -0.51345796422E+03  0.10705944667E+04  0.91564702308E+03 0.  0.
        -24    2    4    4    0    0  0.46958501140E+03  0.63377117634E+02 -0.55149619416E+03  0.73148369575E+03  0.79960008798E+02 0.  0.
         24    2    4    4    0    0 -0.28437944466E+03 -0.16248745126E+03  0.38038229941E+02  0.33911077092E+03  0.79217218161E+02 0.  0.
         11    1    3    3    0    0 -0.60401377476E+02  0.69873404005E+01 -0.44567120843E+03  0.44979992814E+03  0.00000000000E+00 0. -1.
        -11    1    3    3    0    0 -0.12480418926E+03  0.92122993229E+02 -0.51318359842E+03  0.53611578714E+03  0.00000000000E+00 0.  1.
          2    1    6    6  502    0 -0.94426466522E+02 -0.38276476423E+02 -0.22229103731E+02  0.10428604547E+03  0.00000000000E+00 0. -1.
          1    1    5    5  503    0  0.42542697923E+02  0.23941041921E+02 -0.34560772697E+02  0.59812219857E+02  0.00000000000E+00 0. -1.
         -2    1    5    5    0  503  0.42704231348E+03  0.39436075713E+02 -0.51693542146E+03  0.67167147590E+03  0.00000000000E+00 0.  1.
         -1    1    6    6    0  502 -0.18995297814E+03 -0.12421097484E+03  0.60267333672E+02  0.23482472545E+03  0.00000000000E+00 0.  1.
<mgrwt>
<rscale>  0 0.14358026E+04</rscale>
<asrwt>0</asrwt>
<pdfrwt beam="1">  1        1 0.27144791E+00 0.14358026E+04</pdfrwt>
<pdfrwt beam="2">  1       -1 0.44938263E-01 0.14358026E+04</pdfrwt>
<totfact> 0.20569741E+01</totfact>
</mgrwt>
</event>
<event>
12    1  0.1663913E-007  0.2224824E+04  0.7818608E-02  0.8508166E-01
         -1   -1    0    0    0  501 -0.00000000000E+00  0.00000000000E+00  0.30693976101E+03  0.30693976101E+03  0.00000000000E+00 0.  1.
          1   -1    0    0  501    0  0.00000000000E+00 -0.00000000000E+00 -0.40316070896E+04  0.40316070896E+04  0.00000000000E+00 0. -1.
         23    2    1    2    0    0  0.21128942280E+02 -0.50891170219E+03 -0.49304343214E+02  0.52053235201E+03  0.95317670972E+02 0.  0.
        254    2    1    2    0    0 -0.21128942280E+02  0.50891170219E+03 -0.36753629854E+04  0.38180144986E+04  0.89972444918E+03 0.  0.
        -24    2    4    4    0    0  0.40530562666E+03  0.42364865726E+03 -0.20829662963E+04  0.21654055279E+04  0.80508838939E+02 0.  0.
         24    2    4    4    0    0 -0.42643456894E+03  0.85263044934E+02 -0.15923966891E+04  0.16526089707E+04  0.79202058685E+02 0.  0.
         11    1    3    3    0    0 -0.22288561356E+02 -0.58588000456E+02 -0.24944040079E+02  0.67465093939E+02  0.00000000000E+00 0. -1.
        -11    1    3    3    0    0  0.43417503636E+02 -0.45032370173E+03 -0.24360303135E+02  0.45306725807E+03  0.00000000000E+00 0.  1.
          4    1    6    6  502    0 -0.13114169721E+03  0.26817663571E+02 -0.36292232695E+03  0.38682030353E+03  0.00000000000E+00 0. -1.
          3    1    5    5  503    0  0.17056162368E+03  0.18224309980E+03 -0.10349348962E+04  0.10646098132E+04  0.00000000000E+00 0. -1.
         -4    1    5    5    0  503  0.23474400297E+03  0.24140555746E+03 -0.10480314001E+04  0.11007957148E+04  0.00000000000E+00 0.  1.
         -3    1    6    6    0  502 -0.29529287173E+03  0.58445381363E+02 -0.12294743621E+04  0.12657886671E+04  0.00000000000E+00 0.  1.
<mgrwt>
<rscale>  0 0.22248241E+04</rscale>
<asrwt>0</asrwt>
<pdfrwt beam="1">  1        1 0.62024728E+00 0.22248241E+04</pdfrwt>
<pdfrwt beam="2">  1       -1 0.47221499E-01 0.22248241E+04</pdfrwt>
<totfact> 0.36817507E-01</totfact>
</mgrwt>
</event>
<event>
12    1  0.1663913E-007  0.2189769E+04  0.7818608E-02  0.8522699E-01
         -1   -1    0    0    0  501 -0.00000000000E+00  0.00000000000E+00  0.81172532282E+03  0.81172532282E+03  0.00000000000E+00 0.  1.
          1   -1    0    0  501    0  0.00000000000E+00 -0.00000000000E+00 -0.14768197450E+04  0.14768197450E+04  0.00000000000E+00 0. -1.
         23    2    1    2    0    0 -0.66153959216E+03 -0.18331821652E+03  0.34530714390E+03  0.77362884701E+03  0.89578841218E+02 0.  0.
        254    2    1    2    0    0  0.66153959216E+03  0.18331821652E+03 -0.10104015661E+04  0.15149162209E+04  0.89600202616E+03 0.  0.
        -24    2    4    4    0    0 -0.32396797738E+02 -0.58533294176E+02 -0.70869037837E+03  0.71623654949E+03  0.79227794328E+02 0.  0.
         24    2    4    4    0    0  0.69393638990E+03  0.24185151069E+03 -0.30171118776E+03  0.79867967137E+03  0.82581536618E+02 0.  0.
         11    1    3    3    0    0 -0.25656021775E+03 -0.26238430606E+02  0.12617008263E+03  0.28710710601E+03  0.00000000000E+00 0. -1.
        -11    1    3    3    0    0 -0.40497937441E+03 -0.15707978591E+03  0.21913706127E+03  0.48652174100E+03  0.00000000000E+00 0.  1.
          2    1    6    6  502    0  0.39386565074E+03  0.10194809562E+03 -0.19216171916E+03  0.44994409802E+03  0.00000000000E+00 0. -1.
          1    1    5    5  503    0 -0.42525983566E+02 -0.66274545456E+02 -0.68332903590E+03  0.68785125279E+03  0.00000000000E+00 0. -1.
         -2    1    5    5    0  503  0.10129185828E+02  0.77412512800E+01 -0.25361342471E+02  0.28385296702E+02  0.00000000000E+00 0.  1.
         -1    1    6    6    0  502  0.30007073915E+03  0.13990341508E+03 -0.10954946860E+03  0.34873557334E+03  0.00000000000E+00 0.  1.
<mgrwt>
<rscale>  0 0.21897689E+04</rscale>
<asrwt>0</asrwt>
<pdfrwt beam="1">  1        1 0.22720303E+00 0.21897689E+04</pdfrwt>
<pdfrwt beam="2">  1       -1 0.12488082E+00 0.21897689E+04</pdfrwt>
<totfact> 0.34752241E+00</totfact>
</mgrwt>
</event>
<event>
12    1  0.1663913E-007  0.1413800E+04  0.7818608E-02  0.8943890E-01
          2   -1    0    0  501    0  0.00000000000E+00  0.00000000000E+00  0.11836485917E+04  0.11836485917E+04  0.00000000000E+00 0. -1.
         -2   -1    0    0    0  501 -0.00000000000E+00 -0.00000000000E+00 -0.42217537044E+03  0.42217537044E+03  0.00000000000E+00 0.  1.
         23    2    1    2    0    0 -0.11378634307E+03 -0.37386291212E+02 -0.22795583059E+03  0.27374912574E+03  0.92895944507E+02 0.  0.
        254    2    1    2    0    0  0.11378634307E+03  0.37386291212E+02  0.98942905180E+03  0.13320748364E+04  0.88380340261E+03 0.  0.
        -24    2    4    4    0    0 -0.35049512921E+03 -0.10534084132E+03  0.58640224507E+03  0.69588041746E+03  0.80239852527E+02 0.  0.
         24    2    4    4    0    0  0.46428147228E+03  0.14272713254E+03  0.40302680673E+03  0.63619441890E+03  0.79902514546E+02 0.  0.
         11    1    3    3    0    0 -0.11112161061E+03 -0.29614126770E+02 -0.12267895265E+03  0.16815211647E+03  0.00000000000E+00 0.  1.
        -11    1    3    3    0    0 -0.26647324555E+01 -0.77721644426E+01 -0.10527687794E+03  0.10559700927E+03  0.00000000000E+00 0. -1.
          4    1    6    6  502    0  0.34462974881E+02  0.28541642450E+02  0.58369368951E+02  0.73547979055E+02  0.00000000000E+00 0. -1.
          3    1    5    5  503    0 -0.17381574357E+03 -0.10473854136E+02  0.27467823554E+03  0.32522261209E+03  0.00000000000E+00 0. -1.
         -4    1    5    5    0  503 -0.17667938564E+03 -0.94866987187E+02  0.31172400953E+03  0.37065780537E+03  0.00000000000E+00 0.  1.
         -3    1    6    6    0  502  0.42981849740E+03  0.11418549009E+03  0.34465743778E+03  0.56264643984E+03  0.00000000000E+00 0.  1.
<mgrwt>
<rscale>  0 0.14137995E+04</rscale>
<asrwt>0</asrwt>
<pdfrwt beam="1">  1        2 0.18209978E+00 0.14137995E+04</pdfrwt>
<pdfrwt beam="2">  1       -2 0.64950057E-01 0.14137995E+04</pdfrwt>
<totfact> 0.41195921E+01</totfact>
</mgrwt>
</event>
<event>
12    1  0.1663913E-007  0.1513235E+04  0.7818608E-02  0.8875699E-01
         -1   -1    0    0    0  501 -0.00000000000E+00  0.00000000000E+00  0.66762559401E+03  0.66762559401E+03  0.00000000000E+00 0.  1.
          1   -1    0    0  501    0  0.00000000000E+00 -0.00000000000E+00 -0.85747154950E+03  0.85747154950E+03  0.00000000000E+00 0. -1.
         23    2    1    2    0    0  0.12764428857E+03 -0.23267431704E+03 -0.47263143993E+03  0.54951443215E+03  0.90306317141E+02 0.  0.
        254    2    1    2    0    0 -0.12764428857E+03  0.23267431704E+03  0.28278548444E+03  0.97558271135E+03  0.89518913882E+03 0.  0.
        -24    2    4    4    0    0 -0.22865791258E+03  0.10069555226E+03  0.57377171740E+03  0.63094302160E+03  0.80318600528E+02 0.  0.
         24    2    4    4    0    0  0.10101362401E+03  0.13197876478E+03 -0.29098623295E+03  0.34463968975E+03  0.80507026984E+02 0.  0.
         13    1    3    3    0    0  0.36486400208E+02 -0.13285369893E+03 -0.17582721913E+03  0.22337540981E+03  0.00000000000E+00 0.  1.
        -13    1    3    3    0    0  0.91157888362E+02 -0.99820618113E+02 -0.29680422080E+03  0.32613902234E+03  0.00000000000E+00 0. -1.
          2    1    6    6  502    0  0.70750713310E+02  0.28178010402E+02 -0.10928766727E+03  0.13320457170E+03  0.00000000000E+00 0. -1.
          1    1    5    5  503    0 -0.15676956607E+03  0.49546179930E+02  0.44878333688E+03  0.47795188487E+03  0.00000000000E+00 0. -1.
         -2    1    5    5    0  503 -0.71888346505E+02  0.51149372326E+02  0.12498838052E+03  0.15299113673E+03  0.00000000000E+00 0.  1.
         -1    1    6    6    0  502  0.30262910696E+02  0.10380075438E+03 -0.18169856568E+03  0.21143511805E+03  0.00000000000E+00 0.  1.
<mgrwt>
<rscale>  0 0.15132349E+04</rscale>
<asrwt>0</asrwt>
<pdfrwt beam="1">  1        1 0.13191870E+00 0.15132349E+04</pdfrwt>
<pdfrwt beam="2">  1       -1 0.10271163E+00 0.15132349E+04</pdfrwt>
<totfact> 0.17098434E+01</totfact>
</mgrwt>
</event>
<event>
12    1  0.1663913E-007  0.1552996E+04  0.7818608E-02  0.8849956E-01
          2   -1    0    0  501    0  0.00000000000E+00  0.00000000000E+00  0.24961577718E+04  0.24961577718E+04  0.00000000000E+00 0.  1.
         -2   -1    0    0    0  501 -0.00000000000E+00 -0.00000000000E+00 -0.24155102021E+03  0.24155102021E+03  0.00000000000E+00 0. -1.
         23    2    1    2    0    0  0.15308953565E+03 -0.82595728357E+02  0.15715928283E+04  0.15838317525E+04  0.91435999632E+02 0.  0.
        254    2    1    2    0    0 -0.15308953565E+03  0.82595728357E+02  0.68301392337E+03  0.11538770396E+04  0.91360042834E+03 0.  0.
        -24    2    4    4    0    0 -0.49702199204E+03 -0.62105196646E+02  0.21737594205E+03  0.55178548926E+03  0.79542504050E+02 0.  0.
         24    2    4    4    0    0  0.34393245639E+03  0.14470092500E+03  0.46563798132E+03  0.60209155031E+03  0.80421471381E+02 0.  0.
         11    1    3    3    0    0  0.43304823276E+02 -0.73840844532E+02  0.61809456027E+03  0.62399412135E+03  0.00000000000E+00 0. -1.
        -11    1    3    3    0    0  0.10978471238E+03 -0.87548838255E+01  0.95349826800E+03  0.95983763113E+03  0.00000000000E+00 0.  1.
          2    1    6    6  502    0  0.21454848798E+03  0.90991531325E+02  0.22673668666E+03  0.32514617873E+03  0.00000000000E+00 0. -1.
          1    1    5    5  503    0 -0.38787112790E+03 -0.20077372269E+02  0.18632420432E+03  0.43077119431E+03  0.00000000000E+00 0. -1.
         -2    1    5    5    0  503 -0.10915086415E+03 -0.42027824377E+02  0.31051737731E+02  0.12101429495E+03  0.00000000000E+00 0.  1.
         -1    1    6    6    0  502  0.12938396841E+03  0.53709393678E+02  0.23890129466E+03  0.27694537158E+03  0.00000000000E+00 0.  1.
<mgrwt>
<rscale>  0 0.15529964E+04</rscale>
<asrwt>0</asrwt>
<pdfrwt beam="1">  1        2 0.38402426E+00 0.15529964E+04</pdfrwt>
<pdfrwt beam="2">  1       -2 0.37161697E-01 0.15529964E+04</pdfrwt>
<totfact> 0.23040220E+01</totfact>
</mgrwt>
</event>
<event>
12    1  0.1663913E-007  0.1826582E+04  0.7818608E-02  0.8692290E-01
          1   -1    0    0  501    0  0.00000000000E+00  0.00000000000E+00  0.68352022615E+03  0.68352022615E+03  0.00000000000E+00 0.  1.
         -1   -1    0    0    0  501 -0.00000000000E+00 -0.00000000000E+00 -0.12203009264E+04  0.12203009264E+04  0.00000000000E+00 0. -1.
         23    2    1    2    0    0 -0.13832514786E+03 -0.38011093649E+03  0.38335918008E+03  0.56478764177E+03  0.91665962992E+02 0.  0.
        254    2    1    2    0    0  0.13832514786E+03  0.38011093649E+03 -0.92013988031E+03  0.13390335108E+04  0.88472321833E+03 0.  0.
        -24    2    4    4    0    0 -0.17414649233E+03  0.50027324195E+03 -0.82141677552E+03  0.98074036294E+03  0.80782566190E+02 0.  0.
         24    2    4    4    0    0  0.31247164019E+03 -0.12016230546E+03 -0.98723104791E+02  0.35829314782E+03  0.80933446601E+02 0.  0.
         11    1    3    3    0    0 -0.40414897300E+02 -0.10643015249E+03  0.55563708402E+02  0.12668096532E+03  0.00000000000E+00 0. -1.
        -11    1    3    3    0    0 -0.97910250563E+02 -0.27368078400E+03  0.32779547168E+03  0.43810667645E+03  0.00000000000E+00 0.  1.
          2    1    6    6  502    0  0.11378122196E+03 -0.31328086506E+01 -0.31718372015E+02  0.11816105993E+03  0.00000000000E+00 0. -1.
          3    1    5    5  503    0 -0.59144245583E+02  0.79126799120E+02 -0.16827953471E+03  0.19513352845E+03  0.00000000000E+00 0. -1.
         -4    1    5    5    0  503 -0.11500224675E+03  0.42114644283E+03 -0.65313724081E+03  0.78560683449E+03  0.00000000000E+00 0.  1.
         -1    1    6    6    0  502  0.19869041824E+03 -0.11702949681E+03 -0.67004732776E+02  0.24013208790E+03  0.00000000000E+00 0.  1.
<mgrwt>
<rscale>  0 0.18265819E+04</rscale>
<asrwt>0</asrwt>
<pdfrwt beam="1">  1        1 0.10515696E+00 0.18265819E+04</pdfrwt>
<pdfrwt beam="2">  1       -1 0.18773860E+00 0.18265819E+04</pdfrwt>
<totfact> 0.48739566E+00</totfact>
</mgrwt>
</event>
<event>
12    1  0.1663913E-007  0.2012601E+04  0.7818608E-02  0.8600752E-01
         -2   -1    0    0    0  501 -0.00000000000E+00  0.00000000000E+00  0.55376667785E+03  0.55376667785E+03  0.00000000000E+00 0.  1.
          2   -1    0    0  501    0  0.00000000000E+00 -0.00000000000E+00 -0.18286411304E+04  0.18286411304E+04  0.00000000000E+00 0. -1.
         23    2    1    2    0    0  0.35116442813E+03 -0.15396200390E+03 -0.13337281637E+04  0.13910905627E+04  0.96339944403E+02 0.  0.
        254    2    1    2    0    0 -0.35116442813E+03  0.15396200390E+03  0.58853711112E+02  0.99131724554E+03  0.91226386960E+03 0.  0.
        -24    2    4    4    0    0 -0.18117558232E+03 -0.35711162065E+03  0.15922709779E+03  0.43809507167E+03  0.78871553255E+02 0.  0.
         24    2    4    4    0    0 -0.16998884581E+03  0.51107362455E+03 -0.10037338668E+03  0.55322217388E+03  0.76730043054E+02 0.  0.
         13    1    3    3    0    0  0.10553349339E+03 -0.69885227506E+02 -0.58776825052E+03  0.60124269607E+03  0.00000000000E+00 0. -1.
        -13    1    3    3    0    0  0.24563093474E+03 -0.84076776391E+02 -0.74595991313E+03  0.78984786663E+03  0.00000000000E+00 0.  1.
          4    1    6    6  502    0 -0.58272722874E+00  0.37401866519E+02 -0.23897208640E+02  0.44388239106E+02  0.00000000000E+00 0. -1.
          1    1    5    5  503    0 -0.65264213064E+02 -0.67559036279E+02  0.17664740891E+02  0.95580771919E+02  0.00000000000E+00 0. -1.
         -2    1    5    5    0  503 -0.11591136926E+03 -0.28955258437E+03  0.14156235690E+03  0.34251429975E+03  0.00000000000E+00 0.  1.
         -3    1    6    6    0  502 -0.16940611858E+03  0.47367175803E+03 -0.76476178040E+02  0.50883393477E+03  0.00000000000E+00 0.  1.
<mgrwt>
<rscale>  0 0.20126008E+04</rscale>
<asrwt>0</asrwt>
<pdfrwt beam="1">  1        2 0.28132941E+00 0.20126008E+04</pdfrwt>
<pdfrwt beam="2">  1       -2 0.85194871E-01 0.20126008E+04</pdfrwt>
<totfact> 0.92536182E+00</totfact>
</mgrwt>
</event>
<event>
12    1  0.1663913E-007  0.1794788E+04  0.7818608E-02  0.8709076E-01
         -1   -1    0    0    0  501 -0.00000000000E+00  0.00000000000E+00  0.64869506994E+03  0.64869506994E+03  0.00000000000E+00 0.  1.
          1   -1    0    0  501    0  0.00000000000E+00 -0.00000000000E+00 -0.12414395697E+04  0.12414395697E+04  0.00000000000E+00 0. -1.
         23    2    1    2    0    0  0.74851696467E+02  0.10632391534E+03 -0.92116539383E+03  0.93491398600E+03  0.92795080689E+02 0.  0.
        254    2    1    2    0    0 -0.74851696467E+02 -0.10632391534E+03  0.32842089403E+03  0.95522065367E+03  0.88751262645E+03 0.  0.
        -24    2    4    4    0    0 -0.41870756192E+03  0.12262984018E+03  0.29487353542E+03  0.53302645412E+03  0.82539074326E+02 0.  0.
         24    2    4    4    0    0  0.34385586546E+03 -0.22895375552E+03  0.33547358613E+02  0.42219419954E+03  0.80410437638E+02 0.  0.
         11    1    3    3    0    0  0.55836357900E+02  0.77951467920E+02 -0.35506885822E+03  0.36778801543E+03  0.00000000000E+00 0. -1.
        -11    1    3    3    0    0  0.19015338567E+02  0.28372447415E+02 -0.56609653560E+03  0.56712597057E+03  0.00000000000E+00 0.  1.
          4    1    6    6  502    0  0.24323582717E+02 -0.14317436970E+02 -0.18523557625E+02  0.33760152023E+02  0.00000000000E+00 0. -1.
          1    1    5    5  503    0 -0.29602293551E+01  0.59116215032E+01  0.20190741988E+02  0.21245618105E+02  0.00000000000E+00 0. -1.
         -2    1    5    5    0  503 -0.41574733257E+03  0.11671821868E+03  0.27468279343E+03  0.51178083602E+03  0.00000000000E+00 0.  1.
         -3    1    6    6    0  502  0.31953228274E+03 -0.21463631855E+03  0.52070916238E+02  0.38843404752E+03  0.00000000000E+00 0.  1.
<mgrwt>
<rscale>  0 0.17947877E+04</rscale>
<asrwt>0</asrwt>
<pdfrwt beam="1">  1        1 0.19099070E+00 0.17947877E+04</pdfrwt>
<pdfrwt beam="2">  1       -1 0.99799242E-01 0.17947877E+04</pdfrwt>
<totfact> 0.90112043E+00</totfact>
</mgrwt>
</event>
<event>
12    1  0.1663913E-007  0.1968330E+04  0.7818608E-02  0.8621572E-01
          1   -1    0    0  501    0  0.00000000000E+00  0.00000000000E+00  0.22828894580E+04  0.22828894580E+04  0.00000000000E+00 0. -1.
         -1   -1    0    0    0  501 -0.00000000000E+00 -0.00000000000E+00 -0.42427853667E+03  0.42427853667E+03  0.00000000000E+00 0.  1.
         23    2    1    2    0    0  0.10936710006E+03 -0.32112679086E+03  0.16849629309E+04  0.17220557770E+04  0.10626590293E+03 0.  0.
        254    2    1    2    0    0 -0.10936710006E+03  0.32112679086E+03  0.17364799050E+03  0.98511221777E+03  0.90841008284E+03 0.  0.
        -24    2    4    4    0    0 -0.86595420030E+02  0.60537340830E+03 -0.41067024842E+02  0.61787236731E+03  0.78128301617E+02 0.  0.
         24    2    4    4    0    0 -0.22771680034E+02 -0.28424661744E+03  0.21471501534E+03  0.36723985045E+03  0.86301106647E+02 0.  0.
         13    1    3    3    0    0 -0.20456180844E+02 -0.67659296891E+02  0.32626435444E+03  0.33383328889E+03  0.00000000000E+00 0.  1.
        -13    1    3    3    0    0  0.12982328091E+03 -0.25346749397E+03  0.13586985764E+04  0.13882224881E+04  0.00000000000E+00 0. -1.
          4    1    6    6  502    0 -0.56070005523E+01 -0.18535330667E+03  0.87080427519E+02  0.20486651168E+03  0.00000000000E+00 0. -1.
          1    1    5    5  503    0 -0.96702218735E+02  0.58412535513E+03 -0.32985589620E+02  0.59299392808E+03  0.00000000000E+00 0. -1.
         -2    1    5    5    0  503  0.10106798705E+02  0.21248053167E+02 -0.80814352219E+01  0.24878439233E+02  0.00000000000E+00 0.  1.
         -1    1    6    6    0  502 -0.17164679481E+02 -0.98893310769E+02  0.12763458782E+03  0.16237333877E+03  0.00000000000E+00 0.  1.
<mgrwt>
<rscale>  0 0.19683303E+04</rscale>
<asrwt>0</asrwt>
<pdfrwt beam="1">  1        1 0.35121375E+00 0.19683303E+04</pdfrwt>
<pdfrwt beam="2">  1       -1 0.65273623E-01 0.19683303E+04</pdfrwt>
<totfact> 0.42327945E+00</totfact>
</mgrwt>
</event>
<event>
12    1  0.1663913E-007  0.1742808E+04  0.7818608E-02  0.8737319E-01
         -2   -1    0    0    0  501 -0.00000000000E+00  0.00000000000E+00  0.42573506836E+03  0.42573506836E+03  0.00000000000E+00 0.  1.
          2   -1    0    0  501    0  0.00000000000E+00 -0.00000000000E+00 -0.17836098724E+04  0.17836098724E+04  0.00000000000E+00 0. -1.
         23    2    1    2    0    0 -0.58728921809E+03 -0.21257196623E+03 -0.62394606523E+03  0.88772727112E+03  0.93035203366E+02 0.  0.
        254    2    1    2    0    0  0.58728921809E+03  0.21257196623E+03 -0.73392873884E+03  0.13216176697E+04  0.90439283752E+03 0.  0.
        -24    2    4    4    0    0  0.31133245070E+03 -0.13856658899E+03  0.10774687458E+03  0.36531831939E+03  0.75627316874E+02 0.  0.
         24    2    4    4    0    0  0.27595676739E+03  0.35113855522E+03 -0.84167561342E+03  0.95629935027E+03  0.81487340502E+02 0.  0.
         11    1    3    3    0    0 -0.55965716411E+03 -0.18300178237E+03 -0.60021539328E+03  0.84081169832E+03  0.00000000000E+00 0. -1.
        -11    1    3    3    0    0 -0.27632053980E+02 -0.29570183860E+02 -0.23730671946E+02  0.46915572806E+02  0.00000000000E+00 0.  1.
          4    1    6    6  502    0  0.20677536428E+03  0.20589353649E+03 -0.57636256553E+03  0.64602012863E+03  0.00000000000E+00 0. -1.
          3    1    5    5  503    0  0.21430563481E+03 -0.88211546822E+02  0.10875201829E+03  0.25599840544E+03  0.00000000000E+00 0. -1.
         -4    1    5    5    0  503  0.97026815889E+02 -0.50355042165E+02 -0.10051437045E+01  0.10931991395E+03  0.00000000000E+00 0.  1.
         -3    1    6    6    0  502  0.69181403105E+02  0.14524501873E+03 -0.26531304789E+03  0.31027922164E+03  0.00000000000E+00 0.  1.
<mgrwt>
<rscale>  0 0.17428084E+04</rscale>
<asrwt>0</asrwt>
<pdfrwt beam="1">  1        2 0.27440152E+00 0.17428084E+04</pdfrwt>
<pdfrwt beam="2">  1       -2 0.65497702E-01 0.17428084E+04</pdfrwt>
<totfact> 0.17944309E+01</totfact>
</mgrwt>
</event>
<event>
12    1  0.1663913E-007  0.1731528E+04  0.7818608E-02  0.8743584E-01
         -2   -1    0    0    0  501 -0.00000000000E+00  0.00000000000E+00  0.77504520411E+03  0.77504520411E+03  0.00000000000E+00 0.  1.
          2   -1    0    0  501    0  0.00000000000E+00 -0.00000000000E+00 -0.96710158118E+03  0.96710158118E+03  0.00000000000E+00 0. -1.
         23    2    1    2    0    0  0.34186767053E+03 -0.24797159631E+03 -0.50665093754E+03  0.66608740682E+03  0.92810798329E+02 0.  0.
        254    2    1    2    0    0 -0.34186767053E+03  0.24797159631E+03  0.31459456048E+03  0.10760593785E+04  0.93838725044E+03 0.  0.
        -24    2    4    4    0    0 -0.41169750057E+03 -0.18369025732E+03  0.41658889396E+03  0.61966479740E+03  0.84859955013E+02 0.  0.
         24    2    4    4    0    0  0.69829830032E+02  0.43166185362E+03 -0.10199433348E+03  0.45639458107E+03  0.81761901461E+02 0.  0.
         11    1    3    3    0    0  0.25293722645E+03 -0.21592237554E+03 -0.43452046161E+03  0.54718163743E+03  0.00000000000E+00 0. -1.
        -11    1    3    3    0    0  0.88930444087E+02 -0.32049220767E+02 -0.72130475930E+02  0.11890576939E+03  0.00000000000E+00 0.  1.
          4    1    6    6  502    0  0.68934170038E+02  0.20350346634E+03 -0.70146738356E+02  0.22602244471E+03  0.00000000000E+00 0. -1.
          3    1    5    5  503    0 -0.70205161705E+01  0.40301509909E+01 -0.15454621292E+01  0.82412509671E+01  0.00000000000E+00 0. -1.
         -4    1    5    5    0  503 -0.40467698439E+03 -0.18772040831E+03  0.41813435609E+03  0.61142354643E+03  0.00000000000E+00 0.  1.
         -3    1    6    6    0  502  0.89565999390E+00  0.22815838728E+03 -0.31847595126E+02  0.23037213636E+03  0.00000000000E+00 0.  1.
<mgrwt>
<rscale>  0 0.17315282E+04</rscale>
<asrwt>0</asrwt>
<pdfrwt beam="1">  1        2 0.14878486E+00 0.17315282E+04</pdfrwt>
<pdfrwt beam="2">  1       -2 0.11923772E+00 0.17315282E+04</pdfrwt>
<totfact> 0.13548640E+01</totfact>
</mgrwt>
</event>
<event>
12    1  0.1663913E-007  0.2557817E+04  0.7818608E-02  0.8382672E-01
          2   -1    0    0  501    0  0.00000000000E+00  0.00000000000E+00  0.25263961090E+04  0.25263961090E+04  0.00000000000E+00 0. -1.
         -2   -1    0    0    0  501 -0.00000000000E+00 -0.00000000000E+00 -0.64740738842E+03  0.64740738842E+03  0.00000000000E+00 0.  1.
         23    2    1    2    0    0 -0.12669311794E+03  0.80463256627E+03  0.17747044697E+04  0.19545326627E+04  0.84482315706E+02 0.  0.
        254    2    1    2    0    0  0.12669311794E+03 -0.80463256627E+03  0.10428425080E+03  0.12192708347E+04  0.90125548574E+03 0.  0.
        -24    2    4    4    0    0  0.11091944279E+03 -0.75729252032E+03 -0.28329279210E+03  0.82023102914E+03  0.82030792942E+02 0.  0.
         24    2    4    4    0    0  0.15773675144E+02 -0.47340045957E+02  0.38757704290E+03  0.39903980557E+03  0.80789315329E+02 0.  0.
         11    1    3    3    0    0 -0.36866531070E+02  0.90322669373E+02  0.25155394430E+03  0.26980865925E+03  0.00000000000E+00 0.  1.
        -11    1    3    3    0    0 -0.89826586867E+02  0.71430989690E+03  0.15231505254E+04  0.16847240034E+04  0.00000000000E+00 0. -1.
          2    1    6    6  502    0  0.38296324204E+02 -0.55332315321E+02  0.22935281707E+03  0.23902089504E+03  0.00000000000E+00 0. -1.
          1    1    5    5  503    0  0.87501252980E+02 -0.72237355951E+03 -0.27007890431E+03  0.77615890339E+03  0.00000000000E+00 0. -1.
         -2    1    5    5    0  503  0.23418189812E+02 -0.34918960808E+02 -0.13213887786E+02  0.44072125753E+02  0.00000000000E+00 0.  1.
         -1    1    6    6    0  502 -0.22522649060E+02  0.79922693639E+01  0.15822422583E+03  0.16001891054E+03  0.00000000000E+00 0.  1.
<mgrwt>
<rscale>  0 0.25578174E+04</rscale>
<asrwt>0</asrwt>
<pdfrwt beam="1">  1        2 0.38867632E+00 0.25578174E+04</pdfrwt>
<pdfrwt beam="2">  1       -2 0.99601138E-01 0.25578174E+04</pdfrwt>
<totfact> 0.24867440E+00</totfact>
</mgrwt>
</event>
<event>
12    1  0.1663913E-007  0.1610070E+04  0.7818608E-02  0.8814386E-01
         -2   -1    0    0    0  501 -0.00000000000E+00  0.00000000000E+00  0.15183475513E+04  0.15183475513E+04  0.00000000000E+00 0.  1.
          2   -1    0    0  501    0  0.00000000000E+00 -0.00000000000E+00 -0.42683320990E+03  0.42683320990E+03  0.00000000000E+00 0. -1.
         23    2    1    2    0    0 -0.18124924440E+03 -0.42350575269E+03  0.25223044711E+02  0.46955537512E+03  0.87393576202E+02 0.  0.
        254    2    1    2    0    0  0.18124924440E+03  0.42350575269E+03  0.10662912967E+04  0.14756253861E+04  0.91010149956E+03 0.  0.
        -24    2    4    4    0    0  0.27931513161E+03 -0.17860228505E+03  0.15157898839E+03  0.37321198142E+03  0.79970459445E+02 0.  0.
         24    2    4    4    0    0 -0.98065887210E+02  0.60210803774E+03  0.91471230827E+03  0.11024134046E+04  0.80409579594E+02 0.  0.
         13    1    3    3    0    0 -0.39084829231E+01 -0.26363617107E+02  0.22072880518E+02  0.34605326181E+02  0.00000000000E+00 0.  1.
        -13    1    3    3    0    0 -0.17734076147E+03 -0.39714213558E+03  0.31501641932E+01  0.43495004894E+03  0.00000000000E+00 0. -1.
          4    1    6    6  502    0 -0.61300052261E+02  0.34787131529E+03  0.45769775726E+03  0.57815169757E+03  0.00000000000E+00 0. -1.
          3    1    5    5  503    0  0.21408613136E+02 -0.12477437046E+02  0.39443760593E+02  0.46581384709E+02  0.00000000000E+00 0. -1.
         -4    1    5    5    0  503  0.25790651847E+03 -0.16612484800E+03  0.11213522780E+03  0.32663059671E+03  0.00000000000E+00 0.  1.
         -3    1    6    6    0  502 -0.36765834949E+02  0.25423672245E+03  0.45701455102E+03  0.52426170707E+03  0.00000000000E+00 0.  1.
<mgrwt>
<rscale>  0 0.16100698E+04</rscale>
<asrwt>0</asrwt>
<pdfrwt beam="1">  1        2 0.65666649E-01 0.16100698E+04</pdfrwt>
<pdfrwt beam="2">  1       -2 0.23359193E+00 0.16100698E+04</pdfrwt>
<totfact> 0.57453419E+00</totfact>
</mgrwt>
</event>
<event>
12    1  0.1663913E-007  0.2307379E+04  0.7818608E-02  0.8475017E-01
          1   -1    0    0  501    0  0.00000000000E+00  0.00000000000E+00  0.90367636292E+03  0.90367636292E+03  0.00000000000E+00 0.  1.
         -1   -1    0    0    0  501 -0.00000000000E+00 -0.00000000000E+00 -0.14728723740E+04  0.14728723740E+04  0.00000000000E+00 0. -1.
         23    2    1    2    0    0  0.26346983865E+03 -0.85522706792E+03  0.14394071845E+03  0.91079901443E+03  0.89477486940E+02 0.  0.
        254    2    1    2    0    0 -0.26346983865E+03  0.85522706792E+03 -0.71313672953E+03  0.14657497225E+04  0.91598502191E+03 0.  0.
        -24    2    4    4    0    0 -0.21332014380E+03  0.18065004040E+03  0.18031924625E+03  0.34226832372E+03  0.80577006661E+02 0.  0.
         24    2    4    4    0    0 -0.50149694847E+02  0.67457702753E+03 -0.89345597578E+03  0.11234813988E+04  0.79860595763E+02 0.  0.
         13    1    3    3    0    0  0.60552444985E+02 -0.96225011214E+02  0.17491551619E+02  0.11502958643E+03  0.00000000000E+00 0. -1.
        -13    1    3    3    0    0  0.20291739366E+03 -0.75900205671E+03  0.12644916683E+03  0.79576942800E+03  0.00000000000E+00 0.  1.
          2    1    6    6  502    0 -0.21706011033E+02  0.60181532110E+03 -0.80749611866E+03  0.10073245819E+04  0.00000000000E+00 0. -1.
          3    1    5    5  503    0 -0.19323790774E+03  0.17463483458E+03  0.18657860403E+03  0.32039005902E+03  0.00000000000E+00 0. -1.
         -4    1    5    5    0  503 -0.20082236064E+02  0.60152058142E+01 -0.62593577768E+01  0.21878264696E+02  0.00000000000E+00 0.  1.
         -1    1    6    6    0  502 -0.28443683815E+02  0.72761706427E+02 -0.85959857126E+02  0.11615681688E+03  0.00000000000E+00 0.  1.
<mgrwt>
<rscale>  0 0.23073794E+04</rscale>
<asrwt>0</asrwt>
<pdfrwt beam="1">  1        1 0.13902713E+00 0.23073794E+04</pdfrwt>
<pdfrwt beam="2">  1       -1 0.22659575E+00 0.23073794E+04</pdfrwt>
<totfact> 0.16230502E+00</totfact>
</mgrwt>
</event>
<event>
12    1  0.1663913E-007  0.2349178E+04  0.7818608E-02  0.8458779E-01
          2   -1    0    0  501    0  0.00000000000E+00  0.00000000000E+00  0.31225602686E+04  0.31225602686E+04  0.00000000000E+00 0. -1.
         -2   -1    0    0    0  501 -0.00000000000E+00 -0.00000000000E+00 -0.44183589391E+03  0.44183589391E+03  0.00000000000E+00 0.  1.
         23    2    1    2    0    0 -0.54893032915E+03 -0.28122535110E+03  0.23449603287E+04  0.24265327517E+04  0.93861852318E+02 0.  0.
        254    2    1    2    0    0  0.54893032915E+03  0.28122535110E+03  0.33576404602E+03  0.11378634109E+04  0.89531192489E+03 0.  0.
        -24    2    4    4    0    0  0.65829521290E+02  0.52453445035E+03  0.10746627087E+03  0.54535000927E+03  0.79923199081E+02 0.  0.
         24    2    4    4    0    0  0.48310080786E+03 -0.24330909925E+03  0.22829777515E+03  0.59251340161E+03  0.79790654946E+02 0.  0.
         13    1    3    3    0    0 -0.23629662748E+03 -0.17013742253E+03  0.10306114150E+04  0.10709541201E+04  0.00000000000E+00 0. -1.
        -13    1    3    3    0    0 -0.31263370167E+03 -0.11108792857E+03  0.13143489137E+04  0.13555786316E+04  0.00000000000E+00 0.  1.
          4    1    6    6  502    0  0.24165539964E+03 -0.12012061347E+03  0.70696609240E+02  0.27897007816E+03  0.00000000000E+00 0. -1.
          1    1    5    5  503    0  0.58695737563E+02  0.43207688576E+03  0.56943909259E+02  0.43974792054E+03  0.00000000000E+00 0. -1.
         -2    1    5    5    0  503  0.71337837266E+01  0.92457564595E+02  0.50522361614E+02  0.10560208873E+03  0.00000000000E+00 0.  1.
         -3    1    6    6    0  502  0.24144540822E+03 -0.12318848579E+03  0.15760116591E+03  0.31354332345E+03  0.00000000000E+00 0.  1.
<mgrwt>
<rscale>  0 0.23491779E+04</rscale>
<asrwt>0</asrwt>
<pdfrwt beam="1">  1        2 0.48039387E+00 0.23491779E+04</pdfrwt>
<pdfrwt beam="2">  1       -2 0.67974755E-01 0.23491779E+04</pdfrwt>
<totfact> 0.26071869E+00</totfact>
</mgrwt>
</event>
<event>
12    1  0.1663913E-007  0.1401857E+04  0.7818608E-02  0.8952476E-01
          2   -1    0    0  501    0  0.00000000000E+00  0.00000000000E+00  0.29162770351E+04  0.29162770351E+04  0.00000000000E+00 0. -1.
         -2   -1    0    0    0  501 -0.00000000000E+00 -0.00000000000E+00 -0.16846838765E+03  0.16846838765E+03  0.00000000000E+00 0.  1.
         23    2    1    2    0    0 -0.17785228736E+03 -0.29094867393E+03  0.12654836672E+04  0.13138507976E+04  0.92045854618E+02 0.  0.
        254    2    1    2    0    0  0.17785228736E+03  0.29094867393E+03  0.14823249803E+04  0.17708946252E+04  0.90691667723E+03 0.  0.
        -24    2    4    4    0    0  0.29539632429E+03 -0.15899042352E+03  0.18753900147E+03  0.39275283179E+03  0.80913327893E+02 0.  0.
         24    2    4    4    0    0 -0.11754403693E+03  0.44993909745E+03  0.12947859788E+04  0.13781417934E+04  0.80884360587E+02 0.  0.
         13    1    3    3    0    0 -0.18844169184E+03 -0.28231155893E+03  0.12226189444E+04  0.12688605797E+04  0.00000000000E+00 0. -1.
        -13    1    3    3    0    0  0.10589404483E+02 -0.86371150034E+01  0.42864722783E+02  0.44990217850E+02  0.00000000000E+00 0.  1.
          4    1    6    6  502    0 -0.57755517813E+01  0.78949163149E+02  0.15068237537E+03  0.17021018068E+03  0.00000000000E+00 0. -1.
          3    1    5    5  503    0  0.10532856070E+03 -0.83361402214E+02  0.38749334924E+02  0.13980250368E+03  0.00000000000E+00 0. -1.
         -4    1    5    5    0  503  0.19006776359E+03 -0.75629021309E+02  0.14878966654E+03  0.25295032811E+03  0.00000000000E+00 0.  1.
         -3    1    6    6    0  502 -0.11176848515E+03  0.37098993430E+03  0.11441036035E+04  0.12079316127E+04  0.00000000000E+00 0.  1.
<mgrwt>
<rscale>  0 0.14018566E+04</rscale>
<asrwt>0</asrwt>
<pdfrwt beam="1">  1        2 0.44865797E+00 0.14018566E+04</pdfrwt>
<pdfrwt beam="2">  1       -2 0.25918216E-01 0.14018566E+04</pdfrwt>
<totfact> 0.25872972E+01</totfact>
</mgrwt>
</event>
<event>
12    1  0.1663913E-007  0.2972901E+04  0.7818608E-02  0.8251512E-01
         -2   -1    0    0    0  501 -0.00000000000E+00  0.00000000000E+00  0.10582945524E+04  0.10582945524E+04  0.00000000000E+00 0.  1.
          2   -1    0    0  501    0  0.00000000000E+00 -0.00000000000E+00 -0.20878261537E+04  0.20878261537E+04  0.00000000000E+00 0. -1.
         23    2    1    2    0    0 -0.11478028210E+04 -0.55934623431E+03 -0.90101037965E+03  0.15656022661E+04  0.94716554817E+02 0.  0.
        254    2    1    2    0    0  0.11478028210E+04  0.55934623431E+03 -0.12852122161E+03  0.15805184400E+04  0.92260571705E+03 0.  0.
        -24    2    4    4    0    0  0.11036262858E+04  0.54148365060E+03  0.19209028743E+03  0.12468466655E+04  0.80823302326E+02 0.  0.
         24    2    4    4    0    0  0.44176535195E+02  0.17862583711E+02 -0.32061150904E+03  0.33367177451E+03  0.79211585132E+02 0.  0.
         11    1    3    3    0    0 -0.15565215956E+03 -0.10499933877E+03 -0.15846738722E+03  0.24569161306E+03  0.00000000000E+00 0.  1.
        -11    1    3    3    0    0 -0.99215066143E+03 -0.45434689554E+03 -0.74254299244E+03  0.13199106531E+04  0.00000000000E+00 0. -1.
          2    1    6    6  502    0  0.14370112224E+02 -0.62715644216E+01 -0.26855847412E+03  0.26901577401E+03  0.00000000000E+00 0. -1.
          1    1    5    5  503    0  0.67391921336E+03  0.37372905239E+03  0.11424748259E+03  0.77903337413E+03  0.00000000000E+00 0. -1.
         -2    1    5    5    0  503  0.42970707244E+03  0.16775459821E+03  0.77842804838E+02  0.46781329138E+03  0.00000000000E+00 0.  1.
         -1    1    6    6    0  502  0.29806422971E+02  0.24134148132E+02 -0.52053034919E+02  0.64656000500E+02  0.00000000000E+00 0.  1.
<mgrwt>
<rscale>  0 0.29729010E+04</rscale>
<asrwt>0</asrwt>
<pdfrwt beam="1">  1        2 0.32120402E+00 0.29729010E+04</pdfrwt>
<pdfrwt beam="2">  1       -2 0.16281455E+00 0.29729010E+04</pdfrwt>
<totfact> 0.12298436E+00</totfact>
</mgrwt>
</event>
<event>
12    1  0.1663913E-007  0.1682435E+04  0.7818608E-02  0.8771446E-01
          1   -1    0    0  501    0  0.00000000000E+00  0.00000000000E+00  0.16240029834E+04  0.16240029834E+04  0.00000000000E+00 0. -1.
         -1   -1    0    0    0  501 -0.00000000000E+00 -0.00000000000E+00 -0.43574223571E+03  0.43574223571E+03  0.00000000000E+00 0.  1.
         23    2    1    2    0    0  0.11869123200E+03 -0.31216645914E+03  0.10393502526E+04  0.10961441017E+04  0.98729110935E+02 0.  0.
        254    2    1    2    0    0 -0.11869123200E+03  0.31216645914E+03  0.14891049511E+03  0.96360111743E+03  0.89152524989E+03 0.  0.
        -24    2    4    4    0    0 -0.49366417512E+03  0.95713315197E+02  0.45035992424E+02  0.51142961659E+03  0.81649590367E+02 0.  0.
         24    2    4    4    0    0  0.37497294312E+03  0.21645314395E+03  0.10387450268E+03  0.45217150085E+03  0.78819301418E+02 0.  0.
         11    1    3    3    0    0  0.24734370093E+02 -0.60092858895E+02  0.10189191164E+03  0.12085074435E+03  0.00000000000E+00 0.  1.
        -11    1    3    3    0    0  0.93956861907E+02 -0.25207360025E+03  0.93745834098E+03  0.97529335736E+03  0.00000000000E+00 0. -1.
          2    1    6    6  502    0  0.37077649263E+03  0.21856701994E+03  0.11020467243E+03  0.44428799164E+03  0.00000000000E+00 0. -1.
          1    1    5    5  503    0 -0.21327477133E+03  0.39969772802E+02  0.60097090432E+02  0.22515632592E+03  0.00000000000E+00 0. -1.
         -2    1    5    5    0  503 -0.28038940379E+03  0.55743542395E+02 -0.15061098008E+02  0.28627329066E+03  0.00000000000E+00 0.  1.
         -1    1    6    6    0  502  0.41964504848E+01 -0.21138759898E+01 -0.63301697452E+01  0.78835092043E+01  0.00000000000E+00 0.  1.
<mgrwt>
<rscale>  0 0.16824348E+04</rscale>
<asrwt>0</asrwt>
<pdfrwt beam="1">  1        1 0.24984661E+00 0.16824348E+04</pdfrwt>
<pdfrwt beam="2">  1       -1 0.67037268E-01 0.16824348E+04</pdfrwt>
<totfact> 0.11540393E+01</totfact>
</mgrwt>
</event>
<event>
12    1  0.1663913E-007  0.2010527E+04  0.7818608E-02  0.8601715E-01
          2   -1    0    0  501    0  0.00000000000E+00  0.00000000000E+00  0.11709588884E+04  0.11709588884E+04  0.00000000000E+00 0. -1.
         -2   -1    0    0    0  501 -0.00000000000E+00 -0.00000000000E+00 -0.86301442634E+03  0.86301442634E+03  0.00000000000E+00 0.  1.
         23    2    1    2    0    0 -0.72815581078E+03  0.13448357022E+03  0.42362022018E+03  0.85799134304E+03  0.91642448424E+02 0.  0.
        254    2    1    2    0    0  0.72815581078E+03 -0.13448357022E+03 -0.11567575812E+03  0.11759819717E+04  0.90623175916E+03 0.  0.
        -24    2    4    4    0    0  0.50209197869E+03 -0.29329845126E+03 -0.44716254480E+03  0.73766976217E+03  0.77987178231E+02 0.  0.
         24    2    4    4    0    0  0.22606383208E+03  0.15881488103E+03  0.33148678668E+03  0.43831220953E+03  0.76857534855E+02 0.  0.
         13    1    3    3    0    0 -0.23096137306E+01  0.36186107551E+01 -0.36364463128E+01  0.56260466731E+01  0.00000000000E+00 0.  1.
        -13    1    3    3    0    0 -0.72584619705E+03  0.13086495947E+03  0.42725666649E+03  0.85236529636E+03  0.00000000000E+00 0. -1.
          2    1    6    6  502    0  0.37237639978E+01  0.14172477579E+02  0.47542924470E+02  0.49749926695E+02  0.00000000000E+00 0. -1.
          1    1    5    5  503    0  0.25714020059E+03 -0.13758650234E+03 -0.17702911873E+03  0.34116042746E+03  0.00000000000E+00 0. -1.
         -2    1    5    5    0  503  0.24495177810E+03 -0.15571194892E+03 -0.27013342607E+03  0.39650933471E+03  0.00000000000E+00 0.  1.
         -1    1    6    6    0  502  0.22234006809E+03  0.14464240345E+03  0.28394386221E+03  0.38856228283E+03  0.00000000000E+00 0.  1.
<mgrwt>
<rscale>  0 0.20105267E+04</rscale>
<asrwt>0</asrwt>
<pdfrwt beam="1">  1        2 0.18014752E+00 0.20105267E+04</pdfrwt>
<pdfrwt beam="2">  1       -2 0.13277145E+00 0.20105267E+04</pdfrwt>
<totfact> 0.75351784E+00</totfact>
</mgrwt>
</event>
<event>
12    1  0.1663913E-007  0.1747896E+04  0.7818608E-02  0.8734509E-01
          2   -1    0    0  501    0  0.00000000000E+00  0.00000000000E+00  0.13624272126E+04  0.13624272126E+04  0.00000000000E+00 0. -1.
         -2   -1    0    0    0  501 -0.00000000000E+00 -0.00000000000E+00 -0.56060627685E+03  0.56060627685E+03  0.00000000000E+00 0.  1.
         23    2    1    2    0    0  0.30146111562E+03 -0.54352212961E+03  0.13232214727E+03  0.64207962719E+03  0.91989061281E+02 0.  0.
        254    2    1    2    0    0 -0.30146111562E+03  0.54352212961E+03  0.66949878850E+03  0.12809538623E+04  0.89795270470E+03 0.  0.
        -24    2    4    4    0    0 -0.36085117052E+02  0.26209116273E+03 -0.18956015826E+03  0.33566017218E+03  0.82102279708E+02 0.  0.
         24    2    4    4    0    0 -0.26537599857E+03  0.28143096689E+03  0.85905894676E+03  0.94529369010E+03  0.77266272050E+02 0.  0.
         11    1    3    3    0    0  0.52129840823E+01 -0.44465721066E+02  0.26870631562E+02  0.52215001613E+02  0.00000000000E+00 0. -1.
        -11    1    3    3    0    0  0.29624813153E+03 -0.49905640854E+03  0.10545151570E+03  0.58986462558E+03  0.00000000000E+00 0.  1.
          2    1    6    6  502    0 -0.12664444050E+03  0.18975802447E+03  0.50327150039E+03  0.55256594653E+03  0.00000000000E+00 0. -1.
          3    1    5    5  503    0 -0.28055116361E+02  0.28859815791E+02 -0.48283148982E+02  0.62858897518E+02  0.00000000000E+00 0. -1.
         -2    1    5    5    0  503 -0.80300006908E+01  0.23323134693E+03 -0.14127700928E+03  0.27280127466E+03  0.00000000000E+00 0.  1.
         -1    1    6    6    0  502 -0.13873155807E+03  0.91672942418E+02  0.35578744638E+03  0.39272774358E+03  0.00000000000E+00 0.  1.
<mgrwt>
<rscale>  0 0.17478962E+04</rscale>
<asrwt>0</asrwt>
<pdfrwt beam="1">  1        2 0.20960419E+00 0.17478962E+04</pdfrwt>
<pdfrwt beam="2">  1       -2 0.86247120E-01 0.17478962E+04</pdfrwt>
<totfact> 0.16804699E+01</totfact>
</mgrwt>
</event>
<event>
12    1  0.1663913E-007  0.3595502E+04  0.7818608E-02  0.8091523E-01
         -1   -1    0    0    0  501 -0.00000000000E+00  0.00000000000E+00  0.13563691643E+04  0.13563691643E+04  0.00000000000E+00 0.  1.
          1   -1    0    0  501    0  0.00000000000E+00 -0.00000000000E+00 -0.23827648878E+04  0.23827648878E+04  0.00000000000E+00 0. -1.
         23    2    1    2    0    0 -0.57365752170E+03  0.15826912975E+04 -0.46178489285E+03  0.17481426580E+04  0.93609668620E+02 0.  0.
        254    2    1    2    0    0  0.57365752170E+03 -0.15826912975E+04 -0.56461083067E+03  0.19909913942E+04  0.90070341753E+03 0.  0.
        -24    2    4    4    0    0  0.67809260227E+02 -0.12207864605E+04 -0.59605195247E+03  0.13625564633E+04  0.79777864659E+02 0.  0.
         24    2    4    4    0    0  0.50584826147E+03 -0.36190483694E+03  0.31441121803E+02  0.62843493088E+03  0.84168542647E+02 0.  0.
         11    1    3    3    0    0 -0.10395675355E+03  0.28929369954E+03 -0.47249530464E+02  0.31101506287E+03  0.00000000000E+00 0. -1.
        -11    1    3    3    0    0 -0.46970076815E+03  0.12933975979E+04 -0.41453536239E+03  0.14371275951E+04  0.00000000000E+00 0.  1.
          2    1    6    6  502    0  0.45101652773E+03 -0.30482478043E+03  0.31309871401E+01  0.54437474053E+03  0.00000000000E+00 0. -1.
          3    1    5    5  503    0  0.70926210132E+02 -0.93313628444E+03 -0.48654542966E+03  0.10547513014E+04  0.00000000000E+00 0. -1.
         -2    1    5    5    0  503 -0.31169499046E+01 -0.28765017607E+03 -0.10950652282E+03  0.30780516193E+03  0.00000000000E+00 0.  1.
         -1    1    6    6    0  502  0.54831733748E+02 -0.57080056505E+02  0.28310134663E+02  0.84060190346E+02  0.00000000000E+00 0.  1.
<mgrwt>
<rscale>  0 0.35955021E+04</rscale>
<asrwt>0</asrwt>
<pdfrwt beam="1">  1        1 0.36657922E+00 0.35955021E+04</pdfrwt>
<pdfrwt beam="2">  1       -1 0.20867218E+00 0.35955021E+04</pdfrwt>
<totfact> 0.17344975E-01</totfact>
</mgrwt>
</event>
<event>
12    1  0.1663913E-007  0.1605282E+04  0.7818608E-02  0.8817309E-01
         -1   -1    0    0    0  501 -0.00000000000E+00  0.00000000000E+00  0.67738675070E+03  0.67738675070E+03  0.00000000000E+00 0.  1.
          1   -1    0    0  501    0  0.00000000000E+00 -0.00000000000E+00 -0.95105614772E+03  0.95105614772E+03  0.00000000000E+00 0. -1.
         23    2    1    2    0    0 -0.53380814575E+03  0.53011058357E+02 -0.12153091937E+03  0.55746987366E+03  0.90783186231E+02 0.  0.
        254    2    1    2    0    0  0.53380814575E+03 -0.53011058357E+02 -0.15213847765E+03  0.10709730247E+04  0.91437180325E+03 0.  0.
        -24    2    4    4    0    0  0.64692317532E+03 -0.40864483387E+02 -0.41536363334E+03  0.77389211528E+03  0.78756316729E+02 0.  0.
         24    2    4    4    0    0 -0.11311502957E+03 -0.12146574970E+02  0.26322515568E+03  0.29708090947E+03  0.77633980876E+02 0.  0.
         13    1    3    3    0    0 -0.13457766776E+03 -0.15006617247E+02 -0.27990865196E+01  0.13544069590E+03  0.00000000000E+00 0.  1.
        -13    1    3    3    0    0 -0.39923047799E+03  0.68017675605E+02 -0.11873183285E+03  0.42202917777E+03  0.00000000000E+00 0. -1.
          4    1    6    6  502    0 -0.35209805186E+02  0.30435549127E+02  0.65640663833E+02  0.80465829893E+02  0.00000000000E+00 0. -1.
          3    1    5    5  503    0  0.18071888968E+03 -0.82800085943E+00 -0.76952389752E+02  0.19642218042E+03  0.00000000000E+00 0. -1.
         -4    1    5    5    0  503  0.46620428565E+03 -0.40036482528E+02 -0.33841124358E+03  0.57746993486E+03  0.00000000000E+00 0.  1.
         -3    1    6    6    0  502 -0.77905224385E+02 -0.42582124097E+02  0.19758449185E+03  0.21661507957E+03  0.00000000000E+00 0.  1.
<mgrwt>
<rscale>  0 0.16052823E+04</rscale>
<asrwt>0</asrwt>
<pdfrwt beam="1">  1        1 0.14631633E+00 0.16052823E+04</pdfrwt>
<pdfrwt beam="2">  1       -1 0.10421335E+00 0.16052823E+04</pdfrwt>
<totfact> 0.13750178E+01</totfact>
</mgrwt>
</event>
<event>
12    1  0.1663913E-007  0.1526742E+04  0.7818608E-02  0.8866862E-01
          1   -1    0    0  501    0  0.00000000000E+00  0.00000000000E+00  0.29635890349E+04  0.29635890349E+04  0.00000000000E+00 0. -1.
         -1   -1    0    0    0  501 -0.00000000000E+00 -0.00000000000E+00 -0.19663172043E+03  0.19663172043E+03  0.00000000000E+00 0.  1.
         23    2    1    2    0    0 -0.28384212457E+03 -0.96050923395E+00  0.75240161827E+02  0.30751929483E+03  0.91322289086E+02 0.  0.
        254    2    1    2    0    0  0.28384212457E+03  0.96050923395E+00  0.26917171527E+04  0.28527014605E+04  0.90110882732E+03 0.  0.
        -24    2    4    4    0    0 -0.45762495123E+01 -0.17168010047E+03  0.60460929301E+02  0.19893266641E+03  0.80147881034E+02 0.  0.
         24    2    4    4    0    0  0.28841837408E+03  0.17264060970E+03  0.26312562234E+04  0.26537687941E+04  0.77392254332E+02 0.  0.
         13    1    3    3    0    0 -0.14158221369E+03  0.17207167106E+02 -0.58918520548E+01  0.14274566107E+03  0.00000000000E+00 0.  1.
        -13    1    3    3    0    0 -0.14225991088E+03 -0.18167676340E+02  0.81132013882E+02  0.16477363376E+03  0.00000000000E+00 0. -1.
          4    1    6    6  502    0  0.19623482151E+03  0.15524970405E+03  0.18251077950E+04  0.18421805121E+04  0.00000000000E+00 0. -1.
          3    1    5    5  503    0 -0.49579615639E+01 -0.18055218574E+03  0.56984711379E+02  0.18939622618E+03  0.00000000000E+00 0. -1.
         -4    1    5    5    0  503  0.38171205154E+00  0.88720852729E+01  0.34762179215E+01  0.95364402277E+01  0.00000000000E+00 0.  1.
         -3    1    6    6    0  502  0.92183552572E+02  0.17390905652E+02  0.80614842836E+03  0.81158828202E+03  0.00000000000E+00 0.  1.
<mgrwt>
<rscale>  0 0.15267424E+04</rscale>
<asrwt>0</asrwt>
<pdfrwt beam="1">  1        1 0.45593674E+00 0.15267424E+04</pdfrwt>
<pdfrwt beam="2">  1       -1 0.30251036E-01 0.15267424E+04</pdfrwt>
<totfact> 0.62014520E+00</totfact>
</mgrwt>
</event>
<event>
12    1  0.1663913E-007  0.1910210E+04  0.7818608E-02  0.8649791E-01
         -2   -1    0    0    0  501 -0.00000000000E+00  0.00000000000E+00  0.88027903242E+03  0.88027903242E+03  0.00000000000E+00 0.  1.
          2   -1    0    0  501    0  0.00000000000E+00 -0.00000000000E+00 -0.10362910445E+04  0.10362910445E+04  0.00000000000E+00 0. -1.
         23    2    1    2    0    0 -0.61051265149E+03  0.18393818290E+03 -0.42146442146E+03  0.76980759191E+03  0.91719775602E+02 0.  0.
        254    2    1    2    0    0  0.61051265149E+03 -0.18393818290E+03  0.26545240942E+03  0.11467624850E+04  0.91544539023E+03 0.  0.
        -24    2    4    4    0    0  0.35181918376E+03 -0.57552598396E+02  0.59728410733E+03  0.70031496885E+03  0.81263220952E+02 0.  0.
         24    2    4    4    0    0  0.25869346773E+03 -0.12638558450E+03 -0.33183169790E+03  0.44644751612E+03  0.79419661905E+02 0.  0.
         11    1    3    3    0    0 -0.13176128820E+03  0.62911861759E+02 -0.60091912595E+02  0.15789229676E+03  0.00000000000E+00 0. -1.
        -11    1    3    3    0    0 -0.47875136329E+03  0.12102632114E+03 -0.36137250887E+03  0.61191529514E+03  0.00000000000E+00 0.  1.
          4    1    6    6  502    0  0.11883838093E+03 -0.33296912095E+02 -0.19008904056E+03  0.22663867384E+03  0.00000000000E+00 0. -1.
          1    1    5    5  503    0  0.40662861624E+02 -0.34801267102E+02  0.80976237312E+02  0.97065686608E+02  0.00000000000E+00 0. -1.
         -2    1    5    5    0  503  0.31115632214E+03 -0.22751331294E+02  0.51630787002E+03  0.60324928224E+03  0.00000000000E+00 0.  1.
         -3    1    6    6    0  502  0.13985508680E+03 -0.93088672408E+02 -0.14174265735E+03  0.21980884228E+03  0.00000000000E+00 0.  1.
<mgrwt>
<rscale>  0 0.19102097E+04</rscale>
<asrwt>0</asrwt>
<pdfrwt beam="1">  1        2 0.15942939E+00 0.19102097E+04</pdfrwt>
<pdfrwt beam="2">  1       -2 0.13542754E+00 0.19102097E+04</pdfrwt>
<totfact> 0.87450933E+00</totfact>
</mgrwt>
</event>
<event>
12    1  0.1663913E-007  0.1686281E+04  0.7818608E-02  0.8769228E-01
          2   -1    0    0  501    0  0.00000000000E+00  0.00000000000E+00  0.87372011408E+03  0.87372011408E+03  0.00000000000E+00 0.  1.
         -2   -1    0    0    0  501 -0.00000000000E+00 -0.00000000000E+00 -0.81363115794E+03  0.81363115794E+03  0.00000000000E+00 0. -1.
         23    2    1    2    0    0 -0.39043777358E+03 -0.14534928801E+03  0.45338666507E+03  0.62236961926E+03  0.90644384034E+02 0.  0.
        254    2    1    2    0    0  0.39043777358E+03  0.14534928801E+03 -0.39329770894E+03  0.10649816528E+04  0.89773869377E+03 0.  0.
        -24    2    4    4    0    0 -0.20869555032E+03  0.28745610365E+03 -0.87349205927E+02  0.37276118587E+03  0.71667103074E+02 0.  0.
         24    2    4    4    0    0  0.59913332390E+03 -0.14210681564E+03 -0.30594850301E+03  0.69222046689E+03  0.80059986417E+02 0.  0.
         13    1    3    3    0    0 -0.54741986362E+02 -0.25045404281E+02  0.11973806924E+03  0.13401926195E+03  0.00000000000E+00 0. -1.
        -13    1    3    3    0    0 -0.33569578721E+03 -0.12030388373E+03  0.33364859583E+03  0.48835035732E+03  0.00000000000E+00 0.  1.
          4    1    6    6  502    0  0.55879811142E+03 -0.12075794025E+03 -0.26203790088E+03  0.62888923584E+03  0.00000000000E+00 0. -1.
          3    1    5    5  503    0 -0.19731525451E+03  0.25148996911E+03 -0.96572661782E+02  0.33392632905E+03  0.00000000000E+00 0. -1.
         -4    1    5    5    0  503 -0.11380295808E+02  0.35966134536E+02  0.92234558541E+01  0.38834856818E+02  0.00000000000E+00 0.  1.
         -1    1    6    6    0  502  0.40335212478E+02 -0.21348875386E+02 -0.43910602134E+02  0.63331231045E+02  0.00000000000E+00 0.  1.
<mgrwt>
<rscale>  0 0.16862810E+04</rscale>
<asrwt>0</asrwt>
<pdfrwt beam="1">  1        2 0.13441848E+00 0.16862810E+04</pdfrwt>
<pdfrwt beam="2">  1       -2 0.12517402E+00 0.16862810E+04</pdfrwt>
<totfact> 0.13907806E+01</totfact>
</mgrwt>
</event>
<event>
12    1  0.1663913E-007  0.1348502E+04  0.7818608E-02  0.8991963E-01
          2   -1    0    0  501    0  0.00000000000E+00  0.00000000000E+00  0.33051971329E+03  0.33051971329E+03  0.00000000000E+00 0. -1.
         -2   -1    0    0    0  501 -0.00000000000E+00 -0.00000000000E+00 -0.13754529638E+04  0.13754529638E+04  0.00000000000E+00 0.  1.
         23    2    1    2    0    0 -0.21129970782E+03 -0.34469322894E+02 -0.66558878906E+03  0.70535141213E+03  0.93147612631E+02 0.  0.
        254    2    1    2    0    0  0.21129970782E+03  0.34469322894E+02 -0.37934446148E+03  0.10006212650E+04  0.90083572018E+03 0.  0.
        -24    2    4    4    0    0  0.36810850017E+03  0.38157985390E+03 -0.23999220473E+03  0.58736959436E+03  0.79370833715E+02 0.  0.
         24    2    4    4    0    0 -0.15680879235E+03 -0.34711053101E+03 -0.13935225675E+03  0.41325167063E+03  0.79266472846E+02 0.  0.
         13    1    3    3    0    0 -0.13175234435E+02 -0.32407377148E+02 -0.11460471407E+03  0.11982514504E+03  0.00000000000E+00 0. -1.
        -13    1    3    3    0    0 -0.19812447338E+03 -0.20619457455E+01 -0.55098407499E+03  0.58552626710E+03  0.00000000000E+00 0.  1.
          4    1    6    6  502    0 -0.36161285446E+02 -0.11312100137E+03 -0.79713121241E+01  0.11902748142E+03  0.00000000000E+00 0. -1.
          1    1    5    5  503    0  0.28134632397E+03  0.30703952348E+03 -0.22087959096E+03  0.47139878733E+03  0.00000000000E+00 0. -1.
         -2    1    5    5    0  503  0.86762176203E+02  0.74540330420E+02 -0.19112613770E+02  0.11597080703E+03  0.00000000000E+00 0.  1.
         -3    1    6    6    0  502 -0.12064750691E+03 -0.23398952964E+03 -0.13138094462E+03  0.29422418920E+03  0.00000000000E+00 0.  1.
<mgrwt>
<rscale>  0 0.13485019E+04</rscale>
<asrwt>0</asrwt>
<pdfrwt beam="1">  1        2 0.50849188E-01 0.13485019E+04</pdfrwt>
<pdfrwt beam="2">  1       -2 0.21160814E+00 0.13485019E+04</pdfrwt>
<totfact> 0.10755833E+01</totfact>
</mgrwt>
</event>
<event>
12    1  0.1663913E-007  0.1604865E+04  0.7818608E-02  0.8817565E-01
         -2   -1    0    0    0  501 -0.00000000000E+00  0.00000000000E+00  0.54044813486E+03  0.54044813486E+03  0.00000000000E+00 0.  1.
          2   -1    0    0  501    0  0.00000000000E+00 -0.00000000000E+00 -0.11914141468E+04  0.11914141468E+04  0.00000000000E+00 0. -1.
         23    2    1    2    0    0 -0.54130454364E+03 -0.38330720383E+02 -0.24125993365E+03  0.60107799618E+03  0.92782265646E+02 0.  0.
        254    2    1    2    0    0  0.54130454364E+03  0.38330720383E+02 -0.40970607833E+03  0.11307842855E+04  0.90351213420E+03 0.  0.
        -24    2    4    4    0    0  0.46136263249E+03 -0.39022312984E+03 -0.22740954131E+03  0.65019303474E+03  0.76852542104E+02 0.  0.
         24    2    4    4    0    0  0.79941911153E+02  0.42855385022E+03 -0.18229653701E+03  0.48059125077E+03  0.87674461585E+02 0.  0.
         13    1    3    3    0    0 -0.51793085128E+03 -0.18679247707E+02 -0.23820551749E+03  0.57038859523E+03  0.00000000000E+00 0. -1.
        -13    1    3    3    0    0 -0.23373692364E+02 -0.19651472676E+02 -0.30544161584E+01  0.30689400957E+02  0.00000000000E+00 0.  1.
          2    1    6    6  502    0  0.33268472104E+02  0.63162821403E+02 -0.57499865719E+02  0.91665521334E+02  0.00000000000E+00 0. -1.
          1    1    5    5  503    0  0.23869314176E+03 -0.24856299518E+03 -0.11442195147E+03  0.36311205085E+03  0.00000000000E+00 0. -1.
         -2    1    5    5    0  503  0.22266949072E+03 -0.14166013466E+03 -0.11298758984E+03  0.28708098389E+03  0.00000000000E+00 0.  1.
         -1    1    6    6    0  502  0.46673439049E+02  0.36539102882E+03 -0.12479667129E+03  0.38892572944E+03  0.00000000000E+00 0.  1.
<mgrwt>
<rscale>  0 0.16048645E+04</rscale>
<asrwt>0</asrwt>
<pdfrwt beam="1">  1        2 0.18329448E+00 0.16048645E+04</pdfrwt>
<pdfrwt beam="2">  1       -2 0.83145868E-01 0.16048645E+04</pdfrwt>
<totfact> 0.23279216E+01</totfact>
</mgrwt>
</event>
<event>
12    1  0.1663913E-007  0.3939494E+04  0.7818608E-02  0.8016865E-01
          2   -1    0    0  501    0  0.00000000000E+00  0.00000000000E+00  0.25428377431E+04  0.25428377431E+04  0.00000000000E+00 0. -1.
         -2   -1    0    0    0  501 -0.00000000000E+00 -0.00000000000E+00 -0.15258161129E+04  0.15258161129E+04  0.00000000000E+00 0.  1.
         23    2    1    2    0    0  0.16386051283E+03 -0.18288380103E+04  0.12491926988E+03  0.18426030700E+04  0.89902802354E+02 0.  0.
        254    2    1    2    0    0 -0.16386051283E+03  0.18288380103E+04  0.89210236031E+03  0.22260507861E+04  0.88766927696E+03 0.  0.
        -24    2    4    4    0    0 -0.39915246954E+03  0.17109709488E+04  0.71187852504E+03  0.18974151332E+04  0.81663160323E+02 0.  0.
         24    2    4    4    0    0  0.23529195670E+03  0.11786706151E+03  0.18022383527E+03  0.32863565286E+03  0.79156885052E+02 0.  0.
         13    1    3    3    0    0  0.10649340630E+03 -0.14151980736E+04  0.64585358010E+02  0.14206680476E+04  0.00000000000E+00 0.  1.
        -13    1    3    3    0    0  0.57367106537E+02 -0.41363993674E+03  0.60333911874E+02  0.42193502237E+03  0.00000000000E+00 0. -1.
          2    1    6    6  502    0  0.23031367634E+03  0.12675956749E+03  0.17968115003E+03  0.31843004434E+03  0.00000000000E+00 0. -1.
          1    1    5    5  503    0 -0.18574673356E+03  0.67534451769E+03  0.25238937865E+03  0.74450820349E+03  0.00000000000E+00 0. -1.
         -2    1    5    5    0  503 -0.21340573598E+03  0.10356264311E+04  0.45948914639E+03  0.11529069297E+04  0.00000000000E+00 0.  1.
         -1    1    6    6    0  502  0.49782803594E+01 -0.88925059781E+01  0.54268523306E+00  0.10205608515E+02  0.00000000000E+00 0.  1.
<mgrwt>
<rscale>  0 0.39394938E+04</rscale>
<asrwt>0</asrwt>
<pdfrwt beam="1">  1        2 0.39120581E+00 0.39394938E+04</pdfrwt>
<pdfrwt beam="2">  1       -2 0.23474094E+00 0.39394938E+04</pdfrwt>
<totfact> 0.20809563E-01</totfact>
</mgrwt>
</event>
<event>
12    1  0.1663913E-007  0.1273492E+04  0.7818608E-02  0.9050854E-01
          2   -1    0    0  501    0  0.00000000000E+00  0.00000000000E+00  0.10887906503E+04  0.10887906503E+04  0.00000000000E+00 0. -1.
         -2   -1    0    0    0  501 -0.00000000000E+00 -0.00000000000E+00 -0.37238152246E+03  0.37238152246E+03  0.00000000000E+00 0.  1.
         23    2    1    2    0    0 -0.21379175935E+03 -0.84533464298E+02 -0.53956522717E+02  0.25257512909E+03  0.89610638542E+02 0.  0.
        254    2    1    2    0    0  0.21379175935E+03  0.84533464298E+02  0.77036565051E+03  0.12085970436E+04  0.90243601182E+03 0.  0.
        -24    2    4    4    0    0  0.12218946385E+03 -0.29280933937E+03  0.74247124033E+03  0.81138280538E+03  0.80068344856E+02 0.  0.
         24    2    4    4    0    0  0.91602295506E+02  0.37734280367E+03  0.27894410182E+02  0.39721423825E+03  0.78882703614E+02 0.  0.
         13    1    3    3    0    0  0.62719800396E+01  0.49981845234E+01  0.24607675489E+01  0.83889784286E+01  0.00000000000E+00 0. -1.
        -13    1    3    3    0    0 -0.22006373939E+03 -0.89531648821E+02 -0.56417290266E+02  0.24418615067E+03  0.00000000000E+00 0.  1.
          2    1    6    6  502    0 -0.91762981389E+01  0.27301426685E+02  0.15580216807E+02  0.32746228826E+02  0.00000000000E+00 0. -1.
          1    1    5    5  503    0  0.10226335357E+03 -0.14871231984E+03  0.37515874208E+03  0.41631385914E+03  0.00000000000E+00 0. -1.
         -2    1    5    5    0  503  0.19926110277E+02 -0.14409701953E+03  0.36731249825E+03  0.39506894624E+03  0.00000000000E+00 0.  1.
         -1    1    6    6    0  502  0.10077859364E+03  0.35004137698E+03  0.12314193375E+02  0.36446800942E+03  0.00000000000E+00 0.  1.
<mgrwt>
<rscale>  0 0.12734921E+04</rscale>
<asrwt>0</asrwt>
<pdfrwt beam="1">  1        2 0.16750625E+00 0.12734921E+04</pdfrwt>
<pdfrwt beam="2">  1       -2 0.57289465E-01 0.12734921E+04</pdfrwt>
<totfact> 0.62059123E+01</totfact>
</mgrwt>
</event>
<event>
12    1  0.1663913E-007  0.1673893E+04  0.7818608E-02  0.8776396E-01
          2   -1    0    0  501    0  0.00000000000E+00  0.00000000000E+00  0.48100583615E+03  0.48100583615E+03  0.00000000000E+00 0. -1.
         -2   -1    0    0    0  501 -0.00000000000E+00 -0.00000000000E+00 -0.14562803530E+04  0.14562803530E+04  0.00000000000E+00 0.  1.
         23    2    1    2    0    0 -0.87056400544E+02  0.35231969948E+03  0.18618513530E+03  0.41764133071E+03  0.89729532439E+02 0.  0.
        254    2    1    2    0    0  0.87056400544E+02 -0.35231969948E+03 -0.11614596521E+04  0.15196448584E+04  0.91028785813E+03 0.  0.
        -24    2    4    4    0    0 -0.12998180283E+03  0.18075991753E+03 -0.80373106476E+03  0.83783174761E+03  0.80056205197E+02 0.  0.
         24    2    4    4    0    0  0.21703820337E+03 -0.53307961701E+03 -0.35772858734E+03  0.68181311078E+03  0.74966099245E+02 0.  0.
         11    1    3    3    0    0 -0.11709908632E+02  0.11866906985E+02  0.32618801075E+02  0.36632384923E+02  0.00000000000E+00 0.  1.
        -11    1    3    3    0    0 -0.75346491912E+02  0.34045279250E+03  0.15356633423E+03  0.38100894579E+03  0.00000000000E+00 0. -1.
          2    1    6    6  502    0  0.66924557254E+02 -0.10180756586E+03 -0.53254635896E+02  0.13296515737E+03  0.00000000000E+00 0. -1.
          1    1    5    5  503    0 -0.99320065482E+01  0.36131556231E+02 -0.25644721181E+03  0.25917041991E+03  0.00000000000E+00 0. -1.
         -2    1    5    5    0  503 -0.12004979628E+03  0.14462836130E+03 -0.54728385295E+03  0.57866132771E+03  0.00000000000E+00 0.  1.
         -1    1    6    6    0  502  0.15011364612E+03 -0.43127205115E+03 -0.30447395145E+03  0.54884795341E+03  0.00000000000E+00 0.  1.
<mgrwt>
<rscale>  0 0.16738929E+04</rscale>
<asrwt>0</asrwt>
<pdfrwt beam="1">  1        2 0.74000901E-01 0.16738929E+04</pdfrwt>
<pdfrwt beam="2">  1       -2 0.22404312E+00 0.16738929E+04</pdfrwt>
<totfact> 0.57196832E+00</totfact>
</mgrwt>
</event>
<event>
12    1  0.1663913E-007  0.1245728E+04  0.7818608E-02  0.9073746E-01
         -4   -1    0    0    0  501 -0.00000000000E+00  0.00000000000E+00  0.11526578496E+04  0.11526578496E+04  0.00000000000E+00 0.  1.
          4   -1    0    0  501    0  0.00000000000E+00 -0.00000000000E+00 -0.33657839976E+03  0.33657839976E+03  0.00000000000E+00 0. -1.
         23    2    1    2    0    0  0.26153545087E+03  0.14250188129E+02  0.35499730221E+03  0.45062841827E+03  0.91864176093E+02 0.  0.
        254    2    1    2    0    0 -0.26153545087E+03 -0.14250188129E+02  0.46108214768E+03  0.10386078311E+04  0.89303170160E+03 0.  0.
        -24    2    4    4    0    0 -0.42695694828E+02 -0.42780181354E+03  0.12031593472E+03  0.45379107552E+03  0.81320981613E+02 0.  0.
         24    2    4    4    0    0 -0.21883975604E+03  0.41355162541E+03  0.34076621296E+03  0.58481675561E+03  0.83505928204E+02 0.  0.
         13    1    3    3    0    0  0.24067530356E+03 -0.14395241813E+02  0.29554635201E+03  0.38141771185E+03  0.00000000000E+00 0.  1.
        -13    1    3    3    0    0  0.20860147313E+02  0.28645429942E+02  0.59450950202E+02  0.69210706414E+02  0.00000000000E+00 0. -1.
          2    1    6    6  502    0  0.47748545353E+00  0.47379739488E+02  0.46458186592E+02  0.66358351454E+02  0.00000000000E+00 0. -1.
          1    1    5    5  503    0  0.13529832407E+02 -0.13421179531E+03  0.10379459359E+02  0.13529078144E+03  0.00000000000E+00 0. -1.
         -2    1    5    5    0  503 -0.56225527235E+02 -0.29359001823E+03  0.10993647536E+03  0.31850029409E+03  0.00000000000E+00 0.  1.
         -1    1    6    6    0  502 -0.21931724149E+03  0.36617188593E+03  0.29430802637E+03  0.51845840416E+03  0.00000000000E+00 0.  1.
<mgrwt>
<rscale>  0 0.12457283E+04</rscale>
<asrwt>0</asrwt>
<pdfrwt beam="1">  1        4 0.51781293E-01 0.12457283E+04</pdfrwt>
<pdfrwt beam="2">  1       -4 0.17733198E+00 0.12457283E+04</pdfrwt>
<totfact> 0.13218290E+00</totfact>
</mgrwt>
</event>
<event>
12    1  0.1663913E-007  0.1522949E+04  0.7818608E-02  0.8869334E-01
         -1   -1    0    0    0  501 -0.00000000000E+00  0.00000000000E+00  0.46559779528E+03  0.46559779528E+03  0.00000000000E+00 0.  1.
          1   -1    0    0  501    0  0.00000000000E+00 -0.00000000000E+00 -0.12453745148E+04  0.12453745148E+04  0.00000000000E+00 0. -1.
         23    2    1    2    0    0 -0.27334828549E+03 -0.34388731212E+03 -0.16148689030E+02  0.44901337874E+03  0.91512105859E+02 0.  0.
        254    2    1    2    0    0  0.27334828549E+03  0.34388731212E+03 -0.76362803045E+03  0.12619589313E+04  0.90356782079E+03 0.  0.
        -24    2    4    4    0    0  0.50207689994E+03  0.50026853247E+03 -0.58745095319E+03  0.92396344769E+03  0.79120238954E+02 0.  0.
         24    2    4    4    0    0 -0.22872861445E+03 -0.15638122036E+03 -0.17617707725E+03  0.33799548360E+03  0.80191765397E+02 0.  0.
         13    1    3    3    0    0 -0.25950833961E+03 -0.27800777467E+03 -0.24944898601E+02  0.38112353518E+03  0.00000000000E+00 0.  1.
        -13    1    3    3    0    0 -0.13839945882E+02 -0.65879537445E+02  0.87962095710E+01  0.67889843561E+02  0.00000000000E+00 0. -1.
          4    1    6    6  502    0 -0.16604295312E+03 -0.67816545680E+02 -0.12012016004E+03  0.21586615991E+03  0.00000000000E+00 0. -1.
          1    1    5    5  503    0  0.33721248509E+03  0.29356335267E+03 -0.33819051682E+03  0.56059301440E+03  0.00000000000E+00 0. -1.
         -2    1    5    5    0  503  0.16486441485E+03  0.20670517980E+03 -0.24926043638E+03  0.36337043328E+03  0.00000000000E+00 0.  1.
         -3    1    6    6    0  502 -0.62685661336E+02 -0.88564674675E+02 -0.56056917212E+02  0.12212932369E+03  0.00000000000E+00 0.  1.
<mgrwt>
<rscale>  0 0.15229493E+04</rscale>
<asrwt>0</asrwt>
<pdfrwt beam="1">  1        1 0.19159607E+00 0.15229493E+04</pdfrwt>
<pdfrwt beam="2">  1       -1 0.71630432E-01 0.15229493E+04</pdfrwt>
<totfact> 0.18813377E+01</totfact>
</mgrwt>
</event>
<event>
12    1  0.1663913E-007  0.1185799E+04  0.7818608E-02  0.9125378E-01
          1   -1    0    0  501    0  0.00000000000E+00  0.00000000000E+00  0.23900943203E+03  0.23900943203E+03  0.00000000000E+00 0. -1.
         -1   -1    0    0    0  501 -0.00000000000E+00 -0.00000000000E+00 -0.14707787909E+04  0.14707787909E+04  0.00000000000E+00 0.  1.
         23    2    1    2    0    0 -0.21436022098E+03  0.10566962769E+03 -0.29365881180E+03  0.39027321188E+03  0.94664183326E+02 0.  0.
        254    2    1    2    0    0  0.21436022098E+03 -0.10566962769E+03 -0.93811054708E+03  0.13195150111E+04  0.89663375540E+03 0.  0.
        -24    2    4    4    0    0 -0.87869208200E+00 -0.17720770602E+03 -0.10403439472E+04  0.10584168185E+04  0.80791644888E+02 0.  0.
         24    2    4    4    0    0  0.21523891306E+03  0.71538078328E+02  0.10223340015E+03  0.26109819261E+03  0.79215602833E+02 0.  0.
         13    1    3    3    0    0  0.43501478320E+01 -0.29620694600E+01 -0.31734347647E+02  0.32167786094E+02  0.00000000000E+00 0. -1.
        -13    1    3    3    0    0 -0.21871036881E+03  0.10863169715E+03 -0.26192446415E+03  0.35810542578E+03  0.00000000000E+00 0.  1.
          4    1    6    6  502    0  0.20994059386E+03  0.57472537247E+02  0.75423361654E+02  0.23036238619E+03  0.00000000000E+00 0. -1.
          1    1    5    5  503    0  0.95007444390E+01 -0.11573011287E+02 -0.21837137726E+02  0.26477524794E+02  0.00000000000E+00 0. -1.
         -2    1    5    5    0  503 -0.10379436521E+02 -0.16563469473E+03 -0.10185068095E+04  0.10319392937E+04  0.00000000000E+00 0.  1.
         -1    1    6    6    0  502  0.52983191992E+01  0.14065541081E+02  0.26810038492E+02  0.30735806418E+02  0.00000000000E+00 0.  1.
<mgrwt>
<rscale>  0 0.11857993E+04</rscale>
<asrwt>0</asrwt>
<pdfrwt beam="1">  1        1 0.36770682E-01 0.11857993E+04</pdfrwt>
<pdfrwt beam="2">  1       -1 0.22627366E+00 0.11857993E+04</pdfrwt>
<totfact> 0.11689559E+01</totfact>
</mgrwt>
</event>
<event>
12    1  0.1663913E-007  0.1769952E+04  0.7818608E-02  0.8722444E-01
         -1   -1    0    0    0  501 -0.00000000000E+00  0.00000000000E+00  0.11652366543E+04  0.11652366543E+04  0.00000000000E+00 0.  1.
          1   -1    0    0  501    0  0.00000000000E+00 -0.00000000000E+00 -0.67212338952E+03  0.67212338952E+03  0.00000000000E+00 0. -1.
         23    2    1    2    0    0 -0.63841035273E+03 -0.54784267410E+02  0.75479229149E+02  0.65711425307E+03  0.12463118841E+03 0.  0.
        254    2    1    2    0    0  0.63841035273E+03  0.54784267410E+02  0.41763403558E+03  0.11802457907E+04  0.89888422189E+03 0.  0.
        -24    2    4    4    0    0  0.60152165244E+03 -0.16416213980E+03 -0.76099426217E+02  0.63306514270E+03  0.78758147077E+02 0.  0.
         24    2    4    4    0    0  0.36888700292E+02  0.21894640721E+03  0.49373346180E+03  0.54718064800E+03  0.79596638180E+02 0.  0.
         11    1    3    3    0    0 -0.44976217797E+03 -0.22741528147E+01  0.75003777540E+01  0.44983046158E+03  0.00000000000E+00 0.  1.
        -11    1    3    3    0    0 -0.18864817477E+03 -0.52510114595E+02  0.67978851395E+02  0.20728379149E+03  0.00000000000E+00 0. -1.
          2    1    6    6  502    0  0.42288252429E+02  0.76119805101E+02  0.24875741303E+03  0.26355790931E+03  0.00000000000E+00 0. -1.
          1    1    5    5  503    0 -0.99810775519E+00 -0.51576064998E+01  0.24296270024E+00  0.52589119379E+01  0.00000000000E+00 0. -1.
         -2    1    5    5    0  503  0.60251976020E+03 -0.15900453330E+03 -0.76342388917E+02  0.62780623076E+03  0.00000000000E+00 0.  1.
         -1    1    6    6    0  502 -0.53995521372E+01  0.14282660211E+03  0.24497604876E+03  0.28362273869E+03  0.00000000000E+00 0.  1.
<mgrwt>
<rscale>  0 0.17699523E+04</rscale>
<asrwt>0</asrwt>
<pdfrwt beam="1">  1        1 0.10340360E+00 0.17699523E+04</pdfrwt>
<pdfrwt beam="2">  1       -1 0.17926718E+00 0.17699523E+04</pdfrwt>
<totfact> 0.57728883E+00</totfact>
</mgrwt>
</event>
<event>
12    1  0.1663913E-007  0.1605966E+04  0.7818608E-02  0.8816891E-01
          2   -1    0    0  501    0  0.00000000000E+00  0.00000000000E+00  0.17038078969E+04  0.17038078969E+04  0.00000000000E+00 0.  1.
         -2   -1    0    0    0  501 -0.00000000000E+00 -0.00000000000E+00 -0.37843581531E+03  0.37843581531E+03  0.00000000000E+00 0. -1.
         23    2    1    2    0    0 -0.13777089238E+03  0.39555571819E+03  0.68831755524E+03  0.81088100912E+03  0.91114264094E+02 0.  0.
        254    2    1    2    0    0  0.13777089238E+03 -0.39555571819E+03  0.63705452638E+03  0.12713627031E+04  0.10173885729E+04 0.  0.
        -24    2    4    4    0    0 -0.10672262367E+03  0.31441988123E+03  0.24861842621E+03  0.42222636086E+03  0.78831452108E+02 0.  0.
         24    2    4    4    0    0  0.24449351605E+03 -0.70997559942E+03  0.38843610018E+03  0.84913634227E+03  0.79419724760E+02 0.  0.
         11    1    3    3    0    0 -0.25478999343E+01  0.70031475638E+01  0.56070978049E+02  0.56564038480E+02  0.00000000000E+00 0. -1.
        -11    1    3    3    0    0 -0.13522299245E+03  0.38855257062E+03  0.63224657719E+03  0.75431697064E+03  0.00000000000E+00 0.  1.
          2    1    6    6  502    0  0.11786012466E+03 -0.29307632255E+03  0.12329578939E+03  0.33909672884E+03  0.00000000000E+00 0. -1.
          3    1    5    5  503    0 -0.40808311246E+02  0.49730380184E+02  0.75343013845E+02  0.99070675355E+02  0.00000000000E+00 0. -1.
         -4    1    5    5    0  503 -0.65914312422E+02  0.26468950105E+03  0.17327541236E+03  0.32315568551E+03  0.00000000000E+00 0.  1.
         -1    1    6    6    0  502  0.12663339139E+03 -0.41689927687E+03  0.26514031079E+03  0.51003961343E+03  0.00000000000E+00 0.  1.
<mgrwt>
<rscale>  0 0.16059663E+04</rscale>
<asrwt>0</asrwt>
<pdfrwt beam="1">  1        2 0.26212429E+00 0.16059663E+04</pdfrwt>
<pdfrwt beam="2">  1       -2 0.58220896E-01 0.16059663E+04</pdfrwt>
<totfact> 0.25812755E+01</totfact>
</mgrwt>
</event>
<event>
12    1  0.1663913E-007  0.1551809E+04  0.7818608E-02  0.8850713E-01
         -1   -1    0    0    0  501 -0.00000000000E+00  0.00000000000E+00  0.55626038213E+03  0.55626038213E+03  0.00000000000E+00 0.  1.
          1   -1    0    0  501    0  0.00000000000E+00 -0.00000000000E+00 -0.10822767912E+04  0.10822767912E+04  0.00000000000E+00 0. -1.
         23    2    1    2    0    0 -0.33337343089E+02  0.18960835603E+03 -0.67859881270E+03  0.71126402711E+03  0.91309695738E+02 0.  0.
        254    2    1    2    0    0  0.33337343089E+02 -0.18960835603E+03  0.15258240365E+03  0.92727314621E+03  0.89414282453E+03 0.  0.
        -24    2    4    4    0    0  0.12744148161E+03  0.21987706997E+03 -0.23165439681E+03  0.35256618146E+03  0.77793930463E+02 0.  0.
         24    2    4    4    0    0 -0.94104138519E+02 -0.40948542600E+03  0.38423680047E+03  0.57470696474E+03  0.78206607761E+02 0.  0.
         13    1    3    3    0    0 -0.62964868070E+02  0.15623730900E+03 -0.53661708489E+03  0.56243450031E+03  0.00000000000E+00 0. -1.
        -13    1    3    3    0    0  0.29627524982E+02  0.33371047027E+02 -0.14198172781E+03  0.14882952680E+03  0.00000000000E+00 0.  1.
          2    1    6    6  502    0 -0.47013018076E+01 -0.63703956247E+01  0.28856179532E+02  0.29922621481E+02  0.00000000000E+00 0. -1.
          3    1    5    5  503    0  0.24218546386E+02  0.28211562430E+01 -0.31193331088E+02  0.39591928672E+02  0.00000000000E+00 0. -1.
         -4    1    5    5    0  503  0.10322293522E+03  0.21705591373E+03 -0.20046106572E+03  0.31297425279E+03  0.00000000000E+00 0.  1.
         -1    1    6    6    0  502 -0.89402836711E+02 -0.40311503038E+03  0.35538062093E+03  0.54478434326E+03  0.00000000000E+00 0.  1.
<mgrwt>
<rscale>  0 0.15518089E+04</rscale>
<asrwt>0</asrwt>
<pdfrwt beam="1">  1        1 0.16650412E+00 0.15518089E+04</pdfrwt>
<pdfrwt beam="2">  1       -1 0.85578521E-01 0.15518089E+04</pdfrwt>
<totfact> 0.16996205E+01</totfact>
</mgrwt>
</event>
<event>
12    1  0.1663913E-007  0.2035097E+04  0.7818608E-02  0.8590385E-01
          2   -1    0    0  501    0  0.00000000000E+00  0.00000000000E+00  0.15397528623E+04  0.15397528623E+04  0.00000000000E+00 0. -1.
         -2   -1    0    0    0  501 -0.00000000000E+00 -0.00000000000E+00 -0.67244848461E+03  0.67244848461E+03  0.00000000000E+00 0.  1.
         23    2    1    2    0    0 -0.76241902950E+03 -0.15812350724E+03  0.14128841809E+03  0.79674797927E+03  0.92515432741E+02 0.  0.
        254    2    1    2    0    0  0.76241902950E+03  0.15812350724E+03  0.72601595958E+03  0.14154533676E+04  0.93280396776E+03 0.  0.
        -24    2    4    4    0    0 -0.15637823950E+03  0.23015437007E+03  0.19198377090E+03  0.34719606846E+03  0.79133771602E+02 0.  0.
         24    2    4    4    0    0  0.91879726901E+03 -0.72030862837E+02  0.53403218868E+03  0.10682572992E+04  0.81279837219E+02 0.  0.
         13    1    3    3    0    0 -0.19484269948E+03 -0.44318199642E+02  0.77691057291E+02  0.21439141947E+03  0.00000000000E+00 0. -1.
        -13    1    3    3    0    0 -0.56757633003E+03 -0.11380530759E+03  0.63597360799E+02  0.58235655980E+03  0.00000000000E+00 0.  1.
          2    1    6    6  502    0  0.46586146394E+03 -0.27474269626E+02  0.31608684283E+03  0.56364229019E+03  0.00000000000E+00 0. -1.
          1    1    5    5  503    0 -0.12899038853E+03  0.21058040457E+03  0.19315104918E+03  0.31351228831E+03  0.00000000000E+00 0. -1.
         -2    1    5    5    0  503 -0.27387850971E+02  0.19573965505E+02 -0.11672782786E+01  0.33683780147E+02  0.00000000000E+00 0.  1.
         -1    1    6    6    0  502  0.45293580507E+03 -0.44556593211E+02  0.21794534585E+03  0.50461500898E+03  0.00000000000E+00 0.  1.
<mgrwt>
<rscale>  0 0.20350965E+04</rscale>
<asrwt>0</asrwt>
<pdfrwt beam="1">  1        2 0.23688505E+00 0.20350965E+04</pdfrwt>
<pdfrwt beam="2">  1       -2 0.10345361E+00 0.20350965E+04</pdfrwt>
<totfact> 0.85079240E+00</totfact>
</mgrwt>
</event>
<event>
12    1  0.1663913E-007  0.1219423E+04  0.7818608E-02  0.9096024E-01
         -2   -1    0    0    0  501 -0.00000000000E+00  0.00000000000E+00  0.14921013118E+03  0.14921013118E+03  0.00000000000E+00 0.  1.
          2   -1    0    0  501    0  0.00000000000E+00 -0.00000000000E+00 -0.24914385003E+04  0.24914385003E+04  0.00000000000E+00 0. -1.
         23    2    1    2    0    0  0.13409659587E+03 -0.71904189727E+02 -0.30489948732E+03  0.34722517491E+03  0.66704686462E+02 0.  0.
        254    2    1    2    0    0 -0.13409659587E+03  0.71904189727E+02 -0.20373288818E+04  0.22934234566E+04  0.10420796846E+04 0.  0.
        -24    2    4    4    0    0 -0.29788806704E+03 -0.71414935843E+02 -0.20374093805E+04  0.20619509230E+04  0.82263184138E+02 0.  0.
         24    2    4    4    0    0  0.16379147116E+03  0.14331912557E+03  0.80498704394E-01  0.23147253359E+03  0.78813130556E+02 0.  0.
         13    1    3    3    0    0 -0.27521926059E+01 -0.11160668114E+02 -0.52624017238E+02  0.53864851872E+02  0.00000000000E+00 0. -1.
        -13    1    3    3    0    0  0.13684878848E+03 -0.60743521613E+02 -0.25227547008E+03  0.29336032303E+03  0.00000000000E+00 0.  1.
          2    1    6    6  502    0  0.14539800533E+03  0.81066874467E+02  0.29468236950E+01  0.16649655209E+03  0.00000000000E+00 0. -1.
          1    1    5    5  503    0 -0.23201164025E+03 -0.22983982966E+02 -0.16096601513E+04  0.16264573365E+04  0.00000000000E+00 0. -1.
         -2    1    5    5    0  503 -0.65876426790E+02 -0.48430952877E+02 -0.42774922914E+03  0.43549358645E+03  0.00000000000E+00 0.  1.
         -1    1    6    6    0  502  0.18393465835E+02  0.62252251104E+02 -0.28663249906E+01  0.64975981500E+02  0.00000000000E+00 0.  1.
<mgrwt>
<rscale>  0 0.12194226E+04</rscale>
<asrwt>0</asrwt>
<pdfrwt beam="1">  1        2 0.38329821E+00 0.12194226E+04</pdfrwt>
<pdfrwt beam="2">  1       -2 0.22955406E-01 0.12194226E+04</pdfrwt>
<totfact> 0.58413427E+01</totfact>
</mgrwt>
</event>
<event>
12    1  0.1663913E-007  0.2932016E+04  0.7818608E-02  0.8263415E-01
         -1   -1    0    0    0  501 -0.00000000000E+00  0.00000000000E+00  0.60485984723E+03  0.60485984723E+03  0.00000000000E+00 0.  1.
          1   -1    0    0  501    0  0.00000000000E+00 -0.00000000000E+00 -0.35531863501E+04  0.35531863501E+04  0.00000000000E+00 0. -1.
         23    2    1    2    0    0 -0.10936444274E+04 -0.52375152326E+02 -0.27540393655E+03  0.11326378727E+04  0.90663841604E+02 0.  0.
        254    2    1    2    0    0  0.10936444274E+04  0.52375152326E+02 -0.26729225664E+04  0.30254083247E+04  0.89987732219E+03 0.  0.
        -24    2    4    4    0    0  0.42902014296E+03 -0.22652464065E+03 -0.38655090098E+03  0.62675692636E+03  0.89615566707E+02 0.  0.
         24    2    4    4    0    0  0.66462428447E+03  0.27889979298E+03 -0.22863716654E+04  0.23986513983E+04  0.80762641994E+02 0.  0.
         11    1    3    3    0    0 -0.66840646160E+01 -0.10935185771E+01  0.55810483658E+01  0.87761383040E+01  0.00000000000E+00 0. -1.
        -11    1    3    3    0    0 -0.10869603628E+04 -0.51281633749E+02 -0.28098498491E+03  0.11238617344E+04  0.00000000000E+00 0.  1.
          4    1    6    6  502    0  0.60775354673E+03  0.24140599288E+03 -0.21290205736E+04  0.22271887728E+04  0.00000000000E+00 0. -1.
          3    1    5    5  503    0  0.40837614253E+03 -0.21789407042E+03 -0.33751475363E+03  0.57285697048E+03  0.00000000000E+00 0. -1.
         -4    1    5    5    0  503  0.20644000433E+02 -0.86305702319E+01 -0.49036147346E+02  0.53899955872E+02  0.00000000000E+00 0.  1.
         -3    1    6    6    0  502  0.56870737740E+02  0.37493800102E+02 -0.15735109182E+03  0.17146262553E+03  0.00000000000E+00 0.  1.
<mgrwt>
<rscale>  0 0.29320162E+04</rscale>
<asrwt>0</asrwt>
<pdfrwt beam="1">  1        1 0.54664406E+00 0.29320162E+04</pdfrwt>
<pdfrwt beam="2">  1       -1 0.93055361E-01 0.29320162E+04</pdfrwt>
<totfact> 0.21756879E-01</totfact>
</mgrwt>
</event>
<event>
12    1  0.1663913E-007  0.1695754E+04  0.7818608E-02  0.8763790E-01
          2   -1    0    0  501    0  0.00000000000E+00  0.00000000000E+00  0.25694882957E+03  0.25694882957E+03  0.00000000000E+00 0. -1.
         -2   -1    0    0    0  501 -0.00000000000E+00 -0.00000000000E+00 -0.27978139312E+04  0.27978139312E+04  0.00000000000E+00 0.  1.
         23    2    1    2    0    0  0.42982677941E+03 -0.24666426790E+02 -0.16837127461E+04  0.17404487519E+04  0.94412678176E+02 0.  0.
        254    2    1    2    0    0 -0.42982677941E+03  0.24666426790E+02 -0.85715235557E+03  0.13143140089E+04  0.89852749561E+03 0.  0.
        -24    2    4    4    0    0 -0.31175695950E+02  0.10472683077E+03  0.16298705710E+03  0.21312764786E+03  0.83180408746E+02 0.  0.
         24    2    4    4    0    0 -0.39865108346E+03 -0.80060403981E+02 -0.10201394127E+04  0.11011863610E+04  0.81207301366E+02 0.  0.
         11    1    3    3    0    0  0.41589369049E+02  0.19242699440E+02 -0.11457973107E+03  0.12340369473E+03  0.00000000000E+00 0. -1.
        -11    1    3    3    0    0  0.38823741037E+03 -0.43909126231E+02 -0.15691330150E+04  0.16170450572E+04  0.00000000000E+00 0.  1.
          4    1    6    6  502    0 -0.21147518904E+03 -0.80250719986E+02 -0.51496572797E+03  0.56245145090E+03  0.00000000000E+00 0. -1.
          1    1    5    5  503    0 -0.20431746152E+02  0.79139782226E+02  0.16618060607E+03  0.18519329149E+03  0.00000000000E+00 0. -1.
         -2    1    5    5    0  503 -0.10743949798E+02  0.25587048545E+02 -0.31935489693E+01  0.27934356365E+02  0.00000000000E+00 0.  1.
         -3    1    6    6    0  502 -0.18717589443E+03  0.19031600495E+00 -0.50517368470E+03  0.53873491012E+03  0.00000000000E+00 0.  1.
<mgrwt>
<rscale>  0 0.16957535E+04</rscale>
<asrwt>0</asrwt>
<pdfrwt beam="1">  1        2 0.39530589E-01 0.16957535E+04</pdfrwt>
<pdfrwt beam="2">  1       -2 0.43043291E+00 0.16957535E+04</pdfrwt>
<totfact> 0.58454416E-01</totfact>
</mgrwt>
</event>
<event>
12    1  0.1663913E-007  0.2637569E+04  0.7818608E-02  0.8355551E-01
         -1   -1    0    0    0  501 -0.00000000000E+00  0.00000000000E+00  0.83290576633E+03  0.83290576633E+03  0.00000000000E+00 0.  1.
          1   -1    0    0  501    0  0.00000000000E+00 -0.00000000000E+00 -0.20881026823E+04  0.20881026823E+04  0.00000000000E+00 0. -1.
         23    2    1    2    0    0  0.69589793068E+03 -0.40379403463E+03  0.37621178248E+03  0.89348455273E+03  0.97240878022E+02 0.  0.
        254    2    1    2    0    0 -0.69589793068E+03  0.40379403463E+03 -0.16314086984E+04  0.20275238959E+04  0.89556421028E+03 0.  0.
        -24    2    4    4    0    0 -0.58970153472E+03  0.48477050037E+02 -0.35191908329E+03  0.69294820663E+03  0.78944610066E+02 0.  0.
         24    2    4    4    0    0 -0.10619639596E+03  0.35531698460E+03 -0.12794896152E+04  0.13345756893E+04  0.80441040680E+02 0.  0.
         13    1    3    3    0    0  0.61643674967E+03 -0.31949049184E+03  0.31443524683E+03  0.76219286612E+03  0.00000000000E+00 0.  1.
        -13    1    3    3    0    0  0.79461181010E+02 -0.84303542792E+02  0.61776535653E+02  0.13129168661E+03  0.00000000000E+00 0. -1.
          2    1    6    6  502    0  0.62090218314E+01  0.28777960933E+02 -0.55817299192E+02  0.63105418758E+02  0.00000000000E+00 0. -1.
          1    1    5    5  503    0 -0.23452882530E+03  0.53489126080E+02 -0.12090677838E+03  0.26922723778E+03  0.00000000000E+00 0. -1.
         -2    1    5    5    0  503 -0.35517270942E+03 -0.50120760428E+01 -0.23101230491E+03  0.42372096885E+03  0.00000000000E+00 0.  1.
         -1    1    6    6    0  502 -0.11240541779E+03  0.32653902366E+03 -0.12236723160E+04  0.12714702705E+04  0.00000000000E+00 0.  1.
<mgrwt>
<rscale>  0 0.26375692E+04</rscale>
<asrwt>0</asrwt>
<pdfrwt beam="1">  1        1 0.32124656E+00 0.26375692E+04</pdfrwt>
<pdfrwt beam="2">  1       -1 0.12813935E+00 0.26375692E+04</pdfrwt>
<totfact> 0.11984960E+00</totfact>
</mgrwt>
</event>
<event>
12    1  0.1663913E-007  0.1874794E+04  0.7818608E-02  0.8667506E-01
         -1   -1    0    0    0  501 -0.00000000000E+00  0.00000000000E+00  0.18638662717E+04  0.18638662717E+04  0.00000000000E+00 0.  1.
          1   -1    0    0  501    0  0.00000000000E+00 -0.00000000000E+00 -0.47144665235E+03  0.47144665235E+03  0.00000000000E+00 0. -1.
         23    2    1    2    0    0  0.46376152390E+03 -0.46986996286E+03  0.18383369144E+03  0.69106800369E+03  0.89037220072E+02 0.  0.
        254    2    1    2    0    0 -0.46376152390E+03  0.46986996286E+03  0.12085859279E+04  0.16442449204E+04  0.89833672973E+03 0.  0.
        -24    2    4    4    0    0 -0.25951774492E+03  0.57743837825E+03  0.12436324814E+04  0.13977932710E+04  0.80123273764E+02 0.  0.
         24    2    4    4    0    0 -0.20424377898E+03 -0.10756841539E+03 -0.35046553514E+02  0.24645164937E+03  0.78890235917E+02 0.  0.
         13    1    3    3    0    0  0.14204499588E+03 -0.14054112811E+03  0.98717222737E+02  0.22287592874E+03  0.00000000000E+00 0.  1.
        -13    1    3    3    0    0  0.32171652802E+03 -0.32932883475E+03  0.85116468701E+02  0.46819207495E+03  0.00000000000E+00 0. -1.
          2    1    6    6  502    0 -0.12821082138E+03 -0.98436889597E+02  0.13873444002E+01  0.16164702495E+03  0.00000000000E+00 0. -1.
          3    1    5    5  503    0 -0.20869339573E+03  0.37914246401E+03  0.81470751550E+03  0.92252386270E+03  0.00000000000E+00 0. -1.
         -4    1    5    5    0  503 -0.50824349192E+02  0.19829591423E+03  0.42892496594E+03  0.47526940832E+03  0.00000000000E+00 0.  1.
         -1    1    6    6    0  502 -0.76032957607E+02 -0.91315257885E+01 -0.36433897915E+02  0.84804624420E+02  0.00000000000E+00 0.  1.
<mgrwt>
<rscale>  0 0.18747944E+04</rscale>
<asrwt>0</asrwt>
<pdfrwt beam="1">  1        1 0.72530255E-01 0.18747944E+04</pdfrwt>
<pdfrwt beam="2">  1       -1 0.28674865E+00 0.18747944E+04</pdfrwt>
<totfact> 0.18146378E+00</totfact>
</mgrwt>
</event>
<event>
12    1  0.1663913E-007  0.3413806E+04  0.7818608E-02  0.8134526E-01
          2   -1    0    0  501    0  0.00000000000E+00  0.00000000000E+00  0.14872420335E+04  0.14872420335E+04  0.00000000000E+00 0. -1.
         -2   -1    0    0    0  501 -0.00000000000E+00 -0.00000000000E+00 -0.19590070614E+04  0.19590070614E+04  0.00000000000E+00 0.  1.
         23    2    1    2    0    0  0.41753978635E+03 -0.35903758897E+03 -0.17174258897E+04  0.18058149754E+04  0.90380171128E+02 0.  0.
        254    2    1    2    0    0 -0.41753978635E+03  0.35903758897E+03  0.12456608617E+04  0.16404341195E+04  0.91438813136E+03 0.  0.
        -24    2    4    4    0    0 -0.36822303867E+03  0.18479083856E+03  0.13536378863E+04  0.14173568187E+04  0.82637545187E+02 0.  0.
         24    2    4    4    0    0 -0.49316747672E+02  0.17424675041E+03 -0.10797702465E+03  0.22307730088E+03  0.72872303986E+02 0.  0.
         13    1    3    3    0    0  0.17345491427E+03 -0.10434427516E+03 -0.54068202970E+03  0.57733126737E+03  0.00000000000E+00 0. -1.
        -13    1    3    3    0    0  0.24408487208E+03 -0.25469331381E+03 -0.11767438600E+04  0.12284837080E+04  0.00000000000E+00 0.  1.
          4    1    6    6  502    0 -0.12485340667E+02  0.16413690752E+02 -0.44445006232E+02  0.48996444306E+02  0.00000000000E+00 0. -1.
          1    1    5    5  503    0 -0.30628452562E+03  0.11643702783E+03  0.10773396184E+04  0.11260676913E+04  0.00000000000E+00 0. -1.
         -2    1    5    5    0  503 -0.61938513053E+02  0.68353810730E+02  0.27629826794E+03  0.29128912734E+03  0.00000000000E+00 0.  1.
         -3    1    6    6    0  502 -0.36831407005E+02  0.15783305966E+03 -0.63532018419E+02  0.17408085658E+03  0.00000000000E+00 0.  1.
<mgrwt>
<rscale>  0 0.34138059E+04</rscale>
<asrwt>0</asrwt>
<pdfrwt beam="1">  1        2 0.22880647E+00 0.34138059E+04</pdfrwt>
<pdfrwt beam="2">  1       -2 0.30138570E+00 0.34138059E+04</pdfrwt>
<totfact> 0.33285032E-01</totfact>
</mgrwt>
</event>
<event>
12    1  0.1663913E-007  0.2149488E+04  0.7818608E-02  0.8539752E-01
         -1   -1    0    0    0  501 -0.00000000000E+00  0.00000000000E+00  0.90037741970E+03  0.90037741970E+03  0.00000000000E+00 0.  1.
          1   -1    0    0  501    0  0.00000000000E+00 -0.00000000000E+00 -0.12828778586E+04  0.12828778586E+04  0.00000000000E+00 0. -1.
         23    2    1    2    0    0  0.36083448288E+03 -0.80621426376E+03 -0.92258010675E+02  0.89248052063E+03  0.88470198581E+02 0.  0.
        254    2    1    2    0    0 -0.36083448288E+03  0.80621426376E+03 -0.29024242819E+03  0.12907747576E+04  0.89536352657E+03 0.  0.
        -24    2    4    4    0    0 -0.38157207803E+03  0.98435196818E+03 -0.27869339885E+03  0.10949544050E+04  0.81909037510E+02 0.  0.
         24    2    4    4    0    0  0.20737595149E+02 -0.17813770442E+03 -0.11549029336E+02  0.19582035266E+03  0.77776222915E+02 0.  0.
         13    1    3    3    0    0  0.34607320641E+03 -0.79422596345E+03 -0.99684421871E+02  0.87206566793E+03  0.00000000000E+00 0. -1.
        -13    1    3    3    0    0  0.14761276475E+02 -0.11988300307E+02  0.74264111960E+01  0.20414852698E+02  0.00000000000E+00 0.  1.
          2    1    6    6  502    0 -0.48473355545E+01 -0.89072456769E+02  0.30206996225E+02  0.94179943926E+02  0.00000000000E+00 0. -1.
          1    1    5    5  503    0 -0.17322069696E+02  0.98317281646E+02 -0.12071708211E+02  0.10055877937E+03  0.00000000000E+00 0. -1.
         -2    1    5    5    0  503 -0.36425000834E+03  0.88603468653E+03 -0.26662169064E+03  0.99439562561E+03  0.00000000000E+00 0.  1.
         -1    1    6    6    0  502  0.25584930703E+02 -0.89065247649E+02 -0.41756025561E+02  0.10164040874E+03  0.00000000000E+00 0.  1.
<mgrwt>
<rscale>  0 0.21494876E+04</rscale>
<asrwt>0</asrwt>
<pdfrwt beam="1">  1        1 0.19736583E+00 0.21494876E+04</pdfrwt>
<pdfrwt beam="2">  1       -1 0.13851960E+00 0.21494876E+04</pdfrwt>
<totfact> 0.36725205E+00</totfact>
</mgrwt>
</event>
<event>
12    1  0.1663913E-007  0.2840636E+04  0.7818608E-02  0.8290762E-01
         -2   -1    0    0    0  501 -0.00000000000E+00  0.00000000000E+00  0.24260252277E+04  0.24260252277E+04  0.00000000000E+00 0.  1.
          2   -1    0    0  501    0  0.00000000000E+00 -0.00000000000E+00 -0.83152610748E+03  0.83152610748E+03  0.00000000000E+00 0. -1.
         23    2    1    2    0    0 -0.35493611393E+03 -0.57881696003E+02  0.21223075497E+04  0.21544994287E+04  0.91370219129E+02 0.  0.
        254    2    1    2    0    0  0.35493611393E+03  0.57881696003E+02 -0.52780842945E+03  0.11030519065E+04  0.89933966587E+03 0.  0.
        -24    2    4    4    0    0  0.61576726503E+03  0.14451920577E+03 -0.50975371167E+03  0.81634074634E+03  0.80673676257E+02 0.  0.
         24    2    4    4    0    0 -0.26083115111E+03 -0.86637509771E+02 -0.18054717777E+02  0.28671116019E+03  0.79613874797E+02 0.  0.
         13    1    3    3    0    0 -0.32496449253E+03 -0.37846665795E+02  0.20126689421E+04  0.20390857172E+04  0.00000000000E+00 0.  1.
        -13    1    3    3    0    0 -0.29971621398E+02 -0.20035030208E+02  0.10963860764E+03  0.11541371153E+03  0.00000000000E+00 0. -1.
          2    1    6    6  502    0 -0.22771585504E+03 -0.71491599465E+02  0.12749719104E+02  0.23901488399E+03  0.00000000000E+00 0. -1.
          3    1    5    5  503    0  0.49437727855E+03  0.85514006218E+02 -0.38319883295E+03  0.63131837006E+03  0.00000000000E+00 0. -1.
         -4    1    5    5    0  503  0.12138998649E+03  0.59005199556E+02 -0.12655487873E+03  0.18502237628E+03  0.00000000000E+00 0.  1.
         -1    1    6    6    0  502 -0.33115296067E+02 -0.15145910305E+02 -0.30804436881E+02  0.47696276208E+02  0.00000000000E+00 0.  1.
<mgrwt>
<rscale>  0 0.28406361E+04</rscale>
<asrwt>0</asrwt>
<pdfrwt beam="1">  1        2 0.12792709E+00 0.28406361E+04</pdfrwt>
<pdfrwt beam="2">  1       -2 0.37323465E+00 0.28406361E+04</pdfrwt>
<totfact> 0.31385122E-01</totfact>
</mgrwt>
</event>
<event>
12    1  0.1663913E-007  0.1961691E+04  0.7818608E-02  0.8624744E-01
         -2   -1    0    0    0  501 -0.00000000000E+00  0.00000000000E+00  0.62909856835E+03  0.62909856835E+03  0.00000000000E+00 0.  1.
          2   -1    0    0  501    0  0.00000000000E+00 -0.00000000000E+00 -0.15292635144E+04  0.15292635144E+04  0.00000000000E+00 0. -1.
         23    2    1    2    0    0  0.39869891477E+03  0.58979923028E+02  0.36562240424E+03  0.55190753860E+03  0.92101752016E+02 0.  0.
        254    2    1    2    0    0 -0.39869891477E+03 -0.58979923028E+02 -0.12657873503E+04  0.16064545442E+04  0.90334884199E+03 0.  0.
        -24    2    4    4    0    0 -0.50606454434E+03  0.26296362153E+03 -0.10466275108E+04  0.11946249440E+04  0.80302061907E+02 0.  0.
         24    2    4    4    0    0  0.10736562957E+03 -0.32194354456E+03 -0.21915983951E+03  0.41182960019E+03  0.79984748787E+02 0.  0.
         13    1    3    3    0    0  0.38690710309E+03  0.74348981145E+02  0.34628396333E+03  0.52453547133E+03  0.00000000000E+00 0.  1.
        -13    1    3    3    0    0  0.11791811674E+02 -0.15369058117E+02  0.19338440905E+02  0.27372067269E+02  0.00000000000E+00 0. -1.
          4    1    6    6  502    0  0.11263725035E+03 -0.32192846361E+03 -0.20799666619E+03  0.39948429130E+03  0.00000000000E+00 0. -1.
          1    1    5    5  503    0 -0.30569228407E+03  0.13231344913E+03 -0.54201884102E+03  0.63619104472E+03  0.00000000000E+00 0. -1.
         -2    1    5    5    0  503 -0.20037226027E+03  0.13065017240E+03 -0.50460866978E+03  0.55843389926E+03  0.00000000000E+00 0.  1.
         -3    1    6    6    0  502 -0.52716207772E+01 -0.15080954084E-01 -0.11163173318E+02  0.12345308890E+02  0.00000000000E+00 0.  1.
<mgrwt>
<rscale>  0 0.19616906E+04</rscale>
<asrwt>0</asrwt>
<pdfrwt beam="1">  1        2 0.23527131E+00 0.19616906E+04</pdfrwt>
<pdfrwt beam="2">  1       -2 0.96784396E-01 0.19616906E+04</pdfrwt>
<totfact> 0.10161855E+01</totfact>
</mgrwt>
</event>
<event>
12    1  0.1663913E-007  0.2106000E+04  0.7818608E-02  0.8558605E-01
          1   -1    0    0  501    0  0.00000000000E+00  0.00000000000E+00  0.73780659784E+03  0.73780659784E+03  0.00000000000E+00 0. -1.
         -1   -1    0    0    0  501 -0.00000000000E+00 -0.00000000000E+00 -0.15028454600E+04  0.15028454600E+04  0.00000000000E+00 0.  1.
         23    2    1    2    0    0  0.20191655528E+02  0.39470381855E+03 -0.11080838847E+04  0.11798890480E+04  0.89941440870E+02 0.  0.
        254    2    1    2    0    0 -0.20191655528E+02 -0.39470381855E+03  0.34304502253E+03  0.10607630098E+04  0.92268058839E+03 0.  0.
        -24    2    4    4    0    0 -0.48447819364E+02  0.16489314503E+03 -0.20254681222E+03  0.27471037421E+03  0.70025981437E+02 0.  0.
         24    2    4    4    0    0  0.28256163836E+02 -0.55959696358E+03  0.54559183476E+03  0.78605263561E+03  0.79127260514E+02 0.  0.
         13    1    3    3    0    0  0.45415298013E+02  0.15133234351E+03 -0.37055141465E+03  0.40283045861E+03  0.00000000000E+00 0.  1.
        -13    1    3    3    0    0 -0.25223642485E+02  0.24337147504E+03 -0.73753247005E+03  0.77705858941E+03  0.00000000000E+00 0. -1.
          2    1    6    6  502    0  0.47821632021E+02 -0.50437293718E+03  0.50002134248E+03  0.71182884965E+03  0.00000000000E+00 0. -1.
          3    1    5    5  503    0 -0.37778636251E+02  0.15591666580E+03 -0.14751651147E+03  0.21794116910E+03  0.00000000000E+00 0. -1.
         -4    1    5    5    0  503 -0.10669183113E+02  0.89764792280E+01 -0.55030300754E+02  0.56769205109E+02  0.00000000000E+00 0.  1.
         -1    1    6    6    0  502 -0.19565468185E+02 -0.55224026401E+02  0.45570492274E+02  0.74223785968E+02  0.00000000000E+00 0.  1.
<mgrwt>
<rscale>  0 0.21060003E+04</rscale>
<asrwt>0</asrwt>
<pdfrwt beam="1">  1        1 0.11350871E+00 0.21060003E+04</pdfrwt>
<pdfrwt beam="2">  1       -1 0.23120699E+00 0.21060003E+04</pdfrwt>
<totfact> 0.21400557E+00</totfact>
</mgrwt>
</event>
<event>
12    1  0.1663913E-007  0.1917300E+04  0.7818608E-02  0.8646293E-01
         -1   -1    0    0    0  501 -0.00000000000E+00  0.00000000000E+00  0.42846714741E+03  0.42846714741E+03  0.00000000000E+00 0.  1.
          1   -1    0    0  501    0  0.00000000000E+00 -0.00000000000E+00 -0.21448786255E+04  0.21448786255E+04  0.00000000000E+00 0. -1.
         23    2    1    2    0    0 -0.33282842683E+03  0.29939781730E+03  0.12565118101E+03  0.47393896946E+03  0.91739374169E+02 0.  0.
        254    2    1    2    0    0  0.33282842683E+03 -0.29939781730E+03 -0.18420626591E+04  0.20994068035E+04  0.90216421542E+03 0.  0.
        -24    2    4    4    0    0  0.53760969476E+02 -0.53559509315E+03 -0.14864011355E+04  0.15828617198E+04  0.79438924416E+02 0.  0.
         24    2    4    4    0    0  0.27906745736E+03  0.23619727586E+03 -0.35566152359E+03  0.51654508364E+03  0.81583731194E+02 0.  0.
         13    1    3    3    0    0 -0.32805100466E+02  0.12240051723E+02 -0.11055143930E+02  0.36717975027E+02  0.00000000000E+00 0. -1.
        -13    1    3    3    0    0 -0.30002332637E+03  0.28715776557E+03  0.13670632494E+03  0.43722099443E+03  0.00000000000E+00 0.  1.
          4    1    6    6  502    0  0.26269051746E+03  0.21358068596E+03 -0.29222263562E+03  0.44723269798E+03  0.00000000000E+00 0. -1.
          1    1    5    5  503    0  0.53193292811E+02 -0.51364328359E+03 -0.13634002577E+04  0.14579160510E+04  0.00000000000E+00 0. -1.
         -2    1    5    5    0  503  0.56767666563E+00 -0.21951809565E+02 -0.12300087785E+03  0.12494566880E+03  0.00000000000E+00 0.  1.
         -1    1    6    6    0  502  0.16376939899E+02  0.22616589901E+02 -0.63438887968E+02  0.69312385659E+02  0.00000000000E+00 0.  1.
<mgrwt>
<rscale>  0 0.19173002E+04</rscale>
<asrwt>0</asrwt>
<pdfrwt beam="1">  1        1 0.32998133E+00 0.19173002E+04</pdfrwt>
<pdfrwt beam="2">  1       -1 0.65918022E-01 0.19173002E+04</pdfrwt>
<totfact> 0.51769732E+00</totfact>
</mgrwt>
</event>
<event>
12    1  0.1663913E-007  0.1398061E+04  0.7818608E-02  0.8955223E-01
          1   -1    0    0  501    0  0.00000000000E+00  0.00000000000E+00  0.28074831725E+04  0.28074831725E+04  0.00000000000E+00 0. -1.
         -1   -1    0    0    0  501 -0.00000000000E+00 -0.00000000000E+00 -0.17405047317E+03  0.17405047317E+03  0.00000000000E+00 0.  1.
         23    2    1    2    0    0 -0.87990198451E+02 -0.11827062315E+03  0.14843544176E+02  0.17490662971E+03  0.92961190775E+02 0.  0.
        254    2    1    2    0    0  0.87990198451E+02  0.11827062315E+03  0.26185891552E+04  0.28066270160E+04  0.99920759998E+03 0.  0.
        -24    2    4    4    0    0  0.38975828570E+03 -0.27666415609E+03  0.99327031098E+03  0.11051349307E+04  0.79263660811E+02 0.  0.
         24    2    4    4    0    0 -0.30176808725E+03  0.39493477924E+03  0.16253188442E+04  0.17014920852E+04  0.79853068067E+02 0.  0.
         13    1    3    3    0    0 -0.89617527423E+02 -0.12332056658E+03  0.33013351373E+02  0.15597802644E+03  0.00000000000E+00 0.  1.
        -13    1    3    3    0    0  0.16273289711E+01  0.50499434347E+01 -0.18169807196E+02  0.18928603272E+02  0.00000000000E+00 0. -1.
          4    1    6    6  502    0 -0.10493838468E+03  0.15660493428E+03  0.74513300949E+03  0.76860937533E+03  0.00000000000E+00 0. -1.
          1    1    5    5  503    0  0.49162274630E+02 -0.69443034968E+02  0.15251548638E+03  0.17464317318E+03  0.00000000000E+00 0. -1.
         -2    1    5    5    0  503  0.34059601107E+03 -0.20722112113E+03  0.84075482460E+03  0.93049175756E+03  0.00000000000E+00 0.  1.
         -3    1    6    6    0  502 -0.19682970257E+03  0.23832984496E+03  0.88018583472E+03  0.93288270991E+03  0.00000000000E+00 0.  1.
<mgrwt>
<rscale>  0 0.13980612E+04</rscale>
<asrwt>0</asrwt>
<pdfrwt beam="1">  1        1 0.43192045E+00 0.13980612E+04</pdfrwt>
<pdfrwt beam="2">  1       -1 0.26776998E-01 0.13980612E+04</pdfrwt>
<totfact> 0.10049197E+01</totfact>
</mgrwt>
</event>
<event>
12    1  0.1663913E-007  0.2343729E+04  0.7818608E-02  0.8460876E-01
         -1   -1    0    0    0  501 -0.00000000000E+00  0.00000000000E+00  0.80661548224E+03  0.80661548224E+03  0.00000000000E+00 0.  1.
          1   -1    0    0  501    0  0.00000000000E+00 -0.00000000000E+00 -0.17025050817E+04  0.17025050817E+04  0.00000000000E+00 0. -1.
         23    2    1    2    0    0  0.53960741566E+03 -0.74487809715E+03  0.25127041538E+02  0.92465383196E+03  0.91289638445E+02 0.  0.
        254    2    1    2    0    0 -0.53960741566E+03  0.74487809715E+03 -0.92101664099E+03  0.15844667320E+04  0.90346202417E+03 0.  0.
        -24    2    4    4    0    0  0.11635651304E+03  0.28833028627E+03 -0.67001479603E+03  0.74300277982E+03  0.80374820767E+02 0.  0.
         24    2    4    4    0    0 -0.65596392871E+03  0.45654781087E+03 -0.25100184497E+03  0.84146395216E+03  0.79593198438E+02 0.  0.
         13    1    3    3    0    0  0.10033794635E+03 -0.10365886124E+03 -0.22191221798E+02  0.14596339718E+03  0.00000000000E+00 0. -1.
        -13    1    3    3    0    0  0.43926946931E+03 -0.64121923591E+03  0.47318263336E+02  0.77869043478E+03  0.00000000000E+00 0.  1.
          2    1    6    6  502    0 -0.24126825093E+03  0.13515167269E+03 -0.11471053270E+03  0.29939079787E+03  0.00000000000E+00 0. -1.
          1    1    5    5  503    0  0.18090485210E+02  0.49187983785E+01 -0.65912759690E+02  0.68527017465E+02  0.00000000000E+00 0. -1.
         -2    1    5    5    0  503  0.98266027832E+02  0.28341148790E+03 -0.60410203634E+03  0.67447576235E+03  0.00000000000E+00 0.  1.
         -1    1    6    6    0  502 -0.41469567777E+03  0.32139613818E+03 -0.13629131227E+03  0.54207315429E+03  0.00000000000E+00 0.  1.
<mgrwt>
<rscale>  0 0.23437295E+04</rscale>
<asrwt>0</asrwt>
<pdfrwt beam="1">  1        1 0.26192386E+00 0.23437295E+04</pdfrwt>
<pdfrwt beam="2">  1       -1 0.12409469E+00 0.23437295E+04</pdfrwt>
<totfact> 0.24358438E+00</totfact>
</mgrwt>
</event>
<event>
12    1  0.1663913E-007  0.3933812E+04  0.7818608E-02  0.8018034E-01
          2   -1    0    0  501    0  0.00000000000E+00  0.00000000000E+00  0.30446202535E+04  0.30446202535E+04  0.00000000000E+00 0. -1.
         -2   -1    0    0    0  501 -0.00000000000E+00 -0.00000000000E+00 -0.12706737317E+04  0.12706737317E+04  0.00000000000E+00 0.  1.
         23    2    1    2    0    0  0.17440996262E+04  0.30629801171E+03  0.20467330463E+03  0.17848580025E+04  0.90138500411E+02 0.  0.
        254    2    1    2    0    0 -0.17440996262E+04 -0.30629801171E+03  0.15692732172E+04  0.25304359827E+04  0.89709857561E+03 0.  0.
        -24    2    4    4    0    0 -0.93031480440E+02 -0.27837451582E+03  0.10373086973E+03  0.32113456810E+03  0.78867547737E+02 0.  0.
         24    2    4    4    0    0 -0.16510681458E+04 -0.27923495896E+02  0.14655423475E+04  0.22093014146E+04  0.79953892047E+02 0.  0.
         13    1    3    3    0    0  0.36010337555E+03  0.94955406655E+02  0.23632097517E+02  0.37316142133E+03  0.00000000000E+00 0. -1.
        -13    1    3    3    0    0  0.13839962507E+04  0.21134260506E+03  0.18104120711E+03  0.14116965812E+04  0.00000000000E+00 0.  1.
          4    1    6    6  502    0 -0.30547853903E+03  0.77590281732E+01  0.30978588489E+03  0.43513748954E+03  0.00000000000E+00 0. -1.
          3    1    5    5  503    0 -0.67900157051E+01 -0.50465593300E+02 -0.10527148387E+02  0.51997127551E+02  0.00000000000E+00 0. -1.
         -4    1    5    5    0  503 -0.86241464735E+02 -0.22790892252E+03  0.11425801812E+03  0.26913744055E+03  0.00000000000E+00 0.  1.
         -3    1    6    6    0  502 -0.13455896067E+04 -0.35682524069E+02  0.11557564626E+04  0.17741639251E+04  0.00000000000E+00 0.  1.
<mgrwt>
<rscale>  0 0.39338119E+04</rscale>
<asrwt>0</asrwt>
<pdfrwt beam="1">  1        2 0.46840311E+00 0.39338119E+04</pdfrwt>
<pdfrwt beam="2">  1       -2 0.19548827E+00 0.39338119E+04</pdfrwt>
<totfact> 0.18425242E-01</totfact>
</mgrwt>
</event>
<event>
12    1  0.1663913E-007  0.2246968E+04  0.7818608E-02  0.8499130E-01
         -1   -1    0    0    0  501 -0.00000000000E+00  0.00000000000E+00  0.12061278540E+04  0.12061278540E+04  0.00000000000E+00 0.  1.
          1   -1    0    0  501    0  0.00000000000E+00 -0.00000000000E+00 -0.10465024571E+04  0.10465024571E+04  0.00000000000E+00 0. -1.
         23    2    1    2    0    0  0.38587265979E+03 -0.31048186676E+03  0.87166665700E+03  0.10067172273E+04  0.91542971830E+02 0.  0.
        254    2    1    2    0    0 -0.38587265979E+03  0.31048186676E+03 -0.71204126018E+03  0.12459130838E+04  0.89442716693E+03 0.  0.
        -24    2    4    4    0    0 -0.12302355325E+03 -0.25773273041E+03 -0.31347723938E+01  0.29665339878E+03  0.80202601139E+02 0.  0.
         24    2    4    4    0    0 -0.26284910654E+03  0.56821459717E+03 -0.70890648779E+03  0.94925968498E+03  0.81166864308E+02 0.  0.
         13    1    3    3    0    0  0.17886728000E+03 -0.20231359278E+03  0.47485585125E+03  0.54627133656E+03  0.00000000000E+00 0. -1.
        -13    1    3    3    0    0  0.20700537979E+03 -0.10816827398E+03  0.39681080575E+03  0.46044589076E+03  0.00000000000E+00 0.  1.
          2    1    6    6  502    0 -0.62452976299E+02  0.17321546541E+03 -0.15998516956E+03  0.24392463218E+03  0.00000000000E+00 0. -1.
          1    1    5    5  503    0 -0.89871948415E+02 -0.14966708840E+03 -0.37398580303E+02  0.17853811433E+03  0.00000000000E+00 0. -1.
         -2    1    5    5    0  503 -0.33151604835E+02 -0.10806564202E+03  0.34263807909E+02  0.11811528445E+03  0.00000000000E+00 0.  1.
         -1    1    6    6    0  502 -0.20039613024E+03  0.39499913176E+03 -0.54892131822E+03  0.70533505280E+03  0.00000000000E+00 0.  1.
<mgrwt>
<rscale>  0 0.22469675E+04</rscale>
<asrwt>0</asrwt>
<pdfrwt beam="1">  1        1 0.16100038E+00 0.22469675E+04</pdfrwt>
<pdfrwt beam="2">  1       -1 0.18555813E+00 0.22469675E+04</pdfrwt>
<totfact> 0.24015771E+00</totfact>
</mgrwt>
</event>
<event>
12    1  0.1663913E-007  0.1633894E+04  0.7818608E-02  0.8799992E-01
          2   -1    0    0  501    0  0.00000000000E+00  0.00000000000E+00  0.15071800345E+04  0.15071800345E+04  0.00000000000E+00 0. -1.
         -2   -1    0    0    0  501 -0.00000000000E+00 -0.00000000000E+00 -0.44281509425E+03  0.44281509425E+03  0.00000000000E+00 0.  1.
         23    2    1    2    0    0  0.16688589186E+03  0.25906876102E+03 -0.21914856146E+03  0.38898024610E+03  0.91170258442E+02 0.  0.
        254    2    1    2    0    0 -0.16688589186E+03 -0.25906876102E+03  0.12835135018E+04  0.15610148827E+04  0.83330248466E+03 0.  0.
        -24    2    4    4    0    0 -0.38749436097E+03 -0.43164179967E+03  0.73134725062E+03  0.93672748832E+03  0.78250005604E+02 0.  0.
         24    2    4    4    0    0  0.22060846910E+03  0.17257303865E+03  0.55216625114E+03  0.62428739437E+03  0.79985195880E+02 0.  0.
         13    1    3    3    0    0  0.33293934012E+02  0.10314298310E+03 -0.11755147255E+03  0.15989155607E+03  0.00000000000E+00 0. -1.
        -13    1    3    3    0    0  0.13359195785E+03  0.15592577792E+03 -0.10159708892E+03  0.22908869003E+03  0.00000000000E+00 0.  1.
          2    1    6    6  502    0  0.99921587734E+02  0.32458593382E+02  0.22903956717E+03  0.25198612524E+03  0.00000000000E+00 0. -1.
          1    1    5    5  503    0 -0.19525850969E+02 -0.20972352170E+01  0.27194679657E+02  0.33544118013E+02  0.00000000000E+00 0. -1.
         -2    1    5    5    0  503 -0.36796851000E+03 -0.42954456446E+03  0.70415257096E+03  0.90318337030E+03  0.00000000000E+00 0.  1.
         -1    1    6    6    0  502  0.12068688137E+03  0.14011444527E+03  0.32312668396E+03  0.37230126913E+03  0.00000000000E+00 0.  1.
<mgrwt>
<rscale>  0 0.16338936E+04</rscale>
<asrwt>0</asrwt>
<pdfrwt beam="1">  1        2 0.23187385E+00 0.16338936E+04</pdfrwt>
<pdfrwt beam="2">  1       -2 0.68125400E-01 0.16338936E+04</pdfrwt>
<totfact> 0.23720514E+01</totfact>
</mgrwt>
</event>
<event>
12    1  0.1663913E-007  0.1524504E+04  0.7818608E-02  0.8868320E-01
          1   -1    0    0  501    0  0.00000000000E+00  0.00000000000E+00  0.51417108602E+03  0.51417108602E+03  0.00000000000E+00 0. -1.
         -1   -1    0    0    0  501 -0.00000000000E+00 -0.00000000000E+00 -0.11300282685E+04  0.11300282685E+04  0.00000000000E+00 0.  1.
         23    2    1    2    0    0 -0.50270831680E+02 -0.31784628312E+03  0.19367335522E+03  0.38679601706E+03  0.92457417645E+02 0.  0.
        254    2    1    2    0    0  0.50270831680E+02  0.31784628312E+03 -0.80953053767E+03  0.12574033374E+04  0.90673592924E+03 0.  0.
        -24    2    4    4    0    0  0.30558285006E+03  0.46212872860E+01 -0.78300557228E+03  0.84428386861E+03  0.79468799061E+02 0.  0.
         24    2    4    4    0    0 -0.25531201838E+03  0.31322499584E+03 -0.26524965390E+02  0.41311946883E+03  0.81670049544E+02 0.  0.
         13    1    3    3    0    0 -0.32323583626E+02 -0.43634480784E+02  0.73776176502E+01  0.54801562148E+02  0.00000000000E+00 0.  1.
        -13    1    3    3    0    0 -0.17947248054E+02 -0.27421180234E+03  0.18629573757E+03  0.33199445491E+03  0.00000000000E+00 0. -1.
          2    1    6    6  502    0 -0.10121040802E+03  0.79438934383E+02  0.16894833837E+02  0.12976720078E+03  0.00000000000E+00 0. -1.
          3    1    5    5  503    0  0.55290328445E+02 -0.22065323625E+02 -0.10007443346E+03  0.11644222240E+03  0.00000000000E+00 0. -1.
         -4    1    5    5    0  503  0.25029252161E+03  0.26686610911E+02 -0.68293113882E+03  0.72784164621E+03  0.00000000000E+00 0.  1.
         -1    1    6    6    0  502 -0.15410161036E+03  0.23378606145E+03 -0.43419799227E+02  0.28335226805E+03  0.00000000000E+00 0.  1.
<mgrwt>
<rscale>  0 0.15245037E+04</rscale>
<asrwt>0</asrwt>
<pdfrwt beam="1">  1        1 0.79103245E-01 0.15245037E+04</pdfrwt>
<pdfrwt beam="2">  1       -1 0.17385050E+00 0.15245037E+04</pdfrwt>
<totfact> 0.94907296E+00</totfact>
</mgrwt>
</event>
<event>
12    1  0.1663913E-007  0.1302227E+04  0.7818608E-02  0.9027801E-01
         -2   -1    0    0    0  501 -0.00000000000E+00  0.00000000000E+00  0.20703713051E+03  0.20703713051E+03  0.00000000000E+00 0.  1.
          2   -1    0    0  501    0  0.00000000000E+00 -0.00000000000E+00 -0.20476956721E+04  0.20476956721E+04  0.00000000000E+00 0. -1.
         23    2    1    2    0    0 -0.44796921703E+02 -0.52451261461E+02 -0.10307547000E+04  0.10377140055E+04  0.98169274906E+02 0.  0.
        254    2    1    2    0    0  0.44796921703E+02  0.52451261461E+02 -0.80990384156E+03  0.12170187971E+04  0.90577735728E+03 0.  0.
        -24    2    4    4    0    0 -0.33793623498E+03  0.26595572693E+03 -0.25681854077E+03  0.50682483033E+03  0.77345317601E+02 0.  0.
         24    2    4    4    0    0  0.38273315668E+03 -0.21350446547E+03 -0.55308530079E+03  0.71019396680E+03  0.80020588163E+02 0.  0.
         11    1    3    3    0    0  0.81448434218E+00 -0.25468479337E+02 -0.82009118344E+03  0.82048696271E+03  0.00000000000E+00 0. -1.
        -11    1    3    3    0    0 -0.45611406045E+02 -0.26982782124E+02 -0.21066351660E+03  0.21722704279E+03  0.00000000000E+00 0.  1.
          2    1    6    6  502    0  0.37571441985E+02  0.87956803952E+00 -0.65339140510E+02  0.75376323706E+02  0.00000000000E+00 0. -1.
          1    1    5    5  503    0  0.30058406101E+01 -0.15730063331E+01 -0.82974820450E+00  0.34925504693E+01  0.00000000000E+00 0. -1.
         -2    1    5    5    0  503 -0.34094207559E+03  0.26752873326E+03 -0.25598879256E+03  0.50333227986E+03  0.00000000000E+00 0.  1.
         -1    1    6    6    0  502  0.34516171470E+03 -0.21438403351E+03 -0.48774616028E+03  0.63481764309E+03  0.00000000000E+00 0.  1.
<mgrwt>
<rscale>  0 0.13022274E+04</rscale>
<asrwt>0</asrwt>
<pdfrwt beam="1">  1        2 0.31503010E+00 0.13022274E+04</pdfrwt>
<pdfrwt beam="2">  1       -2 0.31851866E-01 0.13022274E+04</pdfrwt>
<totfact> 0.56505883E+01</totfact>
</mgrwt>
</event>
<event>
12    1  0.1663913E-007  0.1546483E+04  0.7818608E-02  0.8854117E-01
          2   -1    0    0  501    0  0.00000000000E+00  0.00000000000E+00  0.12920867574E+04  0.12920867574E+04  0.00000000000E+00 0. -1.
         -2   -1    0    0    0  501 -0.00000000000E+00 -0.00000000000E+00 -0.46274163099E+03  0.46274163099E+03  0.00000000000E+00 0.  1.
         23    2    1    2    0    0  0.92585466465E+02  0.17221727861E+03  0.76148475937E+03  0.79143521158E+03  0.90993382881E+02 0.  0.
        254    2    1    2    0    0 -0.92585466465E+02 -0.17221727861E+03  0.67860367024E+02  0.96339317679E+03  0.94089878521E+03 0.  0.
        -24    2    4    4    0    0 -0.50743741177E+02 -0.14072634153E+03 -0.42654708130E+03  0.45954516138E+03  0.82828209644E+02 0.  0.
         24    2    4    4    0    0 -0.41841725288E+02 -0.31490937086E+02  0.49440744833E+03  0.50384801540E+03  0.81741596342E+02 0.  0.
         11    1    3    3    0    0  0.16996675169E+02  0.58649257096E+02  0.10992308022E+03  0.12574460580E+03  0.00000000000E+00 0.  1.
        -11    1    3    3    0    0  0.75588791296E+02  0.11356802152E+03  0.65156167915E+03  0.66569060578E+03  0.00000000000E+00 0. -1.
          2    1    6    6  502    0  0.19129475396E+01 -0.45175750105E+02  0.33301174610E+03  0.33606744979E+03  0.00000000000E+00 0. -1.
          1    1    5    5  503    0 -0.82133059451E+01 -0.90656490493E+02 -0.33311801782E+03  0.34533124889E+03  0.00000000000E+00 0. -1.
         -2    1    5    5    0  503 -0.42530435232E+02 -0.50069851035E+02 -0.93429063487E+02  0.11421391250E+03  0.00000000000E+00 0.  1.
         -1    1    6    6    0  502 -0.43754672828E+02  0.13684813019E+02  0.16139570222E+03  0.16778056562E+03  0.00000000000E+00 0.  1.
<mgrwt>
<rscale>  0 0.15464829E+04</rscale>
<asrwt>0</asrwt>
<pdfrwt beam="1">  1        2 0.19878258E+00 0.15464829E+04</pdfrwt>
<pdfrwt beam="2">  1       -2 0.71191020E-01 0.15464829E+04</pdfrwt>
<totfact> 0.28821012E+01</totfact>
</mgrwt>
</event>
<event>
12    1  0.1663913E-007  0.2010557E+04  0.7818608E-02  0.8601701E-01
         -1   -1    0    0    0  501 -0.00000000000E+00  0.00000000000E+00  0.79434412976E+03  0.79434412976E+03  0.00000000000E+00 0.  1.
          1   -1    0    0  501    0  0.00000000000E+00 -0.00000000000E+00 -0.12722261237E+04  0.12722261237E+04  0.00000000000E+00 0. -1.
         23    2    1    2    0    0 -0.26873929974E+03 -0.31649737122E+03 -0.89680457539E+03  0.99208094944E+03  0.87033134932E+02 0.  0.
        254    2    1    2    0    0  0.26873929974E+03  0.31649737122E+03  0.41892258142E+03  0.10744893041E+04  0.89813124770E+03 0.  0.
        -24    2    4    4    0    0  0.44650698455E+03  0.51951324746E+03  0.38819849208E+03  0.79151613269E+03  0.80853061275E+02 0.  0.
         24    2    4    4    0    0 -0.17776768481E+03 -0.20301587624E+03  0.30724089338E+02  0.28297317136E+03  0.79454705815E+02 0.  0.
         13    1    3    3    0    0 -0.23048917799E+03 -0.30840137294E+03 -0.82052221538E+03  0.90636271654E+03  0.00000000000E+00 0. -1.
        -13    1    3    3    0    0 -0.38250121743E+02 -0.80959982799E+01 -0.76282360011E+02  0.85718232893E+02  0.00000000000E+00 0.  1.
          4    1    6    6  502    0 -0.14991221256E+03 -0.18815004414E+03  0.24393357140E+01  0.24058275280E+03  0.00000000000E+00 0. -1.
          1    1    5    5  503    0  0.28272608570E+03  0.31886466035E+03  0.19645010488E+03  0.46925617189E+03  0.00000000000E+00 0. -1.
         -2    1    5    5    0  503  0.16378089885E+03  0.20064858711E+03  0.19174838720E+03  0.32225996079E+03  0.00000000000E+00 0.  1.
         -3    1    6    6    0  502 -0.27855472251E+02 -0.14865832095E+02  0.28284753624E+02  0.42390418561E+02  0.00000000000E+00 0.  1.
<mgrwt>
<rscale>  0 0.20105575E+04</rscale>
<asrwt>0</asrwt>
<pdfrwt beam="1">  1        1 0.19572709E+00 0.20105575E+04</pdfrwt>
<pdfrwt beam="2">  1       -1 0.12220679E+00 0.20105575E+04</pdfrwt>
<totfact> 0.51958086E+00</totfact>
</mgrwt>
</event>
<event>
12    1  0.1663913E-007  0.1388148E+04  0.7818608E-02  0.8962443E-01
         -2   -1    0    0    0  501 -0.00000000000E+00  0.00000000000E+00  0.15733309678E+03  0.15733309678E+03  0.00000000000E+00 0.  1.
          2   -1    0    0  501    0  0.00000000000E+00 -0.00000000000E+00 -0.30619034385E+04  0.30619034385E+04  0.00000000000E+00 0. -1.
         23    2    1    2    0    0 -0.96283694967E+02 -0.36442796034E+03 -0.68827393634E+03  0.79024160061E+03  0.93179867401E+02 0.  0.
        254    2    1    2    0    0  0.96283694967E+02  0.36442796034E+03 -0.22162964054E+04  0.24289949346E+04  0.91976537657E+03 0.  0.
        -24    2    4    4    0    0  0.49748974696E+03  0.27705447337E+03 -0.13061713211E+04  0.14272388396E+04  0.81682040503E+02 0.  0.
         24    2    4    4    0    0 -0.40120605199E+03  0.87373486963E+02 -0.91012508430E+03  0.10017560951E+04  0.81161459631E+02 0.  0.
         11    1    3    3    0    0 -0.85777119696E+02 -0.33029662661E+03 -0.66548061893E+03  0.74787567816E+03  0.00000000000E+00 0. -1.
        -11    1    3    3    0    0 -0.10506575271E+02 -0.34131333730E+02 -0.22793317413E+02  0.42365922448E+02  0.00000000000E+00 0.  1.
          4    1    6    6  502    0 -0.19963569695E+03  0.54341701261E+02 -0.55162279527E+03  0.58914780850E+03  0.00000000000E+00 0. -1.
          3    1    5    5  503    0  0.38784512586E+03  0.17650894143E+03 -0.94517188701E+03  0.10367878973E+04  0.00000000000E+00 0. -1.
         -4    1    5    5    0  503  0.10964462110E+03  0.10054553195E+03 -0.36099943405E+03  0.39045094226E+03  0.00000000000E+00 0.  1.
         -3    1    6    6    0  502 -0.20157035504E+03  0.33031785703E+02 -0.35850228903E+03  0.41260828656E+03  0.00000000000E+00 0.  1.
<mgrwt>
<rscale>  0 0.13881480E+04</rscale>
<asrwt>0</asrwt>
<pdfrwt beam="1">  1        2 0.47106201E+00 0.13881480E+04</pdfrwt>
<pdfrwt beam="2">  1       -2 0.24205095E-01 0.13881480E+04</pdfrwt>
<totfact> 0.23823492E+01</totfact>
</mgrwt>
</event>
<event>
12    1  0.1663913E-007  0.1579456E+04  0.7818608E-02  0.8833269E-01
          2   -1    0    0  501    0  0.00000000000E+00  0.00000000000E+00  0.18036226551E+04  0.18036226551E+04  0.00000000000E+00 0. -1.
         -2   -1    0    0    0  501 -0.00000000000E+00 -0.00000000000E+00 -0.34578749706E+03  0.34578749706E+03  0.00000000000E+00 0.  1.
         23    2    1    2    0    0  0.11668579651E+03  0.48709174607E+03  0.73541276568E+03  0.89438960063E+03  0.90702136717E+02 0.  0.
        254    2    1    2    0    0 -0.11668579651E+03 -0.48709174607E+03  0.72242239238E+03  0.12550205515E+04  0.89571676750E+03 0.  0.
        -24    2    4    4    0    0 -0.17054178413E+03  0.22577007751E+03  0.12224656879E+03  0.31827229811E+03  0.79349884250E+02 0.  0.
         24    2    4    4    0    0  0.53855987628E+02 -0.71286182358E+03  0.60017582359E+03  0.93674825343E+03  0.78827813438E+02 0.  0.
         13    1    3    3    0    0  0.28102208321E+02  0.22379201338E+02  0.50166799079E+02  0.61703083350E+02  0.00000000000E+00 0.  1.
        -13    1    3    3    0    0  0.88583588185E+02  0.46471254473E+03  0.68524596660E+03  0.83268651728E+03  0.00000000000E+00 0. -1.
          2    1    6    6  502    0  0.53019265008E+02 -0.69915629993E+03  0.60027455819E+03  0.92301685760E+03  0.00000000000E+00 0. -1.
          3    1    5    5  503    0 -0.10421407538E+03  0.95107535027E+02  0.92620989895E+02  0.16877400421E+03  0.00000000000E+00 0. -1.
         -4    1    5    5    0  503 -0.66327708753E+02  0.13066254248E+03  0.29625578897E+02  0.14949829391E+03  0.00000000000E+00 0.  1.
         -1    1    6    6    0  502  0.83672262006E+00 -0.13705523642E+02 -0.98734600434E-01  0.13731395834E+02  0.00000000000E+00 0.  1.
<mgrwt>
<rscale>  0 0.15794558E+04</rscale>
<asrwt>0</asrwt>
<pdfrwt beam="1">  1        2 0.27748040E+00 0.15794558E+04</pdfrwt>
<pdfrwt beam="2">  1       -2 0.53198077E-01 0.15794558E+04</pdfrwt>
<totfact> 0.27480007E+01</totfact>
</mgrwt>
</event>
<event>
12    1  0.1663913E-007  0.1935710E+04  0.7818608E-02  0.8637283E-01
         -1   -1    0    0    0  501 -0.00000000000E+00  0.00000000000E+00  0.15215806771E+04  0.15215806771E+04  0.00000000000E+00 0.  1.
          1   -1    0    0  501    0  0.00000000000E+00 -0.00000000000E+00 -0.61563833415E+03  0.61563833415E+03  0.00000000000E+00 0. -1.
         23    2    1    2    0    0 -0.74829282705E+03  0.27511996459E+02  0.41397560266E+03  0.86048463275E+03  0.91427231365E+02 0.  0.
        254    2    1    2    0    0  0.74829282705E+03 -0.27511996459E+02  0.49196674031E+03  0.12767343785E+04  0.90957151163E+03 0.  0.
        -24    2    4    4    0    0  0.40604379029E+03 -0.46106960273E+03  0.27100040435E+03  0.67646670036E+03  0.81909946504E+02 0.  0.
         24    2    4    4    0    0  0.34224903676E+03  0.43355760627E+03  0.22096633596E+03  0.60026767816E+03  0.79928484906E+02 0.  0.
         11    1    3    3    0    0 -0.34760121901E+03 -0.16383778942E+02  0.23192557318E+03  0.41819195014E+03  0.00000000000E+00 0.  1.
        -11    1    3    3    0    0 -0.40069160804E+03  0.43895775400E+02  0.18205002947E+03  0.44229268260E+03  0.00000000000E+00 0. -1.
          4    1    6    6  502    0  0.17188826758E+02  0.34342687700E+02 -0.36626523886E+01  0.38578374594E+02  0.00000000000E+00 0. -1.
          3    1    5    5  503    0  0.13227799682E+03 -0.99114034722E+02  0.58343032823E+02  0.17528539528E+03  0.00000000000E+00 0. -1.
         -4    1    5    5    0  503  0.27376579348E+03 -0.36195556801E+03  0.21265737153E+03  0.50118130507E+03  0.00000000000E+00 0.  1.
         -3    1    6    6    0  502  0.32506021000E+03  0.39921491857E+03  0.22462898835E+03  0.56168930357E+03  0.00000000000E+00 0.  1.
<mgrwt>
<rscale>  0 0.19357101E+04</rscale>
<asrwt>0</asrwt>
<pdfrwt beam="1">  1        1 0.94713590E-01 0.19357101E+04</pdfrwt>
<pdfrwt beam="2">  1       -1 0.23408933E+00 0.19357101E+04</pdfrwt>
<totfact> 0.27288300E+00</totfact>
</mgrwt>
</event>
<event>
12    1  0.1663913E-007  0.1957546E+04  0.7818608E-02  0.8626731E-01
         -1   -1    0    0    0  501 -0.00000000000E+00  0.00000000000E+00  0.30709260175E+04  0.30709260175E+04  0.00000000000E+00 0.  1.
          1   -1    0    0  501    0  0.00000000000E+00 -0.00000000000E+00 -0.31195688209E+03  0.31195688209E+03  0.00000000000E+00 0. -1.
         23    2    1    2    0    0 -0.51716447206E+03 -0.50214142371E+03  0.15796769128E+04  0.17387979897E+04  0.91837898196E+02 0.  0.
        254    2    1    2    0    0  0.51716447206E+03  0.50214142371E+03  0.11792922226E+04  0.16440849099E+04  0.89032575167E+03 0.  0.
        -24    2    4    4    0    0  0.44690429371E+03  0.27295595645E+03  0.12696349272E+04  0.13756700803E+04  0.79163877811E+02 0.  0.
         24    2    4    4    0    0  0.70260178353E+02  0.22918546726E+03 -0.90342704575E+02  0.26841482962E+03  0.80138913300E+02 0.  0.
         13    1    3    3    0    0 -0.49667543865E+03 -0.50027116526E+03  0.15162127032E+04  0.16720821426E+04  0.00000000000E+00 0. -1.
        -13    1    3    3    0    0 -0.20489033412E+02 -0.18702584549E+01  0.63464209657E+02  0.66715847174E+02  0.00000000000E+00 0.  1.
          4    1    6    6  502    0  0.22127488366E+01  0.12983038796E+03 -0.28093386460E+02  0.13285354439E+03  0.00000000000E+00 0. -1.
          3    1    5    5  503    0  0.10002737069E+03  0.51421957309E+02  0.19799525322E+03  0.22770993144E+03  0.00000000000E+00 0. -1.
         -4    1    5    5    0  503  0.34687692302E+03  0.22153399914E+03  0.10716396740E+04  0.11479601488E+04  0.00000000000E+00 0.  1.
         -3    1    6    6    0  502  0.68047429517E+02  0.99355079303E+02 -0.62249318115E+02  0.13556128523E+03  0.00000000000E+00 0.  1.
<mgrwt>
<rscale>  0 0.19575459E+04</rscale>
<asrwt>0</asrwt>
<pdfrwt beam="1">  1        1 0.47993368E-01 0.19575459E+04</pdfrwt>
<pdfrwt beam="2">  1       -1 0.47245014E+00 0.19575459E+04</pdfrwt>
<totfact> 0.17602084E-01</totfact>
</mgrwt>
</event>
<event>
12    1  0.1663913E-007  0.3008754E+04  0.7818608E-02  0.8241236E-01
         -2   -1    0    0    0  501 -0.00000000000E+00  0.00000000000E+00  0.91823733564E+03  0.91823733564E+03  0.00000000000E+00 0.  1.
          2   -1    0    0  501    0  0.00000000000E+00 -0.00000000000E+00 -0.24646672950E+04  0.24646672950E+04  0.00000000000E+00 0. -1.
         23    2    1    2    0    0 -0.16550662177E+03  0.70331804900E+03 -0.20064214664E+04  0.21345092424E+04  0.91399590885E+02 0.  0.
        254    2    1    2    0    0  0.16550662177E+03 -0.70331804900E+03  0.45999150709E+03  0.12483953882E+04  0.90821260657E+03 0.  0.
        -24    2    4    4    0    0  0.46925297350E+03 -0.29974364152E+03  0.47642284125E+03  0.73713793921E+03  0.79680700216E+02 0.  0.
         24    2    4    4    0    0 -0.30374635173E+03 -0.40357440748E+03 -0.16431334161E+02  0.51125744896E+03  0.77330730097E+02 0.  0.
         13    1    3    3    0    0 -0.15140281063E+03  0.67017364700E+03 -0.18365278430E+04  0.19608391179E+04  0.00000000000E+00 0. -1.
        -13    1    3    3    0    0 -0.14103811137E+02  0.33144401993E+02 -0.16989362345E+03  0.17367012455E+03  0.00000000000E+00 0.  1.
          2    1    6    6  502    0 -0.28738192710E+03 -0.34567196074E+03 -0.26227446169E+02  0.45029474281E+03  0.00000000000E+00 0. -1.
          1    1    5    5  503    0  0.42661095228E+03 -0.28899977402E+03  0.41513485812E+03  0.66170591989E+03  0.00000000000E+00 0. -1.
         -2    1    5    5    0  503  0.42642021219E+02 -0.10743867496E+02  0.61287983128E+02  0.75432019318E+02  0.00000000000E+00 0.  1.
         -1    1    6    6    0  502 -0.16364424633E+02 -0.57902446738E+02  0.97961120080E+01  0.60962706159E+02  0.00000000000E+00 0.  1.
<mgrwt>
<rscale>  0 0.30087536E+04</rscale>
<asrwt>0</asrwt>
<pdfrwt beam="1">  1        2 0.37917958E+00 0.30087536E+04</pdfrwt>
<pdfrwt beam="2">  1       -2 0.14126728E+00 0.30087536E+04</pdfrwt>
<totfact> 0.10948579E+00</totfact>
</mgrwt>
</event>
<event>
12    1  0.1663913E-007  0.1467358E+04  0.7818608E-02  0.8906454E-01
          1   -1    0    0  501    0  0.00000000000E+00  0.00000000000E+00  0.33575621111E+04  0.33575621111E+04  0.00000000000E+00 0. -1.
         -1   -1    0    0    0  501 -0.00000000000E+00 -0.00000000000E+00 -0.16032024836E+03  0.16032024836E+03  0.00000000000E+00 0.  1.
         23    2    1    2    0    0  0.93509141519E+02 -0.24575334875E+03  0.12867636919E+03  0.30715932167E+03  0.93008456243E+02 0.  0.
        254    2    1    2    0    0 -0.93509141519E+02  0.24575334875E+03  0.30685654936E+04  0.32107230378E+04  0.90747428016E+03 0.  0.
        -24    2    4    4    0    0  0.23598151820E+03  0.38827326921E+03  0.90066284485E+03  0.10118765471E+04  0.79102325354E+02 0.  0.
         24    2    4    4    0    0 -0.32949065972E+03 -0.14251992046E+03  0.21679026487E+04  0.21988464908E+04  0.79044120180E+02 0.  0.
         13    1    3    3    0    0  0.33383916376E+02 -0.91618292417E+01  0.19655641665E+02  0.39809160214E+02  0.00000000000E+00 0. -1.
        -13    1    3    3    0    0  0.60125225143E+02 -0.23659151951E+03  0.10902072752E+03  0.26735016146E+03  0.00000000000E+00 0.  1.
          2    1    6    6  502    0 -0.82491239878E+02 -0.56252398323E+02  0.79414487070E+03  0.80039690944E+03  0.00000000000E+00 0. -1.
          3    1    5    5  503    0  0.26654516715E+02  0.87567432292E+02  0.13555656891E+03  0.16356681153E+03  0.00000000000E+00 0. -1.
         -4    1    5    5    0  503  0.20932700149E+03  0.30070583692E+03  0.76510627594E+03  0.84830973552E+03  0.00000000000E+00 0.  1.
         -1    1    6    6    0  502 -0.24699941984E+03 -0.86267522137E+02  0.13737577780E+04  0.13984495813E+04  0.00000000000E+00 0.  1.
<mgrwt>
<rscale>  0 0.14673584E+04</rscale>
<asrwt>0</asrwt>
<pdfrwt beam="1">  1        1 0.51654796E+00 0.14673584E+04</pdfrwt>
<pdfrwt beam="2">  1       -1 0.24664656E-01 0.14673584E+04</pdfrwt>
<totfact> 0.45343529E+00</totfact>
</mgrwt>
</event>
<event>
12    1  0.1663913E-007  0.2313041E+04  0.7818608E-02  0.8472797E-01
          1   -1    0    0  501    0  0.00000000000E+00  0.00000000000E+00  0.14533409923E+04  0.14533409923E+04  0.00000000000E+00 0. -1.
         -1   -1    0    0    0  501 -0.00000000000E+00 -0.00000000000E+00 -0.92032048195E+03  0.92032048195E+03  0.00000000000E+00 0.  1.
         23    2    1    2    0    0  0.37501958922E+02  0.74561459936E+03 -0.42884652951E+03  0.86568199478E+03  0.90268723827E+02 0.  0.
        254    2    1    2    0    0 -0.37501958922E+02 -0.74561459936E+03  0.96186703990E+03  0.15079794795E+04  0.88964396275E+03 0.  0.
        -24    2    4    4    0    0 -0.23252150608E+03 -0.79774310423E+03  0.44476419882E+03  0.94609294023E+03  0.82561176449E+02 0.  0.
         24    2    4    4    0    0  0.19501954716E+03  0.52128504869E+02  0.51710284107E+03  0.56188653927E+03  0.87012240375E+02 0.  0.
         11    1    3    3    0    0 -0.20358753468E+02  0.11230622882E+03 -0.43801557806E+02  0.12225278869E+03  0.00000000000E+00 0. -1.
        -11    1    3    3    0    0  0.57860712390E+02  0.63330837054E+03 -0.38504497170E+03  0.74342920609E+03  0.00000000000E+00 0.  1.
          4    1    6    6  502    0  0.78938168364E+02 -0.18484418191E+02  0.23880607855E+03  0.25219288510E+03  0.00000000000E+00 0. -1.
          3    1    5    5  503    0 -0.43835270377E+02 -0.13215451107E+03  0.41340265665E+02  0.14524242938E+03  0.00000000000E+00 0. -1.
         -4    1    5    5    0  503 -0.18868623570E+03 -0.66558859316E+03  0.40342393316E+03  0.80085051085E+03  0.00000000000E+00 0.  1.
         -1    1    6    6    0  502  0.11608137879E+03  0.70612923060E+02  0.27829676252E+03  0.30969365418E+03  0.00000000000E+00 0.  1.
<mgrwt>
<rscale>  0 0.23130408E+04</rscale>
<asrwt>0</asrwt>
<pdfrwt beam="1">  1        1 0.22359092E+00 0.23130408E+04</pdfrwt>
<pdfrwt beam="2">  1       -1 0.14158777E+00 0.23130408E+04</pdfrwt>
<totfact> 0.25901268E+00</totfact>
</mgrwt>
</event>
<event>
12    1  0.1663913E-007  0.1117875E+04  0.7818608E-02  0.9187942E-01
          2   -1    0    0  501    0  0.00000000000E+00  0.00000000000E+00  0.16256838053E+04  0.16256838053E+04  0.00000000000E+00 0. -1.
         -2   -1    0    0    0  501 -0.00000000000E+00 -0.00000000000E+00 -0.19217229042E+03  0.19217229042E+03  0.00000000000E+00 0.  1.
         23    2    1    2    0    0  0.15446720242E+03  0.34437972478E+02  0.32683177506E+03  0.37617159139E+03  0.98183330621E+02 0.  0.
        254    2    1    2    0    0 -0.15446720242E+03 -0.34437972478E+02  0.11066797398E+04  0.14416845044E+04  0.91031207447E+03 0.  0.
        -24    2    4    4    0    0  0.30167011034E+03 -0.14831226597E+03  0.80828340953E+03  0.87902837433E+03  0.79796171891E+02 0.  0.
         24    2    4    4    0    0 -0.45613731275E+03  0.11387429350E+03  0.29839633032E+03  0.56265613002E+03  0.80702836991E+02 0.  0.
         13    1    3    3    0    0  0.87417737484E+02 -0.20941853481E+02  0.22481030012E+03  0.24211586708E+03  0.00000000000E+00 0. -1.
        -13    1    3    3    0    0  0.67049464933E+02  0.55379825959E+02  0.10202147494E+03  0.13405572431E+03  0.00000000000E+00 0.  1.
          2    1    6    6  502    0 -0.40970387473E+03  0.12368314928E+03  0.25397813230E+03  0.49765417518E+03  0.00000000000E+00 0. -1.
          1    1    5    5  503    0  0.15425291005E+03 -0.10811251356E+03  0.51422561302E+03  0.54764062754E+03  0.00000000000E+00 0. -1.
         -4    1    5    5    0  503  0.14741720029E+03 -0.40199752413E+02  0.29405779651E+03  0.33138774679E+03  0.00000000000E+00 0.  1.
         -1    1    6    6    0  502 -0.46433438025E+02 -0.98088557845E+01  0.44418198016E+02  0.65001954845E+02  0.00000000000E+00 0.  1.
<mgrwt>
<rscale>  0 0.11178754E+04</rscale>
<asrwt>0</asrwt>
<pdfrwt beam="1">  1        2 0.25010519E+00 0.11178754E+04</pdfrwt>
<pdfrwt beam="2">  1       -2 0.29564969E-01 0.11178754E+04</pdfrwt>
<totfact> 0.11271894E+02</totfact>
</mgrwt>
</event>
<event>
12    1  0.1663913E-007  0.2302047E+04  0.7818608E-02  0.8477115E-01
         -2   -1    0    0    0  501 -0.00000000000E+00  0.00000000000E+00  0.55340897510E+03  0.55340897510E+03  0.00000000000E+00 0. -1.
          2   -1    0    0  501    0  0.00000000000E+00 -0.00000000000E+00 -0.23939885655E+04  0.23939885655E+04  0.00000000000E+00 0.  1.
         23    2    1    2    0    0 -0.34979169411E+03 -0.85996342215E+03 -0.39040128137E+03  0.10095525595E+04  0.69942070419E+02 0.  0.
        254    2    1    2    0    0  0.34979169411E+03  0.85996342215E+03 -0.14501783090E+04  0.19378449811E+04  0.88900771987E+03 0.  0.
        -24    2    4    4    0    0  0.10614232193E+03 -0.17181501070E+03 -0.32021282715E+03  0.38639797894E+03  0.77334035498E+02 0.  0.
         24    2    4    4    0    0  0.24364937218E+03  0.10317784329E+04 -0.11299654819E+04  0.15514470021E+04  0.78956058274E+02 0.  0.
         11    1    3    3    0    0 -0.12740389787E+03 -0.33323159522E+03 -0.18622313913E+03  0.40243522061E+03  0.00000000000E+00 0.  1.
        -11    1    3    3    0    0 -0.22238779624E+03 -0.52673182693E+03 -0.20417814224E+03  0.60711733890E+03  0.00000000000E+00 0. -1.
          4    1    6    6  502    0  0.10287414363E+02  0.14182225184E+03 -0.17311997396E+03  0.22403104114E+03  0.00000000000E+00 0. -1.
          1    1    5    5  503    0  0.69177330898E+02 -0.13022415886E+03 -0.16386714187E+03  0.22044562787E+03  0.00000000000E+00 0. -1.
         -2    1    5    5    0  503  0.36964991030E+02 -0.41590851843E+02 -0.15634568529E+03  0.16595235107E+03  0.00000000000E+00 0.  1.
         -3    1    6    6    0  502  0.23336195782E+03  0.88995618102E+03 -0.95684550790E+03  0.13274159610E+04  0.00000000000E+00 0.  1.
<mgrwt>
<rscale>  0 0.23020467E+04</rscale>
<asrwt>0</asrwt>
<pdfrwt beam="1">  1        2 0.36830592E+00 0.23020467E+04</pdfrwt>
<pdfrwt beam="2">  1       -2 0.85139845E-01 0.23020467E+04</pdfrwt>
<totfact> 0.43598577E+00</totfact>
</mgrwt>
</event>
<event>
12    1  0.1663913E-007  0.1412527E+04  0.7818608E-02  0.8944800E-01
         -1   -1    0    0    0  501 -0.00000000000E+00  0.00000000000E+00  0.59713153026E+03  0.59713153026E+03  0.00000000000E+00 0.  1.
          1   -1    0    0  501    0  0.00000000000E+00 -0.00000000000E+00 -0.83534087847E+03  0.83534087847E+03  0.00000000000E+00 0. -1.
         23    2    1    2    0    0 -0.40622353022E+02 -0.40705735550E+03 -0.17186185547E+03  0.45304809095E+03  0.91488846954E+02 0.  0.
        254    2    1    2    0    0  0.40622353022E+02  0.40705735550E+03 -0.66347492735E+02  0.97942431778E+03  0.88742556771E+03 0.  0.
        -24    2    4    4    0    0  0.18595762082E+03 -0.12909449088E+03 -0.28960361159E+03  0.37537595762E+03  0.76100153710E+02 0.  0.
         24    2    4    4    0    0 -0.14533526780E+03  0.53615184638E+03  0.22325611885E+03  0.60404836016E+03  0.80311794641E+02 0.  0.
         11    1    3    3    0    0 -0.52202158278E+02 -0.37545031296E+03 -0.17809426615E+03  0.41881448216E+03  0.00000000000E+00 0. -1.
        -11    1    3    3    0    0  0.11579805255E+02 -0.31607042539E+02  0.62324106837E+01  0.34233608789E+02  0.00000000000E+00 0.  1.
          2    1    6    6  502    0 -0.13674503847E+03  0.47865678478E+03  0.22406612635E+03  0.54590947248E+03  0.00000000000E+00 0. -1.
          1    1    5    5  503    0  0.14951306877E+03 -0.64710211594E+02 -0.22035806681E+03  0.27404241793E+03  0.00000000000E+00 0. -1.
         -2    1    5    5    0  503  0.36444552053E+02 -0.64384279286E+02 -0.69245544775E+02  0.10133353968E+03  0.00000000000E+00 0.  1.
         -1    1    6    6    0  502 -0.85902293289E+01  0.57495061602E+02 -0.81000749863E+00  0.58138887680E+02  0.00000000000E+00 0.  1.
<mgrwt>
<rscale>  0 0.14125273E+04</rscale>
<asrwt>0</asrwt>
<pdfrwt beam="1">  1        1 0.12851398E+00 0.14125273E+04</pdfrwt>
<pdfrwt beam="2">  1       -1 0.91866389E-01 0.14125273E+04</pdfrwt>
<totfact> 0.23180982E+01</totfact>
</mgrwt>
</event>
<event>
12    1  0.1663913E-007  0.2222069E+04  0.7818608E-02  0.8509298E-01
         -2   -1    0    0    0  501 -0.00000000000E+00  0.00000000000E+00  0.32806849758E+03  0.32806849758E+03  0.00000000000E+00 0.  1.
          2   -1    0    0  501    0  0.00000000000E+00 -0.00000000000E+00 -0.37626227674E+04  0.37626227674E+04  0.00000000000E+00 0. -1.
         23    2    1    2    0    0  0.38068359713E+02  0.77878692128E+03 -0.23467733522E+04  0.24750526651E+04  0.10287011152E+03 0.  0.
        254    2    1    2    0    0 -0.38068359713E+02 -0.77878692128E+03 -0.10877809176E+04  0.16156385999E+04  0.90502071349E+03 0.  0.
        -24    2    4    4    0    0 -0.18935638262E+02  0.19285288173E+03 -0.27892924783E+03  0.34882560038E+03  0.79542327087E+02 0.  0.
         24    2    4    4    0    0 -0.19132721451E+02 -0.97163980301E+03 -0.80885166981E+03  0.12668129995E+04  0.78257166519E+02 0.  0.
         11    1    3    3    0    0  0.37255602405E+02  0.13089409474E+03 -0.48688831943E+03  0.50555066962E+03  0.00000000000E+00 0.  1.
        -11    1    3    3    0    0  0.81275730737E+00  0.64789282654E+03 -0.18598850327E+04  0.19695019955E+04  0.00000000000E+00 0. -1.
          4    1    6    6  502    0 -0.16742745350E+02 -0.43399314768E+03 -0.41111383897E+03  0.59803424680E+03  0.00000000000E+00 0. -1.
          3    1    5    5  503    0  0.29556412744E+02  0.93074738532E+02 -0.11474105390E+03  0.15067182197E+03  0.00000000000E+00 0. -1.
         -4    1    5    5    0  503 -0.48492051006E+02  0.99778143194E+02 -0.16418819393E+03  0.19815377840E+03  0.00000000000E+00 0.  1.
         -3    1    6    6    0  502 -0.23899761001E+01 -0.53764665532E+03 -0.39773783084E+03  0.66877875269E+03  0.00000000000E+00 0.  1.
<mgrwt>
<rscale>  0 0.22220693E+04</rscale>
<asrwt>0</asrwt>
<pdfrwt beam="1">  1        2 0.57886505E+00 0.22220693E+04</pdfrwt>
<pdfrwt beam="2">  1       -2 0.50472076E-01 0.22220693E+04</pdfrwt>
<totfact> 0.17842480E+00</totfact>
</mgrwt>
</event>
<event>
12    1  0.1663913E-007  0.3206769E+04  0.7818608E-02  0.8187032E-01
         -1   -1    0    0    0  501 -0.00000000000E+00  0.00000000000E+00  0.20802863876E+04  0.20802863876E+04  0.00000000000E+00 0.  1.
          1   -1    0    0  501    0  0.00000000000E+00 -0.00000000000E+00 -0.12358117816E+04  0.12358117816E+04  0.00000000000E+00 0. -1.
         23    2    1    2    0    0  0.71788264578E+03  0.10314670248E+03  0.17135210542E+04  0.18628837908E+04  0.90481376996E+02 0.  0.
        254    2    1    2    0    0 -0.71788264578E+03 -0.10314670248E+03 -0.86904644818E+03  0.14532143783E+04  0.91137015798E+03 0.  0.
        -24    2    4    4    0    0 -0.23825077856E+03 -0.50027488102E+02  0.16821164431E+03  0.30633690948E+03  0.79252519063E+02 0.  0.
         24    2    4    4    0    0 -0.47963186722E+03 -0.53119214376E+02 -0.10372580925E+04  0.11468774688E+04  0.80964183765E+02 0.  0.
         11    1    3    3    0    0  0.17109275320E+03  0.53617763131E+02  0.49193668934E+03  0.52359268619E+03  0.00000000000E+00 0. -1.
        -11    1    3    3    0    0  0.54678989258E+03  0.49528939348E+02  0.12215843649E+04  0.13392911046E+04  0.00000000000E+00 0.  1.
          4    1    6    6  502    0 -0.40039334593E+03 -0.17715161553E+02 -0.81324582651E+03  0.90664074073E+03  0.00000000000E+00 0. -1.
          3    1    5    5  503    0 -0.76188578860E+01  0.56923984318E+01 -0.66421362443E+01  0.11600360739E+02  0.00000000000E+00 0. -1.
         -4    1    5    5    0  503 -0.23063192067E+03 -0.55719886534E+02  0.17485378056E+03  0.29473654874E+03  0.00000000000E+00 0.  1.
         -3    1    6    6    0  502 -0.79238521292E+02 -0.35404052823E+02 -0.22401226598E+03  0.24023672809E+03  0.00000000000E+00 0.  1.
<mgrwt>
<rscale>  0 0.32067694E+04</rscale>
<asrwt>0</asrwt>
<pdfrwt beam="1">  1        1 0.19012489E+00 0.32067694E+04</pdfrwt>
<pdfrwt beam="2">  1       -1 0.32004406E+00 0.32067694E+04</pdfrwt>
<totfact> 0.20574509E-01</totfact>
</mgrwt>
</event>
<event>
12    1  0.1663913E-007  0.1271570E+04  0.7818608E-02  0.9052419E-01
         -2   -1    0    0    0  501 -0.00000000000E+00  0.00000000000E+00  0.60356147717E+03  0.60356147717E+03  0.00000000000E+00 0.  1.
          2   -1    0    0  501    0  0.00000000000E+00 -0.00000000000E+00 -0.66972905435E+03  0.66972905435E+03  0.00000000000E+00 0. -1.
         23    2    1    2    0    0 -0.22862018686E+03  0.19350073028E+03 -0.31584474493E+02  0.32279241516E+03  0.11613630697E+03 0.  0.
        254    2    1    2    0    0  0.22862018686E+03 -0.19350073028E+03 -0.34583102685E+02  0.95049811635E+03  0.90141053673E+03 0.  0.
        -24    2    4    4    0    0  0.18112150109E+03  0.26337577715E+03  0.24047639200E+03  0.40930794541E+03  0.86788829462E+02 0.  0.
         24    2    4    4    0    0  0.47498685778E+02 -0.45687650743E+03 -0.27505949468E+03  0.54119017094E+03  0.78973459580E+02 0.  0.
         13    1    3    3    0    0 -0.13714747454E+03  0.17465414992E+03 -0.49937669529E+02  0.22761211017E+03  0.00000000000E+00 0. -1.
        -13    1    3    3    0    0 -0.91472712325E+02  0.18846580363E+02  0.18353195035E+02  0.95180304998E+02  0.00000000000E+00 0.  1.
          2    1    6    6  502    0  0.12957763099E+02 -0.24951010998E+03 -0.19222406913E+03  0.31523529523E+03  0.00000000000E+00 0. -1.
          3    1    5    5  503    0  0.12164169372E+03  0.10207905889E+03  0.12675903565E+03  0.20318634067E+03  0.00000000000E+00 0. -1.
         -4    1    5    5    0  503  0.59479807365E+02  0.16129671826E+03  0.11371735635E+03  0.20612160474E+03  0.00000000000E+00 0.  1.
         -1    1    6    6    0  502  0.34540922679E+02 -0.20736639746E+03 -0.82835425552E+02  0.22595487572E+03  0.00000000000E+00 0.  1.
<mgrwt>
<rscale>  0 0.12715701E+04</rscale>
<asrwt>0</asrwt>
<pdfrwt beam="1">  1        2 0.10303524E+00 0.12715701E+04</pdfrwt>
<pdfrwt beam="2">  1       -2 0.92855612E-01 0.12715701E+04</pdfrwt>
<totfact> 0.41834552E+01</totfact>
</mgrwt>
</event>
<event>
12    1  0.1663913E-007  0.4526344E+04  0.7818608E-02  0.7906041E-01
          2   -1    0    0  501    0  0.00000000000E+00  0.00000000000E+00  0.20325411616E+04  0.20325411616E+04  0.00000000000E+00 0. -1.
         -2   -1    0    0    0  501 -0.00000000000E+00 -0.00000000000E+00 -0.25199722724E+04  0.25199722724E+04  0.00000000000E+00 0.  1.
         23    2    1    2    0    0  0.19035108522E+04 -0.96764536611E+03 -0.67150052654E+03  0.22402642184E+04  0.90441650058E+02 0.  0.
        254    2    1    2    0    0 -0.19035108522E+04  0.96764536611E+03  0.18406941579E+03  0.23122492156E+04  0.86771179893E+03 0.  0.
        -24    2    4    4    0    0 -0.15458186858E+04  0.73830322784E+03  0.48854314053E+03  0.17831914621E+04  0.80313913055E+02 0.  0.
         24    2    4    4    0    0 -0.35769216640E+03  0.22934213828E+03 -0.30447372474E+03  0.52905775349E+03  0.81586488897E+02 0.  0.
         11    1    3    3    0    0  0.51688103800E+03 -0.23049574266E+03 -0.14901767881E+03  0.58523547690E+03  0.00000000000E+00 0. -1.
        -11    1    3    3    0    0  0.13866298142E+04 -0.73714962345E+03 -0.52248284773E+03  0.16550287415E+04  0.00000000000E+00 0.  1.
          4    1    6    6  502    0 -0.19197135528E+03  0.12770125680E+03 -0.21421301464E+03  0.31471864877E+03  0.00000000000E+00 0. -1.
          1    1    5    5  503    0 -0.13592884352E+04  0.62122943011E+03  0.41628920575E+03  0.15514147601E+04  0.00000000000E+00 0. -1.
         -2    1    5    5    0  503 -0.18653025060E+03  0.11707379772E+03  0.72253934778E+02  0.23177670200E+03  0.00000000000E+00 0.  1.
         -3    1    6    6    0  502 -0.16572081112E+03  0.10164088147E+03 -0.90260710098E+02  0.21433910472E+03  0.00000000000E+00 0.  1.
<mgrwt>
<rscale>  0 0.45263439E+04</rscale>
<asrwt>0</asrwt>
<pdfrwt beam="1">  1        2 0.31269864E+00 0.45263439E+04</pdfrwt>
<pdfrwt beam="2">  1       -2 0.38768804E+00 0.45263439E+04</pdfrwt>
<totfact> 0.43262058E-02</totfact>
</mgrwt>
</event>
<event>
12    1  0.1663913E-007  0.2166152E+04  0.7818608E-02  0.8532650E-01
         -2   -1    0    0    0  501 -0.00000000000E+00  0.00000000000E+00  0.83088299152E+03  0.83088299152E+03  0.00000000000E+00 0. -1.
          2   -1    0    0  501    0  0.00000000000E+00 -0.00000000000E+00 -0.14118156992E+04  0.14118156992E+04  0.00000000000E+00 0.  1.
         23    2    1    2    0    0  0.39132958453E+03  0.49763668119E+03  0.36525707122E+03  0.73599227599E+03  0.86549361944E+02 0.  0.
        254    2    1    2    0    0 -0.39132958453E+03 -0.49763668119E+03 -0.94618977893E+03  0.15067064148E+04  0.98696910405E+03 0.  0.
        -24    2    4    4    0    0  0.31864279732E+03 -0.25855816841E+03 -0.37497451770E+03  0.56088887143E+03  0.74865736006E+02 0.  0.
         24    2    4    4    0    0 -0.70997238185E+03 -0.23907851278E+03 -0.57121526122E+03  0.94581754333E+03  0.84051367435E+02 0.  0.
         13    1    3    3    0    0  0.28153880642E+03  0.29332997851E+03  0.24571059168E+03  0.47505817610E+03  0.00000000000E+00 0. -1.
        -13    1    3    3    0    0  0.10979077810E+03  0.20430670268E+03  0.11954647954E+03  0.26093409989E+03  0.00000000000E+00 0.  1.
          4    1    6    6  502    0 -0.48404605043E+03 -0.20174620809E+03 -0.38243859552E+03  0.64904652435E+03  0.00000000000E+00 0. -1.
          1    1    5    5  503    0  0.31322642439E+03 -0.26056017815E+03 -0.35599303968E+03  0.54104846703E+03  0.00000000000E+00 0. -1.
         -2    1    5    5    0  503  0.54163729316E+01  0.20020097421E+01 -0.18981478021E+02  0.19840404396E+02  0.00000000000E+00 0.  1.
         -3    1    6    6    0  502 -0.22592633141E+03 -0.37332304689E+02 -0.18877666570E+03  0.29677101899E+03  0.00000000000E+00 0.  1.
<mgrwt>
<rscale>  0 0.21661520E+04</rscale>
<asrwt>0</asrwt>
<pdfrwt beam="1">  1        2 0.21720241E+00 0.21661520E+04</pdfrwt>
<pdfrwt beam="2">  1       -2 0.12782815E+00 0.21661520E+04</pdfrwt>
<totfact> 0.59193438E+00</totfact>
</mgrwt>
</event>
<event>
12    1  0.1663913E-007  0.1712192E+04  0.7818608E-02  0.8754441E-01
          1   -1    0    0  501    0  0.00000000000E+00  0.00000000000E+00  0.10626644312E+04  0.10626644312E+04  0.00000000000E+00 0. -1.
         -1   -1    0    0    0  501 -0.00000000000E+00 -0.00000000000E+00 -0.68968155757E+03  0.68968155757E+03  0.00000000000E+00 0.  1.
         23    2    1    2    0    0 -0.19846566850E+03  0.48010295899E+03 -0.15221001705E+03  0.54914631370E+03  0.92229668546E+02 0.  0.
        254    2    1    2    0    0  0.19846566850E+03 -0.48010295899E+03  0.52519289066E+03  0.12031996750E+04  0.94972333489E+03 0.  0.
        -24    2    4    4    0    0  0.26780576044E+01 -0.72971737674E+03  0.46761625998E+03  0.87098425148E+03  0.86336422297E+02 0.  0.
         24    2    4    4    0    0  0.19578761089E+03  0.24961441776E+03  0.57576630685E+02  0.33221542357E+03  0.80074172634E+02 0.  0.
         11    1    3    3    0    0 -0.16578986084E+03  0.43238999781E+03 -0.10584938627E+03  0.47502787364E+03  0.00000000000E+00 0.  1.
        -11    1    3    3    0    0 -0.32675807656E+02  0.47712961179E+02 -0.46360630780E+02  0.74118440059E+02  0.00000000000E+00 0. -1.
          4    1    6    6  502    0  0.13724055429E+03  0.21299482599E+03  0.68074295696E+02  0.26236591885E+03  0.00000000000E+00 0. -1.
          3    1    5    5  503    0  0.94200382794E+01 -0.72749607039E+03  0.46476759093E+03  0.86333549859E+03  0.00000000000E+00 0. -1.
         -4    1    5    5    0  503 -0.67419806749E+01 -0.22213063526E+01  0.28486690458E+01  0.76487528830E+01  0.00000000000E+00 0.  1.
         -3    1    6    6    0  502  0.58547056604E+02  0.36619591764E+02 -0.10497665011E+02  0.69849504713E+02  0.00000000000E+00 0.  1.
<mgrwt>
<rscale>  0 0.17121916E+04</rscale>
<asrwt>0</asrwt>
<pdfrwt beam="1">  1        1 0.16348684E+00 0.17121916E+04</pdfrwt>
<pdfrwt beam="2">  1       -1 0.10610485E+00 0.17121916E+04</pdfrwt>
<totfact> 0.10690534E+01</totfact>
</mgrwt>
</event>
<event>
12    1  0.1663913E-007  0.2273601E+04  0.7818608E-02  0.8488403E-01
          1   -1    0    0  501    0  0.00000000000E+00  0.00000000000E+00  0.15437433838E+04  0.15437433838E+04  0.00000000000E+00 0. -1.
         -1   -1    0    0    0  501 -0.00000000000E+00 -0.00000000000E+00 -0.83713086414E+03  0.83713086414E+03  0.00000000000E+00 0.  1.
         23    2    1    2    0    0  0.56894202050E+03 -0.65973467093E+03 -0.12078849240E+03  0.88458862367E+03  0.94669501416E+02 0.  0.
        254    2    1    2    0    0 -0.56894202050E+03  0.65973467093E+03  0.82740101205E+03  0.14962856243E+04  0.89181465335E+03 0.  0.
        -24    2    4    4    0    0  0.10617982058E+03  0.38404762589E+03  0.60702305612E+03  0.73057455621E+03  0.80594405935E+02 0.  0.
         24    2    4    4    0    0 -0.67512184109E+03  0.27568704505E+03  0.22037795593E+03  0.76571106806E+03  0.77163133502E+02 0.  0.
         11    1    3    3    0    0  0.46766119316E+03 -0.57590380744E+03 -0.76266033485E+02  0.74578059433E+03  0.00000000000E+00 0. -1.
        -11    1    3    3    0    0  0.10128082734E+03 -0.83830863492E+02 -0.44522458913E+02  0.13880802934E+03  0.00000000000E+00 0.  1.
          4    1    6    6  502    0 -0.27008944692E+03  0.15058061017E+03  0.10108281187E+03  0.32533146843E+03  0.00000000000E+00 0. -1.
          3    1    5    5  503    0  0.61354430430E+02  0.27597482395E+03  0.48596539269E+03  0.56221778029E+03  0.00000000000E+00 0. -1.
         -4    1    5    5    0  503  0.44825390154E+02  0.10807280193E+03  0.12105766344E+03  0.16835677592E+03  0.00000000000E+00 0.  1.
         -3    1    6    6    0  502 -0.40503239417E+03  0.12510643487E+03  0.11929514406E+03  0.44037959963E+03  0.00000000000E+00 0.  1.
<mgrwt>
<rscale>  0 0.22736009E+04</rscale>
<asrwt>0</asrwt>
<pdfrwt beam="1">  1        1 0.23749898E+00 0.22736009E+04</pdfrwt>
<pdfrwt beam="2">  1       -1 0.12878936E+00 0.22736009E+04</pdfrwt>
<totfact> 0.28700873E+00</totfact>
</mgrwt>
</event>
<event>
12    1  0.1663913E-007  0.2211881E+04  0.7818608E-02  0.8513499E-01
          2   -1    0    0  501    0  0.00000000000E+00  0.00000000000E+00  0.96635794577E+03  0.96635794577E+03  0.00000000000E+00 0. -1.
         -2   -1    0    0    0  501 -0.00000000000E+00 -0.00000000000E+00 -0.12656843006E+04  0.12656843006E+04  0.00000000000E+00 0.  1.
         23    2    1    2    0    0 -0.77040958231E+03  0.26037740629E+03  0.30435375078E+03  0.87294146282E+03  0.89823569775E+02 0.  0.
        254    2    1    2    0    0  0.77040958231E+03 -0.26037740629E+03 -0.60368010566E+03  0.13591007836E+04  0.90631007485E+03 0.  0.
        -24    2    4    4    0    0 -0.17288673830E+03  0.87307319073E+02 -0.12155784247E+03  0.24121952307E+03  0.76799459627E+02 0.  0.
         24    2    4    4    0    0  0.94329632061E+03 -0.34768472536E+03 -0.48212226319E+03  0.11178812605E+04  0.80771401182E+02 0.  0.
         13    1    3    3    0    0 -0.66274214718E+03  0.22866343164E+03  0.22812406652E+03  0.73726162815E+03  0.00000000000E+00 0. -1.
        -13    1    3    3    0    0 -0.10766743513E+03  0.31713974653E+02  0.76229684257E+02  0.13567983468E+03  0.00000000000E+00 0.  1.
          2    1    6    6  502    0  0.77748842238E+03 -0.29961912004E+03 -0.36755599200E+03  0.91069054639E+03  0.00000000000E+00 0. -1.
          1    1    5    5  503    0 -0.14358965795E+03  0.63890738391E+02 -0.12858453867E+03  0.20306156679E+03  0.00000000000E+00 0. -1.
         -2    1    5    5    0  503 -0.29297080348E+02  0.23416580683E+02  0.70266961976E+01  0.38157956277E+02  0.00000000000E+00 0.  1.
         -1    1    6    6    0  502  0.16580789822E+03 -0.48065605319E+02 -0.11456627119E+03  0.20719071413E+03  0.00000000000E+00 0.  1.
<mgrwt>
<rscale>  0 0.22118807E+04</rscale>
<asrwt>0</asrwt>
<pdfrwt beam="1">  1        2 0.14867045E+00 0.22118807E+04</pdfrwt>
<pdfrwt beam="2">  1       -2 0.19472066E+00 0.22118807E+04</pdfrwt>
<totfact> 0.34851159E+00</totfact>
</mgrwt>
</event>
<event>
12    1  0.1663913E-007  0.3608928E+04  0.7818608E-02  0.8088450E-01
         -2   -1    0    0    0  501 -0.00000000000E+00  0.00000000000E+00  0.30493290513E+04  0.30493290513E+04  0.00000000000E+00 0.  1.
          2   -1    0    0  501    0  0.00000000000E+00 -0.00000000000E+00 -0.10678053176E+04  0.10678053176E+04  0.00000000000E+00 0. -1.
         23    2    1    2    0    0  0.25558806008E+03 -0.84346284308E+03 -0.71755406667E+03  0.11400365337E+04  0.89691892283E+02 0.  0.
        254    2    1    2    0    0 -0.25558806008E+03  0.84346284308E+03  0.26990778004E+04  0.29770978351E+04  0.89517357146E+03 0.  0.
        -24    2    4    4    0    0 -0.43015356140E+03  0.14425767671E+03  0.60002749202E+03  0.75625517733E+03  0.77759490607E+02 0.  0.
         24    2    4    4    0    0  0.17456550132E+03  0.69920516637E+03  0.20990503084E+04  0.22208426578E+04  0.82273534916E+02 0.  0.
         11    1    3    3    0    0  0.17112383189E+03 -0.66042236210E+03 -0.58567665667E+03  0.89914304111E+03  0.00000000000E+00 0. -1.
        -11    1    3    3    0    0  0.84464228197E+02 -0.18304048098E+03 -0.13187741000E+03  0.24089349263E+03  0.00000000000E+00 0.  1.
          4    1    6    6  502    0  0.89824391977E+02  0.20717428004E+03  0.62621536912E+03  0.66568407839E+03  0.00000000000E+00 0. -1.
          3    1    5    5  503    0 -0.11228828184E+02  0.18986298758E+02  0.19229232595E+02  0.29263108330E+02  0.00000000000E+00 0. -1.
         -4    1    5    5    0  503 -0.41892473322E+03  0.12527137795E+03  0.58079825943E+03  0.72699206900E+03  0.00000000000E+00 0.  1.
         -1    1    6    6    0  502  0.84741109340E+02  0.49203088633E+03  0.14728349393E+04  0.15551585794E+04  0.00000000000E+00 0.  1.
<mgrwt>
<rscale>  0 0.36089277E+04</rscale>
<asrwt>0</asrwt>
<pdfrwt beam="1">  1        2 0.16427774E+00 0.36089277E+04</pdfrwt>
<pdfrwt beam="2">  1       -2 0.46912754E+00 0.36089277E+04</pdfrwt>
<totfact> 0.48229928E-02</totfact>
</mgrwt>
</event>
<event>
12    1  0.1663913E-007  0.1945810E+04  0.7818608E-02  0.8632384E-01
          2   -1    0    0  501    0  0.00000000000E+00  0.00000000000E+00  0.17168862182E+04  0.17168862182E+04  0.00000000000E+00 0. -1.
         -2   -1    0    0    0  501 -0.00000000000E+00 -0.00000000000E+00 -0.55131422858E+03  0.55131422858E+03  0.00000000000E+00 0.  1.
         23    2    1    2    0    0  0.30708412465E+03  0.65286353948E+03  0.86117910478E+03  0.11271879054E+04  0.91606019157E+02 0.  0.
        254    2    1    2    0    0 -0.30708412465E+03 -0.65286353948E+03  0.30439288486E+03  0.11410125414E+04  0.82989344528E+03 0.  0.
        -24    2    4    4    0    0 -0.26664302749E+03 -0.27360350574E+03  0.55377099085E+03  0.67748446470E+03  0.79784128398E+02 0.  0.
         24    2    4    4    0    0 -0.40441097158E+02 -0.37926003374E+03 -0.24937810599E+03  0.46352807671E+03  0.84824422275E+02 0.  0.
         13    1    3    3    0    0  0.30699690592E+03  0.65567291945E+03  0.85992299729E+03  0.11241092646E+04  0.00000000000E+00 0. -1.
        -13    1    3    3    0    0  0.87218724576E-01 -0.28093799705E+01  0.12561074965E+01  0.30786407662E+01  0.00000000000E+00 0.  1.
          4    1    6    6  502    0 -0.17318980398E+02 -0.30341986737E+03 -0.23203698105E+03  0.38236726268E+03  0.00000000000E+00 0. -1.
          1    1    5    5  503    0 -0.15160492412E+03 -0.98902353619E+02  0.26445890112E+03  0.32047502079E+03  0.00000000000E+00 0. -1.
         -2    1    5    5    0  503 -0.11503810337E+03 -0.17470115212E+03  0.28931208973E+03  0.35700944392E+03  0.00000000000E+00 0.  1.
         -3    1    6    6    0  502 -0.23122116760E+02 -0.75840166373E+02 -0.17341124942E+02  0.81160814025E+02  0.00000000000E+00 0.  1.
<mgrwt>
<rscale>  0 0.19458097E+04</rscale>
<asrwt>0</asrwt>
<pdfrwt beam="1">  1        2 0.26413634E+00 0.19458097E+04</pdfrwt>
<pdfrwt beam="2">  1       -2 0.84817575E-01 0.19458097E+04</pdfrwt>
<totfact> 0.10842734E+01</totfact>
</mgrwt>
</event>
<event>
12    1  0.1663913E-007  0.1920923E+04  0.7818608E-02  0.8644511E-01
         -1   -1    0    0    0  501 -0.00000000000E+00  0.00000000000E+00  0.25731034424E+04  0.25731034424E+04  0.00000000000E+00 0.  1.
          1   -1    0    0  501    0  0.00000000000E+00 -0.00000000000E+00 -0.35851097525E+03  0.35851097525E+03  0.00000000000E+00 0. -1.
         23    2    1    2    0    0  0.67101692688E+03 -0.34551015695E+02  0.37251358138E+03  0.77234257018E+03  0.79304404377E+02 0.  0.
        254    2    1    2    0    0 -0.67101692688E+03  0.34551015695E+02  0.18420788858E+04  0.21592718475E+04  0.90429132535E+03 0.  0.
        -24    2    4    4    0    0 -0.32715078377E+03  0.45916666692E+03  0.83260779248E+03  0.10086269024E+04  0.78935599539E+02 0.  0.
         24    2    4    4    0    0 -0.34386614311E+03 -0.42461565122E+03  0.10094710933E+04  0.11506449451E+04  0.80059513865E+02 0.  0.
         11    1    3    3    0    0  0.36180850216E+03  0.14155222315E+02  0.22505416158E+03  0.42632750111E+03  0.00000000000E+00 0. -1.
        -11    1    3    3    0    0  0.30920842472E+03 -0.48706238010E+02  0.14745941980E+03  0.34601506907E+03  0.00000000000E+00 0.  1.
          4    1    6    6  502    0 -0.85286220453E+02 -0.58423430967E+02  0.16957164936E+03  0.19859904570E+03  0.00000000000E+00 0. -1.
          1    1    5    5  503    0 -0.31892267045E+02  0.22884639730E+02  0.34078159434E+02  0.51982154469E+02  0.00000000000E+00 0. -1.
         -2    1    5    5    0  503 -0.29525851672E+03  0.43628202719E+03  0.79852963305E+03  0.95664474796E+03  0.00000000000E+00 0.  1.
         -3    1    6    6    0  502 -0.25857992266E+03 -0.36619222026E+03  0.83989944397E+03  0.95204589939E+03  0.00000000000E+00 0.  1.
<mgrwt>
<rscale>  0 0.19209225E+04</rscale>
<asrwt>0</asrwt>
<pdfrwt beam="1">  1        1 0.55155536E-01 0.19209225E+04</pdfrwt>
<pdfrwt beam="2">  1       -1 0.39586206E+00 0.19209225E+04</pdfrwt>
<totfact> 0.49588451E-01</totfact>
</mgrwt>
</event>
<event>
12    1  0.1663913E-007  0.1683913E+04  0.7818608E-02  0.8770593E-01
          1   -1    0    0  501    0  0.00000000000E+00  0.00000000000E+00  0.31525667266E+03  0.31525667266E+03  0.00000000000E+00 0. -1.
         -1   -1    0    0    0  501 -0.00000000000E+00 -0.00000000000E+00 -0.22486147843E+04  0.22486147843E+04  0.00000000000E+00 0.  1.
         23    2    1    2    0    0 -0.23158539123E+03  0.52701162322E+03 -0.50000405264E+03  0.76796861241E+03  0.91644380896E+02 0.  0.
        254    2    1    2    0    0  0.23158539123E+03 -0.52701162322E+03 -0.14333540590E+04  0.17959028446E+04  0.91618236404E+03 0.  0.
        -24    2    4    4    0    0 -0.27782143033E+02 -0.30088415969E+03  0.73155068475E+01  0.31246899909E+03  0.79247925730E+02 0.  0.
         24    2    4    4    0    0  0.25936753427E+03 -0.22612746354E+03 -0.14406695659E+04  0.14834338455E+04  0.81498639771E+02 0.  0.
         11    1    3    3    0    0 -0.11047521697E+03  0.28466090142E+03 -0.20696689420E+03  0.36887924536E+03  0.00000000000E+00 0. -1.
        -11    1    3    3    0    0 -0.12111017427E+03  0.24235072180E+03 -0.29303715844E+03  0.39908936705E+03  0.00000000000E+00 0.  1.
          4    1    6    6  502    0  0.48394617182E+02 -0.74522592813E+01 -0.23683178968E+03  0.24184059160E+03  0.00000000000E+00 0. -1.
          1    1    5    5  503    0  0.16120015526E+02 -0.36095350986E+02 -0.16864544616E+02  0.42978391413E+02  0.00000000000E+00 0. -1.
         -4    1    5    5    0  503 -0.43902158559E+02 -0.26478880870E+03  0.24180051464E+02  0.26949060768E+03  0.00000000000E+00 0.  1.
         -1    1    6    6    0  502  0.21097291709E+03 -0.21867520426E+03 -0.12038377762E+04  0.12415932539E+04  0.00000000000E+00 0.  1.
<mgrwt>
<rscale>  0 0.16839131E+04</rscale>
<asrwt>0</asrwt>
<pdfrwt beam="1">  1        1 0.48501026E-01 0.16839131E+04</pdfrwt>
<pdfrwt beam="2">  1       -1 0.34594074E+00 0.16839131E+04</pdfrwt>
<totfact> 0.12983297E+00</totfact>
</mgrwt>
</event>
<event>
12    1  0.1663913E-007  0.1873426E+04  0.7818608E-02  0.8668198E-01
          2   -1    0    0  501    0  0.00000000000E+00  0.00000000000E+00  0.32837820591E+03  0.32837820591E+03  0.00000000000E+00 0. -1.
         -2   -1    0    0    0  501 -0.00000000000E+00 -0.00000000000E+00 -0.26720141930E+04  0.26720141930E+04  0.00000000000E+00 0.  1.
         23    2    1    2    0    0  0.66202672033E+03 -0.87066635609E+02 -0.13407314270E+04  0.15005402865E+04  0.90556139844E+02 0.  0.
        254    2    1    2    0    0 -0.66202672033E+03  0.87066635609E+02 -0.10029045600E+04  0.14998521124E+04  0.89324063113E+03 0.  0.
        -24    2    4    4    0    0  0.27359115813E+02  0.18655176783E+03  0.71237949847E+02  0.21708123919E+03  0.80618457007E+02 0.  0.
         24    2    4    4    0    0 -0.68938583614E+03 -0.99485132221E+02 -0.10741425099E+04  0.12827708732E+04  0.81048498189E+02 0.  0.
         13    1    3    3    0    0  0.64969575034E+03 -0.75846946148E+02 -0.13247948113E+04  0.14774771129E+04  0.00000000000E+00 0.  1.
        -13    1    3    3    0    0  0.12330969982E+02 -0.11219689461E+02 -0.15936615741E+02  0.23063173537E+02  0.00000000000E+00 0. -1.
          2    1    6    6  502    0 -0.31161980812E+03 -0.44373910092E+01 -0.47099808357E+03  0.56477056402E+03  0.00000000000E+00 0. -1.
          1    1    5    5  503    0  0.12428206931E+02  0.13803829619E+03  0.12065917734E+02  0.13912087519E+03  0.00000000000E+00 0. -1.
         -2    1    5    5    0  503  0.14930908882E+02  0.48513471643E+02  0.59172032113E+02  0.77960364001E+02  0.00000000000E+00 0.  1.
         -1    1    6    6    0  502 -0.37776602801E+03 -0.95047741212E+02 -0.60314442631E+03  0.71800030920E+03  0.00000000000E+00 0.  1.
<mgrwt>
<rscale>  0 0.18734260E+04</rscale>
<asrwt>0</asrwt>
<pdfrwt beam="1">  1        2 0.50519726E-01 0.18734260E+04</pdfrwt>
<pdfrwt beam="2">  1       -2 0.41107909E+00 0.18734260E+04</pdfrwt>
<totfact> 0.58713463E-01</totfact>
</mgrwt>
</event>
<event>
12    1  0.1663913E-007  0.4042604E+04  0.7818608E-02  0.7996007E-01
         -2   -1    0    0    0  501 -0.00000000000E+00  0.00000000000E+00  0.17316964886E+04  0.17316964886E+04  0.00000000000E+00 0.  1.
          2   -1    0    0  501    0  0.00000000000E+00 -0.00000000000E+00 -0.23593408772E+04  0.23593408772E+04  0.00000000000E+00 0. -1.
         23    2    1    2    0    0 -0.18881605956E+04  0.38707005214E+03 -0.41043477205E+03  0.19727460718E+04  0.91086231101E+02 0.  0.
        254    2    1    2    0    0  0.18881605956E+04 -0.38707005214E+03 -0.21720961653E+03  0.21182912940E+04  0.85147186020E+03 0.  0.
        -24    2    4    4    0    0  0.15668183629E+04  0.18247909705E+02 -0.26954284499E+03  0.15919815710E+04  0.80617669394E+02 0.  0.
         24    2    4    4    0    0  0.32134223274E+03 -0.40531796184E+03  0.52333228461E+02  0.52630972304E+03  0.81973636183E+02 0.  0.
         11    1    3    3    0    0 -0.34255775827E+03  0.74205514512E+02 -0.39199651666E+02  0.35268808999E+03  0.00000000000E+00 0.  1.
        -11    1    3    3    0    0 -0.15456028373E+04  0.31286453763E+03 -0.37123512038E+03  0.16200579818E+04  0.00000000000E+00 0. -1.
          4    1    6    6  502    0  0.30284765411E+03 -0.39349801789E+03  0.65293464464E+02  0.50081995586E+03  0.00000000000E+00 0. -1.
          3    1    5    5  503    0  0.66962372703E+03  0.42387884636E+02 -0.95161625473E+02  0.67767868753E+03  0.00000000000E+00 0. -1.
         -4    1    5    5    0  503  0.89719463583E+03 -0.24139974931E+02 -0.17438121952E+03  0.91430288344E+03  0.00000000000E+00 0.  1.
         -3    1    6    6    0  502  0.18494578629E+02 -0.11819943955E+02 -0.12960236003E+02  0.25489767183E+02  0.00000000000E+00 0.  1.
<mgrwt>
<rscale>  0 0.40426043E+04</rscale>
<asrwt>0</asrwt>
<pdfrwt beam="1">  1        2 0.36297552E+00 0.40426043E+04</pdfrwt>
<pdfrwt beam="2">  1       -2 0.26641485E+00 0.40426043E+04</pdfrwt>
<totfact> 0.16809628E-01</totfact>
</mgrwt>
</event>
<event>
12    1  0.1663913E-007  0.1287975E+04  0.7818608E-02  0.9039156E-01
         -4   -1    0    0    0  501 -0.00000000000E+00  0.00000000000E+00  0.75827034849E+03  0.75827034849E+03  0.00000000000E+00 0.  1.
          4   -1    0    0  501    0  0.00000000000E+00 -0.00000000000E+00 -0.54692893642E+03  0.54692893642E+03  0.00000000000E+00 0. -1.
         23    2    1    2    0    0 -0.35764391149E+01  0.10799402377E+03  0.35995183376E+03  0.38669773853E+03  0.91073147924E+02 0.  0.
        254    2    1    2    0    0  0.35764391149E+01 -0.10799402377E+03 -0.14861042169E+03  0.91850154638E+03  0.89993584948E+03 0.  0.
        -24    2    4    4    0    0  0.57702599733E+02  0.37075565636E+03  0.57672262934E+02  0.38762576751E+03  0.78347297224E+02 0.  0.
         24    2    4    4    0    0 -0.54126160618E+02 -0.47874968013E+03 -0.20628268463E+03  0.53087577888E+03  0.84531941473E+02 0.  0.
         11    1    3    3    0    0  0.38800569858E+02  0.20421065106E+02  0.10294866262E+03  0.11189696715E+03  0.00000000000E+00 0. -1.
        -11    1    3    3    0    0 -0.42377008973E+02  0.87572958666E+02  0.25700317114E+03  0.27480077139E+03  0.00000000000E+00 0.  1.
          4    1    6    6  502    0  0.18560066221E+02 -0.36248837236E+02 -0.17767141702E+02  0.44431133042E+02  0.00000000000E+00 0. -1.
          1    1    5    5  503    0  0.13357021832E+02  0.16784973857E+03 -0.11348409727E+02  0.16876235117E+03  0.00000000000E+00 0. -1.
         -4    1    5    5    0  503  0.44345577900E+02  0.20290591779E+03  0.69020672661E+02  0.21886341633E+03  0.00000000000E+00 0.  1.
         -3    1    6    6    0  502 -0.72686226838E+02 -0.44250084290E+03 -0.18851554292E+03  0.48644464583E+03  0.00000000000E+00 0.  1.
<mgrwt>
<rscale>  0 0.12879751E+04</rscale>
<asrwt>0</asrwt>
<pdfrwt beam="1">  1        4 0.84142913E-01 0.12879751E+04</pdfrwt>
<pdfrwt beam="2">  1       -4 0.11665698E+00 0.12879751E+04</pdfrwt>
<totfact> 0.13749989E+00</totfact>
</mgrwt>
</event>
<event>
12    1  0.1663913E-007  0.1290055E+04  0.7818608E-02  0.9037489E-01
         -2   -1    0    0    0  501 -0.00000000000E+00  0.00000000000E+00  0.15081702976E+03  0.15081702976E+03  0.00000000000E+00 0.  1.
          2   -1    0    0  501    0  0.00000000000E+00 -0.00000000000E+00 -0.27587086807E+04  0.27587086807E+04  0.00000000000E+00 0. -1.
         23    2    1    2    0    0  0.91324290483E+02 -0.21170990416E+03 -0.92460283304E+03  0.95731471841E+03  0.91650759212E+02 0.  0.
        254    2    1    2    0    0 -0.91324290483E+02  0.21170990416E+03 -0.16832888179E+04  0.19522109921E+04  0.96151198821E+03 0.  0.
        -24    2    4    4    0    0  0.31509535287E+03 -0.21626191692E+03 -0.60277043785E+03  0.71834409267E+03  0.81435475157E+02 0.  0.
         24    2    4    4    0    0 -0.40641964335E+03  0.42797182108E+03 -0.10805183801E+04  0.12338668994E+04  0.81060160567E+02 0.  0.
         13    1    3    3    0    0  0.53598961540E+00 -0.11499951681E+03 -0.40021657832E+03  0.41641143802E+03  0.00000000000E+00 0.  1.
        -13    1    3    3    0    0  0.90788300868E+02 -0.96710387347E+02 -0.52438625472E+03  0.54090328039E+03  0.00000000000E+00 0. -1.
          4    1    6    6  502    0 -0.30356149150E+03  0.33873040388E+03 -0.89242485495E+03  0.10016536264E+04  0.00000000000E+00 0. -1.
          1    1    5    5  503    0  0.24596208127E+03 -0.15638034691E+03 -0.39112418538E+03  0.48778098232E+03  0.00000000000E+00 0. -1.
         -2    1    5    5    0  503  0.69133271598E+02 -0.59881570010E+02 -0.21164625247E+03  0.23056311035E+03  0.00000000000E+00 0.  1.
         -3    1    6    6    0  502 -0.10285815185E+03  0.89241417203E+02 -0.18809352512E+03  0.23221327296E+03  0.00000000000E+00 0.  1.
<mgrwt>
<rscale>  0 0.12900546E+04</rscale>
<asrwt>0</asrwt>
<pdfrwt beam="1">  1        2 0.42441668E+00 0.12900546E+04</pdfrwt>
<pdfrwt beam="2">  1       -2 0.23202622E-01 0.12900546E+04</pdfrwt>
<totfact> 0.39750476E+01</totfact>
</mgrwt>
</event>
<event>
12    1  0.1663913E-007  0.2550042E+04  0.7818608E-02  0.8385371E-01
         -2   -1    0    0    0  501 -0.00000000000E+00  0.00000000000E+00  0.21697616573E+04  0.21697616573E+04  0.00000000000E+00 0.  1.
          2   -1    0    0  501    0  0.00000000000E+00 -0.00000000000E+00 -0.74924316524E+03  0.74924316524E+03  0.00000000000E+00 0. -1.
         23    2    1    2    0    0  0.86480404841E+03  0.18077022292E+03 -0.15868231220E+03  0.90212856163E+03  0.89955265855E+02 0.  0.
        254    2    1    2    0    0 -0.86480404841E+03 -0.18077022292E+03  0.15792008042E+04  0.20168762609E+04  0.89070239474E+03 0.  0.
        -24    2    4    4    0    0 -0.22286778067E+03  0.15946547382E+03  0.11144438588E+04  0.11502030604E+04  0.76698636274E+02 0.  0.
         24    2    4    4    0    0 -0.64193626774E+03 -0.34023569674E+03  0.46475694543E+03  0.86667320045E+03  0.85328288878E+02 0.  0.
         13    1    3    3    0    0  0.78358041717E+03  0.13822830197E+03 -0.13132248050E+03  0.80644338147E+03  0.00000000000E+00 0. -1.
        -13    1    3    3    0    0  0.81223631244E+02  0.42541920952E+02 -0.27359831708E+02  0.95685180158E+02  0.00000000000E+00 0.  1.
          4    1    6    6  502    0 -0.57233833048E+03 -0.32230564569E+03  0.39474806950E+03  0.76634074155E+03  0.00000000000E+00 0. -1.
          1    1    5    5  503    0 -0.18908583630E+03  0.15132261978E+03  0.86185766706E+03  0.89523774888E+03  0.00000000000E+00 0. -1.
         -2    1    5    5    0  503 -0.33781944372E+02  0.81428540349E+01  0.25258619173E+03  0.25496531155E+03  0.00000000000E+00 0.  1.
         -3    1    6    6    0  502 -0.69597937255E+02 -0.17930051054E+02  0.70008875930E+02  0.10033245891E+03  0.00000000000E+00 0.  1.
<mgrwt>
<rscale>  0 0.25500424E+04</rscale>
<asrwt>0</asrwt>
<pdfrwt beam="1">  1        2 0.11526818E+00 0.25500424E+04</pdfrwt>
<pdfrwt beam="2">  1       -2 0.33380948E+00 0.25500424E+04</pdfrwt>
<totfact> 0.65575570E-01</totfact>
</mgrwt>
</event>
<event>
12    1  0.1663913E-007  0.1940979E+04  0.7818608E-02  0.8634723E-01
         -2   -1    0    0    0  501 -0.00000000000E+00  0.00000000000E+00  0.87030418098E+03  0.87030418098E+03  0.00000000000E+00 0.  1.
          2   -1    0    0  501    0  0.00000000000E+00 -0.00000000000E+00 -0.10822076119E+04  0.10822076119E+04  0.00000000000E+00 0. -1.
         23    2    1    2    0    0  0.39247009717E+03  0.10572460818E+03  0.56752703005E+03  0.70345110486E+03  0.86868044385E+02 0.  0.
        254    2    1    2    0    0 -0.39247009717E+03 -0.10572460818E+03 -0.77943046102E+03  0.12490606881E+04  0.88737268888E+03 0.  0.
        -24    2    4    4    0    0  0.14932599217E+03 -0.12357439467E+03  0.84087035191E+02  0.22594704532E+03  0.80078429331E+02 0.  0.
         24    2    4    4    0    0 -0.54179608935E+03  0.17849786487E+02 -0.86351749621E+03  0.10231136428E+04  0.85073159192E+02 0.  0.
         13    1    3    3    0    0  0.28797209813E+03  0.37681682580E+02  0.41281445178E+03  0.50474113177E+03  0.00000000000E+00 0.  1.
        -13    1    3    3    0    0  0.10449799904E+03  0.68042925600E+02  0.15471257828E+03  0.19870997309E+03  0.00000000000E+00 0. -1.
          2    1    6    6  502    0 -0.22672423811E+03  0.68323251989E+01 -0.44127881259E+03  0.49616282736E+03  0.00000000000E+00 0. -1.
          1    1    5    5  503    0  0.39522664345E+01  0.14348187440E+01  0.24951794096E+02  0.25303579656E+02  0.00000000000E+00 0. -1.
         -2    1    5    5    0  503  0.14537372574E+03 -0.12500921341E+03  0.59135241095E+02  0.20064346566E+03  0.00000000000E+00 0.  1.
         -1    1    6    6    0  502 -0.31507185124E+03  0.11017461288E+02 -0.42223868362E+03  0.52695081539E+03  0.00000000000E+00 0.  1.
<mgrwt>
<rscale>  0 0.19409789E+04</rscale>
<asrwt>0</asrwt>
<pdfrwt beam="1">  1        2 0.16649348E+00 0.19409789E+04</pdfrwt>
<pdfrwt beam="2">  1       -2 0.13389295E+00 0.19409789E+04</pdfrwt>
<totfact> 0.84051305E+00</totfact>
</mgrwt>
</event>
<event>
12    1  0.1663913E-007  0.1528652E+04  0.7818608E-02  0.8865620E-01
         -2   -1    0    0    0  501 -0.00000000000E+00  0.00000000000E+00  0.12377921122E+04  0.12377921122E+04  0.00000000000E+00 0. -1.
          2   -1    0    0  501    0  0.00000000000E+00 -0.00000000000E+00 -0.47196485839E+03  0.47196485839E+03  0.00000000000E+00 0.  1.
         23    2    1    2    0    0 -0.33936798958E+03 -0.27115670987E+03 -0.11285489201E+02  0.44384168562E+03  0.90396271877E+02 0.  0.
        254    2    1    2    0    0  0.33936798958E+03  0.27115670987E+03  0.77711274301E+03  0.12659152850E+04  0.89996705478E+03 0.  0.
        -24    2    4    4    0    0  0.15336041655E+03  0.95819910236E+02  0.93471200650E+03  0.95565526333E+03  0.83003461805E+02 0.  0.
         24    2    4    4    0    0  0.18600757303E+03  0.17533679964E+03 -0.15759926349E+03  0.31026002163E+03  0.77986810681E+02 0.  0.
         13    1    3    3    0    0 -0.73992379646E+01 -0.17336659587E+02  0.16476337354E+02  0.25035538354E+02  0.00000000000E+00 0. -1.
        -13    1    3    3    0    0 -0.33196875162E+03 -0.25382005028E+03 -0.27761826555E+02  0.41880614727E+03  0.00000000000E+00 0.  1.
          2    1    6    6  502    0  0.10274159002E+03  0.50590013763E+02 -0.46460687632E+02  0.12358713245E+03  0.00000000000E+00 0. -1.
          3    1    5    5  503    0  0.37500882312E+02  0.59451426404E+02  0.47511614209E+03  0.48028755631E+03  0.00000000000E+00 0. -1.
         -4    1    5    5    0  503  0.11585953424E+03  0.36368483831E+02  0.45959586441E+03  0.47536770702E+03  0.00000000000E+00 0.  1.
         -1    1    6    6    0  502  0.83265983014E+02  0.12474678587E+03 -0.11113857586E+03  0.18667288918E+03  0.00000000000E+00 0.  1.
<mgrwt>
<rscale>  0 0.15286522E+04</rscale>
<asrwt>0</asrwt>
<pdfrwt beam="1">  1        2 0.72609979E-01 0.15286522E+04</pdfrwt>
<pdfrwt beam="2">  1       -2 0.19042955E+00 0.15286522E+04</pdfrwt>
<totfact> 0.97633542E+00</totfact>
</mgrwt>
</event>
<event>
12    1  0.1663913E-007  0.1447255E+04  0.7818608E-02  0.8920306E-01
         -2   -1    0    0    0  501 -0.00000000000E+00  0.00000000000E+00  0.19447337618E+03  0.19447337618E+03  0.00000000000E+00 0.  1.
          2   -1    0    0  501    0  0.00000000000E+00 -0.00000000000E+00 -0.26925882858E+04  0.26925882858E+04  0.00000000000E+00 0. -1.
         23    2    1    2    0    0  0.41407850684E+03 -0.51107566991E+02 -0.56747925048E+03  0.71132728991E+03  0.99402315945E+02 0.  0.
        254    2    1    2    0    0 -0.41407850684E+03  0.51107566991E+02 -0.19306356591E+04  0.21757343720E+04  0.91235575091E+03 0.  0.
        -24    2    4    4    0    0  0.15843191771E+03  0.26303981780E+03 -0.31610942535E+03  0.44788106601E+03  0.79885306504E+02 0.  0.
         24    2    4    4    0    0 -0.57251042455E+03 -0.21193225081E+03 -0.16145262338E+04  0.17278533060E+04  0.78093677843E+02 0.  0.
         13    1    3    3    0    0  0.16038220796E+02 -0.14970028779E+02 -0.68997872986E+02  0.72401883709E+02  0.00000000000E+00 0. -1.
        -13    1    3    3    0    0  0.39804028604E+03 -0.36137538212E+02 -0.49848137749E+03  0.63892540620E+03  0.00000000000E+00 0.  1.
          2    1    6    6  502    0 -0.46342816959E+03 -0.18096365008E+03 -0.13893116470E+04  0.14757033454E+04  0.00000000000E+00 0. -1.
          3    1    5    5  503    0  0.12348749089E+03  0.20044259796E+03 -0.18882808485E+03  0.30179867645E+03  0.00000000000E+00 0. -1.
         -4    1    5    5    0  503  0.34944426824E+02  0.62597219842E+02 -0.12728134050E+03  0.14608238955E+03  0.00000000000E+00 0.  1.
         -1    1    6    6    0  502 -0.10908225495E+03 -0.30968600727E+02 -0.22521458678E+03  0.25214996069E+03  0.00000000000E+00 0.  1.
<mgrwt>
<rscale>  0 0.14472550E+04</rscale>
<asrwt>0</asrwt>
<pdfrwt beam="1">  1        2 0.41424436E+00 0.14472550E+04</pdfrwt>
<pdfrwt beam="2">  1       -2 0.29918980E-01 0.14472550E+04</pdfrwt>
<totfact> 0.26949910E+01</totfact>
</mgrwt>
</event>
<event>
12    1  0.1663913E-007  0.1399495E+04  0.7818608E-02  0.8954184E-01
          2   -1    0    0  501    0  0.00000000000E+00  0.00000000000E+00  0.46050695780E+03  0.46050695780E+03  0.00000000000E+00 0. -1.
         -2   -1    0    0    0  501 -0.00000000000E+00 -0.00000000000E+00 -0.10632769446E+04  0.10632769446E+04  0.00000000000E+00 0.  1.
         23    2    1    2    0    0 -0.11939212020E+03  0.10283145354E+03  0.22594166522E+03  0.28972354256E+03  0.89784791750E+02 0.  0.
        254    2    1    2    0    0  0.11939212020E+03 -0.10283145354E+03 -0.82871165206E+03  0.12340603599E+04  0.90072925086E+03 0.  0.
        -24    2    4    4    0    0 -0.33500129547E+03 -0.18657644522E+03 -0.59023193217E+03  0.70808789372E+03  0.77318132371E+02 0.  0.
         24    2    4    4    0    0  0.45439341567E+03  0.83744991683E+02 -0.23847971989E+03  0.52597246616E+03  0.79296018317E+02 0.  0.
         11    1    3    3    0    0 -0.83865863408E+02  0.10181590750E+03  0.21552530878E+03  0.25268779311E+03  0.00000000000E+00 0. -1.
        -11    1    3    3    0    0 -0.35526256796E+02  0.10155460463E+01  0.10416356436E+02  0.37035749447E+02  0.00000000000E+00 0.  1.
          2    1    6    6  502    0  0.50840524726E+02  0.31955261843E+02 -0.15512562711E+02  0.62020458848E+02  0.00000000000E+00 0. -1.
          3    1    5    5  503    0 -0.14606801247E+03 -0.12328459949E+03 -0.31130866068E+03  0.36530540505E+03  0.00000000000E+00 0. -1.
         -4    1    5    5    0  503 -0.18893328300E+03 -0.63291845731E+02 -0.27892327149E+03  0.34278248867E+03  0.00000000000E+00 0.  1.
         -1    1    6    6    0  502  0.40355289095E+03  0.51789729839E+02 -0.22296715717E+03  0.46395200731E+03  0.00000000000E+00 0.  1.
<mgrwt>
<rscale>  0 0.13994948E+04</rscale>
<asrwt>0</asrwt>
<pdfrwt beam="1">  1        2 0.70847225E-01 0.13994948E+04</pdfrwt>
<pdfrwt beam="2">  1       -2 0.16358107E+00 0.13994948E+04</pdfrwt>
<totfact> 0.15612782E+01</totfact>
</mgrwt>
</event>
<event>
12    1  0.1663913E-007  0.1772910E+04  0.7818608E-02  0.8720840E-01
         -2   -1    0    0    0  501 -0.00000000000E+00  0.00000000000E+00  0.85134400246E+03  0.85134400246E+03  0.00000000000E+00 0.  1.
          2   -1    0    0  501    0  0.00000000000E+00 -0.00000000000E+00 -0.92301363221E+03  0.92301363221E+03  0.00000000000E+00 0. -1.
         23    2    1    2    0    0  0.59373988946E+03 -0.25010272428E+02  0.24402066369E+03  0.64871698578E+03  0.90194641063E+02 0.  0.
        254    2    1    2    0    0 -0.59373988946E+03  0.25010272428E+02 -0.31569029345E+03  0.11256406489E+04  0.90236020468E+03 0.  0.
        -24    2    4    4    0    0 -0.69035853238E+03 -0.67486624094E+02 -0.51839009169E+03  0.86959071030E+03  0.79437828567E+02 0.  0.
         24    2    4    4    0    0  0.96618642926E+02  0.92496896522E+02  0.20269979824E+03  0.25604993859E+03  0.81138922953E+02 0.  0.
         11    1    3    3    0    0  0.39237048622E+03 -0.33699030678E+02  0.11844234938E+03  0.41124057831E+03  0.00000000000E+00 0. -1.
        -11    1    3    3    0    0  0.20136940324E+03  0.86887582500E+01  0.12557831431E+03  0.23747640747E+03  0.00000000000E+00 0.  1.
          4    1    6    6  502    0  0.76924244062E+01 -0.14295724643E+02  0.32439480049E+02  0.36274798444E+02  0.00000000000E+00 0. -1.
          3    1    5    5  503    0 -0.61088726554E+03 -0.47738297886E+02 -0.48369595756E+03  0.78065611869E+03  0.00000000000E+00 0. -1.
         -4    1    5    5    0  503 -0.79471266842E+02 -0.19748326208E+02 -0.34694134125E+02  0.88934591606E+02  0.00000000000E+00 0.  1.
         -3    1    6    6    0  502  0.88926218520E+02  0.10679262116E+03  0.17026031819E+03  0.21977514015E+03  0.00000000000E+00 0.  1.
<mgrwt>
<rscale>  0 0.17729096E+04</rscale>
<asrwt>0</asrwt>
<pdfrwt beam="1">  1        2 0.14200210E+00 0.17729096E+04</pdfrwt>
<pdfrwt beam="2">  1       -2 0.13097600E+00 0.17729096E+04</pdfrwt>
<totfact> 0.11406431E+01</totfact>
</mgrwt>
</event>
<event>
12    1  0.1663913E-007  0.1939159E+04  0.7818608E-02  0.8635606E-01
          2   -1    0    0  501    0  0.00000000000E+00  0.00000000000E+00  0.20069070218E+04  0.20069070218E+04  0.00000000000E+00 0.  1.
         -2   -1    0    0    0  501 -0.00000000000E+00 -0.00000000000E+00 -0.46842434684E+03  0.46842434684E+03  0.00000000000E+00 0. -1.
         23    2    1    2    0    0  0.38029852650E+03 -0.65317427389E+03  0.54090331841E+03  0.93357452196E+03  0.87871422338E+02 0.  0.
        254    2    1    2    0    0 -0.38029852650E+03  0.65317427389E+03  0.99757935659E+03  0.15417568467E+04  0.90032549691E+03 0.  0.
        -24    2    4    4    0    0 -0.52028651934E+03  0.15539504359E+03  0.82657894484E+03  0.99208346035E+03  0.78429321521E+02 0.  0.
         24    2    4    4    0    0  0.13998799284E+03  0.49777923030E+03  0.17100041176E+03  0.54967338637E+03  0.74289236147E+02 0.  0.
         11    1    3    3    0    0  0.67978486993E+02 -0.86666758932E+02  0.47324180297E+02  0.11988235833E+03  0.00000000000E+00 0. -1.
        -11    1    3    3    0    0  0.31232003951E+03 -0.56650751496E+03  0.49357913811E+03  0.81369216363E+03  0.00000000000E+00 0.  1.
          2    1    6    6  502    0  0.82263972131E+02  0.39332784248E+03  0.11584390425E+03  0.41820325552E+03  0.00000000000E+00 0. -1.
          3    1    5    5  503    0 -0.28129553847E+03  0.61338155907E+02  0.49542315950E+03  0.57300406308E+03  0.00000000000E+00 0. -1.
         -4    1    5    5    0  503 -0.23899098087E+03  0.94056887682E+02  0.33115578534E+03  0.41907939727E+03  0.00000000000E+00 0.  1.
         -1    1    6    6    0  502  0.57724020708E+02  0.10445138782E+03  0.55156507510E+02  0.13147013085E+03  0.00000000000E+00 0.  1.
<mgrwt>
<rscale>  0 0.19391587E+04</rscale>
<asrwt>0</asrwt>
<pdfrwt beam="1">  1        2 0.30875492E+00 0.19391587E+04</pdfrwt>
<pdfrwt beam="2">  1       -2 0.72065285E-01 0.19391587E+04</pdfrwt>
<totfact> 0.10782413E+01</totfact>
</mgrwt>
</event>
<event>
12    1  0.1663913E-007  0.1512804E+04  0.7818608E-02  0.8875983E-01
         -1   -1    0    0    0  501 -0.00000000000E+00  0.00000000000E+00  0.36958181133E+03  0.36958181133E+03  0.00000000000E+00 0.  1.
          1   -1    0    0  501    0  0.00000000000E+00 -0.00000000000E+00 -0.15480852270E+04  0.15480852270E+04  0.00000000000E+00 0. -1.
         23    2    1    2    0    0  0.32767364171E+03  0.17020893387E+03  0.60010571165E+01  0.38016760632E+03  0.90279009568E+02 0.  0.
        254    2    1    2    0    0 -0.32767364171E+03 -0.17020893387E+03 -0.11845044728E+04  0.15374994320E+04  0.90802674011E+03 0.  0.
        -24    2    4    4    0    0 -0.85828596774E+02  0.17420635135E+03  0.62450816680E+02  0.21896966286E+03  0.79581454334E+02 0.  0.
         24    2    4    4    0    0 -0.24184504493E+03 -0.34441528522E+03 -0.12469552895E+04  0.13185297692E+04  0.80699093842E+02 0.  0.
         13    1    3    3    0    0  0.25802882770E+03  0.94812362908E+02  0.24071350948E+02  0.27594870904E+03  0.00000000000E+00 0.  1.
        -13    1    3    3    0    0  0.69644814008E+02  0.75396570959E+02 -0.18070293832E+02  0.10421889728E+03  0.00000000000E+00 0. -1.
          4    1    6    6  502    0 -0.10777022480E+03 -0.88128051774E+02 -0.39504269765E+03  0.41885523493E+03  0.00000000000E+00 0. -1.
          3    1    5    5  503    0 -0.34238869360E+01 -0.82028373566E+01  0.68781249521E+01  0.11239134544E+02  0.00000000000E+00 0. -1.
         -4    1    5    5    0  503 -0.82404709838E+02  0.18240918871E+03  0.55572691728E+02  0.20773052832E+03  0.00000000000E+00 0.  1.
         -3    1    6    6    0  502 -0.13407482014E+03 -0.25628723344E+03 -0.85191259186E+03  0.89967453425E+03  0.00000000000E+00 0.  1.
<mgrwt>
<rscale>  0 0.15128042E+04</rscale>
<asrwt>0</asrwt>
<pdfrwt beam="1">  1        1 0.23816696E+00 0.15128042E+04</pdfrwt>
<pdfrwt beam="2">  1       -1 0.56858740E-01 0.15128042E+04</pdfrwt>
<totfact> 0.18333801E+01</totfact>
</mgrwt>
</event>
<event>
12    1  0.1663913E-007  0.4107356E+04  0.7818608E-02  0.7983233E-01
         -2   -1    0    0    0  501 -0.00000000000E+00  0.00000000000E+00  0.10396359072E+04  0.10396359072E+04  0.00000000000E+00 0.  1.
          2   -1    0    0  501    0  0.00000000000E+00 -0.00000000000E+00 -0.40567977403E+04  0.40567977403E+04  0.00000000000E+00 0. -1.
         23    2    1    2    0    0  0.12328903865E+03  0.61138154841E+03 -0.37235743643E+04  0.37765884509E+04  0.92880010787E+02 0.  0.
        254    2    1    2    0    0 -0.12328903865E+03 -0.61138154841E+03  0.70641253118E+03  0.13198451966E+04  0.92411313912E+03 0.  0.
        -24    2    4    4    0    0  0.24837151500E+03  0.12107898108E+03  0.19114330748E+03  0.34640412819E+03  0.84329869613E+02 0.  0.
         24    2    4    4    0    0 -0.37166055365E+03 -0.73246052949E+03  0.51526922370E+03  0.97344106837E+03  0.86343189186E+02 0.  0.
         11    1    3    3    0    0  0.12977944935E+03  0.59596366307E+03 -0.36735788821E+04  0.37238685793E+04  0.00000000000E+00 0. -1.
        -11    1    3    3    0    0 -0.64904107072E+01  0.15417885344E+02 -0.49995482164E+02  0.52719871552E+02  0.00000000000E+00 0.  1.
          4    1    6    6  502    0 -0.13982335411E+03 -0.32179571458E+03  0.26401393755E+03  0.43909726884E+03  0.00000000000E+00 0. -1.
          3    1    5    5  503    0 -0.25985677869E+01  0.78024565208E+01 -0.37718569377E+01  0.90475293346E+01  0.00000000000E+00 0. -1.
         -4    1    5    5    0  503  0.25097008279E+03  0.11327652455E+03  0.19491516442E+03  0.33735659885E+03  0.00000000000E+00 0.  1.
         -3    1    6    6    0  502 -0.23183719954E+03 -0.41066481491E+03  0.25125528614E+03  0.53434379954E+03  0.00000000000E+00 0.  1.
<mgrwt>
<rscale>  0 0.41073556E+04</rscale>
<asrwt>0</asrwt>
<pdfrwt beam="1">  1        2 0.62412272E+00 0.41073556E+04</pdfrwt>
<pdfrwt beam="2">  1       -2 0.15994399E+00 0.41073556E+04</pdfrwt>
<totfact> 0.60369494E-02</totfact>
</mgrwt>
</event>
<event>
12    1  0.1663913E-007  0.1744946E+04  0.7818608E-02  0.8736137E-01
         -2   -1    0    0    0  501 -0.00000000000E+00  0.00000000000E+00  0.55867596924E+03  0.55867596924E+03  0.00000000000E+00 0.  1.
          2   -1    0    0  501    0  0.00000000000E+00 -0.00000000000E+00 -0.13625242287E+04  0.13625242287E+04  0.00000000000E+00 0. -1.
         23    2    1    2    0    0 -0.62285439344E+03 -0.12773226720E+03 -0.29410730282E+03  0.70621081709E+03  0.89283173675E+02 0.  0.
        254    2    1    2    0    0  0.62285439344E+03  0.12773226720E+03 -0.50974095660E+03  0.12149893808E+04  0.90116603638E+03 0.  0.
        -24    2    4    4    0    0  0.64687820955E+03  0.38132083396E+03 -0.56249046604E+03  0.94166515404E+03  0.80503053045E+02 0.  0.
         24    2    4    4    0    0 -0.24023816114E+02 -0.25358856676E+03  0.52749509444E+02  0.27332422676E+03  0.83900639171E+02 0.  0.
         13    1    3    3    0    0 -0.25775314356E+02 -0.22627484338E+02 -0.54093030826E+01  0.34722189410E+02  0.00000000000E+00 0. -1.
        -13    1    3    3    0    0 -0.59707907908E+03 -0.10510478286E+03 -0.28869799974E+03  0.67148862768E+03  0.00000000000E+00 0.  1.
          2    1    6    6  502    0  0.81492528642E+01 -0.10324882892E+02  0.22529770898E+02  0.26088390248E+02  0.00000000000E+00 0. -1.
          3    1    5    5  503    0  0.13325250158E+03  0.10708253989E+03 -0.15725167936E+03  0.23227352451E+03  0.00000000000E+00 0. -1.
         -4    1    5    5    0  503  0.51362570797E+03  0.27423829408E+03 -0.40523878668E+03  0.70939162954E+03  0.00000000000E+00 0.  1.
         -1    1    6    6    0  502 -0.32173068978E+02 -0.24326368387E+03  0.30219738546E+02  0.24723583651E+03  0.00000000000E+00 0.  1.
<mgrwt>
<rscale>  0 0.17449465E+04</rscale>
<asrwt>0</asrwt>
<pdfrwt beam="1">  1        2 0.20961911E+00 0.17449465E+04</pdfrwt>
<pdfrwt beam="2">  1       -2 0.85950150E-01 0.17449465E+04</pdfrwt>
<totfact> 0.16939469E+01</totfact>
</mgrwt>
</event>
<event>
12    1  0.1663913E-007  0.1347962E+04  0.7818608E-02  0.8992373E-01
         -2   -1    0    0    0  501 -0.00000000000E+00  0.00000000000E+00  0.20241662507E+03  0.20241662507E+03  0.00000000000E+00 0.  1.
          2   -1    0    0  501    0  0.00000000000E+00 -0.00000000000E+00 -0.22441344723E+04  0.22441344723E+04  0.00000000000E+00 0. -1.
         23    2    1    2    0    0 -0.79374816154E+02  0.24414723441E+03 -0.15996295185E+03  0.31651712331E+03  0.93202520764E+02 0.  0.
        254    2    1    2    0    0  0.79374816154E+02 -0.24414723441E+03 -0.18817548953E+04  0.21300339740E+04  0.96443507342E+03 0.  0.
        -24    2    4    4    0    0 -0.55084818755E+02 -0.35724110360E+03 -0.19012943990E+04  0.19368613286E+04  0.76523665480E+02 0.  0.
         24    2    4    4    0    0  0.13445963491E+03  0.11309386919E+03  0.19539503609E+02  0.19317264543E+03  0.77873372030E+02 0.  0.
         11    1    3    3    0    0 -0.19817059048E+02  0.63502849739E+02 -0.94075838677E+02  0.11521975168E+03  0.00000000000E+00 0. -1.
        -11    1    3    3    0    0 -0.59557757106E+02  0.18064438467E+03 -0.65887113172E+02  0.20129737163E+03  0.00000000000E+00 0.  1.
          2    1    6    6  502    0  0.75436898394E+01  0.87116219108E+01  0.26292550464E+02  0.28707104045E+02  0.00000000000E+00 0. -1.
          3    1    5    5  503    0 -0.20039162955E+02 -0.29925736509E+02 -0.29442624922E+03  0.29662085899E+03  0.00000000000E+00 0. -1.
         -4    1    5    5    0  503 -0.35045655800E+02 -0.32731536709E+03 -0.16068681497E+04  0.16402404696E+04  0.00000000000E+00 0.  1.
         -1    1    6    6    0  502  0.12691594507E+03  0.10438224728E+03 -0.67530468552E+01  0.16446554138E+03  0.00000000000E+00 0.  1.
<mgrwt>
<rscale>  0 0.13479616E+04</rscale>
<asrwt>0</asrwt>
<pdfrwt beam="1">  1        2 0.34525146E+00 0.13479616E+04</pdfrwt>
<pdfrwt beam="2">  1       -2 0.31141019E-01 0.13479616E+04</pdfrwt>
<totfact> 0.45645059E+01</totfact>
</mgrwt>
</event>
<event>
12    1  0.1663913E-007  0.2070176E+04  0.7818608E-02  0.8574496E-01
          2   -1    0    0  501    0  0.00000000000E+00  0.00000000000E+00  0.22531832719E+04  0.22531832719E+04  0.00000000000E+00 0. -1.
         -2   -1    0    0    0  501 -0.00000000000E+00 -0.00000000000E+00 -0.47550839109E+03  0.47550839109E+03  0.00000000000E+00 0.  1.
         23    2    1    2    0    0  0.54691496602E+03  0.62692505298E+03  0.68595330534E+03  0.10836982114E+04  0.10825374863E+03 0.  0.
        254    2    1    2    0    0 -0.54691496602E+03 -0.62692505298E+03  0.10917215754E+04  0.16449934516E+04  0.90664020173E+03 0.  0.
        -24    2    4    4    0    0 -0.42864794159E+03 -0.46532632660E+03  0.11899186664E+03  0.64879158939E+03  0.80646227909E+02 0.  0.
         24    2    4    4    0    0 -0.11826702442E+03 -0.16159872638E+03  0.97272970881E+03  0.99620186221E+03  0.78190961359E+02 0.  0.
         13    1    3    3    0    0  0.20103903003E+02  0.54226248598E+01  0.35519001299E+02  0.41172457172E+02  0.00000000000E+00 0.  1.
        -13    1    3    3    0    0  0.52681106301E+03  0.62150242812E+03  0.65043430404E+03  0.10425257542E+04  0.00000000000E+00 0. -1.
          2    1    6    6  502    0 -0.30611590915E+02 -0.21297500044E+02  0.34607542196E+03  0.34807879954E+03  0.00000000000E+00 0. -1.
          3    1    5    5  503    0 -0.36500255653E+03 -0.43282954343E+03  0.10139065051E+03  0.57519417934E+03  0.00000000000E+00 0. -1.
         -4    1    5    5    0  503 -0.63645385066E+02 -0.32496783173E+02  0.17601216126E+02  0.73597410049E+02  0.00000000000E+00 0.  1.
         -1    1    6    6    0  502 -0.87655433507E+02 -0.14030122634E+03  0.62665428685E+03  0.64812306267E+03  0.00000000000E+00 0.  1.
<mgrwt>
<rscale>  0 0.20701764E+04</rscale>
<asrwt>0</asrwt>
<pdfrwt beam="1">  1        2 0.34664357E+00 0.20701764E+04</pdfrwt>
<pdfrwt beam="2">  1       -2 0.73155139E-01 0.20701764E+04</pdfrwt>
<totfact> 0.75117189E+00</totfact>
</mgrwt>
</event>
<event>
12    1  0.1663913E-007  0.2306382E+04  0.7818608E-02  0.8475409E-01
          2   -1    0    0  501    0  0.00000000000E+00  0.00000000000E+00  0.57317696158E+03  0.57317696158E+03  0.00000000000E+00 0.  1.
         -2   -1    0    0    0  501 -0.00000000000E+00 -0.00000000000E+00 -0.23201376618E+04  0.23201376618E+04  0.00000000000E+00 0. -1.
         23    2    1    2    0    0 -0.45751461470E+03  0.84076105477E+03 -0.78216273172E+03  0.12402588483E+04  0.10131484651E+03 0.  0.
        254    2    1    2    0    0  0.45751461470E+03 -0.84076105477E+03 -0.96479796849E+03  0.16530557750E+04  0.94104171079E+03 0.  0.
        -24    2    4    4    0    0  0.44036942565E+03 -0.50364819548E+03 -0.10917791411E+04  0.12829265791E+04  0.79574987623E+02 0.  0.
         24    2    4    4    0    0  0.17145189047E+02 -0.33711285929E+03  0.12698117256E+03  0.37012919592E+03  0.83260831626E+02 0.  0.
         13    1    3    3    0    0 -0.11129354605E+03  0.24995979958E+03 -0.17280099298E+03  0.32361448975E+03  0.00000000000E+00 0.  1.
        -13    1    3    3    0    0 -0.34622106865E+03  0.59080125519E+03 -0.60936173874E+03  0.91664435860E+03  0.00000000000E+00 0. -1.
          2    1    6    6  502    0  0.29182560935E+02 -0.33376708877E+03  0.12047211853E+03  0.35604160256E+03  0.00000000000E+00 0. -1.
          3    1    5    5  503    0  0.20565642928E+03 -0.27764571481E+03 -0.50787565904E+03  0.61426329445E+03  0.00000000000E+00 0. -1.
         -4    1    5    5    0  503  0.23471299637E+03 -0.22600248067E+03 -0.58390348201E+03  0.66866328465E+03  0.00000000000E+00 0.  1.
         -1    1    6    6    0  502 -0.12037371888E+02 -0.33457705150E+01  0.65090540296E+01  0.14087593360E+02  0.00000000000E+00 0.  1.
<mgrwt>
<rscale>  0 0.23063820E+04</rscale>
<asrwt>0</asrwt>
<pdfrwt beam="1">  1        2 0.88181072E-01 0.23063820E+04</pdfrwt>
<pdfrwt beam="2">  1       -2 0.35694425E+00 0.23063820E+04</pdfrwt>
<totfact> 0.66850864E-01</totfact>
</mgrwt>
</event>
<event>
12    1  0.1663913E-007  0.1392136E+04  0.7818608E-02  0.8959531E-01
          2   -1    0    0  501    0  0.00000000000E+00  0.00000000000E+00  0.11120782195E+04  0.11120782195E+04  0.00000000000E+00 0. -1.
         -2   -1    0    0    0  501 -0.00000000000E+00 -0.00000000000E+00 -0.43568031380E+03  0.43568031380E+03  0.00000000000E+00 0.  1.
         23    2    1    2    0    0 -0.24348294818E+03 -0.30742768965E+03  0.96295022932E+02  0.41356133036E+03  0.89244115252E+02 0.  0.
        254    2    1    2    0    0  0.24348294818E+03  0.30742768965E+03  0.58010288272E+03  0.11341972029E+04  0.89223775425E+03 0.  0.
        -24    2    4    4    0    0  0.71777581289E+02 -0.20249215470E+03  0.54237611186E+03  0.58888081654E+03  0.80334771332E+02 0.  0.
         24    2    4    4    0    0  0.17170536689E+03  0.50991984435E+03  0.37726770867E+02  0.54531638636E+03  0.80284938274E+02 0.  0.
         11    1    3    3    0    0 -0.93438319717E+02 -0.13895492662E+03 -0.20345179836E+01  0.16746142985E+03  0.00000000000E+00 0.  1.
        -11    1    3    3    0    0 -0.15004462846E+03 -0.16847276303E+03  0.98329540915E+02  0.24609990051E+03  0.00000000000E+00 0. -1.
          2    1    6    6  502    0  0.29281019833E+02  0.10084908341E+03 -0.24173928671E+02  0.10776035716E+03  0.00000000000E+00 0. -1.
          1    1    5    5  503    0  0.66111289459E+02 -0.68710072822E+02  0.21651279902E+03  0.23657888503E+03  0.00000000000E+00 0. -1.
         -2    1    5    5    0  503  0.56662918302E+01 -0.13378208188E+03  0.32586331284E+03  0.35230193151E+03  0.00000000000E+00 0.  1.
         -1    1    6    6    0  502  0.14242434706E+03  0.40907076094E+03  0.61900699537E+02  0.43755602920E+03  0.00000000000E+00 0.  1.
<mgrwt>
<rscale>  0 0.13921359E+04</rscale>
<asrwt>0</asrwt>
<pdfrwt beam="1">  1        2 0.17108896E+00 0.13921359E+04</pdfrwt>
<pdfrwt beam="2">  1       -2 0.67027741E-01 0.13921359E+04</pdfrwt>
<totfact> 0.42614416E+01</totfact>
</mgrwt>
</event>
<event>
12    1  0.1663913E-007  0.1848290E+04  0.7818608E-02  0.8681033E-01
          1   -1    0    0  501    0  0.00000000000E+00  0.00000000000E+00  0.11047658521E+04  0.11047658521E+04  0.00000000000E+00 0. -1.
         -1   -1    0    0    0  501 -0.00000000000E+00 -0.00000000000E+00 -0.77305459337E+03  0.77305459337E+03  0.00000000000E+00 0.  1.
         23    2    1    2    0    0 -0.44207257290E+03 -0.29532240009E+03 -0.33503011388E+03  0.63467438216E+03  0.89010754739E+02 0.  0.
        254    2    1    2    0    0  0.44207257290E+03  0.29532240009E+03  0.66674137262E+03  0.12431460633E+04  0.90455768036E+03 0.  0.
        -24    2    4    4    0    0 -0.29342850377E+02 -0.25164875113E+03  0.37689200442E+03  0.46110657117E+03  0.79897372711E+02 0.  0.
         24    2    4    4    0    0  0.47141542327E+03  0.54697115122E+03  0.28984936819E+03  0.78203949215E+03  0.78505856340E+02 0.  0.
         11    1    3    3    0    0 -0.17129296510E+03 -0.64469258089E+02 -0.10587232483E+03  0.21143915034E+03  0.00000000000E+00 0. -1.
        -11    1    3    3    0    0 -0.27077960779E+03 -0.23085314200E+03 -0.22915778905E+03  0.42323523182E+03  0.00000000000E+00 0.  1.
          2    1    6    6  502    0 -0.17439581550E+01  0.11025213837E+02  0.19917096717E+01  0.11338590637E+02  0.00000000000E+00 0. -1.
          1    1    5    5  503    0 -0.25520779332E+02 -0.20261053149E+02  0.65281601109E+02  0.72962373151E+02  0.00000000000E+00 0. -1.
         -2    1    5    5    0  503 -0.38220710451E+01 -0.23138769798E+03  0.31161040332E+03  0.38814419802E+03  0.00000000000E+00 0.  1.
         -1    1    6    6    0  502  0.47315938143E+03  0.53594593738E+03  0.28785765852E+03  0.77070090151E+03  0.00000000000E+00 0.  1.
<mgrwt>
<rscale>  0 0.18482904E+04</rscale>
<asrwt>0</asrwt>
<pdfrwt beam="1">  1        1 0.16996398E+00 0.18482904E+04</pdfrwt>
<pdfrwt beam="2">  1       -1 0.11893148E+00 0.18482904E+04</pdfrwt>
<totfact> 0.74784762E+00</totfact>
</mgrwt>
</event>
<event>
12    1  0.1663913E-007  0.3306160E+04  0.7818608E-02  0.8161330E-01
          1   -1    0    0  501    0  0.00000000000E+00  0.00000000000E+00  0.34032612447E+04  0.34032612447E+04  0.00000000000E+00 0. -1.
         -1   -1    0    0    0  501 -0.00000000000E+00 -0.00000000000E+00 -0.80295718376E+03  0.80295718376E+03  0.00000000000E+00 0.  1.
         23    2    1    2    0    0  0.12452882880E+04  0.56349600513E+03  0.35011770541E+03  0.14139755422E+04  0.92053017725E+02 0.  0.
        254    2    1    2    0    0 -0.12452882880E+04 -0.56349600513E+03  0.22501863555E+04  0.27922428863E+04  0.93005969344E+03 0.  0.
        -24    2    4    4    0    0 -0.94691964458E+03 -0.61423971657E+03  0.10221512016E+04  0.15248203821E+04  0.79604498769E+02 0.  0.
         24    2    4    4    0    0 -0.29836864346E+03  0.50743711441E+02  0.12280351539E+04  0.12674225041E+04  0.81796656624E+02 0.  0.
         13    1    3    3    0    0  0.14809882354E+03  0.93388264413E+02  0.64779464130E+02  0.18668424797E+03  0.00000000000E+00 0. -1.
        -13    1    3    3    0    0  0.10971894645E+04  0.47010774072E+03  0.28533824128E+03  0.12272912942E+04  0.00000000000E+00 0.  1.
          2    1    6    6  502    0 -0.22435311774E+03  0.23111481555E+02  0.10258232543E+04  0.10503246218E+04  0.00000000000E+00 0. -1.
          3    1    5    5  503    0 -0.81709705029E+02 -0.33947628960E+02  0.61845937010E+02  0.10795294036E+03  0.00000000000E+00 0. -1.
         -4    1    5    5    0  503 -0.86520993955E+03 -0.58029208761E+03  0.96030526455E+03  0.14168674418E+04  0.00000000000E+00 0.  1.
         -1    1    6    6    0  502 -0.74015525720E+02  0.27632229886E+02  0.20221189964E+03  0.21709788238E+03  0.00000000000E+00 0.  1.
<mgrwt>
<rscale>  0 0.33061597E+04</rscale>
<asrwt>0</asrwt>
<pdfrwt beam="1">  1        1 0.52357865E+00 0.33061597E+04</pdfrwt>
<pdfrwt beam="2">  1       -1 0.12353188E+00 0.33061597E+04</pdfrwt>
<totfact> 0.14196556E-01</totfact>
</mgrwt>
</event>
<event>
12    1  0.1663913E-007  0.1641354E+04  0.7818608E-02  0.8795538E-01
         -2   -1    0    0    0  501 -0.00000000000E+00  0.00000000000E+00  0.35321186682E+03  0.35321186682E+03  0.00000000000E+00 0.  1.
          2   -1    0    0  501    0  0.00000000000E+00 -0.00000000000E+00 -0.19068182333E+04  0.19068182333E+04  0.00000000000E+00 0. -1.
         23    2    1    2    0    0 -0.27109766270E+03  0.46066435657E+03 -0.81510257177E+03  0.97873450985E+03  0.88450246583E+02 0.  0.
        254    2    1    2    0    0  0.27109766270E+03 -0.46066435657E+03 -0.73850379475E+03  0.12812955903E+04  0.90034712347E+03 0.  0.
        -24    2    4    4    0    0  0.38944199950E+03  0.11012982689E+03 -0.49626767904E+03  0.64526668958E+03  0.79333736044E+02 0.  0.
         24    2    4    4    0    0 -0.11834433680E+03 -0.57079418347E+03 -0.24223611570E+03  0.63602890073E+03  0.77737023854E+02 0.  0.
         13    1    3    3    0    0 -0.12502851791E+02  0.22888940203E+02 -0.85896437988E+02  0.89768719193E+02  0.00000000000E+00 0.  1.
        -13    1    3    3    0    0 -0.25859481091E+03  0.43777541637E+03 -0.72920613378E+03  0.88896579066E+03  0.00000000000E+00 0. -1.
          2    1    6    6  502    0  0.90663482424E+01 -0.93578074067E+02 -0.43966938333E+02  0.10378895068E+03  0.00000000000E+00 0. -1.
          3    1    5    5  503    0  0.15194996850E+03  0.51968603490E+02 -0.25777102311E+03  0.30370286306E+03  0.00000000000E+00 0. -1.
         -4    1    5    5    0  503  0.23749203100E+03  0.58161223404E+02 -0.23849665593E+03  0.34156382652E+03  0.00000000000E+00 0.  1.
         -1    1    6    6    0  502 -0.12741068504E+03 -0.47721610940E+03 -0.19826917737E+03  0.53223995005E+03  0.00000000000E+00 0.  1.
<mgrwt>
<rscale>  0 0.16413541E+04</rscale>
<asrwt>0</asrwt>
<pdfrwt beam="1">  1        2 0.29335664E+00 0.16413541E+04</pdfrwt>
<pdfrwt beam="2">  1       -2 0.54340288E-01 0.16413541E+04</pdfrwt>
<totfact> 0.22939845E+01</totfact>
</mgrwt>
</event>
<event>
12    1  0.1663913E-007  0.1814038E+04  0.7818608E-02  0.8698870E-01
          1   -1    0    0  501    0  0.00000000000E+00  0.00000000000E+00  0.18803452160E+04  0.18803452160E+04  0.00000000000E+00 0. -1.
         -1   -1    0    0    0  501 -0.00000000000E+00 -0.00000000000E+00 -0.43751731308E+03  0.43751731308E+03  0.00000000000E+00 0.  1.
         23    2    1    2    0    0  0.66465241147E+03  0.14935845392E+02  0.36530815757E+03  0.76396304374E+03  0.90573586978E+02 0.  0.
        254    2    1    2    0    0 -0.66465241147E+03 -0.14935845392E+02  0.10775197454E+04  0.15538994854E+04  0.90087119024E+03 0.  0.
        -24    2    4    4    0    0  0.28860035957E+02 -0.10120407093E+03  0.77874328703E+03  0.78967957063E+03  0.77958652678E+02 0.  0.
         24    2    4    4    0    0 -0.69351244743E+03  0.86268225542E+02  0.29877645834E+03  0.76421991474E+03  0.79768317893E+02 0.  0.
         11    1    3    3    0    0  0.92137923117E+01 -0.39071652520E+01  0.21205925141E+02  0.23448905521E+02  0.00000000000E+00 0. -1.
        -11    1    3    3    0    0  0.65543861916E+03  0.18843010644E+02  0.34410223243E+03  0.74051413822E+03  0.00000000000E+00 0.  1.
          4    1    6    6  502    0 -0.27545690866E+03  0.30262704107E+01  0.14305884670E+03  0.31040538085E+03  0.00000000000E+00 0. -1.
          1    1    5    5  503    0  0.20833978143E+02 -0.11320481671E+03  0.72256272786E+03  0.73167361635E+03  0.00000000000E+00 0. -1.
         -2    1    5    5    0  503  0.80260578137E+01  0.12000745776E+02  0.56180559173E+02  0.58005954282E+02  0.00000000000E+00 0.  1.
         -3    1    6    6    0  502 -0.41805553877E+03  0.83241955131E+02  0.15571761164E+03  0.45381453389E+03  0.00000000000E+00 0.  1.
<mgrwt>
<rscale>  0 0.18140381E+04</rscale>
<asrwt>0</asrwt>
<pdfrwt beam="1">  1        1 0.28928387E+00 0.18140381E+04</pdfrwt>
<pdfrwt beam="2">  1       -1 0.67310357E-01 0.18140381E+04</pdfrwt>
<totfact> 0.75698705E+00</totfact>
</mgrwt>
</event>
<event>
12    1  0.1663913E-007  0.1486226E+04  0.7818608E-02  0.8893664E-01
          1   -1    0    0  501    0  0.00000000000E+00  0.00000000000E+00  0.18990381437E+04  0.18990381437E+04  0.00000000000E+00 0. -1.
         -1   -1    0    0    0  501 -0.00000000000E+00 -0.00000000000E+00 -0.29078783902E+03  0.29078783902E+03  0.00000000000E+00 0.  1.
         23    2    1    2    0    0  0.24199586981E+03  0.21391253810E+02  0.10060020299E+04  0.10390543015E+04  0.92596817697E+02 0.  0.
        254    2    1    2    0    0 -0.24199586981E+03 -0.21391253810E+02  0.60224827485E+03  0.11507716813E+04  0.95002783700E+03 0.  0.
        -24    2    4    4    0    0  0.57223758718E+02 -0.40639580102E+03  0.48946158007E+03  0.64404839969E+03  0.82423280269E+02 0.  0.
         24    2    4    4    0    0 -0.29921962853E+03  0.38500454721E+03  0.11278669479E+03  0.50672328157E+03  0.79289079238E+02 0.  0.
         11    1    3    3    0    0  0.18894180879E+03  0.55407404841E+02  0.75182723278E+03  0.77718284564E+03  0.00000000000E+00 0. -1.
        -11    1    3    3    0    0  0.53054061027E+02 -0.34016151032E+02  0.25417479709E+03  0.26187145586E+03  0.00000000000E+00 0.  1.
          4    1    6    6  502    0 -0.21571207369E+03  0.23151352900E+03  0.98469560695E+02  0.33140076528E+03  0.00000000000E+00 0. -1.
          1    1    5    5  503    0  0.63105794983E+02 -0.17116243900E+03  0.19332062754E+03  0.26580403857E+03  0.00000000000E+00 0. -1.
         -2    1    5    5    0  503 -0.58820362653E+01 -0.23523336202E+03  0.29614095253E+03  0.37824436112E+03  0.00000000000E+00 0.  1.
         -3    1    6    6    0  502 -0.83507554846E+02  0.15349101821E+03  0.14317134091E+02  0.17532251629E+03  0.00000000000E+00 0.  1.
<mgrwt>
<rscale>  0 0.14862264E+04</rscale>
<asrwt>0</asrwt>
<pdfrwt beam="1">  1        1 0.29215971E+00 0.14862264E+04</pdfrwt>
<pdfrwt beam="2">  1       -1 0.44736592E-01 0.14862264E+04</pdfrwt>
<totfact> 0.16738798E+01</totfact>
</mgrwt>
</event>
<event>
12    1  0.1663913E-007  0.3579539E+04  0.7818608E-02  0.8095195E-01
         -2   -1    0    0    0  501 -0.00000000000E+00  0.00000000000E+00  0.16504353444E+04  0.16504353444E+04  0.00000000000E+00 0.  1.
          2   -1    0    0  501    0  0.00000000000E+00 -0.00000000000E+00 -0.19408668370E+04  0.19408668370E+04  0.00000000000E+00 0. -1.
         23    2    1    2    0    0  0.31906443091E+03 -0.52653409477E+03 -0.16964245129E+04  0.18072009346E+04  0.95282873639E+02 0.  0.
        254    2    1    2    0    0 -0.31906443091E+03  0.52653409477E+03  0.14059930203E+04  0.17841012468E+04  0.90948371160E+03 0.  0.
        -24    2    4    4    0    0  0.23216400101E+03  0.41412951309E+03  0.91272908554E+03  0.10319939343E+04  0.80831428702E+02 0.  0.
         24    2    4    4    0    0 -0.55122843192E+03  0.11240458168E+03  0.49326393473E+03  0.75210731247E+03  0.76606305425E+02 0.  0.
         13    1    3    3    0    0  0.18044523301E+02 -0.81166187045E+01 -0.27511492152E+02  0.33887557020E+02  0.00000000000E+00 0.  1.
        -13    1    3    3    0    0  0.30101990761E+03 -0.51841747607E+03 -0.16689130208E+04  0.17733133776E+04  0.00000000000E+00 0. -1.
          4    1    6    6  502    0 -0.42909489450E+03  0.11950059405E+03  0.38729730407E+03  0.59025589552E+03  0.00000000000E+00 0. -1.
          1    1    5    5  503    0  0.14169090148E+03  0.32302493634E+03  0.68888093304E+03  0.77393692311E+03  0.00000000000E+00 0. -1.
         -4    1    5    5    0  503  0.90473099526E+02  0.91104576756E+02  0.22384815250E+03  0.25805701119E+03  0.00000000000E+00 0.  1.
         -3    1    6    6    0  502 -0.12213353742E+03 -0.70960123694E+01  0.10596663066E+03  0.16185141695E+03  0.00000000000E+00 0.  1.
<mgrwt>
<rscale>  0 0.35795392E+04</rscale>
<asrwt>0</asrwt>
<pdfrwt beam="1">  1        2 0.29859490E+00 0.35795392E+04</pdfrwt>
<pdfrwt beam="2">  1       -2 0.25391313E+00 0.35795392E+04</pdfrwt>
<totfact> 0.35773454E-01</totfact>
</mgrwt>
</event>
<event>
12    1  0.1663913E-007  0.1992980E+04  0.7818608E-02  0.8609910E-01
          2   -1    0    0  501    0  0.00000000000E+00  0.00000000000E+00  0.38072243797E+04  0.38072243797E+04  0.00000000000E+00 0. -1.
         -2   -1    0    0    0  501 -0.00000000000E+00 -0.00000000000E+00 -0.26081793159E+03  0.26081793159E+03  0.00000000000E+00 0.  1.
         23    2    1    2    0    0 -0.24788526264E+03 -0.74706836822E+03  0.13355194144E+04  0.15529304009E+04  0.91774035623E+02 0.  0.
        254    2    1    2    0    0  0.24788526264E+03  0.74706836822E+03  0.22108870337E+04  0.25151119104E+04  0.90454861433E+03 0.  0.
        -24    2    4    4    0    0  0.24750949125E+03 -0.14629682871E+03  0.46815184671E+03  0.55514286372E+03  0.79710333121E+02 0.  0.
         24    2    4    4    0    0  0.37577138702E+00  0.89336519693E+03  0.17427351870E+04  0.19599690467E+04  0.79064629157E+02 0.  0.
         13    1    3    3    0    0  0.51295134976E+01 -0.81199051373E+01  0.72474510967E+01  0.12032053672E+02  0.00000000000E+00 0. -1.
        -13    1    3    3    0    0 -0.25301477614E+03 -0.73894846308E+03  0.13282719633E+04  0.15408983472E+04  0.00000000000E+00 0.  1.
          2    1    6    6  502    0  0.24961668129E+02  0.11676465149E+03  0.25424690130E+03  0.28088886687E+03  0.00000000000E+00 0. -1.
          3    1    5    5  503    0  0.14833877129E+03 -0.57717830308E+02  0.31034920633E+03  0.34878699642E+03  0.00000000000E+00 0. -1.
         -4    1    5    5    0  503  0.99170719963E+02 -0.88578998404E+02  0.15780264038E+03  0.20635586730E+03  0.00000000000E+00 0.  1.
         -1    1    6    6    0  502 -0.24585896742E+02  0.77660054545E+03  0.14884882857E+04  0.16790801798E+04  0.00000000000E+00 0.  1.
<mgrwt>
<rscale>  0 0.19929801E+04</rscale>
<asrwt>0</asrwt>
<pdfrwt beam="1">  1        2 0.58572679E+00 0.19929801E+04</pdfrwt>
<pdfrwt beam="2">  1       -2 0.40125838E-01 0.19929801E+04</pdfrwt>
<totfact> 0.26725209E+00</totfact>
</mgrwt>
</event>
<event>
12    1  0.1663913E-007  0.2143305E+04  0.7818608E-02  0.8542404E-01
         -2   -1    0    0    0  501 -0.00000000000E+00  0.00000000000E+00  0.22208620361E+04  0.22208620361E+04  0.00000000000E+00 0.  1.
          2   -1    0    0  501    0  0.00000000000E+00 -0.00000000000E+00 -0.51711388167E+03  0.51711388167E+03  0.00000000000E+00 0. -1.
         23    2    1    2    0    0  0.13592036834E+03 -0.48825432699E+03 -0.22319624363E+03  0.56054753414E+03  0.86777534529E+02 0.  0.
        254    2    1    2    0    0 -0.13592036834E+03  0.48825432699E+03  0.19269443981E+04  0.21774283836E+04  0.87818734804E+03 0.  0.
        -24    2    4    4    0    0  0.31323640205E+03  0.25665427210E+03  0.13233312889E+04  0.13863564760E+04  0.82402181848E+02 0.  0.
         24    2    4    4    0    0 -0.44915677039E+03  0.23160005489E+03  0.60361310918E+03  0.79107190759E+03  0.77881882288E+02 0.  0.
         11    1    3    3    0    0  0.14173769685E+03 -0.47834489885E+03 -0.22743818473E+03  0.54829877333E+03  0.00000000000E+00 0. -1.
        -11    1    3    3    0    0 -0.58173285035E+01 -0.99094281433E+01  0.42419410973E+01  0.12248760807E+02  0.00000000000E+00 0.  1.
          2    1    6    6  502    0 -0.44480674074E+03  0.23500436522E+03  0.58452232809E+03  0.77119805518E+03  0.00000000000E+00 0. -1.
          1    1    5    5  503    0  0.30750933549E+03  0.26086889081E+03  0.13148000387E+04  0.13752504177E+04  0.00000000000E+00 0. -1.
         -2    1    5    5    0  503  0.57270665536E+01 -0.42146187079E+01  0.85312501471E+01  0.11106058312E+02  0.00000000000E+00 0.  1.
         -1    1    6    6    0  502 -0.43500296444E+01 -0.34043103266E+01  0.19090781096E+02  0.19873852408E+02  0.00000000000E+00 0.  1.
<mgrwt>
<rscale>  0 0.21433045E+04</rscale>
<asrwt>0</asrwt>
<pdfrwt beam="1">  1        2 0.79555983E-01 0.21433045E+04</pdfrwt>
<pdfrwt beam="2">  1       -2 0.34167108E+00 0.21433045E+04</pdfrwt>
<totfact> 0.95574526E-01</totfact>
</mgrwt>
</event>
<event>
12    1  0.1663913E-007  0.1222944E+04  0.7818608E-02  0.9093008E-01
          2   -1    0    0  501    0  0.00000000000E+00  0.00000000000E+00  0.11057585568E+04  0.11057585568E+04  0.00000000000E+00 0. -1.
         -2   -1    0    0    0  501 -0.00000000000E+00 -0.00000000000E+00 -0.33813696973E+03  0.33813696973E+03  0.00000000000E+00 0.  1.
         23    2    1    2    0    0  0.21726693947E+03 -0.58688582870E+02  0.33309479745E+03  0.41232467583E+03  0.91707259570E+02 0.  0.
        254    2    1    2    0    0 -0.21726693947E+03  0.58688582870E+02  0.43452678958E+03  0.10315708507E+04  0.90811652134E+03 0.  0.
        -24    2    4    4    0    0  0.11884490543E+02 -0.23786321659E+03 -0.17813146731E+03  0.30885929610E+03  0.83325231590E+02 0.  0.
         24    2    4    4    0    0 -0.22915143002E+03  0.29655179946E+03  0.61265825689E+03  0.72271155457E+03  0.80675298166E+02 0.  0.
         13    1    3    3    0    0  0.72446878613E+02 -0.56074040514E+02  0.84611316455E+02  0.12470734987E+03  0.00000000000E+00 0. -1.
        -13    1    3    3    0    0  0.14482006086E+03 -0.26145423563E+01  0.24848348100E+03  0.28761732595E+03  0.00000000000E+00 0.  1.
          4    1    6    6  502    0 -0.20248652665E+03  0.24731004940E+03  0.46033031080E+03  0.56041685294E+03  0.00000000000E+00 0. -1.
          3    1    5    5  503    0 -0.27090627118E+02 -0.13474956809E+03 -0.12779097110E+03  0.18767493299E+03  0.00000000000E+00 0. -1.
         -4    1    5    5    0  503  0.38975117661E+02 -0.10311364850E+03 -0.50340496208E+02  0.12118436311E+03  0.00000000000E+00 0.  1.
         -3    1    6    6    0  502 -0.26664903366E+02  0.49241750062E+02  0.15232794608E+03  0.16229470164E+03  0.00000000000E+00 0.  1.
<mgrwt>
<rscale>  0 0.12229437E+04</rscale>
<asrwt>0</asrwt>
<pdfrwt beam="1">  1        2 0.17011670E+00 0.12229437E+04</pdfrwt>
<pdfrwt beam="2">  1       -2 0.52021073E-01 0.12229437E+04</pdfrwt>
<totfact> 0.74266333E+01</totfact>
</mgrwt>
</event>
<event>
12    1  0.1663913E-007  0.1705922E+04  0.7818608E-02  0.8757994E-01
         -1   -1    0    0    0  501 -0.00000000000E+00  0.00000000000E+00  0.28936879752E+03  0.28936879752E+03  0.00000000000E+00 0.  1.
          1   -1    0    0  501    0  0.00000000000E+00 -0.00000000000E+00 -0.25142394041E+04  0.25142394041E+04  0.00000000000E+00 0. -1.
         23    2    1    2    0    0  0.12768357655E+03  0.48410663561E+03 -0.25889522714E+03  0.57111930341E+03  0.92131372147E+02 0.  0.
        254    2    1    2    0    0 -0.12768357655E+03 -0.48410663561E+03 -0.19659753794E+04  0.22324888982E+04  0.93181819988E+03 0.  0.
        -24    2    4    4    0    0  0.33210969603E+03 -0.48049494483E+03 -0.10404972647E+04  0.11959903637E+04  0.81155098847E+02 0.  0.
         24    2    4    4    0    0 -0.45979327258E+03 -0.36116907840E+01 -0.92547811475E+03  0.10364985345E+04  0.79978580049E+02 0.  0.
         13    1    3    3    0    0  0.84352707125E+02  0.16126601603E+03 -0.73144700472E+02  0.19614345345E+03  0.00000000000E+00 0.  1.
        -13    1    3    3    0    0  0.43330869423E+02  0.32284061958E+03 -0.18575052667E+03  0.37497584996E+03  0.00000000000E+00 0. -1.
          4    1    6    6  502    0 -0.10189649897E+03 -0.23583253187E+02 -0.26742708578E+03  0.28715207215E+03  0.00000000000E+00 0. -1.
          1    1    5    5  503    0  0.30079713785E+03 -0.45851935582E+03 -0.93732605588E+03  0.10859553641E+04  0.00000000000E+00 0. -1.
         -2    1    5    5    0  503  0.31312558184E+02 -0.21975589011E+02 -0.10317120878E+03  0.11003499959E+03  0.00000000000E+00 0.  1.
         -3    1    6    6    0  502 -0.35789677361E+03  0.19971562403E+02 -0.65805102897E+03  0.74934646232E+03  0.00000000000E+00 0.  1.
<mgrwt>
<rscale>  0 0.17059220E+04</rscale>
<asrwt>0</asrwt>
<pdfrwt beam="1">  1        1 0.38680606E+00 0.17059220E+04</pdfrwt>
<pdfrwt beam="2">  1       -1 0.44518277E-01 0.17059220E+04</pdfrwt>
<totfact> 0.63035770E+00</totfact>
</mgrwt>
</event>
<event>
12    1  0.1663913E-007  0.1081567E+04  0.7818608E-02  0.9223347E-01
          1   -1    0    0  501    0  0.00000000000E+00  0.00000000000E+00  0.13622832625E+04  0.13622832625E+04  0.00000000000E+00 0. -1.
         -1   -1    0    0    0  501 -0.00000000000E+00 -0.00000000000E+00 -0.21467391403E+03  0.21467391403E+03  0.00000000000E+00 0.  1.
         23    2    1    2    0    0  0.13817556709E+03  0.70475843455E+02  0.15841145022E+03  0.23883542827E+03  0.88819155506E+02 0.  0.
        254    2    1    2    0    0 -0.13817556709E+03 -0.70475843455E+02  0.98919789827E+03  0.13381217483E+04  0.88769251401E+03 0.  0.
        -24    2    4    4    0    0 -0.18710389670E+02 -0.46789506543E+03  0.58167081197E+03  0.75085231409E+03  0.78500911702E+02 0.  0.
         24    2    4    4    0    0 -0.11946517742E+03  0.39741922198E+03  0.40752708630E+03  0.58726943419E+03  0.81197879627E+02 0.  0.
         11    1    3    3    0    0  0.51418794030E+01  0.25121812261E+02 -0.18045981334E+01  0.25706048889E+02  0.00000000000E+00 0. -1.
        -11    1    3    3    0    0  0.13303368769E+03  0.45354031194E+02  0.16021604835E+03  0.21312937938E+03  0.00000000000E+00 0.  1.
          4    1    6    6  502    0 -0.84964335885E+02  0.19348432897E+03  0.24958214948E+03  0.32702656355E+03  0.00000000000E+00 0. -1.
          3    1    5    5  503    0  0.16211773675E+02 -0.17758538991E+03  0.17390307590E+03  0.24908165753E+03  0.00000000000E+00 0. -1.
         -4    1    5    5    0  503 -0.34922163345E+02 -0.29030967552E+03  0.40776773608E+03  0.50177065656E+03  0.00000000000E+00 0.  1.
         -3    1    6    6    0  502 -0.34500841538E+02  0.20393489301E+03  0.15794493682E+03  0.26024287064E+03  0.00000000000E+00 0.  1.
<mgrwt>
<rscale>  0 0.10815668E+04</rscale>
<asrwt>0</asrwt>
<pdfrwt beam="1">  1        1 0.20958204E+00 0.10815668E+04</pdfrwt>
<pdfrwt beam="2">  1       -1 0.33026757E-01 0.10815668E+04</pdfrwt>
<totfact> 0.70104614E+01</totfact>
</mgrwt>
</event>
<event>
12    1  0.1663913E-007  0.1471042E+04  0.7818608E-02  0.8903941E-01
         -2   -1    0    0    0  501 -0.00000000000E+00  0.00000000000E+00  0.24838979205E+03  0.24838979205E+03  0.00000000000E+00 0.  1.
          2   -1    0    0  501    0  0.00000000000E+00 -0.00000000000E+00 -0.21779929092E+04  0.21779929092E+04  0.00000000000E+00 0. -1.
         23    2    1    2    0    0  0.70778402986E+02  0.29047099065E+03 -0.11914691527E+04  0.12318351034E+04  0.91847708387E+02 0.  0.
        254    2    1    2    0    0 -0.70778402986E+02 -0.29047099065E+03 -0.73813396445E+03  0.11945475978E+04  0.89034781696E+03 0.  0.
        -24    2    4    4    0    0 -0.33652078088E+03 -0.32676173510E+03 -0.84363355272E+02  0.48325757825E+03  0.80007772976E+02 0.  0.
         24    2    4    4    0    0  0.26574237790E+03  0.36290744446E+02 -0.65377060918E+03  0.71129001953E+03  0.81126154330E+02 0.  0.
         13    1    3    3    0    0 -0.19389874101E+02  0.72067813030E+02 -0.34683086469E+03  0.35476948233E+03  0.00000000000E+00 0.  1.
        -13    1    3    3    0    0  0.90168277087E+02  0.21840317762E+03 -0.84463828799E+03  0.87706562110E+03  0.00000000000E+00 0. -1.
          2    1    6    6  502    0  0.71569403893E+02 -0.75645082976E+01 -0.26393070587E+03  0.27356684532E+03  0.00000000000E+00 0. -1.
          3    1    5    5  503    0 -0.16915658054E+03 -0.15332777353E+03 -0.12443416930E+01  0.22830878927E+03  0.00000000000E+00 0. -1.
         -4    1    5    5    0  503 -0.16736420035E+03 -0.17343396157E+03 -0.83119013579E+02  0.25494878898E+03  0.00000000000E+00 0.  1.
         -1    1    6    6    0  502  0.19417297400E+03  0.43855252744E+02 -0.38983990331E+03  0.43772317421E+03  0.00000000000E+00 0.  1.
<mgrwt>
<rscale>  0 0.14710421E+04</rscale>
<asrwt>0</asrwt>
<pdfrwt beam="1">  1        2 0.33507582E+00 0.14710421E+04</pdfrwt>
<pdfrwt beam="2">  1       -2 0.38213815E-01 0.14710421E+04</pdfrwt>
<totfact> 0.33301909E+01</totfact>
</mgrwt>
</event>
<event>
12    1  0.1663913E-007  0.1164325E+04  0.7818608E-02  0.9144669E-01
         -1   -1    0    0    0  501 -0.00000000000E+00  0.00000000000E+00  0.27859301051E+03  0.27859301051E+03  0.00000000000E+00 0.  1.
          1   -1    0    0  501    0  0.00000000000E+00 -0.00000000000E+00 -0.12165172531E+04  0.12165172531E+04  0.00000000000E+00 0. -1.
         23    2    1    2    0    0  0.61304074251E+01  0.19629901225E+03 -0.28656069188E+03  0.35951776274E+03  0.92547865927E+02 0.  0.
        254    2    1    2    0    0 -0.61304074251E+01 -0.19629901225E+03 -0.65136355069E+03  0.11355925009E+04  0.90924417443E+03 0.  0.
        -24    2    4    4    0    0  0.36582083140E+03 -0.48119802748E+02 -0.61954885951E+03  0.72553579099E+03  0.80131133761E+02 0.  0.
         24    2    4    4    0    0 -0.37195123882E+03 -0.14817920951E+03 -0.31814691187E+02  0.41005670987E+03  0.82640961640E+02 0.  0.
         11    1    3    3    0    0 -0.38964125537E+02  0.51083068895E+02 -0.71404132111E+02  0.96053282553E+02  0.00000000000E+00 0.  1.
        -11    1    3    3    0    0  0.45094532962E+02  0.14521594336E+03 -0.21515655977E+03  0.26346448019E+03  0.00000000000E+00 0. -1.
          4    1    6    6  502    0 -0.31681899578E+03 -0.15208763354E+03 -0.41737466748E+02  0.35390244488E+03  0.00000000000E+00 0. -1.
          1    1    5    5  503    0  0.29786959590E+03 -0.61998771382E+02 -0.45941554514E+03  0.55102884401E+03  0.00000000000E+00 0. -1.
         -2    1    5    5    0  503  0.67951235496E+02  0.13878968634E+02 -0.16013331437E+03  0.17450694698E+03  0.00000000000E+00 0.  1.
         -3    1    6    6    0  502 -0.55132243045E+02  0.39084240325E+01  0.99227755611E+01  0.56154264989E+02  0.00000000000E+00 0.  1.
<mgrwt>
<rscale>  0 0.11643250E+04</rscale>
<asrwt>0</asrwt>
<pdfrwt beam="1">  1        1 0.18715650E+00 0.11643250E+04</pdfrwt>
<pdfrwt beam="2">  1       -1 0.42860463E-01 0.11643250E+04</pdfrwt>
<totfact> 0.55268646E+01</totfact>
</mgrwt>
</event>
<event>
12    1  0.1663913E-007  0.1477353E+04  0.7818608E-02  0.8899654E-01
         -2   -1    0    0    0  501 -0.00000000000E+00  0.00000000000E+00  0.55206706825E+03  0.55206706825E+03  0.00000000000E+00 0.  1.
          2   -1    0    0  501    0  0.00000000000E+00 -0.00000000000E+00 -0.98836393919E+03  0.98836393919E+03  0.00000000000E+00 0. -1.
         23    2    1    2    0    0 -0.14555446891E+03  0.17501957266E+03  0.27629967452E+03  0.36870312119E+03  0.88218632989E+02 0.  0.
        254    2    1    2    0    0  0.14555446891E+03 -0.17501957266E+03 -0.71259654546E+03  0.11717278862E+04  0.90185056887E+03 0.  0.
        -24    2    4    4    0    0  0.75620169789E+02 -0.40693291920E+03 -0.76806715716E+01  0.42222705532E+03  0.83089606583E+02 0.  0.
         24    2    4    4    0    0  0.69934299119E+02  0.23191334654E+03 -0.70491587389E+03  0.74950083092E+03  0.78552528883E+02 0.  0.
         13    1    3    3    0    0 -0.13713524024E+03  0.10356552766E+03  0.18579087956E+03  0.25308129833E+03  0.00000000000E+00 0.  1.
        -13    1    3    3    0    0 -0.84192286660E+01  0.71454044999E+02  0.90508794960E+02  0.11562182287E+03  0.00000000000E+00 0. -1.
          2    1    6    6  502    0  0.28864234332E+02  0.33733353077E+02 -0.68073884264E+02  0.81271993037E+02  0.00000000000E+00 0. -1.
          3    1    5    5  503    0  0.64331482976E+00 -0.80254016753E+02  0.28365450846E+02  0.85121794275E+02  0.00000000000E+00 0. -1.
         -4    1    5    5    0  503  0.74976854959E+02 -0.32667890245E+03 -0.36046122418E+02  0.33710526105E+03  0.00000000000E+00 0.  1.
         -1    1    6    6    0  502  0.41070064787E+02  0.19817999346E+03 -0.63684198963E+03  0.66822883789E+03  0.00000000000E+00 0.  1.
<mgrwt>
<rscale>  0 0.14773533E+04</rscale>
<asrwt>0</asrwt>
<pdfrwt beam="1">  1        2 0.15205599E+00 0.14773533E+04</pdfrwt>
<pdfrwt beam="2">  1       -2 0.84933396E-01 0.14773533E+04</pdfrwt>
<totfact> 0.29946638E+01</totfact>
</mgrwt>
</event>
<event>
12    1  0.1663913E-007  0.1283775E+04  0.7818608E-02  0.9042531E-01
          1   -1    0    0  501    0  0.00000000000E+00  0.00000000000E+00  0.86716751149E+03  0.86716751149E+03  0.00000000000E+00 0. -1.
         -1   -1    0    0    0  501 -0.00000000000E+00 -0.00000000000E+00 -0.47513288979E+03  0.47513288979E+03  0.00000000000E+00 0.  1.
         23    2    1    2    0    0  0.14003688255E+03 -0.25577069713E+03 -0.37303804564E+02  0.30802191738E+03  0.91961675521E+02 0.  0.
        254    2    1    2    0    0 -0.14003688255E+03  0.25577069713E+03  0.42933842627E+03  0.10342784839E+04  0.89463485290E+03 0.  0.
        -24    2    4    4    0    0 -0.46319213611E+03  0.74670597680E+02  0.19787463650E+02  0.47638332922E+03  0.80167821076E+02 0.  0.
         24    2    4    4    0    0  0.32315525356E+03  0.18110009945E+03  0.40955096262E+03  0.55789515468E+03  0.79299739677E+02 0.  0.
         11    1    3    3    0    0  0.73578993642E+01 -0.56613816857E+02 -0.38241538899E+02  0.68714468924E+02  0.00000000000E+00 0. -1.
        -11    1    3    3    0    0  0.13267898318E+03 -0.19915688027E+03  0.93773433490E+00  0.23930744845E+03  0.00000000000E+00 0.  1.
          4    1    6    6  502    0  0.15795953908E+03  0.47063066807E+02  0.20168008003E+03  0.26046305482E+03  0.00000000000E+00 0. -1.
          3    1    5    5  503    0 -0.87049348762E+02  0.52527759452E+01  0.34058505246E+02  0.93622446852E+02  0.00000000000E+00 0. -1.
         -4    1    5    5    0  503 -0.37614278734E+03  0.69417821735E+02 -0.14271041596E+02  0.38276088237E+03  0.00000000000E+00 0.  1.
         -3    1    6    6    0  502  0.16519571448E+03  0.13403703265E+03  0.20787088258E+03  0.29743209986E+03  0.00000000000E+00 0.  1.
<mgrwt>
<rscale>  0 0.12837754E+04</rscale>
<asrwt>0</asrwt>
<pdfrwt beam="1">  1        1 0.13341039E+00 0.12837754E+04</pdfrwt>
<pdfrwt beam="2">  1       -1 0.73097368E-01 0.12837754E+04</pdfrwt>
<totfact> 0.35961723E+01</totfact>
</mgrwt>
</event>
<event>
12    1  0.1663913E-007  0.1961396E+04  0.7818608E-02  0.8624885E-01
          1   -1    0    0  501    0  0.00000000000E+00  0.00000000000E+00  0.16719216578E+04  0.16719216578E+04  0.00000000000E+00 0. -1.
         -1   -1    0    0    0  501 -0.00000000000E+00 -0.00000000000E+00 -0.57524760308E+03  0.57524760308E+03  0.00000000000E+00 0.  1.
         23    2    1    2    0    0 -0.52084852119E+03  0.57016946630E+03  0.38790444549E+03  0.86885431821E+03  0.89786218945E+02 0.  0.
        254    2    1    2    0    0  0.52084852119E+03 -0.57016946630E+03  0.70876960920E+03  0.13783149426E+04  0.89499794404E+03 0.  0.
        -24    2    4    4    0    0  0.64425899544E+03 -0.12910115177E+03  0.20269126778E+03  0.69185751293E+03  0.76461150646E+02 0.  0.
         24    2    4    4    0    0 -0.12341047425E+03 -0.44106831453E+03  0.50607834142E+03  0.68645742971E+03  0.73055539897E+02 0.  0.
         13    1    3    3    0    0 -0.16054575968E+03  0.18118273326E+03  0.76130645315E+02  0.25376760814E+03  0.00000000000E+00 0.  1.
        -13    1    3    3    0    0 -0.36030276152E+03  0.38898673304E+03  0.31177380018E+03  0.61508671008E+03  0.00000000000E+00 0. -1.
          4    1    6    6  502    0 -0.45918575782E+02 -0.69784691895E+02  0.74874770143E+02  0.11218132656E+03  0.00000000000E+00 0. -1.
          1    1    5    5  503    0  0.16854623359E+03 -0.15771555689E+02  0.82310882505E+02  0.18823298384E+03  0.00000000000E+00 0. -1.
         -2    1    5    5    0  503  0.47571276185E+03 -0.11332959608E+03  0.12038038528E+03  0.50362452909E+03  0.00000000000E+00 0.  1.
         -3    1    6    6    0  502 -0.77491898470E+02 -0.37128362264E+03  0.43120357127E+03  0.57427610315E+03  0.00000000000E+00 0.  1.
<mgrwt>
<rscale>  0 0.19613964E+04</rscale>
<asrwt>0</asrwt>
<pdfrwt beam="1">  1        1 0.25721872E+00 0.19613964E+04</pdfrwt>
<pdfrwt beam="2">  1       -1 0.88499632E-01 0.19613964E+04</pdfrwt>
<totfact> 0.58111743E+00</totfact>
</mgrwt>
</event>
<event>
12    1  0.1663913E-007  0.1237693E+04  0.7818608E-02  0.9080489E-01
         -2   -1    0    0    0  501 -0.00000000000E+00  0.00000000000E+00  0.76032954493E+03  0.76032954493E+03  0.00000000000E+00 0. -1.
          2   -1    0    0  501    0  0.00000000000E+00 -0.00000000000E+00 -0.50369078071E+03  0.50369078071E+03  0.00000000000E+00 0.  1.
         23    2    1    2    0    0  0.60618354012E+02 -0.19328018146E+03 -0.13915053232E+03  0.26242728425E+03  0.92051048244E+02 0.  0.
        254    2    1    2    0    0 -0.60618354012E+02  0.19328018146E+03  0.39578929655E+03  0.10015930414E+04  0.89750077432E+03 0.  0.
        -24    2    4    4    0    0  0.32316649045E+02  0.48076127130E+03  0.47103727072E+03  0.67854264580E+03  0.79801290521E+02 0.  0.
         24    2    4    4    0    0 -0.92935003057E+02 -0.28748108984E+03 -0.75247974176E+02  0.32305039559E+03  0.86122056789E+02 0.  0.
         13    1    3    3    0    0  0.44138049454E+02 -0.58197501260E+02 -0.80806726381E+01  0.73487508005E+02  0.00000000000E+00 0. -1.
        -13    1    3    3    0    0  0.16480304557E+02 -0.13508268020E+03 -0.13106985968E+03  0.18893977624E+03  0.00000000000E+00 0.  1.
          2    1    6    6  502    0 -0.22533523525E+02 -0.13149439134E+03  0.61249180084E+01  0.13355167261E+03  0.00000000000E+00 0. -1.
          1    1    5    5  503    0 -0.21650093131E+02  0.55767165505E+02  0.63900136945E+02  0.87532455596E+02  0.00000000000E+00 0. -1.
         -2    1    5    5    0  503  0.53966742177E+02  0.42499410580E+03  0.40713713378E+03  0.59101019020E+03  0.00000000000E+00 0.  1.
         -1    1    6    6    0  502 -0.70401479532E+02 -0.15598669850E+03 -0.81372892184E+02  0.18949872298E+03  0.00000000000E+00 0.  1.
<mgrwt>
<rscale>  0 0.12376930E+04</rscale>
<asrwt>0</asrwt>
<pdfrwt beam="1">  1        2 0.77490890E-01 0.12376930E+04</pdfrwt>
<pdfrwt beam="2">  1       -2 0.11697378E+00 0.12376930E+04</pdfrwt>
<totfact> 0.33982307E+01</totfact>
</mgrwt>
</event>
<event>
12    1  0.1663913E-007  0.1363258E+04  0.7818608E-02  0.8980853E-01
          1   -1    0    0  501    0  0.00000000000E+00  0.00000000000E+00  0.32954815594E+04  0.32954815594E+04  0.00000000000E+00 0. -1.
         -1   -1    0    0    0  501 -0.00000000000E+00 -0.00000000000E+00 -0.14098631821E+03  0.14098631821E+03  0.00000000000E+00 0.  1.
         23    2    1    2    0    0 -0.20621606809E+03 -0.13861526234E+03  0.15764631264E+04  0.15982906862E+04  0.86936017777E+02 0.  0.
        254    2    1    2    0    0  0.20621606809E+03  0.13861526234E+03  0.15780321148E+04  0.18381771914E+04  0.90937933439E+03 0.  0.
        -24    2    4    4    0    0  0.50868558321E+03  0.63945607777E+01  0.54149050356E+03  0.74727252480E+03  0.80014673088E+02 0.  0.
         24    2    4    4    0    0 -0.30246951512E+03  0.13222070156E+03  0.10365416113E+04  0.10909046666E+04  0.81757924242E+02 0.  0.
         11    1    3    3    0    0 -0.77580905086E+02 -0.31899200908E+02  0.77883352592E+03  0.78333774130E+03  0.00000000000E+00 0. -1.
        -11    1    3    3    0    0 -0.12863516300E+03 -0.10671606143E+03  0.79762960047E+03  0.81495294494E+03  0.00000000000E+00 0.  1.
          2    1    6    6  502    0 -0.29591962577E+03  0.11250985537E+03  0.93148923778E+03  0.98381862788E+03  0.00000000000E+00 0. -1.
          3    1    5    5  503    0  0.46535506880E+03  0.22092833986E+02  0.51353617760E+03  0.69337063615E+03  0.00000000000E+00 0. -1.
         -4    1    5    5    0  503  0.43330514410E+02 -0.15698273208E+02  0.27954325964E+02  0.53901888657E+02  0.00000000000E+00 0.  1.
         -1    1    6    6    0  502 -0.65498893515E+01  0.19710846190E+02  0.10505237350E+03  0.10708603870E+03  0.00000000000E+00 0.  1.
<mgrwt>
<rscale>  0 0.13632576E+04</rscale>
<asrwt>0</asrwt>
<pdfrwt beam="1">  1        1 0.50699710E+00 0.13632576E+04</pdfrwt>
<pdfrwt beam="2">  1       -1 0.21690205E-01 0.13632576E+04</pdfrwt>
<totfact> 0.63595862E+00</totfact>
</mgrwt>
</event>
<event>
12    1  0.1663913E-007  0.1429821E+04  0.7818608E-02  0.8932511E-01
         -2   -1    0    0    0  501 -0.00000000000E+00  0.00000000000E+00  0.28703676967E+03  0.28703676967E+03  0.00000000000E+00 0.  1.
          2   -1    0    0  501    0  0.00000000000E+00 -0.00000000000E+00 -0.17805970772E+04  0.17805970772E+04  0.00000000000E+00 0. -1.
         23    2    1    2    0    0  0.17863041260E+03 -0.38432377656E+03 -0.42350729931E+03  0.60582523451E+03  0.89734010638E+02 0.  0.
        254    2    1    2    0    0 -0.17863041260E+03  0.38432377656E+03 -0.10700530082E+04  0.14618086123E+04  0.90125323255E+03 0.  0.
        -24    2    4    4    0    0 -0.32998556563E+03 -0.11169452691E+03 -0.12083778937E+03  0.37724177544E+03  0.79645746475E+02 0.  0.
         24    2    4    4    0    0  0.15135515303E+03  0.49601830347E+03 -0.94921521881E+03  0.10845668369E+04  0.79581105104E+02 0.  0.
         11    1    3    3    0    0  0.64428153606E+02 -0.14652515569E+03 -0.22288099053E+03  0.27440215773E+03  0.00000000000E+00 0.  1.
        -11    1    3    3    0    0  0.11420225899E+03 -0.23779862087E+03 -0.20062630878E+03  0.33142307678E+03  0.00000000000E+00 0. -1.
          2    1    6    6  502    0  0.78822060717E+02  0.15289132152E+03 -0.26970910119E+03  0.31989322081E+03  0.00000000000E+00 0. -1.
          3    1    5    5  503    0 -0.50396751411E+02 -0.38993158528E+02 -0.46678641664E+02  0.78988572290E+02  0.00000000000E+00 0. -1.
         -4    1    5    5    0  503 -0.27958881422E+03 -0.72701368384E+02 -0.74159147706E+02  0.29825320315E+03  0.00000000000E+00 0.  1.
         -1    1    6    6    0  502  0.72533092316E+02  0.34312698195E+03 -0.67950611762E+03  0.76467361607E+03  0.00000000000E+00 0.  1.
<mgrwt>
<rscale>  0 0.14298207E+04</rscale>
<asrwt>0</asrwt>
<pdfrwt beam="1">  1        2 0.27393801E+00 0.14298207E+04</pdfrwt>
<pdfrwt beam="2">  1       -2 0.44159503E-01 0.14298207E+04</pdfrwt>
<totfact> 0.41777599E+01</totfact>
</mgrwt>
</event>
<event>
12    1  0.1663913E-007  0.1349819E+04  0.7818608E-02  0.8990965E-01
          2   -1    0    0  501    0  0.00000000000E+00  0.00000000000E+00  0.23750540129E+03  0.23750540129E+03  0.00000000000E+00 0. -1.
         -2   -1    0    0    0  501 -0.00000000000E+00 -0.00000000000E+00 -0.19178633286E+04  0.19178633286E+04  0.00000000000E+00 0.  1.
         23    2    1    2    0    0  0.26016623829E+03  0.23996949336E+03 -0.56770092116E+03  0.67515459397E+03  0.90981100135E+02 0.  0.
        254    2    1    2    0    0 -0.26016623829E+03 -0.23996949336E+03 -0.11126570061E+04  0.14802141359E+04  0.90981121423E+03 0.  0.
        -24    2    4    4    0    0 -0.95869974984E+01 -0.53629566780E+03 -0.84135857407E+03  0.10009829674E+04  0.79860484844E+02 0.  0.
         24    2    4    4    0    0 -0.25057924080E+03  0.29632617444E+03 -0.27129843205E+03  0.47923116850E+03  0.73895304635E+02 0.  0.
         11    1    3    3    0    0  0.25640701701E+03  0.24733562983E+03 -0.54616745852E+03  0.65208769725E+03  0.00000000000E+00 0.  1.
        -11    1    3    3    0    0  0.37592212791E+01 -0.73661364694E+01 -0.21533462631E+02  0.23066896713E+02  0.00000000000E+00 0. -1.
          2    1    6    6  502    0 -0.76327171377E+02  0.69644193678E+02 -0.37590368540E+02  0.10995083724E+03  0.00000000000E+00 0. -1.
          1    1    5    5  503    0 -0.24374156094E+02 -0.36026052736E+03 -0.50167486623E+03  0.61810955216E+03  0.00000000000E+00 0. -1.
         -2    1    5    5    0  503  0.14787158596E+02 -0.17603514045E+03 -0.33968370783E+03  0.38287341524E+03  0.00000000000E+00 0.  1.
         -1    1    6    6    0  502 -0.17425206942E+03  0.22668198076E+03 -0.23370806351E+03  0.36928033125E+03  0.00000000000E+00 0.  1.
<mgrwt>
<rscale>  0 0.13498191E+04</rscale>
<asrwt>0</asrwt>
<pdfrwt beam="1">  1        2 0.36539293E-01 0.13498191E+04</pdfrwt>
<pdfrwt beam="2">  1       -2 0.29505589E+00 0.13498191E+04</pdfrwt>
<totfact> 0.47693669E+00</totfact>
</mgrwt>
</event>
<event>
12    1  0.1663913E-007  0.2993315E+04  0.7818608E-02  0.8245642E-01
         -1   -1    0    0    0  501 -0.00000000000E+00  0.00000000000E+00  0.12185133544E+04  0.12185133544E+04  0.00000000000E+00 0.  1.
          1   -1    0    0  501    0  0.00000000000E+00 -0.00000000000E+00 -0.18382921054E+04  0.18382921054E+04  0.00000000000E+00 0. -1.
         23    2    1    2    0    0  0.12132952683E+04 -0.56212303681E+03 -0.53355605738E+03  0.14425614802E+04  0.90740515288E+02 0.  0.
        254    2    1    2    0    0 -0.12132952683E+04  0.56212303681E+03 -0.86222693659E+02  0.16142439797E+04  0.90015640661E+03 0.  0.
        -24    2    4    4    0    0 -0.12643185601E+04  0.47486826873E+03 -0.28006578355E+03  0.13816066417E+04  0.79992344098E+02 0.  0.
         24    2    4    4    0    0  0.51023291820E+02  0.87254768085E+02  0.19384308989E+03  0.23263733798E+03  0.79550089002E+02 0.  0.
         11    1    3    3    0    0  0.36502124205E+03 -0.20291212201E+03 -0.19759962615E+03  0.46201671903E+03  0.00000000000E+00 0. -1.
        -11    1    3    3    0    0  0.84827402624E+03 -0.35921091480E+03 -0.33595643123E+03  0.98054476114E+03  0.00000000000E+00 0.  1.
          4    1    6    6  502    0  0.17535098764E+02  0.74907768435E+02  0.70908535729E+02  0.10462635375E+03  0.00000000000E+00 0. -1.
          3    1    5    5  503    0 -0.52381603184E+03  0.15848877547E+03 -0.96902955899E+02  0.55578063121E+03  0.00000000000E+00 0. -1.
         -4    1    5    5    0  503 -0.74050252827E+03  0.31637949326E+03 -0.18316282765E+03  0.82582601047E+03  0.00000000000E+00 0.  1.
         -3    1    6    6    0  502  0.33488193057E+02  0.12346999651E+02  0.12293455416E+03  0.12801098422E+03  0.00000000000E+00 0.  1.
<mgrwt>
<rscale>  0 0.29933149E+04</rscale>
<asrwt>0</asrwt>
<pdfrwt beam="1">  1        1 0.28281417E+00 0.29933149E+04</pdfrwt>
<pdfrwt beam="2">  1       -1 0.18746359E+00 0.29933149E+04</pdfrwt>
<totfact> 0.60162230E-01</totfact>
</mgrwt>
</event>
<event>
12    1  0.1663913E-007  0.1348076E+04  0.7818608E-02  0.8992286E-01
         -2   -1    0    0    0  501 -0.00000000000E+00  0.00000000000E+00  0.89405509232E+03  0.89405509232E+03  0.00000000000E+00 0.  1.
          2   -1    0    0  501    0  0.00000000000E+00 -0.00000000000E+00 -0.50816461590E+03  0.50816461590E+03  0.00000000000E+00 0. -1.
         23    2    1    2    0    0 -0.21557708068E+03 -0.29598351697E+03  0.99080874317E+02  0.38787150902E+03  0.80917042814E+02 0.  0.
        254    2    1    2    0    0  0.21557708068E+03  0.29598351697E+03  0.28680960210E+03  0.10143481992E+04  0.90142265410E+03 0.  0.
        -24    2    4    4    0    0 -0.25647399698E+03  0.16832452101E+03 -0.15281128430E+03  0.35192649916E+03  0.79930699372E+02 0.  0.
         24    2    4    4    0    0  0.47205107766E+03  0.12765899596E+03  0.43962088640E+03  0.66242170004E+03  0.80043399177E+02 0.  0.
         11    1    3    3    0    0 -0.87248111227E+02 -0.14750445326E+03  0.84510382567E+02  0.19108061494E+03  0.00000000000E+00 0. -1.
        -11    1    3    3    0    0 -0.12832896945E+03 -0.14847906371E+03  0.14570491749E+02  0.19679089407E+03  0.00000000000E+00 0.  1.
          4    1    6    6  502    0  0.37821997225E+03  0.69900566075E+02  0.32664500969E+03  0.50461212718E+03  0.00000000000E+00 0. -1.
          1    1    5    5  503    0 -0.25425754097E+03  0.16698429098E+03 -0.16041425349E+03  0.34389443627E+03  0.00000000000E+00 0. -1.
         -2    1    5    5    0  503 -0.22164560064E+01  0.13402300292E+01  0.76029691893E+01  0.80320628890E+01  0.00000000000E+00 0.  1.
         -3    1    6    6    0  502  0.93831105408E+02  0.57758429888E+02  0.11297587671E+03  0.15780957285E+03  0.00000000000E+00 0.  1.
<mgrwt>
<rscale>  0 0.13480759E+04</rscale>
<asrwt>0</asrwt>
<pdfrwt beam="1">  1        2 0.78179172E-01 0.13480759E+04</pdfrwt>
<pdfrwt beam="2">  1       -2 0.13754694E+00 0.13480759E+04</pdfrwt>
<totfact> 0.22181648E+01</totfact>
</mgrwt>
</event>
<event>
12    1  0.1663913E-007  0.1754929E+04  0.7818608E-02  0.8730642E-01
         -1   -1    0    0    0  501 -0.00000000000E+00  0.00000000000E+00  0.98286430360E+03  0.98286430360E+03  0.00000000000E+00 0.  1.
          1   -1    0    0  501    0  0.00000000000E+00 -0.00000000000E+00 -0.78336775362E+03  0.78336775362E+03  0.00000000000E+00 0. -1.
         23    2    1    2    0    0  0.56647175943E+03 -0.22689439667E+03  0.29568497770E+03  0.68361707944E+03  0.86783545655E+02 0.  0.
        254    2    1    2    0    0 -0.56647175943E+03  0.22689439667E+03 -0.96188427718E+02  0.10826149778E+04  0.88906223349E+03 0.  0.
        -24    2    4    4    0    0 -0.32717728436E+03 -0.31919049608E+03  0.37456128571E+02  0.46612926076E+03  0.83342534033E+02 0.  0.
         24    2    4    4    0    0 -0.23929447506E+03  0.54608489274E+03 -0.13364455629E+03  0.61648571702E+03  0.81995219278E+02 0.  0.
         13    1    3    3    0    0  0.42999335457E+03 -0.20430902250E+03  0.25140287648E+03  0.53836778131E+03  0.00000000000E+00 0.  1.
        -13    1    3    3    0    0  0.13647840486E+03 -0.22585374166E+02  0.44282101218E+02  0.14524929813E+03  0.00000000000E+00 0. -1.
          4    1    6    6  502    0 -0.63507941257E+02  0.13293091109E+03 -0.69633855365E+02  0.16295017502E+03  0.00000000000E+00 0. -1.
          3    1    5    5  503    0 -0.32939327505E+02 -0.36691702699E+02 -0.21866563500E+02  0.53939104022E+02  0.00000000000E+00 0. -1.
         -4    1    5    5    0  503 -0.29423795686E+03 -0.28249879338E+03  0.59322692071E+02  0.41219015674E+03  0.00000000000E+00 0.  1.
         -3    1    6    6    0  502 -0.17578653381E+03  0.41315398166E+03 -0.64010700924E+02  0.45353554200E+03  0.00000000000E+00 0.  1.
<mgrwt>
<rscale>  0 0.17549293E+04</rscale>
<asrwt>0</asrwt>
<pdfrwt beam="1">  1        1 0.12051812E+00 0.17549293E+04</pdfrwt>
<pdfrwt beam="2">  1       -1 0.15120989E+00 0.17549293E+04</pdfrwt>
<totfact> 0.73950377E+00</totfact>
</mgrwt>
</event>
<event>
12    1  0.1663913E-007  0.1552587E+04  0.7818608E-02  0.8850217E-01
         -1   -1    0    0    0  501 -0.00000000000E+00  0.00000000000E+00  0.30212906125E+03  0.30212906125E+03  0.00000000000E+00 0.  1.
          1   -1    0    0  501    0  0.00000000000E+00 -0.00000000000E+00 -0.19946156494E+04  0.19946156494E+04  0.00000000000E+00 0. -1.
         23    2    1    2    0    0  0.49716091209E+03 -0.24412498895E+03 -0.53235537663E+03  0.77372885943E+03  0.92130983684E+02 0.  0.
        254    2    1    2    0    0 -0.49716091209E+03  0.24412498895E+03 -0.11601312115E+04  0.15230158512E+04  0.81664366303E+03 0.  0.
        -24    2    4    4    0    0 -0.41476584184E+03  0.39913089278E+03 -0.32415917747E+03  0.66510987524E+03  0.77173834125E+02 0.  0.
         24    2    4    4    0    0 -0.82395070250E+02 -0.15500590384E+03 -0.83597203407E+03  0.85790597599E+03  0.79609321430E+02 0.  0.
         13    1    3    3    0    0  0.12998353989E+03 -0.79730909939E+02 -0.95847428796E+02  0.18010960065E+03  0.00000000000E+00 0. -1.
        -13    1    3    3    0    0  0.36717737220E+03 -0.16439407901E+03 -0.43650794783E+03  0.59361925878E+03  0.00000000000E+00 0.  1.
          2    1    6    6  502    0 -0.55014109483E+02 -0.45817431615E+02 -0.20936914079E+03  0.22127183824E+03  0.00000000000E+00 0. -1.
          1    1    5    5  503    0 -0.40989873820E+03  0.40045646739E+03 -0.32651656595E+03  0.65954183013E+03  0.00000000000E+00 0. -1.
         -2    1    5    5    0  503 -0.48671036387E+01 -0.13255746104E+01  0.23573884790E+01  0.55680451075E+01  0.00000000000E+00 0.  1.
         -1    1    6    6    0  502 -0.27380960766E+02 -0.10918847222E+03 -0.62660289328E+03  0.63663413775E+03  0.00000000000E+00 0.  1.
<mgrwt>
<rscale>  0 0.15525867E+04</rscale>
<asrwt>0</asrwt>
<pdfrwt beam="1">  1        1 0.30686395E+00 0.15525867E+04</pdfrwt>
<pdfrwt beam="2">  1       -1 0.46481393E-01 0.15525867E+04</pdfrwt>
<totfact> 0.13347742E+01</totfact>
</mgrwt>
</event>
<event>
12    1  0.1663913E-007  0.1710017E+04  0.7818608E-02  0.8755672E-01
          3   -1    0    0  501    0  0.00000000000E+00  0.00000000000E+00  0.10165735349E+04  0.10165735349E+04  0.00000000000E+00 0. -1.
         -3   -1    0    0    0  501 -0.00000000000E+00 -0.00000000000E+00 -0.71912125314E+03  0.71912125314E+03  0.00000000000E+00 0.  1.
         23    2    1    2    0    0  0.43997621634E+03  0.30881853653E+03 -0.19737242919E+03  0.57991177466E+03  0.91617853788E+02 0.  0.
        254    2    1    2    0    0 -0.43997621634E+03 -0.30881853653E+03  0.49482471097E+03  0.11557830134E+04  0.89556402342E+03 0.  0.
        -24    2    4    4    0    0 -0.36903354478E+03  0.25490137497E+03  0.12179472729E+03  0.47146633201E+03  0.79284793524E+02 0.  0.
         24    2    4    4    0    0 -0.70942671559E+02 -0.56371991151E+03  0.37302998369E+03  0.68431668140E+03  0.79529557033E+02 0.  0.
         11    1    3    3    0    0  0.53161154740E+02  0.59374106804E+02 -0.15331390874E+01  0.79710372271E+02  0.00000000000E+00 0. -1.
        -11    1    3    3    0    0  0.38681506160E+03  0.24944442973E+03 -0.19583929011E+03  0.50020140239E+03  0.00000000000E+00 0.  1.
          2    1    6    6  502    0 -0.74711528643E+02 -0.27645341849E+03  0.19042049880E+03  0.34390154328E+03  0.00000000000E+00 0. -1.
          3    1    5    5  503    0 -0.12987302559E+03  0.13391813676E+03  0.64539057565E+02  0.19739898703E+03  0.00000000000E+00 0. -1.
         -4    1    5    5    0  503 -0.23916051918E+03  0.12098323822E+03  0.57255669723E+02  0.27406734498E+03  0.00000000000E+00 0.  1.
         -1    1    6    6    0  502  0.37688570840E+01 -0.28726649301E+03  0.18260948489E+03  0.34041513812E+03  0.00000000000E+00 0.  1.
<mgrwt>
<rscale>  0 0.17100171E+04</rscale>
<asrwt>0</asrwt>
<pdfrwt beam="1">  1        3 0.15639593E+00 0.17100171E+04</pdfrwt>
<pdfrwt beam="2">  1       -3 0.11063404E+00 0.17100171E+04</pdfrwt>
<totfact> 0.49656325E-01</totfact>
</mgrwt>
</event>
<event>
12    1  0.1663913E-007  0.2272341E+04  0.7818608E-02  0.8488907E-01
          2   -1    0    0  501    0  0.00000000000E+00  0.00000000000E+00  0.23732615012E+04  0.23732615012E+04  0.00000000000E+00 0. -1.
         -2   -1    0    0    0  501 -0.00000000000E+00 -0.00000000000E+00 -0.54392779930E+03  0.54392779930E+03  0.00000000000E+00 0.  1.
         23    2    1    2    0    0  0.63522714391E+03  0.18925187515E+03 -0.10911890630E+03  0.67770654378E+03  0.89718599835E+02 0.  0.
        254    2    1    2    0    0 -0.63522714391E+03 -0.18925187515E+03  0.19384526082E+04  0.22394827568E+04  0.90462959649E+03 0.  0.
        -24    2    4    4    0    0  0.13198950800E+03  0.18875407624E+03  0.61721372751E+03  0.66367441580E+03  0.80384160386E+02 0.  0.
         24    2    4    4    0    0 -0.76721665191E+03 -0.37800595139E+03  0.13212388807E+04  0.15758083410E+04  0.77394167959E+02 0.  0.
         13    1    3    3    0    0  0.14350212470E+03  0.57960244062E+02 -0.61485751735E+02  0.16653152060E+03  0.00000000000E+00 0. -1.
        -13    1    3    3    0    0  0.49172501921E+03  0.13129163109E+03 -0.47633154569E+02  0.51117502318E+03  0.00000000000E+00 0.  1.
          4    1    6    6  502    0 -0.44734542850E+03 -0.17968945928E+03  0.76367435866E+03  0.90310838788E+03  0.00000000000E+00 0. -1.
          1    1    5    5  503    0  0.93012325131E+02  0.86175829033E+02  0.41054446576E+03  0.42967932753E+03  0.00000000000E+00 0. -1.
         -2    1    5    5    0  503  0.38977182870E+02  0.10257824721E+03  0.20666926175E+03  0.23399508828E+03  0.00000000000E+00 0.  1.
         -3    1    6    6    0  502 -0.31987122341E+03 -0.19831649212E+03  0.55756452206E+03  0.67269995308E+03  0.00000000000E+00 0.  1.
<mgrwt>
<rscale>  0 0.22723406E+04</rscale>
<asrwt>0</asrwt>
<pdfrwt beam="1">  1        2 0.36511715E+00 0.22723406E+04</pdfrwt>
<pdfrwt beam="2">  1       -2 0.83681201E-01 0.22723406E+04</pdfrwt>
<totfact> 0.46716863E+00</totfact>
</mgrwt>
</event>
<event>
12    1  0.1663913E-007  0.2465148E+04  0.7818608E-02  0.8415508E-01
          2   -1    0    0  501    0  0.00000000000E+00  0.00000000000E+00  0.21096358815E+04  0.21096358815E+04  0.00000000000E+00 0. -1.
         -2   -1    0    0    0  501 -0.00000000000E+00 -0.00000000000E+00 -0.72014255814E+03  0.72014255814E+03  0.00000000000E+00 0.  1.
         23    2    1    2    0    0 -0.30830831893E+03  0.30813208547E+03  0.17305786353E+04  0.17869029216E+04  0.90112354755E+02 0.  0.
        254    2    1    2    0    0  0.30830831893E+03 -0.30813208547E+03 -0.34108531190E+03  0.10428755181E+04  0.88388390340E+03 0.  0.
        -24    2    4    4    0    0  0.42310783417E+03  0.18786295810E+03 -0.17978401084E+03  0.50289527351E+03  0.79174713128E+02 0.  0.
         24    2    4    4    0    0 -0.11479951524E+03 -0.49599504357E+03 -0.16130130106E+03  0.53998024462E+03  0.79815680856E+02 0.  0.
         11    1    3    3    0    0 -0.23451011977E+03  0.28059113453E+03  0.13853300169E+04  0.14327824806E+04  0.00000000000E+00 0. -1.
        -11    1    3    3    0    0 -0.73798199167E+02  0.27540950941E+02  0.34524861844E+03  0.35412044097E+03  0.00000000000E+00 0.  1.
          2    1    6    6  502    0 -0.62936024217E+02 -0.20666511553E+03 -0.30232754892E+02  0.21814085493E+03  0.00000000000E+00 0. -1.
          3    1    5    5  503    0  0.98533352351E+02  0.30753086145E+02 -0.74309051138E+02  0.12718651231E+03  0.00000000000E+00 0. -1.
         -4    1    5    5    0  503  0.32457448182E+03  0.15710987196E+03 -0.10547495970E+03  0.37570876119E+03  0.00000000000E+00 0.  1.
         -1    1    6    6    0  502 -0.51863491021E+02 -0.28932992804E+03 -0.13106854617E+03  0.32183938969E+03  0.00000000000E+00 0.  1.
<mgrwt>
<rscale>  0 0.24651479E+04</rscale>
<asrwt>0</asrwt>
<pdfrwt beam="1">  1        2 0.32455936E+00 0.24651479E+04</pdfrwt>
<pdfrwt beam="2">  1       -2 0.11079116E+00 0.24651479E+04</pdfrwt>
<totfact> 0.33514005E+00</totfact>
</mgrwt>
</event>
<event>
12    1  0.1663913E-007  0.1378236E+04  0.7818608E-02  0.8969725E-01
          2   -1    0    0  501    0  0.00000000000E+00  0.00000000000E+00  0.65501190704E+03  0.65501190704E+03  0.00000000000E+00 0. -1.
         -2   -1    0    0    0  501 -0.00000000000E+00 -0.00000000000E+00 -0.72500038626E+03  0.72500038626E+03  0.00000000000E+00 0.  1.
         23    2    1    2    0    0 -0.44012474841E+02  0.18610457690E+03 -0.35998483099E+03  0.41746539124E+03  0.90090303862E+02 0.  0.
        254    2    1    2    0    0  0.44012474841E+02 -0.18610457690E+03  0.28999635177E+03  0.96254690206E+03  0.89767847426E+03 0.  0.
        -24    2    4    4    0    0  0.33261860925E+03 -0.17287402285E+03 -0.16648818438E+03  0.41658493224E+03  0.72829411874E+02 0.  0.
         24    2    4    4    0    0 -0.28860613441E+03 -0.13230554046E+02  0.45648453615E+03  0.54596196982E+03  0.78916363070E+02 0.  0.
         11    1    3    3    0    0 -0.36057163844E+02  0.28277272220E+02 -0.13470828588E+03  0.14228859924E+03  0.00000000000E+00 0.  1.
        -11    1    3    3    0    0 -0.79553109971E+01  0.15782730468E+03 -0.22527654512E+03  0.27517679200E+03  0.00000000000E+00 0. -1.
          2    1    6    6  502    0 -0.16225681514E+03 -0.17820770554E+02  0.18653390066E+03  0.24787042990E+03  0.00000000000E+00 0. -1.
          3    1    5    5  503    0  0.76596307147E+02 -0.15170384006E+02 -0.13622745109E+02  0.79263572994E+02  0.00000000000E+00 0. -1.
         -4    1    5    5    0  503  0.25602230211E+03 -0.15770363885E+03 -0.15286543927E+03  0.33732135925E+03  0.00000000000E+00 0.  1.
         -1    1    6    6    0  502 -0.12634931927E+03  0.45902165080E+01  0.26995063549E+03  0.29809153992E+03  0.00000000000E+00 0.  1.
<mgrwt>
<rscale>  0 0.13782364E+04</rscale>
<asrwt>0</asrwt>
<pdfrwt beam="1">  1        2 0.10077106E+00 0.13782364E+04</pdfrwt>
<pdfrwt beam="2">  1       -2 0.11153852E+00 0.13782364E+04</pdfrwt>
<totfact> 0.27579216E+01</totfact>
</mgrwt>
</event>
<event>
12    1  0.1663913E-007  0.2867081E+04  0.7818608E-02  0.8282740E-01
         -1   -1    0    0    0  501 -0.00000000000E+00  0.00000000000E+00  0.98316567462E+03  0.98316567462E+03  0.00000000000E+00 0.  1.
          1   -1    0    0  501    0  0.00000000000E+00 -0.00000000000E+00 -0.20902253932E+04  0.20902253932E+04  0.00000000000E+00 0. -1.
         23    2    1    2    0    0  0.26662881894E+03 -0.61010135264E+03 -0.17042271547E+04  0.18319194449E+04  0.90686658306E+02 0.  0.
        254    2    1    2    0    0 -0.26662881894E+03  0.61010135264E+03  0.59716743616E+03  0.12414716229E+04  0.86100421379E+03 0.  0.
        -24    2    4    4    0    0  0.75082343898E+02  0.70121695371E+03  0.49303034947E+03  0.86417219895E+03  0.79825368165E+02 0.  0.
         24    2    4    4    0    0 -0.34171116284E+03 -0.91115601069E+02  0.10413708669E+03  0.37729942398E+03  0.80260519254E+02 0.  0.
         13    1    3    3    0    0  0.25970415145E+03 -0.57663686397E+03 -0.15520438146E+04  0.16759463958E+04  0.00000000000E+00 0.  1.
        -13    1    3    3    0    0  0.69246674874E+01 -0.33464488673E+02 -0.15218334016E+03  0.15597304910E+03  0.00000000000E+00 0. -1.
          4    1    6    6  502    0 -0.32631368439E+03 -0.74184647503E+02  0.80064915291E+02  0.34408483432E+03  0.00000000000E+00 0. -1.
          3    1    5    5  503    0  0.46879464413E+02  0.55682931517E+03  0.35230413867E+03  0.66058669116E+03  0.00000000000E+00 0. -1.
         -4    1    5    5    0  503  0.28202879485E+02  0.14438763854E+03  0.14072621081E+03  0.20358550779E+03  0.00000000000E+00 0.  1.
         -3    1    6    6    0  502 -0.15397478445E+02 -0.16930953566E+02  0.24072171397E+02  0.33214589669E+02  0.00000000000E+00 0.  1.
<mgrwt>
<rscale>  0 0.28670806E+04</rscale>
<asrwt>0</asrwt>
<pdfrwt beam="1">  1        1 0.32157313E+00 0.28670806E+04</pdfrwt>
<pdfrwt beam="2">  1       -1 0.15125626E+00 0.28670806E+04</pdfrwt>
<totfact> 0.75973658E-01</totfact>
</mgrwt>
</event>
<event>
12    1  0.1663913E-007  0.2559963E+04  0.7818608E-02  0.8381929E-01
          1   -1    0    0  501    0  0.00000000000E+00  0.00000000000E+00  0.26821221311E+04  0.26821221311E+04  0.00000000000E+00 0. -1.
         -1   -1    0    0    0  501 -0.00000000000E+00 -0.00000000000E+00 -0.61084194322E+03  0.61084194322E+03  0.00000000000E+00 0.  1.
         23    2    1    2    0    0  0.52242092123E+02  0.35429303332E+03 -0.44882610770E+03  0.58123307432E+03  0.90189922279E+02 0.  0.
        254    2    1    2    0    0 -0.52242092123E+02 -0.35429303332E+03  0.25201062956E+04  0.27117310000E+04  0.93503822688E+03 0.  0.
        -24    2    4    4    0    0  0.38215798427E+02 -0.35838546212E+03  0.26779836026E+03  0.45600863999E+03  0.79544523843E+02 0.  0.
         24    2    4    4    0    0 -0.90457890551E+02  0.40924288080E+01  0.22523079353E+04  0.22557223600E+04  0.84811273130E+02 0.  0.
         13    1    3    3    0    0  0.14086444345E+02  0.23395549894E+03 -0.34848852660E+03  0.41997363795E+03  0.00000000000E+00 0.  1.
        -13    1    3    3    0    0  0.38155647778E+02  0.12033753438E+03 -0.10033758110E+03  0.16125943637E+03  0.00000000000E+00 0. -1.
          2    1    6    6  502    0 -0.45240454697E+01  0.24194670511E+02  0.10025946701E+04  0.10028967652E+04  0.00000000000E+00 0. -1.
          1    1    5    5  503    0  0.91051329483E+01 -0.30460667917E+03  0.19901136743E+03  0.36396930751E+03  0.00000000000E+00 0. -1.
         -2    1    5    5    0  503  0.29110665479E+02 -0.53778782952E+02  0.68786992829E+02  0.92039332478E+02  0.00000000000E+00 0.  1.
         -1    1    6    6    0  502 -0.85933845081E+02 -0.20102241703E+02  0.12497132652E+04  0.12528255949E+04  0.00000000000E+00 0.  1.
<mgrwt>
<rscale>  0 0.25599630E+04</rscale>
<asrwt>0</asrwt>
<pdfrwt beam="1">  1        1 0.41263417E+00 0.25599630E+04</pdfrwt>
<pdfrwt beam="2">  1       -1 0.93975685E-01 0.25599630E+04</pdfrwt>
<totfact> 0.97931655E-01</totfact>
</mgrwt>
</event>
<event>
12    1  0.1663913E-007  0.1627504E+04  0.7818608E-02  0.8803827E-01
         -2   -1    0    0    0  501 -0.00000000000E+00  0.00000000000E+00  0.64235198465E+03  0.64235198465E+03  0.00000000000E+00 0.  1.
          2   -1    0    0  501    0  0.00000000000E+00 -0.00000000000E+00 -0.10308869360E+04  0.10308869360E+04  0.00000000000E+00 0. -1.
         23    2    1    2    0    0 -0.86307604797E+02  0.29536948249E+03 -0.63200146028E+03  0.70860785392E+03  0.89482462086E+02 0.  0.
        254    2    1    2    0    0  0.86307604797E+02 -0.29536948249E+03  0.24346650898E+03  0.96463106668E+03  0.88121791856E+03 0.  0.
        -24    2    4    4    0    0 -0.29809814609E+03 -0.26092244894E+03  0.37312505622E+03  0.54976665305E+03  0.77961760875E+02 0.  0.
         24    2    4    4    0    0  0.38440575088E+03 -0.34447033544E+02 -0.12965854724E+03  0.41486441364E+03  0.79666576395E+02 0.  0.
         13    1    3    3    0    0 -0.57816094206E+02  0.11850959427E+03 -0.18621319969E+03  0.22817226041E+03  0.00000000000E+00 0.  1.
        -13    1    3    3    0    0 -0.28491510591E+02  0.17685988822E+03 -0.44578826059E+03  0.48043559351E+03  0.00000000000E+00 0. -1.
          2    1    6    6  502    0  0.20722065312E+03  0.21097397256E+02 -0.73294744207E+02  0.22081127412E+03  0.00000000000E+00 0. -1.
          1    1    5    5  503    0 -0.27420011856E+03 -0.25941324274E+03  0.33466677108E+03  0.50446286602E+03  0.00000000000E+00 0. -1.
         -2    1    5    5    0  503 -0.23898027523E+02 -0.15092062034E+01  0.38458285139E+02  0.45303787023E+02  0.00000000000E+00 0.  1.
         -1    1    6    6    0  502  0.17718509776E+03 -0.55544430800E+02 -0.56363803038E+02  0.19405313951E+03  0.00000000000E+00 0.  1.
<mgrwt>
<rscale>  0 0.16275039E+04</rscale>
<asrwt>0</asrwt>
<pdfrwt beam="1">  1        2 0.15859799E+00 0.16275039E+04</pdfrwt>
<pdfrwt beam="2">  1       -2 0.98823382E-01 0.16275039E+04</pdfrwt>
<totfact> 0.19568611E+01</totfact>
</mgrwt>
</event>
<event>
12    1  0.1663913E-007  0.1419211E+04  0.7818608E-02  0.8940029E-01
          1   -1    0    0  501    0  0.00000000000E+00  0.00000000000E+00  0.93410497475E+03  0.93410497475E+03  0.00000000000E+00 0. -1.
         -1   -1    0    0    0  501 -0.00000000000E+00 -0.00000000000E+00 -0.53906125755E+03  0.53906125755E+03  0.00000000000E+00 0.  1.
         23    2    1    2    0    0 -0.53773450040E+02 -0.35414875497E+03  0.35701865932E+03  0.51382253986E+03  0.90765383176E+02 0.  0.
        254    2    1    2    0    0  0.53773450040E+02  0.35414875497E+03  0.38025057875E+02  0.95934369245E+03  0.88914649560E+03 0.  0.
        -24    2    4    4    0    0  0.42087489281E+03  0.26476458778E+03  0.19894245102E+03  0.54139426293E+03  0.79332759757E+02 0.  0.
         24    2    4    4    0    0 -0.36710144277E+03  0.89384167199E+02 -0.16091739314E+03  0.41794942952E+03  0.77680883018E+02 0.  0.
         11    1    3    3    0    0 -0.66705269162E+01 -0.26074968176E+03  0.28768502655E+03  0.38832662408E+03  0.00000000000E+00 0. -1.
        -11    1    3    3    0    0 -0.47102923124E+02 -0.93399073215E+02  0.69333632775E+02  0.12549591578E+03  0.00000000000E+00 0.  1.
          4    1    6    6  502    0 -0.30774617896E+03  0.43709277898E+02 -0.12971410409E+03  0.33681443028E+03  0.00000000000E+00 0. -1.
          3    1    5    5  503    0  0.32279363208E+03  0.24006999600E+03  0.15473979039E+03  0.43101477309E+03  0.00000000000E+00 0. -1.
         -4    1    5    5    0  503  0.98081260730E+02  0.24694591775E+02  0.44202660630E+02  0.11037948983E+03  0.00000000000E+00 0.  1.
         -3    1    6    6    0  502 -0.59355263811E+02  0.45674889301E+02 -0.31203289049E+02  0.81134999243E+02  0.00000000000E+00 0.  1.
<mgrwt>
<rscale>  0 0.14192108E+04</rscale>
<asrwt>0</asrwt>
<pdfrwt beam="1">  1        1 0.14370846E+00 0.14192108E+04</pdfrwt>
<pdfrwt beam="2">  1       -1 0.82932501E-01 0.14192108E+04</pdfrwt>
<totfact> 0.24005179E+01</totfact>
</mgrwt>
</event>
<event>
12    1  0.1663913E-007  0.1709812E+04  0.7818608E-02  0.8755788E-01
          2   -1    0    0  501    0  0.00000000000E+00  0.00000000000E+00  0.21591605651E+04  0.21591605651E+04  0.00000000000E+00 0. -1.
         -2   -1    0    0    0  501 -0.00000000000E+00 -0.00000000000E+00 -0.33849474376E+03  0.33849474376E+03  0.00000000000E+00 0.  1.
         23    2    1    2    0    0 -0.28646143230E+03 -0.41719454119E+03  0.15081172733E+03  0.54001712787E+03  0.11297293438E+03 0.  0.
        254    2    1    2    0    0  0.28646143230E+03  0.41719454119E+03  0.16698540940E+04  0.19576381810E+04  0.88759400347E+03 0.  0.
        -24    2    4    4    0    0  0.33327329472E+03  0.18646944937E+03  0.16634830305E+04  0.17086777186E+04  0.81004992016E+02 0.  0.
         24    2    4    4    0    0 -0.46811862420E+02  0.23072509182E+03  0.63710635433E+01  0.24896046243E+03  0.80717426522E+02 0.  0.
         13    1    3    3    0    0 -0.12164836312E+03 -0.26858286352E+03  0.63951371892E+02  0.30170325949E+03  0.00000000000E+00 0. -1.
        -13    1    3    3    0    0 -0.16481306918E+03 -0.14861167768E+03  0.86860355436E+02  0.23831386838E+03  0.00000000000E+00 0.  1.
          2    1    6    6  502    0 -0.12112846529E+02  0.88613566712E+02  0.41375223802E+02  0.98544377826E+02  0.00000000000E+00 0. -1.
          3    1    5    5  503    0  0.16017476006E+03  0.60739711849E+02  0.87948912008E+03  0.89601695224E+03  0.00000000000E+00 0. -1.
         -4    1    5    5    0  503  0.17309853465E+03  0.12572973752E+03  0.78399391038E+03  0.81266076632E+03  0.00000000000E+00 0.  1.
         -3    1    6    6    0  502 -0.34699015891E+02  0.14211152511E+03 -0.35004160259E+02  0.15041608460E+03  0.00000000000E+00 0.  1.
<mgrwt>
<rscale>  0 0.17098123E+04</rscale>
<asrwt>0</asrwt>
<pdfrwt beam="1">  1        2 0.33217854E+00 0.17098123E+04</pdfrwt>
<pdfrwt beam="2">  1       -2 0.52076116E-01 0.17098123E+04</pdfrwt>
<totfact> 0.18027423E+01</totfact>
</mgrwt>
</event>
<event>
12    1  0.1663913E-007  0.1327097E+04  0.7818608E-02  0.9008348E-01
          1   -1    0    0  501    0  0.00000000000E+00  0.00000000000E+00  0.14276247206E+04  0.14276247206E+04  0.00000000000E+00 0. -1.
         -1   -1    0    0    0  501 -0.00000000000E+00 -0.00000000000E+00 -0.30841217789E+03  0.30841217789E+03  0.00000000000E+00 0.  1.
         23    2    1    2    0    0  0.10921434449E+03 -0.17720677598E+03 -0.62015402812E+02  0.23315938031E+03  0.84778369555E+02 0.  0.
        254    2    1    2    0    0 -0.10921434449E+03  0.17720677598E+03  0.11812279455E+04  0.15028775182E+04  0.90554478678E+03 0.  0.
        -24    2    4    4    0    0 -0.29298960547E+03  0.39826815526E+03  0.10756945235E+04  0.11865234489E+04  0.79112289078E+02 0.  0.
         24    2    4    4    0    0  0.18377526099E+03 -0.22106137928E+03  0.10553342195E+03  0.31635406931E+03  0.79379556945E+02 0.  0.
         11    1    3    3    0    0  0.55684987424E+02 -0.12920524394E+03 -0.39638836791E+01  0.14074986770E+03  0.00000000000E+00 0. -1.
        -11    1    3    3    0    0  0.53529357061E+02 -0.48001532048E+02 -0.58051519133E+02  0.92409512605E+02  0.00000000000E+00 0.  1.
          4    1    6    6  502    0  0.25706558738E+02 -0.29949088260E+02  0.47288327079E+02  0.61595137208E+02  0.00000000000E+00 0. -1.
          3    1    5    5  503    0 -0.19071289532E+03  0.31683795401E+03  0.78070141581E+03  0.86385901523E+03  0.00000000000E+00 0. -1.
         -4    1    5    5    0  503 -0.10227671015E+03  0.81430201244E+02  0.29499310774E+03  0.32266443362E+03  0.00000000000E+00 0.  1.
         -3    1    6    6    0  502  0.15806870225E+03 -0.19111229102E+03  0.58245094872E+02  0.25475893210E+03  0.00000000000E+00 0.  1.
<mgrwt>
<rscale>  0 0.13270974E+04</rscale>
<asrwt>0</asrwt>
<pdfrwt beam="1">  1        1 0.21963457E+00 0.13270974E+04</pdfrwt>
<pdfrwt beam="2">  1       -1 0.47448028E-01 0.13270974E+04</pdfrwt>
<totfact> 0.31934581E+01</totfact>
</mgrwt>
</event>
<event>
12    1  0.1663913E-007  0.1710220E+04  0.7818608E-02  0.8755557E-01
          2   -1    0    0  501    0  0.00000000000E+00  0.00000000000E+00  0.10709585109E+04  0.10709585109E+04  0.00000000000E+00 0. -1.
         -2   -1    0    0    0  501 -0.00000000000E+00 -0.00000000000E+00 -0.68276473858E+03  0.68276473858E+03  0.00000000000E+00 0.  1.
         23    2    1    2    0    0 -0.16934979860E+02  0.54847774414E+03  0.42839368440E+03  0.70348841095E+03  0.10129247823E+03 0.  0.
        254    2    1    2    0    0  0.16934979860E+02 -0.54847774414E+03 -0.40199912121E+02  0.10502348385E+04  0.89457395092E+03 0.  0.
        -24    2    4    4    0    0 -0.85503061304E+02 -0.74370219305E+03  0.12430282493E+03  0.76322336452E+03  0.81578100167E+02 0.  0.
         24    2    4    4    0    0  0.10243804116E+03  0.19522444891E+03 -0.16450273705E+03  0.28701147396E+03  0.81904199900E+02 0.  0.
         11    1    3    3    0    0 -0.43887337174E+02  0.46649763082E+03  0.38731251634E+03  0.60791210157E+03  0.00000000000E+00 0.  1.
        -11    1    3    3    0    0  0.26952357315E+02  0.81980113325E+02  0.41081168059E+02  0.95576309380E+02  0.00000000000E+00 0. -1.
          4    1    6    6  502    0 -0.54396809314E+01  0.11502832417E+01 -0.23119112203E+02  0.23778280619E+02  0.00000000000E+00 0. -1.
          3    1    5    5  503    0  0.32333169424E+01 -0.23792025580E+02 -0.91418110384E+01  0.25692168626E+02  0.00000000000E+00 0. -1.
         -4    1    5    5    0  503 -0.88736378246E+02 -0.71991016747E+03  0.13344463596E+03  0.73753119590E+03  0.00000000000E+00 0.  1.
         -1    1    6    6    0  502  0.10787772210E+03  0.19407416566E+03 -0.14138362484E+03  0.26323319334E+03  0.00000000000E+00 0.  1.
<mgrwt>
<rscale>  0 0.17102195E+04</rscale>
<asrwt>0</asrwt>
<pdfrwt beam="1">  1        2 0.16476285E+00 0.17102195E+04</pdfrwt>
<pdfrwt beam="2">  1       -2 0.10504073E+00 0.17102195E+04</pdfrwt>
<totfact> 0.15860416E+01</totfact>
</mgrwt>
</event>
<event>
12    1  0.1663913E-007  0.1422875E+04  0.7818608E-02  0.8937425E-01
         -2   -1    0    0    0  501 -0.00000000000E+00  0.00000000000E+00  0.18169097961E+03  0.18169097961E+03  0.00000000000E+00 0.  1.
          2   -1    0    0  501    0  0.00000000000E+00 -0.00000000000E+00 -0.27857376343E+04  0.27857376343E+04  0.00000000000E+00 0. -1.
         23    2    1    2    0    0  0.16954343809E+03  0.70134384711E+02 -0.15809291837E+04  0.15941029930E+04  0.90351862801E+02 0.  0.
        254    2    1    2    0    0 -0.16954343809E+03 -0.70134384711E+02 -0.10231174710E+04  0.13733256209E+04  0.89754670758E+03 0.  0.
        -24    2    4    4    0    0 -0.25245274362E+03 -0.23536328926E+03 -0.25864839819E+02  0.35594706727E+03  0.83072613213E+02 0.  0.
         24    2    4    4    0    0  0.82909305531E+02  0.16522890455E+03 -0.99725263119E+03  0.10173785537E+04  0.79823349785E+02 0.  0.
         11    1    3    3    0    0  0.50204381373E+02  0.68737688588E+02 -0.67563518731E+03  0.68097595852E+03  0.00000000000E+00 0. -1.
        -11    1    3    3    0    0  0.11933905672E+03  0.13966961228E+01 -0.90529399638E+03  0.91312703448E+03  0.00000000000E+00 0.  1.
          2    1    6    6  502    0  0.83541017622E+02  0.16215136325E+03 -0.99767123627E+03  0.10142090819E+04  0.00000000000E+00 0. -1.
          1    1    5    5  503    0 -0.22994961621E+03 -0.18218933892E+03 -0.17703273588E+01  0.29338185914E+03  0.00000000000E+00 0. -1.
         -2    1    5    5    0  503 -0.22503127410E+02 -0.53173950341E+02 -0.24094512460E+02  0.62565208133E+02  0.00000000000E+00 0.  1.
         -1    1    6    6    0  502 -0.63171209098E+00  0.30775413060E+01  0.41860508001E+00  0.31694717019E+01  0.00000000000E+00 0.  1.
<mgrwt>
<rscale>  0 0.14228751E+04</rscale>
<asrwt>0</asrwt>
<pdfrwt beam="1">  1        2 0.42857504E+00 0.14228751E+04</pdfrwt>
<pdfrwt beam="2">  1       -2 0.27952457E-01 0.14228751E+04</pdfrwt>
<totfact> 0.26968372E+01</totfact>
</mgrwt>
</event>
<event>
12    1  0.1663913E-007  0.1519232E+04  0.7818608E-02  0.8871764E-01
          2   -1    0    0  501    0  0.00000000000E+00  0.00000000000E+00  0.43634191741E+04  0.43634191741E+04  0.00000000000E+00 0. -1.
         -2   -1    0    0    0  501 -0.00000000000E+00 -0.00000000000E+00 -0.13223955584E+03  0.13223955584E+03  0.00000000000E+00 0.  1.
         23    2    1    2    0    0 -0.46420794867E+03 -0.52619684702E+01  0.99689937280E+03  0.11033687347E+04  0.89986094795E+02 0.  0.
        254    2    1    2    0    0  0.46420794867E+03  0.52619684702E+01  0.32342802454E+04  0.33922899952E+04  0.91189143972E+03 0.  0.
        -24    2    4    4    0    0  0.14561590190E+03 -0.43656198221E+03  0.16625914436E+04  0.17270128194E+04  0.81071663824E+02 0.  0.
         24    2    4    4    0    0  0.31859204677E+03  0.44182395068E+03  0.15716888018E+04  0.16652771759E+04  0.78949902086E+02 0.  0.
         11    1    3    3    0    0 -0.24545963694E+03 -0.14726748326E+02  0.62741144660E+03  0.67387864917E+03  0.00000000000E+00 0.  1.
        -11    1    3    3    0    0 -0.21874831173E+03  0.94647798554E+01  0.36948792621E+03  0.42949008552E+03  0.00000000000E+00 0. -1.
          4    1    6    6  502    0  0.27803493290E+03  0.33149618651E+03  0.12538821594E+04  0.13264288957E+04  0.00000000000E+00 0. -1.
          1    1    5    5  503    0  0.10181693175E+03 -0.30695237153E+03  0.10208599259E+04  0.10708601376E+04  0.00000000000E+00 0. -1.
         -2    1    5    5    0  503  0.43798970155E+02 -0.12960961068E+03  0.64173151774E+03  0.65615268180E+03  0.00000000000E+00 0.  1.
         -3    1    6    6    0  502  0.40557113866E+02  0.11032776417E+03  0.31780664239E+03  0.33884828018E+03  0.00000000000E+00 0.  1.
<mgrwt>
<rscale>  0 0.15192322E+04</rscale>
<asrwt>0</asrwt>
<pdfrwt beam="1">  1        2 0.67129515E+00 0.15192322E+04</pdfrwt>
<pdfrwt beam="2">  1       -2 0.20344550E-01 0.15192322E+04</pdfrwt>
<totfact> 0.34270727E+00</totfact>
</mgrwt>
</event>
<event>
12    1  0.1663913E-007  0.1933192E+04  0.7818608E-02  0.8638509E-01
         -2   -1    0    0    0  501 -0.00000000000E+00  0.00000000000E+00  0.10964106732E+04  0.10964106732E+04  0.00000000000E+00 0.  1.
          2   -1    0    0  501    0  0.00000000000E+00 -0.00000000000E+00 -0.85215134371E+03  0.85215134371E+03  0.00000000000E+00 0. -1.
         23    2    1    2    0    0 -0.29135243677E+03 -0.18695562117E+03 -0.58166071318E+03  0.68394961930E+03  0.98077774178E+02 0.  0.
        254    2    1    2    0    0  0.29135243677E+03  0.18695562117E+03  0.82592004272E+03  0.12646123977E+04  0.89289526410E+03 0.  0.
        -24    2    4    4    0    0 -0.77919088992E+02 -0.24534161232E+03  0.58282694465E+03  0.64222154414E+03  0.80606285049E+02 0.  0.
         24    2    4    4    0    0  0.36927152576E+03  0.43229723350E+03  0.24309309807E+03  0.62239085351E+03  0.70949012550E+02 0.  0.
         11    1    3    3    0    0 -0.61434466506E+02  0.37150372965E+00 -0.12755758632E+03  0.14158131769E+03  0.00000000000E+00 0.  1.
        -11    1    3    3    0    0 -0.22991797026E+03 -0.18732712490E+03 -0.45410312686E+03  0.54236830161E+03  0.00000000000E+00 0. -1.
          4    1    6    6  502    0  0.23454938212E+03  0.31910414433E+03  0.15152669287E+03  0.42402972329E+03  0.00000000000E+00 0. -1.
          1    1    5    5  503    0  0.14028049752E+02 -0.51020041340E+02  0.14756413913E+03  0.15676417306E+03  0.00000000000E+00 0. -1.
         -2    1    5    5    0  503 -0.91947138744E+02 -0.19432157098E+03  0.43526280552E+03  0.48545737108E+03  0.00000000000E+00 0.  1.
         -3    1    6    6    0  502  0.13472214364E+03  0.11319308917E+03  0.91566405198E+02  0.19836113022E+03  0.00000000000E+00 0.  1.
<mgrwt>
<rscale>  0 0.19331920E+04</rscale>
<asrwt>0</asrwt>
<pdfrwt beam="1">  1        2 0.13110021E+00 0.19331920E+04</pdfrwt>
<pdfrwt beam="2">  1       -2 0.16867856E+00 0.19331920E+04</pdfrwt>
<totfact> 0.64324673E+00</totfact>
</mgrwt>
</event>
<event>
12    1  0.1887049E-007  0.1483687E+04  0.7818608E-02  0.8895374E-01
          1   -1    0    0  501    0  0.00000000000E+00  0.00000000000E+00  0.96960577395E+03  0.96960577395E+03  0.00000000000E+00 0. -1.
         -1   -1    0    0    0  501 -0.00000000000E+00 -0.00000000000E+00 -0.56758278592E+03  0.56758278592E+03  0.00000000000E+00 0.  1.
         23    2    1    2    0    0  0.38693946408E+03 -0.12043919336E+03 -0.94105273557E+02  0.42660599788E+03  0.94388170639E+02 0.  0.
        254    2    1    2    0    0 -0.38693946408E+03  0.12043919336E+03  0.49612826158E+03  0.11105825620E+04  0.90720594515E+03 0.  0.
        -24    2    4    4    0    0 -0.46539397560E+03  0.34581532366E+03  0.60006458855E+03  0.83834971452E+03  0.81073687447E+02 0.  0.
         24    2    4    4    0    0  0.78454511528E+02 -0.22537613030E+03 -0.10393632697E+03  0.27223284747E+03  0.79739906506E+02 0.  0.
         11    1    3    3    0    0 -0.31393743793E+01 -0.90431214862E+01 -0.65306158654E+01  0.11588039579E+02  0.00000000000E+00 0. -1.
        -11    1    3    3    0    0  0.39007883846E+03 -0.11139607187E+03 -0.87574657691E+02  0.41501795830E+03  0.00000000000E+00 0.  1.
          2    1    6    6  502    0  0.52756613067E+02 -0.21232516510E+03 -0.10644504703E+03  0.24330183722E+03  0.00000000000E+00 0. -1.
          3    1    5    5  503    0 -0.33582702119E+03  0.28459181167E+03  0.48115069117E+03  0.65213363282E+03  0.00000000000E+00 0. -1.
         -4    1    5    5    0  503 -0.12956695441E+03  0.61223511991E+02  0.11891389738E+03  0.18621608171E+03  0.00000000000E+00 0.  1.
         -1    1    6    6    0  502  0.25697898462E+02 -0.13050965203E+02  0.25087200555E+01  0.28931010255E+02  0.00000000000E+00 0.  1.
<mgrwt>
<rscale>  0 0.14836867E+04</rscale>
<asrwt>0</asrwt>
<pdfrwt beam="1">  1        1 0.14917012E+00 0.14836867E+04</pdfrwt>
<pdfrwt beam="2">  1       -1 0.87320428E-01 0.14836867E+04</pdfrwt>
<totfact> 0.19999426E+01</totfact>
</mgrwt>
</event>
<event>
12    1  0.1663913E-007  0.1315120E+04  0.7818608E-02  0.9017660E-01
         -1   -1    0    0    0  501 -0.00000000000E+00  0.00000000000E+00  0.36073094365E+03  0.36073094365E+03  0.00000000000E+00 0.  1.
          1   -1    0    0  501    0  0.00000000000E+00 -0.00000000000E+00 -0.11986357976E+04  0.11986357976E+04  0.00000000000E+00 0. -1.
         23    2    1    2    0    0 -0.22521254714E+03  0.10791475721E+03 -0.49230859932E+03  0.55931166693E+03  0.89974983107E+02 0.  0.
        254    2    1    2    0    0  0.22521254714E+03 -0.10791475721E+03 -0.34559625460E+03  0.10000550743E+04  0.90460328001E+03 0.  0.
        -24    2    4    4    0    0  0.76990214832E+02 -0.49945218614E+03 -0.17001723281E+03  0.53889294228E+03  0.78228922855E+02 0.  0.
         24    2    4    4    0    0  0.14822233231E+03  0.39153742893E+03 -0.17557902179E+03  0.46116213201E+03  0.81062328231E+02 0.  0.
         11    1    3    3    0    0 -0.20782756431E+03  0.10107814976E+03 -0.37476570522E+03  0.44029356418E+03  0.00000000000E+00 0. -1.
        -11    1    3    3    0    0 -0.17384982829E+02  0.68366074524E+01 -0.11754289410E+03  0.11901810275E+03  0.00000000000E+00 0.  1.
          2    1    6    6  502    0  0.79944321569E+02  0.17876550428E+03 -0.40253662666E+02  0.19992137812E+03  0.00000000000E+00 0. -1.
          1    1    5    5  503    0  0.67735696628E+02 -0.49650558805E+03 -0.17007659683E+03  0.52918047238E+03  0.00000000000E+00 0. -1.
         -2    1    5    5    0  503  0.92545182038E+01 -0.29465980910E+01  0.59364020700E-01  0.97124699012E+01  0.00000000000E+00 0.  1.
         -1    1    6    6    0  502  0.68278010738E+02  0.21277192465E+03 -0.13532535913E+03  0.26124075389E+03  0.00000000000E+00 0.  1.
<mgrwt>
<rscale>  0 0.13151198E+04</rscale>
<asrwt>0</asrwt>
<pdfrwt beam="1">  1        1 0.18440550E+00 0.13151198E+04</pdfrwt>
<pdfrwt beam="2">  1       -1 0.55497069E-01 0.13151198E+04</pdfrwt>
<totfact> 0.34505443E+01</totfact>
</mgrwt>
</event>
<event>
12    1  0.1663913E-007  0.1297942E+04  0.7818608E-02  0.9031199E-01
          2   -1    0    0  501    0  0.00000000000E+00  0.00000000000E+00  0.48367223995E+03  0.48367223995E+03  0.00000000000E+00 0. -1.
         -2   -1    0    0    0  501 -0.00000000000E+00 -0.00000000000E+00 -0.87076131945E+03  0.87076131945E+03  0.00000000000E+00 0.  1.
         23    2    1    2    0    0 -0.94255158144E+02  0.22192087266E+03  0.12261517736E+03  0.28731897905E+03  0.96875205524E+02 0.  0.
        254    2    1    2    0    0  0.94255158144E+02 -0.22192087266E+03 -0.50970425686E+03  0.10671145803E+04  0.90598134062E+03 0.  0.
        -24    2    4    4    0    0  0.29538803828E+03 -0.49952741917E+03 -0.32528151308E+03  0.66960817482E+03  0.76061221252E+02 0.  0.
         24    2    4    4    0    0 -0.20113288014E+03  0.27760654651E+03 -0.18442274378E+03  0.39750640552E+03  0.80496980501E+02 0.  0.
         13    1    3    3    0    0 -0.44134466210E+01 -0.97698448856E+01  0.93439154050E+01  0.14221010346E+02  0.00000000000E+00 0.  1.
        -13    1    3    3    0    0 -0.89841711523E+02  0.23169071755E+03  0.11327126195E+03  0.27309796871E+03  0.00000000000E+00 0. -1.
          4    1    6    6  502    0 -0.20636557620E+03  0.25215717031E+03 -0.17507998227E+03  0.36989591748E+03  0.00000000000E+00 0. -1.
          1    1    5    5  503    0  0.20720583910E+03 -0.33344175725E+03 -0.25857157562E+03  0.47008182794E+03  0.00000000000E+00 0. -1.
         -4    1    5    5    0  503  0.88182199177E+02 -0.16608566191E+03 -0.66709937458E+02  0.19952634688E+03  0.00000000000E+00 0.  1.
         -3    1    6    6    0  502  0.52326960640E+01  0.25449376198E+02 -0.93427615105E+01  0.27610488037E+02  0.00000000000E+00 0.  1.
<mgrwt>
<rscale>  0 0.12979416E+04</rscale>
<asrwt>0</asrwt>
<pdfrwt beam="1">  1        2 0.74411114E-01 0.12979416E+04</pdfrwt>
<pdfrwt beam="2">  1       -2 0.13396328E+00 0.12979416E+04</pdfrwt>
<totfact> 0.25228548E+01</totfact>
</mgrwt>
</event>
<event>
12    1  0.1663913E-007  0.2785619E+04  0.7818608E-02  0.8307747E-01
          1   -1    0    0  501    0  0.00000000000E+00  0.00000000000E+00  0.12452149159E+04  0.12452149159E+04  0.00000000000E+00 0. -1.
         -1   -1    0    0    0  501 -0.00000000000E+00 -0.00000000000E+00 -0.15578984373E+04  0.15578984373E+04  0.00000000000E+00 0.  1.
         23    2    1    2    0    0 -0.44936811700E+03 -0.66971135519E+03 -0.10987477288E+04  0.13660181033E+04  0.91180498729E+02 0.  0.
        254    2    1    2    0    0  0.44936811700E+03  0.66971135519E+03  0.78606420733E+03  0.14370952499E+04  0.89269301293E+03 0.  0.
        -24    2    4    4    0    0  0.57622158736E+03  0.65151440164E+03  0.89513056422E+03  0.12506376037E+04  0.79582381773E+02 0.  0.
         24    2    4    4    0    0 -0.12685347036E+03  0.18196953543E+02 -0.10906635689E+03  0.18645764618E+03  0.80299760616E+02 0.  0.
         11    1    3    3    0    0 -0.34898343547E+02 -0.60569269675E+02 -0.14372047873E+03  0.15981898141E+03  0.00000000000E+00 0. -1.
        -11    1    3    3    0    0 -0.41446977345E+03 -0.60914208551E+03 -0.95502725004E+03  0.12061991219E+04  0.00000000000E+00 0.  1.
          4    1    6    6  502    0 -0.21296208978E+02 -0.58854441679E+01  0.11086671432E+02  0.24720057713E+02  0.00000000000E+00 0. -1.
          3    1    5    5  503    0  0.65831227946E+02  0.73771148466E+02  0.68238515630E+02  0.12013504041E+03  0.00000000000E+00 0. -1.
         -4    1    5    5    0  503  0.51039035941E+03  0.57774325318E+03  0.82689204859E+03  0.11305025633E+04  0.00000000000E+00 0.  1.
         -1    1    6    6    0  502 -0.10555726138E+03  0.24082397711E+02 -0.12015302832E+03  0.16173758847E+03  0.00000000000E+00 0.  1.
<mgrwt>
<rscale>  0 0.27856190E+04</rscale>
<asrwt>0</asrwt>
<pdfrwt beam="1">  1        1 0.19157153E+00 0.27856190E+04</pdfrwt>
<pdfrwt beam="2">  1       -1 0.23967668E+00 0.27856190E+04</pdfrwt>
<totfact> 0.69950443E-01</totfact>
</mgrwt>
</event>
<event>
12    1  0.1663913E-007  0.1631731E+04  0.7818608E-02  0.8801288E-01
          2   -1    0    0  501    0  0.00000000000E+00  0.00000000000E+00  0.15815086272E+04  0.15815086272E+04  0.00000000000E+00 0. -1.
         -2   -1    0    0    0  501 -0.00000000000E+00 -0.00000000000E+00 -0.42088696478E+03  0.42088696478E+03  0.00000000000E+00 0.  1.
         23    2    1    2    0    0  0.91923382955E+02 -0.44120969486E+03 -0.10703864567E+02  0.46009594554E+03  0.91966315659E+02 0.  0.
        254    2    1    2    0    0 -0.91923382955E+02  0.44120969486E+03  0.11713255270E+04  0.15422996464E+04  0.89641999421E+03 0.  0.
        -24    2    4    4    0    0  0.23702739323E+03 -0.15098255084E+03  0.53333311867E+03  0.60832146151E+03  0.81443657016E+02 0.  0.
         24    2    4    4    0    0 -0.32895077618E+03  0.59219224569E+03  0.63799240829E+03  0.93397818490E+03  0.79879082422E+02 0.  0.
         13    1    3    3    0    0  0.22741917021E+02 -0.64506215372E+02  0.30485748429E+02  0.74884093563E+02  0.00000000000E+00 0. -1.
        -13    1    3    3    0    0  0.69181465934E+02 -0.37670347948E+03 -0.41189612996E+02  0.38521185198E+03  0.00000000000E+00 0.  1.
          2    1    6    6  502    0 -0.12318316519E+03  0.16009842353E+03  0.21846064681E+03  0.29754100828E+03  0.00000000000E+00 0. -1.
          1    1    5    5  503    0  0.16101061912E+02 -0.44425041121E+02  0.81724154573E+02  0.94401620293E+02  0.00000000000E+00 0. -1.
         -2    1    5    5    0  503  0.22092633132E+03 -0.10655750972E+03  0.45160896409E+03  0.51391984122E+03  0.00000000000E+00 0.  1.
         -1    1    6    6    0  502 -0.20576761099E+03  0.43209382216E+03  0.41953176149E+03  0.63643717662E+03  0.00000000000E+00 0.  1.
<mgrwt>
<rscale>  0 0.16317308E+04</rscale>
<asrwt>0</asrwt>
<pdfrwt beam="1">  1        2 0.24330902E+00 0.16317308E+04</pdfrwt>
<pdfrwt beam="2">  1       -2 0.64751842E-01 0.16317308E+04</pdfrwt>
<totfact> 0.24046550E+01</totfact>
</mgrwt>
</event>
<event>
12    1  0.1663913E-007  0.1529936E+04  0.7818608E-02  0.8864787E-01
         -1   -1    0    0    0  501 -0.00000000000E+00  0.00000000000E+00  0.21625966085E+04  0.21625966085E+04  0.00000000000E+00 0.  1.
          1   -1    0    0  501    0  0.00000000000E+00 -0.00000000000E+00 -0.27058937337E+03  0.27058937337E+03  0.00000000000E+00 0. -1.
         23    2    1    2    0    0  0.15343736836E+03 -0.39789939416E+03  0.10125864046E+04  0.11023939700E+04  0.89857021910E+02 0.  0.
        254    2    1    2    0    0 -0.15343736836E+03  0.39789939416E+03  0.87942083055E+03  0.13307920119E+04  0.90319401452E+03 0.  0.
        -24    2    4    4    0    0  0.36491550045E+03  0.79743325327E+02  0.38862605496E+03  0.54544056954E+03  0.83383954703E+02 0.  0.
         24    2    4    4    0    0 -0.51835286881E+03  0.31815606884E+03  0.49079477559E+03  0.78535144237E+03  0.77358874989E+02 0.  0.
         11    1    3    3    0    0  0.53588920458E+02 -0.20933482278E+03  0.60328346529E+03  0.64081493422E+03  0.00000000000E+00 0. -1.
        -11    1    3    3    0    0  0.99848447905E+02 -0.18856457138E+03  0.40930293933E+03  0.46157903578E+03  0.00000000000E+00 0.  1.
          2    1    6    6  502    0 -0.40761292097E+03  0.28548998269E+03  0.39828649977E+03  0.63740486306E+03  0.00000000000E+00 0. -1.
          1    1    5    5  503    0  0.15832572253E+03  0.18371376573E+02  0.22065452287E+03  0.27220022108E+03  0.00000000000E+00 0. -1.
         -2    1    5    5    0  503  0.20658977792E+03  0.61371948755E+02  0.16797153210E+03  0.27324034846E+03  0.00000000000E+00 0.  1.
         -1    1    6    6    0  502 -0.11073994785E+03  0.32666086142E+02  0.92508275823E+02  0.14794657931E+03  0.00000000000E+00 0.  1.
<mgrwt>
<rscale>  0 0.15299355E+04</rscale>
<asrwt>0</asrwt>
<pdfrwt beam="1">  1        1 0.41629136E-01 0.15299355E+04</pdfrwt>
<pdfrwt beam="2">  1       -1 0.33270716E+00 0.15299355E+04</pdfrwt>
<totfact> 0.19638003E+00</totfact>
</mgrwt>
</event>
<event>
12    1  0.1663913E-007  0.1806317E+04  0.7818608E-02  0.8702947E-01
         -2   -1    0    0    0  501 -0.00000000000E+00  0.00000000000E+00  0.37329186655E+03  0.37329186655E+03  0.00000000000E+00 0.  1.
          2   -1    0    0  501    0  0.00000000000E+00 -0.00000000000E+00 -0.21851417078E+04  0.21851417078E+04  0.00000000000E+00 0. -1.
         23    2    1    2    0    0  0.44088601271E+03  0.49498739548E+03 -0.52597002939E+03  0.85073756713E+03  0.87846106456E+02 0.  0.
        254    2    1    2    0    0 -0.44088601271E+03 -0.49498739548E+03 -0.12858798119E+04  0.17076960072E+04  0.90738402267E+03 0.  0.
        -24    2    4    4    0    0  0.10933306495E+03 -0.26843154733E+03 -0.14932388510E+02  0.30212452091E+03  0.83946621232E+02 0.  0.
         24    2    4    4    0    0 -0.55021907766E+03 -0.22655584815E+03 -0.12709474233E+04  0.14055714863E+04  0.79090229577E+02 0.  0.
         13    1    3    3    0    0  0.64191262766E+02  0.35739387530E+02 -0.42541219834E+02  0.84897452385E+02  0.00000000000E+00 0.  1.
        -13    1    3    3    0    0  0.37669474995E+03  0.45924800795E+03 -0.48342880955E+03  0.76584011474E+03  0.00000000000E+00 0. -1.
          2    1    6    6  502    0 -0.41873777145E+03 -0.20723422952E+03 -0.97565556938E+03  0.10817537322E+04  0.00000000000E+00 0. -1.
          3    1    5    5  503    0  0.83786152948E+02 -0.24995889728E+03  0.69988191136E+01  0.26372059689E+03  0.00000000000E+00 0. -1.
         -4    1    5    5    0  503  0.25546911999E+02 -0.18472650056E+02 -0.21931207623E+02  0.38403924026E+02  0.00000000000E+00 0.  1.
         -1    1    6    6    0  502 -0.13148130622E+03 -0.19321618630E+02 -0.29529185397E+03  0.32381775407E+03  0.00000000000E+00 0.  1.
<mgrwt>
<rscale>  0 0.18063174E+04</rscale>
<asrwt>0</asrwt>
<pdfrwt beam="1">  1        2 0.33617564E+00 0.18063174E+04</pdfrwt>
<pdfrwt beam="2">  1       -2 0.57429519E-01 0.18063174E+04</pdfrwt>
<totfact> 0.14112293E+01</totfact>
</mgrwt>
</event>
<event>
12    1  0.1663913E-007  0.1496436E+04  0.7818608E-02  0.8886827E-01
         -2   -1    0    0    0  501 -0.00000000000E+00  0.00000000000E+00  0.37910653481E+03  0.37910653481E+03  0.00000000000E+00 0.  1.
          2   -1    0    0  501    0  0.00000000000E+00 -0.00000000000E+00 -0.14767090119E+04  0.14767090119E+04  0.00000000000E+00 0. -1.
         23    2    1    2    0    0  0.92250061599E+01  0.45426260498E+03 -0.22876153388E+03  0.51681313914E+03  0.91237965640E+02 0.  0.
        254    2    1    2    0    0 -0.92250061599E+01 -0.45426260498E+03 -0.86884094317E+03  0.13390024075E+04  0.91192282997E+03 0.  0.
        -24    2    4    4    0    0  0.21243243706E+02 -0.71932648027E+03 -0.73052627168E+03  0.10283474837E+04  0.77123621529E+02 0.  0.
         24    2    4    4    0    0 -0.30468249866E+02  0.26506387528E+03 -0.13831467150E+03  0.31065492384E+03  0.78666137093E+02 0.  0.
         11    1    3    3    0    0  0.13551067192E+02  0.34341601443E+03 -0.21410357838E+03  0.40491793325E+03  0.00000000000E+00 0.  1.
        -11    1    3    3    0    0 -0.43260610322E+01  0.11084659055E+03 -0.14657955499E+02  0.11189520589E+03  0.00000000000E+00 0. -1.
          4    1    6    6  502    0  0.10569967325E+02  0.12235985535E+03 -0.97072442878E+02  0.15654621547E+03  0.00000000000E+00 0. -1.
          1    1    5    5  503    0 -0.15383694012E+02 -0.50034118949E+03 -0.47880305731E+03  0.69269786461E+03  0.00000000000E+00 0. -1.
         -2    1    5    5    0  503  0.36626937718E+02 -0.21898529077E+03 -0.25172321437E+03  0.33564961908E+03  0.00000000000E+00 0.  1.
         -3    1    6    6    0  502 -0.41038217191E+02  0.14270401993E+03 -0.41242228617E+02  0.15410870837E+03  0.00000000000E+00 0.  1.
<mgrwt>
<rscale>  0 0.14964358E+04</rscale>
<asrwt>0</asrwt>
<pdfrwt beam="1">  1        2 0.22718600E+00 0.14964358E+04</pdfrwt>
<pdfrwt beam="2">  1       -2 0.58324082E-01 0.14964358E+04</pdfrwt>
<totfact> 0.34766274E+01</totfact>
</mgrwt>
</event>
<event>
12    1  0.1663913E-007  0.2150228E+04  0.7818608E-02  0.8539434E-01
          2   -1    0    0  501    0  0.00000000000E+00  0.00000000000E+00  0.33098827750E+03  0.33098827750E+03  0.00000000000E+00 0. -1.
         -2   -1    0    0    0  501 -0.00000000000E+00 -0.00000000000E+00 -0.34921800109E+04  0.34921800109E+04  0.00000000000E+00 0.  1.
         23    2    1    2    0    0 -0.77428047639E+03 -0.39017754081E+03 -0.10132692358E+04  0.13366584758E+04  0.90512801044E+02 0.  0.
        254    2    1    2    0    0  0.77428047639E+03  0.39017754081E+03 -0.21479224977E+04  0.24865098127E+04  0.90410797097E+03 0.  0.
        -24    2    4    4    0    0  0.51026658125E+02  0.30355140782E+03 -0.14146171199E+04  0.14499168176E+04  0.79812312248E+02 0.  0.
         24    2    4    4    0    0  0.72325381827E+03  0.86626132987E+02 -0.73330537780E+03  0.10365929951E+04  0.78664399596E+02 0.  0.
         11    1    3    3    0    0 -0.57988499137E+03 -0.27481459848E+03 -0.80323153453E+03  0.10280907376E+04  0.00000000000E+00 0. -1.
        -11    1    3    3    0    0 -0.19439548502E+03 -0.11536294232E+03 -0.21003770125E+03  0.30856773811E+03  0.00000000000E+00 0.  1.
          2    1    6    6  502    0  0.65752757250E+03  0.55602448006E+02 -0.66568582915E+03  0.93732159047E+03  0.00000000000E+00 0. -1.
          3    1    5    5  503    0  0.58997529943E+02  0.27330377342E+03 -0.13425233652E+04  0.13713295181E+04  0.00000000000E+00 0. -1.
         -4    1    5    5    0  503 -0.79708718176E+01  0.30247634399E+02 -0.72093754609E+02  0.78587299469E+02  0.00000000000E+00 0.  1.
         -1    1    6    6    0  502  0.65726245763E+02  0.31023684982E+02 -0.67619548648E+02  0.99271404600E+02  0.00000000000E+00 0.  1.
<mgrwt>
<rscale>  0 0.21502285E+04</rscale>
<asrwt>0</asrwt>
<pdfrwt beam="1">  1        2 0.50921273E-01 0.21502285E+04</pdfrwt>
<pdfrwt beam="2">  1       -2 0.53725847E+00 0.21502285E+04</pdfrwt>
<totfact> 0.89160647E-02</totfact>
</mgrwt>
</event>
<event>
12    1  0.1663913E-007  0.2979455E+04  0.7818608E-02  0.8249622E-01
          1   -1    0    0  501    0  0.00000000000E+00  0.00000000000E+00  0.18586174261E+04  0.18586174261E+04  0.00000000000E+00 0. -1.
         -1   -1    0    0    0  501 -0.00000000000E+00 -0.00000000000E+00 -0.11940531791E+04  0.11940531791E+04  0.00000000000E+00 0.  1.
         23    2    1    2    0    0 -0.49992201919E+03  0.11193139664E+03 -0.98217165915E+03  0.11115451846E+04  0.91765279708E+02 0.  0.
        254    2    1    2    0    0  0.49992201919E+03 -0.11193139664E+03  0.16467359062E+04  0.19411254206E+04  0.89094224888E+03 0.  0.
        -24    2    4    4    0    0 -0.15640120263E+03 -0.27719150226E+03  0.37556786340E+03  0.49881798355E+03  0.80446849420E+02 0.  0.
         24    2    4    4    0    0  0.65632322182E+03  0.16526010562E+03  0.12711680428E+04  0.14423074370E+04  0.79444797685E+02 0.  0.
         13    1    3    3    0    0 -0.34192622851E+03  0.32272668667E+02 -0.65656935240E+03  0.74097124465E+03  0.00000000000E+00 0.  1.
        -13    1    3    3    0    0 -0.15799579068E+03  0.79658727970E+02 -0.32560230675E+03  0.37057393995E+03  0.00000000000E+00 0. -1.
          4    1    6    6  502    0  0.10162436698E+03  0.20565366872E+02  0.26055373325E+03  0.28042591569E+03  0.00000000000E+00 0. -1.
          3    1    5    5  503    0  0.60301495128E+01 -0.23279984969E+02  0.47898067075E+02  0.53596130764E+02  0.00000000000E+00 0. -1.
         -4    1    5    5    0  503 -0.16243135215E+03 -0.25391151729E+03  0.32766979633E+03  0.44522185279E+03  0.00000000000E+00 0.  1.
         -3    1    6    6    0  502  0.55469885483E+03  0.14469473875E+03  0.10106143096E+04  0.11618815214E+04  0.00000000000E+00 0.  1.
<mgrwt>
<rscale>  0 0.29794550E+04</rscale>
<asrwt>0</asrwt>
<pdfrwt beam="1">  1        1 0.28594114E+00 0.29794550E+04</pdfrwt>
<pdfrwt beam="2">  1       -1 0.18370049E+00 0.29794550E+04</pdfrwt>
<totfact> 0.62048088E-01</totfact>
</mgrwt>
</event>
<event>
12    1  0.1663913E-007  0.2889474E+04  0.7818608E-02  0.8276016E-01
         -1   -1    0    0    0  501 -0.00000000000E+00  0.00000000000E+00  0.21911680084E+04  0.21911680084E+04  0.00000000000E+00 0.  1.
          1   -1    0    0  501    0  0.00000000000E+00 -0.00000000000E+00 -0.95258097446E+03  0.95258097446E+03  0.00000000000E+00 0. -1.
         23    2    1    2    0    0 -0.55227261149E+03  0.94551463645E+02  0.18472962212E+04  0.19325390306E+04  0.90877716594E+02 0.  0.
        254    2    1    2    0    0  0.55227261149E+03 -0.94551463645E+02 -0.60870918732E+03  0.12112099522E+04  0.88462288961E+03 0.  0.
        -24    2    4    4    0    0  0.24420470114E+03 -0.47346394946E+03 -0.41678180902E+03  0.68114882379E+03  0.80328054402E+02 0.  0.
         24    2    4    4    0    0  0.30806791035E+03  0.37891248581E+03 -0.19192737830E+03  0.53006112837E+03  0.75154321112E+02 0.  0.
         11    1    3    3    0    0 -0.42970768044E+03  0.35906121521E+02  0.14401245915E+04  0.15032953068E+04  0.00000000000E+00 0.  1.
        -11    1    3    3    0    0 -0.12256493105E+03  0.58645342124E+02  0.40717162967E+03  0.42924372388E+03  0.00000000000E+00 0. -1.
          4    1    6    6  502    0  0.28497559258E+03  0.36355935475E+03 -0.16265114296E+03  0.48973654867E+03  0.00000000000E+00 0. -1.
          1    1    5    5  503    0  0.14116027217E+03 -0.35044763622E+03 -0.30545058159E+03  0.48583930056E+03  0.00000000000E+00 0. -1.
         -2    1    5    5    0  503  0.10304442897E+03 -0.12301631324E+03 -0.11133122744E+03  0.19530952324E+03  0.00000000000E+00 0.  1.
         -3    1    6    6    0  502  0.23092317769E+02  0.15353131063E+02 -0.29276235331E+02  0.40324579707E+02  0.00000000000E+00 0.  1.
<mgrwt>
<rscale>  0 0.28894740E+04</rscale>
<asrwt>0</asrwt>
<pdfrwt beam="1">  1        1 0.14655092E+00 0.28894740E+04</pdfrwt>
<pdfrwt beam="2">  1       -1 0.33710277E+00 0.28894740E+04</pdfrwt>
<totfact> 0.26791161E-01</totfact>
</mgrwt>
</event>
<event>
12    1  0.1663913E-007  0.2712207E+04  0.7818608E-02  0.8331055E-01
          2   -1    0    0  501    0  0.00000000000E+00  0.00000000000E+00  0.45044327049E+03  0.45044327049E+03  0.00000000000E+00 0. -1.
         -2   -1    0    0    0  501 -0.00000000000E+00 -0.00000000000E+00 -0.40826813388E+04  0.40826813388E+04  0.00000000000E+00 0.  1.
         23    2    1    2    0    0  0.74998637775E+03  0.85447085897E+02 -0.31815031641E+04  0.32710450824E+04  0.89402328175E+02 0.  0.
        254    2    1    2    0    0 -0.74998637775E+03 -0.85447085897E+02 -0.45073490417E+03  0.12620795269E+04  0.90548440467E+03 0.  0.
        -24    2    4    4    0    0 -0.57006999381E+03 -0.36835598045E+02  0.17588241476E+03  0.60341319571E+03  0.82681326825E+02 0.  0.
         24    2    4    4    0    0 -0.17991638394E+03 -0.48611487853E+02 -0.62661731893E+03  0.65866633120E+03  0.80368460925E+02 0.  0.
         13    1    3    3    0    0  0.35148077599E+01 -0.67069224358E+01 -0.22641510542E+02  0.23874142535E+02  0.00000000000E+00 0. -1.
        -13    1    3    3    0    0  0.74647156999E+03  0.92154008333E+02 -0.31588616536E+04  0.32471709399E+04  0.00000000000E+00 0.  1.
          4    1    6    6  502    0 -0.18213508913E+03 -0.36246504995E+02 -0.61113973785E+03  0.63873216530E+03  0.00000000000E+00 0. -1.
          1    1    5    5  503    0 -0.48177195812E+03 -0.38650600416E+02  0.17804245592E+03  0.51507009684E+03  0.00000000000E+00 0. -1.
         -2    1    5    5    0  503 -0.88298035689E+02  0.18150023717E+01 -0.21600411632E+01  0.88343098870E+02  0.00000000000E+00 0.  1.
         -3    1    6    6    0  502  0.22187051897E+01 -0.12364982858E+02 -0.15477581079E+02  0.19934165893E+02  0.00000000000E+00 0.  1.
<mgrwt>
<rscale>  0 0.27122067E+04</rscale>
<asrwt>0</asrwt>
<pdfrwt beam="1">  1        2 0.69298966E-01 0.27122067E+04</pdfrwt>
<pdfrwt beam="2">  1       -2 0.62810481E+00 0.27122067E+04</pdfrwt>
<totfact> 0.23926407E-02</totfact>
</mgrwt>
</event>
<event>
12    1  0.1663913E-007  0.2207353E+04  0.7818608E-02  0.8515374E-01
          1   -1    0    0  501    0  0.00000000000E+00  0.00000000000E+00  0.21894010164E+04  0.21894010164E+04  0.00000000000E+00 0. -1.
         -1   -1    0    0    0  501 -0.00000000000E+00 -0.00000000000E+00 -0.55636306603E+03  0.55636306603E+03  0.00000000000E+00 0.  1.
         23    2    1    2    0    0  0.90892869698E+03 -0.13705488265E+03  0.69033010103E+03  0.11530437363E+04  0.89547710230E+02 0.  0.
        254    2    1    2    0    0 -0.90892869698E+03  0.13705488265E+03  0.94270784934E+03  0.15927203461E+04  0.89617219029E+03 0.  0.
        -24    2    4    4    0    0 -0.52296520032E+03 -0.35477356135E+02  0.10257846045E+04  0.11545675102E+04  0.77722823146E+02 0.  0.
         24    2    4    4    0    0 -0.38596349666E+03  0.17253223879E+03 -0.83076755146E+02  0.43815283592E+03  0.79630184011E+02 0.  0.
         11    1    3    3    0    0  0.56849392970E+02 -0.22294775585E+02  0.25348117299E+02  0.66116847702E+02  0.00000000000E+00 0. -1.
        -11    1    3    3    0    0  0.85207930401E+03 -0.11476010707E+03  0.66498198373E+03  0.10869268886E+04  0.00000000000E+00 0.  1.
          2    1    6    6  502    0 -0.65192748007E+02 -0.38702790189E+00 -0.21001733259E+02  0.68493189320E+02  0.00000000000E+00 0. -1.
          1    1    5    5  503    0 -0.15345574256E+03  0.24392865648E+02  0.31503207997E+03  0.35126754508E+03  0.00000000000E+00 0. -1.
         -2    1    5    5    0  503 -0.36950945776E+03 -0.59870221783E+02  0.71075252452E+03  0.80329996511E+03  0.00000000000E+00 0.  1.
         -1    1    6    6    0  502 -0.32077074866E+03  0.17291926669E+03 -0.62075021887E+02  0.36965964660E+03  0.00000000000E+00 0.  1.
<mgrwt>
<rscale>  0 0.22073530E+04</rscale>
<asrwt>0</asrwt>
<pdfrwt beam="1">  1        1 0.33683092E+00 0.22073530E+04</pdfrwt>
<pdfrwt beam="2">  1       -1 0.85594319E-01 0.22073530E+04</pdfrwt>
<totfact> 0.27212102E+00</totfact>
</mgrwt>
</event>
<event>
12    1  0.2269480E-007  0.1758016E+04  0.7818608E-02  0.8728950E-01
         -1   -1    0    0    0  501 -0.00000000000E+00  0.00000000000E+00  0.10702371389E+04  0.10702371389E+04  0.00000000000E+00 0.  1.
          1   -1    0    0  501    0  0.00000000000E+00 -0.00000000000E+00 -0.72194783820E+03  0.72194783820E+03  0.00000000000E+00 0. -1.
         23    2    1    2    0    0 -0.16042880173E+03 -0.20533413588E+02  0.76823945524E+03  0.79025293478E+03  0.90270808353E+02 0.  0.
        254    2    1    2    0    0  0.16042880173E+03  0.20533413588E+02 -0.41995015455E+03  0.10019320423E+04  0.89518191649E+03 0.  0.
        -24    2    4    4    0    0 -0.24570068052E+03 -0.16758775266E+03  0.88497630884E+02  0.31983744390E+03  0.77522129735E+02 0.  0.
         24    2    4    4    0    0  0.40612948225E+03  0.18812116624E+03 -0.50844778543E+03  0.68209459842E+03  0.80019754647E+02 0.  0.
         13    1    3    3    0    0  0.62466737744E+01  0.56194481104E+01  0.83002773711E+01  0.11810746579E+02  0.00000000000E+00 0. -1.
        -13    1    3    3    0    0 -0.16667547550E+03 -0.26152861699E+02  0.75993917787E+03  0.77844218820E+03  0.00000000000E+00 0.  1.
          4    1    6    6  502    0  0.47361225163E+02  0.86568547753E+01 -0.26207799768E+02  0.54816745181E+02  0.00000000000E+00 0. -1.
          1    1    5    5  503    0 -0.58180524350E+02 -0.17440630075E+02 -0.73822052514E+01  0.61185340936E+02  0.00000000000E+00 0. -1.
         -2    1    5    5    0  503 -0.18752015617E+03 -0.15014712258E+03  0.95879836135E+02  0.25865210296E+03  0.00000000000E+00 0.  1.
         -3    1    6    6    0  502  0.35876825709E+03  0.17946431147E+03 -0.48223998566E+03  0.62727785323E+03  0.00000000000E+00 0.  1.
<mgrwt>
<rscale>  0 0.17580164E+04</rscale>
<asrwt>0</asrwt>
<pdfrwt beam="1">  1        1 0.11106890E+00 0.17580164E+04</pdfrwt>
<pdfrwt beam="2">  1       -1 0.16465187E+00 0.17580164E+04</pdfrwt>
<totfact> 0.66340341E+00</totfact>
</mgrwt>
</event>
<event>
12    1  0.1663913E-007  0.1240487E+04  0.7818608E-02  0.9078138E-01
          1   -1    0    0  501    0  0.00000000000E+00  0.00000000000E+00  0.11708575007E+04  0.11708575007E+04  0.00000000000E+00 0. -1.
         -1   -1    0    0    0  501 -0.00000000000E+00 -0.00000000000E+00 -0.32856425159E+03  0.32856425159E+03  0.00000000000E+00 0.  1.
         23    2    1    2    0    0 -0.18588035341E+03  0.18072678332E+03  0.32664221678E+03  0.42702288688E+03  0.91868014817E+02 0.  0.
        254    2    1    2    0    0  0.18588035341E+03 -0.18072678332E+03  0.51565103235E+03  0.10723988654E+04  0.90384161412E+03 0.  0.
        -24    2    4    4    0    0 -0.28311098334E+03 -0.22757185149E+03  0.38578181027E+01  0.37195331547E+03  0.79960050328E+02 0.  0.
         24    2    4    4    0    0  0.46899133675E+03  0.46845068171E+02  0.51179321425E+03  0.70044554996E+03  0.80897094795E+02 0.  0.
         11    1    3    3    0    0 -0.41152298514E+02  0.45922419828E+02  0.25477613668E+02  0.66719480769E+02  0.00000000000E+00 0.  1.
        -11    1    3    3    0    0 -0.14472805490E+03  0.13480436349E+03  0.30116460311E+03  0.36030340611E+03  0.00000000000E+00 0. -1.
          2    1    6    6  502    0  0.16007054914E+03  0.46165763359E+02  0.14468274005E+03  0.22065120366E+03  0.00000000000E+00 0. -1.
          1    1    5    5  503    0 -0.57335302525E+02 -0.72775054920E+02  0.28936765558E+02  0.97061227765E+02  0.00000000000E+00 0. -1.
         -2    1    5    5    0  503 -0.22577568082E+03 -0.15479679657E+03 -0.25078947456E+02  0.27489208770E+03  0.00000000000E+00 0.  1.
         -1    1    6    6    0  502  0.30892078761E+03  0.67930481261E+00  0.36711047420E+03  0.47979434630E+03  0.00000000000E+00 0.  1.
<mgrwt>
<rscale>  0 0.12404869E+04</rscale>
<asrwt>0</asrwt>
<pdfrwt beam="1">  1        1 0.18013192E+00 0.12404869E+04</pdfrwt>
<pdfrwt beam="2">  1       -1 0.50548347E-01 0.12404869E+04</pdfrwt>
<totfact> 0.43539892E+01</totfact>
</mgrwt>
</event>
<event>
12    1  0.1663913E-007  0.1511787E+04  0.7818608E-02  0.8876652E-01
          2   -1    0    0  501    0  0.00000000000E+00  0.00000000000E+00  0.16364754671E+04  0.16364754671E+04  0.00000000000E+00 0.  1.
         -2   -1    0    0    0  501 -0.00000000000E+00 -0.00000000000E+00 -0.34914990998E+03  0.34914990998E+03  0.00000000000E+00 0. -1.
         23    2    1    2    0    0  0.71228252202E+02 -0.34184333783E+03 -0.22995714052E+02  0.36116015475E+03  0.89316980344E+02 0.  0.
        254    2    1    2    0    0 -0.71228252202E+02  0.34184333783E+03  0.13103212712E+04  0.16244652224E+04  0.89443562843E+03 0.  0.
        -24    2    4    4    0    0  0.11306757738E+03 -0.26273074636E+03  0.25389147815E+03  0.39099376683E+03  0.81262050712E+02 0.  0.
         24    2    4    4    0    0 -0.18429582959E+03  0.60457408420E+03  0.10564297930E+04  0.12334714555E+04  0.77026929692E+02 0.  0.
         11    1    3    3    0    0 -0.18422323567E+02 -0.45679134256E+02 -0.15493689453E+02  0.51633513583E+02  0.00000000000E+00 0.  1.
        -11    1    3    3    0    0  0.89650575769E+02 -0.29616420358E+03 -0.75020245994E+01  0.30952664116E+03  0.00000000000E+00 0. -1.
          4    1    6    6  502    0 -0.17614473693E+03  0.51033300611E+03  0.93331777538E+03  0.10782155700E+04  0.00000000000E+00 0. -1.
          1    1    5    5  503    0  0.11342433917E+03 -0.20239571259E+03  0.22815511491E+03  0.32539800499E+03  0.00000000000E+00 0. -1.
         -2    1    5    5    0  503 -0.35676178526E+00 -0.60335033772E+02  0.25736363240E+02  0.65595761845E+02  0.00000000000E+00 0.  1.
         -3    1    6    6    0  502 -0.81510926581E+01  0.94241078086E+02  0.12311201767E+03  0.15525588557E+03  0.00000000000E+00 0.  1.
<mgrwt>
<rscale>  0 0.15117874E+04</rscale>
<asrwt>0</asrwt>
<pdfrwt beam="1">  1        2 0.25176545E+00 0.15117874E+04</pdfrwt>
<pdfrwt beam="2">  1       -2 0.53715372E-01 0.15117874E+04</pdfrwt>
<totfact> 0.33535018E+01</totfact>
</mgrwt>
</event>
<event>
12    1  0.1663913E-007  0.1558469E+04  0.7818608E-02  0.8846476E-01
         -2   -1    0    0    0  501 -0.00000000000E+00  0.00000000000E+00  0.19375932634E+04  0.19375932634E+04  0.00000000000E+00 0. -1.
          2   -1    0    0  501    0  0.00000000000E+00 -0.00000000000E+00 -0.31338166661E+03  0.31338166661E+03  0.00000000000E+00 0.  1.
         23    2    1    2    0    0  0.49979030586E+03 -0.10723570756E+03  0.74266116381E+03  0.90599486882E+03  0.89393799005E+02 0.  0.
        254    2    1    2    0    0 -0.49979030586E+03  0.10723570756E+03  0.88155043294E+03  0.13449800611E+04  0.87780997503E+03 0.  0.
        -24    2    4    4    0    0 -0.29199423600E+03  0.46292191321E+03  0.30464609472E+03  0.63158041436E+03  0.80791368268E+02 0.  0.
         24    2    4    4    0    0 -0.20779606986E+03 -0.35568620566E+03  0.57690433822E+03  0.71339964678E+03  0.80178282807E+02 0.  0.
         11    1    3    3    0    0  0.62680168685E+02  0.43102543622E+01  0.54623088771E+02  0.83253009951E+02  0.00000000000E+00 0.  1.
        -11    1    3    3    0    0  0.43711013717E+03 -0.11154596192E+03  0.68803807504E+03  0.82274185887E+03  0.00000000000E+00 0. -1.
          2    1    6    6  502    0 -0.98532409154E+01 -0.15693994786E+01  0.26905937176E+01  0.10333860160E+02  0.00000000000E+00 0. -1.
          1    1    5    5  503    0 -0.81650447807E+02  0.76759579243E+02  0.80748448257E+02  0.13812726208E+03  0.00000000000E+00 0. -1.
         -2    1    5    5    0  503 -0.21034378819E+03  0.38616233397E+03  0.22389764646E+03  0.49345315228E+03  0.00000000000E+00 0.  1.
         -1    1    6    6    0  502 -0.19794282895E+03 -0.35411680618E+03  0.57421374450E+03  0.70306578662E+03  0.00000000000E+00 0.  1.
<mgrwt>
<rscale>  0 0.15584687E+04</rscale>
<asrwt>0</asrwt>
<pdfrwt beam="1">  1        2 0.48212565E-01 0.15584687E+04</pdfrwt>
<pdfrwt beam="2">  1       -2 0.29809126E+00 0.15584687E+04</pdfrwt>
<totfact> 0.32944956E+00</totfact>
</mgrwt>
</event>
<event>
12    1  0.1663913E-007  0.2152036E+04  0.7818608E-02  0.8538661E-01
         -1   -1    0    0    0  501 -0.00000000000E+00  0.00000000000E+00  0.96329602651E+03  0.96329602651E+03  0.00000000000E+00 0.  1.
          1   -1    0    0  501    0  0.00000000000E+00 -0.00000000000E+00 -0.12019302250E+04  0.12019302250E+04  0.00000000000E+00 0. -1.
         23    2    1    2    0    0  0.76362975867E+03 -0.31707141422E+03  0.21613408689E+03  0.85972686636E+03  0.93550260195E+02 0.  0.
        254    2    1    2    0    0 -0.76362975867E+03  0.31707141422E+03 -0.45476828539E+03  0.13054993852E+04  0.90213622098E+03 0.  0.
        -24    2    4    4    0    0 -0.21906935619E+03  0.41495323929E+03  0.13235708516E+03  0.49452872317E+03  0.82841332862E+02 0.  0.
         24    2    4    4    0    0 -0.54456040248E+03 -0.97881825064E+02 -0.58712537055E+03  0.81097066199E+03  0.82645811990E+02 0.  0.
         13    1    3    3    0    0  0.25505144209E+03 -0.94993988288E+02  0.27321221989E+02  0.27353527212E+03  0.00000000000E+00 0. -1.
        -13    1    3    3    0    0  0.50857831657E+03 -0.22207742593E+03  0.18881286490E+03  0.58619159423E+03  0.00000000000E+00 0.  1.
          2    1    6    6  502    0 -0.37572297334E+03 -0.30569704805E+02 -0.41487852225E+03  0.56055904932E+03  0.00000000000E+00 0. -1.
          1    1    5    5  503    0 -0.21240577372E+03  0.41468830001E+03  0.13785319231E+03  0.48588692255E+03  0.00000000000E+00 0. -1.
         -2    1    5    5    0  503 -0.66635824743E+01  0.26493927983E+00 -0.54961071494E+01  0.86418006232E+01  0.00000000000E+00 0.  1.
         -1    1    6    6    0  502 -0.16883742914E+03 -0.67312120259E+02 -0.17224684830E+03  0.25041161267E+03  0.00000000000E+00 0.  1.
<mgrwt>
<rscale>  0 0.21520359E+04</rscale>
<asrwt>0</asrwt>
<pdfrwt beam="1">  1        1 0.18491234E+00 0.21520359E+04</pdfrwt>
<pdfrwt beam="2">  1       -1 0.14819939E+00 0.21520359E+04</pdfrwt>
<totfact> 0.35149908E+00</totfact>
</mgrwt>
</event>
<event>
12    1  0.1663913E-007  0.1325563E+04  0.7818608E-02  0.9009536E-01
          2   -1    0    0  501    0  0.00000000000E+00  0.00000000000E+00  0.56680660162E+03  0.56680660162E+03  0.00000000000E+00 0.  1.
         -2   -1    0    0    0  501 -0.00000000000E+00 -0.00000000000E+00 -0.77500719161E+03  0.77500719161E+03  0.00000000000E+00 0. -1.
         23    2    1    2    0    0  0.25560712546E+03 -0.17729959069E+03 -0.20205509538E+03  0.38206857907E+03  0.91542285859E+02 0.  0.
        254    2    1    2    0    0 -0.25560712546E+03  0.17729959069E+03 -0.61454946128E+01  0.95974521416E+03  0.90791131811E+03 0.  0.
        -24    2    4    4    0    0 -0.24723402728E+02 -0.22808447786E+03  0.30701531070E+03  0.39202475212E+03  0.82408916914E+02 0.  0.
         24    2    4    4    0    0 -0.23088372274E+03  0.40538406855E+03 -0.31316080531E+03  0.56772046204E+03  0.81199116846E+02 0.  0.
         13    1    3    3    0    0  0.53512529929E+02 -0.82030943572E+01 -0.77949228509E+01  0.54695908793E+02  0.00000000000E+00 0.  1.
        -13    1    3    3    0    0  0.20209459553E+03 -0.16909649633E+03 -0.19426017253E+03  0.32737267028E+03  0.00000000000E+00 0. -1.
          2    1    6    6  502    0 -0.17862432683E+03  0.28994962983E+03 -0.26742851648E+03  0.43300744728E+03  0.00000000000E+00 0. -1.
          3    1    5    5  503    0 -0.26766145846E+02 -0.83213342930E+02  0.17677397396E+03  0.19720528612E+03  0.00000000000E+00 0. -1.
         -4    1    5    5    0  503  0.20427431182E+01 -0.14487113493E+03  0.13024133674E+03  0.19481946600E+03  0.00000000000E+00 0.  1.
         -1    1    6    6    0  502 -0.52259395904E+02  0.11543443872E+03 -0.45732288827E+02  0.13471301476E+03  0.00000000000E+00 0.  1.
<mgrwt>
<rscale>  0 0.13255628E+04</rscale>
<asrwt>0</asrwt>
<pdfrwt beam="1">  1        2 0.87201016E-01 0.13255628E+04</pdfrwt>
<pdfrwt beam="2">  1       -2 0.11923188E+00 0.13255628E+04</pdfrwt>
<totfact> 0.28032896E+01</totfact>
</mgrwt>
</event>
<event>
12    1  0.1663913E-007  0.1676428E+04  0.7818608E-02  0.8774924E-01
         -2   -1    0    0    0  501 -0.00000000000E+00  0.00000000000E+00  0.73073476847E+03  0.73073476847E+03  0.00000000000E+00 0. -1.
          2   -1    0    0  501    0  0.00000000000E+00 -0.00000000000E+00 -0.96150139947E+03  0.96150139947E+03  0.00000000000E+00 0.  1.
         23    2    1    2    0    0  0.34653056696E+03  0.35628905234E+02 -0.56361622655E+03  0.66880248958E+03  0.90998167645E+02 0.  0.
        254    2    1    2    0    0 -0.34653056696E+03 -0.35628905234E+02  0.33284959555E+03  0.10234336784E+04  0.90292568244E+03 0.  0.
        -24    2    4    4    0    0  0.27638425198E+02 -0.96509832702E+02 -0.27473165681E+03  0.30230254951E+03  0.76363065875E+02 0.  0.
         24    2    4    4    0    0 -0.37416899216E+03  0.60880927468E+02  0.60758125236E+03  0.72113112885E+03  0.84653439074E+02 0.  0.
         13    1    3    3    0    0  0.98868555952E+02 -0.27524495001E+02 -0.13220555477E+03  0.16736456582E+03  0.00000000000E+00 0. -1.
        -13    1    3    3    0    0  0.24766201101E+03  0.63153400235E+02 -0.43141067178E+03  0.50143792376E+03  0.00000000000E+00 0.  1.
          4    1    6    6  502    0 -0.31074249876E+03  0.68011781202E+02  0.44966506180E+03  0.55080411284E+03  0.00000000000E+00 0. -1.
          1    1    5    5  503    0  0.41475456132E+02 -0.78499527634E+02 -0.26117376092E+03  0.27585163167E+03  0.00000000000E+00 0. -1.
         -2    1    5    5    0  503 -0.13837030933E+02 -0.18010305069E+02 -0.13557895891E+02  0.26450917843E+02  0.00000000000E+00 0.  1.
         -3    1    6    6    0  502 -0.63426493396E+02 -0.71308537335E+01  0.15791619056E+03  0.17032701600E+03  0.00000000000E+00 0.  1.
<mgrwt>
<rscale>  0 0.16764278E+04</rscale>
<asrwt>0</asrwt>
<pdfrwt beam="1">  1        2 0.14792329E+00 0.16764278E+04</pdfrwt>
<pdfrwt beam="2">  1       -2 0.11242073E+00 0.16764278E+04</pdfrwt>
<totfact> 0.15852553E+01</totfact>
</mgrwt>
</event>
<event>
12    1  0.1663913E-007  0.1928816E+04  0.7818608E-02  0.8640644E-01
          1   -1    0    0  501    0  0.00000000000E+00  0.00000000000E+00  0.33103918586E+04  0.33103918586E+04  0.00000000000E+00 0. -1.
         -1   -1    0    0    0  501 -0.00000000000E+00 -0.00000000000E+00 -0.28095843679E+03  0.28095843679E+03  0.00000000000E+00 0.  1.
         23    2    1    2    0    0  0.29619400273E+03 -0.49367758626E+03  0.20926265661E+04  0.21723014823E+04  0.91429417797E+02 0.  0.
        254    2    1    2    0    0 -0.29619400273E+03  0.49367758626E+03  0.93680685576E+03  0.14190488131E+04  0.89701951072E+03 0.  0.
        -24    2    4    4    0    0  0.22860220198E+03  0.47505091252E+03  0.43197779847E+03  0.68569441979E+03  0.75097820979E+02 0.  0.
         24    2    4    4    0    0 -0.52479620471E+03  0.18626673741E+02  0.50482905729E+03  0.73335439334E+03  0.84842676181E+02 0.  0.
         11    1    3    3    0    0  0.17693600762E+03 -0.35107336018E+03  0.15329205192E+04  0.15825309391E+04  0.00000000000E+00 0. -1.
        -11    1    3    3    0    0  0.11925799512E+03 -0.14260422608E+03  0.55970604688E+03  0.58977054318E+03  0.00000000000E+00 0.  1.
          2    1    6    6  502    0 -0.69006960366E+02 -0.69393821170E+01  0.10869889104E+03  0.12894015866E+03  0.00000000000E+00 0. -1.
          1    1    5    5  503    0  0.75062209253E+02  0.12783481008E+03  0.82348605855E+02  0.16957997173E+03  0.00000000000E+00 0. -1.
         -2    1    5    5    0  503  0.15353999273E+03  0.34721610244E+03  0.34962919262E+03  0.51611444806E+03  0.00000000000E+00 0.  1.
         -1    1    6    6    0  502 -0.45578924435E+03  0.25566055858E+02  0.39613016625E+03  0.60441423468E+03  0.00000000000E+00 0.  1.
<mgrwt>
<rscale>  0 0.19288157E+04</rscale>
<asrwt>0</asrwt>
<pdfrwt beam="1">  1        1 0.50929103E+00 0.19288157E+04</pdfrwt>
<pdfrwt beam="2">  1       -1 0.43224377E-01 0.19288157E+04</pdfrwt>
<totfact> 0.17344686E+00</totfact>
</mgrwt>
</event>
<event>
12    1  0.1663913E-007  0.1220111E+04  0.7818608E-02  0.9095434E-01
          4   -1    0    0  501    0  0.00000000000E+00  0.00000000000E+00  0.69694666347E+03  0.69694666347E+03  0.00000000000E+00 0.  1.
         -4   -1    0    0    0  501 -0.00000000000E+00 -0.00000000000E+00 -0.53399706935E+03  0.53399706935E+03  0.00000000000E+00 0. -1.
         23    2    1    2    0    0  0.12232285670E+03  0.11956203035E+03 -0.16600833939E+03  0.25560312166E+03  0.92283404152E+02 0.  0.
        254    2    1    2    0    0 -0.12232285670E+03 -0.11956203035E+03  0.32895793352E+03  0.97534061116E+03  0.90211863155E+03 0.  0.
        -24    2    4    4    0    0 -0.21295609143E+02 -0.35733354954E+03  0.52612304150E+03  0.64094537693E+03  0.76581674229E+02 0.  0.
         24    2    4    4    0    0 -0.10102724756E+03  0.23777151919E+03 -0.19716510798E+03  0.33439523423E+03  0.78767333237E+02 0.  0.
         11    1    3    3    0    0  0.11490575766E+03  0.12032855218E+03 -0.17661220281E+03  0.24263998804E+03  0.00000000000E+00 0. -1.
        -11    1    3    3    0    0  0.74170990406E+01 -0.76652183050E+00  0.10603863419E+02  0.12963133622E+02  0.00000000000E+00 0.  1.
          4    1    6    6  502    0 -0.10970821248E+03  0.17738546558E+03 -0.14375443850E+03  0.25331173260E+03  0.00000000000E+00 0. -1.
          3    1    5    5  503    0  0.93452093031E+00 -0.32396598416E+03  0.48709164900E+03  0.58498983474E+03  0.00000000000E+00 0. -1.
         -4    1    5    5    0  503 -0.22230130073E+02 -0.33367565377E+02  0.39031392495E+02  0.55955542195E+02  0.00000000000E+00 0.  1.
         -3    1    6    6    0  502  0.86809649217E+01  0.60386053609E+02 -0.53410669480E+02  0.81083501631E+02  0.00000000000E+00 0.  1.
<mgrwt>
<rscale>  0 0.12201106E+04</rscale>
<asrwt>0</asrwt>
<pdfrwt beam="1">  1        4 0.10722256E+00 0.12201106E+04</pdfrwt>
<pdfrwt beam="2">  1       -4 0.82153396E-01 0.12201106E+04</pdfrwt>
<totfact> 0.17917159E+00</totfact>
</mgrwt>
</event>
<event>
12    1  0.1663913E-007  0.1196783E+04  0.7818608E-02  0.9115677E-01
          1   -1    0    0  501    0  0.00000000000E+00  0.00000000000E+00  0.58635679585E+03  0.58635679585E+03  0.00000000000E+00 0. -1.
         -1   -1    0    0    0  501 -0.00000000000E+00 -0.00000000000E+00 -0.61067303876E+03  0.61067303876E+03  0.00000000000E+00 0.  1.
         23    2    1    2    0    0 -0.44676418408E+02 -0.74287776516E+02  0.22919632662E+03  0.26129317821E+03  0.90711150035E+02 0.  0.
        254    2    1    2    0    0  0.44676418408E+02  0.74287776516E+02 -0.25351256954E+03  0.93573665640E+03  0.89655998746E+03 0.  0.
        -24    2    4    4    0    0  0.43352509124E+03  0.44243404804E+02 -0.30022498951E+03  0.53478816173E+03  0.77213017040E+02 0.  0.
         24    2    4    4    0    0 -0.38884867283E+03  0.30044371712E+02  0.46712419971E+02  0.40094849467E+03  0.80446818221E+02 0.  0.
         11    1    3    3    0    0 -0.51339403028E+02 -0.18195627828E+02  0.51975316652E+02  0.75287772688E+02  0.00000000000E+00 0.  1.
        -11    1    3    3    0    0  0.66629846199E+01 -0.56092148688E+02  0.17722100997E+03  0.18600540552E+03  0.00000000000E+00 0. -1.
          2    1    6    6  502    0 -0.33070961098E+03  0.45868432551E+02  0.18421226872E+02  0.33438316570E+03  0.00000000000E+00 0. -1.
          1    1    5    5  503    0  0.35446874325E+03  0.32650653849E+02 -0.20612469123E+03  0.41134115218E+03  0.00000000000E+00 0. -1.
         -2    1    5    5    0  503  0.79056347986E+02  0.11592750955E+02 -0.94100298282E+02  0.12344700956E+03  0.00000000000E+00 0.  1.
         -1    1    6    6    0  502 -0.58139061846E+02 -0.15824060839E+02  0.28291193099E+02  0.66565328969E+02  0.00000000000E+00 0.  1.
<mgrwt>
<rscale>  0 0.11967828E+04</rscale>
<asrwt>0</asrwt>
<pdfrwt beam="1">  1        1 0.90208738E-01 0.11967828E+04</pdfrwt>
<pdfrwt beam="2">  1       -1 0.93949698E-01 0.11967828E+04</pdfrwt>
<totfact> 0.38499334E+01</totfact>
</mgrwt>
</event>
<event>
12    1  0.1663913E-007  0.1528948E+04  0.7818608E-02  0.8865428E-01
         -3   -1    0    0    0  501 -0.00000000000E+00  0.00000000000E+00  0.56423674896E+03  0.56423674896E+03  0.00000000000E+00 0.  1.
          3   -1    0    0  501    0  0.00000000000E+00 -0.00000000000E+00 -0.10357718661E+04  0.10357718661E+04  0.00000000000E+00 0. -1.
         23    2    1    2    0    0 -0.19002099515E+03 -0.23255541981E+03  0.25984005461E+03  0.40863494037E+03  0.96310220799E+02 0.  0.
        254    2    1    2    0    0  0.19002099515E+03  0.23255541981E+03 -0.73137517179E+03  0.11913736747E+04  0.89121915883E+03 0.  0.
        -24    2    4    4    0    0  0.30443151326E+03 -0.11315211694E+03  0.38008235057E+02  0.33651290872E+03  0.79462972313E+02 0.  0.
         24    2    4    4    0    0 -0.11441051811E+03  0.34570753674E+03 -0.76938340684E+03  0.85486076601E+03  0.78947038714E+02 0.  0.
         13    1    3    3    0    0 -0.14441887158E+03 -0.19863206078E+03  0.25092259053E+03  0.35110347830E+03  0.00000000000E+00 0.  1.
        -13    1    3    3    0    0 -0.45602123575E+02 -0.33923359026E+02  0.89174640842E+01  0.57531462069E+02  0.00000000000E+00 0. -1.
          4    1    6    6  502    0 -0.51461040094E+02  0.25658285622E+03 -0.57974830198E+03  0.63607475536E+03  0.00000000000E+00 0. -1.
          1    1    5    5  503    0  0.25177472699E+03 -0.70853663915E+02  0.54076276192E+02  0.26708612560E+03  0.00000000000E+00 0. -1.
         -2    1    5    5    0  503  0.52656786274E+02 -0.42298453022E+02 -0.16068041135E+02  0.69426783122E+02  0.00000000000E+00 0.  1.
         -3    1    6    6    0  502 -0.62949478016E+02  0.89124680522E+02 -0.18963510486E+03  0.21878601065E+03  0.00000000000E+00 0.  1.
<mgrwt>
<rscale>  0 0.15289481E+04</rscale>
<asrwt>0</asrwt>
<pdfrwt beam="1">  1        3 0.15934952E+00 0.15289481E+04</pdfrwt>
<pdfrwt beam="2">  1       -3 0.86805655E-01 0.15289481E+04</pdfrwt>
<totfact> 0.84401397E-01</totfact>
</mgrwt>
</event>
<event>
12    1  0.1663913E-007  0.1287087E+04  0.7818608E-02  0.9039868E-01
         -2   -1    0    0    0  501 -0.00000000000E+00  0.00000000000E+00  0.19613776165E+03  0.19613776165E+03  0.00000000000E+00 0.  1.
          2   -1    0    0  501    0  0.00000000000E+00 -0.00000000000E+00 -0.21115181969E+04  0.21115181969E+04  0.00000000000E+00 0. -1.
         23    2    1    2    0    0 -0.19746415555E+03  0.20316854859E+03 -0.99198608060E+02  0.31380435973E+03  0.91450863780E+02 0.  0.
        254    2    1    2    0    0  0.19746415555E+03 -0.20316854859E+03 -0.18161818272E+04  0.19938515988E+04  0.77243654549E+03 0.  0.
        -24    2    4    4    0    0 -0.17722375029E+03 -0.35888520444E+03 -0.87686628922E+03  0.96732465760E+03  0.81336685428E+02 0.  0.
         24    2    4    4    0    0  0.37468790584E+03  0.15571665586E+03 -0.93931553800E+03  0.10265269412E+04  0.82493499568E+02 0.  0.
         11    1    3    3    0    0 -0.10647504610E+03  0.16270993869E+03 -0.88528292490E+02  0.21365560643E+03  0.00000000000E+00 0.  1.
        -11    1    3    3    0    0 -0.90989109448E+02  0.40458609899E+02 -0.10670315569E+02  0.10014875330E+03  0.00000000000E+00 0. -1.
          2    1    6    6  502    0  0.42150843910E+02  0.48793866417E+02 -0.16036912136E+03  0.17284614582E+03  0.00000000000E+00 0. -1.
          3    1    5    5  503    0 -0.55893201541E+02 -0.12001169004E+03 -0.38641933492E+03  0.40846879700E+03  0.00000000000E+00 0. -1.
         -4    1    5    5    0  503 -0.12133054875E+03 -0.23887351440E+03 -0.49044695430E+03  0.55885586060E+03  0.00000000000E+00 0.  1.
         -1    1    6    6    0  502  0.33253706193E+03  0.10692278944E+03 -0.77894641665E+03  0.85368079542E+03  0.00000000000E+00 0.  1.
<mgrwt>
<rscale>  0 0.12870873E+04</rscale>
<asrwt>0</asrwt>
<pdfrwt beam="1">  1        2 0.32484898E+00 0.12870873E+04</pdfrwt>
<pdfrwt beam="2">  1       -2 0.30175038E-01 0.12870873E+04</pdfrwt>
<totfact> 0.57702501E+01</totfact>
</mgrwt>
</event>
<event>
12    1  0.1663913E-007  0.1438066E+04  0.7818608E-02  0.8926716E-01
         -2   -1    0    0    0  501 -0.00000000000E+00  0.00000000000E+00  0.24354413218E+03  0.24354413218E+03  0.00000000000E+00 0.  1.
          2   -1    0    0  501    0  0.00000000000E+00 -0.00000000000E+00 -0.21228534322E+04  0.21228534322E+04  0.00000000000E+00 0. -1.
         23    2    1    2    0    0 -0.17414442048E+03 -0.25652852496E+03 -0.83143436921E+02  0.33384932264E+03  0.91702648916E+02 0.  0.
        254    2    1    2    0    0  0.17414442048E+03  0.25652852496E+03 -0.17961658631E+04  0.20325482417E+04  0.89939278625E+03 0.  0.
        -24    2    4    4    0    0  0.33018169653E+03  0.45019782284E+03 -0.16233029057E+04  0.17185670345E+04  0.81622888714E+02 0.  0.
         24    2    4    4    0    0 -0.15603727605E+03 -0.19366929788E+03 -0.17286295738E+03  0.31398120724E+03  0.82747616350E+02 0.  0.
         13    1    3    3    0    0 -0.83206295943E+02 -0.14457918418E+03  0.11041969155E+01  0.16681620854E+03  0.00000000000E+00 0.  1.
        -13    1    3    3    0    0 -0.90938124539E+02 -0.11194934078E+03 -0.84247633837E+02  0.16703311409E+03  0.00000000000E+00 0. -1.
          4    1    6    6  502    0 -0.11171230567E+03 -0.94338465269E+02 -0.13442082409E+03  0.19861606989E+03  0.00000000000E+00 0. -1.
          3    1    5    5  503    0  0.28794278612E+02  0.17533263191E+02 -0.61200367795E+02  0.69871387686E+02  0.00000000000E+00 0. -1.
         -4    1    5    5    0  503  0.30138741792E+03  0.43266455965E+03 -0.15621025379E+04  0.16486956468E+04  0.00000000000E+00 0.  1.
         -3    1    6    6    0  502 -0.44324970375E+02 -0.99330832608E+02 -0.38442133286E+02  0.11536513735E+03  0.00000000000E+00 0.  1.
<mgrwt>
<rscale>  0 0.14380661E+04</rscale>
<asrwt>0</asrwt>
<pdfrwt beam="1">  1        2 0.32659284E+00 0.14380661E+04</pdfrwt>
<pdfrwt beam="2">  1       -2 0.37468328E-01 0.14380661E+04</pdfrwt>
<totfact> 0.37240399E+01</totfact>
</mgrwt>
</event>
<event>
12    1  0.1663913E-007  0.2002299E+04  0.7818608E-02  0.8605546E-01
         -2   -1    0    0    0  501 -0.00000000000E+00  0.00000000000E+00  0.52473904841E+03  0.52473904841E+03  0.00000000000E+00 0.  1.
          2   -1    0    0  501    0  0.00000000000E+00 -0.00000000000E+00 -0.19100936714E+04  0.19100936714E+04  0.00000000000E+00 0. -1.
         23    2    1    2    0    0 -0.13959939272E+03 -0.36370103641E+02  0.39751812188E+03  0.43251113667E+03  0.90743877099E+02 0.  0.
        254    2    1    2    0    0  0.13959939272E+03  0.36370103641E+02 -0.17828727449E+04  0.20023215832E+04  0.89991428646E+03 0.  0.
        -24    2    4    4    0    0  0.54125628587E+02 -0.41433804184E+03 -0.64436845060E+03  0.77226830132E+03  0.81129726388E+02 0.  0.
         24    2    4    4    0    0  0.85473764131E+02  0.45070814548E+03 -0.11385042943E+04  0.12300532818E+04  0.79971565357E+02 0.  0.
         11    1    3    3    0    0 -0.39237188815E+02 -0.45085975977E+02  0.22432148855E+03  0.23214743686E+03  0.00000000000E+00 0.  1.
        -11    1    3    3    0    0 -0.10036220390E+03  0.87158723354E+01  0.17319663334E+03  0.20036369981E+03  0.00000000000E+00 0. -1.
          2    1    6    6  502    0  0.94191104780E+00  0.14753441248E+03 -0.43542206273E+03  0.45973868966E+03  0.00000000000E+00 0. -1.
          1    1    5    5  503    0  0.28292404743E+02 -0.35075487611E+03 -0.57864064591E+03  0.67724031213E+03  0.00000000000E+00 0. -1.
         -2    1    5    5    0  503  0.25833223844E+02 -0.63583165735E+02 -0.65727804689E+02  0.95027989184E+02  0.00000000000E+00 0.  1.
         -1    1    6    6    0  502  0.84531853083E+02  0.30317373301E+03 -0.70308223157E+03  0.77031459218E+03  0.00000000000E+00 0.  1.
<mgrwt>
<rscale>  0 0.20022994E+04</rscale>
<asrwt>0</asrwt>
<pdfrwt beam="1">  1        2 0.29386056E+00 0.20022994E+04</pdfrwt>
<pdfrwt beam="2">  1       -2 0.80729085E-01 0.20022994E+04</pdfrwt>
<totfact> 0.94294041E+00</totfact>
</mgrwt>
</event>
<event>
12    1  0.1663913E-007  0.1011730E+04  0.7818608E-02  0.9295772E-01
          2   -1    0    0  501    0  0.00000000000E+00  0.00000000000E+00  0.16322648627E+04  0.16322648627E+04  0.00000000000E+00 0.  1.
         -2   -1    0    0    0  501 -0.00000000000E+00 -0.00000000000E+00 -0.15677578302E+03  0.15677578302E+03  0.00000000000E+00 0. -1.
         23    2    1    2    0    0  0.39306088517E+02  0.43593671171E+02  0.59857289855E+02  0.12665510687E+03  0.94938107133E+02 0.  0.
        254    2    1    2    0    0 -0.39306088517E+02 -0.43593671171E+02  0.14156317898E+04  0.16623855389E+04  0.86952109731E+03 0.  0.
        -24    2    4    4    0    0 -0.21745834853E+03 -0.82927953507E+02  0.13514224745E+02  0.24616351417E+03  0.79048482720E+02 0.  0.
         24    2    4    4    0    0  0.17815226002E+03  0.39334282336E+02  0.14021175651E+04  0.14162220247E+04  0.80409846193E+02 0.  0.
         11    1    3    3    0    0  0.17160669268E+02  0.49606958349E+02 -0.97267742205E+01  0.53384913816E+02  0.00000000000E+00 0. -1.
        -11    1    3    3    0    0  0.22145419249E+02 -0.60132871787E+01  0.69584064076E+02  0.73270193051E+02  0.00000000000E+00 0.  1.
          2    1    6    6  502    0  0.10753751299E+03 -0.18374081058E+01  0.10076973597E+04  0.10134207722E+04  0.00000000000E+00 0. -1.
          1    1    5    5  503    0 -0.11039471043E+03 -0.48903236445E+02 -0.32068865695E+02  0.12492770218E+03  0.00000000000E+00 0. -1.
         -2    1    5    5    0  503 -0.10706363811E+03 -0.34024717062E+02  0.45583090441E+02  0.12123581199E+03  0.00000000000E+00 0.  1.
         -1    1    6    6    0  502  0.70614747023E+02  0.41171690442E+02  0.39442020537E+03  0.40280125248E+03  0.00000000000E+00 0.  1.
<mgrwt>
<rscale>  0 0.10117304E+04</rscale>
<asrwt>0</asrwt>
<pdfrwt beam="1">  1        2 0.25111766E+00 0.10117304E+04</pdfrwt>
<pdfrwt beam="2">  1       -2 0.24119352E-01 0.10117304E+04</pdfrwt>
<totfact> 0.16338720E+02</totfact>
</mgrwt>
</event>
<event>
12    1  0.1663913E-007  0.1488256E+04  0.7818608E-02  0.8892300E-01
          2   -1    0    0  501    0  0.00000000000E+00  0.00000000000E+00  0.69728075173E+03  0.69728075173E+03  0.00000000000E+00 0. -1.
         -2   -1    0    0    0  501 -0.00000000000E+00 -0.00000000000E+00 -0.79412257613E+03  0.79412257613E+03  0.00000000000E+00 0.  1.
         23    2    1    2    0    0 -0.98818281618E+02 -0.26160872234E+03 -0.40017790411E+03  0.49694128480E+03  0.92758337701E+02 0.  0.
        254    2    1    2    0    0  0.98818281618E+02  0.26160872234E+03  0.30333607971E+03  0.99446204305E+03  0.90484131284E+03 0.  0.
        -24    2    4    4    0    0  0.39641229698E+03 -0.52892286469E+02  0.36837772774E+03  0.54950642436E+03  0.79466074274E+02 0.  0.
         24    2    4    4    0    0 -0.29759401536E+03  0.31450100881E+03 -0.65041648025E+02  0.44495561869E+03  0.79259094770E+02 0.  0.
         13    1    3    3    0    0 -0.97814067935E+02 -0.23641859159E+03 -0.39588776315E+03  0.47136871274E+03  0.00000000000E+00 0.  1.
        -13    1    3    3    0    0 -0.10042136832E+01 -0.25190130755E+02 -0.42901409614E+01  0.25572572065E+02  0.00000000000E+00 0. -1.
          2    1    6    6  502    0  0.16134518764E+01  0.65704015320E+01 -0.10017844245E+02  0.12088449304E+02  0.00000000000E+00 0. -1.
          3    1    5    5  503    0  0.17897786848E+03 -0.46865022807E+02  0.21335215274E+03  0.28239785560E+03  0.00000000000E+00 0. -1.
         -4    1    5    5    0  503  0.21743442850E+03 -0.60272636615E+01  0.15502557500E+03  0.26710856876E+03  0.00000000000E+00 0.  1.
         -1    1    6    6    0  502 -0.29920746723E+03  0.30793060728E+03 -0.55023803780E+02  0.43286716939E+03  0.00000000000E+00 0.  1.
<mgrwt>
<rscale>  0 0.14882559E+04</rscale>
<asrwt>0</asrwt>
<pdfrwt beam="1">  1        2 0.10727396E+00 0.14882559E+04</pdfrwt>
<pdfrwt beam="2">  1       -2 0.12217270E+00 0.14882559E+04</pdfrwt>
<totfact> 0.20215184E+01</totfact>
</mgrwt>
</event>
<event>
12    1  0.1663913E-007  0.1233207E+04  0.7818608E-02  0.9084277E-01
          3   -1    0    0  501    0  0.00000000000E+00  0.00000000000E+00  0.38405995690E+03  0.38405995690E+03  0.00000000000E+00 0. -1.
         -3   -1    0    0    0  501 -0.00000000000E+00 -0.00000000000E+00 -0.98994988015E+03  0.98994988015E+03  0.00000000000E+00 0.  1.
         23    2    1    2    0    0 -0.27610541086E+03 -0.22444738271E+02 -0.16780157152E+03  0.33411252502E+03  0.82072210799E+02 0.  0.
        254    2    1    2    0    0  0.27610541086E+03  0.22444738271E+02 -0.43808835172E+03  0.10398973120E+04  0.90151375556E+03 0.  0.
        -24    2    4    4    0    0  0.17416090615E+03  0.14844525539E+03 -0.68925911333E+03  0.73049743463E+03  0.78615275958E+02 0.  0.
         24    2    4    4    0    0  0.10194450471E+03 -0.12600051712E+03  0.25117076161E+03  0.30939987740E+03  0.79829319733E+02 0.  0.
         11    1    3    3    0    0 -0.26172032412E+03 -0.39048933843E+02 -0.14229766429E+03  0.30045128150E+03  0.00000000000E+00 0. -1.
        -11    1    3    3    0    0 -0.14385086745E+02  0.16604195572E+02 -0.25503907237E+02  0.33661243524E+02  0.00000000000E+00 0.  1.
          4    1    6    6  502    0  0.41148823331E+02 -0.34598081216E+01  0.38027041914E+02  0.56136012064E+02  0.00000000000E+00 0. -1.
          3    1    5    5  503    0  0.64515181427E+02  0.70965837982E+02 -0.40392456035E+03  0.41515468111E+03  0.00000000000E+00 0. -1.
         -4    1    5    5    0  503  0.10964572473E+03  0.77479417412E+02 -0.28533455298E+03  0.31534275352E+03  0.00000000000E+00 0.  1.
         -3    1    6    6    0  502  0.60795681379E+02 -0.12254070900E+03  0.21314371970E+03  0.25326386533E+03  0.00000000000E+00 0.  1.
<mgrwt>
<rscale>  0 0.12332074E+04</rscale>
<asrwt>0</asrwt>
<pdfrwt beam="1">  1        3 0.59086149E-01 0.12332074E+04</pdfrwt>
<pdfrwt beam="2">  1       -3 0.15229998E+00 0.12332074E+04</pdfrwt>
<totfact> 0.22437860E+00</totfact>
</mgrwt>
</event>
<event>
12    1  0.1663913E-007  0.1769514E+04  0.7818608E-02  0.8722682E-01
         -2   -1    0    0    0  501 -0.00000000000E+00  0.00000000000E+00  0.14089212588E+04  0.14089212588E+04  0.00000000000E+00 0.  1.
          2   -1    0    0  501    0  0.00000000000E+00 -0.00000000000E+00 -0.55559856609E+03  0.55559856609E+03  0.00000000000E+00 0. -1.
         23    2    1    2    0    0 -0.60501506880E+03 -0.58327069868E+02  0.58471363247E+03  0.84830558473E+03  0.91033249586E+02 0.  0.
        254    2    1    2    0    0  0.60501506880E+03  0.58327069868E+02  0.26860906026E+03  0.11162142402E+04  0.89684899630E+03 0.  0.
        -24    2    4    4    0    0 -0.99804070112E+02 -0.31757641967E+02 -0.21566163159E+03  0.25262020531E+03  0.79609224056E+02 0.  0.
         24    2    4    4    0    0  0.70481913892E+03  0.90084711836E+02  0.48427069185E+03  0.86359403487E+03  0.79945482603E+02 0.  0.
         13    1    3    3    0    0 -0.42479768760E+03 -0.29986129276E+02  0.46263638264E+03  0.62879620378E+03  0.00000000000E+00 0.  1.
        -13    1    3    3    0    0 -0.18021738120E+03 -0.28340940592E+02  0.12207724983E+03  0.21950938095E+03  0.00000000000E+00 0. -1.
          2    1    6    6  502    0  0.60304590986E+02 -0.12824452409E+02  0.31406813474E+02  0.69191749553E+02  0.00000000000E+00 0. -1.
          1    1    5    5  503    0 -0.24865368090E+02 -0.41579572368E+02 -0.45652025010E+02  0.66567670502E+02  0.00000000000E+00 0. -1.
         -2    1    5    5    0  503 -0.74938702021E+02  0.98219304007E+01 -0.17000960658E+03  0.18605253481E+03  0.00000000000E+00 0.  1.
         -1    1    6    6    0  502  0.64451454793E+03  0.10290916424E+03  0.45286387837E+03  0.79440228531E+03  0.00000000000E+00 0.  1.
<mgrwt>
<rscale>  0 0.17695136E+04</rscale>
<asrwt>0</asrwt>
<pdfrwt beam="1">  1        2 0.85476703E-01 0.17695136E+04</pdfrwt>
<pdfrwt beam="2">  1       -2 0.21675712E+00 0.17695136E+04</pdfrwt>
<totfact> 0.53309678E+00</totfact>
</mgrwt>
</event>
<event>
12    1  0.1663913E-007  0.2198846E+04  0.7818608E-02  0.8518909E-01
          2   -1    0    0  501    0  0.00000000000E+00  0.00000000000E+00  0.14571720576E+04  0.14571720576E+04  0.00000000000E+00 0. -1.
         -2   -1    0    0    0  501 -0.00000000000E+00 -0.00000000000E+00 -0.82950453196E+03  0.82950453196E+03  0.00000000000E+00 0.  1.
         23    2    1    2    0    0  0.43586381469E+03 -0.79458758677E+03  0.30926947103E+03  0.96185907332E+03  0.90435464352E+02 0.  0.
        254    2    1    2    0    0 -0.43586381469E+03  0.79458758677E+03  0.31839805462E+03  0.13248175163E+04  0.91236913154E+03 0.  0.
        -24    2    4    4    0    0  0.10303323703E+03  0.69923237570E+03  0.58967419475E+02  0.71399484288E+03  0.82278283557E+02 0.  0.
         24    2    4    4    0    0 -0.53889705171E+03  0.95355211070E+02  0.25943063514E+03  0.61082267337E+03  0.79356381162E+02 0.  0.
         13    1    3    3    0    0  0.18251976634E+03 -0.27170081881E+03  0.14546160042E+03  0.35818134687E+03  0.00000000000E+00 0.  1.
        -13    1    3    3    0    0  0.25334404835E+03 -0.52288676796E+03  0.16380787061E+03  0.60367772645E+03  0.00000000000E+00 0. -1.
          4    1    6    6  502    0 -0.50197976431E+03  0.98507442552E+02  0.25985201580E+03  0.57376865558E+03  0.00000000000E+00 0. -1.
          1    1    5    5  503    0  0.95811070553E+02  0.68928293661E+03  0.67278929365E+02  0.69915461973E+03  0.00000000000E+00 0. -1.
         -2    1    5    5    0  503  0.72221664730E+01  0.99494390845E+01 -0.83115098899E+01  0.14840223156E+02  0.00000000000E+00 0.  1.
         -3    1    6    6    0  502 -0.36917287409E+02 -0.31522314819E+01 -0.42138065783E+00  0.37054017793E+02  0.00000000000E+00 0.  1.
<mgrwt>
<rscale>  0 0.21988459E+04</rscale>
<asrwt>0</asrwt>
<pdfrwt beam="1">  1        2 0.22418032E+00 0.21988459E+04</pdfrwt>
<pdfrwt beam="2">  1       -2 0.12761608E+00 0.21988459E+04</pdfrwt>
<totfact> 0.55856163E+00</totfact>
</mgrwt>
</event>
<event>
12    1  0.1663913E-007  0.1619317E+04  0.7818608E-02  0.8808768E-01
         -1   -1    0    0    0  501 -0.00000000000E+00  0.00000000000E+00  0.51243123503E+03  0.51243123503E+03  0.00000000000E+00 0.  1.
          1   -1    0    0  501    0  0.00000000000E+00 -0.00000000000E+00 -0.12792877539E+04  0.12792877539E+04  0.00000000000E+00 0. -1.
         23    2    1    2    0    0 -0.28134597911E+03  0.45778575092E+03 -0.54413104191E+02  0.54776465916E+03  0.91443874599E+02 0.  0.
        254    2    1    2    0    0  0.28134597911E+03 -0.45778575092E+03 -0.71244341466E+03  0.12439543298E+04  0.86667375737E+03 0.  0.
        -24    2    4    4    0    0  0.34207696398E+03 -0.28802097496E+03 -0.87663469224E+03  0.98744894358E+03  0.81205303001E+02 0.  0.
         24    2    4    4    0    0 -0.60730984868E+02 -0.16976477597E+03  0.16419127758E+03  0.25650538617E+03  0.79548135235E+02 0.  0.
         11    1    3    3    0    0 -0.10768237716E+03  0.11283969924E+03  0.97314757783E+01  0.15627857721E+03  0.00000000000E+00 0. -1.
        -11    1    3    3    0    0 -0.17366360195E+03  0.34494605169E+03 -0.64144579969E+02  0.39148608194E+03  0.00000000000E+00 0.  1.
          2    1    6    6  502    0  0.14733465575E+02 -0.68399699059E+01  0.22645873489E+02  0.27869262320E+02  0.00000000000E+00 0. -1.
          1    1    5    5  503    0  0.61861261070E+02 -0.90374007079E+02 -0.17386334996E+03  0.20548172969E+03  0.00000000000E+00 0. -1.
         -2    1    5    5    0  503  0.28021570291E+03 -0.19764696788E+03 -0.70277134228E+03  0.78196721389E+03  0.00000000000E+00 0.  1.
         -1    1    6    6    0  502 -0.75464450443E+02 -0.16292480606E+03  0.14154540410E+03  0.22863612386E+03  0.00000000000E+00 0.  1.
<mgrwt>
<rscale>  0 0.16193171E+04</rscale>
<asrwt>0</asrwt>
<pdfrwt beam="1">  1        1 0.19681350E+00 0.16193171E+04</pdfrwt>
<pdfrwt beam="2">  1       -1 0.78835576E-01 0.16193171E+04</pdfrwt>
<totfact> 0.14432269E+01</totfact>
</mgrwt>
</event>
<event>
12    1  0.1663913E-007  0.1417082E+04  0.7818608E-02  0.8941545E-01
         -2   -1    0    0    0  501 -0.00000000000E+00  0.00000000000E+00  0.19393380650E+04  0.19393380650E+04  0.00000000000E+00 0.  1.
          2   -1    0    0  501    0  0.00000000000E+00 -0.00000000000E+00 -0.25886697521E+03  0.25886697521E+03  0.00000000000E+00 0. -1.
         23    2    1    2    0    0 -0.25185710046E+03  0.33730564559E+03  0.45005387544E+03  0.62309606026E+03  0.92158081096E+02 0.  0.
        254    2    1    2    0    0  0.25185710046E+03 -0.33730564559E+03  0.12304172143E+04  0.15751089799E+04  0.88872643697E+03 0.  0.
        -24    2    4    4    0    0 -0.21353095651E+03  0.17313078988E+03  0.31764659124E+03  0.42761009950E+03  0.79883042476E+02 0.  0.
         24    2    4    4    0    0  0.46538805697E+03 -0.51043643547E+03  0.91277062307E+03  0.11474988804E+04  0.80449188887E+02 0.  0.
         13    1    3    3    0    0 -0.14561535649E+02 -0.41115529124E+01  0.16817904113E+02  0.22622667539E+02  0.00000000000E+00 0. -1.
        -13    1    3    3    0    0 -0.23729556481E+03  0.34141719850E+03  0.43323597133E+03  0.60047339272E+03  0.00000000000E+00 0.  1.
          4    1    6    6  502    0  0.25871824628E+03 -0.33373585676E+03  0.58821800862E+03  0.72409611151E+03  0.00000000000E+00 0. -1.
          1    1    5    5  503    0 -0.42082823527E+02  0.17888502452E+01  0.65316926770E+02  0.77720428099E+02  0.00000000000E+00 0. -1.
         -2    1    5    5    0  503 -0.17144813299E+03  0.17134193964E+03  0.25232966447E+03  0.34988967140E+03  0.00000000000E+00 0.  1.
         -3    1    6    6    0  502  0.20666981070E+03 -0.17670057872E+03  0.32455261444E+03  0.42340276890E+03  0.00000000000E+00 0.  1.
<mgrwt>
<rscale>  0 0.14170823E+04</rscale>
<asrwt>0</asrwt>
<pdfrwt beam="1">  1        2 0.39825690E-01 0.14170823E+04</pdfrwt>
<pdfrwt beam="2">  1       -2 0.29835969E+00 0.14170823E+04</pdfrwt>
<totfact> 0.41114305E+00</totfact>
</mgrwt>
</event>
<event>
12    1  0.1663913E-007  0.1359180E+04  0.7818608E-02  0.8983908E-01
         -4   -1    0    0    0  501 -0.00000000000E+00  0.00000000000E+00  0.11395090679E+04  0.11395090679E+04  0.00000000000E+00 0.  1.
          4   -1    0    0  501    0  0.00000000000E+00 -0.00000000000E+00 -0.40529978692E+03  0.40529978692E+03  0.00000000000E+00 0. -1.
         23    2    1    2    0    0 -0.17169042866E+03  0.18032589689E+03  0.40081793973E+03  0.48080467239E+03  0.92320527510E+02 0.  0.
        254    2    1    2    0    0  0.17169042866E+03 -0.18032589689E+03  0.33339134128E+03  0.10640041825E+04  0.97926507211E+03 0.  0.
        -24    2    4    4    0    0 -0.31789351816E+03 -0.21714870460E+03 -0.98355899834E+02  0.40501073657E+03  0.78421711997E+02 0.  0.
         24    2    4    4    0    0  0.48958394681E+03  0.36822807710E+02  0.43174724111E+03  0.65899344588E+03  0.82573127369E+02 0.  0.
         13    1    3    3    0    0  0.11535422215E+02  0.13385798969E+02  0.25664272692E+02  0.31159275867E+02  0.00000000000E+00 0. -1.
        -13    1    3    3    0    0 -0.18322585087E+03  0.16694009792E+03  0.37515366704E+03  0.44964539652E+03  0.00000000000E+00 0.  1.
          2    1    6    6  502    0  0.60947435652E+02 -0.21964821103E+02  0.65713146575E+02  0.92278171370E+02  0.00000000000E+00 0. -1.
          3    1    5    5  503    0 -0.24680923519E+02 -0.15257322860E+02 -0.31433099867E+02  0.42778191335E+02  0.00000000000E+00 0. -1.
         -4    1    5    5    0  503 -0.29321259464E+03 -0.20189138174E+03 -0.66922799966E+02  0.36223254524E+03  0.00000000000E+00 0.  1.
         -1    1    6    6    0  502  0.42863651116E+03  0.58787628813E+02  0.36603409454E+03  0.56671527451E+03  0.00000000000E+00 0.  1.
<mgrwt>
<rscale>  0 0.13591803E+04</rscale>
<asrwt>0</asrwt>
<pdfrwt beam="1">  1        4 0.62353814E-01 0.13591803E+04</pdfrwt>
<pdfrwt beam="2">  1       -4 0.17530909E+00 0.13591803E+04</pdfrwt>
<totfact> 0.91235159E-01</totfact>
</mgrwt>
</event>
<event>
12    1  0.1663913E-007  0.2738888E+04  0.7818608E-02  0.8322496E-01
         -1   -1    0    0    0  501 -0.00000000000E+00  0.00000000000E+00  0.21142756655E+04  0.21142756655E+04  0.00000000000E+00 0.  1.
          1   -1    0    0  501    0  0.00000000000E+00 -0.00000000000E+00 -0.88700659652E+03  0.88700659652E+03  0.00000000000E+00 0. -1.
         23    2    1    2    0    0  0.87911832626E+02  0.13106713726E+02 -0.78443280953E+03  0.79467953218E+03  0.90996977592E+02 0.  0.
        254    2    1    2    0    0 -0.87911832626E+02 -0.13106713726E+02  0.20117018785E+04  0.22066027298E+04  0.90235851138E+03 0.  0.
        -24    2    4    4    0    0 -0.11463651249E+03  0.30387329860E+03  0.17647361650E+04  0.17960715937E+04  0.78095620501E+02 0.  0.
         24    2    4    4    0    0  0.26724679862E+02 -0.31698001233E+03  0.24696571349E+03  0.41053113614E+03  0.79707047202E+02 0.  0.
         13    1    3    3    0    0 -0.12377046521E+02 -0.47621554654E+01 -0.23712816385E+02  0.27169230136E+02  0.00000000000E+00 0.  1.
        -13    1    3    3    0    0  0.10028887915E+03  0.17868869191E+02 -0.76071999315E+03  0.76751030204E+03  0.00000000000E+00 0. -1.
          4    1    6    6  502    0  0.43055614534E+02 -0.27974600246E+03  0.23573334047E+03  0.36835013186E+03  0.00000000000E+00 0. -1.
          1    1    5    5  503    0 -0.12025126343E+03  0.30445951951E+03  0.17485941176E+04  0.17789708692E+04  0.00000000000E+00 0. -1.
         -2    1    5    5    0  503  0.56147509403E+01 -0.58622090583E+00  0.16142047408E+02  0.17100724475E+02  0.00000000000E+00 0.  1.
         -3    1    6    6    0  502 -0.16330934673E+02 -0.37234009870E+02  0.11232373017E+02  0.42181004278E+02  0.00000000000E+00 0.  1.
<mgrwt>
<rscale>  0 0.27388877E+04</rscale>
<asrwt>0</asrwt>
<pdfrwt beam="1">  1        1 0.13646255E+00 0.27388877E+04</pdfrwt>
<pdfrwt beam="2">  1       -1 0.32527318E+00 0.27388877E+04</pdfrwt>
<totfact> 0.36693273E-01</totfact>
</mgrwt>
</event>
<event>
12    1  0.1663913E-007  0.1803380E+04  0.7818608E-02  0.8704504E-01
          2   -1    0    0  501    0  0.00000000000E+00  0.00000000000E+00  0.26538375353E+04  0.26538375353E+04  0.00000000000E+00 0.  1.
         -2   -1    0    0    0  501 -0.00000000000E+00 -0.00000000000E+00 -0.30636571485E+03  0.30636571485E+03  0.00000000000E+00 0. -1.
         23    2    1    2    0    0  0.29238444979E+03  0.16126753338E+03 -0.77010273845E+02  0.35225023604E+03  0.81570599527E+02 0.  0.
        254    2    1    2    0    0 -0.29238444979E+03 -0.16126753338E+03  0.24244820943E+04  0.26079530141E+04  0.90100478051E+03 0.  0.
        -24    2    4    4    0    0  0.84572287486E+02  0.28057871157E+02  0.20006565663E+04  0.20045172619E+04  0.86735465447E+02 0.  0.
         24    2    4    4    0    0 -0.37695673728E+03 -0.18932540454E+03  0.42382552801E+03  0.60343575225E+03  0.81031711798E+02 0.  0.
         13    1    3    3    0    0  0.89975662541E+02  0.47047340637E+02  0.14316773622E+02  0.10253800328E+03  0.00000000000E+00 0. -1.
        -13    1    3    3    0    0  0.20240878725E+03  0.11422019275E+03 -0.91327047467E+02  0.24971223275E+03  0.00000000000E+00 0.  1.
          4    1    6    6  502    0 -0.13866942699E+02 -0.10797034224E+02  0.12022889976E+00  0.17575053424E+02  0.00000000000E+00 0. -1.
          1    1    5    5  503    0 -0.99536160622E+01  0.23729783418E+02  0.67362497800E+03  0.67411630160E+03  0.00000000000E+00 0. -1.
         -2    1    5    5    0  503  0.94525903549E+02  0.43280877390E+01  0.13270315883E+04  0.13304009603E+04  0.00000000000E+00 0.  1.
         -3    1    6    6    0  502 -0.36308979458E+03 -0.17852837032E+03  0.42370529911E+03  0.58586069883E+03  0.00000000000E+00 0.  1.
<mgrwt>
<rscale>  0 0.18033800E+04</rscale>
<asrwt>0</asrwt>
<pdfrwt beam="1">  1        2 0.40828268E+00 0.18033800E+04</pdfrwt>
<pdfrwt beam="2">  1       -2 0.47133188E-01 0.18033800E+04</pdfrwt>
<totfact> 0.11411243E+01</totfact>
</mgrwt>
</event>
<event>
12    1  0.1663913E-007  0.1440151E+04  0.7818608E-02  0.8925257E-01
         -2   -1    0    0    0  501 -0.00000000000E+00  0.00000000000E+00  0.28707960651E+03  0.28707960651E+03  0.00000000000E+00 0.  1.
          2   -1    0    0  501    0  0.00000000000E+00 -0.00000000000E+00 -0.18061505493E+04  0.18061505493E+04  0.00000000000E+00 0. -1.
         23    2    1    2    0    0 -0.26578451295E+03  0.92495734673E+02  0.27553398284E+02  0.29641835932E+03  0.88925731526E+02 0.  0.
        254    2    1    2    0    0  0.26578451295E+03 -0.92495734673E+02 -0.15466243411E+04  0.17968117965E+04  0.87022348355E+03 0.  0.
        -24    2    4    4    0    0 -0.17493949810E+03  0.11516644708E+03 -0.63602496338E+02  0.23389410943E+03  0.82425956830E+02 0.  0.
         24    2    4    4    0    0  0.44072401105E+03 -0.20766218176E+03 -0.14830218448E+04  0.15629176871E+04  0.77438161612E+02 0.  0.
         11    1    3    3    0    0 -0.23045982099E+03  0.76424623959E+02 -0.91898475671E+01  0.24297511300E+03  0.00000000000E+00 0.  1.
        -11    1    3    3    0    0 -0.35324691961E+02  0.16071110714E+02  0.36743245851E+02  0.53443246321E+02  0.00000000000E+00 0. -1.
          4    1    6    6  502    0  0.35253213803E+03 -0.19611091615E+03 -0.11757323388E+04  0.12430144538E+04  0.00000000000E+00 0. -1.
          3    1    5    5  503    0 -0.12448851040E+03  0.12026999429E+03 -0.38559955084E+02  0.17733902808E+03  0.00000000000E+00 0. -1.
         -4    1    5    5    0  503 -0.50450987701E+02 -0.51035472010E+01 -0.25042541254E+02  0.56555081350E+02  0.00000000000E+00 0.  1.
         -3    1    6    6    0  502  0.88191873025E+02 -0.11551265607E+02 -0.30728950595E+03  0.31990323330E+03  0.00000000000E+00 0.  1.
<mgrwt>
<rscale>  0 0.14401514E+04</rscale>
<asrwt>0</asrwt>
<pdfrwt beam="1">  1        2 0.27786931E+00 0.14401514E+04</pdfrwt>
<pdfrwt beam="2">  1       -2 0.44166094E-01 0.14401514E+04</pdfrwt>
<totfact> 0.40393746E+01</totfact>
</mgrwt>
</event>
<event>
12    1  0.1663913E-007  0.2031083E+04  0.7818608E-02  0.8592225E-01
          1   -1    0    0  501    0  0.00000000000E+00  0.00000000000E+00  0.16343038006E+04  0.16343038006E+04  0.00000000000E+00 0. -1.
         -1   -1    0    0    0  501 -0.00000000000E+00 -0.00000000000E+00 -0.63104836764E+03  0.63104836764E+03  0.00000000000E+00 0.  1.
         23    2    1    2    0    0 -0.41820506508E+03 -0.28122973472E+03 -0.30444881029E+03  0.59509443162E+03  0.86386713743E+02 0.  0.
        254    2    1    2    0    0  0.41820506508E+03  0.28122973472E+03  0.13077042432E+04  0.16702577366E+04  0.90867204138E+03 0.  0.
        -24    2    4    4    0    0  0.60425516099E+03  0.42976692051E+03  0.11625371063E+04  0.13810865790E+04  0.77998138605E+02 0.  0.
         24    2    4    4    0    0 -0.18605009591E+03 -0.14853718580E+03  0.14516713697E+03  0.28917115763E+03  0.76606311733E+02 0.  0.
         13    1    3    3    0    0  0.35076377879E+01 -0.47568831038E+01 -0.86567418030E+01  0.10481919593E+02  0.00000000000E+00 0. -1.
        -13    1    3    3    0    0 -0.42171270287E+03 -0.27647285161E+03 -0.29579206849E+03  0.58461251203E+03  0.00000000000E+00 0.  1.
          4    1    6    6  502    0 -0.99158162321E+02 -0.54857355613E+02  0.10691037594E+03  0.15579312919E+03  0.00000000000E+00 0. -1.
          1    1    5    5  503    0  0.59832582505E+03  0.41261765425E+03  0.11421662970E+04  0.13538061056E+04  0.00000000000E+00 0. -1.
         -2    1    5    5    0  503  0.59293359445E+01  0.17149266265E+02  0.20370809254E+02  0.27280473380E+02  0.00000000000E+00 0.  1.
         -3    1    6    6    0  502 -0.86891933593E+02 -0.93679830185E+02  0.38256761031E+02  0.13337802844E+03  0.00000000000E+00 0.  1.
<mgrwt>
<rscale>  0 0.20310832E+04</rscale>
<asrwt>0</asrwt>
<pdfrwt beam="1">  1        1 0.25143135E+00 0.20310832E+04</pdfrwt>
<pdfrwt beam="2">  1       -1 0.97084365E-01 0.20310832E+04</pdfrwt>
<totfact> 0.49853695E+00</totfact>
</mgrwt>
</event>
<event>
12    1  0.1663913E-007  0.1384877E+04  0.7818608E-02  0.8964839E-01
          3   -1    0    0  501    0  0.00000000000E+00  0.00000000000E+00  0.31397497494E+03  0.31397497494E+03  0.00000000000E+00 0. -1.
         -3   -1    0    0    0  501 -0.00000000000E+00 -0.00000000000E+00 -0.15270994348E+04  0.15270994348E+04  0.00000000000E+00 0.  1.
         23    2    1    2    0    0  0.15179136780E+03  0.34364306649E+03 -0.50931103185E+03  0.63928505833E+03  0.90313244605E+02 0.  0.
        254    2    1    2    0    0 -0.15179136780E+03 -0.34364306649E+03 -0.70381342803E+03  0.12017893514E+04  0.89878424956E+03 0.  0.
        -24    2    4    4    0    0  0.13957714927E+03  0.11691725055E+03  0.10375913684E+03  0.22416681574E+03  0.79582527764E+02 0.  0.
         24    2    4    4    0    0 -0.29136851707E+03 -0.46056031705E+03 -0.80757256487E+03  0.97762253569E+03  0.80999730817E+02 0.  0.
         13    1    3    3    0    0  0.66318169948E+02  0.17208128818E+03 -0.17675360396E+03  0.25544452611E+03  0.00000000000E+00 0.  1.
        -13    1    3    3    0    0  0.85473197851E+02  0.17156177831E+03 -0.33255742788E+03  0.38384053221E+03  0.00000000000E+00 0. -1.
          2    1    6    6  502    0 -0.81737142875E+02 -0.20254419781E+03 -0.31037913629E+03  0.37952644287E+03  0.00000000000E+00 0. -1.
          1    1    5    5  503    0  0.10507186366E+03  0.99599556651E+02  0.11394562066E+03  0.18423835835E+03  0.00000000000E+00 0. -1.
         -4    1    5    5    0  503  0.34505285613E+02  0.17317693901E+02 -0.10186483821E+02  0.39928457395E+02  0.00000000000E+00 0.  1.
         -1    1    6    6    0  502 -0.20963137420E+03 -0.25801611924E+03 -0.49719342858E+03  0.59809609283E+03  0.00000000000E+00 0.  1.
<mgrwt>
<rscale>  0 0.13848769E+04</rscale>
<asrwt>0</asrwt>
<pdfrwt beam="1">  1        3 0.48303843E-01 0.13848769E+04</pdfrwt>
<pdfrwt beam="2">  1       -3 0.23493837E+00 0.13848769E+04</pdfrwt>
<totfact> 0.97555986E-01</totfact>
</mgrwt>
</event>
<event>
12    1  0.1663913E-007  0.1805164E+04  0.7818608E-02  0.8703558E-01
          1   -1    0    0  501    0  0.00000000000E+00  0.00000000000E+00  0.21390623222E+04  0.21390623222E+04  0.00000000000E+00 0. -1.
         -1   -1    0    0    0  501 -0.00000000000E+00 -0.00000000000E+00 -0.38084639023E+03  0.38084639023E+03  0.00000000000E+00 0.  1.
         23    2    1    2    0    0  0.59615606447E+03 -0.26510005662E+03  0.42967678200E+03  0.78633490833E+03  0.89556450570E+02 0.  0.
        254    2    1    2    0    0 -0.59615606447E+03  0.26510005662E+03  0.13285391499E+04  0.17335738041E+04  0.90254183728E+03 0.  0.
        -24    2    4    4    0    0 -0.25778877535E+03 -0.31945528986E+03  0.36834249208E+03  0.55680627065E+03  0.76487231937E+02 0.  0.
         24    2    4    4    0    0 -0.33836728912E+03  0.58455534648E+03  0.96019665787E+03  0.11767675334E+04  0.81282412040E+02 0.  0.
         11    1    3    3    0    0  0.50111431401E+03 -0.20138095465E+03  0.38613670378E+03  0.66390616702E+03  0.00000000000E+00 0. -1.
        -11    1    3    3    0    0  0.95041750460E+02 -0.63719101968E+02  0.43540078216E+02  0.12242874130E+03  0.00000000000E+00 0.  1.
          2    1    6    6  502    0 -0.12184983267E+03  0.29090598047E+03  0.45303622016E+03  0.55201040568E+03  0.00000000000E+00 0. -1.
          1    1    5    5  503    0 -0.99036298687E+02 -0.69311998391E+02  0.95663901486E+02  0.15415551766E+03  0.00000000000E+00 0. -1.
         -2    1    5    5    0  503 -0.15875247666E+03 -0.25014329147E+03  0.27267859059E+03  0.40265075299E+03  0.00000000000E+00 0.  1.
         -1    1    6    6    0  502 -0.21651745645E+03  0.29364936602E+03  0.50716043771E+03  0.62475712776E+03  0.00000000000E+00 0.  1.
<mgrwt>
<rscale>  0 0.18051639E+04</rscale>
<asrwt>0</asrwt>
<pdfrwt beam="1">  1        1 0.32908650E+00 0.18051639E+04</pdfrwt>
<pdfrwt beam="2">  1       -1 0.58591754E-01 0.18051639E+04</pdfrwt>
<totfact> 0.66762332E+00</totfact>
</mgrwt>
</event>
<event>
12    1  0.1663913E-007  0.1540009E+04  0.7818608E-02  0.8858275E-01
         -1   -1    0    0    0  501 -0.00000000000E+00  0.00000000000E+00  0.18395467382E+03  0.18395467382E+03  0.00000000000E+00 0.  1.
          1   -1    0    0  501    0  0.00000000000E+00 -0.00000000000E+00 -0.32231156474E+04  0.32231156474E+04  0.00000000000E+00 0. -1.
         23    2    1    2    0    0 -0.36199275647E+03  0.31537775345E+03 -0.95220263786E+03  0.10706017098E+04  0.94848691871E+02 0.  0.
        254    2    1    2    0    0  0.36199275647E+03 -0.31537775345E+03 -0.20869583357E+04  0.23364686114E+04  0.93444560785E+03 0.  0.
        -24    2    4    4    0    0  0.34258678015E+03 -0.62654559728E+03 -0.15803524090E+04  0.17360470059E+04  0.80127290707E+02 0.  0.
         24    2    4    4    0    0  0.19405976325E+02  0.31116784383E+03 -0.50660592672E+03  0.60042160551E+03  0.81575243933E+02 0.  0.
         11    1    3    3    0    0 -0.77025477391E+02  0.11624792251E+03 -0.22772335808E+03  0.26702889632E+03  0.00000000000E+00 0. -1.
        -11    1    3    3    0    0 -0.28496727908E+03  0.19912983094E+03 -0.72447927978E+03  0.80357281347E+03  0.00000000000E+00 0.  1.
          4    1    6    6  502    0  0.94680314158E+01  0.30857242858E+03 -0.50161318687E+03  0.58900116854E+03  0.00000000000E+00 0. -1.
          1    1    5    5  503    0  0.24954393068E+03 -0.43890828195E+03 -0.11990181693E+04  0.13009831757E+04  0.00000000000E+00 0. -1.
         -2    1    5    5    0  503  0.93042849470E+02 -0.18763731533E+03 -0.38133423970E+03  0.43506383015E+03  0.00000000000E+00 0.  1.
         -3    1    6    6    0  502  0.99379449090E+01  0.25954152481E+01 -0.49927398483E+01  0.11420436967E+02  0.00000000000E+00 0.  1.
<mgrwt>
<rscale>  0 0.15400093E+04</rscale>
<asrwt>0</asrwt>
<pdfrwt beam="1">  1        1 0.49586392E+00 0.15400093E+04</pdfrwt>
<pdfrwt beam="2">  1       -1 0.28300720E-01 0.15400093E+04</pdfrwt>
<totfact> 0.44847193E+00</totfact>
</mgrwt>
</event>
<event>
12    1  0.1663913E-007  0.1795994E+04  0.7818608E-02  0.8708433E-01
          2   -1    0    0  501    0  0.00000000000E+00  0.00000000000E+00  0.12875369035E+04  0.12875369035E+04  0.00000000000E+00 0. -1.
         -2   -1    0    0    0  501 -0.00000000000E+00 -0.00000000000E+00 -0.62631119611E+03  0.62631119611E+03  0.00000000000E+00 0.  1.
         23    2    1    2    0    0  0.63343908665E+03 -0.22261004633E+03  0.19877405503E+03  0.70641496207E+03  0.93330940517E+02 0.  0.
        254    2    1    2    0    0 -0.63343908665E+03  0.22261004633E+03  0.46245165232E+03  0.12074331375E+04  0.89063625661E+03 0.  0.
        -24    2    4    4    0    0 -0.68752488896E+03 -0.16704520324E+03  0.32797177473E+03  0.78402826835E+03  0.80871921521E+02 0.  0.
         24    2    4    4    0    0  0.54085802310E+02  0.38965524956E+03  0.13447987760E+03  0.42340486915E+03  0.80189514412E+02 0.  0.
         11    1    3    3    0    0  0.20560331843E+03 -0.75836689870E+02  0.11105111315E+03  0.24567514691E+03  0.00000000000E+00 0. -1.
        -11    1    3    3    0    0  0.42783576823E+03 -0.14677335646E+03  0.87722941880E+02  0.46073981516E+03  0.00000000000E+00 0.  1.
          4    1    6    6  502    0  0.49473136622E+02  0.33884336234E+03  0.14403862060E+03  0.37149635217E+03  0.00000000000E+00 0. -1.
          3    1    5    5  503    0 -0.56344651926E+03 -0.11293366448E+03  0.24107015527E+03  0.62316997071E+03  0.00000000000E+00 0. -1.
         -4    1    5    5    0  503 -0.12407836970E+03 -0.54111538756E+02  0.86901619455E+02  0.16085829764E+03  0.00000000000E+00 0.  1.
         -1    1    6    6    0  502  0.46126656887E+01  0.50811887218E+02 -0.95587430057E+01  0.51908516982E+02  0.00000000000E+00 0.  1.
<mgrwt>
<rscale>  0 0.17959942E+04</rscale>
<asrwt>0</asrwt>
<pdfrwt beam="1">  1        2 0.19808260E+00 0.17959942E+04</pdfrwt>
<pdfrwt beam="2">  1       -2 0.96355569E-01 0.17959942E+04</pdfrwt>
<totfact> 0.14315502E+01</totfact>
</mgrwt>
</event>
<event>
12    1  0.1663913E-007  0.1236611E+04  0.7818608E-02  0.9081401E-01
          2   -1    0    0  501    0  0.00000000000E+00  0.00000000000E+00  0.24900461286E+04  0.24900461286E+04  0.00000000000E+00 0. -1.
         -2   -1    0    0    0  501 -0.00000000000E+00 -0.00000000000E+00 -0.15353206354E+03  0.15353206354E+03  0.00000000000E+00 0.  1.
         23    2    1    2    0    0  0.21120109377E+03  0.18502110837E+03  0.58332255383E+03  0.65349806645E+03  0.89195338962E+02 0.  0.
        254    2    1    2    0    0 -0.21120109377E+03 -0.18502110837E+03  0.17531915112E+04  0.19900801257E+04  0.89883241990E+03 0.  0.
        -24    2    4    4    0    0 -0.70093217899E+02 -0.16347546103E+03  0.18061423572E+04  0.18166618469E+04  0.80453502964E+02 0.  0.
         24    2    4    4    0    0 -0.14110787587E+03 -0.21545647333E+02 -0.52950845959E+02  0.17341827875E+03  0.83032883637E+02 0.  0.
         13    1    3    3    0    0  0.17424262657E+03  0.17753866148E+03  0.54805402193E+03  0.60186682928E+03  0.00000000000E+00 0. -1.
        -13    1    3    3    0    0  0.36958467196E+02  0.74824468875E+01  0.35268531900E+02  0.51631237166E+02  0.00000000000E+00 0.  1.
          2    1    6    6  502    0  0.99306108289E+01 -0.88299582468E+01 -0.16064713759E+01  0.13385288355E+02  0.00000000000E+00 0. -1.
          1    1    5    5  503    0  0.43442059376E+01  0.34092831022E+01  0.11682257356E+02  0.12921705516E+02  0.00000000000E+00 0. -1.
         -2    1    5    5    0  503 -0.74437423836E+02 -0.16688474414E+03  0.17944600998E+04  0.18037401414E+04  0.00000000000E+00 0.  1.
         -1    1    6    6    0  502 -0.15103848670E+03 -0.12715689086E+02 -0.51344374583E+02  0.16003299039E+03  0.00000000000E+00 0.  1.
<mgrwt>
<rscale>  0 0.12366114E+04</rscale>
<asrwt>0</asrwt>
<pdfrwt beam="1">  1        2 0.38308399E+00 0.12366114E+04</pdfrwt>
<pdfrwt beam="2">  1       -2 0.23620319E-01 0.12366114E+04</pdfrwt>
<totfact> 0.55513943E+01</totfact>
</mgrwt>
</event>
<event>
12    1  0.2384095E-007  0.2197122E+04  0.7818608E-02  0.8519627E-01
          1   -1    0    0  501    0  0.00000000000E+00  0.00000000000E+00  0.16131919943E+04  0.16131919943E+04  0.00000000000E+00 0. -1.
         -1   -1    0    0    0  501 -0.00000000000E+00 -0.00000000000E+00 -0.74810471788E+03  0.74810471788E+03  0.00000000000E+00 0.  1.
         23    2    1    2    0    0  0.23692404533E+03  0.78284922957E+03  0.79325374198E+03  0.11428213167E+04  0.88335401519E+02 0.  0.
        254    2    1    2    0    0 -0.23692404533E+03 -0.78284922957E+03  0.71833534396E+02  0.12184753955E+04  0.90029790247E+03 0.  0.
        -24    2    4    4    0    0 -0.55449364205E+03 -0.62980000541E+03  0.13218746505E+03  0.85308946838E+03  0.78593061205E+02 0.  0.
         24    2    4    4    0    0  0.31756959671E+03 -0.15304922417E+03 -0.60353930652E+02  0.36538592708E+03  0.74764730904E+02 0.  0.
         11    1    3    3    0    0  0.28052934944E+02  0.96367428292E+02  0.14132680820E+03  0.17334046011E+03  0.00000000000E+00 0. -1.
        -11    1    3    3    0    0  0.20887111039E+03  0.68648180128E+03  0.65192693378E+03  0.96948085656E+03  0.00000000000E+00 0.  1.
          4    1    6    6  502    0  0.22156663723E+03 -0.87249538410E+02 -0.71069214555E+02  0.24850571410E+03  0.00000000000E+00 0. -1.
          1    1    5    5  503    0 -0.48919465807E+03 -0.55821051550E+03  0.14200807030E+03  0.75569615926E+03  0.00000000000E+00 0. -1.
         -2    1    5    5    0  503 -0.65298983982E+02 -0.71589489904E+02 -0.98206052473E+01  0.97393309119E+02  0.00000000000E+00 0.  1.
         -3    1    6    6    0  502  0.96002959488E+02 -0.65799685758E+02  0.10715283903E+02  0.11688021298E+03  0.00000000000E+00 0.  1.
<mgrwt>
<rscale>  0 0.21971222E+04</rscale>
<asrwt>0</asrwt>
<pdfrwt beam="1">  1        1 0.24818338E+00 0.21971222E+04</pdfrwt>
<pdfrwt beam="2">  1       -1 0.11509303E+00 0.21971222E+04</pdfrwt>
<totfact> 0.34140102E+00</totfact>
</mgrwt>
</event>
<event>
12    1  0.1663913E-007  0.1740604E+04  0.7818608E-02  0.8738539E-01
          2   -1    0    0  501    0  0.00000000000E+00  0.00000000000E+00  0.99967413736E+03  0.99967413736E+03  0.00000000000E+00 0. -1.
         -2   -1    0    0    0  501 -0.00000000000E+00 -0.00000000000E+00 -0.75767273057E+03  0.75767273057E+03  0.00000000000E+00 0.  1.
         23    2    1    2    0    0  0.44663751999E+03  0.34473616491E+02 -0.36187516832E+03  0.58291533958E+03  0.90350158674E+02 0.  0.
        254    2    1    2    0    0 -0.44663751999E+03 -0.34473616491E+02  0.60387657512E+03  0.11744315283E+04  0.90219121714E+03 0.  0.
        -24    2    4    4    0    0  0.14707131705E+03  0.24131603400E+03  0.37726774494E+03  0.47717534616E+03  0.74175191609E+02 0.  0.
         24    2    4    4    0    0 -0.59370883705E+03 -0.27578965049E+03  0.22660883018E+03  0.69725618218E+03  0.79148639662E+02 0.  0.
         13    1    3    3    0    0  0.18207472195E+03 -0.15105935739E+02 -0.10437348298E+03  0.21041201871E+03  0.00000000000E+00 0. -1.
        -13    1    3    3    0    0  0.26456279804E+03  0.49579552229E+02 -0.25750168534E+03  0.37250332088E+03  0.00000000000E+00 0.  1.
          4    1    6    6  502    0 -0.42913946370E+03 -0.19568392488E+03  0.20000197744E+03  0.51230232162E+03  0.00000000000E+00 0. -1.
          3    1    5    5  503    0  0.83813562853E+02  0.17827180625E+03  0.21251144876E+03  0.28977002273E+03  0.00000000000E+00 0. -1.
         -4    1    5    5    0  503  0.63257754201E+02  0.63044227754E+02  0.16475629618E+03  0.18740532343E+03  0.00000000000E+00 0.  1.
         -3    1    6    6    0  502 -0.16456937335E+03 -0.80105725618E+02  0.26606852735E+02  0.18495386056E+03  0.00000000000E+00 0.  1.
<mgrwt>
<rscale>  0 0.17406043E+04</rscale>
<asrwt>0</asrwt>
<pdfrwt beam="1">  1        2 0.15379602E+00 0.17406043E+04</pdfrwt>
<pdfrwt beam="2">  1       -2 0.11656503E+00 0.17406043E+04</pdfrwt>
<totfact> 0.13637173E+01</totfact>
</mgrwt>
</event>
<event>
12    1  0.1663913E-007  0.1790686E+04  0.7818608E-02  0.8711268E-01
          2   -1    0    0  501    0  0.00000000000E+00  0.00000000000E+00  0.22185812828E+04  0.22185812828E+04  0.00000000000E+00 0. -1.
         -2   -1    0    0    0  501 -0.00000000000E+00 -0.00000000000E+00 -0.36132950660E+03  0.36132950660E+03  0.00000000000E+00 0.  1.
         23    2    1    2    0    0  0.36950951519E+03 -0.48737071196E+03  0.32618677489E+03  0.69917978562E+03  0.91580935906E+02 0.  0.
        254    2    1    2    0    0 -0.36950951519E+03  0.48737071196E+03  0.15310650013E+04  0.18807310038E+04  0.90494285879E+03 0.  0.
        -24    2    4    4    0    0 -0.95299460690E+01 -0.25112332357E+03  0.38740131729E+03  0.47032361192E+03  0.89279201251E+02 0.  0.
         24    2    4    4    0    0 -0.35997956912E+03  0.73849403552E+03  0.11436636840E+04  0.14104073919E+04  0.79521432379E+02 0.  0.
         13    1    3    3    0    0  0.76315157930E+02 -0.61826286373E+02  0.80443965206E+02  0.12695560072E+03  0.00000000000E+00 0. -1.
        -13    1    3    3    0    0  0.29319435726E+03 -0.42554442558E+03  0.24574280968E+03  0.57222418490E+03  0.00000000000E+00 0.  1.
          2    1    6    6  502    0 -0.11403460918E+03  0.31868599774E+03  0.44831241143E+03  0.56173719433E+03  0.00000000000E+00 0. -1.
          1    1    5    5  503    0  0.13928386491E+02 -0.17966532695E+03  0.20453705883E+03  0.27259684168E+03  0.00000000000E+00 0. -1.
         -2    1    5    5    0  503 -0.23458332560E+02 -0.71457996621E+02  0.18286425846E+03  0.19772677024E+03  0.00000000000E+00 0.  1.
         -1    1    6    6    0  502 -0.24594495994E+03  0.41980803778E+03  0.69535127261E+03  0.84867019756E+03  0.00000000000E+00 0.  1.
<mgrwt>
<rscale>  0 0.17906858E+04</rscale>
<asrwt>0</asrwt>
<pdfrwt beam="1">  1        2 0.34132019E+00 0.17906858E+04</pdfrwt>
<pdfrwt beam="2">  1       -2 0.55589156E-01 0.17906858E+04</pdfrwt>
<totfact> 0.14486264E+01</totfact>
</mgrwt>
</event>
<event>
12    1  0.1663913E-007  0.1636261E+04  0.7818608E-02  0.8798576E-01
         -2   -1    0    0    0  501 -0.00000000000E+00  0.00000000000E+00  0.59029633267E+03  0.59029633267E+03  0.00000000000E+00 0.  1.
          2   -1    0    0  501    0  0.00000000000E+00 -0.00000000000E+00 -0.11339004635E+04  0.11339004635E+04  0.00000000000E+00 0. -1.
         23    2    1    2    0    0  0.20480635394E+03  0.15469325093E+03 -0.72188547039E+03  0.77314780878E+03  0.10374611972E+03 0.  0.
        254    2    1    2    0    0 -0.20480635394E+03 -0.15469325093E+03  0.17828133957E+03  0.95104898739E+03  0.89823955373E+03 0.  0.
        -24    2    4    4    0    0  0.88800951377E+02  0.10554592030E+03  0.44292432980E+03  0.47108076181E+03  0.81911976868E+02 0.  0.
         24    2    4    4    0    0 -0.29360730532E+03 -0.26023917123E+03 -0.26464299023E+03  0.47996822558E+03  0.80024429459E+02 0.  0.
         11    1    3    3    0    0  0.11522673270E+03  0.14312017688E+03 -0.53289404001E+03  0.56368133093E+03  0.00000000000E+00 0. -1.
        -11    1    3    3    0    0  0.89579621240E+02  0.11573074047E+02 -0.18899143038E+03  0.20946647785E+03  0.00000000000E+00 0.  1.
          4    1    6    6  502    0 -0.74425503127E+01  0.59607691746E+01 -0.74368689839E+01  0.12092532596E+02  0.00000000000E+00 0. -1.
          1    1    5    5  503    0  0.58724632250E+01  0.33948233699E+02  0.22008149660E+03  0.22276183143E+03  0.00000000000E+00 0. -1.
         -2    1    5    5    0  503  0.82928488152E+02  0.71597686603E+02  0.22284283321E+03  0.24831893038E+03  0.00000000000E+00 0.  1.
         -3    1    6    6    0  502 -0.28616475501E+03 -0.26619994041E+03 -0.25720612125E+03  0.46787569299E+03  0.00000000000E+00 0.  1.
<mgrwt>
<rscale>  0 0.16362607E+04</rscale>
<asrwt>0</asrwt>
<pdfrwt beam="1">  1        2 0.17444623E+00 0.16362607E+04</pdfrwt>
<pdfrwt beam="2">  1       -2 0.90814820E-01 0.16362607E+04</pdfrwt>
<totfact> 0.20557069E+01</totfact>
</mgrwt>
</event>
<event>
12    1  0.1663913E-007  0.2601462E+04  0.7818608E-02  0.8367705E-01
         -2   -1    0    0    0  501 -0.00000000000E+00  0.00000000000E+00  0.53633599754E+03  0.53633599754E+03  0.00000000000E+00 0.  1.
          2   -1    0    0  501    0  0.00000000000E+00 -0.00000000000E+00 -0.31545555281E+04  0.31545555281E+04  0.00000000000E+00 0. -1.
         23    2    1    2    0    0 -0.14545963021E+03  0.89698068972E+03 -0.21198470468E+04  0.23084729063E+04  0.97789548167E+02 0.  0.
        254    2    1    2    0    0  0.14545963021E+03 -0.89698068972E+03 -0.49837248379E+03  0.13824186193E+04  0.91486241847E+03 0.  0.
        -24    2    4    4    0    0 -0.34737952612E+03 -0.60147014150E+03 -0.19601151750E+03  0.72691094922E+03  0.86834018822E+02 0.  0.
         24    2    4    4    0    0  0.49283915633E+03 -0.29551054822E+03 -0.30236096629E+03  0.65550767011E+03  0.89728666079E+02 0.  0.
         13    1    3    3    0    0 -0.87424615860E+02  0.26069140225E+03 -0.62627827691E+03  0.68397920348E+03  0.00000000000E+00 0.  1.
        -13    1    3    3    0    0 -0.58035014355E+02  0.63628928747E+03 -0.14935687699E+04  0.16244937029E+04  0.00000000000E+00 0. -1.
          4    1    6    6  502    0  0.48041673198E+02 -0.11554603522E+02 -0.50936599516E+02  0.70965120986E+02  0.00000000000E+00 0. -1.
          3    1    5    5  503    0 -0.18657044168E+03 -0.24463760685E+03 -0.10488294968E+03  0.32504849104E+03  0.00000000000E+00 0. -1.
         -4    1    5    5    0  503 -0.16080908443E+03 -0.35683253465E+03 -0.91128567823E+02  0.40186245818E+03  0.00000000000E+00 0.  1.
         -3    1    6    6    0  502  0.44479748313E+03 -0.28395594470E+03 -0.25142436677E+03  0.58454254912E+03  0.00000000000E+00 0.  1.
<mgrwt>
<rscale>  0 0.26014624E+04</rscale>
<asrwt>0</asrwt>
<pdfrwt beam="1">  1        2 0.48531623E+00 0.26014624E+04</pdfrwt>
<pdfrwt beam="2">  1       -2 0.82513231E-01 0.26014624E+04</pdfrwt>
<totfact> 0.15825817E+00</totfact>
</mgrwt>
</event>
<event>
12    1  0.1663913E-007  0.1227788E+04  0.7818608E-02  0.9088876E-01
         -1   -1    0    0    0  501 -0.00000000000E+00  0.00000000000E+00  0.27246001090E+03  0.27246001090E+03  0.00000000000E+00 0.  1.
          1   -1    0    0  501    0  0.00000000000E+00 -0.00000000000E+00 -0.13831968075E+04  0.13831968075E+04  0.00000000000E+00 0. -1.
         23    2    1    2    0    0 -0.23426018481E+02 -0.16559238966E+03  0.37185718027E+02  0.19441014166E+03  0.91885296419E+02 0.  0.
        254    2    1    2    0    0  0.23426018481E+02  0.16559238966E+03 -0.11479225147E+04  0.14612466768E+04  0.88856408485E+03 0.  0.
        -24    2    4    4    0    0  0.13783486400E+03 -0.30349760552E+03 -0.76992163701E+03  0.84268521644E+03  0.78929085714E+02 0.  0.
         24    2    4    4    0    0 -0.11440884552E+03  0.46908999518E+03 -0.37800087764E+03  0.61856146034E+03  0.81233054863E+02 0.  0.
         11    1    3    3    0    0 -0.51796056871E+02 -0.11028486487E+03 -0.26088100844E+00  0.12184273054E+03  0.00000000000E+00 0.  1.
        -11    1    3    3    0    0  0.28370038390E+02 -0.55307524796E+02  0.37446599035E+02  0.72567411120E+02  0.00000000000E+00 0. -1.
          4    1    6    6  502    0 -0.13235263890E+02  0.75652184523E+02 -0.10094890176E+03  0.12684283976E+03  0.00000000000E+00 0. -1.
          3    1    5    5  503    0 -0.76295650742E+01 -0.35626077106E+02 -0.10722256657E+03  0.11324357119E+03  0.00000000000E+00 0. -1.
         -4    1    5    5    0  503  0.14546442908E+03 -0.26787152841E+03 -0.66269907044E+03  0.72944164525E+03  0.00000000000E+00 0.  1.
         -3    1    6    6    0  502 -0.10117358163E+03  0.39343781066E+03 -0.27705197588E+03  0.49171862057E+03  0.00000000000E+00 0.  1.
<mgrwt>
<rscale>  0 0.12277880E+04</rscale>
<asrwt>0</asrwt>
<pdfrwt beam="1">  1        1 0.21279950E+00 0.12277880E+04</pdfrwt>
<pdfrwt beam="2">  1       -1 0.41916926E-01 0.12277880E+04</pdfrwt>
<totfact> 0.43563622E+01</totfact>
</mgrwt>
</event>
<event>
12    1  0.1663913E-007  0.2943339E+04  0.7818608E-02  0.8260098E-01
          1   -1    0    0  501    0  0.00000000000E+00  0.00000000000E+00  0.11361374075E+04  0.11361374075E+04  0.00000000000E+00 0. -1.
         -1   -1    0    0    0  501 -0.00000000000E+00 -0.00000000000E+00 -0.19062930976E+04  0.19062930976E+04  0.00000000000E+00 0.  1.
         23    2    1    2    0    0  0.81564846053E+03  0.82074200586E+03 -0.10287234244E+04  0.15509853240E+04  0.91562764321E+02 0.  0.
        254    2    1    2    0    0 -0.81564846053E+03 -0.82074200586E+03  0.25856773433E+03  0.14914451812E+04  0.90479368029E+03 0.  0.
        -24    2    4    4    0    0 -0.87840868931E+03 -0.87116162735E+03  0.40746683650E+03  0.13049814158E+04  0.80142787198E+02 0.  0.
         24    2    4    4    0    0  0.62760228786E+02  0.50419621486E+02 -0.14889910217E+03  0.18646376537E+03  0.78210028907E+02 0.  0.
         11    1    3    3    0    0  0.40947373579E+03  0.47424094195E+03 -0.53853972679E+03  0.82619504274E+03  0.00000000000E+00 0.  1.
        -11    1    3    3    0    0  0.40617472474E+03  0.34650106391E+03 -0.49018369765E+03  0.72479028122E+03  0.00000000000E+00 0. -1.
          4    1    6    6  502    0  0.87997043872E+01  0.25904621415E+02 -0.11495035621E+03  0.11816119753E+03  0.00000000000E+00 0. -1.
          3    1    5    5  503    0 -0.46567711456E+03 -0.44324508974E+03  0.25146064971E+03  0.69032879337E+03  0.00000000000E+00 0. -1.
         -4    1    5    5    0  503 -0.41273157476E+03 -0.42791653760E+03  0.15600618679E+03  0.61465262244E+03  0.00000000000E+00 0.  1.
         -3    1    6    6    0  502  0.53960524399E+02  0.24515000071E+02 -0.33948745956E+02  0.68302567842E+02  0.00000000000E+00 0.  1.
<mgrwt>
<rscale>  0 0.29433389E+04</rscale>
<asrwt>0</asrwt>
<pdfrwt beam="1">  1        1 0.17479037E+00 0.29433389E+04</pdfrwt>
<pdfrwt beam="2">  1       -1 0.29327586E+00 0.29433389E+04</pdfrwt>
<totfact> 0.37190294E-01</totfact>
</mgrwt>
</event>
<event>
12    1  0.1663913E-007  0.2773360E+04  0.7818608E-02  0.8311587E-01
         -1   -1    0    0    0  501 -0.00000000000E+00  0.00000000000E+00  0.73317591325E+03  0.73317591325E+03  0.00000000000E+00 0.  1.
          1   -1    0    0  501    0  0.00000000000E+00 -0.00000000000E+00 -0.26226730890E+04  0.26226730890E+04  0.00000000000E+00 0. -1.
         23    2    1    2    0    0  0.74347392613E+03 -0.19193758594E+01 -0.20434745416E+04  0.21764146200E+04  0.90748186690E+02 0.  0.
        254    2    1    2    0    0 -0.74347392613E+03  0.19193758594E+01  0.15397736582E+03  0.11794343822E+04  0.90255153313E+03 0.  0.
        -24    2    4    4    0    0  0.63972056605E+02 -0.57010412248E+02  0.32718348088E+03  0.34770817088E+03  0.80680423916E+02 0.  0.
         24    2    4    4    0    0 -0.80744598273E+03  0.58929788108E+02 -0.17320611506E+03  0.83172621135E+03  0.79538653450E+02 0.  0.
         13    1    3    3    0    0  0.56852421749E+03 -0.26463345998E+02 -0.14693810600E+04  0.15757540399E+04  0.00000000000E+00 0. -1.
        -13    1    3    3    0    0  0.17494970864E+03  0.24543970139E+02 -0.57409348154E+03  0.60066058017E+03  0.00000000000E+00 0.  1.
          2    1    6    6  502    0 -0.15208066592E+03 -0.18352628792E+02 -0.22470684438E+02  0.15482338192E+03  0.00000000000E+00 0. -1.
          1    1    5    5  503    0  0.49764925970E+02 -0.36312853610E+02  0.89208887876E+02  0.10841308440E+03  0.00000000000E+00 0. -1.
         -2    1    5    5    0  503  0.14207130635E+02 -0.20697558638E+02  0.23797459301E+03  0.23929508647E+03  0.00000000000E+00 0.  1.
         -1    1    6    6    0  502 -0.65536531681E+03  0.77282416899E+02 -0.15073543063E+03  0.67690282943E+03  0.00000000000E+00 0.  1.
<mgrwt>
<rscale>  0 0.27733595E+04</rscale>
<asrwt>0</asrwt>
<pdfrwt beam="1">  1        1 0.40348817E+00 0.27733595E+04</pdfrwt>
<pdfrwt beam="2">  1       -1 0.11279629E+00 0.27733595E+04</pdfrwt>
<totfact> 0.69361501E-01</totfact>
</mgrwt>
</event>
<event>
12    1  0.1663913E-007  0.1092461E+04  0.7818608E-02  0.9212571E-01
         -2   -1    0    0    0  501 -0.00000000000E+00  0.00000000000E+00  0.46319996054E+03  0.46319996054E+03  0.00000000000E+00 0.  1.
          2   -1    0    0  501    0  0.00000000000E+00 -0.00000000000E+00 -0.64414503358E+03  0.64414503358E+03  0.00000000000E+00 0. -1.
         23    2    1    2    0    0 -0.14467939127E+03  0.10088232636E+02 -0.52352334833E+02  0.19033416638E+03  0.11159045314E+03 0.  0.
        254    2    1    2    0    0  0.14467939127E+03 -0.10088232636E+02 -0.12859273821E+03  0.91701082773E+03  0.89629173106E+03 0.  0.
        -24    2    4    4    0    0 -0.35854986454E+03  0.87985722858E+02  0.18196646149E+02  0.37805651941E+03  0.79348101085E+02 0.  0.
         24    2    4    4    0    0  0.50322925581E+03 -0.98073955494E+02 -0.14678938435E+03  0.53895430833E+03  0.77887344607E+02 0.  0.
         13    1    3    3    0    0 -0.78821421960E+02  0.54312406869E+01 -0.85535701559E+02  0.11644170720E+03  0.00000000000E+00 0. -1.
        -13    1    3    3    0    0 -0.65857969312E+02  0.46569919492E+01  0.33183366726E+02  0.73892459177E+02  0.00000000000E+00 0.  1.
          4    1    6    6  502    0  0.34668710375E+02 -0.15137534735E+02  0.78076766031E+01  0.38626729746E+02  0.00000000000E+00 0. -1.
          3    1    5    5  503    0 -0.18360463318E+03  0.76863651981E+02 -0.15128708717E+02  0.19961853658E+03  0.00000000000E+00 0. -1.
         -4    1    5    5    0  503 -0.17494523136E+03  0.11122070877E+02  0.33325354865E+02  0.17843798282E+03  0.00000000000E+00 0.  1.
         -3    1    6    6    0  502  0.46856054544E+03 -0.82936420758E+02 -0.15459706096E+03  0.50032757858E+03  0.00000000000E+00 0.  1.
<mgrwt>
<rscale>  0 0.10924614E+04</rscale>
<asrwt>0</asrwt>
<pdfrwt beam="1">  1        2 0.99099235E-01 0.10924614E+04</pdfrwt>
<pdfrwt beam="2">  1       -2 0.71261533E-01 0.10924614E+04</pdfrwt>
<totfact> 0.80787002E+01</totfact>
</mgrwt>
</event>
<event>
12    1  0.1663913E-007  0.1970576E+04  0.7818608E-02  0.8620502E-01
          1   -1    0    0  501    0  0.00000000000E+00  0.00000000000E+00  0.67274273742E+03  0.67274273742E+03  0.00000000000E+00 0. -1.
         -1   -1    0    0    0  501 -0.00000000000E+00 -0.00000000000E+00 -0.14430359496E+04  0.14430359496E+04  0.00000000000E+00 0.  1.
         23    2    1    2    0    0  0.22665793718E+03 -0.10579414070E+03  0.48026651384E+03  0.54987132265E+03  0.95584132940E+02 0.  0.
        254    2    1    2    0    0 -0.22665793718E+03  0.10579414070E+03 -0.12505597260E+04  0.15659073644E+04  0.90862534895E+03 0.  0.
        -24    2    4    4    0    0  0.32527793402E+03  0.54227034479E+02 -0.25921176483E+03  0.42731843550E+03  0.81633330615E+02 0.  0.
         24    2    4    4    0    0 -0.55193587120E+03  0.51567106220E+02 -0.99134796119E+03  0.11385889289E+04  0.79508467544E+02 0.  0.
         13    1    3    3    0    0  0.85306047405E+02  0.78211769861E-01  0.10626481317E+03  0.13626935958E+03  0.00000000000E+00 0. -1.
        -13    1    3    3    0    0  0.14135188977E+03 -0.10587235247E+03  0.37400170066E+03  0.41360196307E+03  0.00000000000E+00 0.  1.
          2    1    6    6  502    0 -0.12090851270E+03  0.32100587867E+02 -0.27897663400E+03  0.30574054115E+03  0.00000000000E+00 0. -1.
          3    1    5    5  503    0  0.12438314678E+03 -0.15895936493E+02 -0.76751845907E+02  0.14701936556E+03  0.00000000000E+00 0. -1.
         -4    1    5    5    0  503  0.20089478724E+03  0.70122970972E+02 -0.18245991892E+03  0.28029906994E+03  0.00000000000E+00 0.  1.
         -1    1    6    6    0  502 -0.43102735850E+03  0.19466518353E+02 -0.71237132719E+03  0.83284838772E+03  0.00000000000E+00 0.  1.
<mgrwt>
<rscale>  0 0.19705755E+04</rscale>
<asrwt>0</asrwt>
<pdfrwt beam="1">  1        1 0.10349888E+00 0.19705755E+04</pdfrwt>
<pdfrwt beam="2">  1       -1 0.22200553E+00 0.19705755E+04</pdfrwt>
<totfact> 0.28704470E+00</totfact>
</mgrwt>
</event>
<event>
12    1  0.1663913E-007  0.1705260E+04  0.7818608E-02  0.8758370E-01
         -2   -1    0    0    0  501 -0.00000000000E+00  0.00000000000E+00  0.27433008905E+03  0.27433008905E+03  0.00000000000E+00 0.  1.
          2   -1    0    0  501    0  0.00000000000E+00 -0.00000000000E+00 -0.26500102720E+04  0.26500102720E+04  0.00000000000E+00 0. -1.
         23    2    1    2    0    0  0.15555819820E+02 -0.53756164474E+03 -0.13262866794E+04  0.14340954678E+04  0.91536600533E+02 0.  0.
        254    2    1    2    0    0 -0.15555819820E+02  0.53756164474E+03 -0.10493935036E+04  0.14902448933E+04  0.91125661112E+03 0.  0.
        -24    2    4    4    0    0  0.33935534560E+03  0.40906766811E+03 -0.23022622025E+03  0.58482918204E+03  0.80762937004E+02 0.  0.
         24    2    4    4    0    0 -0.35491116541E+03  0.12849397663E+03 -0.81916728331E+03  0.90541571128E+03  0.79182920013E+02 0.  0.
         11    1    3    3    0    0  0.22049469435E+02 -0.14056229096E+03 -0.26172639235E+03  0.29790038804E+03  0.00000000000E+00 0. -1.
        -11    1    3    3    0    0 -0.64936496159E+01 -0.39699935377E+03 -0.10645602871E+04  0.11361950797E+04  0.00000000000E+00 0.  1.
          4    1    6    6  502    0 -0.18336563192E+03  0.76086914796E+02 -0.51984201632E+03  0.55646014727E+03  0.00000000000E+00 0. -1.
          1    1    5    5  503    0  0.24551761328E+03  0.34076201687E+03 -0.16173631973E+03  0.45006253754E+03  0.00000000000E+00 0. -1.
         -2    1    5    5    0  503  0.93837732313E+02  0.68305651241E+02 -0.68489900516E+02  0.13476664450E+03  0.00000000000E+00 0.  1.
         -3    1    6    6    0  502 -0.17154553350E+03  0.52407061831E+02 -0.29932526699E+03  0.34895556400E+03  0.00000000000E+00 0.  1.
<mgrwt>
<rscale>  0 0.17052596E+04</rscale>
<asrwt>0</asrwt>
<pdfrwt beam="1">  1        2 0.40769389E+00 0.17052596E+04</pdfrwt>
<pdfrwt beam="2">  1       -2 0.42204629E-01 0.17052596E+04</pdfrwt>
<totfact> 0.14425433E+01</totfact>
</mgrwt>
</event>
<event>
12    1  0.1663913E-007  0.1913907E+04  0.7818608E-02  0.8647965E-01
          2   -1    0    0  501    0  0.00000000000E+00  0.00000000000E+00  0.47679857739E+04  0.47679857739E+04  0.00000000000E+00 0. -1.
         -2   -1    0    0    0  501 -0.00000000000E+00 -0.00000000000E+00 -0.19206429131E+03  0.19206429131E+03  0.00000000000E+00 0.  1.
         23    2    1    2    0    0  0.51926128413E+03 -0.50089752009E+03  0.20489069230E+04  0.21736809664E+04  0.79616315997E+02 0.  0.
        254    2    1    2    0    0 -0.51926128413E+03  0.50089752009E+03  0.25270145596E+04  0.27863690988E+04  0.92602352211E+03 0.  0.
        -24    2    4    4    0    0 -0.64698630490E+02 -0.23545938181E+03  0.29300674618E+03  0.38928122478E+03  0.77845265693E+02 0.  0.
         24    2    4    4    0    0 -0.45456265364E+03  0.73635690190E+03  0.22340078134E+04  0.23970878740E+04  0.79941680732E+02 0.  0.
         13    1    3    3    0    0  0.43270791337E+03 -0.39265226384E+03  0.17283173954E+04  0.18244157854E+04  0.00000000000E+00 0. -1.
        -13    1    3    3    0    0  0.86553370762E+02 -0.10824525625E+03  0.32058952755E+03  0.34926518101E+03  0.00000000000E+00 0.  1.
          4    1    6    6  502    0 -0.47875750495E+02  0.49726863357E+02  0.13806419460E+03  0.15435857688E+03  0.00000000000E+00 0. -1.
          3    1    5    5  503    0 -0.13506792072E+02 -0.80435064253E+01  0.50568376204E+02  0.52955567220E+02  0.00000000000E+00 0. -1.
         -4    1    5    5    0  503 -0.51191838417E+02 -0.22741587538E+03  0.24243836997E+03  0.33632565756E+03  0.00000000000E+00 0.  1.
         -3    1    6    6    0  502 -0.40668690315E+03  0.68663003854E+03  0.20959436188E+04  0.22427292971E+04  0.00000000000E+00 0.  1.
<mgrwt>
<rscale>  0 0.19139068E+04</rscale>
<asrwt>0</asrwt>
<pdfrwt beam="1">  1        2 0.73353618E+00 0.19139068E+04</pdfrwt>
<pdfrwt beam="2">  1       -2 0.29548356E-01 0.19139068E+04</pdfrwt>
<totfact> 0.65345623E-01</totfact>
</mgrwt>
</event>
<event>
12    1  0.1663913E-007  0.1501309E+04  0.7818608E-02  0.8883583E-01
          1   -1    0    0  501    0  0.00000000000E+00  0.00000000000E+00  0.88910273704E+03  0.88910273704E+03  0.00000000000E+00 0. -1.
         -1   -1    0    0    0  501 -0.00000000000E+00 -0.00000000000E+00 -0.63376514173E+03  0.63376514173E+03  0.00000000000E+00 0.  1.
         23    2    1    2    0    0 -0.31950136669E+03 -0.34747875691E+03  0.17982082347E+02  0.48046930160E+03  0.87776902853E+02 0.  0.
        254    2    1    2    0    0  0.31950136669E+03  0.34747875691E+03  0.23735551296E+03  0.10423985772E+04  0.89857361653E+03 0.  0.
        -24    2    4    4    0    0 -0.20498455936E+03 -0.16450124379E+03  0.40557038721E+02  0.27929570487E+03  0.85333982593E+02 0.  0.
         24    2    4    4    0    0  0.52448592605E+03  0.51198000071E+03  0.19679847424E+03  0.76310287229E+03  0.79920876454E+02 0.  0.
         11    1    3    3    0    0  0.47359807015E+01 -0.72175506804E+00 -0.22794756403E+01  0.53053230607E+01  0.00000000000E+00 0.  1.
        -11    1    3    3    0    0 -0.32423734739E+03 -0.34675700184E+03  0.20261557987E+02  0.47516397854E+03  0.00000000000E+00 0. -1.
          2    1    6    6  502    0  0.17025583724E+03  0.11624676002E+03  0.57433736153E+02  0.21400699376E+03  0.00000000000E+00 0. -1.
          1    1    5    5  503    0 -0.13192275393E+03 -0.57696813293E+02  0.10353711308E+01  0.14399169164E+03  0.00000000000E+00 0. -1.
         -2    1    5    5    0  503 -0.73061805430E+02 -0.10680443050E+03  0.39521667590E+02  0.13530401323E+03  0.00000000000E+00 0.  1.
         -1    1    6    6    0  502  0.35423008880E+03  0.39573324068E+03  0.13936473809E+03  0.54909587853E+03  0.00000000000E+00 0.  1.
<mgrwt>
<rscale>  0 0.15013092E+04</rscale>
<asrwt>0</asrwt>
<pdfrwt beam="1">  1        1 0.13678504E+00 0.15013092E+04</pdfrwt>
<pdfrwt beam="2">  1       -1 0.97502330E-01 0.15013092E+04</pdfrwt>
<totfact> 0.18148158E+01</totfact>
</mgrwt>
</event>
<event>
12    1  0.1663913E-007  0.1181375E+04  0.7818608E-02  0.9129317E-01
          1   -1    0    0  501    0  0.00000000000E+00  0.00000000000E+00  0.27380794791E+04  0.27380794791E+04  0.00000000000E+00 0.  1.
         -1   -1    0    0    0  501 -0.00000000000E+00 -0.00000000000E+00 -0.12742927390E+03  0.12742927390E+03  0.00000000000E+00 0. -1.
         23    2    1    2    0    0 -0.18592856758E+03  0.49361514688E+02  0.21420027868E+03  0.30561193796E+03  0.10252270901E+03 0.  0.
        254    2    1    2    0    0  0.18592856758E+03 -0.49361514688E+02  0.23964499265E+04  0.25598968150E+04  0.87925733546E+03 0.  0.
        -24    2    4    4    0    0  0.10162400688E+03  0.26127842234E+03  0.20850321780E+04  0.21053588507E+04  0.81134790894E+02 0.  0.
         24    2    4    4    0    0  0.84304560699E+02 -0.31063993703E+03  0.31141774848E+03  0.45453796427E+03  0.77584260418E+02 0.  0.
         11    1    3    3    0    0 -0.15030844035E+03  0.51186221973E+01  0.10793255728E+03  0.18511689403E+03  0.00000000000E+00 0. -1.
        -11    1    3    3    0    0 -0.35620127221E+02  0.44242892491E+02  0.10626772140E+03  0.12049504393E+03  0.00000000000E+00 0.  1.
          2    1    6    6  502    0  0.77792755661E+02 -0.15551724645E+03  0.18898783922E+03  0.25681458321E+03  0.00000000000E+00 0. -1.
          3    1    5    5  503    0 -0.10009738500E+01  0.50473105608E+02  0.22413959939E+03  0.22975442619E+03  0.00000000000E+00 0. -1.
         -4    1    5    5    0  503  0.10262498073E+03  0.21080531673E+03  0.18608925786E+04  0.18756044245E+04  0.00000000000E+00 0.  1.
         -1    1    6    6    0  502  0.65118050375E+01 -0.15512269058E+03  0.12242990926E+03  0.19772338106E+03  0.00000000000E+00 0.  1.
<mgrwt>
<rscale>  0 0.11813746E+04</rscale>
<asrwt>0</asrwt>
<pdfrwt beam="1">  1        1 0.42124295E+00 0.11813746E+04</pdfrwt>
<pdfrwt beam="2">  1       -1 0.19604506E-01 0.11813746E+04</pdfrwt>
<totfact> 0.19523849E+01</totfact>
</mgrwt>
</event>
<event>
12    1  0.1663913E-007  0.1115864E+04  0.7818608E-02  0.9189866E-01
         -2   -1    0    0    0  501 -0.00000000000E+00  0.00000000000E+00  0.32502215016E+03  0.32502215016E+03  0.00000000000E+00 0.  1.
          2   -1    0    0  501    0  0.00000000000E+00 -0.00000000000E+00 -0.95774405825E+03  0.95774405825E+03  0.00000000000E+00 0. -1.
         23    2    1    2    0    0 -0.12857416478E+03  0.11636566115E+03 -0.11971642716E+03  0.22869753946E+03  0.88872147929E+02 0.  0.
        254    2    1    2    0    0  0.12857416478E+03 -0.11636566115E+03 -0.51300548093E+03  0.10540686689E+04  0.90433061014E+03 0.  0.
        -24    2    4    4    0    0 -0.21127429800E+03 -0.40236753354E+03 -0.32793882376E+03  0.56612554081E+03  0.80111140228E+02 0.  0.
         24    2    4    4    0    0  0.33984846278E+03  0.28600187238E+03 -0.18506665717E+03  0.48794312814E+03  0.80899814836E+02 0.  0.
         11    1    3    3    0    0  0.10191471595E+01 -0.31248556223E+01 -0.31337116965E+02  0.31509019079E+02  0.00000000000E+00 0.  1.
        -11    1    3    3    0    0 -0.12959331194E+03  0.11949051678E+03 -0.88379310198E+02  0.19718852038E+03  0.00000000000E+00 0. -1.
          4    1    6    6  502    0  0.28840802760E+03  0.19927300145E+03 -0.13956921261E+03  0.37731748515E+03  0.00000000000E+00 0. -1.
          1    1    5    5  503    0 -0.18767551533E+03 -0.39384916174E+03 -0.30734455275E+03  0.53366650201E+03  0.00000000000E+00 0. -1.
         -2    1    5    5    0  503 -0.23598782669E+02 -0.85183717924E+01 -0.20594271011E+02  0.32459038801E+02  0.00000000000E+00 0.  1.
         -3    1    6    6    0  502  0.51440435176E+02  0.86728870934E+02 -0.45497444562E+02  0.11062564299E+03  0.00000000000E+00 0.  1.
<mgrwt>
<rscale>  0 0.11158639E+04</rscale>
<asrwt>0</asrwt>
<pdfrwt beam="1">  1        2 0.14734524E+00 0.11158639E+04</pdfrwt>
<pdfrwt beam="2">  1       -2 0.50003408E-01 0.11158639E+04</pdfrwt>
<totfact> 0.10069341E+02</totfact>
</mgrwt>
</event>
<event>
12    1  0.1663913E-007  0.2410321E+04  0.7818608E-02  0.8435650E-01
          2   -1    0    0  501    0  0.00000000000E+00  0.00000000000E+00  0.93387014233E+03  0.93387014233E+03  0.00000000000E+00 0. -1.
         -2   -1    0    0    0  501 -0.00000000000E+00 -0.00000000000E+00 -0.15552614528E+04  0.15552614528E+04  0.00000000000E+00 0.  1.
         23    2    1    2    0    0  0.80091928168E+03  0.65247879329E+03 -0.31594056216E+03  0.10842475944E+04  0.92596628388E+02 0.  0.
        254    2    1    2    0    0 -0.80091928168E+03 -0.65247879329E+03 -0.30545074827E+03  0.14048840007E+04  0.90177526270E+03 0.  0.
        -24    2    4    4    0    0 -0.96415924512E+03 -0.60238567431E+03 -0.38080826579E+03  0.12015938165E+04  0.79631739953E+02 0.  0.
         24    2    4    4    0    0  0.16323996344E+03 -0.50093118985E+02  0.75357517520E+02  0.20329018422E+03  0.80570077090E+02 0.  0.
         11    1    3    3    0    0  0.67764847968E+03  0.53739666316E+03 -0.29746933515E+03  0.91459862286E+03  0.00000000000E+00 0. -1.
        -11    1    3    3    0    0  0.12327080200E+03  0.11508213014E+03 -0.18471227007E+02  0.16964897149E+03  0.00000000000E+00 0.  1.
          4    1    6    6  502    0  0.14969705737E+03 -0.20097510444E+02  0.78513966173E+02  0.17022797007E+03  0.00000000000E+00 0. -1.
          1    1    5    5  503    0 -0.67953781855E+03 -0.43873193586E+03 -0.23462329158E+03  0.84220273529E+03  0.00000000000E+00 0. -1.
         -2    1    5    5    0  503 -0.28462142657E+03 -0.16365373845E+03 -0.14618497420E+03  0.35939108121E+03  0.00000000000E+00 0.  1.
         -3    1    6    6    0  502  0.13542906071E+02 -0.29995608541E+02 -0.31564486534E+01  0.33062214153E+02  0.00000000000E+00 0.  1.
<mgrwt>
<rscale>  0 0.24103213E+04</rscale>
<asrwt>0</asrwt>
<pdfrwt beam="1">  1        2 0.14367233E+00 0.24103213E+04</pdfrwt>
<pdfrwt beam="2">  1       -2 0.23927099E+00 0.24103213E+04</pdfrwt>
<totfact> 0.18709672E+00</totfact>
</mgrwt>
</event>
<event>
12    1  0.1663913E-007  0.1217856E+04  0.7818608E-02  0.9097369E-01
         -4   -1    0    0    0  501 -0.00000000000E+00  0.00000000000E+00  0.12171777673E+04  0.12171777673E+04  0.00000000000E+00 0.  1.
          4   -1    0    0  501    0  0.00000000000E+00 -0.00000000000E+00 -0.30463376820E+03  0.30463376820E+03  0.00000000000E+00 0. -1.
         23    2    1    2    0    0 -0.22491982156E+03 -0.21007977826E+02  0.57520336823E+02  0.25039361980E+03  0.91422723780E+02 0.  0.
        254    2    1    2    0    0  0.22491982156E+03  0.21007977826E+02  0.85502366230E+03  0.12714179157E+04  0.91345924489E+03 0.  0.
        -24    2    4    4    0    0 -0.15530432568E+03 -0.27075156832E+03  0.42719562491E+02  0.32496742350E+03  0.79705834129E+02 0.  0.
         24    2    4    4    0    0  0.38022414724E+03  0.29175954614E+03  0.81230409981E+03  0.94645049223E+03  0.78971822561E+02 0.  0.
         13    1    3    3    0    0 -0.22922806261E+03 -0.14260264127E+02  0.65765144110E+02  0.23890147342E+03  0.00000000000E+00 0.  1.
        -13    1    3    3    0    0  0.43082410529E+01 -0.67477136996E+01 -0.82448072866E+01  0.11492146376E+02  0.00000000000E+00 0. -1.
          4    1    6    6  502    0  0.25682798113E+03  0.20260027034E+03  0.62173402218E+03  0.70253873614E+03  0.00000000000E+00 0. -1.
          1    1    5    5  503    0 -0.93205901534E+02 -0.19663072837E+03 -0.38604277387E+01  0.21763705182E+03  0.00000000000E+00 0. -1.
         -2    1    5    5    0  503 -0.62098424145E+02 -0.74120839947E+02  0.46579990230E+02  0.10733037168E+03  0.00000000000E+00 0.  1.
         -3    1    6    6    0  502  0.12339616611E+03  0.89159275808E+02  0.19057007763E+03  0.24391175609E+03  0.00000000000E+00 0.  1.
<mgrwt>
<rscale>  0 0.12178562E+04</rscale>
<asrwt>0</asrwt>
<pdfrwt beam="1">  1        4 0.46866734E-01 0.12178562E+04</pdfrwt>
<pdfrwt beam="2">  1       -4 0.18725812E+00 0.12178562E+04</pdfrwt>
<totfact> 0.13920178E+00</totfact>
</mgrwt>
</event>
<event>
12    1  0.1663913E-007  0.2148743E+04  0.7818608E-02  0.8540070E-01
          1   -1    0    0  501    0  0.00000000000E+00  0.00000000000E+00  0.18989579224E+04  0.18989579224E+04  0.00000000000E+00 0. -1.
         -1   -1    0    0    0  501 -0.00000000000E+00 -0.00000000000E+00 -0.60784608586E+03  0.60784608586E+03  0.00000000000E+00 0.  1.
         23    2    1    2    0    0 -0.24350218385E+03  0.18144269235E+03 -0.43622065013E+03  0.53862763783E+03  0.87272633059E+02 0.  0.
        254    2    1    2    0    0  0.24350218385E+03 -0.18144269235E+03  0.17273324867E+04  0.19681763705E+04  0.89321102852E+03 0.  0.
        -24    2    4    4    0    0 -0.13686954547E+03 -0.33689399737E+03  0.13635832064E+04  0.14134669197E+04  0.79364567447E+02 0.  0.
         24    2    4    4    0    0  0.38037172932E+03  0.15545130502E+03  0.36374928033E+03  0.55470945072E+03  0.80878149557E+02 0.  0.
         13    1    3    3    0    0 -0.78807781011E+02  0.82312416957E+02 -0.23016084965E+03  0.25682682306E+03  0.00000000000E+00 0.  1.
        -13    1    3    3    0    0 -0.16469440284E+03  0.99130275396E+02 -0.20605980048E+03  0.28180081476E+03  0.00000000000E+00 0. -1.
          2    1    6    6  502    0  0.77710964104E+02  0.77816689127E+01  0.40778367903E+02  0.88104617370E+02  0.00000000000E+00 0. -1.
          3    1    5    5  503    0 -0.15619640305E+02 -0.45267262642E+02  0.30627347893E+03  0.30999442274E+03  0.00000000000E+00 0. -1.
         -4    1    5    5    0  503 -0.12124990517E+03 -0.29162673473E+03  0.10573097274E+04  0.11034724970E+04  0.00000000000E+00 0.  1.
         -1    1    6    6    0  502  0.30266076522E+03  0.14766963610E+03  0.32297091243E+03  0.46660483335E+03  0.00000000000E+00 0.  1.
<mgrwt>
<rscale>  0 0.21487430E+04</rscale>
<asrwt>0</asrwt>
<pdfrwt beam="1">  1        1 0.29214737E+00 0.21487430E+04</pdfrwt>
<pdfrwt beam="2">  1       -1 0.93514783E-01 0.21487430E+04</pdfrwt>
<totfact> 0.35446929E+00</totfact>
</mgrwt>
</event>
<event>
12    1  0.1663913E-007  0.2235665E+04  0.7818608E-02  0.8503728E-01
          1   -1    0    0  501    0  0.00000000000E+00  0.00000000000E+00  0.18564276637E+04  0.18564276637E+04  0.00000000000E+00 0. -1.
         -1   -1    0    0    0  501 -0.00000000000E+00 -0.00000000000E+00 -0.67309374745E+03  0.67309374745E+03  0.00000000000E+00 0.  1.
         23    2    1    2    0    0 -0.47266133240E+03  0.30547916744E+03  0.13272755758E+04  0.14445259121E+04  0.90930740847E+02 0.  0.
        254    2    1    2    0    0  0.47266133240E+03 -0.30547916744E+03 -0.14394165956E+03  0.10849954991E+04  0.91638953222E+03 0.  0.
        -24    2    4    4    0    0  0.52660940048E+02 -0.51546606998E+03 -0.27362654862E+03  0.59127938855E+03  0.79128903127E+02 0.  0.
         24    2    4    4    0    0  0.42000039236E+03  0.20998690254E+03  0.12968488906E+03  0.49371611052E+03  0.80265799205E+02 0.  0.
         13    1    3    3    0    0 -0.22679471301E+03  0.19594924635E+03  0.74596828905E+03  0.80392825381E+03  0.00000000000E+00 0. -1.
        -13    1    3    3    0    0 -0.24586661939E+03  0.10952992109E+03  0.58130728677E+03  0.64059765828E+03  0.00000000000E+00 0.  1.
          2    1    6    6  502    0  0.11162371692E+03  0.71447566015E+02  0.71794174304E+02  0.15072827317E+03  0.00000000000E+00 0. -1.
          3    1    5    5  503    0  0.42393372120E+02 -0.10067635927E+03 -0.57617959683E+02  0.12350205097E+03  0.00000000000E+00 0. -1.
         -4    1    5    5    0  503  0.10267567928E+02 -0.41478971071E+03 -0.21600858894E+03  0.46777733758E+03  0.00000000000E+00 0.  1.
         -1    1    6    6    0  502  0.30837667544E+03  0.13853933652E+03  0.57890714755E+02  0.34298783735E+03  0.00000000000E+00 0.  1.
<mgrwt>
<rscale>  0 0.22356653E+04</rscale>
<asrwt>0</asrwt>
<pdfrwt beam="1">  1        1 0.28560425E+00 0.22356653E+04</pdfrwt>
<pdfrwt beam="2">  1       -1 0.10355289E+00 0.22356653E+04</pdfrwt>
<totfact> 0.29803780E+00</totfact>
</mgrwt>
</event>
<event>
12    1  0.1663913E-007  0.1596150E+04  0.7818608E-02  0.8822917E-01
         -1   -1    0    0    0  501 -0.00000000000E+00  0.00000000000E+00  0.39457001122E+03  0.39457001122E+03  0.00000000000E+00 0.  1.
          1   -1    0    0  501    0  0.00000000000E+00 -0.00000000000E+00 -0.16142215128E+04  0.16142215128E+04  0.00000000000E+00 0. -1.
         23    2    1    2    0    0  0.30218229908E+03 -0.20277719198E+03 -0.88598472839E+03  0.96218394658E+03  0.91631199110E+02 0.  0.
        254    2    1    2    0    0 -0.30218229908E+03  0.20277719198E+03 -0.33366677315E+03  0.10466075774E+04  0.92283323202E+03 0.  0.
        -24    2    4    4    0    0 -0.45857366576E+03  0.47353989914E+03 -0.17432886576E+03  0.68654365568E+03  0.80136101164E+02 0.  0.
         24    2    4    4    0    0  0.15639136668E+03 -0.27076270716E+03 -0.15933790739E+03  0.36006392172E+03  0.80540398753E+02 0.  0.
         13    1    3    3    0    0  0.17599799808E+03 -0.62991025957E+02 -0.43572702987E+03  0.47413205886E+03  0.00000000000E+00 0. -1.
        -13    1    3    3    0    0  0.12618430100E+03 -0.13978616602E+03 -0.45025769853E+03  0.48805188772E+03  0.00000000000E+00 0.  1.
          4    1    6    6  502    0  0.15252155360E+03 -0.22468046079E+03 -0.11158867270E+03  0.29359183512E+03  0.00000000000E+00 0. -1.
          1    1    5    5  503    0 -0.26155501991E+03  0.26950720242E+03 -0.14016808805E+03  0.40086438293E+03  0.00000000000E+00 0. -1.
         -2    1    5    5    0  503 -0.19701864585E+03  0.20403269672E+03 -0.34160777711E+02  0.28567927275E+03  0.00000000000E+00 0.  1.
         -3    1    6    6    0  502  0.38698130864E+01 -0.46082246369E+02 -0.47749234692E+02  0.66472086604E+02  0.00000000000E+00 0.  1.
<mgrwt>
<rscale>  0 0.15961496E+04</rscale>
<asrwt>0</asrwt>
<pdfrwt beam="1">  1        1 0.24834177E+00 0.15961496E+04</pdfrwt>
<pdfrwt beam="2">  1       -1 0.60703079E-01 0.15961496E+04</pdfrwt>
<totfact> 0.14412135E+01</totfact>
</mgrwt>
</event>
<event>
12    1  0.1663913E-007  0.2262227E+04  0.7818608E-02  0.8492965E-01
         -2   -1    0    0    0  501 -0.00000000000E+00  0.00000000000E+00  0.64385325304E+03  0.64385325304E+03  0.00000000000E+00 0. -1.
          2   -1    0    0  501    0  0.00000000000E+00 -0.00000000000E+00 -0.19871256645E+04  0.19871256645E+04  0.00000000000E+00 0.  1.
         23    2    1    2    0    0 -0.49299834227E+03  0.78339683886E+03 -0.32605791793E+03  0.98535798108E+03  0.88648815145E+02 0.  0.
        254    2    1    2    0    0  0.49299834227E+03 -0.78339683886E+03 -0.10172144936E+04  0.16456209365E+04  0.90365091051E+03 0.  0.
        -24    2    4    4    0    0  0.59959318102E+03 -0.89183389109E+03 -0.69828647582E+03  0.12839169249E+04  0.77194531745E+02 0.  0.
         24    2    4    4    0    0 -0.10659483875E+03  0.10843705223E+03 -0.31892801775E+03  0.36170401158E+03  0.77418715729E+02 0.  0.
         13    1    3    3    0    0 -0.46708278470E+03  0.72166480742E+03 -0.27995696948E+03  0.90406986831E+03  0.00000000000E+00 0. -1.
        -13    1    3    3    0    0 -0.25915557567E+02  0.61732031441E+02 -0.46100948451E+02  0.81288112771E+02  0.00000000000E+00 0.  1.
          4    1    6    6  502    0 -0.23981186708E+02  0.40885823008E+02 -0.36615611353E+02  0.59895332321E+02  0.00000000000E+00 0. -1.
          3    1    5    5  503    0  0.43125924659E+03 -0.69963996910E+03 -0.53827032739E+03  0.98245385107E+03  0.00000000000E+00 0. -1.
         -4    1    5    5    0  503  0.16833393443E+03 -0.19219392199E+03 -0.16001614843E+03  0.30146307384E+03  0.00000000000E+00 0.  1.
         -3    1    6    6    0  502 -0.82613652042E+02  0.67551229221E+02 -0.28231240639E+03  0.30180867926E+03  0.00000000000E+00 0.  1.
<mgrwt>
<rscale>  0 0.22622266E+04</rscale>
<asrwt>0</asrwt>
<pdfrwt beam="1">  1        2 0.30571163E+00 0.22622266E+04</pdfrwt>
<pdfrwt beam="2">  1       -2 0.99054349E-01 0.22622266E+04</pdfrwt>
<totfact> 0.52179782E+00</totfact>
</mgrwt>
</event>
<event>
12    1  0.1663913E-007  0.1491609E+04  0.7818608E-02  0.8890052E-01
         -2   -1    0    0    0  501 -0.00000000000E+00  0.00000000000E+00  0.11140835482E+04  0.11140835482E+04  0.00000000000E+00 0.  1.
          2   -1    0    0  501    0  0.00000000000E+00 -0.00000000000E+00 -0.49926641930E+03  0.49926641930E+03  0.00000000000E+00 0. -1.
         23    2    1    2    0    0  0.13113744328E+03 -0.43732614337E+03  0.95016821989E+02  0.47498020418E+03  0.90148839146E+02 0.  0.
        254    2    1    2    0    0 -0.13113744328E+03  0.43732614337E+03  0.51980030694E+03  0.11383697633E+04  0.90401447682E+03 0.  0.
        -24    2    4    4    0    0 -0.14613746373E+03  0.42168797280E+03  0.75853032849E+03  0.88372901031E+03  0.80198502005E+02 0.  0.
         24    2    4    4    0    0  0.15000020441E+02  0.15638170564E+02 -0.23873002155E+03  0.25464075303E+03  0.85908887317E+02 0.  0.
         13    1    3    3    0    0  0.10381639865E+03 -0.40208612750E+03  0.10694494906E+03  0.42882201516E+03  0.00000000000E+00 0. -1.
        -13    1    3    3    0    0  0.27321044636E+02 -0.35240015866E+02 -0.11928127070E+02  0.46158189021E+02  0.00000000000E+00 0.  1.
          4    1    6    6  502    0  0.30075265028E+02 -0.23919293593E+02 -0.62257503645E+02  0.73161813350E+02  0.00000000000E+00 0. -1.
          3    1    5    5  503    0 -0.56529556482E+02  0.13252908667E+03  0.31906372337E+03  0.35008743071E+03  0.00000000000E+00 0. -1.
         -2    1    5    5    0  503 -0.89607907244E+02  0.28915888613E+03  0.43946660512E+03  0.53364157961E+03  0.00000000000E+00 0.  1.
         -3    1    6    6    0  502 -0.15075244587E+02  0.39557464157E+02 -0.17647251791E+03  0.18147893968E+03  0.00000000000E+00 0.  1.
<mgrwt>
<rscale>  0 0.14916092E+04</rscale>
<asrwt>0</asrwt>
<pdfrwt beam="1">  1        2 0.76810219E-01 0.14916092E+04</pdfrwt>
<pdfrwt beam="2">  1       -2 0.17139747E+00 0.14916092E+04</pdfrwt>
<totfact> 0.12410082E+01</totfact>
</mgrwt>
</event>
<event>
12    1  0.1663913E-007  0.2431490E+04  0.7818608E-02  0.8427808E-01
         -2   -1    0    0    0  501 -0.00000000000E+00  0.00000000000E+00  0.53875031003E+03  0.53875031003E+03  0.00000000000E+00 0.  1.
          2   -1    0    0  501    0  0.00000000000E+00 -0.00000000000E+00 -0.27434515010E+04  0.27434515010E+04  0.00000000000E+00 0. -1.
         23    2    1    2    0    0  0.57663497698E+03  0.63950523933E+03 -0.16606898684E+04  0.18728981018E+04  0.91551150032E+02 0.  0.
        254    2    1    2    0    0 -0.57663497698E+03 -0.63950523933E+03 -0.54401132257E+03  0.14093037092E+04  0.97401939293E+03 0.  0.
        -24    2    4    4    0    0 -0.89732196093E+02  0.10753402758E+03 -0.48579411022E+03  0.51218295480E+03  0.81975774214E+02 0.  0.
         24    2    4    4    0    0 -0.48690278089E+03 -0.74703926691E+03 -0.58217212351E+02  0.89712075438E+03  0.79337379435E+02 0.  0.
         13    1    3    3    0    0  0.22534218686E+03  0.18582835259E+03 -0.54847614668E+03  0.62139951825E+03  0.00000000000E+00 0.  1.
        -13    1    3    3    0    0  0.35129279012E+03  0.45367688673E+03 -0.11122137217E+04  0.12514985836E+04  0.00000000000E+00 0. -1.
          2    1    6    6  502    0 -0.35828540816E+02 -0.27764532651E+02 -0.11806480319E+02  0.46839583558E+02  0.00000000000E+00 0. -1.
          1    1    5    5  503    0 -0.21533921765E+02  0.62912135296E+02 -0.11779797283E+03  0.13527013327E+03  0.00000000000E+00 0. -1.
         -2    1    5    5    0  503 -0.68198274328E+02  0.44621892285E+02 -0.36799613739E+03  0.37691282152E+03  0.00000000000E+00 0.  1.
         -3    1    6    6    0  502 -0.45107424007E+03 -0.71927473426E+03 -0.46410732032E+02  0.85028117082E+03  0.00000000000E+00 0.  1.
<mgrwt>
<rscale>  0 0.24314895E+04</rscale>
<asrwt>0</asrwt>
<pdfrwt beam="1">  1        2 0.42206947E+00 0.24314895E+04</pdfrwt>
<pdfrwt beam="2">  1       -2 0.82884662E-01 0.24314895E+04</pdfrwt>
<totfact> 0.28625231E+00</totfact>
</mgrwt>
</event>
<event>
12    1  0.1663913E-007  0.2784168E+04  0.7818608E-02  0.8308201E-01
          1   -1    0    0  501    0  0.00000000000E+00  0.00000000000E+00  0.20296227972E+04  0.20296227972E+04  0.00000000000E+00 0. -1.
         -1   -1    0    0    0  501 -0.00000000000E+00 -0.00000000000E+00 -0.95480681763E+03  0.95480681763E+03  0.00000000000E+00 0.  1.
         23    2    1    2    0    0 -0.88327298891E+03 -0.45093951034E+03  0.13205802967E+04  0.16538820741E+04  0.88746720177E+02 0.  0.
        254    2    1    2    0    0  0.88327298891E+03  0.45093951034E+03 -0.24576431710E+03  0.13305475407E+04  0.85231393484E+03 0.  0.
        -24    2    4    4    0    0  0.67058439708E+03  0.30845667886E+01 -0.42470086525E+03  0.79772422587E+03  0.79373594032E+02 0.  0.
         24    2    4    4    0    0  0.21268859182E+03  0.44785494355E+03  0.17893654815E+03  0.53282331481E+03  0.77922454946E+02 0.  0.
         11    1    3    3    0    0 -0.34035675427E+02 -0.21555892965E+02  0.29227143327E+02  0.49772579101E+02  0.00000000000E+00 0.  1.
        -11    1    3    3    0    0 -0.84923731348E+03 -0.42938361737E+03  0.12913531533E+04  0.16041094950E+04  0.00000000000E+00 0. -1.
          4    1    6    6  502    0  0.26996249062E+02  0.11851829345E+03  0.22308265025E+02  0.12358414961E+03  0.00000000000E+00 0. -1.
          1    1    5    5  503    0  0.10863184285E+03  0.26744724364E+02 -0.55133814334E+02  0.12472327387E+03  0.00000000000E+00 0. -1.
         -2    1    5    5    0  503  0.56195255423E+03 -0.23660157575E+02 -0.36956705092E+03  0.67300095200E+03  0.00000000000E+00 0.  1.
         -3    1    6    6    0  502  0.18569234276E+03  0.32933665010E+03  0.15662828312E+03  0.40923916520E+03  0.00000000000E+00 0.  1.
<mgrwt>
<rscale>  0 0.27841679E+04</rscale>
<asrwt>0</asrwt>
<pdfrwt beam="1">  1        1 0.31224966E+00 0.27841679E+04</pdfrwt>
<pdfrwt beam="2">  1       -1 0.14689336E+00 0.27841679E+04</pdfrwt>
<totfact> 0.91021700E-01</totfact>
</mgrwt>
</event>
<event>
12    1  0.1663913E-007  0.1674288E+04  0.7818608E-02  0.8776166E-01
         -1   -1    0    0    0  501 -0.00000000000E+00  0.00000000000E+00  0.64389112513E+03  0.64389112513E+03  0.00000000000E+00 0.  1.
          1   -1    0    0  501    0  0.00000000000E+00 -0.00000000000E+00 -0.10883987488E+04  0.10883987488E+04  0.00000000000E+00 0. -1.
         23    2    1    2    0    0 -0.44101198507E+03 -0.23974533822E+03  0.15748605191E+03  0.53563240950E+03  0.10065199148E+03 0.  0.
        254    2    1    2    0    0  0.44101198507E+03  0.23974533822E+03 -0.60199367553E+03  0.11966574644E+04  0.90422525044E+03 0.  0.
        -24    2    4    4    0    0 -0.72733487047E+02 -0.19617823819E+03 -0.44876136141E+03  0.50180173464E+03  0.81499448535E+02 0.  0.
         24    2    4    4    0    0  0.51374547211E+03  0.43592357641E+03 -0.15323231412E+03  0.69485572976E+03  0.73352358513E+02 0.  0.
         11    1    3    3    0    0 -0.39508872785E+03 -0.21938096067E+03  0.10698778037E+03  0.46440229750E+03  0.00000000000E+00 0.  1.
        -11    1    3    3    0    0 -0.45923257218E+02 -0.20364377553E+02  0.50498271541E+02  0.71230111998E+02  0.00000000000E+00 0. -1.
          2    1    6    6  502    0  0.44941786188E+03  0.34598096036E+03 -0.12750189139E+03  0.58132260563E+03  0.00000000000E+00 0. -1.
          1    1    5    5  503    0 -0.15699597269E+02 -0.11386198803E+03 -0.31043370640E+03  0.33102887449E+03  0.00000000000E+00 0. -1.
         -2    1    5    5    0  503 -0.57033889779E+02 -0.82316250163E+02 -0.13832765500E+03  0.17077286015E+03  0.00000000000E+00 0.  1.
         -1    1    6    6    0  502  0.64327610235E+02  0.89942616053E+02 -0.25730422736E+02  0.11353312413E+03  0.00000000000E+00 0.  1.
<mgrwt>
<rscale>  0 0.16742883E+04</rscale>
<asrwt>0</asrwt>
<pdfrwt beam="1">  1        1 0.16744596E+00 0.16742883E+04</pdfrwt>
<pdfrwt beam="2">  1       -1 0.99060174E-01 0.16742883E+04</pdfrwt>
<totfact> 0.12018019E+01</totfact>
</mgrwt>
</event>
<event>
12    1  0.1663913E-007  0.2307290E+04  0.7818608E-02  0.8475052E-01
          1   -1    0    0  501    0  0.00000000000E+00  0.00000000000E+00  0.18625899783E+04  0.18625899783E+04  0.00000000000E+00 0. -1.
         -1   -1    0    0    0  501 -0.00000000000E+00 -0.00000000000E+00 -0.71454095701E+03  0.71454095701E+03  0.00000000000E+00 0.  1.
         23    2    1    2    0    0 -0.40649279295E+03  0.86664301130E+03  0.26526997081E+03  0.99748216493E+03  0.91082447212E+02 0.  0.
        254    2    1    2    0    0  0.40649279295E+03 -0.86664301130E+03  0.88277905046E+03  0.15796487704E+04  0.89425101957E+03 0.  0.
        -24    2    4    4    0    0  0.48926926071E+03 -0.12949200615E+03  0.58145297615E+03  0.77501170582E+03  0.80018695044E+02 0.  0.
         24    2    4    4    0    0 -0.82776467767E+02 -0.73715100515E+03  0.30132607431E+03  0.80463706453E+03  0.79999090957E+02 0.  0.
         13    1    3    3    0    0 -0.18460888936E+03  0.38553478946E+03  0.16541958602E+03  0.45834610870E+03  0.00000000000E+00 0. -1.
        -13    1    3    3    0    0 -0.22188390359E+03  0.48110822184E+03  0.99850384781E+02  0.53913605624E+03  0.00000000000E+00 0.  1.
          2    1    6    6  502    0  0.69523163356E+01 -0.13035245757E+03  0.76707629508E+02  0.15140725981E+03  0.00000000000E+00 0. -1.
          1    1    5    5  503    0  0.93369867696E+02 -0.52273746969E+02  0.15139720338E+03  0.18539576588E+03  0.00000000000E+00 0. -1.
         -2    1    5    5    0  503  0.39589939302E+03 -0.77218259185E+02  0.43005577277E+03  0.58961593994E+03  0.00000000000E+00 0.  1.
         -1    1    6    6    0  502 -0.89728784102E+02 -0.60679854758E+03  0.22461844481E+03  0.65322980473E+03  0.00000000000E+00 0.  1.
<mgrwt>
<rscale>  0 0.23072900E+04</rscale>
<asrwt>0</asrwt>
<pdfrwt beam="1">  1        1 0.28655230E+00 0.23072900E+04</pdfrwt>
<pdfrwt beam="2">  1       -1 0.10992938E+00 0.23072900E+04</pdfrwt>
<totfact> 0.25500899E+00</totfact>
</mgrwt>
</event>
<event>
12    1  0.1663913E-007  0.1943396E+04  0.7818608E-02  0.8633552E-01
         -2   -1    0    0    0  501 -0.00000000000E+00  0.00000000000E+00  0.48190625656E+03  0.48190625656E+03  0.00000000000E+00 0.  1.
          2   -1    0    0  501    0  0.00000000000E+00 -0.00000000000E+00 -0.19592962804E+04  0.19592962804E+04  0.00000000000E+00 0. -1.
         23    2    1    2    0    0 -0.55035952420E+02  0.71850040482E+03 -0.90518522850E+03  0.11605806233E+04  0.91188252481E+02 0.  0.
        254    2    1    2    0    0  0.55035952420E+02 -0.71850040482E+03 -0.57220479535E+03  0.12806219137E+04  0.89067523278E+03 0.  0.
        -24    2    4    4    0    0  0.34396750456E+03 -0.25397432388E+02 -0.40154347045E+02  0.35664094718E+03  0.81373950725E+02 0.  0.
         24    2    4    4    0    0 -0.28893155214E+03 -0.69310297244E+03 -0.53205044831E+03  0.92398096654E+03  0.82401303211E+02 0.  0.
         13    1    3    3    0    0 -0.31247196848E+02  0.65053113729E+03 -0.84411291982E+03  0.10661584166E+04  0.00000000000E+00 0. -1.
        -13    1    3    3    0    0 -0.23788755572E+02  0.67969267535E+02 -0.61072308676E+02  0.94422206646E+02  0.00000000000E+00 0.  1.
          4    1    6    6  502    0 -0.72096755154E+01  0.42796919720E-01 -0.48419375318E+01  0.86847919765E+01  0.00000000000E+00 0. -1.
          1    1    5    5  503    0 -0.30927613429E+01  0.20824089376E+00  0.48329764268E+01  0.57416198181E+01  0.00000000000E+00 0. -1.
         -2    1    5    5    0  503  0.34706026590E+03 -0.25605673282E+02 -0.44987323472E+02  0.35089932736E+03  0.00000000000E+00 0.  1.
         -3    1    6    6    0  502 -0.28172187662E+03 -0.69314576936E+03 -0.52720851077E+03  0.91529617457E+03  0.00000000000E+00 0.  1.
<mgrwt>
<rscale>  0 0.19433961E+04</rscale>
<asrwt>0</asrwt>
<pdfrwt beam="1">  1        2 0.30143020E+00 0.19433961E+04</pdfrwt>
<pdfrwt beam="2">  1       -2 0.74139423E-01 0.19433961E+04</pdfrwt>
<totfact> 0.10760909E+01</totfact>
</mgrwt>
</event>
<event>
12    1  0.1663913E-007  0.2911766E+04  0.7818608E-02  0.8269385E-01
         -2   -1    0    0    0  501 -0.00000000000E+00  0.00000000000E+00  0.10574381938E+04  0.10574381938E+04  0.00000000000E+00 0.  1.
          2   -1    0    0  501    0  0.00000000000E+00 -0.00000000000E+00 -0.20044632370E+04  0.20044632370E+04  0.00000000000E+00 0. -1.
         23    2    1    2    0    0 -0.12044604169E+04 -0.10856943656E+03 -0.97544883806E+03  0.15563229318E+04  0.90157716405E+02 0.  0.
        254    2    1    2    0    0  0.12044604169E+04  0.10856943656E+03  0.28423794884E+02  0.15055784990E+04  0.89635176474E+03 0.  0.
        -24    2    4    4    0    0  0.68118488568E+03 -0.37182598866E+03 -0.70181689156E+02  0.78388492203E+03  0.85338661663E+02 0.  0.
         24    2    4    4    0    0  0.52327553120E+03  0.48039542522E+03  0.98605484039E+02  0.72169357697E+03  0.80755999296E+02 0.  0.
         13    1    3    3    0    0 -0.85421829727E+03 -0.60515523809E+02 -0.73772506807E+03  0.11303049606E+04  0.00000000000E+00 0. -1.
        -13    1    3    3    0    0 -0.35024211962E+03 -0.48053912751E+02 -0.23772376999E+03  0.42601797110E+03  0.00000000000E+00 0.  1.
          4    1    6    6  502    0  0.13586333035E+03  0.83086687602E+02  0.83308932461E+01  0.15947302585E+03  0.00000000000E+00 0. -1.
          1    1    5    5  503    0  0.42194266105E+03 -0.26804809985E+03 -0.69112232699E+02  0.50464036081E+03  0.00000000000E+00 0. -1.
         -2    1    5    5    0  503  0.25924222463E+03 -0.10377788882E+03 -0.10694564571E+01  0.27924456123E+03  0.00000000000E+00 0.  1.
         -3    1    6    6    0  502  0.38741220085E+03  0.39730873762E+03  0.90274590793E+02  0.56222055112E+03  0.00000000000E+00 0.  1.
<mgrwt>
<rscale>  0 0.29117665E+04</rscale>
<asrwt>0</asrwt>
<pdfrwt beam="1">  1        2 0.30837896E+00 0.29117665E+04</pdfrwt>
<pdfrwt beam="2">  1       -2 0.16268280E+00 0.29117665E+04</pdfrwt>
<totfact> 0.13787956E+00</totfact>
</mgrwt>
</event>
<event>
12    1  0.1663913E-007  0.2218726E+04  0.7818608E-02  0.8510674E-01
          1   -1    0    0  501    0  0.00000000000E+00  0.00000000000E+00  0.19377675084E+04  0.19377675084E+04  0.00000000000E+00 0. -1.
         -1   -1    0    0    0  501 -0.00000000000E+00 -0.00000000000E+00 -0.63510521748E+03  0.63510521748E+03  0.00000000000E+00 0.  1.
         23    2    1    2    0    0  0.18023929564E+03  0.61758275067E+03  0.13054584579E+04  0.14582787549E+04  0.91980888689E+02 0.  0.
        254    2    1    2    0    0 -0.18023929564E+03 -0.61758275067E+03 -0.27961670195E+01  0.11145939710E+04  0.91017429322E+03 0.  0.
        -24    2    4    4    0    0 -0.26942439542E+03  0.15201060055E+03  0.85979976386E+02  0.33090036307E+03  0.80036031972E+02 0.  0.
         24    2    4    4    0    0  0.89185099774E+02 -0.76959335122E+03 -0.88776143406E+02  0.78369360794E+03  0.77888119889E+02 0.  0.
         13    1    3    3    0    0  0.12857108233E+03  0.45032420176E+03  0.10362076205E+04  0.11371229673E+04  0.00000000000E+00 0. -1.
        -13    1    3    3    0    0  0.51668213312E+02  0.16725854891E+03  0.26925083744E+03  0.32115578760E+03  0.00000000000E+00 0.  1.
          4    1    6    6  502    0  0.17651012924E+02 -0.50214037849E+02 -0.22326233337E+02  0.57718875157E+02  0.00000000000E+00 0. -1.
          3    1    5    5  503    0 -0.16606168361E+03  0.84391176928E+02  0.11419642552E+02  0.18662465470E+03  0.00000000000E+00 0. -1.
         -4    1    5    5    0  503 -0.10336271181E+03  0.67619423627E+02  0.74560333834E+02  0.14427570837E+03  0.00000000000E+00 0.  1.
         -3    1    6    6    0  502  0.71534086850E+02 -0.71937931337E+03 -0.66449910069E+02  0.72597473278E+03  0.00000000000E+00 0.  1.
<mgrwt>
<rscale>  0 0.22187260E+04</rscale>
<asrwt>0</asrwt>
<pdfrwt beam="1">  1        1 0.29811808E+00 0.22187260E+04</pdfrwt>
<pdfrwt beam="2">  1       -1 0.97708496E-01 0.22187260E+04</pdfrwt>
<totfact> 0.30035742E+00</totfact>
</mgrwt>
</event>
<event>
12    1  0.1663913E-007  0.2274441E+04  0.7818608E-02  0.8488067E-01
         -2   -1    0    0    0  501 -0.00000000000E+00  0.00000000000E+00  0.11733925332E+04  0.11733925332E+04  0.00000000000E+00 0. -1.
          2   -1    0    0  501    0  0.00000000000E+00 -0.00000000000E+00 -0.11021633001E+04  0.11021633001E+04  0.00000000000E+00 0.  1.
         23    2    1    2    0    0  0.66402210155E+03  0.61365253260E+03  0.35633060282E+03  0.97591524530E+03  0.89130720756E+02 0.  0.
        254    2    1    2    0    0 -0.66402210155E+03 -0.61365253260E+03 -0.28510136971E+03  0.12996405881E+04  0.88898148747E+03 0.  0.
        -24    2    4    4    0    0 -0.62454877219E+03 -0.35679209136E+02  0.36673550954E+02  0.63179058607E+03  0.80499816815E+02 0.  0.
         24    2    4    4    0    0 -0.39473329369E+02 -0.57797332347E+03 -0.32177492067E+03  0.66785000201E+03  0.82904880686E+02 0.  0.
         11    1    3    3    0    0  0.61927209844E+03  0.56903680390E+03  0.35456961147E+03  0.91269952639E+03  0.00000000000E+00 0. -1.
        -11    1    3    3    0    0  0.44750003117E+02  0.44615728705E+02  0.17609913464E+01  0.63215718910E+02  0.00000000000E+00 0.  1.
          2    1    6    6  502    0 -0.26651203726E+02 -0.61935352548E+02 -0.22019457696E+02  0.70930466462E+02  0.00000000000E+00 0. -1.
          3    1    5    5  503    0 -0.34820186550E+03 -0.47396699548E+02 -0.85816002409E+01  0.35151760999E+03  0.00000000000E+00 0. -1.
         -4    1    5    5    0  503 -0.27634690668E+03  0.11717490412E+02  0.45255151195E+02  0.28027297609E+03  0.00000000000E+00 0.  1.
         -1    1    6    6    0  502 -0.12822125643E+02 -0.51603797092E+03 -0.29975546297E+03  0.59691953555E+03  0.00000000000E+00 0.  1.
<mgrwt>
<rscale>  0 0.22744408E+04</rscale>
<asrwt>0</asrwt>
<pdfrwt beam="1">  1        2 0.16956358E+00 0.22744408E+04</pdfrwt>
<pdfrwt beam="2">  1       -2 0.18052193E+00 0.22744408E+04</pdfrwt>
<totfact> 0.35480608E+00</totfact>
</mgrwt>
</event>
<event>
12    1  0.1663913E-007  0.2393911E+04  0.7818608E-02  0.8441787E-01
          1   -1    0    0  501    0  0.00000000000E+00  0.00000000000E+00  0.36232675370E+04  0.36232675370E+04  0.00000000000E+00 0. -1.
         -1   -1    0    0    0  501 -0.00000000000E+00 -0.00000000000E+00 -0.39541733715E+03  0.39541733715E+03  0.00000000000E+00 0.  1.
         23    2    1    2    0    0 -0.51766522594E+03 -0.11592106366E+03 -0.95634666853E+02  0.54676432196E+03  0.91598335740E+02 0.  0.
        254    2    1    2    0    0  0.51766522594E+03  0.11592106366E+03  0.33234848667E+04  0.34719205522E+04  0.85279873495E+03 0.  0.
        -24    2    4    4    0    0  0.68966915934E+02 -0.22991143398E+03  0.28955469405E+03  0.38455483306E+03  0.80154824029E+02 0.  0.
         24    2    4    4    0    0  0.44869831001E+03  0.34583249764E+03  0.30339301727E+04  0.30873657192E+04  0.78514338007E+02 0.  0.
         11    1    3    3    0    0 -0.11760935754E+02 -0.10634603238E+02 -0.18385042796E+02  0.24278059940E+02  0.00000000000E+00 0. -1.
        -11    1    3    3    0    0 -0.50590429019E+03 -0.10528646042E+03 -0.77249624057E+02  0.52248626202E+03  0.00000000000E+00 0.  1.
          2    1    6    6  502    0  0.23817723511E+03  0.20340999997E+03  0.18652994562E+04  0.18914137793E+04  0.00000000000E+00 0. -1.
          1    1    5    5  503    0 -0.42659394899E+01 -0.10474052819E+03  0.15223846600E+03  0.18483865130E+03  0.00000000000E+00 0. -1.
         -2    1    5    5    0  503  0.73232855424E+02 -0.12517090579E+03  0.13731622805E+03  0.19971618176E+03  0.00000000000E+00 0.  1.
         -1    1    6    6    0  502  0.21052107490E+03  0.14242249767E+03  0.11686307165E+04  0.11959519398E+04  0.00000000000E+00 0.  1.
<mgrwt>
<rscale>  0 0.23939113E+04</rscale>
<asrwt>0</asrwt>
<pdfrwt beam="1">  1        1 0.55742575E+00 0.23939113E+04</pdfrwt>
<pdfrwt beam="2">  1       -1 0.60833439E-01 0.23939113E+04</pdfrwt>
<totfact> 0.49045694E-01</totfact>
</mgrwt>
</event>
<event>
12    1  0.1663913E-007  0.1055165E+04  0.7818608E-02  0.9250028E-01
         -2   -1    0    0    0  501 -0.00000000000E+00  0.00000000000E+00  0.44688441797E+03  0.44688441797E+03  0.00000000000E+00 0. -1.
          2   -1    0    0  501    0  0.00000000000E+00 -0.00000000000E+00 -0.62285271950E+03  0.62285271950E+03  0.00000000000E+00 0.  1.
         23    2    1    2    0    0 -0.41330086048E+02  0.93266342177E+02  0.25248865605E+02  0.14284506399E+03  0.96749266121E+02 0.  0.
        254    2    1    2    0    0  0.41330086048E+02 -0.93266342177E+02 -0.20121716713E+03  0.92689207349E+03  0.89901823171E+03 0.  0.
        -24    2    4    4    0    0  0.14467148131E+03  0.36796472653E+03  0.82165497092E+01  0.40391073252E+03  0.82149197682E+02 0.  0.
         24    2    4    4    0    0 -0.10334139526E+03 -0.46123106870E+03 -0.20943371684E+03  0.52298134097E+03  0.78952254838E+02 0.  0.
         11    1    3    3    0    0 -0.70482004171E+02  0.77512005232E+02  0.30905796029E+02  0.10922908081E+03  0.00000000000E+00 0. -1.
        -11    1    3    3    0    0  0.29151918124E+02  0.15754336945E+02 -0.56569304232E+01  0.33615983173E+02  0.00000000000E+00 0.  1.
          4    1    6    6  502    0 -0.98338427618E+02 -0.40227082788E+03 -0.20886403519E+03  0.46380647959E+03  0.00000000000E+00 0. -1.
          3    1    5    5  503    0  0.44263607003E+02  0.22368937583E+03  0.24280991496E+01  0.22803968828E+03  0.00000000000E+00 0. -1.
         -4    1    5    5    0  503  0.10040787431E+03  0.14427535070E+03  0.57884505596E+01  0.17587104424E+03  0.00000000000E+00 0.  1.
         -3    1    6    6    0  502 -0.50029676436E+01 -0.58960240819E+02 -0.56968165330E+00  0.59174861385E+02  0.00000000000E+00 0.  1.
<mgrwt>
<rscale>  0 0.10551648E+04</rscale>
<asrwt>0</asrwt>
<pdfrwt beam="1">  1        2 0.95823495E-01 0.10551648E+04</pdfrwt>
<pdfrwt beam="2">  1       -2 0.68751449E-01 0.10551648E+04</pdfrwt>
<totfact> 0.91263295E+01</totfact>
</mgrwt>
</event>
<event>
12    1  0.1663913E-007  0.1477162E+04  0.7818608E-02  0.8899783E-01
         -1   -1    0    0    0  501 -0.00000000000E+00  0.00000000000E+00  0.76061122895E+03  0.76061122895E+03  0.00000000000E+00 0.  1.
          1   -1    0    0  501    0  0.00000000000E+00 -0.00000000000E+00 -0.71718905822E+03  0.71718905822E+03  0.00000000000E+00 0. -1.
         23    2    1    2    0    0  0.16755856850E+03  0.17782681430E+03  0.39753504322E+03  0.47540016402E+03  0.90955789255E+02 0.  0.
        254    2    1    2    0    0 -0.16755856850E+03 -0.17782681430E+03 -0.35411287250E+03  0.10024001232E+04  0.90537938493E+03 0.  0.
        -24    2    4    4    0    0 -0.38428286374E+03  0.54521018356E+02  0.13020828506E+03  0.41730981254E+03  0.80916137663E+02 0.  0.
         24    2    4    4    0    0  0.21672429524E+03 -0.23234783265E+03 -0.48432115756E+03  0.58509031061E+03  0.82515164817E+02 0.  0.
         11    1    3    3    0    0  0.24591639137E+01  0.54209528013E+02  0.75463546663E+02  0.92948734739E+02  0.00000000000E+00 0. -1.
        -11    1    3    3    0    0  0.16509940459E+03  0.12361728629E+03  0.32207149656E+03  0.38245142928E+03  0.00000000000E+00 0.  1.
          4    1    6    6  502    0  0.16049213448E+03 -0.21692718150E+03 -0.39202918052E+03  0.47592226853E+03  0.00000000000E+00 0. -1.
          3    1    5    5  503    0 -0.88981752795E+02  0.42295619460E+02  0.52836725696E+02  0.11179620449E+03  0.00000000000E+00 0. -1.
         -4    1    5    5    0  503 -0.29530111095E+03  0.12225398896E+02  0.77371559364E+02  0.30551360805E+03  0.00000000000E+00 0.  1.
         -3    1    6    6    0  502  0.56232160759E+02 -0.15420651151E+02 -0.92291977043E+02  0.10916804208E+03  0.00000000000E+00 0.  1.
<mgrwt>
<rscale>  0 0.14771622E+04</rscale>
<asrwt>0</asrwt>
<pdfrwt beam="1">  1        1 0.11033678E+00 0.14771622E+04</pdfrwt>
<pdfrwt beam="2">  1       -1 0.11701711E+00 0.14771622E+04</pdfrwt>
<totfact> 0.16751764E+01</totfact>
</mgrwt>
</event>
<event>
12    1  0.1663913E-007  0.1936051E+04  0.7818608E-02  0.8637117E-01
         -2   -1    0    0    0  501 -0.00000000000E+00  0.00000000000E+00  0.60174996410E+03  0.60174996410E+03  0.00000000000E+00 0.  1.
          2   -1    0    0  501    0  0.00000000000E+00 -0.00000000000E+00 -0.15572473115E+04  0.15572473115E+04  0.00000000000E+00 0. -1.
         23    2    1    2    0    0  0.48154517651E+03 -0.31805476930E+03  0.15766767798E+03  0.60560706227E+03  0.94107512440E+02 0.  0.
        254    2    1    2    0    0 -0.48154517651E+03  0.31805476930E+03 -0.11131650254E+04  0.15533902134E+04  0.91697338448E+03 0.  0.
        -24    2    4    4    0    0 -0.20860301274E+03  0.12249834978E+03 -0.11752785192E+04  0.12025740941E+04  0.79898632576E+02 0.  0.
         24    2    4    4    0    0 -0.27294216377E+03  0.19555641952E+03  0.62113493808E+02  0.35081611923E+03  0.80461950130E+02 0.  0.
         11    1    3    3    0    0  0.37347040932E+02 -0.67238908671E+01  0.29933646418E+02  0.48332549723E+02  0.00000000000E+00 0. -1.
        -11    1    3    3    0    0  0.44419813558E+03 -0.31133087843E+03  0.12773403157E+03  0.55727451255E+03  0.00000000000E+00 0.  1.
          4    1    6    6  502    0 -0.93386796584E+02  0.11073562309E+03  0.84089282233E+01  0.14510059294E+03  0.00000000000E+00 0. -1.
          3    1    5    5  503    0 -0.63559366641E+02  0.59509817056E+02 -0.27315897543E+03  0.28670025684E+03  0.00000000000E+00 0. -1.
         -4    1    5    5    0  503 -0.14504364610E+03  0.62988532721E+02 -0.90211954380E+03  0.91587383729E+03  0.00000000000E+00 0.  1.
         -3    1    6    6    0  502 -0.17955536719E+03  0.84820796432E+02  0.53704565584E+02  0.20571552629E+03  0.00000000000E+00 0.  1.
<mgrwt>
<rscale>  0 0.19360511E+04</rscale>
<asrwt>0</asrwt>
<pdfrwt beam="1">  1        2 0.23957651E+00 0.19360511E+04</pdfrwt>
<pdfrwt beam="2">  1       -2 0.92576918E-01 0.19360511E+04</pdfrwt>
<totfact> 0.10894858E+01</totfact>
</mgrwt>
</event>
<event>
12    1  0.1663913E-007  0.1356025E+04  0.7818608E-02  0.8986280E-01
         -2   -1    0    0    0  501 -0.00000000000E+00  0.00000000000E+00  0.26261695247E+03  0.26261695247E+03  0.00000000000E+00 0.  1.
          2   -1    0    0  501    0  0.00000000000E+00 -0.00000000000E+00 -0.17504623451E+04  0.17504623451E+04  0.00000000000E+00 0. -1.
         23    2    1    2    0    0  0.51841133000E+02 -0.13859246720E+03 -0.92086653737E+03  0.93767607003E+03  0.96673975851E+02 0.  0.
        254    2    1    2    0    0 -0.51841133000E+02  0.13859246720E+03 -0.56697885523E+03  0.10754032275E+04  0.90173815736E+03 0.  0.
        -24    2    4    4    0    0 -0.32204673683E+03 -0.20552801325E+03 -0.48583523597E+03  0.62317493780E+03  0.79719895021E+02 0.  0.
         24    2    4    4    0    0  0.27020560383E+03  0.34412048045E+03 -0.81143619267E+02  0.45222828972E+03  0.80598794449E+02 0.  0.
         11    1    3    3    0    0  0.64868444645E+02 -0.14734766529E+03 -0.83176787965E+03  0.84720543860E+03  0.00000000000E+00 0. -1.
        -11    1    3    3    0    0 -0.13027311646E+02  0.87551980850E+01 -0.89098657725E+02  0.90470631426E+02  0.00000000000E+00 0.  1.
          4    1    6    6  502    0  0.75610582633E+02  0.97894632468E+02 -0.60538867192E+02  0.13771446443E+03  0.00000000000E+00 0. -1.
          3    1    5    5  503    0 -0.61590578811E+02 -0.77192588679E+02 -0.14492944314E+03  0.17537570708E+03  0.00000000000E+00 0. -1.
         -4    1    5    5    0  503 -0.26045615802E+03 -0.12833542457E+03 -0.34090579283E+03  0.44779923072E+03  0.00000000000E+00 0.  1.
         -3    1    6    6    0  502  0.19459502120E+03  0.24622584798E+03 -0.20604752075E+02  0.31451382529E+03  0.00000000000E+00 0.  1.
<mgrwt>
<rscale>  0 0.13560252E+04</rscale>
<asrwt>0</asrwt>
<pdfrwt beam="1">  1        2 0.26930189E+00 0.13560252E+04</pdfrwt>
<pdfrwt beam="2">  1       -2 0.40402609E-01 0.13560252E+04</pdfrwt>
<totfact> 0.52049998E+01</totfact>
</mgrwt>
</event>
<event>
12    1  0.1663913E-007  0.2262861E+04  0.7818608E-02  0.8492710E-01
         -2   -1    0    0    0  501 -0.00000000000E+00  0.00000000000E+00  0.88404341577E+03  0.88404341577E+03  0.00000000000E+00 0. -1.
          2   -1    0    0  501    0  0.00000000000E+00 -0.00000000000E+00 -0.14480448569E+04  0.14480448569E+04  0.00000000000E+00 0.  1.
         23    2    1    2    0    0 -0.32228233529E+03 -0.57098237080E+03  0.46953164771E+03  0.81135609704E+03  0.89173856018E+02 0.  0.
        254    2    1    2    0    0  0.32228233529E+03  0.57098237080E+03 -0.10335330889E+04  0.15207321757E+04  0.90252364673E+03 0.  0.
        -24    2    4    4    0    0 -0.14478409225E+03 -0.58095813621E+02  0.48383735356E+02  0.18251515088E+03  0.81444689968E+02 0.  0.
         24    2    4    4    0    0  0.46706642753E+03  0.62907818442E+03 -0.10819168242E+04  0.13382170248E+04  0.79939858943E+02 0.  0.
         13    1    3    3    0    0 -0.31456887241E+03 -0.51480324868E+03  0.41190414779E+03  0.73050734925E+03  0.00000000000E+00 0. -1.
        -13    1    3    3    0    0 -0.77134628739E+01 -0.56179122120E+02  0.57627499923E+02  0.80848747789E+02  0.00000000000E+00 0.  1.
          4    1    6    6  502    0  0.40067662403E+03  0.56960263382E+03 -0.92640287304E+03  0.11589698877E+04  0.00000000000E+00 0. -1.
          3    1    5    5  503    0 -0.81855390451E+02 -0.73310222098E+02  0.41288054713E+02  0.11738567660E+03  0.00000000000E+00 0. -1.
         -4    1    5    5    0  503 -0.62928701796E+02  0.15214408477E+02  0.70956806430E+01  0.65129474271E+02  0.00000000000E+00 0.  1.
         -3    1    6    6    0  502  0.66389803501E+02  0.59475550604E+02 -0.15551395120E+03  0.17924713706E+03  0.00000000000E+00 0.  1.
<mgrwt>
<rscale>  0 0.22628606E+04</rscale>
<asrwt>0</asrwt>
<pdfrwt beam="1">  1        2 0.22277613E+00 0.22628606E+04</pdfrwt>
<pdfrwt beam="2">  1       -2 0.13600668E+00 0.22628606E+04</pdfrwt>
<totfact> 0.47826874E+00</totfact>
</mgrwt>
</event>
<event>
12    1  0.1663913E-007  0.1468520E+04  0.7818608E-02  0.8905661E-01
         -2   -1    0    0    0  501 -0.00000000000E+00  0.00000000000E+00  0.32029056636E+03  0.32029056636E+03  0.00000000000E+00 0.  1.
          2   -1    0    0  501    0  0.00000000000E+00 -0.00000000000E+00 -0.16832765699E+04  0.16832765699E+04  0.00000000000E+00 0. -1.
         23    2    1    2    0    0 -0.19914315245E+03 -0.33491636829E+03 -0.69899611648E+03  0.80546321254E+03  0.91369836290E+02 0.  0.
        254    2    1    2    0    0  0.19914315245E+03  0.33491636829E+03 -0.66398988707E+03  0.11981039237E+04  0.91801060617E+03 0.  0.
        -24    2    4    4    0    0  0.44567642306E+03  0.50449193383E+02 -0.30277078752E+02  0.45666374345E+03  0.80327317308E+02 0.  0.
         24    2    4    4    0    0 -0.24653327061E+03  0.28446717491E+03 -0.63371280832E+03  0.74144018029E+03  0.80258273077E+02 0.  0.
         13    1    3    3    0    0  0.49373957470E+01 -0.15199671917E+02 -0.62594401476E+02  0.64602376112E+02  0.00000000000E+00 0.  1.
        -13    1    3    3    0    0 -0.20408054820E+03 -0.31971669637E+03 -0.63640171501E+03  0.74086083643E+03  0.00000000000E+00 0. -1.
          4    1    6    6  502    0 -0.14899948504E+02 -0.18161131452E+01 -0.13763913246E+02  0.20365461945E+02  0.00000000000E+00 0. -1.
          3    1    5    5  503    0  0.15772717030E+03 -0.20615765802E+02 -0.10061236953E+02  0.15938663225E+03  0.00000000000E+00 0. -1.
         -4    1    5    5    0  503  0.28794925276E+03  0.71064959185E+02 -0.20215841799E+02  0.29727711120E+03  0.00000000000E+00 0.  1.
         -3    1    6    6    0  502 -0.23163332210E+03  0.28628328805E+03 -0.61994889508E+03  0.72107471834E+03  0.00000000000E+00 0.  1.
<mgrwt>
<rscale>  0 0.14685198E+04</rscale>
<asrwt>0</asrwt>
<pdfrwt beam="1">  1        2 0.25896562E+00 0.14685198E+04</pdfrwt>
<pdfrwt beam="2">  1       -2 0.49275472E-01 0.14685198E+04</pdfrwt>
<totfact> 0.37825164E+01</totfact>
</mgrwt>
</event>
<event>
12    1  0.1663913E-007  0.2042663E+04  0.7818608E-02  0.8586930E-01
          1   -1    0    0  501    0  0.00000000000E+00  0.00000000000E+00  0.12776340433E+04  0.12776340433E+04  0.00000000000E+00 0. -1.
         -1   -1    0    0    0  501 -0.00000000000E+00 -0.00000000000E+00 -0.81644527277E+03  0.81644527277E+03  0.00000000000E+00 0.  1.
         23    2    1    2    0    0  0.80542304193E+00  0.81005718343E+03  0.68476307932E+00  0.81575281730E+03  0.96223182800E+02 0.  0.
        254    2    1    2    0    0 -0.80542304193E+00 -0.81005718343E+03  0.46050400742E+03  0.12783264987E+04  0.87513507952E+03 0.  0.
        -24    2    4    4    0    0  0.87195032793E+02 -0.82991727354E+03  0.64542198883E+03  0.10579049222E+04  0.78915309579E+02 0.  0.
         24    2    4    4    0    0 -0.88000455835E+02  0.19860090109E+02 -0.18491798141E+03  0.22042157655E+03  0.79072802871E+02 0.  0.
         13    1    3    3    0    0 -0.27418937202E+02  0.71200244933E+03  0.15182969831E+02  0.71269194505E+03  0.00000000000E+00 0. -1.
        -13    1    3    3    0    0  0.28224360244E+02  0.98054734102E+02 -0.14498206752E+02  0.10306087226E+03  0.00000000000E+00 0.  1.
          2    1    6    6  502    0 -0.67934746097E+02  0.20600128770E+02 -0.18720451882E+03  0.20021245440E+03  0.00000000000E+00 0. -1.
          3    1    5    5  503    0  0.75863223888E+02 -0.39300258424E+03  0.28422455713E+03  0.49090717945E+03  0.00000000000E+00 0. -1.
         -4    1    5    5    0  503  0.11331808905E+02 -0.43691468930E+03  0.36119743170E+03  0.56699774275E+03  0.00000000000E+00 0.  1.
         -1    1    6    6    0  502 -0.20065709738E+02 -0.74003866104E+00  0.22865374105E+01  0.20209122144E+02  0.00000000000E+00 0.  1.
<mgrwt>
<rscale>  0 0.20426632E+04</rscale>
<asrwt>0</asrwt>
<pdfrwt beam="1">  1        1 0.19655909E+00 0.20426632E+04</pdfrwt>
<pdfrwt beam="2">  1       -1 0.12560696E+00 0.20426632E+04</pdfrwt>
<totfact> 0.47968366E+00</totfact>
</mgrwt>
</event>
<event>
12    1  0.1663913E-007  0.2555530E+04  0.7818608E-02  0.8383466E-01
          1   -1    0    0  501    0  0.00000000000E+00  0.00000000000E+00  0.14416545991E+04  0.14416545991E+04  0.00000000000E+00 0. -1.
         -1   -1    0    0    0  501 -0.00000000000E+00 -0.00000000000E+00 -0.11325065328E+04  0.11325065328E+04  0.00000000000E+00 0.  1.
         23    2    1    2    0    0  0.92297729639E+02 -0.86363259937E+02 -0.98524820402E+03  0.99771238194E+03  0.93479890804E+02 0.  0.
        254    2    1    2    0    0 -0.92297729639E+02  0.86363259937E+02  0.12943962703E+04  0.15764487499E+04  0.89092731061E+03 0.  0.
        -24    2    4    4    0    0 -0.33569713471E+03 -0.24154045537E+03  0.36217578942E+03  0.55580977197E+03  0.81968544879E+02 0.  0.
         24    2    4    4    0    0  0.24339940507E+03  0.32790371531E+03  0.93222048093E+03  0.10206389779E+04  0.76842574734E+02 0.  0.
         13    1    3    3    0    0  0.59264361255E+02 -0.22697791031E+02 -0.72465650695E+03  0.72743007038E+03  0.00000000000E+00 0. -1.
        -13    1    3    3    0    0  0.33033368384E+02 -0.63665468906E+02 -0.26059169708E+03  0.27028231156E+03  0.00000000000E+00 0.  1.
          2    1    6    6  502    0  0.19043699304E+03  0.26594203266E+03  0.66214159046E+03  0.73852752073E+03  0.00000000000E+00 0. -1.
          3    1    5    5  503    0 -0.28935989255E+03 -0.23677788230E+03  0.33415240682E+03  0.50144864537E+03  0.00000000000E+00 0. -1.
         -4    1    5    5    0  503 -0.46337242158E+02 -0.47625730714E+01  0.28023382596E+02  0.54361126600E+02  0.00000000000E+00 0.  1.
         -1    1    6    6    0  502  0.52962412023E+02  0.61961682646E+02  0.27007889046E+03  0.28211145719E+03  0.00000000000E+00 0.  1.
<mgrwt>
<rscale>  0 0.25555299E+04</rscale>
<asrwt>0</asrwt>
<pdfrwt beam="1">  1        1 0.22179302E+00 0.25555299E+04</pdfrwt>
<pdfrwt beam="2">  1       -1 0.17423177E+00 0.25555299E+04</pdfrwt>
<totfact> 0.14552469E+00</totfact>
</mgrwt>
</event>
<event>
12    1  0.1663913E-007  0.2058215E+04  0.7818608E-02  0.8579877E-01
          2   -1    0    0  501    0  0.00000000000E+00  0.00000000000E+00  0.13248779736E+04  0.13248779736E+04  0.00000000000E+00 0. -1.
         -2   -1    0    0    0  501 -0.00000000000E+00 -0.00000000000E+00 -0.79936554846E+03  0.79936554846E+03  0.00000000000E+00 0.  1.
         23    2    1    2    0    0  0.32246999175E+03  0.22994225458E+03  0.96086311805E+03  0.10433652173E+04  0.92155895472E+02 0.  0.
        254    2    1    2    0    0 -0.32246999175E+03 -0.22994225458E+03 -0.43535069293E+03  0.10808783047E+04  0.90659105872E+03 0.  0.
        -24    2    4    4    0    0 -0.73809680838E+02 -0.55743802707E+03 -0.20105636005E+03  0.60243094745E+03  0.79462969443E+02 0.  0.
         24    2    4    4    0    0 -0.24866031092E+03  0.32749577249E+03 -0.23429433288E+03  0.47844735727E+03  0.70232528281E+02 0.  0.
         13    1    3    3    0    0  0.90875430312E+02  0.20682997335E+02  0.18739082067E+03  0.20928795924E+03  0.00000000000E+00 0.  1.
        -13    1    3    3    0    0  0.23159456144E+03  0.20925925725E+03  0.77347229739E+03  0.83407725809E+03  0.00000000000E+00 0. -1.
          4    1    6    6  502    0 -0.14567573797E+03  0.13716647052E+03 -0.12601096537E+03  0.23646315709E+03  0.00000000000E+00 0. -1.
          1    1    5    5  503    0 -0.44384107481E+02 -0.50869688715E+03 -0.17465685689E+03  0.53967350282E+03  0.00000000000E+00 0. -1.
         -2    1    5    5    0  503 -0.29425573357E+02 -0.48741139928E+02 -0.26399503163E+02  0.62757444627E+02  0.00000000000E+00 0.  1.
         -3    1    6    6    0  502 -0.10298457295E+03  0.19032930198E+03 -0.10828336751E+03  0.24198420018E+03  0.00000000000E+00 0.  1.
<mgrwt>
<rscale>  0 0.20582146E+04</rscale>
<asrwt>0</asrwt>
<pdfrwt beam="1">  1        2 0.20382738E+00 0.20582146E+04</pdfrwt>
<pdfrwt beam="2">  1       -2 0.12297931E+00 0.20582146E+04</pdfrwt>
<totfact> 0.73860581E+00</totfact>
</mgrwt>
</event>
<event>
12    1  0.1663913E-007  0.1944792E+04  0.7818608E-02  0.8632876E-01
         -1   -1    0    0    0  501 -0.00000000000E+00  0.00000000000E+00  0.71067445360E+03  0.71067445360E+03  0.00000000000E+00 0.  1.
          1   -1    0    0  501    0  0.00000000000E+00 -0.00000000000E+00 -0.13305025243E+04  0.13305025243E+04  0.00000000000E+00 0. -1.
         23    2    1    2    0    0  0.66569434953E+02  0.28798612696E+03  0.49279291544E+03  0.58153275249E+03  0.89263574382E+02 0.  0.
        254    2    1    2    0    0 -0.66569434953E+02 -0.28798612696E+03 -0.11126209861E+04  0.14596442254E+04  0.89736743140E+03 0.  0.
        -24    2    4    4    0    0  0.12556128378E+03  0.28276350283E+03 -0.24745957587E+03  0.40251225924E+03  0.71126947320E+02 0.  0.
         24    2    4    4    0    0 -0.19213071873E+03 -0.57074962979E+03 -0.86516141025E+03  0.10571319661E+04  0.79714334043E+02 0.  0.
         13    1    3    3    0    0  0.66578053079E+02  0.20586941525E+03  0.28295858696E+03  0.35620277262E+03  0.00000000000E+00 0. -1.
        -13    1    3    3    0    0 -0.86181265246E-02  0.82116711709E+02  0.20983432849E+03  0.22532997987E+03  0.00000000000E+00 0.  1.
          2    1    6    6  502    0 -0.10657524170E+03 -0.22865756103E+03 -0.31351859024E+03  0.40241330592E+03  0.00000000000E+00 0. -1.
          1    1    5    5  503    0  0.17137621814E+02  0.56585394745E+01 -0.25707488085E+02  0.31410063580E+02  0.00000000000E+00 0. -1.
         -2    1    5    5    0  503  0.10842366197E+03  0.27710496335E+03 -0.22175208779E+03  0.37110219566E+03  0.00000000000E+00 0.  1.
         -1    1    6    6    0  502 -0.85555477038E+02 -0.34209206876E+03 -0.55164282001E+03  0.65471866021E+03  0.00000000000E+00 0.  1.
<mgrwt>
<rscale>  0 0.19447922E+04</rscale>
<asrwt>0</asrwt>
<pdfrwt beam="1">  1        1 0.20469269E+00 0.19447922E+04</pdfrwt>
<pdfrwt beam="2">  1       -1 0.10933453E+00 0.19447922E+04</pdfrwt>
<totfact> 0.62085716E+00</totfact>
</mgrwt>
</event>
<event>
12    1  0.1663913E-007  0.2904297E+04  0.7818608E-02  0.8271600E-01
         -1   -1    0    0    0  501 -0.00000000000E+00  0.00000000000E+00  0.15018957959E+04  0.15018957959E+04  0.00000000000E+00 0.  1.
          1   -1    0    0  501    0  0.00000000000E+00 -0.00000000000E+00 -0.14040487930E+04  0.14040487930E+04  0.00000000000E+00 0. -1.
         23    2    1    2    0    0 -0.14740443146E+03 -0.64242183248E+03 -0.10831713473E+04  0.12713181230E+04  0.92497161643E+02 0.  0.
        254    2    1    2    0    0  0.14740443146E+03  0.64242183248E+03  0.11810183502E+04  0.16346264660E+04  0.91802258276E+03 0.  0.
        -24    2    4    4    0    0  0.28190204371E+03 -0.85066986806E+02  0.98432346901E+02  0.32088947122E+03  0.81092362992E+02 0.  0.
         24    2    4    4    0    0 -0.13449761225E+03  0.72748881928E+03  0.10825860033E+04  0.13137369948E+04  0.81134745457E+02 0.  0.
         13    1    3    3    0    0 -0.62002735681E+02 -0.21622731412E+03 -0.45305656411E+03  0.50582491130E+03  0.00000000000E+00 0.  1.
        -13    1    3    3    0    0 -0.85401695775E+02 -0.42619451836E+03 -0.63011478320E+03  0.76549321168E+03  0.00000000000E+00 0. -1.
          2    1    6    6  502    0 -0.13808518397E+03  0.66722907737E+03  0.10211769345E+04  0.12276255501E+04  0.00000000000E+00 0. -1.
          1    1    5    5  503    0  0.17798562116E+03 -0.14075864864E+02  0.44724562806E+02  0.18405786544E+03  0.00000000000E+00 0. -1.
         -2    1    5    5    0  503  0.10391642255E+03 -0.70991121942E+02  0.53707784095E+02  0.13683160579E+03  0.00000000000E+00 0.  1.
         -1    1    6    6    0  502  0.35875717195E+01  0.60259741913E+02  0.61409068830E+02  0.86111444657E+02  0.00000000000E+00 0.  1.
<mgrwt>
<rscale>  0 0.29042968E+04</rscale>
<asrwt>0</asrwt>
<pdfrwt beam="1">  1        1 0.21600751E+00 0.29042968E+04</pdfrwt>
<pdfrwt beam="2">  1       -1 0.23106089E+00 0.29042968E+04</pdfrwt>
<totfact> 0.60826286E-01</totfact>
</mgrwt>
</event>
<event>
12    1  0.1663913E-007  0.1538115E+04  0.7818608E-02  0.8859495E-01
          1   -1    0    0  501    0  0.00000000000E+00  0.00000000000E+00  0.14787883975E+04  0.14787883975E+04  0.00000000000E+00 0. -1.
         -1   -1    0    0    0  501 -0.00000000000E+00 -0.00000000000E+00 -0.39995533713E+03  0.39995533713E+03  0.00000000000E+00 0.  1.
         23    2    1    2    0    0 -0.21231749722E+03 -0.99454535146E+02  0.89345647075E+03  0.93141701990E+03  0.11959630283E+03 0.  0.
        254    2    1    2    0    0  0.21231749722E+03  0.99454535146E+02  0.18537658966E+03  0.94732671477E+03  0.89894020955E+03 0.  0.
        -24    2    4    4    0    0  0.36094042042E+03 -0.21881072701E+03 -0.15018596040E+03  0.45455173827E+03  0.76846201697E+02 0.  0.
         24    2    4    4    0    0 -0.14862292320E+03  0.31826526216E+03  0.33556255006E+03  0.49277497650E+03  0.82724857634E+02 0.  0.
         11    1    3    3    0    0 -0.84000298821E+02 -0.96125833544E+02  0.55360919148E+03  0.56813674672E+03  0.00000000000E+00 0. -1.
        -11    1    3    3    0    0 -0.12831719840E+03 -0.33287016023E+01  0.33984727926E+03  0.36328027318E+03  0.00000000000E+00 0.  1.
          4    1    6    6  502    0 -0.12630317509E+03  0.17589085356E+03  0.19315455650E+03  0.29017023814E+03  0.00000000000E+00 0. -1.
          1    1    5    5  503    0  0.11301767224E+03 -0.44540803236E+02 -0.13893759348E+02  0.12226984068E+03  0.00000000000E+00 0. -1.
         -2    1    5    5    0  503  0.24792274818E+03 -0.17426992378E+03 -0.13629220105E+03  0.33228189759E+03  0.00000000000E+00 0.  1.
         -3    1    6    6    0  502 -0.22319748105E+02  0.14237440860E+03  0.14240799356E+03  0.20260473837E+03  0.00000000000E+00 0.  1.
<mgrwt>
<rscale>  0 0.15381148E+04</rscale>
<asrwt>0</asrwt>
<pdfrwt beam="1">  1        1 0.22750590E+00 0.15381148E+04</pdfrwt>
<pdfrwt beam="2">  1       -1 0.61531591E-01 0.15381148E+04</pdfrwt>
<totfact> 0.17482142E+01</totfact>
</mgrwt>
</event>
<event>
12    1  0.1663913E-007  0.2480910E+04  0.7818608E-02  0.8409818E-01
          1   -1    0    0  501    0  0.00000000000E+00  0.00000000000E+00  0.14998480822E+04  0.14998480822E+04  0.00000000000E+00 0. -1.
         -1   -1    0    0    0  501 -0.00000000000E+00 -0.00000000000E+00 -0.10259229123E+04  0.10259229123E+04  0.00000000000E+00 0.  1.
         23    2    1    2    0    0 -0.95364908207E+03  0.26333115208E+03  0.63344055648E+03  0.11787018907E+04  0.96443461457E+02 0.  0.
        254    2    1    2    0    0  0.95364908207E+03 -0.26333115208E+03 -0.15951538650E+03  0.13470691037E+04  0.90020005797E+03 0.  0.
        -24    2    4    4    0    0  0.51309127948E+03  0.23520833431E+02  0.33692413948E+03  0.61961629969E+03  0.81182463601E+02 0.  0.
         24    2    4    4    0    0  0.44055780258E+03 -0.28685198551E+03 -0.49643952598E+03  0.72745280406E+03  0.79750486914E+02 0.  0.
         13    1    3    3    0    0 -0.70402391584E+02  0.41198804195E+02  0.33944575850E+02  0.88351980382E+02  0.00000000000E+00 0.  1.
        -13    1    3    3    0    0 -0.88324669048E+03  0.22213234789E+03  0.59949598063E+03  0.10903499104E+04  0.00000000000E+00 0. -1.
          2    1    6    6  502    0  0.42846102614E+03 -0.29064016614E+03 -0.47540681576E+03  0.70289558084E+03  0.00000000000E+00 0. -1.
          3    1    5    5  503    0  0.34328317004E+03  0.52026872103E+02  0.21086651522E+03  0.40622015890E+03  0.00000000000E+00 0. -1.
         -4    1    5    5    0  503  0.16980810944E+03 -0.28506038672E+02  0.12605762425E+03  0.21339614079E+03  0.00000000000E+00 0.  1.
         -1    1    6    6    0  502  0.12096776438E+02  0.37881806252E+01 -0.21032710224E+02  0.24557223215E+02  0.00000000000E+00 0.  1.
<mgrwt>
<rscale>  0 0.24809099E+04</rscale>
<asrwt>0</asrwt>
<pdfrwt beam="1">  1        1 0.23074586E+00 0.24809099E+04</pdfrwt>
<pdfrwt beam="2">  1       -1 0.15783429E+00 0.24809099E+04</pdfrwt>
<totfact> 0.17675177E+00</totfact>
</mgrwt>
</event>
<event>
12    1  0.1663913E-007  0.4240579E+04  0.7818608E-02  0.7957698E-01
          2   -1    0    0  501    0  0.00000000000E+00  0.00000000000E+00  0.33179796495E+04  0.33179796495E+04  0.00000000000E+00 0. -1.
         -2   -1    0    0    0  501 -0.00000000000E+00 -0.00000000000E+00 -0.13549295090E+04  0.13549295090E+04  0.00000000000E+00 0.  1.
         23    2    1    2    0    0 -0.69454703671E+03  0.33448118211E+03 -0.11193946950E+04  0.13621008170E+04  0.89447778231E+02 0.  0.
        254    2    1    2    0    0  0.69454703671E+03 -0.33448118211E+03  0.30824448355E+04  0.33108083416E+04  0.93043670556E+03 0.  0.
        -24    2    4    4    0    0  0.44148012850E+03 -0.59379149111E+03  0.13747709107E+04  0.15631769948E+04  0.77680249455E+02 0.  0.
         24    2    4    4    0    0  0.25306690821E+03  0.25931030900E+03  0.17076739248E+04  0.17476313468E+04  0.82343151023E+02 0.  0.
         13    1    3    3    0    0 -0.15344588220E+03  0.10370745169E+03 -0.22238278174E+03  0.28940451951E+03  0.00000000000E+00 0. -1.
        -13    1    3    3    0    0 -0.54110115451E+03  0.23077373041E+03 -0.89701191324E+03  0.10726962974E+04  0.00000000000E+00 0.  1.
          2    1    6    6  502    0  0.19940985039E+03  0.24342363275E+03  0.14022942879E+04  0.14371668738E+04  0.00000000000E+00 0. -1.
          1    1    5    5  503    0  0.42214640247E+03 -0.57913265976E+03  0.13504183483E+04  0.15288008170E+04  0.00000000000E+00 0. -1.
         -2    1    5    5    0  503  0.19333726022E+02 -0.14658831348E+02  0.24352562480E+02  0.34376177765E+02  0.00000000000E+00 0.  1.
         -1    1    6    6    0  502  0.53657057825E+02  0.15886676251E+02  0.30537963691E+03  0.31046447297E+03  0.00000000000E+00 0.  1.
<mgrwt>
<rscale>  0 0.42405795E+04</rscale>
<asrwt>0</asrwt>
<pdfrwt beam="1">  1        2 0.51045841E+00 0.42405795E+04</pdfrwt>
<pdfrwt beam="2">  1       -2 0.20845069E+00 0.42405795E+04</pdfrwt>
<totfact> 0.98095469E-02</totfact>
</mgrwt>
</event>
<event>
12    1  0.1663913E-007  0.1750868E+04  0.7818608E-02  0.8732873E-01
         -2   -1    0    0    0  501 -0.00000000000E+00  0.00000000000E+00  0.46234099207E+03  0.46234099207E+03  0.00000000000E+00 0. -1.
          2   -1    0    0  501    0  0.00000000000E+00 -0.00000000000E+00 -0.16576180658E+04  0.16576180658E+04  0.00000000000E+00 0.  1.
         23    2    1    2    0    0 -0.60467262369E+03 -0.17931899643E+03 -0.37747884433E+03  0.74177904145E+03  0.99807735664E+02 0.  0.
        254    2    1    2    0    0  0.60467262369E+03  0.17931899643E+03 -0.81779822939E+03  0.13781800164E+04  0.91257982078E+03 0.  0.
        -24    2    4    4    0    0 -0.12579635434E+03  0.26645962115E+03 -0.46897647521E+03  0.56002091758E+03  0.82819329605E+02 0.  0.
         24    2    4    4    0    0  0.73046897803E+03 -0.87140624717E+02 -0.34882175418E+03  0.81815909883E+03  0.80803950763E+02 0.  0.
         11    1    3    3    0    0 -0.15018350701E+03 -0.31796456561E+01 -0.72444597163E+02  0.16677354581E+03  0.00000000000E+00 0. -1.
        -11    1    3    3    0    0 -0.45448911669E+03 -0.17613935077E+03 -0.30503424717E+03  0.57500549564E+03  0.00000000000E+00 0.  1.
          2    1    6    6  502    0  0.37952000891E+03 -0.36612077701E+02 -0.22428169111E+03  0.44235524001E+03  0.00000000000E+00 0. -1.
          1    1    5    5  503    0 -0.12066526631E+03  0.27105029504E+03 -0.44321531248E+03  0.53335558697E+03  0.00000000000E+00 0. -1.
         -2    1    5    5    0  503 -0.51310880239E+01 -0.45906738924E+01 -0.25761162735E+02  0.26665330611E+02  0.00000000000E+00 0.  1.
         -1    1    6    6    0  502  0.35094896912E+03 -0.50528547016E+02 -0.12454006306E+03  0.37580385881E+03  0.00000000000E+00 0.  1.
<mgrwt>
<rscale>  0 0.17508681E+04</rscale>
<asrwt>0</asrwt>
<pdfrwt beam="1">  1        2 0.25501817E+00 0.17508681E+04</pdfrwt>
<pdfrwt beam="2">  1       -2 0.71129382E-01 0.17508681E+04</pdfrwt>
<totfact> 0.17613250E+01</totfact>
</mgrwt>
</event>
<event>
12    1  0.1663913E-007  0.1321892E+04  0.7818608E-02  0.9012382E-01
         -1   -1    0    0    0  501 -0.00000000000E+00  0.00000000000E+00  0.83613426874E+03  0.83613426874E+03  0.00000000000E+00 0.  1.
          1   -1    0    0  501    0  0.00000000000E+00 -0.00000000000E+00 -0.52246368629E+03  0.52246368629E+03  0.00000000000E+00 0. -1.
         23    2    1    2    0    0 -0.19736516779E+03  0.12260140335E+02  0.37356105838E+03  0.43213318760E+03  0.89932791518E+02 0.  0.
        254    2    1    2    0    0  0.19736516779E+03 -0.12260140335E+02 -0.59890475929E+02  0.92646476743E+03  0.90313164914E+03 0.  0.
        -24    2    4    4    0    0  0.14012441866E+03  0.18212687318E+03 -0.43150603431E+03  0.49543506232E+03  0.80333011211E+02 0.  0.
         24    2    4    4    0    0  0.57240749129E+02 -0.19438701352E+03  0.37161555838E+03  0.43102970511E+03  0.81398212941E+02 0.  0.
         13    1    3    3    0    0 -0.93939084525E+02 -0.61856003827E+01  0.92087302809E+02  0.13169238623E+03  0.00000000000E+00 0.  1.
        -13    1    3    3    0    0 -0.10342608326E+03  0.18445740717E+02  0.28147375557E+03  0.30044080137E+03  0.00000000000E+00 0. -1.
          2    1    6    6  502    0  0.37614382461E+02 -0.50752605815E+02  0.59010615808E+02  0.86446061466E+02  0.00000000000E+00 0. -1.
          1    1    5    5  503    0  0.41216781754E+02  0.75872679613E+01 -0.59430403371E+02  0.72721128829E+02  0.00000000000E+00 0. -1.
         -2    1    5    5    0  503  0.98907636903E+02  0.17453960522E+03 -0.37207563094E+03  0.42271393349E+03  0.00000000000E+00 0.  1.
         -1    1    6    6    0  502  0.19626366667E+02 -0.14363440770E+03  0.31260494257E+03  0.34458364364E+03  0.00000000000E+00 0.  1.
<mgrwt>
<rscale>  0 0.13218923E+04</rscale>
<asrwt>0</asrwt>
<pdfrwt beam="1">  1        1 0.80379028E-01 0.13218923E+04</pdfrwt>
<pdfrwt beam="2">  1       -1 0.12863604E+00 0.13218923E+04</pdfrwt>
<totfact> 0.21308154E+01</totfact>
</mgrwt>
</event>
<event>
12    1  0.1663913E-007  0.2254853E+04  0.7818608E-02  0.8495938E-01
         -2   -1    0    0    0  501 -0.00000000000E+00  0.00000000000E+00  0.80874930404E+03  0.80874930404E+03  0.00000000000E+00 0.  1.
          2   -1    0    0  501    0  0.00000000000E+00 -0.00000000000E+00 -0.15716740373E+04  0.15716740373E+04  0.00000000000E+00 0. -1.
         23    2    1    2    0    0  0.19664764448E+03  0.86852155398E+03  0.13518889523E+02  0.89530058529E+03  0.91544480069E+02 0.  0.
        254    2    1    2    0    0 -0.19664764448E+03 -0.86852155398E+03 -0.77644362283E+03  0.14851227561E+04  0.89984716226E+03 0.  0.
        -24    2    4    4    0    0  0.16917551121E+03 -0.79294210508E+02  0.11747730186E+03  0.23525233527E+03  0.81454400654E+02 0.  0.
         24    2    4    4    0    0 -0.36582315570E+03 -0.78922734348E+03 -0.89392092469E+03  0.12498704208E+04  0.79844024979E+02 0.  0.
         13    1    3    3    0    0  0.18860978171E+03  0.79364808494E+03 -0.11852003450E+02  0.81583785305E+03  0.00000000000E+00 0.  1.
        -13    1    3    3    0    0  0.80378627738E+01  0.74873469048E+02  0.25370892972E+02  0.79462732242E+02  0.00000000000E+00 0. -1.
          2    1    6    6  502    0 -0.15085908699E+03 -0.35183204910E+03 -0.44811557129E+03  0.58936560821E+03  0.00000000000E+00 0. -1.
          3    1    5    5  503    0  0.90644898765E+01 -0.68392749805E+01 -0.12334767126E+02  0.16765653553E+02  0.00000000000E+00 0. -1.
         -4    1    5    5    0  503  0.16011102134E+03 -0.72454935527E+02  0.12981206898E+03  0.21848668172E+03  0.00000000000E+00 0.  1.
         -1    1    6    6    0  502 -0.21496406871E+03 -0.43739529437E+03 -0.44580535340E+03  0.66050481262E+03  0.00000000000E+00 0.  1.
<mgrwt>
<rscale>  0 0.22548528E+04</rscale>
<asrwt>0</asrwt>
<pdfrwt beam="1">  1        2 0.24179600E+00 0.22548528E+04</pdfrwt>
<pdfrwt beam="2">  1       -2 0.12442297E+00 0.22548528E+04</pdfrwt>
<totfact> 0.51066292E+00</totfact>
</mgrwt>
</event>
<event>
12    1  0.1664753E-007  0.1554347E+04  0.7818608E-02  0.8849096E-01
         -2   -1    0    0    0  501 -0.00000000000E+00  0.00000000000E+00  0.45743878872E+03  0.45743878872E+03  0.00000000000E+00 0.  1.
          2   -1    0    0  501    0  0.00000000000E+00 -0.00000000000E+00 -0.13203915325E+04  0.13203915325E+04  0.00000000000E+00 0. -1.
         23    2    1    2    0    0 -0.25715917354E+03  0.14562511173E+03  0.18761864095E+03  0.36159603384E+03  0.90627940261E+02 0.  0.
        254    2    1    2    0    0  0.25715917354E+03 -0.14562511173E+03 -0.10505713847E+04  0.14162342873E+04  0.90259725713E+03 0.  0.
        -24    2    4    4    0    0 -0.83952659870E+02 -0.42479369008E+03 -0.27129458948E+03  0.51738752114E+03  0.81187218949E+02 0.  0.
         24    2    4    4    0    0  0.34111183341E+03  0.27916857835E+03 -0.77927679521E+03  0.89884676619E+03  0.79754670647E+02 0.  0.
         13    1    3    3    0    0 -0.24803383851E+03  0.15106773694E+03  0.15905546925E+03  0.33112065549E+03  0.00000000000E+00 0.  1.
        -13    1    3    3    0    0 -0.91253350314E+01 -0.54426252091E+01  0.28563171697E+02  0.30475378357E+02  0.00000000000E+00 0. -1.
          4    1    6    6  502    0  0.54167101442E+02  0.74887890970E+02 -0.12104019660E+03  0.15229248270E+03  0.00000000000E+00 0. -1.
          1    1    5    5  503    0  0.58494850387E+01 -0.17031990859E+03 -0.11404812940E+03  0.20506112151E+03  0.00000000000E+00 0. -1.
         -2    1    5    5    0  503 -0.89802144908E+02 -0.25447378150E+03 -0.15724646008E+03  0.31232639963E+03  0.00000000000E+00 0.  1.
         -3    1    6    6    0  502  0.28694473197E+03  0.20428068738E+03 -0.65823659861E+03  0.74655428349E+03  0.00000000000E+00 0.  1.
<mgrwt>
<rscale>  0 0.15543466E+04</rscale>
<asrwt>0</asrwt>
<pdfrwt beam="1">  1        2 0.20313716E+00 0.15543466E+04</pdfrwt>
<pdfrwt beam="2">  1       -2 0.70375198E-01 0.15543466E+04</pdfrwt>
<totfact> 0.28438582E+01</totfact>
</mgrwt>
</event>
<event>
12    1  0.1663913E-007  0.1207990E+04  0.7818608E-02  0.9105891E-01
         -1   -1    0    0    0  501 -0.00000000000E+00  0.00000000000E+00  0.12222101566E+04  0.12222101566E+04  0.00000000000E+00 0.  1.
          1   -1    0    0  501    0  0.00000000000E+00 -0.00000000000E+00 -0.29848397570E+03  0.29848397570E+03  0.00000000000E+00 0. -1.
         23    2    1    2    0    0  0.16272849344E+03  0.87729160724E+01  0.46455044373E+03  0.50065644157E+03  0.91061688330E+02 0.  0.
        254    2    1    2    0    0 -0.16272849344E+03 -0.87729160724E+01  0.45917573719E+03  0.10200376908E+04  0.89614563900E+03 0.  0.
        -24    2    4    4    0    0 -0.15774840318E+03  0.41864832510E+03  0.34735604225E+03  0.57126032654E+03  0.74371780803E+02 0.  0.
         24    2    4    4    0    0 -0.49800902635E+01 -0.42742124117E+03  0.11181969494E+03  0.44877736421E+03  0.78636885450E+02 0.  0.
         11    1    3    3    0    0  0.11401705294E+03  0.12657666225E+02  0.19121414878E+03  0.22298644705E+03  0.00000000000E+00 0. -1.
        -11    1    3    3    0    0  0.48711440508E+02 -0.38847501527E+01  0.27333629495E+03  0.27766999452E+03  0.00000000000E+00 0.  1.
          2    1    6    6  502    0  0.92146385258E+00 -0.42094982234E+03  0.11900457951E+03  0.43744907357E+03  0.00000000000E+00 0. -1.
          1    1    5    5  503    0 -0.15517445167E+03  0.41604086059E+03  0.35106054176E+03  0.56605000849E+03  0.00000000000E+00 0. -1.
         -4    1    5    5    0  503 -0.25739515072E+01  0.26074645043E+01 -0.37044995124E+01  0.52103180460E+01  0.00000000000E+00 0.  1.
         -1    1    6    6    0  502 -0.59015541160E+01 -0.64714188275E+01 -0.71848845680E+01  0.11328290643E+02  0.00000000000E+00 0.  1.
<mgrwt>
<rscale>  0 0.12079903E+04</rscale>
<asrwt>0</asrwt>
<pdfrwt beam="1">  1        1 0.45920612E-01 0.12079903E+04</pdfrwt>
<pdfrwt beam="2">  1       -1 0.18803233E+00 0.12079903E+04</pdfrwt>
<totfact> 0.15927464E+01</totfact>
</mgrwt>
</event>
<event>
12    1  0.1663913E-007  0.2057870E+04  0.7818608E-02  0.8580032E-01
         -1   -1    0    0    0  501 -0.00000000000E+00  0.00000000000E+00  0.72181445644E+03  0.72181445644E+03  0.00000000000E+00 0.  1.
          1   -1    0    0  501    0  0.00000000000E+00 -0.00000000000E+00 -0.14667308649E+04  0.14667308649E+04  0.00000000000E+00 0. -1.
         23    2    1    2    0    0 -0.21222409358E+02  0.10000392782E+03 -0.11757532969E+04  0.11837395167E+04  0.91609235743E+02 0.  0.
        254    2    1    2    0    0  0.21222409358E+02 -0.10000392782E+03  0.43083688846E+03  0.10048058046E+04  0.90197733022E+03 0.  0.
        -24    2    4    4    0    0  0.24280930427E+03 -0.55926332813E+02  0.63694647441E+03  0.68865675237E+03  0.80394019545E+02 0.  0.
         24    2    4    4    0    0 -0.22158689491E+03 -0.44077595007E+02 -0.20610958595E+03  0.31614905221E+03  0.80159063205E+02 0.  0.
         13    1    3    3    0    0 -0.49726337422E+02  0.69567572588E+02 -0.97252700523E+03  0.97627922834E+03  0.00000000000E+00 0. -1.
        -13    1    3    3    0    0  0.28503928064E+02  0.30436355233E+02 -0.20322629166E+03  0.20746028839E+03  0.00000000000E+00 0.  1.
          4    1    6    6  502    0 -0.22126143480E+03 -0.33416161353E+02 -0.20776910809E+03  0.30535432639E+03  0.00000000000E+00 0. -1.
          1    1    5    5  503    0  0.18882329598E+03 -0.12578977088E+02  0.51130445989E+03  0.54520153932E+03  0.00000000000E+00 0. -1.
         -2    1    5    5    0  503  0.53986008292E+02 -0.43347355725E+02  0.12564201452E+03  0.14345521305E+03  0.00000000000E+00 0.  1.
         -3    1    6    6    0  502 -0.32546011351E+00 -0.10661433654E+02  0.16595221357E+01  0.10794725822E+02  0.00000000000E+00 0.  1.
<mgrwt>
<rscale>  0 0.20578703E+04</rscale>
<asrwt>0</asrwt>
<pdfrwt beam="1">  1        1 0.22565090E+00 0.20578703E+04</pdfrwt>
<pdfrwt beam="2">  1       -1 0.11104838E+00 0.20578703E+04</pdfrwt>
<totfact> 0.47521688E+00</totfact>
</mgrwt>
</event>
<event>
12    1  0.1663913E-007  0.1891454E+04  0.7818608E-02  0.8659122E-01
         -2   -1    0    0    0  501 -0.00000000000E+00  0.00000000000E+00  0.27541564148E+03  0.27541564148E+03  0.00000000000E+00 0.  1.
          2   -1    0    0  501    0  0.00000000000E+00 -0.00000000000E+00 -0.32474528466E+04  0.32474528466E+04  0.00000000000E+00 0. -1.
         23    2    1    2    0    0 -0.61060689971E+03  0.39398125645E+03 -0.11720677989E+04  0.13814865598E+04  0.81854586581E+02 0.  0.
        254    2    1    2    0    0  0.61060689971E+03 -0.39398125645E+03 -0.17999694062E+04  0.21413819283E+04  0.90419283501E+03 0.  0.
        -24    2    4    4    0    0  0.76264941085E+02 -0.33000894053E+03 -0.14559736617E+04  0.14974948729E+04  0.88934520343E+02 0.  0.
         24    2    4    4    0    0  0.53434195863E+03 -0.63972315919E+02 -0.34399574454E+03  0.64388705531E+03  0.81508783406E+02 0.  0.
         11    1    3    3    0    0 -0.43309974552E+03  0.27708229878E+03 -0.75588899375E+03  0.91417621974E+03  0.00000000000E+00 0. -1.
        -11    1    3    3    0    0 -0.17750715419E+03  0.11689895767E+03 -0.41617880512E+03  0.46731034006E+03  0.00000000000E+00 0.  1.
          2    1    6    6  502    0  0.38512805485E+03 -0.18702064458E+02 -0.27367801462E+03  0.47283511030E+03  0.00000000000E+00 0. -1.
          3    1    5    5  503    0  0.74896672172E+02 -0.18953143016E+03 -0.99210316749E+03  0.10128180337E+04  0.00000000000E+00 0. -1.
         -4    1    5    5    0  503  0.13682689131E+01 -0.14047751037E+03 -0.46387049420E+03  0.48467683921E+03  0.00000000000E+00 0.  1.
         -1    1    6    6    0  502  0.14921390378E+03 -0.45270251461E+02 -0.70317729919E+02  0.17105194500E+03  0.00000000000E+00 0.  1.
<mgrwt>
<rscale>  0 0.18914537E+04</rscale>
<asrwt>0</asrwt>
<pdfrwt beam="1">  1        2 0.49960813E+00 0.18914537E+04</pdfrwt>
<pdfrwt beam="2">  1       -2 0.42371637E-01 0.18914537E+04</pdfrwt>
<totfact> 0.60011360E+00</totfact>
</mgrwt>
</event>
<event>
12    1  0.1663913E-007  0.1694013E+04  0.7818608E-02  0.8764786E-01
          3   -1    0    0  501    0  0.00000000000E+00  0.00000000000E+00  0.97380364923E+03  0.97380364923E+03  0.00000000000E+00 0. -1.
         -3   -1    0    0    0  501 -0.00000000000E+00 -0.00000000000E+00 -0.73671937625E+03  0.73671937625E+03  0.00000000000E+00 0.  1.
         23    2    1    2    0    0 -0.39684952614E+03 -0.33342979855E+03  0.39068701412E+03  0.65553448085E+03  0.91783090013E+02 0.  0.
        254    2    1    2    0    0  0.39684952614E+03  0.33342979855E+03 -0.15360274115E+03  0.10549885446E+04  0.90594814988E+03 0.  0.
        -24    2    4    4    0    0  0.13781609211E+03  0.61197715884E+03  0.11646816997E+02  0.63267376895E+03  0.81431759140E+02 0.  0.
         24    2    4    4    0    0  0.25903343403E+03 -0.27854736028E+03 -0.16524955815E+03  0.42231477568E+03  0.79720771600E+02 0.  0.
         11    1    3    3    0    0 -0.72247862624E+02 -0.50749030377E+02  0.11258026790E+03  0.14307178079E+03  0.00000000000E+00 0. -1.
        -11    1    3    3    0    0 -0.32460166351E+03 -0.28268076818E+03  0.27810674622E+03  0.51246270006E+03  0.00000000000E+00 0.  1.
          2    1    6    6  502    0 -0.36247539771E+01  0.80206896600E+00 -0.61392073601E+01  0.71744005346E+01  0.00000000000E+00 0. -1.
          1    1    5    5  503    0  0.87754960282E+02  0.37417678497E+03 -0.32433377511E+02  0.38569563575E+03  0.00000000000E+00 0. -1.
         -2    1    5    5    0  503  0.50061131824E+02  0.23780037387E+03  0.44080194508E+02  0.24697813320E+03  0.00000000000E+00 0.  1.
         -1    1    6    6    0  502  0.26265818801E+03 -0.27934942925E+03 -0.15911035079E+03  0.41514037515E+03  0.00000000000E+00 0.  1.
<mgrwt>
<rscale>  0 0.16940130E+04</rscale>
<asrwt>0</asrwt>
<pdfrwt beam="1">  1        3 0.14981595E+00 0.16940130E+04</pdfrwt>
<pdfrwt beam="2">  1       -3 0.11334144E+00 0.16940130E+04</pdfrwt>
<totfact> 0.52488256E-01</totfact>
</mgrwt>
</event>
<event>
12    1  0.1663913E-007  0.1546038E+04  0.7818608E-02  0.8854402E-01
         -2   -1    0    0    0  501 -0.00000000000E+00  0.00000000000E+00  0.19050474453E+03  0.19050474453E+03  0.00000000000E+00 0.  1.
          2   -1    0    0  501    0  0.00000000000E+00 -0.00000000000E+00 -0.31367119478E+04  0.31367119478E+04  0.00000000000E+00 0. -1.
         23    2    1    2    0    0 -0.30888749196E+03  0.69082200788E+02 -0.12575210684E+03  0.35231324640E+03  0.90150973684E+02 0.  0.
        254    2    1    2    0    0  0.30888749196E+03 -0.69082200788E+02 -0.28204550964E+04  0.29749034459E+04  0.89157149376E+03 0.  0.
        -24    2    4    4    0    0 -0.22130982890E+03 -0.26568297191E+03 -0.13833211178E+04  0.14281062767E+04  0.79653880104E+02 0.  0.
         24    2    4    4    0    0  0.53019732086E+03  0.19660077112E+03 -0.14371339787E+04  0.15467971693E+04  0.86408032126E+02 0.  0.
         11    1    3    3    0    0 -0.63636235611E+00  0.14325951813E+02  0.13847255737E+01  0.14406780254E+02  0.00000000000E+00 0. -1.
        -11    1    3    3    0    0 -0.30825112961E+03  0.54756248975E+02 -0.12713683241E+03  0.33790646614E+03  0.00000000000E+00 0.  1.
          2    1    6    6  502    0 -0.36001790603E+00 -0.45559698511E+01 -0.13571203891E+02  0.14320057585E+02  0.00000000000E+00 0. -1.
          1    1    5    5  503    0 -0.90028007381E+02 -0.10329938034E+03 -0.71176665721E+03  0.72483624248E+03  0.00000000000E+00 0. -1.
         -2    1    5    5    0  503 -0.13128182152E+03 -0.16238359156E+03 -0.67155446056E+03  0.70327003417E+03  0.00000000000E+00 0.  1.
         -1    1    6    6    0  502  0.53055733877E+03  0.20115674097E+03 -0.14235627748E+04  0.15324771117E+04  0.00000000000E+00 0.  1.
<mgrwt>
<rscale>  0 0.15460382E+04</rscale>
<asrwt>0</asrwt>
<pdfrwt beam="1">  1        2 0.48257099E+00 0.15460382E+04</pdfrwt>
<pdfrwt beam="2">  1       -2 0.29308427E-01 0.15460382E+04</pdfrwt>
<totfact> 0.14819607E+01</totfact>
</mgrwt>
</event>
<event>
12    1  0.1663913E-007  0.1506287E+04  0.7818608E-02  0.8880283E-01
         -1   -1    0    0    0  501 -0.00000000000E+00  0.00000000000E+00  0.29741359725E+03  0.29741359725E+03  0.00000000000E+00 0.  1.
          1   -1    0    0  501    0  0.00000000000E+00 -0.00000000000E+00 -0.19071939053E+04  0.19071939053E+04  0.00000000000E+00 0. -1.
         23    2    1    2    0    0 -0.34294752163E+03  0.29129693479E+03 -0.27813042322E+03  0.53658614558E+03  0.90006958054E+02 0.  0.
        254    2    1    2    0    0  0.34294752163E+03 -0.29129693479E+03 -0.13316498848E+04  0.16680213569E+04  0.89807400848E+03 0.  0.
        -24    2    4    4    0    0  0.45552013988E+03 -0.43717379957E+03 -0.49107697005E+03  0.80369426321E+03  0.78411410715E+02 0.  0.
         24    2    4    4    0    0 -0.11257261825E+03  0.14587686478E+03 -0.84057291476E+03  0.86432709374E+03  0.80906401982E+02 0.  0.
         13    1    3    3    0    0 -0.34660030275E+02  0.12732375361E+01 -0.30605186130E+02  0.46255986105E+02  0.00000000000E+00 0. -1.
        -13    1    3    3    0    0 -0.30828749135E+03  0.29002369726E+03 -0.24752523709E+03  0.49033015948E+03  0.00000000000E+00 0.  1.
          4    1    6    6  502    0 -0.39954453571E+02  0.24847710546E+01 -0.14496412326E+03  0.15038992479E+03  0.00000000000E+00 0. -1.
          3    1    5    5  503    0  0.25863540255E+02 -0.31041235484E+02 -0.58582178304E+02  0.71164265118E+02  0.00000000000E+00 0. -1.
         -4    1    5    5    0  503  0.42965659962E+03 -0.40613256409E+03 -0.43249479174E+03  0.73252999809E+03  0.00000000000E+00 0.  1.
         -3    1    6    6    0  502 -0.72618164680E+02  0.14339209373E+03 -0.69560879150E+03  0.71393716895E+03  0.00000000000E+00 0.  1.
<mgrwt>
<rscale>  0 0.15062874E+04</rscale>
<asrwt>0</asrwt>
<pdfrwt beam="1">  1        1 0.29341446E+00 0.15062874E+04</pdfrwt>
<pdfrwt beam="2">  1       -1 0.45755936E-01 0.15062874E+04</pdfrwt>
<totfact> 0.15818232E+01</totfact>
</mgrwt>
</event>
<event>
12    1  0.1663913E-007  0.2560734E+04  0.7818608E-02  0.8381663E-01
          1   -1    0    0  501    0  0.00000000000E+00  0.00000000000E+00  0.76876610936E+03  0.76876610936E+03  0.00000000000E+00 0. -1.
         -1   -1    0    0    0  501 -0.00000000000E+00 -0.00000000000E+00 -0.21324299829E+04  0.21324299829E+04  0.00000000000E+00 0.  1.
         23    2    1    2    0    0  0.77641709910E+03  0.66277545352E+03 -0.11141630985E+04  0.15138798857E+04  0.91531877670E+02 0.  0.
        254    2    1    2    0    0 -0.77641709910E+03 -0.66277545352E+03 -0.24950077500E+03  0.13873162065E+04  0.90570459126E+03 0.  0.
        -24    2    4    4    0    0  0.46661430912E+02  0.17147376429E+02  0.20339430047E+03  0.22502105089E+03  0.82425179590E+02 0.  0.
         24    2    4    4    0    0 -0.82307853002E+03 -0.67992282995E+03 -0.45289507547E+03  0.11622951556E+04  0.77863715523E+02 0.  0.
         11    1    3    3    0    0  0.41243984695E+02  0.11903969576E+02 -0.51131605889E+02  0.66762353808E+02  0.00000000000E+00 0. -1.
        -11    1    3    3    0    0  0.73517311441E+03  0.65087148395E+03 -0.10630314926E+04  0.14471175319E+04  0.00000000000E+00 0.  1.
          2    1    6    6  502    0 -0.36977763978E+02 -0.54596535367E+02 -0.27142228534E+02  0.71308044937E+02  0.00000000000E+00 0. -1.
          1    1    5    5  503    0 -0.49143641742E+01  0.31915581696E+02  0.32140147632E+02  0.45560338234E+02  0.00000000000E+00 0. -1.
         -2    1    5    5    0  503  0.51575795086E+02 -0.14768205267E+02  0.17125415283E+03  0.17946071266E+03  0.00000000000E+00 0.  1.
         -1    1    6    6    0  502 -0.78610076604E+03 -0.62532629459E+03 -0.42575284693E+03  0.10909871107E+04  0.00000000000E+00 0.  1.
<mgrwt>
<rscale>  0 0.25607342E+04</rscale>
<asrwt>0</asrwt>
<pdfrwt beam="1">  1        1 0.11827171E+00 0.25607342E+04</pdfrwt>
<pdfrwt beam="2">  1       -1 0.32806615E+00 0.25607342E+04</pdfrwt>
<totfact> 0.45135172E-01</totfact>
</mgrwt>
</event>
<event>
12    1  0.1663913E-007  0.2057394E+04  0.7818608E-02  0.8580248E-01
          2   -1    0    0  501    0  0.00000000000E+00  0.00000000000E+00  0.11620779244E+04  0.11620779244E+04  0.00000000000E+00 0. -1.
         -2   -1    0    0    0  501 -0.00000000000E+00 -0.00000000000E+00 -0.91062506590E+03  0.91062506590E+03  0.00000000000E+00 0.  1.
         23    2    1    2    0    0  0.54401846246E+03  0.77385087301E+02  0.73092948213E+03  0.91900804609E+03  0.91505965379E+02 0.  0.
        254    2    1    2    0    0 -0.54401846246E+03 -0.77385087301E+02 -0.47947662365E+03  0.11536949442E+04  0.89396289207E+03 0.  0.
        -24    2    4    4    0    0 -0.24780222688E+03 -0.39501427756E+03 -0.52901724111E+03  0.70955433353E+03  0.78523166736E+02 0.  0.
         24    2    4    4    0    0 -0.29621623558E+03  0.31762919026E+03  0.49540617464E+02  0.44414061066E+03  0.78576386581E+02 0.  0.
         11    1    3    3    0    0  0.15252018316E+03 -0.18131644366E+02  0.21915178225E+03  0.26761664085E+03  0.00000000000E+00 0. -1.
        -11    1    3    3    0    0  0.39149827929E+03  0.95516731667E+02  0.51177769988E+03  0.65139140523E+03  0.00000000000E+00 0.  1.
          4    1    6    6  502    0 -0.29363631697E+03  0.28709966862E+03  0.47992875062E+02  0.41346320564E+03  0.00000000000E+00 0. -1.
          3    1    5    5  503    0 -0.11977866204E+03 -0.26284149072E+03 -0.32037355946E+03  0.43136040004E+03  0.00000000000E+00 0. -1.
         -4    1    5    5    0  503 -0.12802356484E+03 -0.13217278684E+03 -0.20864368165E+03  0.27819393349E+03  0.00000000000E+00 0.  1.
         -3    1    6    6    0  502 -0.25799186101E+01  0.30529521642E+02  0.15477424018E+01  0.30677405012E+02  0.00000000000E+00 0.  1.
<mgrwt>
<rscale>  0 0.20573938E+04</rscale>
<asrwt>0</asrwt>
<pdfrwt beam="1">  1        2 0.17878122E+00 0.20573938E+04</pdfrwt>
<pdfrwt beam="2">  1       -2 0.14009616E+00 0.20573938E+04</pdfrwt>
<totfact> 0.66190827E+00</totfact>
</mgrwt>
</event>
<event>
12    1  0.2201720E-007  0.2171224E+04  0.7818608E-02  0.8530502E-01
         -1   -1    0    0    0  501 -0.00000000000E+00  0.00000000000E+00  0.10689760333E+04  0.10689760333E+04  0.00000000000E+00 0.  1.
          1   -1    0    0  501    0  0.00000000000E+00 -0.00000000000E+00 -0.11025067007E+04  0.11025067007E+04  0.00000000000E+00 0. -1.
         23    2    1    2    0    0 -0.25504236674E+03 -0.51414422587E+03  0.75265158154E+03  0.95090902114E+03  0.91392939960E+02 0.  0.
        254    2    1    2    0    0  0.25504236674E+03  0.51414422587E+03 -0.78618224895E+03  0.12205737129E+04  0.73642838504E+03 0.  0.
        -24    2    4    4    0    0  0.30453174929E+03  0.96184359796E+01 -0.43686341416E+02  0.31794251147E+03  0.79667079357E+02 0.  0.
         24    2    4    4    0    0 -0.49489382556E+02  0.50452578989E+03 -0.74249590753E+03  0.90263120145E+03  0.80295961871E+02 0.  0.
         11    1    3    3    0    0 -0.21803493893E+03 -0.49169534863E+03  0.69570343753E+03  0.87937865760E+03  0.00000000000E+00 0.  1.
        -11    1    3    3    0    0 -0.37007427805E+02 -0.22448877240E+02  0.56948144002E+02  0.71530363535E+02  0.00000000000E+00 0. -1.
          2    1    6    6  502    0  0.53349162131E+01  0.37547112269E+02 -0.27323842927E+02  0.46742265275E+02  0.00000000000E+00 0. -1.
          1    1    5    5  503    0  0.11633293844E+02 -0.11339861224E+02 -0.16312176810E+02  0.23022013173E+02  0.00000000000E+00 0. -1.
         -2    1    5    5    0  503  0.29289845545E+03  0.20958297203E+02 -0.27374164606E+02  0.29492049829E+03  0.00000000000E+00 0.  1.
         -1    1    6    6    0  502 -0.54824298769E+02  0.46697867762E+03 -0.71517206460E+03  0.85588893618E+03  0.00000000000E+00 0.  1.
<mgrwt>
<rscale>  0 0.21712238E+04</rscale>
<asrwt>0</asrwt>
<pdfrwt beam="1">  1        1 0.16961642E+00 0.21712238E+04</pdfrwt>
<pdfrwt beam="2">  1       -1 0.16445785E+00 0.21712238E+04</pdfrwt>
<totfact> 0.31212482E+00</totfact>
</mgrwt>
</event>
<event>
12    1  0.1663913E-007  0.2030512E+04  0.7818608E-02  0.8592487E-01
         -2   -1    0    0    0  501 -0.00000000000E+00  0.00000000000E+00  0.19851895493E+04  0.19851895493E+04  0.00000000000E+00 0.  1.
          2   -1    0    0  501    0  0.00000000000E+00 -0.00000000000E+00 -0.51921718043E+03  0.51921718043E+03  0.00000000000E+00 0. -1.
         23    2    1    2    0    0 -0.70725449211E+03  0.14728789381E+02  0.98357412180E+02  0.71952293007E+03  0.87253724994E+02 0.  0.
        254    2    1    2    0    0  0.70725449211E+03 -0.14728789381E+02  0.13676149567E+04  0.17848837997E+04  0.90278106688E+03 0.  0.
        -24    2    4    4    0    0  0.51369513283E+03 -0.93898522210E+02  0.14522535682E+04  0.15454332382E+04  0.81387011306E+02 0.  0.
         24    2    4    4    0    0  0.19355935928E+03  0.79169732829E+02 -0.84638611464E+02  0.23945056145E+03  0.80248393553E+02 0.  0.
         13    1    3    3    0    0 -0.21159550646E+03  0.43198656889E+01  0.70112024141E+02  0.22295070200E+03  0.00000000000E+00 0. -1.
        -13    1    3    3    0    0 -0.49565898564E+03  0.10408923692E+02  0.28245388038E+02  0.49657222807E+03  0.00000000000E+00 0.  1.
          4    1    6    6  502    0  0.94760099475E+02  0.41226446531E+02 -0.84700020962E+02  0.13361582952E+03  0.00000000000E+00 0. -1.
          3    1    5    5  503    0  0.46413393734E+03 -0.60766509905E+02  0.12595256214E+04  0.13436955279E+04  0.00000000000E+00 0. -1.
         -4    1    5    5    0  503  0.49561195491E+02 -0.33132012305E+02  0.19272794672E+03  0.20173771037E+03  0.00000000000E+00 0.  1.
         -3    1    6    6    0  502  0.98799259800E+02  0.37943286298E+02  0.61409497401E-01  0.10583473193E+03  0.00000000000E+00 0.  1.
<mgrwt>
<rscale>  0 0.20305118E+04</rscale>
<asrwt>0</asrwt>
<pdfrwt beam="1">  1        2 0.79879567E-01 0.20305118E+04</pdfrwt>
<pdfrwt beam="2">  1       -2 0.30541377E+00 0.20305118E+04</pdfrwt>
<totfact> 0.16097199E+00</totfact>
</mgrwt>
</event>
<event>
12    1  0.1663913E-007  0.1395576E+04  0.7818608E-02  0.8957027E-01
         -2   -1    0    0    0  501 -0.00000000000E+00  0.00000000000E+00  0.18115942530E+03  0.18115942530E+03  0.00000000000E+00 0.  1.
          2   -1    0    0  501    0  0.00000000000E+00 -0.00000000000E+00 -0.26877326783E+04  0.26877326783E+04  0.00000000000E+00 0. -1.
         23    2    1    2    0    0  0.12192951355E+03  0.25421512076E+03 -0.13338227585E+04  0.13664015114E+04  0.92074997867E+02 0.  0.
        254    2    1    2    0    0 -0.12192951355E+03 -0.25421512076E+03 -0.11727504945E+04  0.15024905922E+04  0.89590296547E+03 0.  0.
        -24    2    4    4    0    0  0.28145850863E+03  0.13432355450E+03 -0.67964287798E+03  0.75210085145E+03  0.80495588652E+02 0.  0.
         24    2    4    4    0    0 -0.40338802218E+03 -0.38853867525E+03 -0.49310761651E+03  0.75038974079E+03  0.79028115293E+02 0.  0.
         13    1    3    3    0    0  0.25095194861E+02  0.11259130713E+03 -0.71462062424E+03  0.72387098840E+03  0.00000000000E+00 0. -1.
        -13    1    3    3    0    0  0.96834318687E+02  0.14162381362E+03 -0.61920213430E+03  0.64253052300E+03  0.00000000000E+00 0.  1.
          4    1    6    6  502    0 -0.83383784486E+02 -0.12057779594E+03 -0.15395100696E+03  0.21258591894E+03  0.00000000000E+00 0. -1.
          1    1    5    5  503    0  0.46997469787E+02  0.18723190449E+02 -0.19496025838E+03  0.20141703596E+03  0.00000000000E+00 0. -1.
         -2    1    5    5    0  503  0.23446103885E+03  0.11560036405E+03 -0.48468261961E+03  0.55068381550E+03  0.00000000000E+00 0.  1.
         -3    1    6    6    0  502 -0.32000423769E+03 -0.26796087931E+03 -0.33915660956E+03  0.53780382184E+03  0.00000000000E+00 0.  1.
<mgrwt>
<rscale>  0 0.13955760E+04</rscale>
<asrwt>0</asrwt>
<pdfrwt beam="1">  1        2 0.41349734E+00 0.13955760E+04</pdfrwt>
<pdfrwt beam="2">  1       -2 0.27870680E-01 0.13955760E+04</pdfrwt>
<totfact> 0.31083981E+01</totfact>
</mgrwt>
</event>
<event>
12    1  0.1663913E-007  0.1589751E+04  0.7818608E-02  0.8826869E-01
         -4   -1    0    0    0  501 -0.00000000000E+00  0.00000000000E+00  0.19440396139E+04  0.19440396139E+04  0.00000000000E+00 0.  1.
          4   -1    0    0  501    0  0.00000000000E+00 -0.00000000000E+00 -0.32500738957E+03  0.32500738957E+03  0.00000000000E+00 0. -1.
         23    2    1    2    0    0  0.50699429536E+03 -0.10801809644E+03  0.24406102651E+03  0.58023886203E+03  0.91652755904E+02 0.  0.
        254    2    1    2    0    0 -0.50699429536E+03  0.10801809644E+03  0.13749711979E+04  0.16888081415E+04  0.83235570466E+03 0.  0.
        -24    2    4    4    0    0 -0.33867551276E+03  0.34339698898E+03  0.30222569177E+03  0.57494567630E+03  0.81237718762E+02 0.  0.
         24    2    4    4    0    0 -0.16831878260E+03 -0.23537889254E+03  0.10727455061E+04  0.11138624652E+04  0.78563572064E+02 0.  0.
         11    1    3    3    0    0  0.39202001587E+03 -0.11459537516E+03  0.16471991137E+03  0.44039123748E+03  0.00000000000E+00 0. -1.
        -11    1    3    3    0    0  0.11497427949E+03  0.65772787251E+01  0.79341115142E+02  0.13984762455E+03  0.00000000000E+00 0.  1.
          4    1    6    6  502    0 -0.15544101707E+03 -0.17628596844E+03  0.92082621228E+03  0.95034707643E+03  0.00000000000E+00 0. -1.
          1    1    5    5  503    0 -0.14131867945E+03  0.19092432952E+03  0.12040191096E+03  0.26630750820E+03  0.00000000000E+00 0. -1.
         -2    1    5    5    0  503 -0.19735683332E+03  0.15247265946E+03  0.18182378081E+03  0.30863816810E+03  0.00000000000E+00 0.  1.
         -3    1    6    6    0  502 -0.12877765526E+02 -0.59092924104E+02  0.15191929380E+03  0.16351538874E+03  0.00000000000E+00 0.  1.
<mgrwt>
<rscale>  0 0.15897512E+04</rscale>
<asrwt>0</asrwt>
<pdfrwt beam="1">  1        4 0.50001138E-01 0.15897512E+04</pdfrwt>
<pdfrwt beam="2">  1       -4 0.29908301E+00 0.15897512E+04</pdfrwt>
<totfact> 0.23306117E-01</totfact>
</mgrwt>
</event>
<event>
12    1  0.1663913E-007  0.2008617E+04  0.7818608E-02  0.8602602E-01
         -2   -1    0    0    0  501 -0.00000000000E+00  0.00000000000E+00  0.33545882932E+03  0.33545882932E+03  0.00000000000E+00 0.  1.
          2   -1    0    0  501    0  0.00000000000E+00 -0.00000000000E+00 -0.30067345516E+04  0.30067345516E+04  0.00000000000E+00 0. -1.
         23    2    1    2    0    0  0.22681204158E+03  0.82457471634E+02  0.19806543294E+03  0.32535863760E+03  0.91571777879E+02 0.  0.
        254    2    1    2    0    0 -0.22681204158E+03 -0.82457471634E+02 -0.28693411552E+04  0.30168347433E+04  0.89996125844E+03 0.  0.
        -24    2    4    4    0    0 -0.77295889165E+02  0.31420107921E+03 -0.45464187015E+03  0.56389541010E+03  0.81128483133E+02 0.  0.
         24    2    4    4    0    0 -0.14951615242E+03 -0.39665855085E+03 -0.24146992851E+04  0.24529393332E+04  0.80284801794E+02 0.  0.
         11    1    3    3    0    0  0.14467021629E+03  0.87784222089E+02  0.97132124087E+02  0.19511583908E+03  0.00000000000E+00 0. -1.
        -11    1    3    3    0    0  0.82141825293E+02 -0.53267504545E+01  0.10093330885E+03  0.13024279853E+03  0.00000000000E+00 0.  1.
          2    1    6    6  502    0 -0.92320846038E+02 -0.17286045608E+03 -0.12860230125E+04  0.13008685808E+04  0.00000000000E+00 0. -1.
          1    1    5    5  503    0 -0.26229978903E+02  0.20114434997E+02 -0.66420733089E+02  0.74191078120E+02  0.00000000000E+00 0. -1.
         -2    1    5    5    0  503 -0.51065910262E+02  0.29408664422E+03 -0.38822113706E+03  0.48970433198E+03  0.00000000000E+00 0.  1.
         -1    1    6    6    0  502 -0.57195306379E+02 -0.22379809477E+03 -0.11286762726E+04  0.11520707524E+04  0.00000000000E+00 0.  1.
<mgrwt>
<rscale>  0 0.20086171E+04</rscale>
<asrwt>0</asrwt>
<pdfrwt beam="1">  1        2 0.46257456E+00 0.20086171E+04</pdfrwt>
<pdfrwt beam="2">  1       -2 0.51609050E-01 0.20086171E+04</pdfrwt>
<totfact> 0.56907608E+00</totfact>
</mgrwt>
</event>
<event>
12    1  0.1663913E-007  0.1697386E+04  0.7818608E-02  0.8762857E-01
          2   -1    0    0  501    0  0.00000000000E+00  0.00000000000E+00  0.65228131904E+03  0.65228131904E+03  0.00000000000E+00 0. -1.
         -2   -1    0    0    0  501 -0.00000000000E+00 -0.00000000000E+00 -0.11042472547E+04  0.11042472547E+04  0.00000000000E+00 0.  1.
         23    2    1    2    0    0  0.24914286739E+03 -0.48476435098E+02 -0.72790073793E+03  0.77603911235E+03  0.89303339769E+02 0.  0.
        254    2    1    2    0    0 -0.24914286739E+03  0.48476435098E+02  0.27593480226E+03  0.98048946139E+03  0.90597871701E+03 0.  0.
        -24    2    4    4    0    0 -0.12858263065E+03 -0.40818072525E+03  0.24677196316E+03  0.50074811609E+03  0.81897964532E+02 0.  0.
         24    2    4    4    0    0 -0.12056023673E+03  0.45665716034E+03  0.29162839097E+02  0.47974134531E+03  0.78935128045E+02 0.  0.
         13    1    3    3    0    0  0.15694702281E+03 -0.44742484482E+02 -0.33756834921E+03  0.37494886088E+03  0.00000000000E+00 0.  1.
        -13    1    3    3    0    0  0.92195844582E+02 -0.37339506165E+01 -0.39033238872E+03  0.40109025147E+03  0.00000000000E+00 0. -1.
          4    1    6    6  502    0 -0.12852632154E+03  0.42427894487E+03  0.38852630372E+02  0.44501816286E+03  0.00000000000E+00 0. -1.
          1    1    5    5  503    0 -0.65402618600E+02 -0.28303440042E+03  0.12982423474E+03  0.31818281894E+03  0.00000000000E+00 0. -1.
         -2    1    5    5    0  503 -0.63180012054E+02 -0.12514632482E+03  0.11694772842E+03  0.18256529715E+03  0.00000000000E+00 0.  1.
         -3    1    6    6    0  502  0.79660848054E+01  0.32378215475E+02 -0.96897912749E+01  0.34723182450E+02  0.00000000000E+00 0.  1.
<mgrwt>
<rscale>  0 0.16973861E+04</rscale>
<asrwt>0</asrwt>
<pdfrwt beam="1">  1        2 0.10035097E+00 0.16973861E+04</pdfrwt>
<pdfrwt beam="2">  1       -2 0.16988419E+00 0.16973861E+04</pdfrwt>
<totfact> 0.90910881E+00</totfact>
</mgrwt>
</event>
<event>
12    1  0.1663913E-007  0.1273494E+04  0.7818608E-02  0.9050852E-01
          1   -1    0    0  501    0  0.00000000000E+00  0.00000000000E+00  0.37596401743E+04  0.37596401743E+04  0.00000000000E+00 0. -1.
         -1   -1    0    0    0  501 -0.00000000000E+00 -0.00000000000E+00 -0.10784197518E+03  0.10784197518E+03  0.00000000000E+00 0.  1.
         23    2    1    2    0    0  0.11041007358E+03 -0.17565350466E+03  0.22896509861E+03  0.32226273789E+03  0.91562644153E+02 0.  0.
        254    2    1    2    0    0 -0.11041007358E+03  0.17565350466E+03  0.34228331005E+04  0.35452194116E+04  0.89986093608E+03 0.  0.
        -24    2    4    4    0    0  0.18100683340E+03  0.12398086068E+03  0.30660087132E+04  0.30748914395E+04  0.80082504917E+02 0.  0.
         24    2    4    4    0    0 -0.29141690698E+03  0.51672643974E+02  0.35682438726E+03  0.47032797206E+03  0.79315081478E+02 0.  0.
         13    1    3    3    0    0  0.22352560258E+02 -0.11314966067E+03  0.90127635090E+02  0.14637442832E+03  0.00000000000E+00 0. -1.
        -13    1    3    3    0    0  0.88057513320E+02 -0.62503843988E+02  0.13883746352E+03  0.17588830957E+03  0.00000000000E+00 0.  1.
          2    1    6    6  502    0 -0.25554427437E+02  0.14978212600E+02  0.77479341885E+02  0.82948321461E+02  0.00000000000E+00 0. -1.
          3    1    5    5  503    0  0.63683648817E+01  0.95017690174E+01  0.37828687299E+02  0.39520238720E+02  0.00000000000E+00 0. -1.
         -4    1    5    5    0  503  0.17463846852E+03  0.11447909167E+03  0.30281800259E+04  0.30353712008E+04  0.00000000000E+00 0.  1.
         -1    1    6    6    0  502 -0.26586247954E+03  0.36694431374E+02  0.27934504538E+03  0.38737965060E+03  0.00000000000E+00 0.  1.
<mgrwt>
<rscale>  0 0.12734944E+04</rscale>
<asrwt>0</asrwt>
<pdfrwt beam="1">  1        1 0.57840608E+00 0.12734944E+04</pdfrwt>
<pdfrwt beam="2">  1       -1 0.16591076E-01 0.12734944E+04</pdfrwt>
<totfact> 0.43337580E+00</totfact>
</mgrwt>
</event>
<event>
12    1  0.1975788E-007  0.2004487E+04  0.7818608E-02  0.8604526E-01
         -1   -1    0    0    0  501 -0.00000000000E+00  0.00000000000E+00  0.10224033171E+04  0.10224033171E+04  0.00000000000E+00 0.  1.
          1   -1    0    0  501    0  0.00000000000E+00 -0.00000000000E+00 -0.98248101801E+03  0.98248101801E+03  0.00000000000E+00 0. -1.
         23    2    1    2    0    0  0.13866796354E+03 -0.63269819568E+02  0.75560139840E+03  0.77614737111E+03  0.90771109045E+02 0.  0.
        254    2    1    2    0    0 -0.13866796354E+03  0.63269819568E+02 -0.71567909932E+03  0.12287369640E+04  0.98709983248E+03 0.  0.
        -24    2    4    4    0    0  0.23056357172E+03  0.21469518216E+03 -0.75375470047E+03  0.82085296601E+03  0.79999134235E+02 0.  0.
         24    2    4    4    0    0 -0.36923153526E+03 -0.15142536259E+03  0.38075601148E+02  0.40788399798E+03  0.75219926468E+02 0.  0.
         13    1    3    3    0    0  0.26357829765E+02 -0.19387318309E+02  0.46446686254E+02  0.56814592889E+02  0.00000000000E+00 0. -1.
        -13    1    3    3    0    0  0.11231013378E+03 -0.43882501258E+02  0.70915471215E+03  0.71933277822E+03  0.00000000000E+00 0.  1.
          2    1    6    6  502    0 -0.56727136856E+02 -0.15866255025E+02 -0.20248809285E+02  0.62287401470E+02  0.00000000000E+00 0. -1.
          1    1    5    5  503    0 -0.22710046396E+01  0.93982101457E+01 -0.63989438773E+01  0.11594408081E+02  0.00000000000E+00 0. -1.
         -2    1    5    5    0  503  0.23283457636E+03  0.20529697201E+03 -0.74735575659E+03  0.80925855793E+03  0.00000000000E+00 0.  1.
         -1    1    6    6    0  502 -0.31250439840E+03 -0.13555910756E+03  0.58324410433E+02  0.34559659651E+03  0.00000000000E+00 0.  1.
<mgrwt>
<rscale>  0 0.20044868E+04</rscale>
<asrwt>0</asrwt>
<pdfrwt beam="1">  1        1 0.15115093E+00 0.20044868E+04</pdfrwt>
<pdfrwt beam="2">  1       -1 0.15729282E+00 0.20044868E+04</pdfrwt>
<totfact> 0.44385065E+00</totfact>
</mgrwt>
</event>
<event>
12    1  0.1663913E-007  0.2139265E+04  0.7818608E-02  0.8544141E-01
          1   -1    0    0  501    0  0.00000000000E+00  0.00000000000E+00  0.23550920416E+04  0.23550920416E+04  0.00000000000E+00 0. -1.
         -1   -1    0    0    0  501 -0.00000000000E+00 -0.00000000000E+00 -0.48580412111E+03  0.48580412111E+03  0.00000000000E+00 0.  1.
         23    2    1    2    0    0 -0.47003117926E+03  0.70109245605E+03  0.11175647100E+04  0.14036203357E+04  0.93483818963E+02 0.  0.
        254    2    1    2    0    0  0.47003117926E+03 -0.70109245605E+03  0.75172321049E+03  0.14372758270E+04  0.88781421271E+03 0.  0.
        -24    2    4    4    0    0 -0.12678628190E+01  0.98554002358E+02  0.43506629064E+03  0.45319715456E+03  0.79940507835E+02 0.  0.
         24    2    4    4    0    0  0.47129904208E+03 -0.79964645840E+03  0.31665691985E+03  0.98407867244E+03  0.81129422311E+02 0.  0.
         13    1    3    3    0    0 -0.30602932253E+03  0.49688608309E+03  0.70845299737E+03  0.91785367859E+03  0.00000000000E+00 0.  1.
        -13    1    3    3    0    0 -0.16400185674E+03  0.20420637295E+03  0.40911171267E+03  0.48576665716E+03  0.00000000000E+00 0. -1.
          4    1    6    6  502    0  0.26637913576E+03 -0.41639921871E+03  0.20671186700E+03  0.53579468947E+03  0.00000000000E+00 0. -1.
          3    1    5    5  503    0 -0.23902603510E+02  0.61042877111E+02  0.36289747722E+03  0.36877112994E+03  0.00000000000E+00 0. -1.
         -4    1    5    5    0  503  0.22634740691E+02  0.37511125247E+02  0.72168813414E+02  0.84426024619E+02  0.00000000000E+00 0.  1.
         -1    1    6    6    0  502  0.20491990633E+03 -0.38324723970E+03  0.10994505285E+03  0.44828398297E+03  0.00000000000E+00 0.  1.
<mgrwt>
<rscale>  0 0.21392648E+04</rscale>
<asrwt>0</asrwt>
<pdfrwt beam="1">  1        1 0.36232185E+00 0.21392648E+04</pdfrwt>
<pdfrwt beam="2">  1       -1 0.74739097E-01 0.21392648E+04</pdfrwt>
<totfact> 0.28160091E+00</totfact>
</mgrwt>
</event>
<event>
12    1  0.1663913E-007  0.2209093E+04  0.7818608E-02  0.8514653E-01
         -1   -1    0    0    0  501 -0.00000000000E+00  0.00000000000E+00  0.11034856686E+04  0.11034856686E+04  0.00000000000E+00 0.  1.
          1   -1    0    0  501    0  0.00000000000E+00 -0.00000000000E+00 -0.11056084363E+04  0.11056084363E+04  0.00000000000E+00 0. -1.
         23    2    1    2    0    0  0.91137187251E+03 -0.37583057682E+02 -0.92944700062E+02  0.92153339819E+03  0.92595412855E+02 0.  0.
        254    2    1    2    0    0 -0.91137187251E+03  0.37583057682E+02  0.90821932355E+02  0.12875607066E+04  0.90418624942E+03 0.  0.
        -24    2    4    4    0    0 -0.85560440783E+03  0.15605404648E+03  0.38577112216E+03  0.95483805399E+03  0.80526905685E+02 0.  0.
         24    2    4    4    0    0 -0.55767464678E+02 -0.11847098880E+03 -0.29494918980E+03  0.33272265264E+03  0.81018230732E+02 0.  0.
         11    1    3    3    0    0  0.81483843014E+03 -0.54859485244E+02 -0.63532698462E+02  0.81915055644E+03  0.00000000000E+00 0. -1.
        -11    1    3    3    0    0  0.96533442374E+02  0.17276427562E+02 -0.29412001599E+02  0.10238284175E+03  0.00000000000E+00 0.  1.
          2    1    6    6  502    0 -0.38557988223E+02 -0.52877044315E+01 -0.62852641916E+02  0.73926536980E+02  0.00000000000E+00 0. -1.
          1    1    5    5  503    0 -0.51402446182E+03  0.12006957381E+03  0.20110799682E+03  0.56487368171E+03  0.00000000000E+00 0. -1.
         -2    1    5    5    0  503 -0.34157994602E+03  0.35984472674E+02  0.18466312534E+03  0.38996437229E+03  0.00000000000E+00 0.  1.
         -1    1    6    6    0  502 -0.17209476455E+02 -0.11318328437E+03 -0.23209654788E+03  0.25879611566E+03  0.00000000000E+00 0.  1.
<mgrwt>
<rscale>  0 0.22090931E+04</rscale>
<asrwt>0</asrwt>
<pdfrwt beam="1">  1        1 0.17009361E+00 0.22090931E+04</pdfrwt>
<pdfrwt beam="2">  1       -1 0.16976703E+00 0.22090931E+04</pdfrwt>
<totfact> 0.28258871E+00</totfact>
</mgrwt>
</event>
<event>
12    1  0.1663913E-007  0.1166358E+04  0.7818608E-02  0.9142824E-01
         -2   -1    0    0    0  501 -0.00000000000E+00  0.00000000000E+00  0.27259193423E+03  0.27259193423E+03  0.00000000000E+00 0.  1.
          2   -1    0    0  501    0  0.00000000000E+00 -0.00000000000E+00 -0.12476449046E+04  0.12476449046E+04  0.00000000000E+00 0. -1.
         23    2    1    2    0    0 -0.12969449905E+03  0.11531934847E+03 -0.39436700168E+03  0.44025969832E+03  0.90465765517E+02 0.  0.
        254    2    1    2    0    0  0.12969449905E+03 -0.11531934847E+03 -0.58068596872E+03  0.10799771406E+04  0.89388769688E+03 0.  0.
        -24    2    4    4    0    0  0.26296366439E+03 -0.25864410636E+01 -0.76558782696E+03  0.81340753514E+03  0.79690143444E+02 0.  0.
         24    2    4    4    0    0 -0.13326916535E+03 -0.11273290740E+03  0.18490185824E+03  0.26656960541E+03  0.80007990258E+02 0.  0.
         13    1    3    3    0    0 -0.14322160598E+03  0.10579630214E+03 -0.34577429893E+03  0.38892820901E+03  0.00000000000E+00 0. -1.
        -13    1    3    3    0    0  0.13527106930E+02  0.95230463288E+01 -0.48592702756E+02  0.51331489307E+02  0.00000000000E+00 0.  1.
          4    1    6    6  502    0 -0.13783172367E+03 -0.11239876407E+03  0.18963595584E+03  0.25998627264E+03  0.00000000000E+00 0. -1.
          1    1    5    5  503    0  0.20852271059E+03 -0.92336192270E+00 -0.49058817603E+03  0.53306597330E+03  0.00000000000E+00 0. -1.
         -2    1    5    5    0  503  0.54440953806E+02 -0.16630791409E+01 -0.27499965093E+03  0.28034156184E+03  0.00000000000E+00 0.  1.
         -1    1    6    6    0  502  0.45625583291E+01 -0.33414333196E+00 -0.47340975984E+01  0.65833327687E+01  0.00000000000E+00 0.  1.
<mgrwt>
<rscale>  0 0.11663583E+04</rscale>
<asrwt>0</asrwt>
<pdfrwt beam="1">  1        2 0.19194537E+00 0.11663583E+04</pdfrwt>
<pdfrwt beam="2">  1       -2 0.41937220E-01 0.11663583E+04</pdfrwt>
<totfact> 0.94490705E+01</totfact>
</mgrwt>
</event>
<event>
12    1  0.1663913E-007  0.1454179E+04  0.7818608E-02  0.8915508E-01
          1   -1    0    0  501    0  0.00000000000E+00  0.00000000000E+00  0.36256122113E+04  0.36256122113E+04  0.00000000000E+00 0. -1.
         -1   -1    0    0    0  501 -0.00000000000E+00 -0.00000000000E+00 -0.14581242950E+03  0.14581242950E+03  0.00000000000E+00 0.  1.
         23    2    1    2    0    0 -0.14420067430E+03 -0.71127643397E+02  0.21415058847E+04  0.21497833842E+04  0.98326845795E+02 0.  0.
        254    2    1    2    0    0  0.14420067430E+03  0.71127643397E+02  0.13382938972E+04  0.16216412567E+04  0.90157464141E+03 0.  0.
        -24    2    4    4    0    0 -0.59235135957E+02 -0.24311670003E+03  0.34427611424E+02  0.26268617070E+03  0.72140367888E+02 0.  0.
         24    2    4    4    0    0  0.20343581025E+03  0.31424434343E+03  0.13038662857E+04  0.13589550860E+04  0.80969119683E+02 0.  0.
         13    1    3    3    0    0 -0.45330120453E+02 -0.20826800143E+02  0.24452011829E+03  0.24955693473E+03  0.00000000000E+00 0.  1.
        -13    1    3    3    0    0 -0.98870553845E+02 -0.50300843254E+02  0.18969857664E+04  0.19002264494E+04  0.00000000000E+00 0. -1.
          2    1    6    6  502    0  0.10851200652E+03  0.16686063911E+03  0.83478149136E+03  0.85818265349E+03  0.00000000000E+00 0. -1.
          3    1    5    5  503    0 -0.47240006142E+02 -0.11288573530E+03  0.47467752161E+02  0.13125545669E+03  0.00000000000E+00 0. -1.
         -4    1    5    5    0  503 -0.11995129816E+02 -0.13023096473E+03 -0.13040140738E+02  0.13143071401E+03  0.00000000000E+00 0.  1.
         -1    1    6    6    0  502  0.94923803735E+02  0.14738370433E+03  0.46908479437E+03  0.50077243248E+03  0.00000000000E+00 0.  1.
<mgrwt>
<rscale>  0 0.14541793E+04</rscale>
<asrwt>0</asrwt>
<pdfrwt beam="1">  1        1 0.55778643E+00 0.14541793E+04</pdfrwt>
<pdfrwt beam="2">  1       -1 0.22432684E-01 0.14541793E+04</pdfrwt>
<totfact> 0.32942411E+00</totfact>
</mgrwt>
</event>
<event>
12    1  0.1663913E-007  0.1516077E+04  0.7818608E-02  0.8873832E-01
          2   -1    0    0  501    0  0.00000000000E+00  0.00000000000E+00  0.40391102267E+03  0.40391102267E+03  0.00000000000E+00 0. -1.
         -2   -1    0    0    0  501 -0.00000000000E+00 -0.00000000000E+00 -0.14226461000E+04  0.14226461000E+04  0.00000000000E+00 0.  1.
         23    2    1    2    0    0  0.47397944595E+03  0.51254604657E+02 -0.42237814590E+03  0.64313192818E+03  0.89060817612E+02 0.  0.
        254    2    1    2    0    0 -0.47397944595E+03 -0.51254604657E+02 -0.59635693147E+03  0.11834251945E+04  0.90419580382E+03 0.  0.
        -24    2    4    4    0    0 -0.53018792075E+03  0.68854798931E+02 -0.77588950520E+03  0.94577242054E+03  0.81490689829E+02 0.  0.
         24    2    4    4    0    0  0.56208474805E+02 -0.12010940359E+03  0.17953257373E+03  0.23765277399E+03  0.81616386120E+02 0.  0.
         11    1    3    3    0    0  0.35350471311E+03  0.28049805409E+02 -0.36065770563E+03  0.50579279790E+03  0.00000000000E+00 0.  1.
        -11    1    3    3    0    0  0.12047473283E+03  0.23204799247E+02 -0.61720440269E+02  0.13733913028E+03  0.00000000000E+00 0. -1.
          2    1    6    6  502    0 -0.53568549892E+01 -0.35914975978E+02  0.10029397597E+03  0.10666519118E+03  0.00000000000E+00 0. -1.
          3    1    5    5  503    0 -0.15575524757E+03  0.14227086945E+02 -0.29460545147E+03  0.33354831611E+03  0.00000000000E+00 0. -1.
         -4    1    5    5    0  503 -0.37443267318E+03  0.54627711985E+02 -0.48128405373E+03  0.61222410442E+03  0.00000000000E+00 0.  1.
         -3    1    6    6    0  502  0.61565329794E+02 -0.84194427609E+02  0.79238597763E+02  0.13098758280E+03  0.00000000000E+00 0.  1.
<mgrwt>
<rscale>  0 0.15160771E+04</rscale>
<asrwt>0</asrwt>
<pdfrwt beam="1">  1        2 0.62140156E-01 0.15160771E+04</pdfrwt>
<pdfrwt beam="2">  1       -2 0.21886863E+00 0.15160771E+04</pdfrwt>
<totfact> 0.76215939E+00</totfact>
</mgrwt>
</event>
<event>
12    1  0.1663913E-007  0.1903076E+04  0.7818608E-02  0.8653327E-01
         -1   -1    0    0    0  501 -0.00000000000E+00  0.00000000000E+00  0.49587523674E+03  0.49587523674E+03  0.00000000000E+00 0.  1.
          1   -1    0    0  501    0  0.00000000000E+00 -0.00000000000E+00 -0.18259119340E+04  0.18259119340E+04  0.00000000000E+00 0. -1.
         23    2    1    2    0    0  0.40279634826E+03  0.30259919452E+03  0.15322519131E+03  0.53439784560E+03  0.91060021069E+02 0.  0.
        254    2    1    2    0    0 -0.40279634826E+03 -0.30259919452E+03 -0.14832618886E+04  0.17873893251E+04  0.86074595486E+03 0.  0.
        -24    2    4    4    0    0 -0.42077872669E+03 -0.94926218746E+02 -0.19804717295E+03  0.48277497545E+03  0.88222844919E+02 0.  0.
         24    2    4    4    0    0  0.17982378427E+02 -0.20767297577E+03 -0.12852147156E+04  0.13046143497E+04  0.82403309061E+02 0.  0.
         11    1    3    3    0    0  0.28558897173E+03  0.24353697589E+03  0.14672874305E+03  0.40298963192E+03  0.00000000000E+00 0.  1.
        -11    1    3    3    0    0  0.11720737653E+03  0.59062218627E+02  0.64964482581E+01  0.13140821368E+03  0.00000000000E+00 0. -1.
          2    1    6    6  502    0 -0.28355755000E+02 -0.59610203587E+02 -0.29302410015E+03  0.30036735589E+03  0.00000000000E+00 0. -1.
          3    1    5    5  503    0 -0.24117727128E+03 -0.59350148931E+02 -0.16095271485E+03  0.29596400588E+03  0.00000000000E+00 0. -1.
         -4    1    5    5    0  503 -0.17960145541E+03 -0.35576069816E+02 -0.37094458102E+02  0.18681096957E+03  0.00000000000E+00 0.  1.
         -1    1    6    6    0  502  0.46338133428E+02 -0.14806277218E+03 -0.99219061546E+03  0.10042469938E+04  0.00000000000E+00 0.  1.
<mgrwt>
<rscale>  0 0.19030759E+04</rscale>
<asrwt>0</asrwt>
<pdfrwt beam="1">  1        1 0.28090953E+00 0.19030759E+04</pdfrwt>
<pdfrwt beam="2">  1       -1 0.76288497E-01 0.19030759E+04</pdfrwt>
<totfact> 0.63119919E+00</totfact>
</mgrwt>
</event>
<event>
12    1  0.1663913E-007  0.2597353E+04  0.7818608E-02  0.8369101E-01
          2   -1    0    0  501    0  0.00000000000E+00  0.00000000000E+00  0.33520936769E+04  0.33520936769E+04  0.00000000000E+00 0. -1.
         -2   -1    0    0    0  501 -0.00000000000E+00 -0.00000000000E+00 -0.50313655364E+03  0.50313655364E+03  0.00000000000E+00 0.  1.
         23    2    1    2    0    0  0.94482564154E+03  0.49247380185E+03  0.18728982948E+04  0.21565638476E+04  0.88281752003E+02 0.  0.
        254    2    1    2    0    0 -0.94482564154E+03 -0.49247380185E+03  0.97605882848E+03  0.16986663829E+04  0.89305694414E+03 0.  0.
        -24    2    4    4    0    0 -0.10032895305E+02 -0.24649797930E+03  0.60869601510E+03  0.66162042009E+03  0.79804941586E+02 0.  0.
         24    2    4    4    0    0 -0.93479274624E+03 -0.24597582255E+03  0.36736281339E+03  0.10370459629E+04  0.78532214511E+02 0.  0.
         13    1    3    3    0    0  0.94459688461E+03  0.48919950479E+03  0.18720524148E+04  0.21531743250E+04  0.00000000000E+00 0. -1.
        -13    1    3    3    0    0  0.22875693403E+00  0.32742970586E+01  0.84588002784E+00  0.33895226779E+01  0.00000000000E+00 0.  1.
          4    1    6    6  502    0 -0.18981593001E+01 -0.63078123690E+01  0.30797116114E+01  0.72715974325E+01  0.00000000000E+00 0. -1.
          1    1    5    5  503    0  0.34206338885E+02 -0.81356613251E+02  0.20003328137E+03  0.21863733852E+03  0.00000000000E+00 0. -1.
         -2    1    5    5    0  503 -0.44239234190E+02 -0.16514136604E+03  0.40866273372E+03  0.44298308157E+03  0.00000000000E+00 0.  1.
         -3    1    6    6    0  502 -0.93289458694E+03 -0.23966801018E+03  0.36428310177E+03  0.10297743654E+04  0.00000000000E+00 0.  1.
<mgrwt>
<rscale>  0 0.25973532E+04</rscale>
<asrwt>0</asrwt>
<pdfrwt beam="1">  1        2 0.51570671E+00 0.25973532E+04</pdfrwt>
<pdfrwt beam="2">  1       -2 0.77405626E-01 0.25973532E+04</pdfrwt>
<totfact> 0.13537883E+00</totfact>
</mgrwt>
</event>
<event>
12    1  0.1663913E-007  0.1498171E+04  0.7818608E-02  0.8885670E-01
         -2   -1    0    0    0  501 -0.00000000000E+00  0.00000000000E+00  0.64882448511E+03  0.64882448511E+03  0.00000000000E+00 0. -1.
          2   -1    0    0  501    0  0.00000000000E+00 -0.00000000000E+00 -0.86483935839E+03  0.86483935839E+03  0.00000000000E+00 0.  1.
         23    2    1    2    0    0 -0.17470437843E+03 -0.21307037609E+03  0.31895277180E+03  0.43096684758E+03  0.89894093619E+02 0.  0.
        254    2    1    2    0    0  0.17470437843E+03  0.21307037609E+03 -0.53496764508E+03  0.10826969959E+04  0.90006766340E+03 0.  0.
        -24    2    4    4    0    0  0.39501660898E+03  0.43596929936E+03 -0.22485143810E+03  0.63474557080E+03  0.78971001587E+02 0.  0.
         24    2    4    4    0    0 -0.22031223054E+03 -0.22289892327E+03 -0.31011620698E+03  0.44795142512E+03  0.79164439692E+02 0.  0.
         11    1    3    3    0    0 -0.13276726234E+03 -0.20559178853E+03  0.28996780245E+03  0.37944229590E+03  0.00000000000E+00 0. -1.
        -11    1    3    3    0    0 -0.41937116092E+02 -0.74785875583E+01  0.28984969351E+02  0.51524551684E+02  0.00000000000E+00 0.  1.
          4    1    6    6  502    0 -0.19346671653E+03 -0.17612341982E+03 -0.28952518487E+03  0.39022258019E+03  0.00000000000E+00 0. -1.
          1    1    5    5  503    0  0.33889863687E+03  0.33049674397E+03 -0.16663740046E+03  0.50184500304E+03  0.00000000000E+00 0. -1.
         -2    1    5    5    0  503  0.56117972107E+02  0.10547255539E+03 -0.58214037634E+02  0.13290056776E+03  0.00000000000E+00 0.  1.
         -3    1    6    6    0  502 -0.26845514015E+02 -0.46775503450E+02 -0.20591022112E+02  0.57728844933E+02  0.00000000000E+00 0.  1.
<mgrwt>
<rscale>  0 0.14981708E+04</rscale>
<asrwt>0</asrwt>
<pdfrwt beam="1">  1        2 0.13305221E+00 0.14981708E+04</pdfrwt>
<pdfrwt beam="2">  1       -2 0.99819152E-01 0.14981708E+04</pdfrwt>
<totfact> 0.24850476E+01</totfact>
</mgrwt>
</event>
<event>
12    1  0.1663913E-007  0.1257917E+04  0.7818608E-02  0.9063620E-01
         -2   -1    0    0    0  501 -0.00000000000E+00  0.00000000000E+00  0.40114404129E+03  0.40114404129E+03  0.00000000000E+00 0.  1.
          2   -1    0    0  501    0  0.00000000000E+00 -0.00000000000E+00 -0.98615164593E+03  0.98615164593E+03  0.00000000000E+00 0. -1.
         23    2    1    2    0    0 -0.16484750828E+03 -0.41441438876E+02 -0.58657546498E+03  0.61756426917E+03  0.91775577358E+02 0.  0.
        254    2    1    2    0    0  0.16484750828E+03  0.41441438876E+02  0.15678603356E+01  0.76973141806E+03  0.75072758302E+03 0.  0.
        -24    2    4    4    0    0  0.45263696563E+03  0.82638509474E+02  0.29297273775E+02  0.46663942482E+03  0.72004698749E+02 0.  0.
         24    2    4    4    0    0 -0.28778945735E+03 -0.41197070598E+02 -0.27729413439E+02  0.30309199324E+03  0.81091711110E+02 0.  0.
         11    1    3    3    0    0 -0.17376273228E+03 -0.28665299045E+02 -0.51393369385E+03  0.54327067671E+03  0.00000000000E+00 0. -1.
        -11    1    3    3    0    0  0.89152240011E+01 -0.12776139832E+02 -0.72641771128E+02  0.74293592460E+02  0.00000000000E+00 0.  1.
          2    1    6    6  502    0 -0.28541332488E+01 -0.58204826260E+01 -0.14247077631E+02  0.15652581756E+02  0.00000000000E+00 0. -1.
          1    1    5    5  503    0  0.67041182947E+02  0.75263768414E+01  0.29910124886E+02  0.73795542752E+02  0.00000000000E+00 0. -1.
         -2    1    5    5    0  503  0.38559578268E+03  0.75112132633E+02 -0.61285111109E+00  0.39284388206E+03  0.00000000000E+00 0.  1.
         -1    1    6    6    0  502 -0.28493532410E+03 -0.35376587972E+02 -0.13482335808E+02  0.28743941148E+03  0.00000000000E+00 0.  1.
<mgrwt>
<rscale>  0 0.12579171E+04</rscale>
<asrwt>0</asrwt>
<pdfrwt beam="1">  1        2 0.15171564E+00 0.12579171E+04</pdfrwt>
<pdfrwt beam="2">  1       -2 0.61714469E-01 0.12579171E+04</pdfrwt>
<totfact> 0.61669190E+01</totfact>
</mgrwt>
</event>
<event>
12    1  0.1663913E-007  0.2582855E+04  0.7818608E-02  0.8374048E-01
         -2   -1    0    0    0  501 -0.00000000000E+00  0.00000000000E+00  0.78376162262E+03  0.78376162262E+03  0.00000000000E+00 0. -1.
          2   -1    0    0  501    0  0.00000000000E+00 -0.00000000000E+00 -0.21279239421E+04  0.21279239421E+04  0.00000000000E+00 0.  1.
         23    2    1    2    0    0 -0.69531879875E+03 -0.87984035542E+03 -0.40238983564E+03  0.11948873401E+04  0.90834425169E+02 0.  0.
        254    2    1    2    0    0  0.69531879875E+03  0.87984035542E+03 -0.94177248384E+03  0.17167982246E+04  0.89603205850E+03 0.  0.
        -24    2    4    4    0    0 -0.13505553025E+03  0.96735161508E+01 -0.32867577422E+03  0.36445399754E+03  0.80407578000E+02 0.  0.
         24    2    4    4    0    0  0.83037432899E+03  0.87016683927E+03 -0.61309670962E+03  0.13523442271E+04  0.78965047772E+02 0.  0.
         11    1    3    3    0    0 -0.22416402093E+03 -0.24478240784E+03 -0.83493134787E+02  0.34225580933E+03  0.00000000000E+00 0. -1.
        -11    1    3    3    0    0 -0.47115477782E+03 -0.63505794758E+03 -0.31889670086E+03  0.85263153077E+03  0.00000000000E+00 0.  1.
          2    1    6    6  502    0  0.10266188875E+03  0.10636876957E+03 -0.47189720789E+02  0.15517940678E+03  0.00000000000E+00 0. -1.
          3    1    5    5  503    0 -0.38496741434E+02  0.29600948359E+02 -0.54022673924E+02  0.72640653512E+02  0.00000000000E+00 0. -1.
         -4    1    5    5    0  503 -0.96558788813E+02 -0.19927432208E+02 -0.27465310030E+03  0.29181334403E+03  0.00000000000E+00 0.  1.
         -1    1    6    6    0  502  0.72771244025E+03  0.76379806970E+03 -0.56590698883E+03  0.11971648203E+04  0.00000000000E+00 0.  1.
<mgrwt>
<rscale>  0 0.25828551E+04</rscale>
<asrwt>0</asrwt>
<pdfrwt beam="1">  1        2 0.32737291E+00 0.25828551E+04</pdfrwt>
<pdfrwt beam="2">  1       -2 0.12057871E+00 0.25828551E+04</pdfrwt>
<totfact> 0.26342487E+00</totfact>
</mgrwt>
</event>
<event>
12    1  0.1663913E-007  0.1907299E+04  0.7818608E-02  0.8651232E-01
          2   -1    0    0  501    0  0.00000000000E+00  0.00000000000E+00  0.21537693406E+04  0.21537693406E+04  0.00000000000E+00 0. -1.
         -2   -1    0    0    0  501 -0.00000000000E+00 -0.00000000000E+00 -0.42225859267E+03  0.42225859267E+03  0.00000000000E+00 0.  1.
         23    2    1    2    0    0 -0.64565576461E+03 -0.20543671185E+03  0.93793415318E+03  0.11607844038E+04  0.92867364334E+02 0.  0.
        254    2    1    2    0    0  0.64565576461E+03  0.20543671185E+03  0.79357659474E+03  0.14152435295E+04  0.95607260558E+03 0.  0.
        -24    2    4    4    0    0  0.83499737359E+03  0.28011814086E+03  0.41213111734E+03  0.97558869439E+03  0.78958571413E+02 0.  0.
         24    2    4    4    0    0 -0.18934160898E+03 -0.74681429011E+02  0.38144547740E+03  0.43965483512E+03  0.79800758648E+02 0.  0.
         11    1    3    3    0    0 -0.13949712541E+03 -0.62392838670E+02  0.27419506587E+03  0.31390324698E+03  0.00000000000E+00 0.  1.
        -11    1    3    3    0    0 -0.50615863920E+03 -0.14304387318E+03  0.66373908731E+03  0.84688115679E+03  0.00000000000E+00 0. -1.
          4    1    6    6  502    0  0.58416659859E+00 -0.21339708395E+02  0.37480817063E+02  0.43133931570E+02  0.00000000000E+00 0. -1.
          1    1    5    5  503    0  0.52182476500E+03  0.21417694401E+03  0.25413311529E+03  0.61867316816E+03  0.00000000000E+00 0. -1.
         -2    1    5    5    0  503  0.31317260859E+03  0.65941196852E+02  0.15799800205E+03  0.35691552623E+03  0.00000000000E+00 0.  1.
         -3    1    6    6    0  502 -0.18992577558E+03 -0.53341720616E+02  0.34396466034E+03  0.39652090355E+03  0.00000000000E+00 0.  1.
<mgrwt>
<rscale>  0 0.19072993E+04</rscale>
<asrwt>0</asrwt>
<pdfrwt beam="1">  1        2 0.33134912E+00 0.19072993E+04</pdfrwt>
<pdfrwt beam="2">  1       -2 0.64962862E-01 0.19072993E+04</pdfrwt>
<totfact> 0.11217181E+01</totfact>
</mgrwt>
</event>
<event>
12    1  0.1663913E-007  0.2737034E+04  0.7818608E-02  0.8323088E-01
          1   -1    0    0  501    0  0.00000000000E+00  0.00000000000E+00  0.14284495202E+04  0.14284495202E+04  0.00000000000E+00 0. -1.
         -1   -1    0    0    0  501 -0.00000000000E+00 -0.00000000000E+00 -0.13110987187E+04  0.13110987187E+04  0.00000000000E+00 0.  1.
         23    2    1    2    0    0  0.11030250894E+04  0.48883154223E+03  0.20952835505E+03  0.12291579492E+04  0.10633206537E+03 0.  0.
        254    2    1    2    0    0 -0.11030250894E+04 -0.48883154223E+03 -0.92177553503E+02  0.15103902896E+04  0.90396985636E+03 0.  0.
        -24    2    4    4    0    0 -0.28264528119E+03 -0.28358152349E+03 -0.43354361902E+03  0.59504653976E+03  0.76246176642E+02 0.  0.
         24    2    4    4    0    0 -0.82037980818E+03 -0.20525001874E+03  0.34136606551E+03  0.91534374987E+03  0.78567104362E+02 0.  0.
         11    1    3    3    0    0  0.41637177546E+03  0.21638351573E+03  0.38006764909E+02  0.47077786212E+03  0.00000000000E+00 0. -1.
        -11    1    3    3    0    0  0.68665331390E+03  0.27244802650E+03  0.17152159015E+03  0.75838008711E+03  0.00000000000E+00 0.  1.
          2    1    6    6  502    0 -0.17177728041E+03 -0.23949687339E+02  0.42664585977E+02  0.17860931802E+03  0.00000000000E+00 0. -1.
          3    1    5    5  503    0 -0.85896402738E+02 -0.13430853803E+03 -0.14820792354E+03  0.21767536377E+03  0.00000000000E+00 0. -1.
         -4    1    5    5    0  503 -0.19674887845E+03 -0.14927298545E+03 -0.28533569548E+03  0.37737117599E+03  0.00000000000E+00 0.  1.
         -3    1    6    6    0  502 -0.64860252777E+03 -0.18130033140E+03  0.29870147954E+03  0.73673443185E+03  0.00000000000E+00 0.  1.
<mgrwt>
<rscale>  0 0.27370337E+04</rscale>
<asrwt>0</asrwt>
<pdfrwt beam="1">  1        1 0.21976146E+00 0.27370337E+04</pdfrwt>
<pdfrwt beam="2">  1       -1 0.20170750E+00 0.27370337E+04</pdfrwt>
<totfact> 0.93556265E-01</totfact>
</mgrwt>
</event>
<event>
12    1  0.1663913E-007  0.2400043E+04  0.7818608E-02  0.8439487E-01
         -1   -1    0    0    0  501 -0.00000000000E+00  0.00000000000E+00  0.35770307019E+03  0.35770307019E+03  0.00000000000E+00 0.  1.
          1   -1    0    0  501    0  0.00000000000E+00 -0.00000000000E+00 -0.40258304351E+04  0.40258304351E+04  0.00000000000E+00 0. -1.
         23    2    1    2    0    0 -0.27893752711E+03  0.79120201826E+03 -0.26579999425E+04  0.27887039002E+04  0.89994280621E+02 0.  0.
        254    2    1    2    0    0  0.27893752711E+03 -0.79120201826E+03 -0.10101274223E+04  0.15948296051E+04  0.90516146748E+03 0.  0.
        -24    2    4    4    0    0 -0.18886620090E+03 -0.61518788108E+03 -0.27982261855E+03  0.70624015158E+03  0.79673602878E+02 0.  0.
         24    2    4    4    0    0  0.46780372801E+03 -0.17601413718E+03 -0.73030480380E+03  0.88858945352E+03  0.80154887745E+02 0.  0.
         11    1    3    3    0    0 -0.19059660930E+03  0.53692730481E+03 -0.19386402995E+04  0.20206296566E+04  0.00000000000E+00 0. -1.
        -11    1    3    3    0    0 -0.88340917811E+02  0.25427471344E+03 -0.71935964302E+03  0.76807424359E+03  0.00000000000E+00 0.  1.
          2    1    6    6  502    0  0.11612076606E+02 -0.12771590970E+02 -0.84908863534E+01  0.19236657976E+02  0.00000000000E+00 0. -1.
          3    1    5    5  503    0 -0.32986300908E+02 -0.10210528530E+03 -0.15567050432E+02  0.10842471302E+03  0.00000000000E+00 0. -1.
         -4    1    5    5    0  503 -0.15587989999E+03 -0.51308259577E+03 -0.26425556812E+03  0.59781543856E+03  0.00000000000E+00 0.  1.
         -1    1    6    6    0  502  0.45619165140E+03 -0.16324254621E+03 -0.72181391745E+03  0.86935279554E+03  0.00000000000E+00 0.  1.
<mgrwt>
<rscale>  0 0.24000433E+04</rscale>
<asrwt>0</asrwt>
<pdfrwt beam="1">  1        1 0.61935856E+00 0.24000433E+04</pdfrwt>
<pdfrwt beam="2">  1       -1 0.55031238E-01 0.24000433E+04</pdfrwt>
<totfact> 0.27326200E-01</totfact>
</mgrwt>
</event>
<event>
12    1  0.1663913E-007  0.2141149E+04  0.7818608E-02  0.8543331E-01
          1   -1    0    0  501    0  0.00000000000E+00  0.00000000000E+00  0.71193905335E+03  0.71193905335E+03  0.00000000000E+00 0. -1.
         -1   -1    0    0    0  501 -0.00000000000E+00 -0.00000000000E+00 -0.16098702460E+04  0.16098702460E+04  0.00000000000E+00 0.  1.
         23    2    1    2    0    0 -0.57529426084E+03  0.46854135049E+03  0.14614025245E+03  0.76166547770E+03  0.91010125073E+02 0.  0.
        254    2    1    2    0    0  0.57529426084E+03 -0.46854135049E+03 -0.10440714451E+04  0.15601438216E+04  0.89076881292E+03 0.  0.
        -24    2    4    4    0    0 -0.12695774754E+03  0.15088840079E+03 -0.14430783487E+03  0.25914422325E+03  0.86286720208E+02 0.  0.
         24    2    4    4    0    0  0.70225200839E+03 -0.61942975128E+03 -0.89976361018E+03  0.13009995984E+04  0.78576718380E+02 0.  0.
         13    1    3    3    0    0 -0.44436086774E+03  0.32082605827E+03  0.82377255481E+02  0.55423095607E+03  0.00000000000E+00 0. -1.
        -13    1    3    3    0    0 -0.13093339310E+03  0.14771529221E+03  0.63762996965E+02  0.20743452163E+03  0.00000000000E+00 0.  1.
          4    1    6    6  502    0  0.65349157245E+03 -0.60002836053E+03 -0.84681040685E+03  0.12264473629E+04  0.00000000000E+00 0. -1.
          1    1    5    5  503    0 -0.91231572992E+02  0.61215215894E+02 -0.11314784225E+03  0.15771156195E+03  0.00000000000E+00 0. -1.
         -2    1    5    5    0  503 -0.35726174552E+02  0.89673184899E+02 -0.31159992620E+02  0.10143266130E+03  0.00000000000E+00 0.  1.
         -3    1    6    6    0  502  0.48760435939E+02 -0.19401390751E+02 -0.52953203327E+02  0.74552235504E+02  0.00000000000E+00 0.  1.
<mgrwt>
<rscale>  0 0.21411488E+04</rscale>
<asrwt>0</asrwt>
<pdfrwt beam="1">  1        1 0.10952909E+00 0.21411488E+04</pdfrwt>
<pdfrwt beam="2">  1       -1 0.24767234E+00 0.21411488E+04</pdfrwt>
<totfact> 0.17566769E+00</totfact>
</mgrwt>
</event>
<event>
12    1  0.1663913E-007  0.1322427E+04  0.7818608E-02  0.9011967E-01
         -3   -1    0    0    0  501 -0.00000000000E+00  0.00000000000E+00  0.22821252599E+03  0.22821252599E+03  0.00000000000E+00 0.  1.
          3   -1    0    0  501    0  0.00000000000E+00 -0.00000000000E+00 -0.19157723618E+04  0.19157723618E+04  0.00000000000E+00 0. -1.
         23    2    1    2    0    0  0.31045544574E+02 -0.10708809728E+03  0.97040645870E+02  0.17064633379E+03  0.85273664570E+02 0.  0.
        254    2    1    2    0    0 -0.31045544574E+02  0.10708809728E+03 -0.17846004817E+04  0.19733385540E+04  0.83476612477E+03 0.  0.
        -24    2    4    4    0    0 -0.41659725164E+03 -0.37291790527E+01 -0.10512844225E+04  0.11335492266E+04  0.78534930773E+02 0.  0.
         24    2    4    4    0    0  0.38555170707E+03  0.11081727633E+03 -0.73331605918E+03  0.83978932736E+03  0.81012864121E+02 0.  0.
         11    1    3    3    0    0 -0.11616260186E+02  0.98614728663E+01  0.58080617578E+01  0.16307045385E+02  0.00000000000E+00 0. -1.
        -11    1    3    3    0    0  0.42661804760E+02 -0.11694957014E+03  0.91232584112E+02  0.15433928841E+03  0.00000000000E+00 0.  1.
          2    1    6    6  502    0  0.81569373043E+02  0.11729794421E+02 -0.22131369295E+03  0.23615863605E+03  0.00000000000E+00 0. -1.
          1    1    5    5  503    0 -0.78996131468E+00 -0.74507541541E+01 -0.28465531390E+02  0.29435085419E+02  0.00000000000E+00 0. -1.
         -2    1    5    5    0  503 -0.41580729033E+03  0.37215751014E+01 -0.10228188911E+04  0.11041141412E+04  0.00000000000E+00 0.  1.
         -1    1    6    6    0  502  0.30398233403E+03  0.99087481908E+02 -0.51200236623E+03  0.60363069131E+03  0.00000000000E+00 0.  1.
<mgrwt>
<rscale>  0 0.13224269E+04</rscale>
<asrwt>0</asrwt>
<pdfrwt beam="1">  1        3 0.29473421E+00 0.13224269E+04</pdfrwt>
<pdfrwt beam="2">  1       -3 0.35109619E-01 0.13224269E+04</pdfrwt>
<totfact> 0.85710411E-01</totfact>
</mgrwt>
</event>
<event>
12    1  0.1663913E-007  0.2180761E+04  0.7818608E-02  0.8526479E-01
         -2   -1    0    0    0  501 -0.00000000000E+00  0.00000000000E+00  0.16477749805E+04  0.16477749805E+04  0.00000000000E+00 0.  1.
          2   -1    0    0  501    0  0.00000000000E+00 -0.00000000000E+00 -0.72153666727E+03  0.72153666727E+03  0.00000000000E+00 0. -1.
         23    2    1    2    0    0  0.10470702366E+03 -0.55652396989E+03 -0.37868913098E+03  0.68702978219E+03  0.89005470709E+02 0.  0.
        254    2    1    2    0    0 -0.10470702366E+03  0.55652396989E+03  0.13049274442E+04  0.16822818656E+04  0.89808359897E+03 0.  0.
        -24    2    4    4    0    0 -0.18722341440E+03  0.24666577493E+03 -0.16187732611E+02  0.32045200702E+03  0.80813579874E+02 0.  0.
         24    2    4    4    0    0  0.82516390738E+02  0.30985819496E+03  0.13211151768E+04  0.13618298586E+04  0.80088685311E+02 0.  0.
         11    1    3    3    0    0  0.11128859738E+03 -0.53708286206E+03 -0.34623740168E+03  0.64863201505E+03  0.00000000000E+00 0. -1.
        -11    1    3    3    0    0 -0.65815737130E+01 -0.19441107829E+02 -0.32451729301E+02  0.38397767133E+02  0.00000000000E+00 0.  1.
          2    1    6    6  502    0  0.60651072279E+01  0.40189324512E+01  0.59200994686E+01  0.93800277959E+01  0.00000000000E+00 0. -1.
          1    1    5    5  503    0 -0.41967400788E+01  0.36759016143E+02  0.15592605976E+02  0.40149312027E+02  0.00000000000E+00 0. -1.
         -2    1    5    5    0  503 -0.18302667432E+03  0.20990675879E+03 -0.31780338587E+02  0.28030269499E+03  0.00000000000E+00 0.  1.
         -1    1    6    6    0  502  0.76451283510E+02  0.30583926251E+03  0.13151950774E+04  0.13524498308E+04  0.00000000000E+00 0.  1.
<mgrwt>
<rscale>  0 0.21807614E+04</rscale>
<asrwt>0</asrwt>
<pdfrwt beam="1">  1        2 0.11100564E+00 0.21807614E+04</pdfrwt>
<pdfrwt beam="2">  1       -2 0.25350384E+00 0.21807614E+04</pdfrwt>
<totfact> 0.22065010E+00</totfact>
</mgrwt>
</event>
<event>
12    1  0.1663913E-007  0.2037320E+04  0.7818608E-02  0.8589368E-01
          2   -1    0    0  501    0  0.00000000000E+00  0.00000000000E+00  0.39591651680E+04  0.39591651680E+04  0.00000000000E+00 0. -1.
         -2   -1    0    0    0  501 -0.00000000000E+00 -0.00000000000E+00 -0.26209276073E+03  0.26209276073E+03  0.00000000000E+00 0.  1.
         23    2    1    2    0    0 -0.33847516494E+03  0.71929546765E+03  0.18782675559E+04  0.20416217032E+04  0.91535569615E+02 0.  0.
        254    2    1    2    0    0  0.33847516494E+03 -0.71929546765E+03  0.18188048514E+04  0.21796362255E+04  0.90045076546E+03 0.  0.
        -24    2    4    4    0    0 -0.97245097397E+02 -0.74066406830E+03  0.12364009012E+04  0.14473020404E+04  0.89197178317E+02 0.  0.
         24    2    4    4    0    0  0.43572026234E+03  0.21368600645E+02  0.58240395015E+03  0.73233418507E+03  0.82524138097E+02 0.  0.
         13    1    3    3    0    0 -0.48712821205E+02  0.11650716572E+03  0.39112390417E+03  0.41100458273E+03  0.00000000000E+00 0. -1.
        -13    1    3    3    0    0 -0.28976234374E+03  0.60278830193E+03  0.14871436517E+04  0.16306171205E+04  0.00000000000E+00 0.  1.
          4    1    6    6  502    0  0.46492273129E+02 -0.17864774362E+02  0.41734686784E+02  0.64980502496E+02  0.00000000000E+00 0. -1.
          1    1    5    5  503    0 -0.65357884654E+01 -0.92985324477E+02  0.21666687613E+03  0.23586759487E+03  0.00000000000E+00 0. -1.
         -2    1    5    5    0  503 -0.90709308931E+02 -0.64767874382E+03  0.10197340251E+04  0.12114344456E+04  0.00000000000E+00 0.  1.
         -3    1    6    6    0  502  0.38922798921E+03  0.39233375007E+02  0.54066926337E+03  0.66735368257E+03  0.00000000000E+00 0.  1.
<mgrwt>
<rscale>  0 0.20373203E+04</rscale>
<asrwt>0</asrwt>
<pdfrwt beam="1">  1        2 0.60910229E+00 0.20373203E+04</pdfrwt>
<pdfrwt beam="2">  1       -2 0.40321966E-01 0.20373203E+04</pdfrwt>
<totfact> 0.20088886E+00</totfact>
</mgrwt>
</event>
<event>
12    1  0.1663913E-007  0.2236730E+04  0.7818608E-02  0.8503294E-01
         -2   -1    0    0    0  501 -0.00000000000E+00  0.00000000000E+00  0.16663909133E+04  0.16663909133E+04  0.00000000000E+00 0.  1.
          2   -1    0    0  501    0  0.00000000000E+00 -0.00000000000E+00 -0.75056820709E+03  0.75056820709E+03  0.00000000000E+00 0. -1.
         23    2    1    2    0    0  0.51737936378E+03  0.51193707289E+03 -0.24501963868E+03  0.77449415393E+03  0.10022773297E+03 0.  0.
        254    2    1    2    0    0 -0.51737936378E+03 -0.51193707289E+03  0.11608423449E+04  0.16424649665E+04  0.90574568382E+03 0.  0.
        -24    2    4    4    0    0 -0.77152457323E+03 -0.38620607566E+03  0.89427520490E+03  0.12451589515E+04  0.79292953276E+02 0.  0.
         24    2    4    4    0    0  0.25414520945E+03 -0.12573099723E+03  0.26656714003E+03  0.39730601500E+03  0.79974735151E+02 0.  0.
         11    1    3    3    0    0  0.16434564718E+02  0.52276453113E+02 -0.16196633120E+02  0.57142395750E+02  0.00000000000E+00 0.  1.
        -11    1    3    3    0    0  0.50094479906E+03  0.45966061978E+03 -0.22882300556E+03  0.71735175818E+03  0.00000000000E+00 0. -1.
          4    1    6    6  502    0  0.23693714263E+03 -0.13729971446E+03  0.24921149805E+03  0.37026583951E+03  0.00000000000E+00 0. -1.
          3    1    5    5  503    0 -0.41250287506E+03 -0.16326565161E+03  0.44537561808E+03  0.62862845633E+03  0.00000000000E+00 0. -1.
         -4    1    5    5    0  503 -0.35902169817E+03 -0.22294042405E+03  0.44889958682E+03  0.61653049517E+03  0.00000000000E+00 0.  1.
         -3    1    6    6    0  502  0.17208066814E+02  0.11568717231E+02  0.17355641987E+02  0.27040175492E+02  0.00000000000E+00 0.  1.
<mgrwt>
<rscale>  0 0.22367298E+04</rscale>
<asrwt>0</asrwt>
<pdfrwt beam="1">  1        2 0.11547203E+00 0.22367298E+04</pdfrwt>
<pdfrwt beam="2">  1       -2 0.25636783E+00 0.22367298E+04</pdfrwt>
<totfact> 0.20046377E+00</totfact>
</mgrwt>
</event>
<event>
12    1  0.1663913E-007  0.1533482E+04  0.7818608E-02  0.8862488E-01
         -2   -1    0    0    0  501 -0.00000000000E+00  0.00000000000E+00  0.37559057142E+03  0.37559057142E+03  0.00000000000E+00 0.  1.
          2   -1    0    0  501    0  0.00000000000E+00 -0.00000000000E+00 -0.15652468462E+04  0.15652468462E+04  0.00000000000E+00 0. -1.
         23    2    1    2    0    0  0.22836458402E+03 -0.43202057029E+03 -0.41175976670E+03  0.64522169009E+03  0.89290355019E+02 0.  0.
        254    2    1    2    0    0 -0.22836458402E+03  0.43202057029E+03 -0.77789650809E+03  0.12956157275E+04  0.91362190197E+03 0.  0.
        -24    2    4    4    0    0 -0.47598296537E+03  0.86949245174E+02 -0.70126574621E+03  0.85590976806E+03  0.81779763385E+02 0.  0.
         24    2    4    4    0    0  0.24761838135E+03  0.34507132511E+03 -0.76630761884E+02  0.43970595948E+03  0.84142586951E+02 0.  0.
         13    1    3    3    0    0 -0.83853679841E+01 -0.14174320286E+02 -0.14928559096E+02  0.22228081979E+02  0.00000000000E+00 0. -1.
        -13    1    3    3    0    0  0.23674995200E+03 -0.41784625000E+03 -0.39683120760E+03  0.62299360811E+03  0.00000000000E+00 0.  1.
          4    1    6    6  502    0  0.34193315855E+02  0.11030577589E+03 -0.26600818347E+02  0.11850801905E+03  0.00000000000E+00 0. -1.
          3    1    5    5  503    0 -0.79495738195E+02  0.18014645396E+02 -0.17810348284E+03  0.19586972823E+03  0.00000000000E+00 0. -1.
         -2    1    5    5    0  503 -0.39648722717E+03  0.68934599778E+02 -0.52316226337E+03  0.66004003982E+03  0.00000000000E+00 0.  1.
         -3    1    6    6    0  502  0.21342506549E+03  0.23476554922E+03 -0.50029943537E+02  0.32119794042E+03  0.00000000000E+00 0.  1.
<mgrwt>
<rscale>  0 0.15334823E+04</rscale>
<asrwt>0</asrwt>
<pdfrwt beam="1">  1        2 0.24080721E+00 0.15334823E+04</pdfrwt>
<pdfrwt beam="2">  1       -2 0.57783165E-01 0.15334823E+04</pdfrwt>
<totfact> 0.31515091E+01</totfact>
</mgrwt>
</event>
<event>
12    1  0.1663913E-007  0.1854660E+04  0.7818608E-02  0.8677760E-01
          2   -1    0    0  501    0  0.00000000000E+00  0.00000000000E+00  0.14022734791E+04  0.14022734791E+04  0.00000000000E+00 0. -1.
         -2   -1    0    0    0  501 -0.00000000000E+00 -0.00000000000E+00 -0.61324789572E+03  0.61324789572E+03  0.00000000000E+00 0.  1.
         23    2    1    2    0    0 -0.64730698203E+03  0.58915301440E+02  0.62725698034E+01  0.65577415307E+03  0.86735534623E+02 0.  0.
        254    2    1    2    0    0  0.64730698203E+03 -0.58915301440E+02  0.78275301353E+03  0.13597472217E+04  0.90207144119E+03 0.  0.
        -24    2    4    4    0    0  0.61109312052E+03  0.52539702175E+02  0.95429288983E+03  0.11373232464E+04  0.81449523851E+02 0.  0.
         24    2    4    4    0    0  0.36213861514E+02 -0.11145500362E+03 -0.17153987630E+03  0.22242397532E+03  0.79453345062E+02 0.  0.
         11    1    3    3    0    0 -0.27654210720E+02 -0.38360348265E+01 -0.16692985093E+02  0.32528853116E+02  0.00000000000E+00 0. -1.
        -11    1    3    3    0    0 -0.61965277131E+03  0.62751336267E+02  0.22965554896E+02  0.62324529995E+03  0.00000000000E+00 0.  1.
          2    1    6    6  502    0  0.55565231671E+02 -0.42597988958E+02 -0.82015136496E+02  0.10783583008E+03  0.00000000000E+00 0. -1.
          3    1    5    5  503    0  0.14142541399E+03  0.42649426494E+02  0.26005878941E+03  0.29908309089E+03  0.00000000000E+00 0. -1.
         -4    1    5    5    0  503  0.46966770653E+03  0.98902756818E+01  0.69423410041E+03  0.83824015550E+03  0.00000000000E+00 0.  1.
         -1    1    6    6    0  502 -0.19351370156E+02 -0.68857014658E+02 -0.89524739801E+02  0.11458814525E+03  0.00000000000E+00 0.  1.
<mgrwt>
<rscale>  0 0.18546604E+04</rscale>
<asrwt>0</asrwt>
<pdfrwt beam="1">  1        2 0.21573438E+00 0.18546604E+04</pdfrwt>
<pdfrwt beam="2">  1       -2 0.94345831E-01 0.18546604E+04</pdfrwt>
<totfact> 0.12846173E+01</totfact>
</mgrwt>
</event>
<event>
12    1  0.1663913E-007  0.1386061E+04  0.7818608E-02  0.8963971E-01
          2   -1    0    0  501    0  0.00000000000E+00  0.00000000000E+00  0.12282450503E+04  0.12282450503E+04  0.00000000000E+00 0. -1.
         -2   -1    0    0    0  501 -0.00000000000E+00 -0.00000000000E+00 -0.39103840458E+03  0.39103840458E+03  0.00000000000E+00 0.  1.
         23    2    1    2    0    0 -0.22112678686E+03 -0.27825744461E+03  0.49007083631E+02  0.37016594184E+03  0.91087150070E+02 0.  0.
        254    2    1    2    0    0  0.22112678686E+03  0.27825744461E+03  0.78819956211E+03  0.12491175131E+04  0.90150526920E+03 0.  0.
        -24    2    4    4    0    0 -0.24945854497E+03 -0.85050453847E+02  0.52773382406E+03  0.59523137416E+03  0.79588029062E+02 0.  0.
         24    2    4    4    0    0  0.47058533183E+03  0.36330789845E+03  0.26046573805E+03  0.65388613891E+03  0.79255904190E+02 0.  0.
         13    1    3    3    0    0 -0.16524086927E+03 -0.21387421901E+03  0.75975268742E+02  0.28074716009E+03  0.00000000000E+00 0. -1.
        -13    1    3    3    0    0 -0.55885917589E+02 -0.64383225591E+02 -0.26968185111E+02  0.89418781755E+02  0.00000000000E+00 0.  1.
          2    1    6    6  502    0  0.46411630648E+03  0.34193977443E+03  0.25746453061E+03  0.63135943788E+03  0.00000000000E+00 0. -1.
          3    1    5    5  503    0 -0.99857950574E+02 -0.35663627730E+02  0.30105746408E+03  0.31918505810E+03  0.00000000000E+00 0. -1.
         -4    1    5    5    0  503 -0.14960059439E+03 -0.49386826117E+02  0.22667635998E+03  0.27604631606E+03  0.00000000000E+00 0.  1.
         -1    1    6    6    0  502  0.64690253517E+01  0.21368124021E+02  0.30012074371E+01  0.22526701029E+02  0.00000000000E+00 0.  1.
<mgrwt>
<rscale>  0 0.13860606E+04</rscale>
<asrwt>0</asrwt>
<pdfrwt beam="1">  1        2 0.18896078E+00 0.13860606E+04</pdfrwt>
<pdfrwt beam="2">  1       -2 0.60159755E-01 0.13860606E+04</pdfrwt>
<totfact> 0.45716697E+01</totfact>
</mgrwt>
</event>
<event>
12    1  0.1663913E-007  0.1389356E+04  0.7818608E-02  0.8961559E-01
          1   -1    0    0  501    0  0.00000000000E+00  0.00000000000E+00  0.38180062690E+03  0.38180062690E+03  0.00000000000E+00 0. -1.
         -1   -1    0    0    0  501 -0.00000000000E+00 -0.00000000000E+00 -0.12639524144E+04  0.12639524144E+04  0.00000000000E+00 0.  1.
         23    2    1    2    0    0 -0.18282317631E+03 -0.30323066010E+03 -0.60344683839E+02  0.37049076319E+03  0.90822781931E+02 0.  0.
        254    2    1    2    0    0  0.18282317631E+03  0.30323066010E+03 -0.82180710361E+03  0.12752622781E+04  0.90859992036E+03 0.  0.
        -24    2    4    4    0    0  0.28085141372E+03 -0.25799911940E+03 -0.23645635278E+03  0.45455611854E+03  0.72585094417E+02 0.  0.
         24    2    4    4    0    0 -0.98028237409E+02  0.56122977951E+03 -0.58535075083E+03  0.82070615953E+03  0.79590816355E+02 0.  0.
         11    1    3    3    0    0 -0.94298362960E+01  0.46617825885E-01 -0.15685903302E+02  0.18302227957E+02  0.00000000000E+00 0.  1.
        -11    1    3    3    0    0 -0.17339334001E+03 -0.30327727793E+03 -0.44658780537E+02  0.35218853523E+03  0.00000000000E+00 0. -1.
          2    1    6    6  502    0 -0.39318608705E+01  0.18603442965E+03 -0.22582552079E+03  0.29261140508E+03  0.00000000000E+00 0. -1.
          1    1    5    5  503    0  0.15627282592E+03 -0.19016454635E+03 -0.15743889297E+03  0.29218274389E+03  0.00000000000E+00 0. -1.
         -2    1    5    5    0  503  0.12457858780E+03 -0.67834573056E+02 -0.79017459809E+02  0.16237337465E+03  0.00000000000E+00 0.  1.
         -1    1    6    6    0  502 -0.94096376538E+02  0.37519534986E+03 -0.35952523005E+03  0.52809475445E+03  0.00000000000E+00 0.  1.
<mgrwt>
<rscale>  0 0.13893564E+04</rscale>
<asrwt>0</asrwt>
<pdfrwt beam="1">  1        1 0.58738558E-01 0.13893564E+04</pdfrwt>
<pdfrwt beam="2">  1       -1 0.19445422E+00 0.13893564E+04</pdfrwt>
<totfact> 0.10243370E+01</totfact>
</mgrwt>
</event>
<event>
12    1  0.1663913E-007  0.1536548E+04  0.7818608E-02  0.8860506E-01
         -1   -1    0    0    0  501 -0.00000000000E+00  0.00000000000E+00  0.24570733398E+03  0.24570733398E+03  0.00000000000E+00 0.  1.
          1   -1    0    0  501    0  0.00000000000E+00 -0.00000000000E+00 -0.24022263577E+04  0.24022263577E+04  0.00000000000E+00 0. -1.
         23    2    1    2    0    0  0.46034828610E+03  0.27131047073E+02 -0.10404526481E+04  0.11416926836E+04  0.90905624944E+02 0.  0.
        254    2    1    2    0    0 -0.46034828610E+03 -0.27131047073E+02 -0.11160663756E+04  0.15062410081E+04  0.90027839104E+03 0.  0.
        -24    2    4    4    0    0  0.11665231401E+03 -0.26122205664E+03 -0.10245929007E+03  0.31399626001E+03  0.79063391908E+02 0.  0.
         24    2    4    4    0    0 -0.57700060011E+03  0.23409100957E+03 -0.10136070855E+04  0.11922447481E+04  0.79497937764E+02 0.  0.
         11    1    3    3    0    0  0.66245027065E+02 -0.12577728617E+02 -0.22907963970E+03  0.23879716119E+03  0.00000000000E+00 0.  1.
        -11    1    3    3    0    0  0.39410325903E+03  0.39708775690E+02 -0.81137300840E+03  0.90289552242E+03  0.00000000000E+00 0. -1.
          2    1    6    6  502    0 -0.10826513795E+03  0.15696509165E+02 -0.15003033191E+03  0.18567934992E+03  0.00000000000E+00 0. -1.
          1    1    5    5  503    0  0.77050460064E+02 -0.88527775414E+02 -0.22002131784E+02  0.11940701076E+03  0.00000000000E+00 0. -1.
         -2    1    5    5    0  503  0.39601853945E+02 -0.17269428123E+03 -0.80457158284E+02  0.19458924925E+03  0.00000000000E+00 0.  1.
         -1    1    6    6    0  502 -0.46873546215E+03  0.21839450040E+03 -0.86357675363E+03  0.10065653981E+04  0.00000000000E+00 0.  1.
<mgrwt>
<rscale>  0 0.15365476E+04</rscale>
<asrwt>0</asrwt>
<pdfrwt beam="1">  1        1 0.36957331E+00 0.15365476E+04</pdfrwt>
<pdfrwt beam="2">  1       -1 0.37801126E-01 0.15365476E+04</pdfrwt>
<totfact> 0.10330391E+01</totfact>
</mgrwt>
</event>
<event>
12    1  0.1663913E-007  0.2963384E+04  0.7818608E-02  0.8254265E-01
          2   -1    0    0  501    0  0.00000000000E+00  0.00000000000E+00  0.12271762291E+04  0.12271762291E+04  0.00000000000E+00 0. -1.
         -2   -1    0    0    0  501 -0.00000000000E+00 -0.00000000000E+00 -0.17889938025E+04  0.17889938025E+04  0.00000000000E+00 0.  1.
         23    2    1    2    0    0 -0.11322847276E+04  0.71978331189E+03 -0.27917448078E+03  0.13736154362E+04  0.93403723686E+02 0.  0.
        254    2    1    2    0    0  0.11322847276E+04 -0.71978331189E+03 -0.28264309255E+03  0.16425545954E+04  0.90440132721E+03 0.  0.
        -24    2    4    4    0    0  0.11902263231E+04 -0.55748275410E+03 -0.44738902955E+03  0.13908934380E+04  0.83677301221E+02 0.  0.
         24    2    4    4    0    0 -0.57941595523E+02 -0.16230055780E+03  0.16474593700E+03  0.25166115741E+03  0.80581727676E+02 0.  0.
         13    1    3    3    0    0 -0.37718507199E+03  0.25827660745E+03 -0.52965910868E+02  0.46019644958E+03  0.00000000000E+00 0.  1.
        -13    1    3    3    0    0 -0.75509965556E+03  0.46150670445E+03 -0.22620856991E+03  0.91341898666E+03  0.00000000000E+00 0. -1.
          2    1    6    6  502    0 -0.15929354792E+02 -0.20813767188E+02  0.73757433767E+02  0.78275898491E+02  0.00000000000E+00 0. -1.
          1    1    5    5  503    0  0.11057575002E+04 -0.54060848226E+03 -0.41740323512E+03  0.12996855932E+04  0.00000000000E+00 0. -1.
         -2    1    5    5    0  503  0.84468822874E+02 -0.16874271834E+02 -0.29985794428E+02  0.91207844811E+02  0.00000000000E+00 0.  1.
         -1    1    6    6    0  502 -0.42012240731E+02 -0.14148679061E+03  0.90988503236E+02  0.17338525892E+03  0.00000000000E+00 0.  1.
<mgrwt>
<rscale>  0 0.29633837E+04</rscale>
<asrwt>0</asrwt>
<pdfrwt beam="1">  1        2 0.18879634E+00 0.29633837E+04</pdfrwt>
<pdfrwt beam="2">  1       -2 0.27522982E+00 0.29633837E+04</pdfrwt>
<totfact> 0.70547572E-01</totfact>
</mgrwt>
</event>
<event>
12    1  0.1663913E-007  0.1355046E+04  0.7818608E-02  0.8987017E-01
         -2   -1    0    0    0  501 -0.00000000000E+00  0.00000000000E+00  0.74585438750E+03  0.74585438750E+03  0.00000000000E+00 0.  1.
          2   -1    0    0  501    0  0.00000000000E+00 -0.00000000000E+00 -0.61545135192E+03  0.61545135192E+03  0.00000000000E+00 0. -1.
         23    2    1    2    0    0  0.14704818690E+03  0.82808932463E+02  0.36671706920E+03  0.41383947497E+03  0.91110996216E+02 0.  0.
        254    2    1    2    0    0 -0.14704818690E+03 -0.82808932463E+02 -0.23631403363E+03  0.94746626445E+03  0.90186889913E+03 0.  0.
        -24    2    4    4    0    0 -0.14079332971E+03 -0.36793106610E+03  0.17654103754E+03  0.43926774432E+03  0.81199643906E+02 0.  0.
         24    2    4    4    0    0 -0.62548571856E+01  0.28512213364E+03 -0.41285507117E+03  0.50819852013E+03  0.80515040461E+02 0.  0.
         11    1    3    3    0    0  0.14142996990E+03  0.81508416152E+02  0.37186115354E+03  0.40611177748E+03  0.00000000000E+00 0.  1.
        -11    1    3    3    0    0  0.56182169948E+01  0.13005163114E+01 -0.51440843383E+01  0.77276974938E+01  0.00000000000E+00 0. -1.
          4    1    6    6  502    0  0.82540676235E+01  0.22033787646E+03 -0.36474191890E+03  0.42620837256E+03  0.00000000000E+00 0. -1.
          3    1    5    5  503    0 -0.12541384222E+03 -0.29779117800E+03  0.17494791096E+03  0.36744385839E+03  0.00000000000E+00 0. -1.
         -4    1    5    5    0  503 -0.15379487488E+02 -0.70139888107E+02  0.15931265799E+01  0.71823885938E+02  0.00000000000E+00 0.  1.
         -3    1    6    6    0  502 -0.14508924809E+02  0.64784257181E+02 -0.48113152273E+02  0.81990147574E+02  0.00000000000E+00 0.  1.
<mgrwt>
<rscale>  0 0.13550455E+04</rscale>
<asrwt>0</asrwt>
<pdfrwt beam="1">  1        2 0.94684823E-01 0.13550455E+04</pdfrwt>
<pdfrwt beam="2">  1       -2 0.11474683E+00 0.13550455E+04</pdfrwt>
<totfact> 0.27832878E+01</totfact>
</mgrwt>
</event>
<event>
12    1  0.1663913E-007  0.1430897E+04  0.7818608E-02  0.8931752E-01
          1   -1    0    0  501    0  0.00000000000E+00  0.00000000000E+00  0.62226986272E+03  0.62226986272E+03  0.00000000000E+00 0. -1.
         -1   -1    0    0    0  501 -0.00000000000E+00 -0.00000000000E+00 -0.82258024400E+03  0.82258024400E+03  0.00000000000E+00 0.  1.
         23    2    1    2    0    0  0.25495789627E+02 -0.47509902569E+03  0.13322571805E+03  0.50239300085E+03  0.90997339855E+02 0.  0.
        254    2    1    2    0    0 -0.25495789627E+02  0.47509902569E+03 -0.33353609932E+03  0.94245710586E+03  0.74203096117E+03 0.  0.
        -24    2    4    4    0    0 -0.72731888045E+02  0.25530985150E+03 -0.55289946821E+03  0.61857109523E+03  0.80369957620E+02 0.  0.
         24    2    4    4    0    0  0.47236098417E+02  0.21978917419E+03  0.21936336889E+03  0.32388601063E+03  0.79014746667E+02 0.  0.
         13    1    3    3    0    0 -0.22677640532E+02 -0.36451859029E+02  0.78352068786E+01  0.43639476093E+02  0.00000000000E+00 0.  1.
        -13    1    3    3    0    0  0.48173430160E+02 -0.43864716666E+03  0.12539051117E+03  0.45875352476E+03  0.00000000000E+00 0. -1.
          4    1    6    6  502    0  0.84368822534E+00  0.17016343915E+03  0.15085440973E+03  0.22740571842E+03  0.00000000000E+00 0. -1.
          3    1    5    5  503    0 -0.71571895402E+02  0.15835647281E+03 -0.28660997981E+03  0.33517844385E+03  0.00000000000E+00 0. -1.
         -4    1    5    5    0  503 -0.11599926422E+01  0.96953378688E+02 -0.26628948840E+03  0.28339265138E+03  0.00000000000E+00 0.  1.
         -3    1    6    6    0  502  0.46392410192E+02  0.49625735033E+02  0.68508959161E+02  0.96480292217E+02  0.00000000000E+00 0.  1.
<mgrwt>
<rscale>  0 0.14308975E+04</rscale>
<asrwt>0</asrwt>
<pdfrwt beam="1">  1        1 0.95733826E-01 0.14308975E+04</pdfrwt>
<pdfrwt beam="2">  1       -1 0.12655081E+00 0.14308975E+04</pdfrwt>
<totfact> 0.17148433E+01</totfact>
</mgrwt>
</event>
<event>
12    1  0.1663913E-007  0.1336413E+04  0.7818608E-02  0.9001177E-01
          2   -1    0    0  501    0  0.00000000000E+00  0.00000000000E+00  0.50308891229E+03  0.50308891229E+03  0.00000000000E+00 0. -1.
         -2   -1    0    0    0  501 -0.00000000000E+00 -0.00000000000E+00 -0.88751705469E+03  0.88751705469E+03  0.00000000000E+00 0.  1.
         23    2    1    2    0    0  0.70854491247E+02 -0.28260469831E+03  0.91311458481E+02  0.31818884631E+03  0.89557718987E+02 0.  0.
        254    2    1    2    0    0 -0.70854491247E+02  0.28260469831E+03 -0.47573960088E+03  0.10724171207E+04  0.91589548444E+03 0.  0.
        -24    2    4    4    0    0  0.11510167317E+02  0.47299321738E+03 -0.63696313413E+03  0.79761737649E+03  0.81341117453E+02 0.  0.
         24    2    4    4    0    0 -0.82364658564E+02 -0.19038851907E+03  0.16122353326E+03  0.27479974418E+03  0.80561445818E+02 0.  0.
         13    1    3    3    0    0  0.51869597978E+02 -0.18107442141E+03  0.13444576733E+02  0.18883632576E+03  0.00000000000E+00 0. -1.
        -13    1    3    3    0    0  0.18984893270E+02 -0.10153027691E+03  0.77866881748E+02  0.12935252056E+03  0.00000000000E+00 0.  1.
          4    1    6    6  502    0  0.39905542165E+00 -0.11071940729E+02 -0.88401222733E+01  0.14173739046E+02  0.00000000000E+00 0. -1.
          1    1    5    5  503    0 -0.87964246491E+01  0.25398179650E+01 -0.13345740477E+02  0.16184453985E+02  0.00000000000E+00 0. -1.
         -2    1    5    5    0  503  0.20306591966E+02  0.47045339942E+03 -0.62361739365E+03  0.78143292250E+03  0.00000000000E+00 0.  1.
         -1    1    6    6    0  502 -0.82763713986E+02 -0.17931657834E+03  0.17006365553E+03  0.26062600513E+03  0.00000000000E+00 0.  1.
<mgrwt>
<rscale>  0 0.13364131E+04</rscale>
<asrwt>0</asrwt>
<pdfrwt beam="1">  1        2 0.77398295E-01 0.13364131E+04</pdfrwt>
<pdfrwt beam="2">  1       -2 0.13654108E+00 0.13364131E+04</pdfrwt>
<totfact> 0.22891395E+01</totfact>
</mgrwt>
</event>
<event>
12    1  0.1663913E-007  0.1506318E+04  0.7818608E-02  0.8880262E-01
         -2   -1    0    0    0  501 -0.00000000000E+00  0.00000000000E+00  0.40046122045E+03  0.40046122045E+03  0.00000000000E+00 0.  1.
          2   -1    0    0  501    0  0.00000000000E+00 -0.00000000000E+00 -0.14164877670E+04  0.14164877670E+04  0.00000000000E+00 0. -1.
         23    2    1    2    0    0 -0.37801314684E+02 -0.22393208485E+03 -0.83377574503E+03  0.86907185054E+03  0.92354590525E+02 0.  0.
        254    2    1    2    0    0  0.37801314684E+02  0.22393208485E+03 -0.18225080155E+03  0.94787713694E+03  0.90204278948E+03 0.  0.
        -24    2    4    4    0    0  0.35577894338E+03  0.41212443440E+03 -0.95664349451E+02  0.55856049275E+03  0.80080898607E+02 0.  0.
         24    2    4    4    0    0 -0.31797762869E+03 -0.18819234955E+03 -0.86586452099E+02  0.38931664419E+03  0.86856795796E+02 0.  0.
         11    1    3    3    0    0 -0.50700242135E+02 -0.75897901783E+02 -0.23421431294E+03  0.25137094190E+03  0.00000000000E+00 0.  1.
        -11    1    3    3    0    0  0.12898927451E+02 -0.14803418307E+03 -0.59956143209E+03  0.61770090864E+03  0.00000000000E+00 0. -1.
          4    1    6    6  502    0 -0.28367150924E+03 -0.14972175010E+03 -0.46698145211E+02  0.32414016162E+03  0.00000000000E+00 0. -1.
          1    1    5    5  503    0  0.32962054987E+03  0.34094339110E+03 -0.88182097636E+02  0.48235690643E+03  0.00000000000E+00 0. -1.
         -2    1    5    5    0  503  0.26158393506E+02  0.71181043302E+02 -0.74822518141E+01  0.76203586323E+02  0.00000000000E+00 0.  1.
         -3    1    6    6    0  502 -0.34306119457E+02 -0.38470599448E+02 -0.39888306888E+02  0.65176482572E+02  0.00000000000E+00 0.  1.
<mgrwt>
<rscale>  0 0.15063179E+04</rscale>
<asrwt>0</asrwt>
<pdfrwt beam="1">  1        2 0.21792119E+00 0.15063179E+04</pdfrwt>
<pdfrwt beam="2">  1       -2 0.61609419E-01 0.15063179E+04</pdfrwt>
<totfact> 0.33477475E+01</totfact>
</mgrwt>
</event>
<event>
12    1  0.1663913E-007  0.1623567E+04  0.7818608E-02  0.8806199E-01
          2   -1    0    0  501    0  0.00000000000E+00  0.00000000000E+00  0.10855251445E+04  0.10855251445E+04  0.00000000000E+00 0. -1.
         -2   -1    0    0    0  501 -0.00000000000E+00 -0.00000000000E+00 -0.60707256651E+03  0.60707256651E+03  0.00000000000E+00 0.  1.
         23    2    1    2    0    0 -0.39563483192E+03 -0.18199310812E+03 -0.17676120054E+03  0.47882963842E+03  0.91569039402E+02 0.  0.
        254    2    1    2    0    0  0.39563483192E+03  0.18199310812E+03  0.65521377857E+03  0.12137680726E+04  0.92427237697E+03 0.  0.
        -24    2    4    4    0    0  0.21672663922E+03  0.54182568107E+03  0.25898526514E+03  0.64369335584E+03  0.81989413784E+02 0.  0.
         24    2    4    4    0    0  0.17890819270E+03 -0.35983257295E+03  0.39622851343E+03  0.57007471678E+03  0.80625838798E+02 0.  0.
         13    1    3    3    0    0 -0.20135965937E+03 -0.73108967963E+02 -0.13213580952E+03  0.25169526371E+03  0.00000000000E+00 0. -1.
        -13    1    3    3    0    0 -0.19427517256E+03 -0.10888414016E+03 -0.44625391021E+02  0.22713437471E+03  0.00000000000E+00 0.  1.
          4    1    6    6  502    0  0.10309814779E+03 -0.22272479461E+03  0.29410972964E+03  0.38306147716E+03  0.00000000000E+00 0. -1.
          1    1    5    5  503    0  0.12747411991E+03  0.32631056603E+03  0.11118922317E+03  0.36754765691E+03  0.00000000000E+00 0. -1.
         -2    1    5    5    0  503  0.89252519308E+02  0.21551511504E+03  0.14779604197E+03  0.27614569893E+03  0.00000000000E+00 0.  1.
         -3    1    6    6    0  502  0.75810044916E+02 -0.13710777834E+03  0.10211878379E+03  0.18701323962E+03  0.00000000000E+00 0.  1.
<mgrwt>
<rscale>  0 0.16235671E+04</rscale>
<asrwt>0</asrwt>
<pdfrwt beam="1">  1        2 0.16700387E+00 0.16235671E+04</pdfrwt>
<pdfrwt beam="2">  1       -2 0.93395780E-01 0.16235671E+04</pdfrwt>
<totfact> 0.20650241E+01</totfact>
</mgrwt>
</event>
<event>
12    1  0.1663913E-007  0.2078690E+04  0.7818608E-02  0.8570689E-01
         -2   -1    0    0    0  501 -0.00000000000E+00  0.00000000000E+00  0.12230818338E+04  0.12230818338E+04  0.00000000000E+00 0.  1.
          2   -1    0    0  501    0  0.00000000000E+00 -0.00000000000E+00 -0.88320961102E+03  0.88320961102E+03  0.00000000000E+00 0. -1.
         23    2    1    2    0    0  0.62762244579E+03  0.38753567908E+03  0.55079993315E+03  0.92506373968E+03  0.90931397679E+02 0.  0.
        254    2    1    2    0    0 -0.62762244579E+03 -0.38753567908E+03 -0.21092771040E+03  0.11812277051E+04  0.89817289833E+03 0.  0.
        -24    2    4    4    0    0 -0.34800934182E+03 -0.34344985377E+03 -0.54518219988E+03  0.73680715802E+03  0.81196385390E+02 0.  0.
         24    2    4    4    0    0 -0.27961310397E+03 -0.44085825311E+02  0.33425448948E+03  0.44442054709E+03  0.75209780143E+02 0.  0.
         13    1    3    3    0    0  0.17817256963E+03  0.15276302313E+03  0.14787078680E+03  0.27739462034E+03  0.00000000000E+00 0. -1.
        -13    1    3    3    0    0  0.44944987616E+03  0.23477265595E+03  0.40292914636E+03  0.64766911934E+03  0.00000000000E+00 0.  1.
          4    1    6    6  502    0 -0.25208164277E+03 -0.18804871159E+02  0.26839242667E+03  0.36869129702E+03  0.00000000000E+00 0. -1.
          1    1    5    5  503    0 -0.23307263996E+03 -0.27009794662E+03 -0.42652897271E+03  0.55605999750E+03  0.00000000000E+00 0. -1.
         -2    1    5    5    0  503 -0.11493670186E+03 -0.73351907152E+02 -0.11865322717E+03  0.18074716052E+03  0.00000000000E+00 0.  1.
         -3    1    6    6    0  502 -0.27531461200E+02 -0.25280954152E+02  0.65862062810E+02  0.75729250070E+02  0.00000000000E+00 0.  1.
<mgrwt>
<rscale>  0 0.20786896E+04</rscale>
<asrwt>0</asrwt>
<pdfrwt beam="1">  1        2 0.13587840E+00 0.20786896E+04</pdfrwt>
<pdfrwt beam="2">  1       -2 0.18816644E+00 0.20786896E+04</pdfrwt>
<totfact> 0.44300234E+00</totfact>
</mgrwt>
</event>
<event>
12    1  0.1663913E-007  0.3109297E+04  0.7818608E-02  0.8213191E-01
          2   -1    0    0  501    0  0.00000000000E+00  0.00000000000E+00  0.28576756034E+04  0.28576756034E+04  0.00000000000E+00 0. -1.
         -2   -1    0    0    0  501 -0.00000000000E+00 -0.00000000000E+00 -0.84576857305E+03  0.84576857305E+03  0.00000000000E+00 0.  1.
         23    2    1    2    0    0 -0.84178808423E+03 -0.77945468552E+03  0.19333229136E+04  0.22500986704E+04  0.95130189752E+02 0.  0.
        254    2    1    2    0    0  0.84178808423E+03  0.77945468552E+03  0.78584116741E+02  0.14533455060E+04  0.88875244629E+03 0.  0.
        -24    2    4    4    0    0  0.62998045098E+03  0.93092648595E+03  0.21577429091E+03  0.11474220735E+04  0.80742673822E+02 0.  0.
         24    2    4    4    0    0  0.21180763325E+03 -0.15147180043E+03 -0.13719017417E+03  0.30592343243E+03  0.83437538278E+02 0.  0.
         11    1    3    3    0    0 -0.69257056822E+03 -0.59537258205E+03  0.14979785040E+04  0.17544406806E+04  0.00000000000E+00 0. -1.
        -11    1    3    3    0    0 -0.14921751601E+03 -0.18408210348E+03  0.43534440960E+03  0.49565798983E+03  0.00000000000E+00 0.  1.
          4    1    6    6  502    0  0.50509760540E+02 -0.78858922126E+02 -0.69100448375E+02  0.11638229021E+03  0.00000000000E+00 0. -1.
          1    1    5    5  503    0  0.52308844658E+03  0.71851084595E+03  0.18273599692E+03  0.90734326650E+03  0.00000000000E+00 0. -1.
         -2    1    5    5    0  503  0.10689200440E+03  0.21241564000E+03  0.33038293990E+02  0.24007880705E+03  0.00000000000E+00 0.  1.
         -3    1    6    6    0  502  0.16129787271E+03 -0.72612878300E+02 -0.68089725791E+02  0.18954114222E+03  0.00000000000E+00 0.  1.
<mgrwt>
<rscale>  0 0.31092972E+04</rscale>
<asrwt>0</asrwt>
<pdfrwt beam="1">  1        2 0.43964239E+00 0.31092972E+04</pdfrwt>
<pdfrwt beam="2">  1       -2 0.13011824E+00 0.31092972E+04</pdfrwt>
<totfact> 0.78363403E-01</totfact>
</mgrwt>
</event>
<event>
12    1  0.1663913E-007  0.1098225E+04  0.7818608E-02  0.9206923E-01
         -2   -1    0    0    0  501 -0.00000000000E+00  0.00000000000E+00  0.22342181813E+03  0.22342181813E+03  0.00000000000E+00 0.  1.
          2   -1    0    0  501    0  0.00000000000E+00 -0.00000000000E+00 -0.13495756991E+04  0.13495756991E+04  0.00000000000E+00 0. -1.
         23    2    1    2    0    0  0.37981926393E+02  0.96212654226E+02 -0.58993829463E+03  0.60606914115E+03  0.92699033519E+02 0.  0.
        254    2    1    2    0    0 -0.37981926393E+02 -0.96212654226E+02 -0.53621558639E+03  0.96692837613E+03  0.79794976527E+03 0.  0.
        -24    2    4    4    0    0  0.43902234938E+02 -0.20611193675E+03  0.14426618301E+03  0.26783362803E+03  0.80700582627E+02 0.  0.
         24    2    4    4    0    0 -0.81884161331E+02  0.10989928253E+03 -0.68048176940E+03  0.69909474810E+03  0.83037101074E+02 0.  0.
         13    1    3    3    0    0  0.28254262140E+02  0.84385298637E+02 -0.58210544315E+03  0.58886834598E+03  0.00000000000E+00 0. -1.
        -13    1    3    3    0    0  0.97276642527E+01  0.11827355589E+02 -0.78328514810E+01  0.17200795167E+02  0.00000000000E+00 0.  1.
          2    1    6    6  502    0 -0.11637251124E+02 -0.98919998614E+01 -0.26999498515E+02  0.31020157882E+02  0.00000000000E+00 0. -1.
          3    1    5    5  503    0  0.45418446407E+02 -0.15699591015E+03  0.14529919269E+03  0.21868334751E+03  0.00000000000E+00 0. -1.
         -4    1    5    5    0  503 -0.15162114684E+01 -0.49116026600E+02 -0.10330096835E+01  0.49150280520E+02  0.00000000000E+00 0.  1.
         -1    1    6    6    0  502 -0.70246910207E+02  0.11979128239E+03 -0.65348227089E+03  0.66807459022E+03  0.00000000000E+00 0.  1.
<mgrwt>
<rscale>  0 0.10982252E+04</rscale>
<asrwt>0</asrwt>
<pdfrwt beam="1">  1        2 0.20762703E+00 0.10982252E+04</pdfrwt>
<pdfrwt beam="2">  1       -2 0.34372588E-01 0.10982252E+04</pdfrwt>
<totfact> 0.12171078E+02</totfact>
</mgrwt>
</event>
<event>
12    1  0.1663913E-007  0.2968336E+04  0.7818608E-02  0.8252831E-01
         -1   -1    0    0    0  501 -0.00000000000E+00  0.00000000000E+00  0.96271694819E+03  0.96271694819E+03  0.00000000000E+00 0.  1.
          1   -1    0    0  501    0  0.00000000000E+00 -0.00000000000E+00 -0.22880601175E+04  0.22880601175E+04  0.00000000000E+00 0. -1.
         23    2    1    2    0    0  0.28717994277E+03  0.46162609301E+03  0.74377042903E+03  0.92567589082E+03  0.90057950617E+02 0.  0.
        254    2    1    2    0    0 -0.28717994277E+03 -0.46162609301E+03 -0.20691135984E+04  0.23251011749E+04  0.91065548986E+03 0.  0.
        -24    2    4    4    0    0  0.13806516555E+03 -0.50426620541E+03 -0.16013672887E+04  0.16865061045E+04  0.81112585300E+02 0.  0.
         24    2    4    4    0    0 -0.42524510833E+03  0.42640112397E+02 -0.46774630968E+03  0.63859507035E+03  0.79783910131E+02 0.  0.
         11    1    3    3    0    0  0.14719006199E+03  0.20512950539E+03  0.41546185558E+03  0.48616003721E+03  0.00000000000E+00 0. -1.
        -11    1    3    3    0    0  0.13998988079E+03  0.25649658762E+03  0.32830857345E+03  0.43951585362E+03  0.00000000000E+00 0.  1.
          2    1    6    6  502    0 -0.11490335456E+02 -0.26196188501E+01 -0.40259914760E+02  0.41949385553E+02  0.00000000000E+00 0. -1.
          3    1    5    5  503    0  0.42275842427E+02 -0.16274626315E+03 -0.40092104554E+03  0.43475427287E+03  0.00000000000E+00 0. -1.
         -4    1    5    5    0  503  0.95789323127E+02 -0.34151994226E+03 -0.12004462431E+04  0.12517518317E+04  0.00000000000E+00 0.  1.
         -1    1    6    6    0  502 -0.41375477287E+03  0.45259731247E+02 -0.42748639492E+03  0.59664568480E+03  0.00000000000E+00 0.  1.
<mgrwt>
<rscale>  0 0.29683357E+04</rscale>
<asrwt>0</asrwt>
<pdfrwt beam="1">  1        1 0.35200925E+00 0.29683357E+04</pdfrwt>
<pdfrwt beam="2">  1       -1 0.14811030E+00 0.29683357E+04</pdfrwt>
<totfact> 0.58414800E-01</totfact>
</mgrwt>
</event>
<event>
12    1  0.1663913E-007  0.1336943E+04  0.7818608E-02  0.9000771E-01
         -2   -1    0    0    0  501 -0.00000000000E+00  0.00000000000E+00  0.12715000960E+03  0.12715000960E+03  0.00000000000E+00 0.  1.
          2   -1    0    0  501    0  0.00000000000E+00 -0.00000000000E+00 -0.35143858907E+04  0.35143858907E+04  0.00000000000E+00 0. -1.
         23    2    1    2    0    0  0.61672127454E+02 -0.33629371685E+02  0.17267256275E+02  0.11969952252E+03  0.95369972254E+02 0.  0.
        254    2    1    2    0    0 -0.61672127454E+02  0.33629371685E+02 -0.34045031374E+04  0.35218363778E+04  0.89875217577E+03 0.  0.
        -24    2    4    4    0    0 -0.46812705495E+03  0.70142145229E+02 -0.16204552731E+04  0.16900437580E+04  0.79433946320E+02 0.  0.
         24    2    4    4    0    0  0.40645492749E+03 -0.36512773544E+02 -0.17840478643E+04  0.18317926197E+04  0.78093719340E+02 0.  0.
         13    1    3    3    0    0  0.74792219354E+02  0.71275483795E+01  0.16263215584E+02  0.76871127239E+02  0.00000000000E+00 0.  1.
        -13    1    3    3    0    0 -0.13120091901E+02 -0.40756920065E+02  0.10040406912E+01  0.42828395281E+02  0.00000000000E+00 0. -1.
          4    1    6    6  502    0  0.33177619060E+03 -0.49815446383E+02 -0.15446549796E+04  0.15806694864E+04  0.00000000000E+00 0. -1.
          1    1    5    5  503    0 -0.43861745503E+03  0.66380083872E+02 -0.15700237202E+04  0.16314919765E+04  0.00000000000E+00 0. -1.
         -2    1    5    5    0  503 -0.29509599917E+02  0.37620613572E+01 -0.50431552936E+02  0.58551781565E+02  0.00000000000E+00 0.  1.
         -3    1    6    6    0  502  0.74678736893E+02  0.13302672839E+02 -0.23939288471E+03  0.25112313334E+03  0.00000000000E+00 0.  1.
<mgrwt>
<rscale>  0 0.13369431E+04</rscale>
<asrwt>0</asrwt>
<pdfrwt beam="1">  1        2 0.54067476E+00 0.13369431E+04</pdfrwt>
<pdfrwt beam="2">  1       -2 0.19561540E-01 0.13369431E+04</pdfrwt>
<totfact> 0.17602343E+01</totfact>
</mgrwt>
</event>
<event>
12    1  0.1663913E-007  0.2217445E+04  0.7818608E-02  0.8511202E-01
          2   -1    0    0  501    0  0.00000000000E+00  0.00000000000E+00  0.92359833987E+03  0.92359833987E+03  0.00000000000E+00 0.  1.
         -2   -1    0    0    0  501 -0.00000000000E+00 -0.00000000000E+00 -0.13309525463E+04  0.13309525463E+04  0.00000000000E+00 0. -1.
         23    2    1    2    0    0 -0.90003940027E+03  0.19430239172E+03 -0.94233661104E+02  0.93018530515E+03  0.92414163223E+02 0.  0.
        254    2    1    2    0    0  0.90003940027E+03 -0.19430239172E+03 -0.31312054533E+03  0.13243655810E+04  0.89893012790E+03 0.  0.
        -24    2    4    4    0    0  0.69169567035E+03 -0.48750655665E+03 -0.14660074905E+02  0.85027008400E+03  0.81478554191E+02 0.  0.
         24    2    4    4    0    0  0.20834372992E+03  0.29320416494E+03 -0.29846047043E+03  0.47409549703E+03  0.79448698925E+02 0.  0.
         13    1    3    3    0    0 -0.12629075027E+03  0.19533638793E+02 -0.44754889212E+02  0.13540279449E+03  0.00000000000E+00 0. -1.
        -13    1    3    3    0    0 -0.77374865000E+03  0.17476875292E+03 -0.49478771892E+02  0.79478251066E+03  0.00000000000E+00 0.  1.
          2    1    6    6  502    0  0.31538376034E+02  0.63865225054E+02 -0.24128414182E+02  0.75203833047E+02  0.00000000000E+00 0. -1.
          3    1    5    5  503    0  0.11778184379E+03 -0.79967842034E+02 -0.33000722403E+02  0.14613851705E+03  0.00000000000E+00 0. -1.
         -4    1    5    5    0  503  0.57391382655E+03 -0.40753871462E+03  0.18340647498E+02  0.70413156695E+03  0.00000000000E+00 0.  1.
         -1    1    6    6    0  502  0.17680535389E+03  0.22933893988E+03 -0.27433205624E+03  0.39889166398E+03  0.00000000000E+00 0.  1.
<mgrwt>
<rscale>  0 0.22174450E+04</rscale>
<asrwt>0</asrwt>
<pdfrwt beam="1">  1        2 0.14209205E+00 0.22174450E+04</pdfrwt>
<pdfrwt beam="2">  1       -2 0.20476193E+00 0.22174450E+04</pdfrwt>
<totfact> 0.31932193E+00</totfact>
</mgrwt>
</event>
<event>
12    1  0.1663913E-007  0.1133614E+04  0.7818608E-02  0.9173035E-01
          1   -1    0    0  501    0  0.00000000000E+00  0.00000000000E+00  0.21615210638E+03  0.21615210638E+03  0.00000000000E+00 0. -1.
         -1   -1    0    0    0  501 -0.00000000000E+00 -0.00000000000E+00 -0.14863143188E+04  0.14863143188E+04  0.00000000000E+00 0.  1.
         23    2    1    2    0    0  0.53683168242E+02 -0.15692447375E+03 -0.84618994496E+02  0.20640697486E+03  0.89085868846E+02 0.  0.
        254    2    1    2    0    0 -0.53683168242E+02  0.15692447375E+03 -0.11855432179E+04  0.14960594503E+04  0.89731487466E+03 0.  0.
        -24    2    4    4    0    0 -0.10854707304E+03  0.49896025756E+03 -0.47679261286E+03  0.70310244015E+03  0.79234083457E+02 0.  0.
         24    2    4    4    0    0  0.54863904802E+02 -0.34203578381E+03 -0.70875060501E+03  0.79295701012E+03  0.80342232624E+02 0.  0.
         13    1    3    3    0    0  0.17687036211E+02  0.62645760833E+01  0.69666681467E+00  0.18776621317E+02  0.00000000000E+00 0.  1.
        -13    1    3    3    0    0  0.35996132031E+02 -0.16318904983E+03 -0.85315661310E+02  0.18763035355E+03  0.00000000000E+00 0. -1.
          4    1    6    6  502    0  0.74828118623E+02 -0.28047104928E+03 -0.56096920502E+03  0.63162465579E+03  0.00000000000E+00 0. -1.
          3    1    5    5  503    0 -0.10435295945E+03  0.38608256510E+03 -0.33418941004E+03  0.52118312425E+03  0.00000000000E+00 0. -1.
         -4    1    5    5    0  503 -0.41941135921E+01  0.11287769246E+03 -0.14260320282E+03  0.18191931590E+03  0.00000000000E+00 0.  1.
         -1    1    6    6    0  502 -0.19964213821E+02 -0.61564734525E+02 -0.14778140000E+03  0.16133235433E+03  0.00000000000E+00 0.  1.
<mgrwt>
<rscale>  0 0.11336136E+04</rscale>
<asrwt>0</asrwt>
<pdfrwt beam="1">  1        1 0.33254172E-01 0.11336136E+04</pdfrwt>
<pdfrwt beam="2">  1       -1 0.22866373E+00 0.11336136E+04</pdfrwt>
<totfact> 0.12902101E+01</totfact>
</mgrwt>
</event>
<event>
12    1  0.1663913E-007  0.2438235E+04  0.7818608E-02  0.8425326E-01
          2   -1    0    0  501    0  0.00000000000E+00  0.00000000000E+00  0.31337979943E+04  0.31337979943E+04  0.00000000000E+00 0. -1.
         -2   -1    0    0    0  501 -0.00000000000E+00 -0.00000000000E+00 -0.47426407749E+03  0.47426407749E+03  0.00000000000E+00 0.  1.
         23    2    1    2    0    0  0.97555211994E+03 -0.13476875830E+03  0.17113383312E+04  0.19765767588E+04  0.91171501683E+02 0.  0.
        254    2    1    2    0    0 -0.97555211994E+03  0.13476875830E+03  0.94819558562E+03  0.16314853130E+04  0.89039592369E+03 0.  0.
        -24    2    4    4    0    0 -0.78631661856E+03 -0.16833286724E+03  0.25489606514E+03  0.84741461176E+03  0.80682968395E+02 0.  0.
         24    2    4    4    0    0 -0.18923550138E+03  0.30310162554E+03  0.69329952049E+03  0.78407070121E+03  0.80137188628E+02 0.  0.
         11    1    3    3    0    0  0.93726368822E+03 -0.11968304048E+03  0.16039067218E+04  0.18615327082E+04  0.00000000000E+00 0. -1.
        -11    1    3    3    0    0  0.38288431725E+02 -0.15085717812E+02  0.10743160939E+03  0.11504405062E+03  0.00000000000E+00 0.  1.
          2    1    6    6  502    0 -0.13500031390E+03  0.14364323338E+03  0.35057155107E+03  0.40219258529E+03  0.00000000000E+00 0. -1.
          1    1    5    5  503    0 -0.20415761940E+03 -0.79931059327E+02  0.74813495611E+02  0.23166002445E+03  0.00000000000E+00 0. -1.
         -2    1    5    5    0  503 -0.58215899916E+03 -0.88401807917E+02  0.18008256952E+03  0.61575458731E+03  0.00000000000E+00 0.  1.
         -1    1    6    6    0  502 -0.54235187477E+02  0.15945839216E+03  0.34272796942E+03  0.38187811592E+03  0.00000000000E+00 0.  1.
<mgrwt>
<rscale>  0 0.24382353E+04</rscale>
<asrwt>0</asrwt>
<pdfrwt beam="1">  1        2 0.48212276E+00 0.24382353E+04</pdfrwt>
<pdfrwt beam="2">  1       -2 0.72963706E-01 0.24382353E+04</pdfrwt>
<totfact> 0.21791171E+00</totfact>
</mgrwt>
</event>
<event>
12    1  0.1663913E-007  0.1077074E+04  0.7818608E-02  0.9227830E-01
          2   -1    0    0  501    0  0.00000000000E+00  0.00000000000E+00  0.93124434629E+03  0.93124434629E+03  0.00000000000E+00 0. -1.
         -2   -1    0    0    0  501 -0.00000000000E+00 -0.00000000000E+00 -0.31143494564E+03  0.31143494564E+03  0.00000000000E+00 0.  1.
         23    2    1    2    0    0  0.62471457792E+02 -0.74482843159E+02 -0.23782195794E+02  0.13397467162E+03  0.89068753410E+02 0.  0.
        254    2    1    2    0    0 -0.62471457792E+02  0.74482843159E+02  0.64359159644E+03  0.11087046203E+04  0.89753296048E+03 0.  0.
        -24    2    4    4    0    0  0.23757421167E+03  0.24743753060E+03  0.66392643278E+03  0.75259795402E+03  0.89098454799E+02 0.  0.
         24    2    4    4    0    0 -0.30004566946E+03 -0.17295468744E+03 -0.20334836336E+02  0.35610666630E+03  0.80359968541E+02 0.  0.
         13    1    3    3    0    0 -0.44260222379E+01  0.64731028437E+01  0.19015792754E+02  0.20569178577E+02  0.00000000000E+00 0. -1.
        -13    1    3    3    0    0  0.66897480030E+02 -0.80955946003E+02 -0.42797988548E+02  0.11340549304E+03  0.00000000000E+00 0.  1.
          4    1    6    6  502    0 -0.28124805098E+03 -0.17377779806E+03 -0.31423280087E+01  0.33061921225E+03  0.00000000000E+00 0. -1.
          3    1    5    5  503    0  0.11041529368E+03  0.14308286552E+03  0.26177939734E+03  0.31810799480E+03  0.00000000000E+00 0. -1.
         -4    1    5    5    0  503  0.12715891799E+03  0.10435466509E+03  0.40214703544E+03  0.43448995922E+03  0.00000000000E+00 0.  1.
         -3    1    6    6    0  502 -0.18797618481E+02  0.82311062067E+00 -0.17192508328E+02  0.25487454055E+02  0.00000000000E+00 0.  1.
<mgrwt>
<rscale>  0 0.10770739E+04</rscale>
<asrwt>0</asrwt>
<pdfrwt beam="1">  1        2 0.14326836E+00 0.10770739E+04</pdfrwt>
<pdfrwt beam="2">  1       -2 0.47913069E-01 0.10770739E+04</pdfrwt>
<totfact> 0.11460790E+02</totfact>
</mgrwt>
</event>
<event>
12    1  0.1663913E-007  0.1364437E+04  0.7818608E-02  0.8979971E-01
         -2   -1    0    0    0  501 -0.00000000000E+00  0.00000000000E+00  0.12698788492E+03  0.12698788492E+03  0.00000000000E+00 0.  1.
          2   -1    0    0  501    0  0.00000000000E+00 -0.00000000000E+00 -0.36650889476E+04  0.36650889476E+04  0.00000000000E+00 0. -1.
         23    2    1    2    0    0  0.33589257071E+03 -0.56836839550E+02 -0.14370739969E+04  0.14796240641E+04  0.89729891045E+02 0.  0.
        254    2    1    2    0    0 -0.33589257071E+03  0.56836839550E+02 -0.21010270659E+04  0.23124527684E+04  0.90391859663E+03 0.  0.
        -24    2    4    4    0    0 -0.27688757108E+03 -0.40241912747E+03 -0.11247766343E+04  0.12290604252E+04  0.82820109782E+02 0.  0.
         24    2    4    4    0    0 -0.59004999624E+02  0.45925596702E+03 -0.97625043158E+03  0.10833923432E+04  0.79223929328E+02 0.  0.
         11    1    3    3    0    0  0.13291202783E+03  0.16400932207E+01 -0.71654041087E+03  0.72876502212E+03  0.00000000000E+00 0. -1.
        -11    1    3    3    0    0  0.20298054288E+03 -0.58476932771E+02 -0.72053358599E+03  0.75085904203E+03  0.00000000000E+00 0.  1.
          2    1    6    6  502    0 -0.12556173621E+01 -0.66495590256E+00 -0.26750196129E+02  0.26787902759E+02  0.00000000000E+00 0. -1.
          1    1    5    5  503    0 -0.29215142618E+02 -0.45116807933E+02 -0.70418751627E+02  0.88588100199E+02  0.00000000000E+00 0. -1.
         -2    1    5    5    0  503 -0.24767242847E+03 -0.35730231954E+03 -0.10543578826E+04  0.11404723250E+04  0.00000000000E+00 0.  1.
         -1    1    6    6    0  502 -0.57749382262E+02  0.45992092293E+03 -0.94950023545E+03  0.10566044405E+04  0.00000000000E+00 0.  1.
<mgrwt>
<rscale>  0 0.13644367E+04</rscale>
<asrwt>0</asrwt>
<pdfrwt beam="1">  1        2 0.56385977E+00 0.13644367E+04</pdfrwt>
<pdfrwt beam="2">  1       -2 0.19536600E-01 0.13644367E+04</pdfrwt>
<totfact> 0.13757188E+01</totfact>
</mgrwt>
</event>
<event>
12    1  0.1663913E-007  0.1121121E+04  0.7818608E-02  0.9184847E-01
         -3   -1    0    0    0  501 -0.00000000000E+00  0.00000000000E+00  0.84203344870E+03  0.84203344870E+03  0.00000000000E+00 0.  1.
          3   -1    0    0  501    0  0.00000000000E+00 -0.00000000000E+00 -0.37317755221E+03  0.37317755221E+03  0.00000000000E+00 0. -1.
         23    2    1    2    0    0  0.20311158222E+02  0.18265264623E+03 -0.24537480410E+02  0.20704606171E+03  0.92149071627E+02 0.  0.
        254    2    1    2    0    0 -0.20311158222E+02 -0.18265264623E+03  0.49339337690E+03  0.10081649392E+04  0.85975868006E+03 0.  0.
        -24    2    4    4    0    0  0.19448109438E+03  0.18170694337E+03  0.50575120410E+03  0.57739932723E+03  0.82252010916E+02 0.  0.
         24    2    4    4    0    0 -0.21479225261E+03 -0.36435958960E+03 -0.12357827202E+02  0.43076561197E+03  0.80701141539E+02 0.  0.
         13    1    3    3    0    0  0.50175226550E+02  0.15969274858E+03 -0.14241585552E+02  0.16799449416E+03  0.00000000000E+00 0. -1.
        -13    1    3    3    0    0 -0.29864068328E+02  0.22959897642E+02 -0.10295894857E+02  0.39051567545E+02  0.00000000000E+00 0.  1.
          4    1    6    6  502    0 -0.19812899431E+03 -0.27073070484E+03 -0.89442007032E+01  0.33560424857E+03  0.00000000000E+00 0. -1.
          3    1    5    5  503    0  0.16415170606E+03  0.18557648110E+03  0.45741383843E+03  0.52020364524E+03  0.00000000000E+00 0. -1.
         -4    1    5    5    0  503  0.30329388329E+02 -0.38695377228E+01  0.48337365670E+02  0.57195681992E+02  0.00000000000E+00 0.  1.
         -3    1    6    6    0  502 -0.16663258300E+02 -0.93628884759E+02 -0.34136264993E+01  0.95161363401E+02  0.00000000000E+00 0.  1.
<mgrwt>
<rscale>  0 0.11211208E+04</rscale>
<asrwt>0</asrwt>
<pdfrwt beam="1">  1        3 0.57411931E-01 0.11211208E+04</pdfrwt>
<pdfrwt beam="2">  1       -3 0.12954361E+00 0.11211208E+04</pdfrwt>
<totfact> 0.36248422E+00</totfact>
</mgrwt>
</event>
<event>
12    1  0.1663913E-007  0.1678659E+04  0.7818608E-02  0.8773630E-01
         -1   -1    0    0    0  501 -0.00000000000E+00  0.00000000000E+00  0.51836312025E+03  0.51836312025E+03  0.00000000000E+00 0. -1.
          1   -1    0    0  501    0  0.00000000000E+00 -0.00000000000E+00 -0.13590362166E+04  0.13590362166E+04  0.00000000000E+00 0.  1.
         23    2    1    2    0    0  0.65644782152E+02 -0.37049282884E+03 -0.81008903401E+03  0.89776552520E+03  0.90357742185E+02 0.  0.
        254    2    1    2    0    0 -0.65644782152E+02  0.37049282884E+03 -0.30584062358E+02  0.97963381167E+03  0.90397613157E+03 0.  0.
        -24    2    4    4    0    0 -0.47511739497E+02  0.56669344863E+03  0.25141941044E+03  0.62689358842E+03  0.79906327278E+02 0.  0.
         24    2    4    4    0    0 -0.18133042655E+02 -0.19620061979E+03 -0.28200347280E+03  0.35274022325E+03  0.77950086490E+02 0.  0.
         11    1    3    3    0    0  0.50290370647E+02 -0.79480051299E+02 -0.16541317308E+03  0.19028325665E+03  0.00000000000E+00 0. -1.
        -11    1    3    3    0    0  0.15354411505E+02 -0.29101277754E+03 -0.64467586093E+03  0.70748226855E+03  0.00000000000E+00 0.  1.
          4    1    6    6  502    0 -0.11831945268E+02  0.32687743371E+01 -0.14583538925E+02  0.19061988933E+02  0.00000000000E+00 0. -1.
          1    1    5    5  503    0  0.14249982132E+02  0.23173406361E+03  0.12419755325E+03  0.26330357092E+03  0.00000000000E+00 0. -1.
         -2    1    5    5    0  503 -0.61761721629E+02  0.33495938503E+03  0.12722185719E+03  0.36359001749E+03  0.00000000000E+00 0.  1.
         -3    1    6    6    0  502 -0.63010973865E+01 -0.19946939413E+03 -0.26741993387E+03  0.33367823432E+03  0.00000000000E+00 0.  1.
<mgrwt>
<rscale>  0 0.16786593E+04</rscale>
<asrwt>0</asrwt>
<pdfrwt beam="1">  1        1 0.20908249E+00 0.16786593E+04</pdfrwt>
<pdfrwt beam="2">  1       -1 0.79748173E-01 0.16786593E+04</pdfrwt>
<totfact> 0.12293551E+01</totfact>
</mgrwt>
</event>
<event>
12    1  0.1663913E-007  0.1262135E+04  0.7818608E-02  0.9060144E-01
          2   -1    0    0  501    0  0.00000000000E+00  0.00000000000E+00  0.39027085736E+04  0.39027085736E+04  0.00000000000E+00 0. -1.
         -2   -1    0    0    0  501 -0.00000000000E+00 -0.00000000000E+00 -0.10204346253E+03  0.10204346253E+03  0.00000000000E+00 0.  1.
         23    2    1    2    0    0 -0.17458063828E+03  0.17264065901E+03  0.15010043121E+04  0.15236646288E+04  0.90866713273E+02 0.  0.
        254    2    1    2    0    0  0.17458063828E+03 -0.17264065901E+03  0.22996607989E+04  0.24810874073E+04  0.89837171389E+03 0.  0.
        -24    2    4    4    0    0  0.53641500321E+03 -0.76516426114E+02  0.12901232864E+04  0.14015790831E+04  0.80062556033E+02 0.  0.
         24    2    4    4    0    0 -0.36183436493E+03 -0.96124232901E+02  0.10095375125E+04  0.10795083243E+04  0.77512948244E+02 0.  0.
         11    1    3    3    0    0 -0.16797679854E+03  0.16686500051E+03  0.14934051621E+04  0.15120579061E+04  0.00000000000E+00 0. -1.
        -11    1    3    3    0    0 -0.66038397325E+01  0.57756585043E+01  0.75991500604E+01  0.11606722708E+02  0.00000000000E+00 0.  1.
          2    1    6    6  502    0 -0.12206588535E+03 -0.62447772106E+02  0.43310534748E+03  0.45429070717E+03  0.00000000000E+00 0. -1.
          1    1    5    5  503    0  0.53606697017E+03 -0.78839213536E+02  0.12900620000E+04  0.13992295673E+04  0.00000000000E+00 0. -1.
         -2    1    5    5    0  503  0.34803303561E+00  0.23227874223E+01  0.61286383566E-01  0.23495157850E+01  0.00000000000E+00 0.  1.
         -1    1    6    6    0  502 -0.23976847959E+03 -0.33676460795E+02  0.57643216507E+03  0.62521761711E+03  0.00000000000E+00 0.  1.
<mgrwt>
<rscale>  0 0.12621345E+04</rscale>
<asrwt>0</asrwt>
<pdfrwt beam="1">  1        2 0.60041659E+00 0.12621345E+04</pdfrwt>
<pdfrwt beam="2">  1       -2 0.15698997E-01 0.12621345E+04</pdfrwt>
<totfact> 0.13502682E+01</totfact>
</mgrwt>
</event>
<event>
12    1  0.1663913E-007  0.1467566E+04  0.7818608E-02  0.8906313E-01
         -2   -1    0    0    0  501 -0.00000000000E+00  0.00000000000E+00  0.46058601510E+03  0.46058601510E+03  0.00000000000E+00 0.  1.
          2   -1    0    0  501    0  0.00000000000E+00 -0.00000000000E+00 -0.11690263328E+04  0.11690263328E+04  0.00000000000E+00 0. -1.
         23    2    1    2    0    0 -0.34614884524E+03 -0.20263606984E+03  0.14749196419E+02  0.41150927706E+03  0.90785166452E+02 0.  0.
        254    2    1    2    0    0  0.34614884524E+03  0.20263606984E+03 -0.72318951417E+03  0.12181030709E+04  0.89436660159E+03 0.  0.
        -24    2    4    4    0    0  0.45978090578E+03  0.33564963715E+03 -0.12279150399E+03  0.58774796511E+03  0.79440271895E+02 0.  0.
         24    2    4    4    0    0 -0.11363206054E+03 -0.13301356731E+03 -0.60039801018E+03  0.63035510577E+03  0.79151339074E+02 0.  0.
         13    1    3    3    0    0 -0.28978730257E+03 -0.13276073302E+03  0.31081899961E+02  0.32026266949E+03  0.00000000000E+00 0.  1.
        -13    1    3    3    0    0 -0.56361542673E+02 -0.69875336820E+02 -0.16332703542E+02  0.91246607571E+02  0.00000000000E+00 0. -1.
          4    1    6    6  502    0 -0.34525849762E+02 -0.55669793388E+02 -0.11351192012E+03  0.13105768274E+03  0.00000000000E+00 0. -1.
          3    1    5    5  503    0  0.25673641949E+03  0.17927772560E+03 -0.10726560527E+03  0.33099849254E+03  0.00000000000E+00 0. -1.
         -4    1    5    5    0  503  0.20304448629E+03  0.15637191155E+03 -0.15525898723E+02  0.25674947257E+03  0.00000000000E+00 0.  1.
         -3    1    6    6    0  502 -0.79106210778E+02 -0.77343773926E+02 -0.48688609006E+03  0.49929742303E+03  0.00000000000E+00 0.  1.
<mgrwt>
<rscale>  0 0.14675656E+04</rscale>
<asrwt>0</asrwt>
<pdfrwt beam="1">  1        2 0.17985020E+00 0.14675656E+04</pdfrwt>
<pdfrwt beam="2">  1       -2 0.70859388E-01 0.14675656E+04</pdfrwt>
<totfact> 0.34660858E+01</totfact>
</mgrwt>
</event>
<event>
12    1  0.1663913E-007  0.1790347E+04  0.7818608E-02  0.8711450E-01
          2   -1    0    0  501    0  0.00000000000E+00  0.00000000000E+00  0.16029440266E+04  0.16029440266E+04  0.00000000000E+00 0.  1.
         -2   -1    0    0    0  501 -0.00000000000E+00 -0.00000000000E+00 -0.49991476818E+03  0.49991476818E+03  0.00000000000E+00 0. -1.
         23    2    1    2    0    0  0.10126838118E+02  0.11754188677E+02 -0.36258179832E+03  0.37421345252E+03  0.91265731639E+02 0.  0.
        254    2    1    2    0    0 -0.10126838118E+02 -0.11754188677E+02  0.14656110568E+04  0.17286453423E+04  0.91649235452E+03 0.  0.
        -24    2    4    4    0    0  0.78805088639E+02 -0.32152802794E+03  0.15213592360E+03  0.37382821571E+03  0.83735780091E+02 0.  0.
         24    2    4    4    0    0 -0.88931926756E+02  0.30977383927E+03  0.13134751332E+04  0.13548171266E+04  0.80273295111E+02 0.  0.
         11    1    3    3    0    0  0.49805230825E+02 -0.29994027352E+01 -0.17991279589E+03  0.18670343210E+03  0.00000000000E+00 0. -1.
        -11    1    3    3    0    0 -0.39678392707E+02  0.14753591412E+02 -0.18266900244E+03  0.18751002042E+03  0.00000000000E+00 0.  1.
          2    1    6    6  502    0 -0.16382221981E+02  0.17093148048E+03  0.78776914854E+03  0.80626681664E+03  0.00000000000E+00 0. -1.
          3    1    5    5  503    0 -0.54534026990E+01 -0.12878228965E+02  0.26762972541E+02  0.30196772700E+02  0.00000000000E+00 0. -1.
         -4    1    5    5    0  503  0.84258491338E+02 -0.30864979898E+03  0.12537295105E+03  0.34363144301E+03  0.00000000000E+00 0.  1.
         -1    1    6    6    0  502 -0.72549704775E+02  0.13884235878E+03  0.52570598463E+03  0.54855030993E+03  0.00000000000E+00 0.  1.
<mgrwt>
<rscale>  0 0.17903468E+04</rscale>
<asrwt>0</asrwt>
<pdfrwt beam="1">  1        2 0.24660677E+00 0.17903468E+04</pdfrwt>
<pdfrwt beam="2">  1       -2 0.76909965E-01 0.17903468E+04</pdfrwt>
<totfact> 0.15847381E+01</totfact>
</mgrwt>
</event>
<event>
12    1  0.1663913E-007  0.1872040E+04  0.7818608E-02  0.8668900E-01
         -1   -1    0    0    0  501 -0.00000000000E+00  0.00000000000E+00  0.10985614628E+04  0.10985614628E+04  0.00000000000E+00 0.  1.
          1   -1    0    0  501    0  0.00000000000E+00 -0.00000000000E+00 -0.79752801988E+03  0.79752801988E+03  0.00000000000E+00 0. -1.
         23    2    1    2    0    0  0.11037184679E+03 -0.58613091499E+03  0.52506817675E+03  0.79955797641E+03  0.88684684884E+02 0.  0.
        254    2    1    2    0    0 -0.11037184679E+03  0.58613091499E+03 -0.22403473388E+03  0.10965315062E+04  0.89244517373E+03 0.  0.
        -24    2    4    4    0    0  0.21995770224E+03  0.58660296372E+03 -0.36212830595E+03  0.72785785752E+03  0.78458415546E+02 0.  0.
         24    2    4    4    0    0 -0.33032954903E+03 -0.47204872749E+00  0.13809357207E+03  0.36867364872E+03  0.87935151215E+02 0.  0.
         13    1    3    3    0    0  0.34867597859E+02 -0.33422437017E+03  0.24865689007E+03  0.41803340534E+03  0.00000000000E+00 0.  1.
        -13    1    3    3    0    0  0.75504248931E+02 -0.25190654482E+03  0.27641128668E+03  0.38152457107E+03  0.00000000000E+00 0. -1.
          2    1    6    6  502    0 -0.55329475617E+02  0.22424564950E+02  0.53182673811E+02  0.79953791523E+02  0.00000000000E+00 0. -1.
          1    1    5    5  503    0  0.13984840025E+03  0.35482498302E+03 -0.17627204251E+03  0.42015494356E+03  0.00000000000E+00 0. -1.
         -2    1    5    5    0  503  0.80109301994E+02  0.23177798070E+03 -0.18585626343E+03  0.30770291396E+03  0.00000000000E+00 0.  1.
         -1    1    6    6    0  502 -0.27500007341E+03 -0.22896613678E+02  0.84910898259E+02  0.28871985719E+03  0.00000000000E+00 0.  1.
<mgrwt>
<rscale>  0 0.18720401E+04</rscale>
<asrwt>0</asrwt>
<pdfrwt beam="1">  1        1 0.12269662E+00 0.18720401E+04</pdfrwt>
<pdfrwt beam="2">  1       -1 0.16900946E+00 0.18720401E+04</pdfrwt>
<totfact> 0.52144566E+00</totfact>
</mgrwt>
</event>
<event>
12    1  0.1663913E-007  0.3200770E+04  0.7818608E-02  0.8188614E-01
         -2   -1    0    0    0  501 -0.00000000000E+00  0.00000000000E+00  0.62758991354E+03  0.62758991354E+03  0.00000000000E+00 0.  1.
          2   -1    0    0  501    0  0.00000000000E+00 -0.00000000000E+00 -0.40810604699E+04  0.40810604699E+04  0.00000000000E+00 0. -1.
         23    2    1    2    0    0  0.33576413298E+01 -0.12200192900E+04 -0.38261811060E+03  0.12818755966E+04  0.91378799136E+02 0.  0.
        254    2    1    2    0    0 -0.33576413298E+01  0.12200192900E+04 -0.30708524457E+04  0.34267747868E+04  0.90785040317E+03 0.  0.
        -24    2    4    4    0    0 -0.16844032174E+03 -0.43002319591E+02 -0.79713894883E+03  0.81935564430E+03  0.75444195396E+02 0.  0.
         24    2    4    4    0    0  0.16508268041E+03  0.12630216095E+04 -0.22737134969E+04  0.26074191425E+04  0.79910207536E+02 0.  0.
         11    1    3    3    0    0 -0.30460561101E+02 -0.59028749395E+03 -0.15108442751E+03  0.61007677839E+03  0.00000000000E+00 0.  1.
        -11    1    3    3    0    0  0.33818202431E+02 -0.62973179601E+03 -0.23153368309E+03  0.67179881819E+03  0.00000000000E+00 0. -1.
          2    1    6    6  502    0  0.67255455853E+02  0.64616104321E+03 -0.12329633787E+04  0.13936448914E+04  0.00000000000E+00 0. -1.
          1    1    5    5  503    0 -0.12157118141E+03 -0.30614334948E+02 -0.39785662010E+03  0.41714107902E+03  0.00000000000E+00 0. -1.
         -2    1    5    5    0  503 -0.46869140333E+02 -0.12387984643E+02 -0.39928232873E+03  0.40221456527E+03  0.00000000000E+00 0.  1.
         -1    1    6    6    0  502  0.97827224560E+02  0.61686056634E+03 -0.10407501182E+04  0.12137742511E+04  0.00000000000E+00 0.  1.
<mgrwt>
<rscale>  0 0.32007701E+04</rscale>
<asrwt>0</asrwt>
<pdfrwt beam="1">  1        2 0.62785544E+00 0.32007701E+04</pdfrwt>
<pdfrwt beam="2">  1       -2 0.96552297E-01 0.32007701E+04</pdfrwt>
<totfact> 0.22134407E-01</totfact>
</mgrwt>
</event>
<event>
12    1  0.1663913E-007  0.2747831E+04  0.7818608E-02  0.8319650E-01
         -1   -1    0    0    0  501 -0.00000000000E+00  0.00000000000E+00  0.11443999002E+04  0.11443999002E+04  0.00000000000E+00 0.  1.
          1   -1    0    0  501    0  0.00000000000E+00 -0.00000000000E+00 -0.16494622910E+04  0.16494622910E+04  0.00000000000E+00 0. -1.
         23    2    1    2    0    0  0.16931149999E+03  0.68578825362E+03 -0.12400597907E+04  0.14300533918E+04  0.91282560619E+02 0.  0.
        254    2    1    2    0    0 -0.16931149999E+03 -0.68578825362E+03  0.73499739993E+03  0.13638087994E+04  0.90596983978E+03 0.  0.
        -24    2    4    4    0    0  0.87380707193E+02  0.19007720972E+03  0.80477876649E+02  0.23794141487E+03  0.79841684820E+02 0.  0.
         24    2    4    4    0    0 -0.25669220718E+03 -0.87586546334E+03  0.65451952328E+03  0.11258673845E+04  0.78424244272E+02 0.  0.
         13    1    3    3    0    0  0.84796170558E+02  0.39126463942E+03 -0.61329831167E+03  0.73240236735E+03  0.00000000000E+00 0.  1.
        -13    1    3    3    0    0  0.84515329432E+02  0.29452361420E+03 -0.62676147908E+03  0.69765102443E+03  0.00000000000E+00 0. -1.
          4    1    6    6  502    0 -0.23536543407E+03 -0.82017486572E+03  0.58649103459E+03  0.10354010969E+04  0.00000000000E+00 0. -1.
          1    1    5    5  503    0  0.98110473571E+02  0.17745759379E+03  0.59719775140E+02  0.21138428078E+03  0.00000000000E+00 0. -1.
         -2    1    5    5    0  503 -0.10729766378E+02  0.12619615932E+02  0.20758101509E+02  0.26557134090E+02  0.00000000000E+00 0.  1.
         -3    1    6    6    0  502 -0.21326773109E+02 -0.55690597626E+02  0.68028488689E+02  0.90466287580E+02  0.00000000000E+00 0.  1.
<mgrwt>
<rscale>  0 0.27478315E+04</rscale>
<asrwt>0</asrwt>
<pdfrwt beam="1">  1        1 0.25376343E+00 0.27478315E+04</pdfrwt>
<pdfrwt beam="2">  1       -1 0.17606152E+00 0.27478315E+04</pdfrwt>
<totfact> 0.99723244E-01</totfact>
</mgrwt>
</event>
<event>
12    1  0.1663913E-007  0.1414204E+04  0.7818608E-02  0.8943601E-01
         -2   -1    0    0    0  501 -0.00000000000E+00  0.00000000000E+00  0.23488100505E+03  0.23488100505E+03  0.00000000000E+00 0.  1.
          2   -1    0    0  501    0  0.00000000000E+00 -0.00000000000E+00 -0.21287089457E+04  0.21287089457E+04  0.00000000000E+00 0. -1.
         23    2    1    2    0    0 -0.16378778162E+03  0.11806215771E+03  0.19089109529E+02  0.22247549137E+03  0.91464964141E+02 0.  0.
        254    2    1    2    0    0  0.16378778162E+03 -0.11806215771E+03 -0.19129170501E+04  0.21411144593E+04  0.94040117864E+03 0.  0.
        -24    2    4    4    0    0  0.46866651659E+02 -0.46598403523E+03 -0.55002242771E+03  0.72741792727E+03  0.85291065236E+02 0.  0.
         24    2    4    4    0    0  0.11692112997E+03  0.34792187752E+03 -0.13628946224E+04  0.14136965321E+04  0.79598677338E+02 0.  0.
         11    1    3    3    0    0 -0.14603505412E+03  0.93829690264E+02  0.48712615875E+02  0.18028634655E+03  0.00000000000E+00 0.  1.
        -11    1    3    3    0    0 -0.17752727502E+02  0.24232467446E+02 -0.29623506346E+02  0.42189144818E+02  0.00000000000E+00 0. -1.
          2    1    6    6  502    0  0.12550931017E+03  0.34368964724E+03 -0.13331797127E+04  0.13824772356E+04  0.00000000000E+00 0. -1.
          1    1    5    5  503    0  0.19875104026E+02 -0.24166723711E+03 -0.21964176772E+03  0.32717056619E+03  0.00000000000E+00 0. -1.
         -2    1    5    5    0  503  0.26991547633E+02 -0.22431679812E+03 -0.33038065998E+03  0.40024736108E+03  0.00000000000E+00 0.  1.
         -1    1    6    6    0  502 -0.85881802026E+01  0.42322302756E+01 -0.29714909733E+02  0.31219296481E+02  0.00000000000E+00 0.  1.
<mgrwt>
<rscale>  0 0.14142041E+04</rscale>
<asrwt>0</asrwt>
<pdfrwt beam="1">  1        2 0.32749369E+00 0.14142041E+04</pdfrwt>
<pdfrwt beam="2">  1       -2 0.36135539E-01 0.14142041E+04</pdfrwt>
<totfact> 0.39712735E+01</totfact>
</mgrwt>
</event>
<event>
12    1  0.1663913E-007  0.1192926E+04  0.7818608E-02  0.9119071E-01
          2   -1    0    0  501    0  0.00000000000E+00  0.00000000000E+00  0.32891123988E+04  0.32891123988E+04  0.00000000000E+00 0. -1.
         -2   -1    0    0    0  501 -0.00000000000E+00 -0.00000000000E+00 -0.10816537046E+03  0.10816537046E+03  0.00000000000E+00 0.  1.
         23    2    1    2    0    0 -0.22506792484E+03  0.57556126128E+02  0.93147564660E+03  0.96431469401E+03  0.91036643319E+02 0.  0.
        254    2    1    2    0    0  0.22506792484E+03 -0.57556126128E+02  0.22494713817E+04  0.24329630752E+04  0.89734026425E+03 0.  0.
        -24    2    4    4    0    0  0.11808195583E+03 -0.36607446451E+03  0.19289274009E+04  0.19684542697E+04  0.78086056384E+02 0.  0.
         24    2    4    4    0    0  0.10698596901E+03  0.30851833838E+03  0.32054398081E+03  0.46450880550E+03  0.79940128059E+02 0.  0.
         13    1    3    3    0    0 -0.14496538620E+03  0.51299445923E+02  0.75367896923E+03  0.76920646448E+03  0.00000000000E+00 0. -1.
        -13    1    3    3    0    0 -0.80102538640E+02  0.62566802044E+01  0.17779667737E+03  0.19510822952E+03  0.00000000000E+00 0.  1.
          4    1    6    6  502    0  0.60772056236E+01 -0.11654365917E+01 -0.16093165488E+01  0.63937915507E+01  0.00000000000E+00 0. -1.
          3    1    5    5  503    0  0.29357689708E+02 -0.80728327789E+02  0.61533485570E+03  0.62130179582E+03  0.00000000000E+00 0. -1.
         -4    1    5    5    0  503  0.88724266124E+02 -0.28534613672E+03  0.13135925452E+04  0.13471524739E+04  0.00000000000E+00 0.  1.
         -3    1    6    6    0  502  0.10090876338E+03  0.30968377497E+03  0.32215329736E+03  0.45811501395E+03  0.00000000000E+00 0.  1.
<mgrwt>
<rscale>  0 0.11929259E+04</rscale>
<asrwt>0</asrwt>
<pdfrwt beam="1">  1        2 0.50601722E+00 0.11929259E+04</pdfrwt>
<pdfrwt beam="2">  1       -2 0.16640829E-01 0.11929259E+04</pdfrwt>
<totfact> 0.33590789E+01</totfact>
</mgrwt>
</event>
<event>
12    1  0.1663913E-007  0.3212217E+04  0.7818608E-02  0.8185598E-01
          2   -1    0    0  501    0  0.00000000000E+00  0.00000000000E+00  0.21626619207E+04  0.21626619207E+04  0.00000000000E+00 0. -1.
         -2   -1    0    0    0  501 -0.00000000000E+00 -0.00000000000E+00 -0.11927818401E+04  0.11927818401E+04  0.00000000000E+00 0.  1.
         23    2    1    2    0    0 -0.50009216881E+03 -0.29583538741E+03  0.18691852186E+04  0.19600970406E+04  0.10254888189E+03 0.  0.
        254    2    1    2    0    0  0.50009216881E+03  0.29583538741E+03 -0.89930513803E+03  0.13953467202E+04  0.89478041137E+03 0.  0.
        -24    2    4    4    0    0 -0.17373237389E+03  0.27815148548E+03 -0.51328545685E+03  0.61445671283E+03  0.80894407196E+02 0.  0.
         24    2    4    4    0    0  0.67382454271E+03  0.17683901927E+02 -0.38601968119E+03  0.78089000738E+03  0.80160929544E+02 0.  0.
         11    1    3    3    0    0 -0.10355853217E+03 -0.10339743196E+03  0.55494065749E+03  0.57391160631E+03  0.00000000000E+00 0. -1.
        -11    1    3    3    0    0 -0.39653363664E+03 -0.19243795545E+03  0.13142445611E+04  0.13861854343E+04  0.00000000000E+00 0.  1.
          2    1    6    6  502    0  0.43228677850E+03  0.25063786703E+02 -0.28841459678E+03  0.52027207488E+03  0.00000000000E+00 0. -1.
          3    1    5    5  503    0 -0.13725524900E+02  0.55965608663E+01 -0.60414739629E+02  0.62206529334E+02  0.00000000000E+00 0. -1.
         -4    1    5    5    0  503 -0.16000684899E+03  0.27255492461E+03 -0.45287071722E+03  0.55225018350E+03  0.00000000000E+00 0.  1.
         -1    1    6    6    0  502  0.24153776421E+03 -0.73798847757E+01 -0.97605084408E+02  0.26061793250E+03  0.00000000000E+00 0.  1.
<mgrwt>
<rscale>  0 0.32122166E+04</rscale>
<asrwt>0</asrwt>
<pdfrwt beam="1">  1        2 0.33271722E+00 0.32122166E+04</pdfrwt>
<pdfrwt beam="2">  1       -2 0.18350490E+00 0.32122166E+04</pdfrwt>
<totfact> 0.78205003E-01</totfact>
</mgrwt>
</event>
<event>
12    1  0.1916300E-007  0.1785646E+04  0.7818608E-02  0.8713970E-01
          2   -1    0    0  501    0  0.00000000000E+00  0.00000000000E+00  0.15231239140E+04  0.15231239140E+04  0.00000000000E+00 0. -1.
         -2   -1    0    0    0  501 -0.00000000000E+00 -0.00000000000E+00 -0.52335365527E+03  0.52335365527E+03  0.00000000000E+00 0.  1.
         23    2    1    2    0    0 -0.39043577445E+03 -0.46160225130E+03  0.66894892022E+03  0.90630588879E+03  0.91547658701E+02 0.  0.
        254    2    1    2    0    0  0.39043577445E+03  0.46160225130E+03  0.33082133850E+03  0.11401716805E+04  0.90831270526E+03 0.  0.
        -24    2    4    4    0    0  0.21584896583E+03  0.31103088291E+03 -0.28300520318E+03  0.47940293310E+03  0.80026502239E+02 0.  0.
         24    2    4    4    0    0  0.17458680862E+03  0.15057136839E+03  0.61382654167E+03  0.66076874736E+03  0.81731410782E+02 0.  0.
         13    1    3    3    0    0 -0.64249465868E+02 -0.85642486416E+02  0.71758016729E+02  0.12888693614E+03  0.00000000000E+00 0. -1.
        -13    1    3    3    0    0 -0.32618630858E+03 -0.37595976489E+03  0.59719090349E+03  0.77741895264E+03  0.00000000000E+00 0.  1.
          2    1    6    6  502    0 -0.69727392366E+00 -0.78092725763E+01  0.13194949484E+02  0.15348538073E+02  0.00000000000E+00 0. -1.
          1    1    5    5  503    0  0.60154980767E+02  0.11185620479E+03 -0.52991901753E+02  0.13761749130E+03  0.00000000000E+00 0. -1.
         -2    1    5    5    0  503  0.15569398506E+03  0.19917467812E+03 -0.23001330142E+03  0.34178544179E+03  0.00000000000E+00 0.  1.
         -1    1    6    6    0  502  0.17528408254E+03  0.15838064097E+03  0.60063159219E+03  0.64542020929E+03  0.00000000000E+00 0.  1.
<mgrwt>
<rscale>  0 0.17856455E+04</rscale>
<asrwt>0</asrwt>
<pdfrwt beam="1">  1        2 0.23432675E+00 0.17856455E+04</pdfrwt>
<pdfrwt beam="2">  1       -2 0.80515947E-01 0.17856455E+04</pdfrwt>
<totfact> 0.15861445E+01</totfact>
</mgrwt>
</event>
<event>
12    1  0.1663913E-007  0.1819619E+04  0.7818608E-02  0.8695935E-01
          1   -1    0    0  501    0  0.00000000000E+00  0.00000000000E+00  0.14051601412E+04  0.14051601412E+04  0.00000000000E+00 0. -1.
         -1   -1    0    0    0  501 -0.00000000000E+00 -0.00000000000E+00 -0.58908141364E+03  0.58908141364E+03  0.00000000000E+00 0.  1.
         23    2    1    2    0    0 -0.55894513793E+02 -0.11727645710E+02  0.10485705385E+04  0.10541019989E+04  0.91482869485E+02 0.  0.
        254    2    1    2    0    0  0.55894513793E+02  0.11727645710E+02 -0.23249181092E+03  0.94013955602E+03  0.90914696738E+03 0.  0.
        -24    2    4    4    0    0  0.20408052151E+03  0.29560854360E+03 -0.42085986728E+03  0.55996450092E+03  0.86046174185E+02 0.  0.
         24    2    4    4    0    0 -0.14818600772E+03 -0.28388089789E+03  0.18836805636E+03  0.38017505510E+03  0.80641743515E+02 0.  0.
         13    1    3    3    0    0  0.21514031372E+02  0.10417020729E+02  0.14560289224E+03  0.14755192339E+03  0.00000000000E+00 0.  1.
        -13    1    3    3    0    0 -0.77408545166E+02 -0.22144666439E+02  0.90296764628E+03  0.90655007547E+03  0.00000000000E+00 0. -1.
          2    1    6    6  502    0 -0.54263433511E+02 -0.15889941796E+03  0.13341301141E+03  0.21445879991E+03  0.00000000000E+00 0. -1.
          3    1    5    5  503    0  0.13913970624E+03  0.17660626149E+03 -0.31956729031E+03  0.39073377444E+03  0.00000000000E+00 0. -1.
         -4    1    5    5    0  503  0.64940815270E+02  0.11900228211E+03 -0.10129257697E+03  0.16923072648E+03  0.00000000000E+00 0.  1.
         -1    1    6    6    0  502 -0.93922574204E+02 -0.12498147992E+03  0.54955044948E+02  0.16571625519E+03  0.00000000000E+00 0.  1.
<mgrwt>
<rscale>  0 0.18196194E+04</rscale>
<asrwt>0</asrwt>
<pdfrwt beam="1">  1        1 0.21617848E+00 0.18196194E+04</pdfrwt>
<pdfrwt beam="2">  1       -1 0.90627910E-01 0.18196194E+04</pdfrwt>
<totfact> 0.85373710E+00</totfact>
</mgrwt>
</event>
<event>
12    1  0.1663913E-007  0.1886725E+04  0.7818608E-02  0.8661493E-01
         -1   -1    0    0    0  501 -0.00000000000E+00  0.00000000000E+00  0.12792837299E+04  0.12792837299E+04  0.00000000000E+00 0.  1.
          1   -1    0    0  501    0  0.00000000000E+00 -0.00000000000E+00 -0.69564926688E+03  0.69564926688E+03  0.00000000000E+00 0. -1.
         23    2    1    2    0    0  0.46369428073E+03  0.51350622935E+03 -0.82477610763E+01  0.69790942493E+03  0.91151008132E+02 0.  0.
        254    2    1    2    0    0 -0.46369428073E+03 -0.51350622935E+03  0.59188222411E+03  0.12770235719E+04  0.89541253190E+03 0.  0.
        -24    2    4    4    0    0 -0.11975687320E+03  0.24599468457E+03  0.81803768619E+02  0.29649948180E+03  0.79780903932E+02 0.  0.
         24    2    4    4    0    0 -0.34393740753E+03 -0.75950091392E+03  0.51007845549E+03  0.98052409006E+03  0.78184921052E+02 0.  0.
         11    1    3    3    0    0  0.32417574889E+03  0.38810247713E+03 -0.41538526527E+02  0.50738436920E+03  0.00000000000E+00 0. -1.
        -11    1    3    3    0    0  0.13951853184E+03  0.12540375223E+03  0.33290765450E+02  0.19052505574E+03  0.00000000000E+00 0.  1.
          4    1    6    6  502    0 -0.23155735978E+02 -0.18337204927E+02  0.13596384217E+02  0.32516193766E+02  0.00000000000E+00 0. -1.
          3    1    5    5  503    0 -0.15938150451E+02  0.11247314055E+02  0.28187900125E+02  0.34279504470E+02  0.00000000000E+00 0. -1.
         -4    1    5    5    0  503 -0.10381872275E+03  0.23474737051E+03  0.53615868494E+02  0.26221997733E+03  0.00000000000E+00 0.  1.
         -1    1    6    6    0  502 -0.32078167155E+03 -0.74116370899E+03  0.49648207127E+03  0.94800789629E+03  0.00000000000E+00 0.  1.
<mgrwt>
<rscale>  0 0.18867250E+04</rscale>
<asrwt>0</asrwt>
<pdfrwt beam="1">  1        1 0.10702296E+00 0.18867250E+04</pdfrwt>
<pdfrwt beam="2">  1       -1 0.19681288E+00 0.18867250E+04</pdfrwt>
<totfact> 0.40788503E+00</totfact>
</mgrwt>
</event>
<event>
12    1  0.1663913E-007  0.1168320E+04  0.7818608E-02  0.9141047E-01
         -3   -1    0    0    0  501 -0.00000000000E+00  0.00000000000E+00  0.10449124667E+03  0.10449124667E+03  0.00000000000E+00 0. -1.
          3   -1    0    0  501    0  0.00000000000E+00 -0.00000000000E+00 -0.32657564602E+04  0.32657564602E+04  0.00000000000E+00 0.  1.
         23    2    1    2    0    0 -0.56185647740E+02  0.13078432164E+03 -0.15308508118E+03  0.22869945227E+03  0.92774089008E+02 0.  0.
        254    2    1    2    0    0  0.56185647740E+02 -0.13078432164E+03 -0.30081801323E+04  0.31415482546E+04  0.89438043439E+03 0.  0.
        -24    2    4    4    0    0 -0.25350344911E+03  0.26313474135E+03 -0.16508907143E+04  0.16925045539E+04  0.75017486886E+02 0.  0.
         24    2    4    4    0    0  0.30968909685E+03 -0.39391906299E+03 -0.13572894180E+04  0.14490437007E+04  0.80084439586E+02 0.  0.
         13    1    3    3    0    0 -0.22145742211E+02  0.67263726125E+01 -0.74361374075E+02  0.77879984212E+02  0.00000000000E+00 0.  1.
        -13    1    3    3    0    0 -0.34039905529E+02  0.12405794903E+03 -0.78723707100E+02  0.15081946806E+03  0.00000000000E+00 0. -1.
          4    1    6    6  502    0  0.19053135851E+03 -0.19865304763E+03 -0.82417511359E+03  0.86892453629E+03  0.00000000000E+00 0. -1.
          1    1    5    5  503    0 -0.39415437099E+02  0.79798881486E+02 -0.47857945116E+03  0.48678509554E+03  0.00000000000E+00 0. -1.
         -2    1    5    5    0  503 -0.21408801201E+03  0.18333585987E+03 -0.11723112632E+04  0.12057194583E+04  0.00000000000E+00 0.  1.
         -3    1    6    6    0  502  0.11915773834E+03 -0.19526601537E+03 -0.53311430442E+03  0.58011916443E+03  0.00000000000E+00 0.  1.
<mgrwt>
<rscale>  0 0.11683201E+04</rscale>
<asrwt>0</asrwt>
<pdfrwt beam="1">  1        3 0.50242402E+00 0.11683201E+04</pdfrwt>
<pdfrwt beam="2">  1       -3 0.16075578E-01 0.11683201E+04</pdfrwt>
<totfact> 0.30104518E-01</totfact>
</mgrwt>
</event>
<event>
12    1  0.1663913E-007  0.1263652E+04  0.7818608E-02  0.9058896E-01
         -2   -1    0    0    0  501 -0.00000000000E+00  0.00000000000E+00  0.20663151330E+03  0.20663151330E+03  0.00000000000E+00 0. -1.
          2   -1    0    0  501    0  0.00000000000E+00 -0.00000000000E+00 -0.19319622853E+04  0.19319622853E+04  0.00000000000E+00 0.  1.
         23    2    1    2    0    0  0.25356990686E+03 -0.13898115621E+03 -0.49704864291E+03  0.58002718141E+03  0.75899396044E+02 0.  0.
        254    2    1    2    0    0 -0.25356990686E+03  0.13898115621E+03 -0.12282821291E+04  0.15585666172E+04  0.91478929384E+03 0.  0.
        -24    2    4    4    0    0 -0.34875758237E+03  0.39862993749E+03 -0.11359613494E+04  0.12560617141E+04  0.82128946538E+02 0.  0.
         24    2    4    4    0    0  0.95187675516E+02 -0.25964878127E+03 -0.92320779699E+02  0.30250490314E+03  0.80671598912E+02 0.  0.
         11    1    3    3    0    0  0.19603217007E+03 -0.13032648954E+03 -0.43726713242E+03  0.49660462208E+03  0.00000000000E+00 0.  1.
        -11    1    3    3    0    0  0.57537736784E+02 -0.86546666700E+01 -0.59781510487E+02  0.83422559332E+02  0.00000000000E+00 0. -1.
          2    1    6    6  502    0  0.52502681476E+02 -0.44820924204E+02 -0.23372649723E+02  0.72881599624E+02  0.00000000000E+00 0. -1.
          1    1    5    5  503    0 -0.98902576930E+02  0.67879205316E+02 -0.29615867419E+03  0.31952975845E+03  0.00000000000E+00 0. -1.
         -2    1    5    5    0  503 -0.24985500544E+03  0.33075073217E+03 -0.83980267520E+03  0.93653195560E+03  0.00000000000E+00 0.  1.
         -1    1    6    6    0  502  0.42684994040E+02 -0.21482785707E+03 -0.68948129976E+02  0.22962330351E+03  0.00000000000E+00 0.  1.
<mgrwt>
<rscale>  0 0.12636523E+04</rscale>
<asrwt>0</asrwt>
<pdfrwt beam="1">  1        2 0.29722497E+00 0.12636523E+04</pdfrwt>
<pdfrwt beam="2">  1       -2 0.31789464E-01 0.12636523E+04</pdfrwt>
<totfact> 0.65923280E+01</totfact>
</mgrwt>
</event>
<event>
12    1  0.1663913E-007  0.1185223E+04  0.7818608E-02  0.9125890E-01
         -1   -1    0    0    0  501 -0.00000000000E+00  0.00000000000E+00  0.27968232873E+03  0.27968232873E+03  0.00000000000E+00 0.  1.
          1   -1    0    0  501    0  0.00000000000E+00 -0.00000000000E+00 -0.12556688020E+04  0.12556688020E+04  0.00000000000E+00 0. -1.
         23    2    1    2    0    0 -0.17607744908E+03  0.12223584241E+03 -0.81973158869E+02  0.24825721633E+03  0.94695181726E+02 0.  0.
        254    2    1    2    0    0  0.17607744908E+03 -0.12223584241E+03 -0.89401331435E+03  0.12870939143E+04  0.90078081067E+03 0.  0.
        -24    2    4    4    0    0  0.35113924012E+03 -0.36233048610E+03 -0.82791088102E+03  0.97235053902E+03  0.73803771618E+02 0.  0.
         24    2    4    4    0    0 -0.17506179104E+03  0.24009464368E+03 -0.66102433329E+02  0.31474337533E+03  0.80011199304E+02 0.  0.
         13    1    3    3    0    0 -0.25568987212E+02 -0.12554320315E+02  0.38471195274E+01  0.28743423496E+02  0.00000000000E+00 0. -1.
        -13    1    3    3    0    0 -0.15050846187E+03  0.13479016273E+03 -0.85820278397E+02  0.21951379284E+03  0.00000000000E+00 0.  1.
          4    1    6    6  502    0 -0.12490117808E+03  0.20467979589E+03 -0.25502127710E+02  0.24113166869E+03  0.00000000000E+00 0. -1.
          1    1    5    5  503    0  0.25603291089E+03 -0.25950207359E+03 -0.65715665371E+03  0.75149786771E+03  0.00000000000E+00 0. -1.
         -4    1    5    5    0  503  0.95106329237E+02 -0.10282841251E+03 -0.17075422731E+03  0.22085267131E+03  0.00000000000E+00 0.  1.
         -3    1    6    6    0  502 -0.50160612968E+02  0.35414847796E+02 -0.40600305619E+02  0.73611706638E+02  0.00000000000E+00 0.  1.
<mgrwt>
<rscale>  0 0.11852230E+04</rscale>
<asrwt>0</asrwt>
<pdfrwt beam="1">  1        1 0.19317981E+00 0.11852230E+04</pdfrwt>
<pdfrwt beam="2">  1       -1 0.43028051E-01 0.11852230E+04</pdfrwt>
<totfact> 0.51322587E+01</totfact>
</mgrwt>
</event>
<event>
12    1  0.1663913E-007  0.2081011E+04  0.7818608E-02  0.8569655E-01
         -2   -1    0    0    0  501 -0.00000000000E+00  0.00000000000E+00  0.10327691013E+04  0.10327691013E+04  0.00000000000E+00 0.  1.
          2   -1    0    0  501    0  0.00000000000E+00 -0.00000000000E+00 -0.10482994967E+04  0.10482994967E+04  0.00000000000E+00 0. -1.
         23    2    1    2    0    0  0.64023850383E+03  0.51084360530E+02 -0.55618192685E+03  0.85404074629E+03  0.86788863818E+02 0.  0.
        254    2    1    2    0    0 -0.64023850383E+03 -0.51084360530E+02  0.54065153144E+03  0.12270278516E+04  0.89486217742E+03 0.  0.
        -24    2    4    4    0    0 -0.16833624998E+03 -0.35508526259E+03  0.52281711283E+03  0.65876259954E+03  0.78789544454E+02 0.  0.
         24    2    4    4    0    0 -0.47190225386E+03  0.30400090206E+03  0.17834418608E+02  0.56826525210E+03  0.86597024267E+02 0.  0.
         13    1    3    3    0    0  0.38973188305E+03 -0.97692181112E+01 -0.31889550362E+03  0.50366727164E+03  0.00000000000E+00 0. -1.
        -13    1    3    3    0    0  0.25050662078E+03  0.60853578641E+02 -0.23728642323E+03  0.35037347465E+03  0.00000000000E+00 0.  1.
          4    1    6    6  502    0 -0.13141889118E+03  0.66743245597E+02 -0.30334078531E+02  0.15048502288E+03  0.00000000000E+00 0. -1.
          1    1    5    5  503    0 -0.13257188472E+03 -0.31671527646E+03  0.48442437474E+03  0.59375992270E+03  0.00000000000E+00 0. -1.
         -2    1    5    5    0  503 -0.35764365259E+02 -0.38369986130E+02  0.38392738088E+02  0.65002676836E+02  0.00000000000E+00 0.  1.
         -3    1    6    6    0  502 -0.34048336268E+03  0.23725765647E+03  0.48168497140E+02  0.41778022922E+03  0.00000000000E+00 0.  1.
<mgrwt>
<rscale>  0 0.20810106E+04</rscale>
<asrwt>0</asrwt>
<pdfrwt beam="1">  1        2 0.16127685E+00 0.20810106E+04</pdfrwt>
<pdfrwt beam="2">  1       -2 0.15888755E+00 0.20810106E+04</pdfrwt>
<totfact> 0.55597840E+00</totfact>
</mgrwt>
</event>
<event>
12    1  0.1663913E-007  0.1281642E+04  0.7818608E-02  0.9044251E-01
         -2   -1    0    0    0  501 -0.00000000000E+00  0.00000000000E+00  0.12386307534E+04  0.12386307534E+04  0.00000000000E+00 0. -1.
          2   -1    0    0  501    0  0.00000000000E+00 -0.00000000000E+00 -0.33153678313E+03  0.33153678313E+03  0.00000000000E+00 0.  1.
         23    2    1    2    0    0 -0.13120061609E+03  0.23125337052E+03  0.44085086350E+03  0.52270434381E+03  0.90435745976E+02 0.  0.
        254    2    1    2    0    0  0.13120061609E+03 -0.23125337052E+03  0.46624310673E+03  0.10474631927E+04  0.89950251941E+03 0.  0.
        -24    2    4    4    0    0  0.24816680773E+03 -0.16256593864E+02  0.67039059422E+03  0.71900914713E+03  0.75495453698E+02 0.  0.
         24    2    4    4    0    0 -0.11696619164E+03 -0.21499677665E+03 -0.20414748750E+03  0.32845404556E+03  0.79379842759E+02 0.  0.
         11    1    3    3    0    0 -0.89085464755E+01  0.23467622344E+02  0.11294067166E+03  0.11569652896E+03  0.00000000000E+00 0. -1.
        -11    1    3    3    0    0 -0.12229206962E+03  0.20778574817E+03  0.32791019184E+03  0.40700781485E+03  0.00000000000E+00 0.  1.
          4    1    6    6  502    0 -0.47127208370E+02 -0.30263662511E+02 -0.70273339450E+02  0.89862145950E+02  0.00000000000E+00 0. -1.
          1    1    5    5  503    0  0.22135894497E+03  0.10622616041E+02  0.55895608811E+03  0.60128573152E+03  0.00000000000E+00 0. -1.
         -2    1    5    5    0  503  0.26807862762E+02 -0.26879209905E+02  0.11143450611E+03  0.11772341561E+03  0.00000000000E+00 0.  1.
         -3    1    6    6    0  502 -0.69838983267E+02 -0.18473311414E+03 -0.13387414805E+03  0.23859189961E+03  0.00000000000E+00 0.  1.
<mgrwt>
<rscale>  0 0.12816422E+04</rscale>
<asrwt>0</asrwt>
<pdfrwt beam="1">  1        2 0.51005660E-01 0.12816422E+04</pdfrwt>
<pdfrwt beam="2">  1       -2 0.19055858E+00 0.12816422E+04</pdfrwt>
<totfact> 0.14793022E+01</totfact>
</mgrwt>
</event>
<event>
12    1  0.1663913E-007  0.1425273E+04  0.7818608E-02  0.8935725E-01
         -1   -1    0    0    0  501 -0.00000000000E+00  0.00000000000E+00  0.31861114941E+03  0.31861114941E+03  0.00000000000E+00 0.  1.
          1   -1    0    0  501    0  0.00000000000E+00 -0.00000000000E+00 -0.15939510001E+04  0.15939510001E+04  0.00000000000E+00 0. -1.
         23    2    1    2    0    0 -0.32730257264E+03 -0.27043802677E+03 -0.52163077206E+03  0.67863585384E+03  0.90466896579E+02 0.  0.
        254    2    1    2    0    0  0.32730257264E+03  0.27043802677E+03 -0.75370907864E+03  0.12339262957E+04  0.87990512419E+03 0.  0.
        -24    2    4    4    0    0  0.56745667923E+03  0.37618634294E+03 -0.63703689548E+03  0.93589070946E+03  0.80945453414E+02 0.  0.
         24    2    4    4    0    0 -0.24015410658E+03 -0.10574831618E+03 -0.11667218316E+03  0.29803558623E+03  0.79725222191E+02 0.  0.
         13    1    3    3    0    0 -0.20279242805E+03 -0.22150572534E+03 -0.35874713141E+03  0.46785581062E+03  0.00000000000E+00 0. -1.
        -13    1    3    3    0    0 -0.12451014459E+03 -0.48932301422E+02 -0.16288364065E+03  0.21078004322E+03  0.00000000000E+00 0.  1.
          4    1    6    6  502    0  0.47365868967E+01  0.16087602084E+01 -0.79393579116E+01  0.93838568236E+01  0.00000000000E+00 0. -1.
          3    1    5    5  503    0  0.95605258521E+02  0.10098384519E+03 -0.11799353078E+03  0.18237482214E+03  0.00000000000E+00 0. -1.
         -4    1    5    5    0  503  0.47185142071E+03  0.27520249775E+03 -0.51904336470E+03  0.75351588731E+03  0.00000000000E+00 0.  1.
         -3    1    6    6    0  502 -0.24489069348E+03 -0.10735707639E+03 -0.10873282525E+03  0.28865172941E+03  0.00000000000E+00 0.  1.
<mgrwt>
<rscale>  0 0.14252727E+04</rscale>
<asrwt>0</asrwt>
<pdfrwt beam="1">  1        1 0.24522324E+00 0.14252727E+04</pdfrwt>
<pdfrwt beam="2">  1       -1 0.49017099E-01 0.14252727E+04</pdfrwt>
<totfact> 0.22853121E+01</totfact>
</mgrwt>
</event>
<event>
12    1  0.1663913E-007  0.1579366E+04  0.7818608E-02  0.8833325E-01
          1   -1    0    0  501    0  0.00000000000E+00  0.00000000000E+00  0.89762651709E+03  0.89762651709E+03  0.00000000000E+00 0. -1.
         -1   -1    0    0    0  501 -0.00000000000E+00 -0.00000000000E+00 -0.69472026260E+03  0.69472026260E+03  0.00000000000E+00 0.  1.
         23    2    1    2    0    0 -0.62300348572E+01  0.46400120913E+03  0.30955869745E+03  0.56528655018E+03  0.91577078112E+02 0.  0.
        254    2    1    2    0    0  0.62300348572E+01 -0.46400120913E+03 -0.10665244296E+03  0.10270602295E+04  0.91002309643E+03 0.  0.
        -24    2    4    4    0    0 -0.26275045287E+03 -0.49649118414E+03 -0.33766305535E+03  0.66006740642E+03  0.78302909586E+02 0.  0.
         24    2    4    4    0    0  0.26898048773E+03  0.32489975010E+02  0.23101061239E+03  0.36699282309E+03  0.88947894340E+02 0.  0.
         13    1    3    3    0    0  0.80293264769E+01  0.33527406187E+03  0.26790331582E+03  0.42923810790E+03  0.00000000000E+00 0. -1.
        -13    1    3    3    0    0 -0.14259361334E+02  0.12872714726E+03  0.41655381632E+02  0.13604844228E+03  0.00000000000E+00 0.  1.
          2    1    6    6  502    0  0.79189847218E+02 -0.39712476476E+01  0.21912586128E+02  0.82261559316E+02  0.00000000000E+00 0. -1.
          1    1    5    5  503    0 -0.10153384198E+03 -0.17399485300E+03 -0.79264677389E+02  0.21648607119E+03  0.00000000000E+00 0. -1.
         -2    1    5    5    0  503 -0.16121661089E+03 -0.32249633114E+03 -0.25839837797E+03  0.44358133522E+03  0.00000000000E+00 0.  1.
         -1    1    6    6    0  502  0.18979064051E+03  0.36461222657E+02  0.20909802626E+03  0.28473126378E+03  0.00000000000E+00 0.  1.
<mgrwt>
<rscale>  0 0.15793661E+04</rscale>
<asrwt>0</asrwt>
<pdfrwt beam="1">  1        1 0.13809639E+00 0.15793661E+04</pdfrwt>
<pdfrwt beam="2">  1       -1 0.10688004E+00 0.15793661E+04</pdfrwt>
<totfact> 0.14352915E+01</totfact>
</mgrwt>
</event>
<event>
12    1  0.1663913E-007  0.1648987E+04  0.7818608E-02  0.8791006E-01
         -2   -1    0    0    0  501 -0.00000000000E+00  0.00000000000E+00  0.54505435979E+03  0.54505435979E+03  0.00000000000E+00 0. -1.
          2   -1    0    0  501    0  0.00000000000E+00 -0.00000000000E+00 -0.12471959536E+04  0.12471959536E+04  0.00000000000E+00 0.  1.
         23    2    1    2    0    0  0.21859758379E+03 -0.52148952321E+03 -0.41830495824E+03  0.70906883282E+03  0.89796130920E+02 0.  0.
        254    2    1    2    0    0 -0.21859758379E+03  0.52148952321E+03 -0.28383663559E+03  0.10831814806E+04  0.87919432309E+03 0.  0.
        -24    2    4    4    0    0  0.79877366380E+02 -0.59617715872E+02 -0.39574241038E+03  0.41561819354E+03  0.78687748250E+02 0.  0.
         24    2    4    4    0    0 -0.29847495017E+03  0.58110723908E+03  0.11190577479E+03  0.66756328706E+03  0.79655009939E+02 0.  0.
         11    1    3    3    0    0  0.38800511789E+02 -0.59200613457E+02 -0.88875204003E+02  0.11361775493E+03  0.00000000000E+00 0.  1.
        -11    1    3    3    0    0  0.17979707200E+03 -0.46228890975E+03 -0.32942975424E+03  0.59545107789E+03  0.00000000000E+00 0. -1.
          4    1    6    6  502    0 -0.11093740056E+03  0.29622960371E+03  0.69560771675E+02  0.32387927676E+03  0.00000000000E+00 0. -1.
          1    1    5    5  503    0 -0.33451582988E+01 -0.41131144771E+02 -0.14638141748E+03  0.15208708209E+03  0.00000000000E+00 0. -1.
         -2    1    5    5    0  503  0.83222524679E+02 -0.18486571100E+02 -0.24936099290E+03  0.26353111145E+03  0.00000000000E+00 0.  1.
         -1    1    6    6    0  502 -0.18753754961E+03  0.28487763537E+03  0.42345003111E+02  0.34368401030E+03  0.00000000000E+00 0.  1.
<mgrwt>
<rscale>  0 0.16489871E+04</rscale>
<asrwt>0</asrwt>
<pdfrwt beam="1">  1        2 0.19187630E+00 0.16489871E+04</pdfrwt>
<pdfrwt beam="2">  1       -2 0.83854517E-01 0.16489871E+04</pdfrwt>
<totfact> 0.21081428E+01</totfact>
</mgrwt>
</event>
<event>
12    1  0.1663913E-007  0.1969508E+04  0.7818608E-02  0.8621011E-01
         -1   -1    0    0    0  501 -0.00000000000E+00  0.00000000000E+00  0.48737618384E+03  0.48737618384E+03  0.00000000000E+00 0.  1.
          1   -1    0    0  501    0  0.00000000000E+00 -0.00000000000E+00 -0.19897162256E+04  0.19897162256E+04  0.00000000000E+00 0. -1.
         23    2    1    2    0    0  0.40785432794E+03  0.66259393677E+03 -0.42550687663E+03  0.89191323428E+03  0.95274537856E+02 0.  0.
        254    2    1    2    0    0 -0.40785432794E+03 -0.66259393677E+03 -0.10768331651E+04  0.15851791752E+04  0.86478174932E+03 0.  0.
        -24    2    4    4    0    0 -0.35947908506E+02 -0.73880452015E+03 -0.52510832692E+03  0.91066566748E+03  0.80304618819E+02 0.  0.
         24    2    4    4    0    0 -0.37190641943E+03  0.76210583383E+02 -0.55172483821E+03  0.67451350768E+03  0.80285347998E+02 0.  0.
         13    1    3    3    0    0  0.98505817997E+02  0.15603773699E+03 -0.14873941270E+03  0.23701178121E+03  0.00000000000E+00 0.  1.
        -13    1    3    3    0    0  0.30934850994E+03  0.50655619978E+03 -0.27676746393E+03  0.65490145307E+03  0.00000000000E+00 0. -1.
          2    1    6    6  502    0 -0.28933913883E+03  0.81485166095E+02 -0.38555654332E+03  0.48888732613E+03  0.00000000000E+00 0. -1.
          3    1    5    5  503    0 -0.35285778901E+01 -0.37303692738E+03 -0.31038607288E+03  0.48529219476E+03  0.00000000000E+00 0. -1.
         -4    1    5    5    0  503 -0.32419330616E+02 -0.36576759277E+03 -0.21472225404E+03  0.42537347272E+03  0.00000000000E+00 0.  1.
         -3    1    6    6    0  502 -0.82567280606E+02 -0.52745827125E+01 -0.16616829489E+03  0.18562618155E+03  0.00000000000E+00 0.  1.
<mgrwt>
<rscale>  0 0.19695079E+04</rscale>
<asrwt>0</asrwt>
<pdfrwt beam="1">  1        1 0.30611019E+00 0.19695079E+04</pdfrwt>
<pdfrwt beam="2">  1       -1 0.74980950E-01 0.19695079E+04</pdfrwt>
<totfact> 0.50381264E+00</totfact>
</mgrwt>
</event>
<event>
12    1  0.1663913E-007  0.1720460E+04  0.7818608E-02  0.8749781E-01
          1   -1    0    0  501    0  0.00000000000E+00  0.00000000000E+00  0.53747773592E+03  0.53747773592E+03  0.00000000000E+00 0. -1.
         -1   -1    0    0    0  501 -0.00000000000E+00 -0.00000000000E+00 -0.13767925406E+04  0.13767925406E+04  0.00000000000E+00 0.  1.
         23    2    1    2    0    0  0.48634140381E+03 -0.30349706661E+03 -0.59645206972E+03  0.83223800639E+03  0.90700591595E+02 0.  0.
        254    2    1    2    0    0 -0.48634140381E+03  0.30349706661E+03 -0.24286273494E+03  0.10820322701E+04  0.88497067467E+03 0.  0.
        -24    2    4    4    0    0  0.12178679115E+03  0.23026147887E+03 -0.36171753906E+03  0.45290490107E+03  0.80192893687E+02 0.  0.
         24    2    4    4    0    0 -0.60812819496E+03  0.73235587735E+02  0.11885480411E+03  0.62912736904E+03  0.80569406091E+02 0.  0.
         11    1    3    3    0    0  0.24251150411E+03 -0.12945218999E+03 -0.34494078969E+03  0.44108258582E+03  0.00000000000E+00 0.  1.
        -11    1    3    3    0    0  0.24382989969E+03 -0.17404487662E+03 -0.25151128002E+03  0.39115542057E+03  0.00000000000E+00 0. -1.
          2    1    6    6  502    0 -0.57797874998E+03  0.85631298200E+02  0.12010882009E+03  0.59650505725E+03  0.00000000000E+00 0. -1.
          1    1    5    5  503    0  0.12095343047E+03  0.21565613905E+03 -0.29651255397E+03  0.38607900398E+03  0.00000000000E+00 0. -1.
         -2    1    5    5    0  503  0.83336068130E+00  0.14605339822E+02 -0.65204985085E+02  0.66825897085E+02  0.00000000000E+00 0.  1.
         -1    1    6    6    0  502 -0.30149444973E+02 -0.12395710465E+02 -0.12540159755E+01  0.32622311785E+02  0.00000000000E+00 0.  1.
<mgrwt>
<rscale>  0 0.17204596E+04</rscale>
<asrwt>0</asrwt>
<pdfrwt beam="1">  1        1 0.82688885E-01 0.17204596E+04</pdfrwt>
<pdfrwt beam="2">  1       -1 0.21181423E+00 0.17204596E+04</pdfrwt>
<totfact> 0.47563299E+00</totfact>
</mgrwt>
</event>
<event>
12    1  0.1663913E-007  0.2833735E+04  0.7818608E-02  0.8292871E-01
         -2   -1    0    0    0  501 -0.00000000000E+00  0.00000000000E+00  0.10311023834E+04  0.10311023834E+04  0.00000000000E+00 0.  1.
          2   -1    0    0  501    0  0.00000000000E+00 -0.00000000000E+00 -0.19469591141E+04  0.19469591141E+04  0.00000000000E+00 0. -1.
         23    2    1    2    0    0 -0.66594227473E+03 -0.66126752125E+03 -0.13166633248E+04  0.16194998400E+04  0.91780024331E+02 0.  0.
        254    2    1    2    0    0  0.66594227473E+03  0.66126752125E+03  0.40080659408E+03  0.13585616575E+04  0.89682216939E+03 0.  0.
        -24    2    4    4    0    0  0.53975461067E+03  0.39930452824E+03 -0.18357383734E+03  0.70096563083E+03  0.82911493987E+02 0.  0.
         24    2    4    4    0    0  0.12618766407E+03  0.26196299301E+03  0.58438043141E+03  0.65759602670E+03  0.79900622297E+02 0.  0.
         11    1    3    3    0    0 -0.20244520300E+03 -0.15214859257E+03 -0.31836564137E+03  0.40680454280E+03  0.00000000000E+00 0.  1.
        -11    1    3    3    0    0 -0.46349707174E+03 -0.50911892868E+03 -0.99829768343E+03  0.12126952972E+04  0.00000000000E+00 0. -1.
          4    1    6    6  502    0  0.30707967302E+01  0.60054485820E+02  0.76066313769E+02  0.96964195196E+02  0.00000000000E+00 0. -1.
          3    1    5    5  503    0  0.46986470883E+02  0.90039233866E+01 -0.15088458569E+02  0.50164336578E+02  0.00000000000E+00 0. -1.
         -4    1    5    5    0  503  0.49276813978E+03  0.39030060486E+03 -0.16848537877E+03  0.65080129425E+03  0.00000000000E+00 0.  1.
         -3    1    6    6    0  502  0.12311686734E+03  0.20190850719E+03  0.50831411764E+03  0.56063183150E+03  0.00000000000E+00 0.  1.
<mgrwt>
<rscale>  0 0.28337355E+04</rscale>
<asrwt>0</asrwt>
<pdfrwt beam="1">  1        2 0.29953217E+00 0.28337355E+04</pdfrwt>
<pdfrwt beam="2">  1       -2 0.15863114E+00 0.28337355E+04</pdfrwt>
<totfact> 0.16001700E+00</totfact>
</mgrwt>
</event>
<event>
12    1  0.1663913E-007  0.2096475E+04  0.7818608E-02  0.8562798E-01
          1   -1    0    0  501    0  0.00000000000E+00  0.00000000000E+00  0.11179283948E+04  0.11179283948E+04  0.00000000000E+00 0. -1.
         -1   -1    0    0    0  501 -0.00000000000E+00 -0.00000000000E+00 -0.98289096273E+03  0.98289096273E+03  0.00000000000E+00 0.  1.
         23    2    1    2    0    0  0.71395677502E+03  0.39781125314E+03  0.29993028532E+03  0.87580885008E+03  0.95367164722E+02 0.  0.
        254    2    1    2    0    0 -0.71395677502E+03 -0.39781125314E+03 -0.16489285324E+03  0.12250105075E+04  0.89748148762E+03 0.  0.
        -24    2    4    4    0    0 -0.60090380049E+03  0.10199737674E+03  0.12973796025E+03  0.62865645351E+03  0.82994914957E+02 0.  0.
         24    2    4    4    0    0 -0.11305297453E+03 -0.49980862988E+03 -0.29463081349E+03  0.59635405395E+03  0.79001264885E+02 0.  0.
         13    1    3    3    0    0  0.40793399829E+03  0.17916789510E+03  0.18615529779E+03  0.48287169776E+03  0.00000000000E+00 0.  1.
        -13    1    3    3    0    0  0.30602277673E+03  0.21864335804E+03  0.11377498753E+03  0.39293715233E+03  0.00000000000E+00 0. -1.
          4    1    6    6  502    0 -0.56242412927E+02 -0.21007287966E+03 -0.16929996800E+03  0.27560171071E+03  0.00000000000E+00 0. -1.
          3    1    5    5  503    0 -0.70006208462E+02  0.16788294343E+02 -0.11059555952E+02  0.72835635701E+02  0.00000000000E+00 0. -1.
         -4    1    5    5    0  503 -0.53089759203E+03  0.85209082395E+02  0.14079751620E+03  0.55582081781E+03  0.00000000000E+00 0.  1.
         -3    1    6    6    0  502 -0.56810561600E+02 -0.28973575021E+03 -0.12533084549E+03  0.32075234324E+03  0.00000000000E+00 0.  1.
<mgrwt>
<rscale>  0 0.20964749E+04</rscale>
<asrwt>0</asrwt>
<pdfrwt beam="1">  1        1 0.17198898E+00 0.20964749E+04</pdfrwt>
<pdfrwt beam="2">  1       -1 0.15121399E+00 0.20964749E+04</pdfrwt>
<totfact> 0.38603968E+00</totfact>
</mgrwt>
</event>
<event>
12    1  0.1663913E-007  0.2380426E+04  0.7818608E-02  0.8446868E-01
         -1   -1    0    0    0  501 -0.00000000000E+00  0.00000000000E+00  0.26679213920E+04  0.26679213920E+04  0.00000000000E+00 0. -1.
          1   -1    0    0  501    0  0.00000000000E+00 -0.00000000000E+00 -0.53097767141E+03  0.53097767141E+03  0.00000000000E+00 0.  1.
         23    2    1    2    0    0 -0.90745224278E+03  0.14258666495E+03  0.14011146671E+04  0.16778984747E+04  0.91763016178E+02 0.  0.
        254    2    1    2    0    0  0.90745224278E+03 -0.14258666495E+03  0.73582905348E+03  0.15210005887E+04  0.96343025949E+03 0.  0.
        -24    2    4    4    0    0  0.86569179317E+03 -0.38769201895E+03  0.80639232084E+03  0.12475791267E+04  0.80359939209E+02 0.  0.
         24    2    4    4    0    0  0.41760449613E+02  0.24510535400E+03 -0.70563267354E+02  0.27342146204E+03  0.89216318525E+02 0.  0.
         11    1    3    3    0    0 -0.25745333215E+03  0.48126948933E+02  0.32819947621E+03  0.41989679402E+03  0.00000000000E+00 0. -1.
        -11    1    3    3    0    0 -0.64999891063E+03  0.94459716017E+02  0.10729151909E+04  0.12580016807E+04  0.00000000000E+00 0.  1.
          2    1    6    6  502    0 -0.57672515609E+01  0.18642515916E+03 -0.65715842858E+02  0.19775280823E+03  0.00000000000E+00 0. -1.
          1    1    5    5  503    0  0.56196813073E+03 -0.23616954538E+03  0.56423132892E+03  0.83062700814E+03  0.00000000000E+00 0. -1.
         -2    1    5    5    0  503  0.30372366243E+03 -0.15152247357E+03  0.24216099192E+03  0.41695211851E+03  0.00000000000E+00 0.  1.
         -1    1    6    6    0  502  0.47527701174E+02  0.58680194840E+02 -0.48474244966E+01  0.75668653811E+02  0.00000000000E+00 0.  1.
<mgrwt>
<rscale>  0 0.23804258E+04</rscale>
<asrwt>0</asrwt>
<pdfrwt beam="1">  1        1 0.81688874E-01 0.23804258E+04</pdfrwt>
<pdfrwt beam="2">  1       -1 0.41044944E+00 0.23804258E+04</pdfrwt>
<totfact> 0.22201382E-01</totfact>
</mgrwt>
</event>
<event>
12    1  0.1663913E-007  0.3163461E+04  0.7818608E-02  0.8198534E-01
         -1   -1    0    0    0  501 -0.00000000000E+00  0.00000000000E+00  0.16649905513E+04  0.16649905513E+04  0.00000000000E+00 0.  1.
          1   -1    0    0  501    0  0.00000000000E+00 -0.00000000000E+00 -0.15026343938E+04  0.15026343938E+04  0.00000000000E+00 0. -1.
         23    2    1    2    0    0 -0.11152925280E+04 -0.30548873929E+02  0.10123714114E+04  0.15090891963E+04  0.87428091159E+02 0.  0.
        254    2    1    2    0    0  0.11152925280E+04  0.30548873929E+02 -0.85001525391E+03  0.16585357489E+04  0.88510126068E+03 0.  0.
        -24    2    4    4    0    0  0.41663011734E+03 -0.35155649238E+03 -0.96268435505E+02  0.55915458514E+03  0.78826495578E+02 0.  0.
         24    2    4    4    0    0  0.69866241065E+03  0.38210536630E+03 -0.75374681841E+03  0.10993811637E+04  0.79818555836E+02 0.  0.
         11    1    3    3    0    0 -0.24222272795E+03  0.13703756533E+02  0.26129294449E+03  0.35655805379E+03  0.00000000000E+00 0. -1.
        -11    1    3    3    0    0 -0.87306980003E+03 -0.44252630462E+02  0.75107846689E+03  0.11525311425E+04  0.00000000000E+00 0.  1.
          2    1    6    6  502    0  0.66155335325E+03  0.35155419191E+03 -0.72900965866E+03  0.10453220898E+04  0.00000000000E+00 0. -1.
          3    1    5    5  503    0  0.35823044450E+03 -0.33162420726E+03 -0.75038563121E+02  0.49389720810E+03  0.00000000000E+00 0. -1.
         -4    1    5    5    0  503  0.58399672837E+02 -0.19932285112E+02 -0.21229872384E+02  0.65257377044E+02  0.00000000000E+00 0.  1.
         -1    1    6    6    0  502  0.37109057397E+02  0.30551174395E+02 -0.24737159751E+02  0.54059073895E+02  0.00000000000E+00 0.  1.
<mgrwt>
<rscale>  0 0.31634614E+04</rscale>
<asrwt>0</asrwt>
<pdfrwt beam="1">  1        1 0.23117452E+00 0.31634614E+04</pdfrwt>
<pdfrwt beam="2">  1       -1 0.25615239E+00 0.31634614E+04</pdfrwt>
<totfact> 0.34750193E-01</totfact>
</mgrwt>
</event>
<event>
12    1  0.1663913E-007  0.2532898E+04  0.7818608E-02  0.8391358E-01
         -2   -1    0    0    0  501 -0.00000000000E+00  0.00000000000E+00  0.58610282467E+03  0.58610282467E+03  0.00000000000E+00 0.  1.
          2   -1    0    0  501    0  0.00000000000E+00 -0.00000000000E+00 -0.27365383535E+04  0.27365383535E+04  0.00000000000E+00 0. -1.
         23    2    1    2    0    0  0.63099399143E+03  0.47424552330E+03 -0.19272929136E+04  0.20847402125E+04  0.92852276000E+02 0.  0.
        254    2    1    2    0    0 -0.63099399143E+03 -0.47424552330E+03 -0.22314261522E+03  0.12379009657E+04  0.92711592613E+03 0.  0.
        -24    2    4    4    0    0 -0.62888611777E+03 -0.72032074886E+03 -0.19108843425E+03  0.97788749267E+03  0.73412725442E+02 0.  0.
         24    2    4    4    0    0 -0.21078736673E+01  0.24607522556E+03 -0.32054180967E+02  0.26001347300E+03  0.77602035115E+02 0.  0.
         11    1    3    3    0    0  0.12472444347E+03  0.12246040073E+03 -0.34922013483E+03  0.39052200849E+03  0.00000000000E+00 0.  1.
        -11    1    3    3    0    0  0.50626954797E+03  0.35178512257E+03 -0.15780727788E+04  0.16942182040E+04  0.00000000000E+00 0. -1.
          4    1    6    6  502    0  0.38880261827E+01  0.92373347408E+02 -0.50071161697E+02  0.10514310863E+03  0.00000000000E+00 0. -1.
          1    1    5    5  503    0 -0.10170116103E+03 -0.14615643342E+03 -0.14447344174E+02  0.17864365351E+03  0.00000000000E+00 0. -1.
         -2    1    5    5    0  503 -0.52718495674E+03 -0.57416431544E+03 -0.17664109008E+03  0.79924383917E+03  0.00000000000E+00 0.  1.
         -3    1    6    6    0  502 -0.59958998500E+01  0.15370187816E+03  0.18016980730E+02  0.15487036436E+03  0.00000000000E+00 0.  1.
<mgrwt>
<rscale>  0 0.25328978E+04</rscale>
<asrwt>0</asrwt>
<pdfrwt beam="1">  1        2 0.42100591E+00 0.25328978E+04</pdfrwt>
<pdfrwt beam="2">  1       -2 0.90169664E-01 0.25328978E+04</pdfrwt>
<totfact> 0.23630972E+00</totfact>
</mgrwt>
</event>
<event>
12    1  0.1663913E-007  0.2725068E+04  0.7818608E-02  0.8326917E-01
         -1   -1    0    0    0  501 -0.00000000000E+00  0.00000000000E+00  0.88041203085E+03  0.88041203085E+03  0.00000000000E+00 0.  1.
          1   -1    0    0  501    0  0.00000000000E+00 -0.00000000000E+00 -0.21086708247E+04  0.21086708247E+04  0.00000000000E+00 0. -1.
         23    2    1    2    0    0 -0.23902154707E+03 -0.76996338885E+03  0.44574917149E+03  0.92560893208E+03  0.89914688027E+02 0.  0.
        254    2    1    2    0    0  0.23902154707E+03  0.76996338885E+03 -0.16740079654E+04  0.20634739235E+04  0.89757843374E+03 0.  0.
        -24    2    4    4    0    0 -0.11688115221E+03  0.71814140530E+01  0.45332447620E+02  0.14774922035E+03  0.77859006282E+02 0.  0.
         24    2    4    4    0    0  0.35590269927E+03  0.76278197480E+03 -0.17193404130E+04  0.19157247031E+04  0.73257150372E+02 0.  0.
         13    1    3    3    0    0 -0.15781754024E+03 -0.45424029672E+03  0.21829508634E+03  0.52810355792E+03  0.00000000000E+00 0.  1.
        -13    1    3    3    0    0 -0.81204006830E+02 -0.31572309214E+03  0.22745408515E+03  0.39750537416E+03  0.00000000000E+00 0. -1.
          2    1    6    6  502    0  0.11355981978E+03  0.17435455080E+03 -0.45120655308E+03  0.49687291694E+03  0.00000000000E+00 0. -1.
          1    1    5    5  503    0  0.51474525218E+01 -0.10555986079E+02 -0.71333461089E+01  0.13740805518E+02  0.00000000000E+00 0. -1.
         -2    1    5    5    0  503 -0.12202860473E+03  0.17737400132E+02  0.52465793728E+02  0.13400841484E+03  0.00000000000E+00 0.  1.
         -1    1    6    6    0  502  0.24234287949E+03  0.58842742400E+03 -0.12681338599E+04  0.14188517862E+04  0.00000000000E+00 0.  1.
<mgrwt>
<rscale>  0 0.27250682E+04</rscale>
<asrwt>0</asrwt>
<pdfrwt beam="1">  1        1 0.32441089E+00 0.27250682E+04</pdfrwt>
<pdfrwt beam="2">  1       -1 0.13544801E+00 0.27250682E+04</pdfrwt>
<totfact> 0.10002847E+00</totfact>
</mgrwt>
</event>
<event>
12    1  0.1663913E-007  0.2097025E+04  0.7818608E-02  0.8562555E-01
          1   -1    0    0  501    0  0.00000000000E+00  0.00000000000E+00  0.14992052505E+04  0.14992052505E+04  0.00000000000E+00 0. -1.
         -1   -1    0    0    0  501 -0.00000000000E+00 -0.00000000000E+00 -0.73330744224E+03  0.73330744224E+03  0.00000000000E+00 0.  1.
         23    2    1    2    0    0  0.24871567533E+02 -0.70223671236E+03 -0.17666538392E+03  0.73364902123E+03  0.11521819917E+03 0.  0.
        254    2    1    2    0    0 -0.24871567533E+02  0.70223671236E+03  0.94256319222E+03  0.14988636716E+04  0.92973756488E+03 0.  0.
        -24    2    4    4    0    0 -0.71520549640E+02  0.69673083609E+03  0.17604766252E+03  0.72665533719E+03  0.80536653895E+02 0.  0.
         24    2    4    4    0    0  0.46648982107E+02  0.55058762700E+01  0.76651552970E+03  0.77220833436E+03  0.80951912826E+02 0.  0.
         13    1    3    3    0    0  0.30211214848E+02 -0.41830263965E+02 -0.10972427611E+02  0.52753034545E+02  0.00000000000E+00 0. -1.
        -13    1    3    3    0    0 -0.53396473153E+01 -0.66040644839E+03 -0.16569295631E+03  0.68089598668E+03  0.00000000000E+00 0.  1.
          2    1    6    6  502    0  0.55438456366E+02  0.25165407215E+02  0.69115295100E+03  0.69382931751E+03  0.00000000000E+00 0. -1.
          1    1    5    5  503    0 -0.89429286760E+02  0.55808710222E+03  0.14220365062E+03  0.58282131846E+03  0.00000000000E+00 0. -1.
         -2    1    5    5    0  503  0.17908737121E+02  0.13864373386E+03  0.33844011898E+02  0.14383401874E+03  0.00000000000E+00 0.  1.
         -1    1    6    6    0  502 -0.87894742594E+01 -0.19659530945E+02  0.75362578699E+02  0.78379016853E+02  0.00000000000E+00 0.  1.
<mgrwt>
<rscale>  0 0.20970249E+04</rscale>
<asrwt>0</asrwt>
<pdfrwt beam="1">  1        1 0.23064696E+00 0.20970249E+04</pdfrwt>
<pdfrwt beam="2">  1       -1 0.11281653E+00 0.20970249E+04</pdfrwt>
<totfact> 0.43301104E+00</totfact>
</mgrwt>
</event>
<event>
12    1  0.1663913E-007  0.2485672E+04  0.7818608E-02  0.8408108E-01
          2   -1    0    0  501    0  0.00000000000E+00  0.00000000000E+00  0.45801062612E+03  0.45801062612E+03  0.00000000000E+00 0. -1.
         -2   -1    0    0    0  501 -0.00000000000E+00 -0.00000000000E+00 -0.33725005581E+04  0.33725005581E+04  0.00000000000E+00 0.  1.
         23    2    1    2    0    0  0.56732745792E+03  0.42627604745E+03 -0.25080420319E+04  0.26082257232E+04  0.94841319109E+02 0.  0.
        254    2    1    2    0    0 -0.56732745792E+03 -0.42627604745E+03 -0.40644789999E+03  0.12222854610E+04  0.90841077695E+03 0.  0.
        -24    2    4    4    0    0  0.15314230444E+03 -0.39128743174E+03 -0.15740891593E+03  0.45502203614E+03  0.75558367603E+02 0.  0.
         24    2    4    4    0    0 -0.72046976236E+03 -0.34988615708E+02 -0.24903898406E+03  0.76726342488E+03  0.79823967976E+02 0.  0.
         13    1    3    3    0    0  0.55203246295E+03  0.43006385190E+03 -0.24643231132E+04  0.25617539232E+04  0.00000000000E+00 0.  1.
        -13    1    3    3    0    0  0.15294994970E+02 -0.37878044532E+01 -0.43718918738E+02  0.46471799937E+02  0.00000000000E+00 0. -1.
          2    1    6    6  502    0 -0.44953050087E+03 -0.55010057987E+02 -0.17655967919E+03  0.48608342701E+03  0.00000000000E+00 0. -1.
          3    1    5    5  503    0  0.39212010704E+02 -0.38526967590E+02 -0.32399048876E+02  0.63809148115E+02  0.00000000000E+00 0. -1.
         -4    1    5    5    0  503  0.11393029373E+03 -0.35276046415E+03 -0.12500986705E+03  0.39121288803E+03  0.00000000000E+00 0.  1.
         -1    1    6    6    0  502 -0.27093926149E+03  0.20021442279E+02 -0.72479304868E+02  0.28117999787E+03  0.00000000000E+00 0.  1.
<mgrwt>
<rscale>  0 0.24856718E+04</rscale>
<asrwt>0</asrwt>
<pdfrwt beam="1">  1        2 0.70463175E-01 0.24856718E+04</pdfrwt>
<pdfrwt beam="2">  1       -2 0.51884622E+00 0.24856718E+04</pdfrwt>
<totfact> 0.76730601E-02</totfact>
</mgrwt>
</event>
<event>
12    1  0.1663913E-007  0.1243105E+04  0.7818608E-02  0.9075941E-01
          2   -1    0    0  501    0  0.00000000000E+00  0.00000000000E+00  0.14004725272E+04  0.14004725272E+04  0.00000000000E+00 0. -1.
         -2   -1    0    0    0  501 -0.00000000000E+00 -0.00000000000E+00 -0.27585524229E+03  0.27585524229E+03  0.00000000000E+00 0.  1.
         23    2    1    2    0    0  0.13895083913E+03  0.22934274797E+03  0.35837349429E+03  0.45704551431E+03  0.92485723249E+02 0.  0.
        254    2    1    2    0    0 -0.13895083913E+03 -0.22934274797E+03  0.76624379061E+03  0.12192822552E+04  0.90973305940E+03 0.  0.
        -24    2    4    4    0    0 -0.36507362646E+03  0.12124887199E+03  0.68024253283E+03  0.78618867643E+03  0.85922580089E+02 0.  0.
         24    2    4    4    0    0  0.22612278734E+03 -0.35059161996E+03  0.86001257780E+02  0.43309357874E+03  0.78280474341E+02 0.  0.
         13    1    3    3    0    0  0.17428442222E+02  0.70396104756E+01  0.79684116201E+00  0.18813337550E+02  0.00000000000E+00 0.  1.
        -13    1    3    3    0    0  0.12152239690E+03  0.22230313749E+03  0.35757665313E+03  0.43823217676E+03  0.00000000000E+00 0. -1.
          2    1    6    6  502    0  0.19319761498E+03 -0.31545013012E+03  0.99542074786E+02  0.38307013415E+03  0.00000000000E+00 0. -1.
          1    1    5    5  503    0 -0.35568946157E+03  0.97854407924E+02  0.63359716669E+03  0.73316836256E+03  0.00000000000E+00 0. -1.
         -2    1    5    5    0  503 -0.93841648899E+01  0.23394464069E+02  0.46645366140E+02  0.53020313863E+02  0.00000000000E+00 0.  1.
         -1    1    6    6    0  502  0.32925172354E+02 -0.35141489847E+02 -0.13540817006E+02  0.50023444587E+02  0.00000000000E+00 0.  1.
<mgrwt>
<rscale>  0 0.12431053E+04</rscale>
<asrwt>0</asrwt>
<pdfrwt beam="1">  1        2 0.21545731E+00 0.12431053E+04</pdfrwt>
<pdfrwt beam="2">  1       -2 0.42439269E-01 0.12431053E+04</pdfrwt>
<totfact> 0.74852697E+01</totfact>
</mgrwt>
</event>
<event>
12    1  0.1663913E-007  0.1731768E+04  0.7818608E-02  0.8743451E-01
          1   -1    0    0  501    0  0.00000000000E+00  0.00000000000E+00  0.53111131111E+03  0.53111131111E+03  0.00000000000E+00 0. -1.
         -1   -1    0    0    0  501 -0.00000000000E+00 -0.00000000000E+00 -0.14116715496E+04  0.14116715496E+04  0.00000000000E+00 0.  1.
         23    2    1    2    0    0 -0.15527686194E+03 -0.45907642992E+03  0.12229457097E+03  0.51031042394E+03  0.10294996030E+03 0.  0.
        254    2    1    2    0    0  0.15527686194E+03  0.45907642992E+03 -0.10028548095E+04  0.14324724368E+04  0.90077602150E+03 0.  0.
        -24    2    4    4    0    0  0.37778763303E+02 -0.11271185736E+03  0.10521880412E+03  0.17749026224E+03  0.79376310718E+02 0.  0.
         24    2    4    4    0    0  0.11749809864E+03  0.57178828728E+03 -0.11080736136E+04  0.12549821745E+04  0.80034221568E+02 0.  0.
         13    1    3    3    0    0 -0.10619683705E+03 -0.38455314988E+03  0.13277981806E+03  0.42046328421E+03  0.00000000000E+00 0. -1.
        -13    1    3    3    0    0 -0.49080024888E+02 -0.74523280038E+02 -0.10485247085E+02  0.89847139726E+02  0.00000000000E+00 0.  1.
          4    1    6    6  502    0  0.25732406239E+02  0.31626552034E+03 -0.57446319239E+03  0.65627280569E+03  0.00000000000E+00 0. -1.
          1    1    5    5  503    0  0.34144512748E+02 -0.23855894763E+02  0.26499511297E+01  0.41736958523E+02  0.00000000000E+00 0. -1.
         -2    1    5    5    0  503  0.36342505554E+01 -0.88855962598E+02  0.10256885299E+03  0.13575330372E+03  0.00000000000E+00 0.  1.
         -3    1    6    6    0  502  0.91765692398E+02  0.25552276695E+03 -0.53361042119E+03  0.59870936883E+03  0.00000000000E+00 0.  1.
<mgrwt>
<rscale>  0 0.17317676E+04</rscale>
<asrwt>0</asrwt>
<pdfrwt beam="1">  1        1 0.81709434E-01 0.17317676E+04</pdfrwt>
<pdfrwt beam="2">  1       -1 0.21718024E+00 0.17317676E+04</pdfrwt>
<totfact> 0.44450967E+00</totfact>
</mgrwt>
</event>
<event>
12    1  0.1663913E-007  0.1502580E+04  0.7818608E-02  0.8882739E-01
         -1   -1    0    0    0  501 -0.00000000000E+00  0.00000000000E+00  0.56317982794E+03  0.56317982794E+03  0.00000000000E+00 0.  1.
          1   -1    0    0  501    0  0.00000000000E+00 -0.00000000000E+00 -0.10022313242E+04  0.10022313242E+04  0.00000000000E+00 0. -1.
         23    2    1    2    0    0 -0.26009949622E+03 -0.38640813810E+03 -0.24483949810E+03  0.53419260555E+03  0.91936732947E+02 0.  0.
        254    2    1    2    0    0  0.26009949622E+03  0.38640813810E+03 -0.19421199819E+03  0.10312185466E+04  0.89929438648E+03 0.  0.
        -24    2    4    4    0    0  0.29707451981E+03  0.15811617750E+03  0.31447358866E+03  0.46677162839E+03  0.75684339201E+02 0.  0.
         24    2    4    4    0    0 -0.36975023587E+02  0.22829196060E+03 -0.50868558685E+03  0.56444691824E+03  0.79717787264E+02 0.  0.
         13    1    3    3    0    0 -0.12538722341E+03 -0.22654077177E+03 -0.90313222080E+02  0.27422464359E+03  0.00000000000E+00 0. -1.
        -13    1    3    3    0    0 -0.13471227281E+03 -0.15986736633E+03 -0.15452627603E+03  0.25996796196E+03  0.00000000000E+00 0.  1.
          2    1    6    6  502    0 -0.24175113185E+02  0.14254233844E+03 -0.40056453636E+03  0.42585760782E+03  0.00000000000E+00 0. -1.
          3    1    5    5  503    0  0.62291937098E+02  0.71151685693E+02  0.86042327409E+02  0.12785198438E+03  0.00000000000E+00 0. -1.
         -4    1    5    5    0  503  0.23478258271E+03  0.86964491810E+02  0.22843126125E+03  0.33891964401E+03  0.00000000000E+00 0.  1.
         -1    1    6    6    0  502 -0.12799910402E+02  0.85749622156E+02 -0.10812105048E+03  0.13858931043E+03  0.00000000000E+00 0.  1.
<mgrwt>
<rscale>  0 0.15025797E+04</rscale>
<asrwt>0</asrwt>
<pdfrwt beam="1">  1        1 0.15418943E+00 0.15025797E+04</pdfrwt>
<pdfrwt beam="2">  1       -1 0.86643050E-01 0.15025797E+04</pdfrwt>
<totfact> 0.19144447E+01</totfact>
</mgrwt>
</event>
<event>
12    1  0.1663913E-007  0.2204114E+04  0.7818608E-02  0.8516718E-01
          2   -1    0    0  501    0  0.00000000000E+00  0.00000000000E+00  0.32896443069E+04  0.32896443069E+04  0.00000000000E+00 0.  1.
         -2   -1    0    0    0  501 -0.00000000000E+00 -0.00000000000E+00 -0.36919781903E+03  0.36919781903E+03  0.00000000000E+00 0. -1.
         23    2    1    2    0    0 -0.18342843801E+03  0.25615503042E+02 -0.26924471581E+03  0.33934873688E+03  0.91447812259E+02 0.  0.
        254    2    1    2    0    0  0.18342843801E+03 -0.25615503042E+02  0.31896912037E+04  0.33194933891E+04  0.90033562592E+03 0.  0.
        -24    2    4    4    0    0  0.88365289532E+02  0.40538942253E+03  0.10225163716E+04  0.11063200730E+04  0.79090867827E+02 0.  0.
         24    2    4    4    0    0  0.95063148482E+02 -0.43100492557E+03  0.21671748321E+04  0.22131733161E+04  0.81774850473E+02 0.  0.
         11    1    3    3    0    0 -0.70147421687E+02  0.53084939900E+02 -0.92718917500E+02  0.12781028627E+03  0.00000000000E+00 0.  1.
        -11    1    3    3    0    0 -0.11328101633E+03 -0.27469436858E+02 -0.17652579831E+03  0.21153845062E+03  0.00000000000E+00 0. -1.
          2    1    6    6  502    0  0.52612969370E+01 -0.18124620921E+03  0.98759300805E+03  0.10041005025E+04  0.00000000000E+00 0. -1.
          3    1    5    5  503    0  0.91406482292E+02  0.38391971813E+03  0.91248184219E+03  0.99416930514E+03  0.00000000000E+00 0. -1.
         -4    1    5    5    0  503 -0.30411927601E+01  0.21469704405E+02  0.11003452943E+03  0.11215076784E+03  0.00000000000E+00 0.  1.
         -1    1    6    6    0  502  0.89801851545E+02 -0.24975871637E+03  0.11795818241E+04  0.12090728136E+04  0.00000000000E+00 0.  1.
<mgrwt>
<rscale>  0 0.22041139E+04</rscale>
<asrwt>0</asrwt>
<pdfrwt beam="1">  1        2 0.50609910E+00 0.22041139E+04</pdfrwt>
<pdfrwt beam="2">  1       -2 0.56799667E-01 0.22041139E+04</pdfrwt>
<totfact> 0.30130086E+00</totfact>
</mgrwt>
</event>
<event>
12    1  0.1663913E-007  0.1452810E+04  0.7818608E-02  0.8916455E-01
         -1   -1    0    0    0  501 -0.00000000000E+00  0.00000000000E+00  0.34032412290E+03  0.34032412290E+03  0.00000000000E+00 0.  1.
          1   -1    0    0  501    0  0.00000000000E+00 -0.00000000000E+00 -0.15504749492E+04  0.15504749492E+04  0.00000000000E+00 0. -1.
         23    2    1    2    0    0 -0.79416415506E+01  0.43597177787E+03 -0.46282735179E+03  0.64237627700E+03  0.91124436482E+02 0.  0.
        254    2    1    2    0    0  0.79416415506E+01 -0.43597177787E+03 -0.74732347449E+03  0.12484227951E+04  0.89996257644E+03 0.  0.
        -24    2    4    4    0    0 -0.93669142495E+02  0.20250259463E+03 -0.49504265138E+03  0.54999121078E+03  0.87417939619E+02 0.  0.
         24    2    4    4    0    0  0.10161078405E+03 -0.63847437249E+03 -0.25228082311E+03  0.69843158430E+03  0.78656140756E+02 0.  0.
         11    1    3    3    0    0  0.49946553626E+01  0.37838526149E+03 -0.35204402867E+03  0.51685138175E+03  0.00000000000E+00 0.  1.
        -11    1    3    3    0    0 -0.12936296913E+02  0.57586516373E+02 -0.11078332312E+03  0.12552489525E+03  0.00000000000E+00 0. -1.
          2    1    6    6  502    0  0.19358848127E+02 -0.21876050322E+02 -0.11857689661E+02  0.31526677316E+02  0.00000000000E+00 0. -1.
          3    1    5    5  503    0 -0.88686760814E+02  0.10515340159E+03 -0.34097048580E+03  0.36767302267E+03  0.00000000000E+00 0. -1.
         -4    1    5    5    0  503 -0.49823816816E+01  0.97349193032E+02 -0.15407216557E+03  0.18231818811E+03  0.00000000000E+00 0.  1.
         -1    1    6    6    0  502  0.82251935919E+02 -0.61659832217E+03 -0.24042313345E+03  0.66690490699E+03  0.00000000000E+00 0.  1.
<mgrwt>
<rscale>  0 0.14528097E+04</rscale>
<asrwt>0</asrwt>
<pdfrwt beam="1">  1        1 0.23853461E+00 0.14528097E+04</pdfrwt>
<pdfrwt beam="2">  1       -1 0.52357557E-01 0.14528097E+04</pdfrwt>
<totfact> 0.21537774E+01</totfact>
</mgrwt>
</event>
<event>
12    1  0.1663913E-007  0.2505860E+04  0.7818608E-02  0.8400901E-01
         -2   -1    0    0    0  501 -0.00000000000E+00  0.00000000000E+00  0.97954251572E+03  0.97954251572E+03  0.00000000000E+00 0.  1.
          2   -1    0    0  501    0  0.00000000000E+00 -0.00000000000E+00 -0.16026187014E+04  0.16026187014E+04  0.00000000000E+00 0. -1.
         23    2    1    2    0    0 -0.58573707558E+03 -0.44571115565E+03 -0.11001913999E+04  0.13268599016E+04  0.91595448659E+02 0.  0.
        254    2    1    2    0    0  0.58573707558E+03  0.44571115565E+03  0.47711521418E+03  0.12553013155E+04  0.89799560641E+03 0.  0.
        -24    2    4    4    0    0 -0.74267902054E+02  0.24451932940E+03  0.49259364696E+03  0.56062448846E+03  0.79661109088E+02 0.  0.
         24    2    4    4    0    0  0.66000497763E+03  0.20119182625E+03 -0.15478432781E+02  0.69467682705E+03  0.79067001413E+02 0.  0.
         13    1    3    3    0    0 -0.37314095150E+02 -0.84294154855E+01 -0.37577814435E+02  0.53623585110E+02  0.00000000000E+00 0.  1.
        -13    1    3    3    0    0 -0.54842298043E+03 -0.43728174016E+03 -0.10626135855E+04  0.12732363165E+04  0.00000000000E+00 0. -1.
          2    1    6    6  502    0  0.10980630401E+03  0.34905262631E+01 -0.30875991388E+01  0.10990514748E+03  0.00000000000E+00 0. -1.
          3    1    5    5  503    0 -0.14338379435E+02  0.15223389087E+01  0.51419593229E+02  0.53403007485E+02  0.00000000000E+00 0. -1.
         -4    1    5    5    0  503 -0.59929522619E+02  0.24299699050E+03  0.44117405373E+03  0.50722148097E+03  0.00000000000E+00 0.  1.
         -1    1    6    6    0  502  0.55019867362E+03  0.19770129998E+03 -0.12390833642E+02  0.58477167957E+03  0.00000000000E+00 0.  1.
<mgrwt>
<rscale>  0 0.25058597E+04</rscale>
<asrwt>0</asrwt>
<pdfrwt beam="1">  1        2 0.24655672E+00 0.25058597E+04</pdfrwt>
<pdfrwt beam="2">  1       -2 0.15069885E+00 0.25058597E+04</pdfrwt>
<totfact> 0.29326446E+00</totfact>
</mgrwt>
</event>
<event>
12    1  0.1663913E-007  0.1398600E+04  0.7818608E-02  0.8954833E-01
          2   -1    0    0  501    0  0.00000000000E+00  0.00000000000E+00  0.17753197207E+04  0.17753197207E+04  0.00000000000E+00 0. -1.
         -2   -1    0    0    0  501 -0.00000000000E+00 -0.00000000000E+00 -0.27545471743E+03  0.27545471743E+03  0.00000000000E+00 0.  1.
         23    2    1    2    0    0  0.28415024244E+03 -0.28453274439E+03  0.39476590130E+03  0.57231558341E+03  0.10002383350E+03 0.  0.
        254    2    1    2    0    0 -0.28415024244E+03  0.28453274439E+03  0.11050991020E+04  0.14784588548E+04  0.89604481868E+03 0.  0.
        -24    2    4    4    0    0 -0.47416616320E+03  0.28395368729E+03  0.11413205358E+04  0.12701939053E+04  0.72916010900E+02 0.  0.
         24    2    4    4    0    0  0.19001592076E+03  0.57905710228E+00 -0.36221433838E+02  0.20826494948E+03  0.77174551925E+02 0.  0.
         11    1    3    3    0    0  0.10309998227E+03 -0.12267508423E+03  0.22407350443E+03  0.27547725500E+03  0.00000000000E+00 0. -1.
        -11    1    3    3    0    0  0.18105026017E+03 -0.16185766017E+03  0.17069239687E+03  0.29683832841E+03  0.00000000000E+00 0.  1.
          4    1    6    6  502    0  0.22036191180E+02 -0.23771077848E+02  0.68945177399E+01  0.33138983670E+02  0.00000000000E+00 0. -1.
          3    1    5    5  503    0 -0.99575698278E+02  0.27059077272E+02  0.20339653237E+03  0.22807380983E+03  0.00000000000E+00 0. -1.
         -4    1    5    5    0  503 -0.37459046492E+03  0.25689461002E+03  0.93792400347E+03  0.10421200955E+04  0.00000000000E+00 0.  1.
         -3    1    6    6    0  502  0.16797972958E+03  0.24350134951E+02 -0.43115951578E+02  0.17512596581E+03  0.00000000000E+00 0.  1.
<mgrwt>
<rscale>  0 0.13985996E+04</rscale>
<asrwt>0</asrwt>
<pdfrwt beam="1">  1        2 0.27312610E+00 0.13985996E+04</pdfrwt>
<pdfrwt beam="2">  1       -2 0.42377650E-01 0.13985996E+04</pdfrwt>
<totfact> 0.45753577E+01</totfact>
</mgrwt>
</event>
<event>
12    1  0.1663913E-007  0.2238124E+04  0.7818608E-02  0.8502725E-01
          1   -1    0    0  501    0  0.00000000000E+00  0.00000000000E+00  0.11688554581E+04  0.11688554581E+04  0.00000000000E+00 0. -1.
         -1   -1    0    0    0  501 -0.00000000000E+00 -0.00000000000E+00 -0.10713899143E+04  0.10713899143E+04  0.00000000000E+00 0.  1.
         23    2    1    2    0    0  0.84953486911E+03 -0.30521427875E+03  0.26236824210E+03  0.94419999542E+03  0.88381486273E+02 0.  0.
        254    2    1    2    0    0 -0.84953486911E+03  0.30521427875E+03 -0.16490269827E+03  0.12960453770E+04  0.91524612518E+03 0.  0.
        -24    2    4    4    0    0 -0.56880386827E+03 -0.22680080360E+03 -0.28056097233E+03  0.67826682025E+03  0.79718098213E+02 0.  0.
         24    2    4    4    0    0 -0.28073100084E+03  0.53201508235E+03  0.11565827406E+03  0.61777855679E+03  0.80147153374E+02 0.  0.
         11    1    3    3    0    0  0.67600339070E+03 -0.22874361737E+03  0.17177194846E+03  0.73403666734E+03  0.00000000000E+00 0. -1.
        -11    1    3    3    0    0  0.17353147841E+03 -0.76470661375E+02  0.90596293634E+02  0.21016332808E+03  0.00000000000E+00 0.  1.
          2    1    6    6  502    0 -0.12012367304E+03  0.31282036856E+03  0.60973392528E+02  0.34059364998E+03  0.00000000000E+00 0. -1.
          1    1    5    5  503    0 -0.46878134864E+01 -0.80615706578E+01 -0.14662220101E+02  0.17376570865E+02  0.00000000000E+00 0. -1.
         -2    1    5    5    0  503 -0.56411605478E+03 -0.21873923294E+03 -0.26589875223E+03  0.66089024938E+03  0.00000000000E+00 0.  1.
         -1    1    6    6    0  502 -0.16060732780E+03  0.21919471379E+03  0.54684881533E+02  0.27718490682E+03  0.00000000000E+00 0.  1.
<mgrwt>
<rscale>  0 0.22381242E+04</rscale>
<asrwt>0</asrwt>
<pdfrwt beam="1">  1        1 0.17982392E+00 0.22381242E+04</pdfrwt>
<pdfrwt beam="2">  1       -1 0.16482922E+00 0.22381242E+04</pdfrwt>
<totfact> 0.27513722E+00</totfact>
</mgrwt>
</event>
<event>
12    1  0.1663913E-007  0.2660154E+04  0.7818608E-02  0.8348051E-01
         -2   -1    0    0    0  501 -0.00000000000E+00  0.00000000000E+00  0.70411258541E+03  0.70411258541E+03  0.00000000000E+00 0.  1.
          2   -1    0    0  501    0  0.00000000000E+00 -0.00000000000E+00 -0.25125310532E+04  0.25125310532E+04  0.00000000000E+00 0. -1.
         23    2    1    2    0    0  0.44663505407E+03 -0.61059932196E+03  0.29015844485E+03  0.81511882805E+03  0.88951544271E+02 0.  0.
        254    2    1    2    0    0 -0.44663505407E+03  0.61059932196E+03 -0.20985769126E+04  0.24015248106E+04  0.88937166244E+03 0.  0.
        -24    2    4    4    0    0 -0.23223685655E+03  0.50449349148E+03 -0.20734501692E+04  0.21481149938E+04  0.82187479832E+02 0.  0.
         24    2    4    4    0    0 -0.21439819753E+03  0.10610583048E+03 -0.25126743395E+02  0.25340981674E+03  0.79750533674E+02 0.  0.
         13    1    3    3    0    0  0.14445612520E+03 -0.13643500274E+03  0.91881006883E+02  0.21891596905E+03  0.00000000000E+00 0. -1.
        -13    1    3    3    0    0  0.30217892888E+03 -0.47416431922E+03  0.19827743797E+03  0.59620285900E+03  0.00000000000E+00 0.  1.
          4    1    6    6  502    0 -0.18785255256E+03  0.11497923394E+03 -0.75850510962E+01  0.22037771834E+03  0.00000000000E+00 0. -1.
          1    1    5    5  503    0 -0.18021967981E+03  0.44173858271E+03 -0.18399535636E+04  0.19008001538E+04  0.00000000000E+00 0. -1.
         -2    1    5    5    0  503 -0.52017176735E+02  0.62754908766E+02 -0.23349660564E+03  0.24731484002E+03  0.00000000000E+00 0.  1.
         -3    1    6    6    0  502 -0.26545644965E+02 -0.88734034645E+01 -0.17541692299E+02  0.33032098394E+02  0.00000000000E+00 0.  1.
<mgrwt>
<rscale>  0 0.26601539E+04</rscale>
<asrwt>0</asrwt>
<pdfrwt beam="1">  1        2 0.38654324E+00 0.26601539E+04</pdfrwt>
<pdfrwt beam="2">  1       -2 0.10832501E+00 0.26601539E+04</pdfrwt>
<totfact> 0.20540722E+00</totfact>
</mgrwt>
</event>
<event>
12    1  0.1663913E-007  0.2618229E+04  0.7818608E-02  0.8362036E-01
          2   -1    0    0  501    0  0.00000000000E+00  0.00000000000E+00  0.15770415489E+04  0.15770415489E+04  0.00000000000E+00 0. -1.
         -2   -1    0    0    0  501 -0.00000000000E+00 -0.00000000000E+00 -0.10867058229E+04  0.10867058229E+04  0.00000000000E+00 0.  1.
         23    2    1    2    0    0 -0.26383362856E+03 -0.10977091871E+04  0.45211778412E+03  0.12197307086E+04  0.93588822993E+02 0.  0.
        254    2    1    2    0    0  0.26383362856E+03  0.10977091871E+04  0.38217941924E+02  0.14440166632E+04  0.89952758129E+03 0.  0.
        -24    2    4    4    0    0  0.54556909527E+03  0.94964134617E+03 -0.64889890998E+02  0.10999597045E+04  0.78970434728E+02 0.  0.
         24    2    4    4    0    0 -0.28173546671E+03  0.14806784093E+03  0.10310783292E+03  0.34405695867E+03  0.80280800197E+02 0.  0.
         11    1    3    3    0    0 -0.14499683233E+03 -0.62531242757E+03  0.30644460148E+03  0.71130022299E+03  0.00000000000E+00 0. -1.
        -11    1    3    3    0    0 -0.11883679623E+03 -0.47239675953E+03  0.14567318263E+03  0.50843048560E+03  0.00000000000E+00 0.  1.
          4    1    6    6  502    0 -0.16912028188E+03  0.81676364120E+02  0.10114308935E+03  0.21331343775E+03  0.00000000000E+00 0. -1.
          1    1    5    5  503    0  0.45176126523E+03  0.73801626907E+03 -0.29707481010E+02  0.86581683317E+03  0.00000000000E+00 0. -1.
         -2    1    5    5    0  503  0.93807830038E+02  0.21162507710E+03 -0.35182409988E+02  0.23414287136E+03  0.00000000000E+00 0.  1.
         -3    1    6    6    0  502 -0.11261518483E+03  0.66391476807E+02  0.19647435727E+01  0.13074352092E+03  0.00000000000E+00 0.  1.
<mgrwt>
<rscale>  0 0.26182286E+04</rscale>
<asrwt>0</asrwt>
<pdfrwt beam="1">  1        2 0.24262178E+00 0.26182286E+04</pdfrwt>
<pdfrwt beam="2">  1       -2 0.16718551E+00 0.26182286E+04</pdfrwt>
<totfact> 0.22654681E+00</totfact>
</mgrwt>
</event>
<event>
12    1  0.1663913E-007  0.1900554E+04  0.7818608E-02  0.8654581E-01
          2   -1    0    0  501    0  0.00000000000E+00  0.00000000000E+00  0.16715196941E+04  0.16715196941E+04  0.00000000000E+00 0. -1.
         -2   -1    0    0    0  501 -0.00000000000E+00 -0.00000000000E+00 -0.54024263591E+03  0.54024263591E+03  0.00000000000E+00 0.  1.
         23    2    1    2    0    0 -0.40521088028E+02 -0.64095680214E+03  0.85461843873E+03  0.10728400549E+04  0.90252572667E+02 0.  0.
        254    2    1    2    0    0  0.40521088028E+02  0.64095680214E+03  0.27665861945E+03  0.11389222751E+04  0.89896405720E+03 0.  0.
        -24    2    4    4    0    0  0.12860029757E+03  0.29140085161E+03  0.57612088121E+03  0.66332630649E+03  0.81449531986E+02 0.  0.
         24    2    4    4    0    0 -0.88079209539E+02  0.34955595053E+03 -0.29946226176E+03  0.47559596858E+03  0.81034371789E+02 0.  0.
         11    1    3    3    0    0 -0.32901936091E+02 -0.37649163353E+03  0.42935024171E+03  0.57198786488E+03  0.00000000000E+00 0.  1.
        -11    1    3    3    0    0 -0.76191519372E+01 -0.26446516861E+03  0.42526819702E+03  0.50085219005E+03  0.00000000000E+00 0. -1.
          4    1    6    6  502    0 -0.90286339093E+02  0.30338252076E+03 -0.22650268347E+03  0.38922492540E+03  0.00000000000E+00 0. -1.
          1    1    5    5  503    0  0.78154822535E+02  0.15157380659E+03  0.38598473147E+03  0.42197986689E+03  0.00000000000E+00 0. -1.
         -2    1    5    5    0  503  0.50445475032E+02  0.13982704502E+03  0.19013614974E+03  0.24134643960E+03  0.00000000000E+00 0.  1.
         -3    1    6    6    0  502  0.22071295540E+01  0.46173429767E+02 -0.72959578282E+02  0.86371043183E+02  0.00000000000E+00 0.  1.
<mgrwt>
<rscale>  0 0.19005538E+04</rscale>
<asrwt>0</asrwt>
<pdfrwt beam="1">  1        2 0.25715687E+00 0.19005538E+04</pdfrwt>
<pdfrwt beam="2">  1       -2 0.83114253E-01 0.19005538E+04</pdfrwt>
<totfact> 0.12078315E+01</totfact>
</mgrwt>
</event>
<event>
12    1  0.1663913E-007  0.1622790E+04  0.7818608E-02  0.8806668E-01
          1   -1    0    0  501    0  0.00000000000E+00  0.00000000000E+00  0.79803658502E+03  0.79803658502E+03  0.00000000000E+00 0. -1.
         -1   -1    0    0    0  501 -0.00000000000E+00 -0.00000000000E+00 -0.82497676376E+03  0.82497676376E+03  0.00000000000E+00 0.  1.
         23    2    1    2    0    0  0.33877560414E+03 -0.16985574354E+03  0.39822504928E+03  0.55749665600E+03  0.92733208728E+02 0.  0.
        254    2    1    2    0    0 -0.33877560414E+03  0.16985574354E+03 -0.42516522802E+03  0.10655166928E+04  0.90052233059E+03 0.  0.
        -24    2    4    4    0    0 -0.40747582610E+03 -0.86189387956E+02  0.13056201935E+03  0.44459109103E+03  0.84555531325E+02 0.  0.
         24    2    4    4    0    0  0.68700221957E+02  0.25604513150E+03 -0.55572724737E+03  0.62092560175E+03  0.80230914113E+02 0.  0.
         13    1    3    3    0    0  0.59695057009E+02 -0.22017204345E+02  0.24453978191E+02  0.68163437178E+02  0.00000000000E+00 0.  1.
        -13    1    3    3    0    0  0.27908054713E+03 -0.14783853920E+03  0.37377107109E+03  0.48933321882E+03  0.00000000000E+00 0. -1.
          2    1    6    6  502    0  0.10120811225E+02  0.27109329419E+02 -0.13788649120E+03  0.14089013811E+03  0.00000000000E+00 0. -1.
          3    1    5    5  503    0 -0.86877461195E+02 -0.40108278859E+02  0.60488923801E+02  0.11320458118E+03  0.00000000000E+00 0. -1.
         -4    1    5    5    0  503 -0.32059836490E+03 -0.46081109096E+02  0.70073095545E+02  0.33138650985E+03  0.00000000000E+00 0.  1.
         -1    1    6    6    0  502  0.58579410732E+02  0.22893580208E+03 -0.41784075617E+03  0.48003546364E+03  0.00000000000E+00 0.  1.
<mgrwt>
<rscale>  0 0.16227897E+04</rscale>
<asrwt>0</asrwt>
<pdfrwt beam="1">  1        1 0.12277486E+00 0.16227897E+04</pdfrwt>
<pdfrwt beam="2">  1       -1 0.12691950E+00 0.16227897E+04</pdfrwt>
<totfact> 0.11455038E+01</totfact>
</mgrwt>
</event>
<event>
12    1  0.1663913E-007  0.1356476E+04  0.7818608E-02  0.8985941E-01
         -2   -1    0    0    0  501 -0.00000000000E+00  0.00000000000E+00  0.21168608190E+03  0.21168608190E+03  0.00000000000E+00 0.  1.
          2   -1    0    0  501    0  0.00000000000E+00 -0.00000000000E+00 -0.21730597621E+04  0.21730597621E+04  0.00000000000E+00 0. -1.
         23    2    1    2    0    0 -0.77703204116E+02 -0.27924543342E+03 -0.86199207090E+03  0.91461538643E+03  0.97340509501E+02 0.  0.
        254    2    1    2    0    0  0.77703204116E+02  0.27924543342E+03 -0.10993816093E+04  0.14701304575E+04  0.93200205973E+03 0.  0.
        -24    2    4    4    0    0  0.47677573295E+03  0.47158661091E+01 -0.58856327426E+03  0.76165288288E+03  0.79818840342E+02 0.  0.
         24    2    4    4    0    0 -0.39907252883E+03  0.27452956731E+03 -0.51081833501E+03  0.70847757464E+03  0.79873248342E+02 0.  0.
         13    1    3    3    0    0 -0.14124932965E+02 -0.10695479416E+03 -0.19557534453E+03  0.22335746487E+03  0.00000000000E+00 0.  1.
        -13    1    3    3    0    0 -0.63578271152E+02 -0.17229063926E+03 -0.66641672637E+03  0.69125792156E+03  0.00000000000E+00 0. -1.
          4    1    6    6  502    0 -0.33506273035E+03  0.19110839648E+03 -0.40513929215E+03  0.55939905124E+03  0.00000000000E+00 0. -1.
          1    1    5    5  503    0  0.28194382423E+03  0.36586854052E+02 -0.31555266796E+03  0.42474039620E+03  0.00000000000E+00 0. -1.
         -2    1    5    5    0  503  0.19483190872E+03 -0.31870987943E+02 -0.27301060630E+03  0.33691248668E+03  0.00000000000E+00 0.  1.
         -3    1    6    6    0  502 -0.64009798478E+02  0.83421170824E+02 -0.10567904285E+03  0.14907852341E+03  0.00000000000E+00 0.  1.
<mgrwt>
<rscale>  0 0.13564756E+04</rscale>
<asrwt>0</asrwt>
<pdfrwt beam="1">  1        2 0.33431688E+00 0.13564756E+04</pdfrwt>
<pdfrwt beam="2">  1       -2 0.32567090E-01 0.13564756E+04</pdfrwt>
<totfact> 0.45948974E+01</totfact>
</mgrwt>
</event>
<event>
12    1  0.1663913E-007  0.1697015E+04  0.7818608E-02  0.8763068E-01
          1   -1    0    0  501    0  0.00000000000E+00  0.00000000000E+00  0.32876319833E+04  0.32876319833E+04  0.00000000000E+00 0. -1.
         -1   -1    0    0    0  501 -0.00000000000E+00 -0.00000000000E+00 -0.21899204144E+03  0.21899204144E+03  0.00000000000E+00 0.  1.
         23    2    1    2    0    0 -0.41855839483E+03  0.45215951863E+03  0.62943781156E+03  0.88540304795E+03  0.90040205015E+02 0.  0.
        254    2    1    2    0    0  0.41855839483E+03 -0.45215951863E+03  0.24392021303E+04  0.26212209768E+04  0.73583491124E+03 0.  0.
        -24    2    4    4    0    0  0.98144547713E+01 -0.48109018836E+03  0.17370938439E+04  0.18043636540E+04  0.81786798425E+02 0.  0.
         24    2    4    4    0    0  0.40874394006E+03  0.28930669733E+02  0.70210828641E+03  0.81685732284E+03  0.79945280322E+02 0.  0.
         11    1    3    3    0    0 -0.17762481520E+03  0.22462623290E+03  0.23668227898E+03  0.37151853341E+03  0.00000000000E+00 0.  1.
        -11    1    3    3    0    0 -0.24093357963E+03  0.22753328572E+03  0.39275553259E+03  0.51388451454E+03  0.00000000000E+00 0. -1.
          4    1    6    6  502    0  0.35482009596E+03 -0.12699398288E+01  0.57821347543E+03  0.67840234110E+03  0.00000000000E+00 0. -1.
          3    1    5    5  503    0 -0.10208854907E+02 -0.39604411867E+03  0.15080559955E+04  0.15592267475E+04  0.00000000000E+00 0. -1.
         -4    1    5    5    0  503  0.20023309678E+02 -0.85046069687E+02  0.22903784845E+03  0.24513690649E+03  0.00000000000E+00 0.  1.
         -3    1    6    6    0  502  0.53923844101E+02  0.30200609562E+02  0.12389481098E+03  0.13845498174E+03  0.00000000000E+00 0.  1.
<mgrwt>
<rscale>  0 0.16970153E+04</rscale>
<asrwt>0</asrwt>
<pdfrwt beam="1">  1        1 0.50578950E+00 0.16970153E+04</pdfrwt>
<pdfrwt beam="2">  1       -1 0.33691086E-01 0.16970153E+04</pdfrwt>
<totfact> 0.29037970E+00</totfact>
</mgrwt>
</event>
<event>
12    1  0.1663913E-007  0.1522861E+04  0.7818608E-02  0.8869392E-01
          2   -1    0    0  501    0  0.00000000000E+00  0.00000000000E+00  0.17126399252E+04  0.17126399252E+04  0.00000000000E+00 0. -1.
         -2   -1    0    0    0  501 -0.00000000000E+00 -0.00000000000E+00 -0.33852773546E+03  0.33852773546E+03  0.00000000000E+00 0.  1.
         23    2    1    2    0    0  0.16954340806E+03 -0.36921424234E+03  0.10255058198E+03  0.42872683708E+03  0.90697050709E+02 0.  0.
        254    2    1    2    0    0 -0.16954340806E+03  0.36921424234E+03  0.12715616078E+04  0.16224408236E+04  0.92216114631E+03 0.  0.
        -24    2    4    4    0    0 -0.87968523302E+02  0.24144889200E+03  0.13888372036E+04  0.14146316670E+04  0.79233494084E+02 0.  0.
         24    2    4    4    0    0 -0.81574884759E+02  0.12776535034E+03 -0.11727559586E+03  0.20780915659E+03  0.80328286482E+02 0.  0.
         13    1    3    3    0    0  0.29839336901E+02 -0.36787450244E+02 -0.14629077753E+02  0.49575320857E+02  0.00000000000E+00 0. -1.
        -13    1    3    3    0    0  0.13970407116E+03 -0.33242679209E+03  0.11717965973E+03  0.37915151623E+03  0.00000000000E+00 0.  1.
          2    1    6    6  502    0 -0.69304944098E+02  0.11649868329E+03 -0.60143694540E+02  0.14829828886E+03  0.00000000000E+00 0. -1.
          1    1    5    5  503    0  0.95885346798E+01  0.14793558206E+02  0.18031603333E+03  0.18117577442E+03  0.00000000000E+00 0. -1.
         -2    1    5    5    0  503 -0.97557057982E+02  0.22665533379E+03  0.12085211703E+04  0.12334558926E+04  0.00000000000E+00 0.  1.
         -1    1    6    6    0  502 -0.12269940661E+02  0.11266667043E+02 -0.57131901317E+02  0.59510867731E+02  0.00000000000E+00 0.  1.
<mgrwt>
<rscale>  0 0.15228606E+04</rscale>
<asrwt>0</asrwt>
<pdfrwt beam="1">  1        2 0.26348306E+00 0.15228606E+04</pdfrwt>
<pdfrwt beam="2">  1       -2 0.52081191E-01 0.15228606E+04</pdfrwt>
<totfact> 0.32390208E+01</totfact>
</mgrwt>
</event>
<event>
12    1  0.1663913E-007  0.2372943E+04  0.7818608E-02  0.8449703E-01
         -2   -1    0    0    0  501 -0.00000000000E+00  0.00000000000E+00  0.17081879857E+04  0.17081879857E+04  0.00000000000E+00 0.  1.
          2   -1    0    0  501    0  0.00000000000E+00 -0.00000000000E+00 -0.82409839409E+03  0.82409839409E+03  0.00000000000E+00 0. -1.
         23    2    1    2    0    0  0.34090949376E+03 -0.65839793876E+03  0.11149864791E+04  0.13425844101E+04  0.98137255849E+02 0.  0.
        254    2    1    2    0    0 -0.34090949376E+03  0.65839793876E+03 -0.23089688748E+03  0.11897019697E+04  0.90131585771E+03 0.  0.
        -24    2    4    4    0    0  0.96001803022E+02  0.65791497311E+03  0.35999634787E+02  0.67079902208E+03  0.81282816702E+02 0.  0.
         24    2    4    4    0    0 -0.43691129679E+03  0.48296564715E+00 -0.26689652226E+03  0.51890294762E+03  0.84467750879E+02 0.  0.
         11    1    3    3    0    0  0.10211624828E+03 -0.11722316377E+03  0.20597398349E+03  0.25805867582E+03  0.00000000000E+00 0. -1.
        -11    1    3    3    0    0  0.23879324549E+03 -0.54117477499E+03  0.90901249564E+03  0.10845257343E+04  0.00000000000E+00 0.  1.
          2    1    6    6  502    0 -0.28427359709E+03 -0.10697455265E+02 -0.21745699969E+03  0.35806907192E+03  0.00000000000E+00 0. -1.
          3    1    5    5  503    0 -0.45816468842E+01  0.13631754107E+03  0.29519972978E+02  0.13955247148E+03  0.00000000000E+00 0. -1.
         -4    1    5    5    0  503  0.10058344991E+03  0.52159743204E+03  0.64796618092E+01  0.53124655060E+03  0.00000000000E+00 0.  1.
         -1    1    6    6    0  502 -0.15263769970E+03  0.11180420912E+02 -0.49439522571E+02  0.16083387570E+03  0.00000000000E+00 0.  1.
<mgrwt>
<rscale>  0 0.23729433E+04</rscale>
<asrwt>0</asrwt>
<pdfrwt beam="1">  1        2 0.12678437E+00 0.23729433E+04</pdfrwt>
<pdfrwt beam="2">  1       -2 0.26279815E+00 0.23729433E+04</pdfrwt>
<totfact> 0.15999737E+00</totfact>
</mgrwt>
</event>
<event>
12    1  0.1663913E-007  0.1652033E+04  0.7818608E-02  0.8789205E-01
         -2   -1    0    0    0  501 -0.00000000000E+00  0.00000000000E+00  0.22547746731E+03  0.22547746731E+03  0.00000000000E+00 0.  1.
          2   -1    0    0  501    0  0.00000000000E+00 -0.00000000000E+00 -0.30260379199E+04  0.30260379199E+04  0.00000000000E+00 0. -1.
         23    2    1    2    0    0  0.20567991228E+03 -0.47467318616E+03 -0.46205769543E+03  0.69972115943E+03  0.92160333544E+02 0.  0.
        254    2    1    2    0    0 -0.20567991228E+03  0.47467318616E+03 -0.23385027572E+04  0.25517942278E+04  0.88059058350E+03 0.  0.
        -24    2    4    4    0    0 -0.24348347183E+03 -0.19018320416E+03 -0.48488168496E+03  0.58055022781E+03  0.80464068944E+02 0.  0.
         24    2    4    4    0    0  0.37803559555E+02  0.66485639032E+03 -0.18536210722E+04  0.19712440000E+04  0.80179170048E+02 0.  0.
         11    1    3    3    0    0  0.50282357228E+02 -0.81674301054E+02 -0.44883852802E+02  0.10589413177E+03  0.00000000000E+00 0. -1.
        -11    1    3    3    0    0  0.15539755505E+03 -0.39299888510E+03 -0.41717384263E+03  0.59382702766E+03  0.00000000000E+00 0.  1.
          2    1    6    6  502    0 -0.17143045271E+02  0.36514988273E+03 -0.97347244997E+03  0.10398446671E+04  0.00000000000E+00 0. -1.
          3    1    5    5  503    0 -0.23892957243E+03 -0.19551937391E+03 -0.45499007181E+03  0.54984646184E+03  0.00000000000E+00 0. -1.
         -4    1    5    5    0  503 -0.45538994044E+01  0.53361697492E+01 -0.29891613153E+02  0.30703765963E+02  0.00000000000E+00 0.  1.
         -1    1    6    6    0  502  0.54946604826E+02  0.29970650759E+03 -0.88014862225E+03  0.93139933289E+03  0.00000000000E+00 0.  1.
<mgrwt>
<rscale>  0 0.16520331E+04</rscale>
<asrwt>0</asrwt>
<pdfrwt beam="1">  1        2 0.46554428E+00 0.16520331E+04</pdfrwt>
<pdfrwt beam="2">  1       -2 0.34688842E-01 0.16520331E+04</pdfrwt>
<totfact> 0.12550021E+01</totfact>
</mgrwt>
</event>
<event>
12    1  0.1663913E-007  0.1730519E+04  0.7818608E-02  0.8744147E-01
          2   -1    0    0  501    0  0.00000000000E+00  0.00000000000E+00  0.12012490613E+04  0.12012490613E+04  0.00000000000E+00 0. -1.
         -2   -1    0    0    0  501 -0.00000000000E+00 -0.00000000000E+00 -0.62324608005E+03  0.62324608005E+03  0.00000000000E+00 0.  1.
         23    2    1    2    0    0  0.45856707781E+03 -0.10788160168E+03  0.63791802403E+03  0.79794258956E+03  0.88604548540E+02 0.  0.
        254    2    1    2    0    0 -0.45856707781E+03  0.10788160168E+03 -0.59915042787E+02  0.10265525518E+04  0.91010885304E+03 0.  0.
        -24    2    4    4    0    0 -0.37853428289E+03  0.24739979064E+03 -0.42137049726E+03  0.62294407209E+03  0.77532968887E+02 0.  0.
         24    2    4    4    0    0 -0.80032794917E+02 -0.13951818896E+03  0.36145545447E+03  0.40360847969E+03  0.79869806525E+02 0.  0.
         13    1    3    3    0    0  0.98498940415E+02 -0.22298953039E+02  0.81965140649E+02  0.13006755495E+03  0.00000000000E+00 0.  1.
        -13    1    3    3    0    0  0.36006813739E+03 -0.85582648644E+02  0.55595288338E+03  0.66787503461E+03  0.00000000000E+00 0. -1.
          4    1    6    6  502    0 -0.54037694781E+02 -0.14195646019E+03  0.32526085573E+03  0.35897957229E+03  0.00000000000E+00 0. -1.
          3    1    5    5  503    0 -0.34011829806E+03  0.23811477476E+03 -0.40550524911E+03  0.58035645054E+03  0.00000000000E+00 0. -1.
         -4    1    5    5    0  503 -0.38415984833E+02  0.92850158842E+01 -0.15865248152E+02  0.42587621553E+02  0.00000000000E+00 0.  1.
         -3    1    6    6    0  502 -0.25995100137E+02  0.24382712323E+01  0.36194598736E+02  0.44628907396E+02  0.00000000000E+00 0.  1.
<mgrwt>
<rscale>  0 0.17305187E+04</rscale>
<asrwt>0</asrwt>
<pdfrwt beam="1">  1        2 0.18480755E+00 0.17305187E+04</pdfrwt>
<pdfrwt beam="2">  1       -2 0.95884012E-01 0.17305187E+04</pdfrwt>
<totfact> 0.16372584E+01</totfact>
</mgrwt>
</event>
<event>
12    1  0.1663913E-007  0.1275091E+04  0.7818608E-02  0.9049555E-01
         -1   -1    0    0    0  501 -0.00000000000E+00  0.00000000000E+00  0.35069432332E+03  0.35069432332E+03  0.00000000000E+00 0.  1.
          1   -1    0    0  501    0  0.00000000000E+00 -0.00000000000E+00 -0.11590265477E+04  0.11590265477E+04  0.00000000000E+00 0. -1.
         23    2    1    2    0    0  0.22715334605E+03  0.77360869211E+02 -0.44693538518E+03  0.51522064995E+03  0.90098462226E+02 0.  0.
        254    2    1    2    0    0 -0.22715334605E+03 -0.77360869211E+02 -0.36139683917E+03  0.99450022105E+03  0.89489645636E+03 0.  0.
        -24    2    4    4    0    0 -0.53382153526E+03 -0.58764008902E+02 -0.41649069468E+02  0.54412643844E+03  0.76943458230E+02 0.  0.
         24    2    4    4    0    0  0.30666818922E+03 -0.18596860309E+02 -0.31974776970E+03  0.45037378262E+03  0.78782525667E+02 0.  0.
         13    1    3    3    0    0  0.18148146913E+03  0.68571657388E+02 -0.27128089010E+03  0.33351299401E+03  0.00000000000E+00 0. -1.
        -13    1    3    3    0    0  0.45671876916E+02  0.87892118232E+01 -0.17565449508E+03  0.18170765594E+03  0.00000000000E+00 0.  1.
          2    1    6    6  502    0  0.18899470121E+03  0.27091005185E+02 -0.19044113408E+03  0.26966784235E+03  0.00000000000E+00 0. -1.
          3    1    5    5  503    0 -0.23345247133E+02  0.11935054795E+02  0.49236450529E+01  0.26677488211E+02  0.00000000000E+00 0. -1.
         -4    1    5    5    0  503 -0.51047628813E+03 -0.70699063697E+02 -0.46572714521E+02  0.51744895023E+03  0.00000000000E+00 0.  1.
         -1    1    6    6    0  502  0.11767348800E+03 -0.45687865493E+02 -0.12930663562E+03  0.18070594026E+03  0.00000000000E+00 0.  1.
<mgrwt>
<rscale>  0 0.12750906E+04</rscale>
<asrwt>0</asrwt>
<pdfrwt beam="1">  1        1 0.17831178E+00 0.12750906E+04</pdfrwt>
<pdfrwt beam="2">  1       -1 0.53952972E-01 0.12750906E+04</pdfrwt>
<totfact> 0.39095520E+01</totfact>
</mgrwt>
</event>
<event>
12    1  0.1663913E-007  0.3157687E+04  0.7818608E-02  0.8200082E-01
          1   -1    0    0  501    0  0.00000000000E+00  0.00000000000E+00  0.22672251419E+04  0.22672251419E+04  0.00000000000E+00 0. -1.
         -1   -1    0    0    0  501 -0.00000000000E+00 -0.00000000000E+00 -0.10994703751E+04  0.10994703751E+04  0.00000000000E+00 0.  1.
         23    2    1    2    0    0  0.96676236176E+03  0.24812550758E+03 -0.57935683733E+03  0.11576467188E+04  0.91081550963E+02 0.  0.
        254    2    1    2    0    0 -0.96676236176E+03 -0.24812550758E+03  0.17471116042E+04  0.22090487982E+04  0.91175759050E+03 0.  0.
        -24    2    4    4    0    0 -0.22621960305E+03 -0.45048090613E+03  0.36730430465E+03  0.62812288976E+03  0.74280258672E+02 0.  0.
         24    2    4    4    0    0 -0.74054275870E+03  0.20235539855E+03  0.13798072995E+04  0.15809259085E+04  0.78148956594E+02 0.  0.
         11    1    3    3    0    0  0.92958878345E+03  0.22889643334E+03 -0.57180377558E+03  0.11151181288E+04  0.00000000000E+00 0.  1.
        -11    1    3    3    0    0  0.37173578311E+02  0.19229074233E+02 -0.75530617452E+01  0.42528589937E+02  0.00000000000E+00 0. -1.
          4    1    6    6  502    0 -0.15730359933E+03  0.23860834000E+02  0.23542335976E+03  0.28414418889E+03  0.00000000000E+00 0. -1.
          1    1    5    5  503    0 -0.66886207381E+02 -0.21532065244E+03  0.16062889106E+03  0.27683639347E+03  0.00000000000E+00 0. -1.
         -2    1    5    5    0  503 -0.15933339567E+03 -0.23516025369E+03  0.20667541359E+03  0.35128649629E+03  0.00000000000E+00 0.  1.
         -3    1    6    6    0  502 -0.58323915938E+03  0.17849456455E+03  0.11443839398E+04  0.12967817196E+04  0.00000000000E+00 0.  1.
<mgrwt>
<rscale>  0 0.31576871E+04</rscale>
<asrwt>0</asrwt>
<pdfrwt beam="1">  1        1 0.34880387E+00 0.31576871E+04</pdfrwt>
<pdfrwt beam="2">  1       -1 0.16914929E+00 0.31576871E+04</pdfrwt>
<totfact> 0.41077145E-01</totfact>
</mgrwt>
</event>
<event>
12    1  0.1663913E-007  0.1349964E+04  0.7818608E-02  0.8990855E-01
         -1   -1    0    0    0  501 -0.00000000000E+00  0.00000000000E+00  0.37256956584E+03  0.37256956584E+03  0.00000000000E+00 0.  1.
          1   -1    0    0  501    0  0.00000000000E+00 -0.00000000000E+00 -0.12228615926E+04  0.12228615926E+04  0.00000000000E+00 0. -1.
         23    2    1    2    0    0 -0.11498929576E+03  0.51181863145E+02  0.75316103915E+02  0.17310417505E+03  0.91926158717E+02 0.  0.
        254    2    1    2    0    0  0.11498929576E+03 -0.51181863145E+02 -0.92560813069E+03  0.14223269834E+04  0.10725770438E+04 0.  0.
        -24    2    4    4    0    0  0.54447383212E+03  0.16437212486E+03 -0.62449648163E+03  0.84861767719E+03  0.81768925568E+02 0.  0.
         24    2    4    4    0    0 -0.42948453636E+03 -0.21555398801E+03 -0.30111164906E+03  0.57370930621E+03  0.86911760482E+02 0.  0.
         11    1    3    3    0    0  0.68413139828E+01  0.15421936014E+02  0.36698752019E+02  0.40391064447E+02  0.00000000000E+00 0. -1.
        -11    1    3    3    0    0 -0.12183060974E+03  0.35759927131E+02  0.38617351896E+02  0.13271311060E+03  0.00000000000E+00 0.  1.
          2    1    6    6  502    0 -0.34007509667E+02 -0.80150091176E+01 -0.50999994454E+02  0.61820308307E+02  0.00000000000E+00 0. -1.
          1    1    5    5  503    0  0.26195284758E+02  0.26393721096E+02 -0.54358794792E+02  0.65861217937E+02  0.00000000000E+00 0. -1.
         -2    1    5    5    0  503  0.51827854736E+03  0.13797840376E+03 -0.57013768683E+03  0.78275645926E+03  0.00000000000E+00 0.  1.
         -1    1    6    6    0  502 -0.39547702670E+03 -0.20753897889E+03 -0.25011165461E+03  0.51188899790E+03  0.00000000000E+00 0.  1.
<mgrwt>
<rscale>  0 0.13499645E+04</rscale>
<asrwt>0</asrwt>
<pdfrwt beam="1">  1        1 0.18813255E+00 0.13499645E+04</pdfrwt>
<pdfrwt beam="2">  1       -1 0.57318395E-01 0.13499645E+04</pdfrwt>
<totfact> 0.31021398E+01</totfact>
</mgrwt>
</event>
<event>
12    1  0.1663913E-007  0.1727159E+04  0.7818608E-02  0.8746024E-01
          2   -1    0    0  501    0  0.00000000000E+00  0.00000000000E+00  0.76381492413E+03  0.76381492413E+03  0.00000000000E+00 0. -1.
         -2   -1    0    0    0  501 -0.00000000000E+00 -0.00000000000E+00 -0.97637458751E+03  0.97637458751E+03  0.00000000000E+00 0.  1.
         23    2    1    2    0    0  0.11101923927E+03 -0.39352054425E+03 -0.54408025458E+03  0.68724729219E+03  0.95403495574E+02 0.  0.
        254    2    1    2    0    0 -0.11101923927E+03  0.39352054425E+03  0.33152059121E+03  0.10529422194E+04  0.91191980177E+03 0.  0.
        -24    2    4    4    0    0  0.36925362494E+03  0.20834650489E+03  0.31168190629E+03  0.53232478847E+03  0.80421166881E+02 0.  0.
         24    2    4    4    0    0 -0.48027286421E+03  0.18517403936E+03  0.19838684920E+02  0.52061743098E+03  0.75481700234E+02 0.  0.
         13    1    3    3    0    0  0.83265327919E+01 -0.94771715422E+01  0.93902807019E+00  0.12650284680E+02  0.00000000000E+00 0. -1.
        -13    1    3    3    0    0  0.10269270648E+03 -0.38404337271E+03 -0.54501928265E+03  0.67459700751E+03  0.00000000000E+00 0.  1.
          4    1    6    6  502    0 -0.43235641190E+03  0.18957344741E+03  0.19624188976E+02  0.47249896049E+03  0.00000000000E+00 0. -1.
          3    1    5    5  503    0  0.27467468044E+03  0.17443748288E+03  0.27272524306E+03  0.42456292078E+03  0.00000000000E+00 0. -1.
         -4    1    5    5    0  503  0.94578944499E+02  0.33909022016E+02  0.38956663230E+02  0.10776186768E+03  0.00000000000E+00 0.  1.
         -3    1    6    6    0  502 -0.47916452312E+02 -0.43994080544E+01  0.21449594429E+00  0.48118470485E+02  0.00000000000E+00 0.  1.
<mgrwt>
<rscale>  0 0.17271589E+04</rscale>
<asrwt>0</asrwt>
<pdfrwt beam="1">  1        2 0.11750999E+00 0.17271589E+04</pdfrwt>
<pdfrwt beam="2">  1       -2 0.15021147E+00 0.17271589E+04</pdfrwt>
<totfact> 0.10374047E+01</totfact>
</mgrwt>
</event>
<event>
12    1  0.1663913E-007  0.1700614E+04  0.7818608E-02  0.8761014E-01
         -2   -1    0    0    0  501 -0.00000000000E+00  0.00000000000E+00  0.73163025688E+03  0.73163025688E+03  0.00000000000E+00 0.  1.
          2   -1    0    0  501    0  0.00000000000E+00 -0.00000000000E+00 -0.98823389599E+03  0.98823389599E+03  0.00000000000E+00 0. -1.
         23    2    1    2    0    0 -0.10376150703E+03 -0.37454266730E+03  0.38403660377E+03  0.55383904338E+03  0.90580974660E+02 0.  0.
        254    2    1    2    0    0  0.10376150703E+03  0.37454266730E+03 -0.64064024288E+03  0.11660251095E+04  0.89339015843E+03 0.  0.
        -24    2    4    4    0    0 -0.69453723052E+02  0.45141644396E+03  0.29266335962E+02  0.46478217570E+03  0.81026704922E+02 0.  0.
         24    2    4    4    0    0  0.17321523009E+03 -0.76873776659E+02 -0.66990657885E+03  0.70124293378E+03  0.83986512780E+02 0.  0.
         11    1    3    3    0    0 -0.41701297677E+02 -0.17086701214E+03  0.23678373181E+03  0.29495943741E+03  0.00000000000E+00 0.  1.
        -11    1    3    3    0    0 -0.62060209357E+02 -0.20367565516E+03  0.14725287196E+03  0.25887960597E+03  0.00000000000E+00 0. -1.
          4    1    6    6  502    0  0.39305184725E+02 -0.16167747225E+02 -0.30312560138E+03  0.30609054838E+03  0.00000000000E+00 0. -1.
          1    1    5    5  503    0 -0.74779238975E+01  0.34642526039E+02 -0.19769916048E+02  0.40581689673E+02  0.00000000000E+00 0. -1.
         -2    1    5    5    0  503 -0.61975799155E+02  0.41677391792E+03  0.49036252010E+02  0.42420048603E+03  0.00000000000E+00 0.  1.
         -3    1    6    6    0  502  0.13391004536E+03 -0.60706029434E+02 -0.36678097747E+03  0.39515238541E+03  0.00000000000E+00 0.  1.
<mgrwt>
<rscale>  0 0.17006138E+04</rscale>
<asrwt>0</asrwt>
<pdfrwt beam="1">  1        2 0.15203598E+00 0.17006138E+04</pdfrwt>
<pdfrwt beam="2">  1       -2 0.11255850E+00 0.17006138E+04</pdfrwt>
<totfact> 0.15155762E+01</totfact>
</mgrwt>
</event>
<event>
12    1  0.1663913E-007  0.1070030E+04  0.7818608E-02  0.9234905E-01
         -1   -1    0    0    0  501 -0.00000000000E+00  0.00000000000E+00  0.14784853126E+04  0.14784853126E+04  0.00000000000E+00 0.  1.
          1   -1    0    0  501    0  0.00000000000E+00 -0.00000000000E+00 -0.19360442950E+03  0.19360442950E+03  0.00000000000E+00 0. -1.
         23    2    1    2    0    0  0.44669422457E+02 -0.67468244325E+02 -0.12423446706E+02  0.12226738705E+03  0.90816576754E+02 0.  0.
        254    2    1    2    0    0 -0.44669422457E+02  0.67468244325E+02  0.12973043298E+04  0.15498223550E+04  0.84403997939E+03 0.  0.
        -24    2    4    4    0    0  0.35915775439E+03 -0.93462783720E+02  0.41015374069E+03  0.55879663735E+03  0.79359979968E+02 0.  0.
         24    2    4    4    0    0 -0.40382717685E+03  0.16093102804E+03  0.88715058910E+03  0.99102571770E+03  0.78234396860E+02 0.  0.
         11    1    3    3    0    0 -0.27551356613E+02 -0.21067659987E+02 -0.11096657978E+02  0.36415098062E+02  0.00000000000E+00 0. -1.
        -11    1    3    3    0    0  0.72220779070E+02 -0.46400584337E+02 -0.13267887274E+01  0.85852288989E+02  0.00000000000E+00 0.  1.
          2    1    6    6  502    0 -0.34983832801E+03  0.15058537261E+03  0.82079733585E+03  0.90485970002E+03  0.00000000000E+00 0. -1.
          3    1    5    5  503    0  0.26043550981E+03 -0.30039854973E+02  0.28166149144E+03  0.38478856976E+03  0.00000000000E+00 0. -1.
         -4    1    5    5    0  503  0.98722244583E+02 -0.63422928748E+02  0.12849224926E+03  0.17400806759E+03  0.00000000000E+00 0.  1.
         -1    1    6    6    0  502 -0.53988848840E+02  0.10345655435E+02  0.66353253257E+02  0.86166017682E+02  0.00000000000E+00 0.  1.
<mgrwt>
<rscale>  0 0.10700305E+04</rscale>
<asrwt>0</asrwt>
<pdfrwt beam="1">  1        1 0.29785298E-01 0.10700305E+04</pdfrwt>
<pdfrwt beam="2">  1       -1 0.22745927E+00 0.10700305E+04</pdfrwt>
<totfact> 0.15249594E+01</totfact>
</mgrwt>
</event>
<event>
12    1  0.1663913E-007  0.1571571E+04  0.7818608E-02  0.8838206E-01
         -2   -1    0    0    0  501 -0.00000000000E+00  0.00000000000E+00  0.16669664418E+03  0.16669664418E+03  0.00000000000E+00 0.  1.
          2   -1    0    0  501    0  0.00000000000E+00 -0.00000000000E+00 -0.37040848275E+04  0.37040848275E+04  0.00000000000E+00 0. -1.
         23    2    1    2    0    0 -0.20985603999E+03 -0.47599929898E+03 -0.13010589105E+04  0.14042098646E+04  0.91848599697E+02 0.  0.
        254    2    1    2    0    0  0.20985603999E+03  0.47599929898E+03 -0.22363292728E+04  0.24665716070E+04  0.90121694721E+03 0.  0.
        -24    2    4    4    0    0 -0.35626685064E+02  0.41401372333E+02 -0.17891326625E+04  0.17917591437E+04  0.80136200697E+02 0.  0.
         24    2    4    4    0    0  0.24548272506E+03  0.43459792665E+03 -0.44719661034E+03  0.67481246335E+03  0.79056475043E+02 0.  0.
         11    1    3    3    0    0 -0.28403262851E+02 -0.13795423126E+02 -0.70653709606E+02  0.77388666618E+02  0.00000000000E+00 0. -1.
        -11    1    3    3    0    0 -0.18145277714E+03 -0.46220387585E+03 -0.12304052009E+04  0.13268211980E+04  0.00000000000E+00 0.  1.
          2    1    6    6  502    0  0.18246257162E+03  0.34629912663E+03 -0.38838308673E+03  0.55141372598E+03  0.00000000000E+00 0. -1.
          1    1    5    5  503    0 -0.57466877407E+02  0.40691309289E+02 -0.15595716940E+04  0.15611604957E+04  0.00000000000E+00 0. -1.
         -2    1    5    5    0  503  0.21840192343E+02  0.71006304415E+00 -0.22956096847E+03  0.23059864795E+03  0.00000000000E+00 0.  1.
         -1    1    6    6    0  502  0.63020153439E+02  0.88298800018E+02 -0.58813523607E+02  0.12339873736E+03  0.00000000000E+00 0.  1.
<mgrwt>
<rscale>  0 0.15715706E+04</rscale>
<asrwt>0</asrwt>
<pdfrwt beam="1">  1        2 0.56985919E+00 0.15715706E+04</pdfrwt>
<pdfrwt beam="2">  1       -2 0.25645638E-01 0.15715706E+04</pdfrwt>
<totfact> 0.77500424E+00</totfact>
</mgrwt>
</event>
<event>
12    1  0.1663913E-007  0.1651006E+04  0.7818608E-02  0.8789812E-01
         -1   -1    0    0    0  501 -0.00000000000E+00  0.00000000000E+00  0.71750246360E+03  0.71750246360E+03  0.00000000000E+00 0.  1.
          1   -1    0    0  501    0  0.00000000000E+00 -0.00000000000E+00 -0.94975987132E+03  0.94975987132E+03  0.00000000000E+00 0. -1.
         23    2    1    2    0    0 -0.35468295791E+02  0.48186562133E+03  0.22345622595E+03  0.54010525537E+03  0.91260752418E+02 0.  0.
        254    2    1    2    0    0  0.35468295791E+02 -0.48186562133E+03 -0.45571363367E+03  0.11271570795E+04  0.91068967768E+03 0.  0.
        -24    2    4    4    0    0 -0.10508574263E+03 -0.41005798191E+03 -0.70090805391E+03  0.82274174578E+03  0.80257824375E+02 0.  0.
         24    2    4    4    0    0  0.14055403842E+03 -0.71807639424E+02  0.24519442025E+03  0.30441533377E+03  0.87387738930E+02 0.  0.
         13    1    3    3    0    0 -0.88134574611E+01  0.50232606717E+02  0.57606404359E+02  0.76938219586E+02  0.00000000000E+00 0. -1.
        -13    1    3    3    0    0 -0.26654838330E+02  0.43163301462E+03  0.16584982159E+03  0.46316703578E+03  0.00000000000E+00 0.  1.
          4    1    6    6  502    0  0.13290211783E+03 -0.51828822996E+02  0.15061561932E+03  0.20744701637E+03  0.00000000000E+00 0. -1.
          3    1    5    5  503    0 -0.74489631150E+02 -0.34478929432E+03 -0.62755404949E+03  0.71989752580E+03  0.00000000000E+00 0. -1.
         -4    1    5    5    0  503 -0.30596111482E+02 -0.65268687587E+02 -0.73354004426E+02  0.10284421998E+03  0.00000000000E+00 0.  1.
         -3    1    6    6    0  502  0.76519205960E+01 -0.19978816428E+02  0.94578800928E+02  0.96968317401E+02  0.00000000000E+00 0.  1.
<mgrwt>
<rscale>  0 0.16510058E+04</rscale>
<asrwt>0</asrwt>
<pdfrwt beam="1">  1        1 0.14611690E+00 0.16510058E+04</pdfrwt>
<pdfrwt beam="2">  1       -1 0.11038499E+00 0.16510058E+04</pdfrwt>
<totfact> 0.11995225E+01</totfact>
</mgrwt>
</event>
<event>
12    1  0.1663913E-007  0.1575890E+04  0.7818608E-02  0.8835498E-01
          2   -1    0    0  501    0  0.00000000000E+00  0.00000000000E+00  0.14640223054E+04  0.14640223054E+04  0.00000000000E+00 0. -1.
         -2   -1    0    0    0  501 -0.00000000000E+00 -0.00000000000E+00 -0.42407650859E+03  0.42407650859E+03  0.00000000000E+00 0.  1.
         23    2    1    2    0    0 -0.38559608249E+03  0.25200071710E+02  0.77757670560E+03  0.87306472665E+03  0.91088426199E+02 0.  0.
        254    2    1    2    0    0  0.38559608249E+03 -0.25200071710E+02  0.26236909122E+03  0.10150340873E+04  0.90118659333E+03 0.  0.
        -24    2    4    4    0    0 -0.10870561376E+03 -0.17986786316E+03  0.41322258673E+03  0.46985848192E+03  0.76450822006E+02 0.  0.
         24    2    4    4    0    0  0.49430169625E+03  0.15466779145E+03 -0.15085349551E+03  0.54517560543E+03  0.78761481861E+02 0.  0.
         11    1    3    3    0    0 -0.18987635077E+03 -0.33196538862E+02  0.37492248592E+03  0.42157076420E+03  0.00000000000E+00 0.  1.
        -11    1    3    3    0    0 -0.19571973171E+03  0.58396610573E+02  0.40265421967E+03  0.45149396245E+03  0.00000000000E+00 0. -1.
          4    1    6    6  502    0  0.39903702989E+03  0.11768244977E+03 -0.15214227941E+03  0.44297514986E+03  0.00000000000E+00 0. -1.
          3    1    5    5  503    0 -0.92308420105E+02 -0.16143680771E+03  0.40164515545E+03  0.44260763460E+03  0.00000000000E+00 0. -1.
         -4    1    5    5    0  503 -0.16397193655E+02 -0.18431055446E+02  0.11577431279E+02  0.27250847320E+02  0.00000000000E+00 0.  1.
         -3    1    6    6    0  502  0.95264666357E+02  0.36985341680E+02  0.12887839031E+01  0.10220045557E+03  0.00000000000E+00 0.  1.
<mgrwt>
<rscale>  0 0.15758902E+04</rscale>
<asrwt>0</asrwt>
<pdfrwt beam="1">  1        2 0.22523420E+00 0.15758902E+04</pdfrwt>
<pdfrwt beam="2">  1       -2 0.65242541E-01 0.15758902E+04</pdfrwt>
<totfact> 0.27677170E+01</totfact>
</mgrwt>
</event>
<event>
12    1  0.1663913E-007  0.3166514E+04  0.7818608E-02  0.8197717E-01
          1   -1    0    0  501    0  0.00000000000E+00  0.00000000000E+00  0.22191562048E+04  0.22191562048E+04  0.00000000000E+00 0. -1.
         -1   -1    0    0    0  501 -0.00000000000E+00 -0.00000000000E+00 -0.11295750526E+04  0.11295750526E+04  0.00000000000E+00 0.  1.
         23    2    1    2    0    0  0.76665826391E+03 -0.80456062657E+03 -0.49257929866E+03  0.12190155893E+04  0.91005197905E+02 0.  0.
        254    2    1    2    0    0 -0.76665826391E+03  0.80456062657E+03  0.15821604508E+04  0.21297156681E+04  0.89295825170E+03 0.  0.
        -24    2    4    4    0    0 -0.61094529670E+03  0.93574252164E+03  0.97693097130E+03  0.14861778802E+04  0.73907688489E+02 0.  0.
         24    2    4    4    0    0 -0.15571296722E+03 -0.13118189507E+03  0.60522947950E+03  0.64353778791E+03  0.79893328001E+02 0.  0.
         13    1    3    3    0    0 -0.21769870293E+01 -0.33972002617E+01  0.50424702902E+00  0.40662645278E+01  0.00000000000E+00 0. -1.
        -13    1    3    3    0    0  0.76883525094E+03 -0.80116342631E+03 -0.49308354569E+03  0.12149493248E+04  0.00000000000E+00 0.  1.
          2    1    6    6  502    0  0.75824586527E+01 -0.43776092683E+01  0.56064710200E+02  0.56744240871E+02  0.00000000000E+00 0. -1.
          3    1    5    5  503    0 -0.10582619284E+03  0.15473952899E+03  0.20157237441E+03  0.27527245967E+03  0.00000000000E+00 0. -1.
         -4    1    5    5    0  503 -0.50511910385E+03  0.78100299265E+03  0.77535859689E+03  0.12109054205E+04  0.00000000000E+00 0.  1.
         -1    1    6    6    0  502 -0.16329542587E+03 -0.12680428580E+03  0.54916476930E+03  0.58679354704E+03  0.00000000000E+00 0.  1.
<mgrwt>
<rscale>  0 0.31665145E+04</rscale>
<asrwt>0</asrwt>
<pdfrwt beam="1">  1        1 0.34140865E+00 0.31665145E+04</pdfrwt>
<pdfrwt beam="2">  1       -1 0.17378078E+00 0.31665145E+04</pdfrwt>
<totfact> 0.40944486E-01</totfact>
</mgrwt>
</event>
<event>
12    1  0.1663913E-007  0.1426368E+04  0.7818608E-02  0.8934950E-01
         -1   -1    0    0    0  501 -0.00000000000E+00  0.00000000000E+00  0.29870287981E+03  0.29870287981E+03  0.00000000000E+00 0.  1.
          1   -1    0    0  501    0  0.00000000000E+00 -0.00000000000E+00 -0.17027996867E+04  0.17027996867E+04  0.00000000000E+00 0. -1.
         23    2    1    2    0    0  0.79348045165E+02  0.53035696202E+02  0.15369831249E+03  0.20145834554E+03  0.88619390559E+02 0.  0.
        254    2    1    2    0    0 -0.79348045165E+02 -0.53035696202E+02 -0.15577951194E+04  0.18000442210E+04  0.89684149442E+03 0.  0.
        -24    2    4    4    0    0 -0.13259064896E+03  0.86683435165E+02  0.50835550906E+02  0.18250847455E+03  0.75038602879E+02 0.  0.
         24    2    4    4    0    0  0.53242603797E+02 -0.13971913137E+03 -0.16086306703E+04  0.16175357464E+04  0.79831366052E+02 0.  0.
         13    1    3    3    0    0  0.54622929532E+02  0.24945663134E+02  0.21049433702E+02  0.63631982517E+02  0.00000000000E+00 0. -1.
        -13    1    3    3    0    0  0.24725115633E+02  0.28090033068E+02  0.13264887879E+03  0.13782636303E+03  0.00000000000E+00 0.  1.
          2    1    6    6  502    0  0.50742408582E+02 -0.60853689113E+02 -0.10968518072E+04  0.10997098938E+04  0.00000000000E+00 0. -1.
          1    1    5    5  503    0 -0.12182855631E+03  0.47643577067E+02  0.54781211097E+02  0.14182062141E+03  0.00000000000E+00 0. -1.
         -4    1    5    5    0  503 -0.10762092652E+02  0.39039858098E+02 -0.39456601916E+01  0.40687853137E+02  0.00000000000E+00 0.  1.
         -3    1    6    6    0  502  0.25001952147E+01 -0.78865442254E+02 -0.51177886310E+03  0.51782585265E+03  0.00000000000E+00 0.  1.
<mgrwt>
<rscale>  0 0.14263677E+04</rscale>
<asrwt>0</asrwt>
<pdfrwt beam="1">  1        1 0.26196918E+00 0.14263677E+04</pdfrwt>
<pdfrwt beam="2">  1       -1 0.45954290E-01 0.14263677E+04</pdfrwt>
<totfact> 0.21743072E+01</totfact>
</mgrwt>
</event>
<event>
12    1  0.1663913E-007  0.2079392E+04  0.7818608E-02  0.8570376E-01
          2   -1    0    0  501    0  0.00000000000E+00  0.00000000000E+00  0.10231005269E+04  0.10231005269E+04  0.00000000000E+00 0. -1.
         -2   -1    0    0    0  501 -0.00000000000E+00 -0.00000000000E+00 -0.10565605169E+04  0.10565605169E+04  0.00000000000E+00 0.  1.
         23    2    1    2    0    0 -0.50284192553E+03 -0.13518733338E+03 -0.67812037554E+03  0.85965420684E+03  0.89624184428E+02 0.  0.
        254    2    1    2    0    0  0.50284192553E+03  0.13518733338E+03  0.64466038553E+03  0.12200068369E+04  0.89537927848E+03 0.  0.
        -24    2    4    4    0    0  0.49011203479E+03  0.30899882665E+03  0.40624407361E+02  0.58622733783E+03  0.79511430802E+02 0.  0.
         24    2    4    4    0    0  0.12729890741E+02 -0.17381149326E+03  0.60403597817E+03  0.63377949911E+03  0.80277676000E+02 0.  0.
         11    1    3    3    0    0 -0.97033582643E+02 -0.59438420653E+02 -0.17658030387E+03  0.21006914511E+03  0.00000000000E+00 0. -1.
        -11    1    3    3    0    0 -0.40580834289E+03 -0.75748912731E+02 -0.50154007167E+03  0.64958506173E+03  0.00000000000E+00 0.  1.
          2    1    6    6  502    0  0.11815200459E+02 -0.14158245304E+03  0.35047885559E+03  0.37818066871E+03  0.00000000000E+00 0. -1.
          3    1    5    5  503    0  0.12606487205E+03  0.11654505267E+03  0.30125625021E+02  0.17430620915E+03  0.00000000000E+00 0. -1.
         -4    1    5    5    0  503  0.36404716274E+03  0.19245377398E+03  0.10498782340E+02  0.41192112868E+03  0.00000000000E+00 0.  1.
         -1    1    6    6    0  502  0.91469028181E+00 -0.32229040221E+02  0.25355712258E+03  0.25559883040E+03  0.00000000000E+00 0.  1.
<mgrwt>
<rscale>  0 0.20793919E+04</rscale>
<asrwt>0</asrwt>
<pdfrwt beam="1">  1        2 0.15740008E+00 0.20793919E+04</pdfrwt>
<pdfrwt beam="2">  1       -2 0.16254777E+00 0.20793919E+04</pdfrwt>
<totfact> 0.54207590E+00</totfact>
</mgrwt>
</event>
<event>
12    1  0.1663913E-007  0.1119692E+04  0.7818608E-02  0.9186208E-01
          2   -1    0    0  501    0  0.00000000000E+00  0.00000000000E+00  0.56029246279E+03  0.56029246279E+03  0.00000000000E+00 0. -1.
         -2   -1    0    0    0  501 -0.00000000000E+00 -0.00000000000E+00 -0.55940017479E+03  0.55940017479E+03  0.00000000000E+00 0.  1.
         23    2    1    2    0    0  0.14307957677E+02  0.10217469369E+03  0.15550182539E+03  0.20721392351E+03  0.90068899796E+02 0.  0.
        254    2    1    2    0    0 -0.14307957677E+02 -0.10217469369E+03 -0.15460953739E+03  0.91247871408E+03  0.89334702603E+03 0.  0.
        -24    2    4    4    0    0 -0.32955994451E+03 -0.23888042115E+03  0.15555406285E+03  0.44285374208E+03  0.79049084588E+02 0.  0.
         24    2    4    4    0    0  0.31525198684E+03  0.13670572746E+03 -0.31016360024E+03  0.46962497199E+03  0.79207854939E+02 0.  0.
         13    1    3    3    0    0  0.28183830411E+02  0.82737498006E+02  0.16055326905E+03  0.18280364897E+03  0.00000000000E+00 0. -1.
        -13    1    3    3    0    0 -0.13875872733E+02  0.19437195685E+02 -0.50514436539E+01  0.24410274541E+02  0.00000000000E+00 0.  1.
          2    1    6    6  502    0  0.31865712155E+03  0.13850886434E+03 -0.30107532077E+03  0.45975364641E+03  0.00000000000E+00 0. -1.
          3    1    5    5  503    0 -0.15258346137E+03 -0.11034585114E+03  0.11427466705E+03  0.22026488390E+03  0.00000000000E+00 0. -1.
         -4    1    5    5    0  503 -0.17697648314E+03 -0.12853457001E+03  0.41279395796E+02  0.22258885819E+03  0.00000000000E+00 0.  1.
         -1    1    6    6    0  502 -0.34051347093E+01 -0.18031368890E+01 -0.90882794669E+01  0.98713255795E+01  0.00000000000E+00 0.  1.
<mgrwt>
<rscale>  0 0.11196923E+04</rscale>
<asrwt>0</asrwt>
<pdfrwt beam="1">  1        2 0.86198840E-01 0.11196923E+04</pdfrwt>
<pdfrwt beam="2">  1       -2 0.86061565E-01 0.11196923E+04</pdfrwt>
<totfact> 0.62582953E+01</totfact>
</mgrwt>
</event>
<event>
12    1  0.1663913E-007  0.1497641E+04  0.7818608E-02  0.8886023E-01
          2   -1    0    0  501    0  0.00000000000E+00  0.00000000000E+00  0.97709590049E+03  0.97709590049E+03  0.00000000000E+00 0. -1.
         -2   -1    0    0    0  501 -0.00000000000E+00 -0.00000000000E+00 -0.57387602863E+03  0.57387602863E+03  0.00000000000E+00 0.  1.
         23    2    1    2    0    0  0.43113604737E+03  0.10706633191E+03  0.11696053712E+02  0.45317582186E+03  0.88825880666E+02 0.  0.
        254    2    1    2    0    0 -0.43113604737E+03 -0.10706633191E+03  0.39152381815E+03  0.10977961073E+04  0.92440462038E+03 0.  0.
        -24    2    4    4    0    0 -0.38645407395E+03 -0.44785779395E+03  0.43963890125E+03  0.74152781010E+03  0.81595188561E+02 0.  0.
         24    2    4    4    0    0 -0.44681973420E+02  0.34079146203E+03 -0.48115083100E+02  0.35626829716E+03  0.80478189578E+02 0.  0.
         13    1    3    3    0    0  0.97236285002E+02  0.10583233395E+02 -0.31925526402E+02  0.10288896533E+03  0.00000000000E+00 0. -1.
        -13    1    3    3    0    0  0.33389976236E+03  0.96483098516E+02  0.43621580114E+02  0.35028685653E+03  0.00000000000E+00 0.  1.
          2    1    6    6  502    0 -0.26738909878E+02  0.32798820426E+03 -0.35797771598E+02  0.33101769120E+03  0.00000000000E+00 0. -1.
          1    1    5    5  503    0 -0.28895345665E+03 -0.34248710263E+03  0.37402987627E+03  0.58368644315E+03  0.00000000000E+00 0. -1.
         -2    1    5    5    0  503 -0.97500617298E+02 -0.10537069132E+03  0.65609024977E+02  0.15784136695E+03  0.00000000000E+00 0.  1.
         -1    1    6    6    0  502 -0.17943063543E+02  0.12803257774E+02 -0.12317311502E+02  0.25250605965E+02  0.00000000000E+00 0.  1.
<mgrwt>
<rscale>  0 0.14976407E+04</rscale>
<asrwt>0</asrwt>
<pdfrwt beam="1">  1        2 0.15032245E+00 0.14976407E+04</pdfrwt>
<pdfrwt beam="2">  1       -2 0.88288620E-01 0.14976407E+04</pdfrwt>
<totfact> 0.27828102E+01</totfact>
</mgrwt>
</event>
<event>
12    1  0.1663913E-007  0.1443785E+04  0.7818608E-02  0.8922721E-01
          1   -1    0    0  501    0  0.00000000000E+00  0.00000000000E+00  0.12909538145E+04  0.12909538145E+04  0.00000000000E+00 0. -1.
         -1   -1    0    0    0  501 -0.00000000000E+00 -0.00000000000E+00 -0.40367731048E+03  0.40367731048E+03  0.00000000000E+00 0.  1.
         23    2    1    2    0    0  0.30550715045E+03 -0.21673920529E+02 -0.83757386574E+02  0.32950925305E+03  0.88071960545E+02 0.  0.
        254    2    1    2    0    0 -0.30550715045E+03  0.21673920529E+02  0.97103389055E+03  0.13651218719E+04  0.90931101979E+03 0.  0.
        -24    2    4    4    0    0 -0.50923768306E+03  0.25910619652E+03  0.37775180238E+03  0.68966987724E+03  0.80554804017E+02 0.  0.
         24    2    4    4    0    0  0.20373053262E+03 -0.23743227599E+03  0.59328208817E+03  0.67545199464E+03  0.79821960160E+02 0.  0.
         11    1    3    3    0    0  0.97410113176E+02 -0.19387038509E+02 -0.68881363446E+02  0.12086864623E+03  0.00000000000E+00 0. -1.
        -11    1    3    3    0    0  0.20809703727E+03 -0.22868820204E+01 -0.14876023128E+02  0.20864060682E+03  0.00000000000E+00 0.  1.
          2    1    6    6  502    0  0.13327932061E+03 -0.20639148944E+03  0.44115404199E+03  0.50495317900E+03  0.00000000000E+00 0. -1.
          3    1    5    5  503    0 -0.44223195001E+03  0.20881725544E+03  0.35008177707E+03  0.60144076551E+03  0.00000000000E+00 0. -1.
         -4    1    5    5    0  503 -0.67005733053E+02  0.50288941083E+02  0.27670025311E+02  0.88229111737E+02  0.00000000000E+00 0.  1.
         -1    1    6    6    0  502  0.70451212005E+02 -0.31040786554E+02  0.15212804617E+03  0.17049881564E+03  0.00000000000E+00 0.  1.
<mgrwt>
<rscale>  0 0.14437850E+04</rscale>
<asrwt>0</asrwt>
<pdfrwt beam="1">  1        1 0.19860828E+00 0.14437850E+04</pdfrwt>
<pdfrwt beam="2">  1       -1 0.62104202E-01 0.14437850E+04</pdfrwt>
<totfact> 0.23461656E+01</totfact>
</mgrwt>
</event>
<event>
12    1  0.1663913E-007  0.1475388E+04  0.7818608E-02  0.8900986E-01
          2   -1    0    0  501    0  0.00000000000E+00  0.00000000000E+00  0.98129182894E+03  0.98129182894E+03  0.00000000000E+00 0. -1.
         -2   -1    0    0    0  501 -0.00000000000E+00 -0.00000000000E+00 -0.55456771425E+03  0.55456771425E+03  0.00000000000E+00 0.  1.
         23    2    1    2    0    0 -0.11187696093E+03 -0.58526633787E+02 -0.34002451941E+03  0.37398837822E+03  0.91152685067E+02 0.  0.
        254    2    1    2    0    0  0.11187696093E+03  0.58526633787E+02  0.76674863410E+03  0.11618711650E+04  0.86377040634E+03 0.  0.
        -24    2    4    4    0    0  0.11477339018E+02  0.43829185683E+03  0.26158841381E+03  0.51698502081E+03  0.81323627723E+02 0.  0.
         24    2    4    4    0    0  0.10039962192E+03 -0.37976522304E+03  0.50516022029E+03  0.64488614417E+03  0.79934861384E+02 0.  0.
         11    1    3    3    0    0 -0.10697605240E+03 -0.64380616377E+02 -0.34358285972E+03  0.36556520765E+03  0.00000000000E+00 0.  1.
        -11    1    3    3    0    0 -0.49009085331E+01  0.58539825895E+01  0.35583403136E+01  0.84231705667E+01  0.00000000000E+00 0. -1.
          2    1    6    6  502    0 -0.33857210813E+01 -0.35037920788E+02  0.19188749682E+02  0.40091484317E+02  0.00000000000E+00 0. -1.
          3    1    5    5  503    0  0.32595321836E+02  0.80787943667E+02  0.40111706550E+02  0.95906703884E+02  0.00000000000E+00 0. -1.
         -4    1    5    5    0  503 -0.21117982818E+02  0.35750391316E+03  0.22147670726E+03  0.42107831692E+03  0.00000000000E+00 0.  1.
         -1    1    6    6    0  502  0.10378534300E+03 -0.34472730225E+03  0.48597147061E+03  0.60479465985E+03  0.00000000000E+00 0.  1.
<mgrwt>
<rscale>  0 0.14753884E+04</rscale>
<asrwt>0</asrwt>
<pdfrwt beam="1">  1        2 0.15096797E+00 0.14753884E+04</pdfrwt>
<pdfrwt beam="2">  1       -2 0.85318110E-01 0.14753884E+04</pdfrwt>
<totfact> 0.29958576E+01</totfact>
</mgrwt>
</event>
<event>
12    1  0.1663913E-007  0.1776004E+04  0.7818608E-02  0.8719165E-01
          2   -1    0    0  501    0  0.00000000000E+00  0.00000000000E+00  0.15246779547E+04  0.15246779547E+04  0.00000000000E+00 0. -1.
         -2   -1    0    0    0  501 -0.00000000000E+00 -0.00000000000E+00 -0.51718953318E+03  0.51718953318E+03  0.00000000000E+00 0.  1.
         23    2    1    2    0    0  0.60413056391E+03  0.16948584531E+03  0.66046813705E+03  0.91668272773E+03  0.10193072773E+03 0.  0.
        254    2    1    2    0    0 -0.60413056391E+03 -0.16948584531E+03  0.34702028450E+03  0.11251847602E+04  0.86713232938E+03 0.  0.
        -24    2    4    4    0    0 -0.10172288369E+03  0.20516708508E+03 -0.18056268786E+03  0.30248198185E+03  0.80320528082E+02 0.  0.
         24    2    4    4    0    0 -0.50240768022E+03 -0.37465293039E+03  0.52758297236E+03  0.82270277832E+03  0.75615959520E+02 0.  0.
         11    1    3    3    0    0  0.66336675415E+02  0.48522272824E+02  0.11350681872E+03  0.14013837219E+03  0.00000000000E+00 0.  1.
        -11    1    3    3    0    0  0.53779388849E+03  0.12096357249E+03  0.54696131833E+03  0.77654435554E+03  0.00000000000E+00 0. -1.
          4    1    6    6  502    0 -0.11132636303E+03 -0.10145820167E+03  0.16564956815E+03  0.22389083327E+03  0.00000000000E+00 0. -1.
          3    1    5    5  503    0 -0.97520610675E+01  0.13736294935E+02 -0.50983667619E+02  0.53694719084E+02  0.00000000000E+00 0. -1.
         -4    1    5    5    0  503 -0.91970822620E+02  0.19143079014E+03 -0.12957902025E+03  0.24878726277E+03  0.00000000000E+00 0.  1.
         -3    1    6    6    0  502 -0.39108131719E+03 -0.27319472872E+03  0.36193340421E+03  0.59881194505E+03  0.00000000000E+00 0.  1.
<mgrwt>
<rscale>  0 0.17760039E+04</rscale>
<asrwt>0</asrwt>
<pdfrwt beam="1">  1        2 0.23456584E+00 0.17760039E+04</pdfrwt>
<pdfrwt beam="2">  1       -2 0.79567621E-01 0.17760039E+04</pdfrwt>
<totfact> 0.16269756E+01</totfact>
</mgrwt>
</event>
<event>
12    1  0.1663913E-007  0.3328145E+04  0.7818608E-02  0.8155771E-01
         -1   -1    0    0    0  501 -0.00000000000E+00  0.00000000000E+00  0.10167166338E+04  0.10167166338E+04  0.00000000000E+00 0.  1.
          1   -1    0    0  501    0  0.00000000000E+00 -0.00000000000E+00 -0.27236076974E+04  0.27236076974E+04  0.00000000000E+00 0. -1.
         23    2    1    2    0    0 -0.21357304449E+03 -0.11509968734E+04  0.33202943699E+03  0.12202202387E+04  0.91030962105E+02 0.  0.
        254    2    1    2    0    0  0.21357304449E+03  0.11509968734E+04 -0.20389205006E+04  0.25201040925E+04  0.90737014573E+03 0.  0.
        -24    2    4    4    0    0  0.98302155561E+02  0.36100662855E+03 -0.15131534172E+04  0.15608444180E+04  0.81319946443E+02 0.  0.
         24    2    4    4    0    0  0.11527088893E+03  0.78999024485E+03 -0.52576708343E+03  0.95925967449E+03  0.79850687506E+02 0.  0.
         13    1    3    3    0    0 -0.72337409181E+02 -0.20584215366E+03  0.73306048428E+02  0.23016835084E+03  0.00000000000E+00 0. -1.
        -13    1    3    3    0    0 -0.14123563531E+03 -0.94515471974E+03  0.25872338856E+03  0.99005188789E+03  0.00000000000E+00 0.  1.
          4    1    6    6  502    0  0.10499147465E+03  0.74786600829E+03 -0.51646890594E+03  0.91491360626E+03  0.00000000000E+00 0. -1.
          3    1    5    5  503    0  0.56194934432E+02  0.25173998494E+03 -0.11753716728E+04  0.12033409574E+04  0.00000000000E+00 0. -1.
         -4    1    5    5    0  503  0.42107221129E+02  0.10926664361E+03 -0.33778174441E+03  0.35750346059E+03  0.00000000000E+00 0.  1.
         -3    1    6    6    0  502  0.10279414280E+02  0.42124236558E+02 -0.92981774932E+01  0.44346068238E+02  0.00000000000E+00 0.  1.
<mgrwt>
<rscale>  0 0.33281450E+04</rscale>
<asrwt>0</asrwt>
<pdfrwt beam="1">  1        1 0.41901657E+00 0.33281450E+04</pdfrwt>
<pdfrwt beam="2">  1       -1 0.15641794E+00 0.33281450E+04</pdfrwt>
<totfact> 0.24313452E-01</totfact>
</mgrwt>
</event>
<event>
12    1  0.1663913E-007  0.1980388E+04  0.7818608E-02  0.8615845E-01
          1   -1    0    0  501    0  0.00000000000E+00  0.00000000000E+00  0.16377075009E+04  0.16377075009E+04  0.00000000000E+00 0. -1.
         -1   -1    0    0    0  501 -0.00000000000E+00 -0.00000000000E+00 -0.59869332864E+03  0.59869332864E+03  0.00000000000E+00 0.  1.
         23    2    1    2    0    0 -0.36864309350E+03 -0.46302960571E+03 -0.96941613786E+02  0.60624885907E+03  0.88576839449E+02 0.  0.
        254    2    1    2    0    0  0.36864309350E+03  0.46302960571E+03  0.11359557860E+04  0.16301519705E+04  0.10083182795E+04 0.  0.
        -24    2    4    4    0    0  0.28626487438E+03  0.65174767934E+03  0.12017348735E+04  0.13990755666E+04  0.80765829008E+02 0.  0.
         24    2    4    4    0    0  0.82378219126E+02 -0.18871807363E+03 -0.65779087452E+02  0.23107640384E+03  0.81662315447E+02 0.  0.
         13    1    3    3    0    0 -0.14022199905E+03 -0.24268573603E+03 -0.60999079837E+02  0.28684397018E+03  0.00000000000E+00 0.  1.
        -13    1    3    3    0    0 -0.22842109445E+03 -0.22034386969E+03 -0.35942533950E+02  0.31940488889E+03  0.00000000000E+00 0. -1.
          2    1    6    6  502    0  0.73723700033E+02 -0.18175587867E+03 -0.81023253646E+02  0.21221486990E+03  0.00000000000E+00 0. -1.
          3    1    5    5  503    0  0.21555608310E+03  0.39456599221E+03  0.74416021910E+03  0.86943727713E+03  0.00000000000E+00 0. -1.
         -4    1    5    5    0  503  0.70708791271E+02  0.25718168713E+03  0.45757465438E+03  0.52963828948E+03  0.00000000000E+00 0.  1.
         -1    1    6    6    0  502  0.86545190938E+01 -0.69621949593E+01  0.15244166193E+02  0.18861533934E+02  0.00000000000E+00 0.  1.
<mgrwt>
<rscale>  0 0.19803884E+04</rscale>
<asrwt>0</asrwt>
<pdfrwt beam="1">  1        1 0.25195500E+00 0.19803884E+04</pdfrwt>
<pdfrwt beam="2">  1       -1 0.92106666E-01 0.19803884E+04</pdfrwt>
<totfact> 0.56052534E+00</totfact>
</mgrwt>
</event>
<event>
12    1  0.1663913E-007  0.1381106E+04  0.7818608E-02  0.8967610E-01
          2   -1    0    0  501    0  0.00000000000E+00  0.00000000000E+00  0.11360449244E+04  0.11360449244E+04  0.00000000000E+00 0. -1.
         -2   -1    0    0    0  501 -0.00000000000E+00 -0.00000000000E+00 -0.41975751752E+03  0.41975751752E+03  0.00000000000E+00 0.  1.
         23    2    1    2    0    0  0.70914554984E+02 -0.37790564670E+03  0.28090152149E+03  0.48516406726E+03  0.92935221875E+02 0.  0.
        254    2    1    2    0    0 -0.70914554984E+02  0.37790564670E+03  0.43538588538E+03  0.10706383747E+04  0.89936872760E+03 0.  0.
        -24    2    4    4    0    0 -0.14466623058E+03  0.64917760718E+03  0.38973347708E+03  0.77495496409E+03  0.79392249395E+02 0.  0.
         24    2    4    4    0    0  0.73751675600E+02 -0.27127196048E+03  0.45652408291E+02  0.29568341057E+03  0.79477988813E+02 0.  0.
         11    1    3    3    0    0 -0.15639901169E+02 -0.51236288409E+02  0.64622688080E+02  0.83939594788E+02  0.00000000000E+00 0. -1.
        -11    1    3    3    0    0  0.86554456153E+02 -0.32666935829E+03  0.21627883341E+03  0.40122447247E+03  0.00000000000E+00 0.  1.
          4    1    6    6  502    0  0.43281394258E+02 -0.21217372458E+03  0.65605447637E+02  0.22626321674E+03  0.00000000000E+00 0. -1.
          3    1    5    5  503    0 -0.12514657998E+03  0.40990917117E+03  0.22762800880E+03  0.48528517954E+03  0.00000000000E+00 0. -1.
         -4    1    5    5    0  503 -0.19519650600E+02  0.23926843601E+03  0.16210546829E+03  0.28966978455E+03  0.00000000000E+00 0.  1.
         -3    1    6    6    0  502  0.30470281343E+02 -0.59098235898E+02 -0.19953039346E+02  0.69420193824E+02  0.00000000000E+00 0.  1.
<mgrwt>
<rscale>  0 0.13811059E+04</rscale>
<asrwt>0</asrwt>
<pdfrwt beam="1">  1        2 0.17477614E+00 0.13811059E+04</pdfrwt>
<pdfrwt beam="2">  1       -2 0.64578080E-01 0.13811059E+04</pdfrwt>
<totfact> 0.44677384E+01</totfact>
</mgrwt>
</event>
<event>
12    1  0.1663913E-007  0.1025760E+04  0.7818608E-02  0.9280734E-01
          1   -1    0    0  501    0  0.00000000000E+00  0.00000000000E+00  0.80619219441E+03  0.80619219441E+03  0.00000000000E+00 0. -1.
         -1   -1    0    0    0  501 -0.00000000000E+00 -0.00000000000E+00 -0.32628189019E+03  0.32628189019E+03  0.00000000000E+00 0.  1.
         23    2    1    2    0    0  0.10266813240E+03  0.22920299168E+02  0.57023170977E+02  0.15045128757E+03  0.91202315651E+02 0.  0.
        254    2    1    2    0    0 -0.10266813240E+03 -0.22920299168E+02  0.42288713324E+03  0.98202279703E+03  0.88003929508E+03 0.  0.
        -24    2    4    4    0    0  0.29020005048E+03  0.74028261506E+02 -0.91846638810E+02  0.32282199834E+03  0.77987080679E+02 0.  0.
         24    2    4    4    0    0 -0.39286818287E+03 -0.96948560674E+02  0.51473377205E+03  0.65920079869E+03  0.76487936096E+02 0.  0.
         13    1    3    3    0    0  0.22418901395E+02 -0.38263016353E+01  0.61674629531E+02  0.65734371920E+02  0.00000000000E+00 0. -1.
        -13    1    3    3    0    0  0.80249231003E+02  0.26746600803E+02 -0.46514585536E+01  0.84716915653E+02  0.00000000000E+00 0.  1.
          4    1    6    6  502    0 -0.29043480093E+03 -0.37021365519E+02  0.37854511994E+03  0.47855967541E+03  0.00000000000E+00 0. -1.
          3    1    5    5  503    0  0.26970412411E+02 -0.15899196084E+02 -0.98893835270E+01  0.32832719782E+02  0.00000000000E+00 0. -1.
         -4    1    5    5    0  503  0.26322963806E+03  0.89927457590E+02 -0.81957255283E+02  0.28998927856E+03  0.00000000000E+00 0.  1.
         -3    1    6    6    0  502 -0.10243338194E+03 -0.59927195155E+02  0.13618865211E+03  0.18064112328E+03  0.00000000000E+00 0.  1.
<mgrwt>
<rscale>  0 0.10257600E+04</rscale>
<asrwt>0</asrwt>
<pdfrwt beam="1">  1        1 0.12402957E+00 0.10257600E+04</pdfrwt>
<pdfrwt beam="2">  1       -1 0.50197214E-01 0.10257600E+04</pdfrwt>
<totfact> 0.87059764E+01</totfact>
</mgrwt>
</event>
<event>
12    1  0.1663913E-007  0.2239062E+04  0.7818608E-02  0.8502343E-01
          2   -1    0    0  501    0  0.00000000000E+00  0.00000000000E+00  0.29077613376E+04  0.29077613376E+04  0.00000000000E+00 0.  1.
         -2   -1    0    0    0  501 -0.00000000000E+00 -0.00000000000E+00 -0.43103580889E+03  0.43103580889E+03  0.00000000000E+00 0. -1.
         23    2    1    2    0    0  0.77201160878E+03 -0.41729700025E+03  0.15197009532E+04  0.17571146667E+04  0.88443508001E+02 0.  0.
        254    2    1    2    0    0 -0.77201160878E+03  0.41729700025E+03  0.95702457545E+03  0.15816824798E+04  0.90315265503E+03 0.  0.
        -24    2    4    4    0    0 -0.84717890348E+02  0.29093581714E+03 -0.84470620875E+02  0.32493629603E+03  0.81409704873E+02 0.  0.
         24    2    4    4    0    0 -0.68729371843E+03  0.12636118311E+03  0.10414951963E+04  0.12567461837E+04  0.79742851615E+02 0.  0.
         11    1    3    3    0    0  0.21422061180E+03 -0.94507666595E+02  0.33928699278E+03  0.41223516715E+03  0.00000000000E+00 0.  1.
        -11    1    3    3    0    0  0.55779099698E+03 -0.32278933366E+03  0.11804139605E+04  0.13448794995E+04  0.00000000000E+00 0. -1.
          4    1    6    6  502    0 -0.55599744530E+03  0.13332861618E+03  0.83812399888E+03  0.10145745495E+04  0.00000000000E+00 0. -1.
          1    1    5    5  503    0 -0.46136923299E+02  0.26066091920E+03 -0.70287309620E+02  0.27388507879E+03  0.00000000000E+00 0. -1.
         -2    1    5    5    0  503 -0.38580967049E+02  0.30274897940E+02 -0.14183311255E+02  0.51051217242E+02  0.00000000000E+00 0.  1.
         -3    1    6    6    0  502 -0.13129627313E+03 -0.69674330646E+01  0.20337119745E+03  0.24217163420E+03  0.00000000000E+00 0.  1.
<mgrwt>
<rscale>  0 0.22390616E+04</rscale>
<asrwt>0</asrwt>
<pdfrwt beam="1">  1        2 0.44734789E+00 0.22390616E+04</pdfrwt>
<pdfrwt beam="2">  1       -2 0.66313203E-01 0.22390616E+04</pdfrwt>
<totfact> 0.37885669E+00</totfact>
</mgrwt>
</event>
<event>
12    1  0.1663913E-007  0.1575667E+04  0.7818608E-02  0.8835638E-01
          2   -1    0    0  501    0  0.00000000000E+00  0.00000000000E+00  0.60390091127E+03  0.60390091127E+03  0.00000000000E+00 0. -1.
         -2   -1    0    0    0  501 -0.00000000000E+00 -0.00000000000E+00 -0.10277874411E+04  0.10277874411E+04  0.00000000000E+00 0.  1.
         23    2    1    2    0    0 -0.24659741812E+03  0.27785459857E+03 -0.52437628353E+03  0.64924558758E+03  0.92389835441E+02 0.  0.
        254    2    1    2    0    0  0.24659741812E+03 -0.27785459857E+03  0.10048975368E+03  0.98244276482E+03  0.90392595437E+03 0.  0.
        -24    2    4    4    0    0  0.49995079536E+03 -0.14790637569E+03  0.31792104032E+03  0.61568310007E+03  0.78516228135E+02 0.  0.
         24    2    4    4    0    0 -0.25335337724E+03 -0.12994822288E+03 -0.21743128664E+03  0.36675966475E+03  0.78497215815E+02 0.  0.
         11    1    3    3    0    0 -0.11620851384E+03  0.19875840585E+03 -0.32175380836E+03  0.39564483540E+03  0.00000000000E+00 0.  1.
        -11    1    3    3    0    0 -0.13038890428E+03  0.79096192722E+02 -0.20262247517E+03  0.25360075218E+03  0.00000000000E+00 0. -1.
          4    1    6    6  502    0 -0.19067626605E+03 -0.11070277493E+03 -0.12504868887E+03  0.25347527966E+03  0.00000000000E+00 0. -1.
          3    1    5    5  503    0  0.36196265831E+03 -0.70152071857E+02  0.22939267552E+03  0.43423412899E+03  0.00000000000E+00 0. -1.
         -2    1    5    5    0  503  0.13798813704E+03 -0.77754303837E+02  0.88528364808E+02  0.18144897108E+03  0.00000000000E+00 0.  1.
         -3    1    6    6    0  502 -0.62677111185E+02 -0.19245447952E+02 -0.92382597778E+02  0.11328438509E+03  0.00000000000E+00 0.  1.
<mgrwt>
<rscale>  0 0.15756672E+04</rscale>
<asrwt>0</asrwt>
<pdfrwt beam="1">  1        2 0.92907833E-01 0.15756672E+04</pdfrwt>
<pdfrwt beam="2">  1       -2 0.15812114E+00 0.15756672E+04</pdfrwt>
<totfact> 0.12286938E+01</totfact>
</mgrwt>
</event>
<event>
12    1  0.1663913E-007  0.5389281E+04  0.7818608E-02  0.7771111E-01
         -1   -1    0    0    0  501 -0.00000000000E+00  0.00000000000E+00  0.27912007322E+04  0.27912007322E+04  0.00000000000E+00 0.  1.
          1   -1    0    0  501    0  0.00000000000E+00 -0.00000000000E+00 -0.26014209680E+04  0.26014209680E+04  0.00000000000E+00 0. -1.
         23    2    1    2    0    0 -0.15165990143E+04 -0.19897083825E+04  0.87028682984E+03  0.26504183848E+04  0.91139622411E+02 0.  0.
        254    2    1    2    0    0  0.15165990143E+04  0.19897083825E+04 -0.68050706564E+03  0.27422033154E+04  0.89307174362E+03 0.  0.
        -24    2    4    4    0    0 -0.96956412206E+02  0.13081780137E+03  0.20821263897E+02  0.18146141923E+03  0.77336140438E+02 0.  0.
         24    2    4    4    0    0  0.16135554265E+04  0.18588905811E+04 -0.70132832954E+03  0.25607418962E+04  0.80637002197E+02 0.  0.
         11    1    3    3    0    0 -0.36983397494E+03 -0.54919918914E+03  0.21907600617E+03  0.69741753265E+03  0.00000000000E+00 0. -1.
        -11    1    3    3    0    0 -0.11467650394E+04 -0.14405091933E+04  0.65121082368E+03  0.19530008521E+04  0.00000000000E+00 0.  1.
          2    1    6    6  502    0  0.15916720740E+04  0.18373532852E+04 -0.68319343913E+03  0.25250822484E+04  0.00000000000E+00 0. -1.
          3    1    5    5  503    0  0.31085456686E+01  0.26897576413E+02  0.25397503552E+02  0.37123791020E+02  0.00000000000E+00 0. -1.
         -4    1    5    5    0  503 -0.10006495787E+03  0.10392022495E+03 -0.45762396549E+01  0.14433762821E+03  0.00000000000E+00 0.  1.
         -1    1    6    6    0  502  0.21883352533E+02  0.21537295913E+02 -0.18134890406E+02  0.35659647830E+02  0.00000000000E+00 0.  1.
<mgrwt>
<rscale>  0 0.53892813E+04</rscale>
<asrwt>0</asrwt>
<pdfrwt beam="1">  1        1 0.40021861E+00 0.53892813E+04</pdfrwt>
<pdfrwt beam="2">  1       -1 0.42941550E+00 0.53892813E+04</pdfrwt>
<totfact> 0.36253966E-03</totfact>
</mgrwt>
</event>
<event>
12    1  0.1663913E-007  0.3082719E+04  0.7818608E-02  0.8220497E-01
         -2   -1    0    0    0  501 -0.00000000000E+00  0.00000000000E+00  0.19463185568E+04  0.19463185568E+04  0.00000000000E+00 0. -1.
          2   -1    0    0  501    0  0.00000000000E+00 -0.00000000000E+00 -0.12206577261E+04  0.12206577261E+04  0.00000000000E+00 0.  1.
         23    2    1    2    0    0 -0.10224085566E+04  0.66217875943E+03 -0.38570049137E+03  0.12813145201E+04  0.95927391178E+02 0.  0.
        254    2    1    2    0    0  0.10224085566E+04 -0.66217875943E+03  0.11113613221E+04  0.18856617627E+04  0.91476572365E+03 0.  0.
        -24    2    4    4    0    0  0.84941126612E+03 -0.65777954074E+03  0.40008968237E+03  0.11491599518E+04  0.79519919174E+02 0.  0.
         24    2    4    4    0    0  0.17299729047E+03 -0.43992186835E+01  0.71127163969E+03  0.73650181096E+03  0.81118163700E+02 0.  0.
         11    1    3    3    0    0 -0.77069750818E+03  0.45675195721E+03 -0.30701258235E+03  0.94702361388E+03  0.00000000000E+00 0.  1.
        -11    1    3    3    0    0 -0.25171104840E+03  0.20542680222E+03 -0.78687909022E+02  0.33429090622E+03  0.00000000000E+00 0. -1.
          2    1    6    6  502    0  0.14159480200E+03  0.75272023470E+01  0.41978395872E+03  0.44308500169E+03  0.00000000000E+00 0. -1.
          3    1    5    5  503    0  0.41372037295E+03 -0.36346869182E+03  0.18281999115E+03  0.58025613835E+03  0.00000000000E+00 0. -1.
         -4    1    5    5    0  503  0.43569089317E+03 -0.29431084893E+03  0.21726969122E+03  0.56890381341E+03  0.00000000000E+00 0.  1.
         -1    1    6    6    0  502  0.31402488469E+02 -0.11926421031E+02  0.29148768097E+03  0.29341680926E+03  0.00000000000E+00 0.  1.
<mgrwt>
<rscale>  0 0.30827188E+04</rscale>
<asrwt>0</asrwt>
<pdfrwt beam="1">  1        2 0.18779350E+00 0.30827188E+04</pdfrwt>
<pdfrwt beam="2">  1       -2 0.29943362E+00 0.30827188E+04</pdfrwt>
<totfact> 0.50145904E-01</totfact>
</mgrwt>
</event>
<event>
12    1  0.1663913E-007  0.1362411E+04  0.7818608E-02  0.8981486E-01
          3   -1    0    0  501    0  0.00000000000E+00  0.00000000000E+00  0.65066567012E+03  0.65066567012E+03  0.00000000000E+00 0. -1.
         -3   -1    0    0    0  501 -0.00000000000E+00 -0.00000000000E+00 -0.71317899718E+03  0.71317899718E+03  0.00000000000E+00 0.  1.
         23    2    1    2    0    0  0.14820945989E+03  0.12267252568E+03  0.30530680469E+03  0.37193262076E+03  0.90039085049E+02 0.  0.
        254    2    1    2    0    0 -0.14820945989E+03 -0.12267252568E+03 -0.36782013175E+03  0.99191204655E+03  0.90087916294E+03 0.  0.
        -24    2    4    4    0    0  0.18863188400E+03  0.29188583077E+03 -0.36382082352E+02  0.35830376269E+03  0.79237646188E+02 0.  0.
         24    2    4    4    0    0 -0.33684134389E+03 -0.41455835645E+03 -0.33143804940E+03  0.63360828386E+03  0.79294104010E+02 0.  0.
         11    1    3    3    0    0  0.20525455858E+02  0.61369383187E+01  0.10581345004E+03  0.10796037495E+03  0.00000000000E+00 0.  1.
        -11    1    3    3    0    0  0.12768400403E+03  0.11653558736E+03  0.19949335465E+03  0.26397224581E+03  0.00000000000E+00 0. -1.
          4    1    6    6  502    0 -0.33646292451E+03 -0.40086566880E+03 -0.31032944112E+03  0.60844469430E+03  0.00000000000E+00 0. -1.
          1    1    5    5  503    0  0.12459812252E+03  0.25054895675E+03 -0.35656943473E+02  0.28208312513E+03  0.00000000000E+00 0. -1.
         -2    1    5    5    0  503  0.64033761485E+02  0.41336874016E+02 -0.72513887810E+00  0.76220637558E+02  0.00000000000E+00 0.  1.
         -3    1    6    6    0  502 -0.37841938485E+00 -0.13692687646E+02 -0.21108608281E+02  0.25163589564E+02  0.00000000000E+00 0.  1.
<mgrwt>
<rscale>  0 0.13624112E+04</rscale>
<asrwt>0</asrwt>
<pdfrwt beam="1">  1        3 0.10010241E+00 0.13624112E+04</pdfrwt>
<pdfrwt beam="2">  1       -3 0.10971985E+00 0.13624112E+04</pdfrwt>
<totfact> 0.15659717E+00</totfact>
</mgrwt>
</event>
<event>
12    1  0.1663913E-007  0.2674418E+04  0.7818608E-02  0.8343353E-01
          2   -1    0    0  501    0  0.00000000000E+00  0.00000000000E+00  0.10382121886E+04  0.10382121886E+04  0.00000000000E+00 0. -1.
         -2   -1    0    0    0  501 -0.00000000000E+00 -0.00000000000E+00 -0.17223143444E+04  0.17223143444E+04  0.00000000000E+00 0.  1.
         23    2    1    2    0    0 -0.73235751204E+03  0.92657927248E+03 -0.21255070400E+03  0.12035979571E+04  0.92593558381E+02 0.  0.
        254    2    1    2    0    0  0.73235751204E+03 -0.92657927248E+03 -0.47155145182E+03  0.15569285758E+04  0.89820328699E+03 0.  0.
        -24    2    4    4    0    0 -0.19330693083E+03 -0.24070114703E+03 -0.18048742074E+03  0.36593351114E+03  0.77633844682E+02 0.  0.
         24    2    4    4    0    0  0.92566444287E+03 -0.68587812545E+03 -0.29106403108E+03  0.11909950646E+04  0.80420831003E+02 0.  0.
         13    1    3    3    0    0 -0.33637737582E+01  0.77128010402E+00 -0.64868474292E+01  0.73477232164E+01  0.00000000000E+00 0. -1.
        -13    1    3    3    0    0 -0.72899373828E+03  0.92580799237E+03 -0.20606385657E+03  0.11962502339E+04  0.00000000000E+00 0.  1.
          4    1    6    6  502    0  0.14802513293E+03 -0.84177122239E+02 -0.22743123748E+02  0.17179778103E+03  0.00000000000E+00 0. -1.
          1    1    5    5  503    0 -0.70632630264E+01  0.19812125898E+01 -0.18239189784E+02  0.19659169155E+02  0.00000000000E+00 0. -1.
         -2    1    5    5    0  503 -0.18624366781E+03 -0.24268235961E+03 -0.16224823096E+03  0.34627434198E+03  0.00000000000E+00 0.  1.
         -3    1    6    6    0  502  0.77763930994E+03 -0.60170100321E+03 -0.26832090733E+03  0.10191972836E+04  0.00000000000E+00 0.  1.
<mgrwt>
<rscale>  0 0.26744179E+04</rscale>
<asrwt>0</asrwt>
<pdfrwt beam="1">  1        2 0.15972495E+00 0.26744179E+04</pdfrwt>
<pdfrwt beam="2">  1       -2 0.26497144E+00 0.26744179E+04</pdfrwt>
<totfact> 0.10890053E+00</totfact>
</mgrwt>
</event>
<event>
12    1  0.1663913E-007  0.2956915E+04  0.7818608E-02  0.8256142E-01
         -2   -1    0    0    0  501 -0.00000000000E+00  0.00000000000E+00  0.85987138468E+03  0.85987138468E+03  0.00000000000E+00 0.  1.
          2   -1    0    0  501    0  0.00000000000E+00 -0.00000000000E+00 -0.25420507515E+04  0.25420507515E+04  0.00000000000E+00 0. -1.
         23    2    1    2    0    0 -0.63198848758E+02  0.10767809043E+03 -0.22976121833E+04  0.23028299105E+04  0.91734321896E+02 0.  0.
        254    2    1    2    0    0  0.63198848758E+02 -0.10767809043E+03  0.61543281657E+03  0.10990922257E+04  0.90202965759E+03 0.  0.
        -24    2    4    4    0    0  0.22848864293E+03 -0.45526083107E+03  0.32296714930E+03  0.60869980716E+03  0.82086487713E+02 0.  0.
         24    2    4    4    0    0 -0.16528979417E+03  0.34758274064E+03  0.29246566728E+03  0.49039241851E+03  0.82547440582E+02 0.  0.
         13    1    3    3    0    0 -0.40534290984E+02  0.11133254926E+03 -0.14254292911E+04  0.14303449337E+04  0.00000000000E+00 0.  1.
        -13    1    3    3    0    0 -0.22664557774E+02 -0.36544588351E+01 -0.87218289223E+03  0.87248497681E+03  0.00000000000E+00 0. -1.
          2    1    6    6  502    0 -0.13994181556E+03  0.20229807413E+03  0.17580332447E+03  0.30234918791E+03  0.00000000000E+00 0. -1.
          3    1    5    5  503    0  0.20691311697E+03 -0.33783973509E+03  0.25814043184E+03  0.47284797465E+03  0.00000000000E+00 0. -1.
         -4    1    5    5    0  503  0.21575525952E+02 -0.11742109597E+03  0.64826717457E+02  0.13585183251E+03  0.00000000000E+00 0.  1.
         -1    1    6    6    0  502 -0.25347978613E+02  0.14528466651E+03  0.11666234281E+03  0.18804323059E+03  0.00000000000E+00 0.  1.
<mgrwt>
<rscale>  0 0.29569151E+04</rscale>
<asrwt>0</asrwt>
<pdfrwt beam="1">  1        2 0.39108473E+00 0.29569151E+04</pdfrwt>
<pdfrwt beam="2">  1       -2 0.13228791E+00 0.29569151E+04</pdfrwt>
<totfact> 0.11741333E+00</totfact>
</mgrwt>
</event>
<event>
12    1  0.1663913E-007  0.1638780E+04  0.7818608E-02  0.8797072E-01
         -2   -1    0    0    0  501 -0.00000000000E+00  0.00000000000E+00  0.13206537352E+04  0.13206537352E+04  0.00000000000E+00 0. -1.
          2   -1    0    0  501    0  0.00000000000E+00 -0.00000000000E+00 -0.50838427438E+03  0.50838427438E+03  0.00000000000E+00 0.  1.
         23    2    1    2    0    0  0.50609349199E+03 -0.15640957283E+03  0.57315764647E+02  0.54053186135E+03  0.91076995710E+02 0.  0.
        254    2    1    2    0    0 -0.50609349199E+03  0.15640957283E+03  0.75495369615E+03  0.12885061482E+04  0.89983244747E+03 0.  0.
        -24    2    4    4    0    0 -0.20545583023E+03 -0.32002266354E+03  0.57176666105E+03  0.69075623086E+03  0.74836170571E+02 0.  0.
         24    2    4    4    0    0 -0.30063766175E+03  0.47643223637E+03  0.18318703511E+03  0.59774991735E+03  0.79854832930E+02 0.  0.
         11    1    3    3    0    0  0.14779700488E+03 -0.18670352463E+02 -0.15674821394E+02  0.14979398098E+03  0.00000000000E+00 0.  1.
        -11    1    3    3    0    0  0.35829648711E+03 -0.13773922036E+03  0.72990586041E+02  0.39073788037E+03  0.00000000000E+00 0. -1.
          4    1    6    6  502    0 -0.28555009551E+03  0.44309250844E+03  0.19037235054E+03  0.56045647461E+03  0.00000000000E+00 0. -1.
          1    1    5    5  503    0 -0.19722356372E+03 -0.26703113406E+03  0.51448941735E+03  0.61229251278E+03  0.00000000000E+00 0. -1.
         -2    1    5    5    0  503 -0.82322665174E+01 -0.52991529483E+02  0.57277243700E+02  0.78463718079E+02  0.00000000000E+00 0.  1.
         -3    1    6    6    0  502 -0.15087566244E+02  0.33339727928E+02 -0.71853154310E+01  0.37293442738E+02  0.00000000000E+00 0.  1.
<mgrwt>
<rscale>  0 0.16387795E+04</rscale>
<asrwt>0</asrwt>
<pdfrwt beam="1">  1        2 0.78212966E-01 0.16387795E+04</pdfrwt>
<pdfrwt beam="2">  1       -2 0.20317750E+00 0.16387795E+04</pdfrwt>
<totfact> 0.73137964E+00</totfact>
</mgrwt>
</event>
<event>
12    1  0.1663913E-007  0.2662242E+04  0.7818608E-02  0.8347361E-01
          2   -1    0    0  501    0  0.00000000000E+00  0.00000000000E+00  0.21389443838E+04  0.21389443838E+04  0.00000000000E+00 0.  1.
         -2   -1    0    0    0  501 -0.00000000000E+00 -0.00000000000E+00 -0.82839155893E+03  0.82839155893E+03  0.00000000000E+00 0. -1.
         23    2    1    2    0    0 -0.74248368104E+03  0.31745696937E+03  0.15395450197E+04  0.17408313676E+04  0.90741603514E+02 0.  0.
        254    2    1    2    0    0  0.74248368104E+03 -0.31745696937E+03 -0.22899219485E+03  0.12265045751E+04  0.89432382477E+03 0.  0.
        -24    2    4    4    0    0  0.22436035932E+03  0.16122066570E+03  0.24096628206E+03  0.37497498764E+03  0.78815089806E+02 0.  0.
         24    2    4    4    0    0  0.51812332172E+03 -0.47867763507E+03 -0.46995847691E+03  0.85152958751E+03  0.81594200569E+02 0.  0.
         11    1    3    3    0    0 -0.59582856702E+03  0.25293549478E+03  0.13060217742E+04  0.14576285262E+04  0.00000000000E+00 0.  1.
        -11    1    3    3    0    0 -0.14665511402E+03  0.64521474590E+02  0.23352324549E+03  0.28320284132E+03  0.00000000000E+00 0. -1.
          4    1    6    6  502    0  0.42724590357E+02 -0.45003400779E+02 -0.71458635656E+02  0.94641604554E+02  0.00000000000E+00 0. -1.
          3    1    5    5  503    0  0.68315489484E+02  0.28232610126E+02  0.10703923984E+03  0.13008260931E+03  0.00000000000E+00 0. -1.
         -4    1    5    5    0  503  0.15604486984E+03  0.13298805557E+03  0.13392704222E+03  0.24489237833E+03  0.00000000000E+00 0.  1.
         -3    1    6    6    0  502  0.47539873136E+03 -0.43367423429E+03 -0.39849984125E+03  0.75688798295E+03  0.00000000000E+00 0.  1.
<mgrwt>
<rscale>  0 0.26622423E+04</rscale>
<asrwt>0</asrwt>
<pdfrwt beam="1">  1        2 0.32906837E+00 0.26622423E+04</pdfrwt>
<pdfrwt beam="2">  1       -2 0.12744486E+00 0.26622423E+04</pdfrwt>
<totfact> 0.22456194E+00</totfact>
</mgrwt>
</event>
<event>
12    1  0.1663913E-007  0.2988123E+04  0.7818608E-02  0.8247130E-01
          2   -1    0    0  501    0  0.00000000000E+00  0.00000000000E+00  0.42357095307E+04  0.42357095307E+04  0.00000000000E+00 0. -1.
         -2   -1    0    0    0  501 -0.00000000000E+00 -0.00000000000E+00 -0.52700036314E+03  0.52700036314E+03  0.00000000000E+00 0.  1.
         23    2    1    2    0    0  0.68433772815E+03 -0.91798835066E+02  0.36552965949E+04  0.37210354699E+04  0.90369350954E+02 0.  0.
        254    2    1    2    0    0 -0.68433772815E+03  0.91798835066E+02  0.53412572730E+02  0.10416744240E+04  0.77813080540E+03 0.  0.
        -24    2    4    4    0    0 -0.13741904043E+03  0.37728394182E+03 -0.45016428888E+02  0.41185419194E+03  0.79813727648E+02 0.  0.
         24    2    4    4    0    0 -0.54691868772E+03 -0.28548510676E+03  0.98429001618E+02  0.62982023202E+03  0.79771292724E+02 0.  0.
         11    1    3    3    0    0  0.64569075194E+03 -0.65464064623E+02  0.34453297328E+04  0.35059234246E+04  0.00000000000E+00 0. -1.
        -11    1    3    3    0    0  0.38646976209E+02 -0.26334770443E+02  0.20996686203E+03  0.21511204535E+03  0.00000000000E+00 0.  1.
          2    1    6    6  502    0 -0.21801166314E+03 -0.15199543825E+03  0.21642246182E+02  0.26664599253E+03  0.00000000000E+00 0. -1.
          3    1    5    5  503    0 -0.11722030828E+03  0.21817058900E+03 -0.43490610677E+02  0.25145663601E+03  0.00000000000E+00 0. -1.
         -4    1    5    5    0  503 -0.20198732150E+02  0.15911335282E+03 -0.15258182108E+01  0.16039755593E+03  0.00000000000E+00 0.  1.
         -1    1    6    6    0  502 -0.32890702458E+03 -0.13348966851E+03  0.76786755436E+02  0.36317423948E+03  0.00000000000E+00 0.  1.
<mgrwt>
<rscale>  0 0.29881235E+04</rscale>
<asrwt>0</asrwt>
<pdfrwt beam="1">  1        2 0.65164760E+00 0.29881235E+04</pdfrwt>
<pdfrwt beam="2">  1       -2 0.81076982E-01 0.29881235E+04</pdfrwt>
<totfact> 0.24857691E-01</totfact>
</mgrwt>
</event>
<event>
12    1  0.1663913E-007  0.1448431E+04  0.7818608E-02  0.8919489E-01
          1   -1    0    0  501    0  0.00000000000E+00  0.00000000000E+00  0.28272682023E+03  0.28272682023E+03  0.00000000000E+00 0. -1.
         -1   -1    0    0    0  501 -0.00000000000E+00 -0.00000000000E+00 -0.18551056581E+04  0.18551056581E+04  0.00000000000E+00 0.  1.
         23    2    1    2    0    0  0.14111038091E+03  0.10514760818E+03  0.10569923973E+03  0.22751586573E+03  0.98096792881E+02 0.  0.
        254    2    1    2    0    0 -0.14111038091E+03 -0.10514760818E+03 -0.16780780776E+04  0.19103166126E+04  0.89576524086E+03 0.  0.
        -24    2    4    4    0    0 -0.24285506933E+03  0.13943272818E+03 -0.15960546817E+04  0.16219786146E+04  0.70739019090E+02 0.  0.
         24    2    4    4    0    0  0.10174468842E+03 -0.24458033636E+03 -0.82023395868E+02  0.28833799798E+03  0.78990132634E+02 0.  0.
         13    1    3    3    0    0 -0.11634547824E+01 -0.21230278694E+01 -0.13125796373E+02  0.13347187149E+02  0.00000000000E+00 0.  1.
        -13    1    3    3    0    0  0.14227383569E+03  0.10727063605E+03  0.11882503610E+03  0.21416867858E+03  0.00000000000E+00 0. -1.
          4    1    6    6  502    0  0.29832192041E+02 -0.14204909144E+03 -0.14002648597E+02  0.14582173442E+03  0.00000000000E+00 0. -1.
          1    1    5    5  503    0 -0.20048827484E+03  0.98287747128E+02 -0.13822061521E+04  0.14001249503E+04  0.00000000000E+00 0. -1.
         -2    1    5    5    0  503 -0.42366794487E+02  0.41144981053E+02 -0.21384852960E+03  0.22185366428E+03  0.00000000000E+00 0.  1.
         -3    1    6    6    0  502  0.71912496381E+02 -0.10253124492E+03 -0.68020747271E+02  0.14251626356E+03  0.00000000000E+00 0.  1.
<mgrwt>
<rscale>  0 0.14484310E+04</rscale>
<asrwt>0</asrwt>
<pdfrwt beam="1">  1        1 0.43496435E-01 0.14484310E+04</pdfrwt>
<pdfrwt beam="2">  1       -1 0.28540087E+00 0.14484310E+04</pdfrwt>
<totfact> 0.37872512E+00</totfact>
</mgrwt>
</event>
<event>
12    1  0.1663913E-007  0.3338374E+04  0.7818608E-02  0.8153199E-01
          1   -1    0    0  501    0  0.00000000000E+00  0.00000000000E+00  0.12434949740E+04  0.12434949740E+04  0.00000000000E+00 0. -1.
         -1   -1    0    0    0  501 -0.00000000000E+00 -0.00000000000E+00 -0.22406087087E+04  0.22406087087E+04  0.00000000000E+00 0.  1.
         23    2    1    2    0    0  0.91123696759E+03  0.87469661728E+03  0.48505833640E+03  0.13562241068E+04  0.92818396695E+02 0.  0.
        254    2    1    2    0    0 -0.91123696759E+03 -0.87469661728E+03 -0.14821720712E+04  0.21278795759E+04  0.85766570264E+03 0.  0.
        -24    2    4    4    0    0 -0.97620573559E+03 -0.97600815792E+03 -0.13340024740E+04  0.19214590536E+04  0.82901939064E+02 0.  0.
         24    2    4    4    0    0  0.64968768000E+02  0.10131154063E+03 -0.14816959712E+03  0.20642052224E+03  0.78550833289E+02 0.  0.
         11    1    3    3    0    0  0.22164578461E+03  0.17804503534E+03  0.14114478541E+03  0.31740941841E+03  0.00000000000E+00 0.  1.
        -11    1    3    3    0    0  0.68959118298E+03  0.69665158194E+03  0.34391355099E+03  0.10388146884E+04  0.00000000000E+00 0. -1.
          4    1    6    6  502    0 -0.48510467877E+01 -0.10161537145E+02 -0.60832765592E+01  0.12798271203E+02  0.00000000000E+00 0. -1.
          1    1    5    5  503    0 -0.17023912821E+03 -0.15504178150E+03 -0.18355279125E+03  0.29446721713E+03  0.00000000000E+00 0. -1.
         -2    1    5    5    0  503 -0.80596660738E+03 -0.82096637641E+03 -0.11504496828E+04  0.16269918365E+04  0.00000000000E+00 0.  1.
         -3    1    6    6    0  502  0.69819814788E+02  0.11147307778E+03 -0.14208632056E+03  0.19362225104E+03  0.00000000000E+00 0.  1.
<mgrwt>
<rscale>  0 0.33383743E+04</rscale>
<asrwt>0</asrwt>
<pdfrwt beam="1">  1        1 0.19130692E+00 0.33383743E+04</pdfrwt>
<pdfrwt beam="2">  1       -1 0.34470903E+00 0.33383743E+04</pdfrwt>
<totfact> 0.13831143E-01</totfact>
</mgrwt>
</event>
<event>
12    1  0.1663913E-007  0.2484975E+04  0.7818608E-02  0.8408358E-01
          2   -1    0    0  501    0  0.00000000000E+00  0.00000000000E+00  0.15224958666E+04  0.15224958666E+04  0.00000000000E+00 0. -1.
         -2   -1    0    0    0  501 -0.00000000000E+00 -0.00000000000E+00 -0.10139769947E+04  0.10139769947E+04  0.00000000000E+00 0.  1.
         23    2    1    2    0    0  0.54565067407E+03  0.83448476299E+03 -0.18894936718E+03  0.10197460335E+04  0.10040234878E+03 0.  0.
        254    2    1    2    0    0 -0.54565067407E+03 -0.83448476299E+03  0.69746823908E+03  0.15167268278E+04  0.90548266016E+03 0.  0.
        -24    2    4    4    0    0  0.13077644701E+03  0.10070512555E+03  0.46538269266E+02  0.18926149029E+03  0.80063098839E+02 0.  0.
         24    2    4    4    0    0 -0.67642712108E+03 -0.93518988853E+03  0.65092996982E+03  0.13274653375E+04  0.79502320332E+02 0.  0.
         13    1    3    3    0    0  0.69311279797E+02  0.12791609294E+03 -0.62230934056E+02  0.15823801533E+03  0.00000000000E+00 0. -1.
        -13    1    3    3    0    0  0.47633939428E+03  0.70656867004E+03 -0.12671843312E+03  0.86150801814E+03  0.00000000000E+00 0.  1.
          2    1    6    6  502    0 -0.42935582649E+03 -0.54172679695E+03  0.36117517831E+03  0.77991144222E+03  0.00000000000E+00 0. -1.
          1    1    5    5  503    0  0.11968405579E+03  0.88590809940E+02  0.10046271989E+02  0.14924319883E+03  0.00000000000E+00 0. -1.
         -2    1    5    5    0  503  0.11092391212E+02  0.12114315607E+02  0.36491997278E+02  0.40018291452E+02  0.00000000000E+00 0.  1.
         -1    1    6    6    0  502 -0.24707129459E+03 -0.39346309158E+03  0.28975479151E+03  0.54755389530E+03  0.00000000000E+00 0.  1.
<mgrwt>
<rscale>  0 0.24849755E+04</rscale>
<asrwt>0</asrwt>
<pdfrwt beam="1">  1        2 0.23423013E+00 0.24849755E+04</pdfrwt>
<pdfrwt beam="2">  1       -2 0.15599646E+00 0.24849755E+04</pdfrwt>
<totfact> 0.29708648E+00</totfact>
</mgrwt>
</event>
<event>
12    1  0.1663913E-007  0.3410879E+04  0.7818608E-02  0.8135242E-01
         -2   -1    0    0    0  501 -0.00000000000E+00  0.00000000000E+00  0.63001284687E+03  0.63001284687E+03  0.00000000000E+00 0.  1.
          2   -1    0    0  501    0  0.00000000000E+00 -0.00000000000E+00 -0.46166092743E+04  0.46166092743E+04  0.00000000000E+00 0. -1.
         23    2    1    2    0    0 -0.15052868100E+04 -0.50548513541E+03 -0.18270893226E+04  0.24223641655E+04  0.90493950517E+02 0.  0.
        254    2    1    2    0    0  0.15052868100E+04  0.50548513541E+03 -0.21595071048E+04  0.28242579557E+04  0.88969571309E+03 0.  0.
        -24    2    4    4    0    0  0.61035863186E+03 -0.11091915197E+03 -0.12776535605E+04  0.14225392275E+04  0.79865608055E+02 0.  0.
         24    2    4    4    0    0  0.89492817814E+03  0.61640428738E+03 -0.88185354430E+03  0.14017187281E+04  0.79366426920E+02 0.  0.
         11    1    3    3    0    0 -0.14057631422E+03 -0.37746649283E+02 -0.13212749952E+03  0.19658124474E+03  0.00000000000E+00 0.  1.
        -11    1    3    3    0    0 -0.13647104958E+04 -0.46773848612E+03 -0.16949618231E+04  0.22257829208E+04  0.00000000000E+00 0. -1.
          4    1    6    6  502    0  0.84193880978E+03  0.55943785315E+03 -0.83295757536E+03  0.13098282305E+04  0.00000000000E+00 0. -1.
          1    1    5    5  503    0  0.34172566818E+03 -0.47945271235E+02 -0.79347535759E+03  0.86526199756E+03  0.00000000000E+00 0. -1.
         -2    1    5    5    0  503  0.26863296367E+03 -0.62973880734E+02 -0.48417820296E+03  0.55727722997E+03  0.00000000000E+00 0.  1.
         -3    1    6    6    0  502  0.52989368358E+02  0.56966434224E+02 -0.48895968946E+02  0.91890497693E+02  0.00000000000E+00 0.  1.
<mgrwt>
<rscale>  0 0.34108786E+04</rscale>
<asrwt>0</asrwt>
<pdfrwt beam="1">  1        2 0.71024758E+00 0.34108786E+04</pdfrwt>
<pdfrwt beam="2">  1       -2 0.96925053E-01 0.34108786E+04</pdfrwt>
<totfact> 0.68820642E-02</totfact>
</mgrwt>
</event>
<event>
12    1  0.1663913E-007  0.1904398E+04  0.7818608E-02  0.8652670E-01
          1   -1    0    0  501    0  0.00000000000E+00  0.00000000000E+00  0.22593587564E+04  0.22593587564E+04  0.00000000000E+00 0. -1.
         -1   -1    0    0    0  501 -0.00000000000E+00 -0.00000000000E+00 -0.40130090647E+03  0.40130090647E+03  0.00000000000E+00 0.  1.
         23    2    1    2    0    0 -0.27495620451E+03  0.51059274306E+02 -0.22658982542E+03  0.37160640288E+03  0.92414315941E+02 0.  0.
        254    2    1    2    0    0  0.27495620451E+03 -0.51059274306E+02  0.20846476754E+04  0.22890532600E+04  0.90321699101E+03 0.  0.
        -24    2    4    4    0    0  0.17896297380E+03  0.82537353770E+02  0.20950659049E+04  0.21057189419E+04  0.76882740607E+02 0.  0.
         24    2    4    4    0    0  0.95993230704E+02 -0.13359662808E+03 -0.10418229456E+02  0.18333431815E+03  0.80250690531E+02 0.  0.
         11    1    3    3    0    0 -0.25626825065E+03  0.71811667995E+02 -0.19864848639E+03  0.33210172101E+03  0.00000000000E+00 0.  1.
        -11    1    3    3    0    0 -0.18687953852E+02 -0.20752393689E+02 -0.27941339032E+02  0.39504681873E+02  0.00000000000E+00 0. -1.
          2    1    6    6  502    0  0.35004997812E+02 -0.88829165122E+01  0.19900761421E+02  0.41234650268E+02  0.00000000000E+00 0. -1.
          3    1    5    5  503    0  0.50417465159E+02  0.49647044961E+02  0.10285251176E+04  0.10309561908E+04  0.00000000000E+00 0. -1.
         -4    1    5    5    0  503  0.12854550864E+03  0.32890308808E+02  0.10665407873E+04  0.10747627511E+04  0.00000000000E+00 0.  1.
         -1    1    6    6    0  502  0.60988232892E+02 -0.12471371156E+03 -0.30318990877E+02  0.14209966788E+03  0.00000000000E+00 0.  1.
<mgrwt>
<rscale>  0 0.19043978E+04</rscale>
<asrwt>0</asrwt>
<pdfrwt beam="1">  1        1 0.34759365E+00 0.19043978E+04</pdfrwt>
<pdfrwt beam="2">  1       -1 0.61738602E-01 0.19043978E+04</pdfrwt>
<totfact> 0.49398067E+00</totfact>
</mgrwt>
</event>
<event>
12    1  0.1663913E-007  0.2031661E+04  0.7818608E-02  0.8591959E-01
         -2   -1    0    0    0  501 -0.00000000000E+00  0.00000000000E+00  0.51397533582E+03  0.51397533582E+03  0.00000000000E+00 0.  1.
          2   -1    0    0  501    0  0.00000000000E+00 -0.00000000000E+00 -0.20077074513E+04  0.20077074513E+04  0.00000000000E+00 0. -1.
         23    2    1    2    0    0 -0.30538664407E+03 -0.69793597111E+03 -0.23401088512E+03  0.80305522991E+03  0.98797701304E+02 0.  0.
        254    2    1    2    0    0  0.30538664407E+03  0.69793597111E+03 -0.12597212303E+04  0.17186275572E+04  0.88679618852E+03 0.  0.
        -24    2    4    4    0    0  0.40475626558E+03  0.85644064223E+03 -0.11324981706E+04  0.14786408468E+04  0.80674898751E+02 0.  0.
         24    2    4    4    0    0 -0.99369621509E+02 -0.15850467112E+03 -0.12722305973E+03  0.23998671035E+03  0.80061612348E+02 0.  0.
         11    1    3    3    0    0 -0.31187954956E+03 -0.68696916679E+03 -0.23518155684E+03  0.79025682802E+03  0.00000000000E+00 0.  1.
        -11    1    3    3    0    0  0.64929054907E+01 -0.10966804322E+02  0.11706717117E+01  0.12798401893E+02  0.00000000000E+00 0. -1.
          4    1    6    6  502    0 -0.71317881262E+02 -0.14462187844E+03 -0.13191927136E+03  0.20833727959E+03  0.00000000000E+00 0. -1.
          1    1    5    5  503    0  0.16437926801E+03  0.37712607046E+03 -0.43308161530E+03  0.59733098219E+03  0.00000000000E+00 0. -1.
         -2    1    5    5    0  503  0.24037699758E+03  0.47931457177E+03 -0.69941655529E+03  0.88130986462E+03  0.00000000000E+00 0.  1.
         -3    1    6    6    0  502 -0.28051740247E+02 -0.13882792676E+02  0.46962116332E+01  0.31649430754E+02  0.00000000000E+00 0.  1.
<mgrwt>
<rscale>  0 0.20316615E+04</rscale>
<asrwt>0</asrwt>
<pdfrwt beam="1">  1        2 0.30887807E+00 0.20316615E+04</pdfrwt>
<pdfrwt beam="2">  1       -2 0.79073128E-01 0.20316615E+04</pdfrwt>
<totfact> 0.86983833E+00</totfact>
</mgrwt>
</event>
<event>
12    1  0.1663913E-007  0.1950233E+04  0.7818608E-02  0.8630249E-01
          2   -1    0    0  501    0  0.00000000000E+00  0.00000000000E+00  0.20659023196E+04  0.20659023196E+04  0.00000000000E+00 0. -1.
         -2   -1    0    0    0  501 -0.00000000000E+00 -0.00000000000E+00 -0.46025989621E+03  0.46025989621E+03  0.00000000000E+00 0.  1.
         23    2    1    2    0    0  0.50418510400E+03 -0.48699002355E+03  0.10551038361E+04  0.12701852018E+04  0.93618586216E+02 0.  0.
        254    2    1    2    0    0 -0.50418510400E+03  0.48699002355E+03  0.55053858730E+03  0.12559770141E+04  0.88488621960E+03 0.  0.
        -24    2    4    4    0    0 -0.47872443677E+03 -0.15626947578E+02  0.56691154500E+03  0.74657062549E+03  0.80979695917E+02 0.  0.
         24    2    4    4    0    0 -0.25460667231E+02  0.50261697113E+03 -0.16372957700E+02  0.50940638857E+03  0.77166895330E+02 0.  0.
         11    1    3    3    0    0  0.50219508495E+03 -0.48721900713E+03  0.10568797237E+04  0.12675081911E+04  0.00000000000E+00 0. -1.
        -11    1    3    3    0    0  0.19900190509E+01  0.22898358408E+00 -0.17758875680E+01  0.26770106386E+01  0.00000000000E+00 0.  1.
          4    1    6    6  502    0 -0.38669108296E+02  0.25980524888E+03 -0.37451891633E+02  0.26532378610E+03  0.00000000000E+00 0. -1.
          3    1    5    5  503    0 -0.11402316796E+03 -0.31952442514E+02  0.17143294442E+03  0.20835425565E+03  0.00000000000E+00 0. -1.
         -4    1    5    5    0  503 -0.36470126881E+03  0.16325494936E+02  0.39547860057E+03  0.53821636985E+03  0.00000000000E+00 0.  1.
         -3    1    6    6    0  502  0.13208441064E+02  0.24281172224E+03  0.21078933934E+02  0.24408260247E+03  0.00000000000E+00 0.  1.
<mgrwt>
<rscale>  0 0.19502328E+04</rscale>
<asrwt>0</asrwt>
<pdfrwt beam="1">  1        2 0.31783112E+00 0.19502328E+04</pdfrwt>
<pdfrwt beam="2">  1       -2 0.70809216E-01 0.19502328E+04</pdfrwt>
<totfact> 0.10380617E+01</totfact>
</mgrwt>
</event>
<event>
12    1  0.1663913E-007  0.2664799E+04  0.7818608E-02  0.8346518E-01
         -2   -1    0    0    0  501 -0.00000000000E+00  0.00000000000E+00  0.73051348481E+03  0.73051348481E+03  0.00000000000E+00 0. -1.
          2   -1    0    0  501    0  0.00000000000E+00 -0.00000000000E+00 -0.24301925932E+04  0.24301925932E+04  0.00000000000E+00 0.  1.
         23    2    1    2    0    0  0.39656121004E+03  0.66191848035E+03 -0.17946183383E+04  0.19555584541E+04  0.90316216980E+02 0.  0.
        254    2    1    2    0    0 -0.39656121004E+03 -0.66191848035E+03  0.94939229907E+02  0.12051476240E+04  0.92085312088E+03 0.  0.
        -24    2    4    4    0    0 -0.54245742891E+03 -0.13125931191E+03  0.26622042288E+03  0.62345612860E+03  0.79593728270E+02 0.  0.
         24    2    4    4    0    0  0.14589621887E+03 -0.53065916844E+03 -0.17128119297E+03  0.58169149537E+03  0.78376584452E+02 0.  0.
         13    1    3    3    0    0  0.37926893865E+03  0.65739355243E+03 -0.17495857159E+04  0.19071081217E+04  0.00000000000E+00 0.  1.
        -13    1    3    3    0    0  0.17292271397E+02  0.45249279269E+01 -0.45032622420E+02  0.48450332351E+02  0.00000000000E+00 0. -1.
          4    1    6    6  502    0  0.95828960955E+02 -0.20890906174E+03 -0.59488126349E+02  0.23741319047E+03  0.00000000000E+00 0. -1.
          3    1    5    5  503    0 -0.23407908291E+03 -0.94810185509E+02  0.10417864622E+03  0.27319439720E+03  0.00000000000E+00 0. -1.
         -4    1    5    5    0  503 -0.30837834601E+03 -0.36449126401E+02  0.16204177666E+03  0.35026173140E+03  0.00000000000E+00 0.  1.
         -1    1    6    6    0  502  0.50067257913E+02 -0.32175010671E+03 -0.11179306663E+03  0.34427830490E+03  0.00000000000E+00 0.  1.
<mgrwt>
<rscale>  0 0.26647990E+04</rscale>
<asrwt>0</asrwt>
<pdfrwt beam="1">  1        2 0.37387578E+00 0.26647990E+04</pdfrwt>
<pdfrwt beam="2">  1       -2 0.11238669E+00 0.26647990E+04</pdfrwt>
<totfact> 0.20955450E+00</totfact>
</mgrwt>
</event>
<event>
12    1  0.1663913E-007  0.2759671E+04  0.7818608E-02  0.8315899E-01
         -2   -1    0    0    0  501 -0.00000000000E+00  0.00000000000E+00  0.93245405126E+03  0.93245405126E+03  0.00000000000E+00 0.  1.
          2   -1    0    0  501    0  0.00000000000E+00 -0.00000000000E+00 -0.20418653078E+04  0.20418653078E+04  0.00000000000E+00 0. -1.
         23    2    1    2    0    0  0.77981803081E+03  0.24164428700E+03  0.49874523185E+03  0.96088889627E+03  0.89735957457E+02 0.  0.
        254    2    1    2    0    0 -0.77981803081E+03 -0.24164428700E+03 -0.16081564883E+04  0.20134304627E+04  0.89511273851E+03 0.  0.
        -24    2    4    4    0    0 -0.34403558468E+03 -0.46412064882E+03 -0.39929442802E+03  0.70680354492E+03  0.79791921169E+02 0.  0.
         24    2    4    4    0    0 -0.43578244613E+03  0.22247636181E+03 -0.12088620603E+04  0.13066269178E+04  0.80773445743E+02 0.  0.
         13    1    3    3    0    0  0.79425687189E+02  0.27754022523E+02  0.21688374970E+02  0.86885621138E+02  0.00000000000E+00 0. -1.
        -13    1    3    3    0    0  0.70039234363E+03  0.21389026448E+03  0.47705685688E+03  0.87400327513E+03  0.00000000000E+00 0.  1.
          4    1    6    6  502    0 -0.39319680451E+03  0.20800383915E+03 -0.10253155186E+04  0.11176498722E+04  0.00000000000E+00 0. -1.
          3    1    5    5  503    0 -0.14500672762E+03 -0.14845549091E+03 -0.11174485223E+03  0.23569661821E+03  0.00000000000E+00 0. -1.
         -4    1    5    5    0  503 -0.19902885706E+03 -0.31566515790E+03 -0.28754957579E+03  0.47110692671E+03  0.00000000000E+00 0.  1.
         -3    1    6    6    0  502 -0.42585641628E+02  0.14472522666E+02 -0.18354654172E+03  0.18897704559E+03  0.00000000000E+00 0.  1.
<mgrwt>
<rscale>  0 0.27596707E+04</rscale>
<asrwt>0</asrwt>
<pdfrwt beam="1">  1        2 0.31413312E+00 0.27596707E+04</pdfrwt>
<pdfrwt beam="2">  1       -2 0.14345447E+00 0.27596707E+04</pdfrwt>
<totfact> 0.18631023E+00</totfact>
</mgrwt>
</event>
<event>
12    1  0.1850203E-007  0.2106181E+04  0.7818608E-02  0.8558526E-01
         -2   -1    0    0    0  501 -0.00000000000E+00  0.00000000000E+00  0.68936231361E+03  0.68936231361E+03  0.00000000000E+00 0.  1.
          2   -1    0    0  501    0  0.00000000000E+00 -0.00000000000E+00 -0.16087319563E+04  0.16087319563E+04  0.00000000000E+00 0. -1.
         23    2    1    2    0    0 -0.58559187282E+03  0.42548440193E+01  0.31186582665E+03  0.66943117101E+03  0.89117078518E+02 0.  0.
        254    2    1    2    0    0  0.58559187282E+03 -0.42548440193E+01 -0.12312354694E+04  0.16286630989E+04  0.89087976942E+03 0.  0.
        -24    2    4    4    0    0  0.29315291992E+03  0.22511700112E+03 -0.11874889608E+04  0.12461708927E+04  0.78711899805E+02 0.  0.
         24    2    4    4    0    0  0.29243895289E+03 -0.22937184514E+03 -0.43746508581E+02  0.38249220622E+03  0.79085689576E+02 0.  0.
         11    1    3    3    0    0 -0.54872152842E+03  0.18647881826E+02  0.30833680289E+03  0.62969408705E+03  0.00000000000E+00 0.  1.
        -11    1    3    3    0    0 -0.36870344394E+02 -0.14393037806E+02  0.35290237618E+01  0.39737083961E+02  0.00000000000E+00 0. -1.
          4    1    6    6  502    0  0.27025804457E+03 -0.23321672756E+03 -0.45746202791E+02  0.35989188340E+03  0.00000000000E+00 0. -1.
          1    1    5    5  503    0  0.15842091039E+03  0.16971529128E+03 -0.74058238101E+03  0.77612030511E+03  0.00000000000E+00 0. -1.
         -2    1    5    5    0  503  0.13473200953E+03  0.55401709847E+02 -0.44690657978E+03  0.47005058759E+03  0.00000000000E+00 0.  1.
         -3    1    6    6    0  502  0.22180908319E+02  0.38448824157E+01  0.19996942096E+01  0.22600322821E+02  0.00000000000E+00 0.  1.
<mgrwt>
<rscale>  0 0.21061806E+04</rscale>
<asrwt>0</asrwt>
<pdfrwt beam="1">  1        2 0.24749722E+00 0.21061806E+04</pdfrwt>
<pdfrwt beam="2">  1       -2 0.10605574E+00 0.21061806E+04</pdfrwt>
<totfact> 0.72893756E+00</totfact>
</mgrwt>
</event>
<event>
12    1  0.1663913E-007  0.1399053E+04  0.7818608E-02  0.8954504E-01
          2   -1    0    0  501    0  0.00000000000E+00  0.00000000000E+00  0.21201000394E+04  0.21201000394E+04  0.00000000000E+00 0. -1.
         -2   -1    0    0    0  501 -0.00000000000E+00 -0.00000000000E+00 -0.23080868587E+03  0.23080868587E+03  0.00000000000E+00 0.  1.
         23    2    1    2    0    0  0.17709979873E+03 -0.16630988373E+03  0.18402049933E+02  0.26196390988E+03  0.96245199902E+02 0.  0.
        254    2    1    2    0    0 -0.17709979873E+03  0.16630988373E+03  0.18708893036E+04  0.20889448154E+04  0.89690598129E+03 0.  0.
        -24    2    4    4    0    0  0.31655100567E+03  0.23816218700E+03  0.62010397026E+03  0.74012612593E+03  0.79573750918E+02 0.  0.
         24    2    4    4    0    0 -0.49365080440E+03 -0.71852303278E+02  0.12507853334E+04  0.13488186895E+04  0.77421164824E+02 0.  0.
         11    1    3    3    0    0  0.14572625679E+03 -0.10313284824E+03  0.48915566161E+02  0.18510877590E+03  0.00000000000E+00 0. -1.
        -11    1    3    3    0    0  0.31373541946E+02 -0.63177035482E+02 -0.30513516228E+02  0.76855133981E+02  0.00000000000E+00 0.  1.
          4    1    6    6  502    0 -0.45990632908E+03 -0.64120348976E+02  0.10978680078E+04  0.11920316326E+04  0.00000000000E+00 0. -1.
          1    1    5    5  503    0  0.27203221670E+03  0.16488267502E+03  0.49798917576E+03  0.59091542764E+03  0.00000000000E+00 0. -1.
         -2    1    5    5    0  503  0.44518788967E+02  0.73279511982E+02  0.12211479450E+03  0.14921069828E+03  0.00000000000E+00 0.  1.
         -3    1    6    6    0  502 -0.33744475324E+02 -0.77319543021E+01  0.15291732563E+03  0.15678705690E+03  0.00000000000E+00 0.  1.
<mgrwt>
<rscale>  0 0.13990533E+04</rscale>
<asrwt>0</asrwt>
<pdfrwt beam="1">  1        2 0.32616922E+00 0.13990533E+04</pdfrwt>
<pdfrwt beam="2">  1       -2 0.35509030E-01 0.13990533E+04</pdfrwt>
<totfact> 0.41575932E+01</totfact>
</mgrwt>
</event>
<event>
12    1  0.1663913E-007  0.3030593E+04  0.7818608E-02  0.8235049E-01
          2   -1    0    0  501    0  0.00000000000E+00  0.00000000000E+00  0.15684596983E+04  0.15684596983E+04  0.00000000000E+00 0. -1.
         -2   -1    0    0    0  501 -0.00000000000E+00 -0.00000000000E+00 -0.14639349421E+04  0.14639349421E+04  0.00000000000E+00 0.  1.
         23    2    1    2    0    0 -0.37248233996E+03  0.12371541365E+04  0.52184278513E+03  0.13964696218E+04  0.92271669629E+02 0.  0.
        254    2    1    2    0    0  0.37248233996E+03 -0.12371541365E+04 -0.41731802899E+03  0.16359250186E+04  0.91258034060E+03 0.  0.
        -24    2    4    4    0    0  0.13451552917E+03 -0.10986083194E+04 -0.63258053691E+03  0.12773773669E+04  0.80623412978E+02 0.  0.
         24    2    4    4    0    0  0.23796681079E+03 -0.13854581710E+03  0.21526250791E+03  0.35854765169E+03  0.79970774322E+02 0.  0.
         13    1    3    3    0    0 -0.31404498371E+03  0.11030819278E+04  0.48759238982E+03  0.12462585325E+04  0.00000000000E+00 0. -1.
        -13    1    3    3    0    0 -0.58437356251E+02  0.13407220873E+03  0.34250395320E+02  0.15021108927E+03  0.00000000000E+00 0.  1.
          4    1    6    6  502    0  0.86713783683E+02 -0.74613746886E+02  0.13121064071E+03  0.17407677542E+03  0.00000000000E+00 0. -1.
          1    1    5    5  503    0  0.13434670362E+03 -0.89096205370E+03 -0.53556546540E+03  0.10481854729E+04  0.00000000000E+00 0. -1.
         -2    1    5    5    0  503  0.16882554895E+00 -0.20764626573E+03 -0.97015071506E+02  0.22919189399E+03  0.00000000000E+00 0.  1.
         -3    1    6    6    0  502  0.15125302711E+03 -0.63932070212E+02  0.84051867198E+02  0.18447087627E+03  0.00000000000E+00 0.  1.
<mgrwt>
<rscale>  0 0.30305927E+04</rscale>
<asrwt>0</asrwt>
<pdfrwt beam="1">  1        2 0.24130149E+00 0.30305927E+04</pdfrwt>
<pdfrwt beam="2">  1       -2 0.22522076E+00 0.30305927E+04</pdfrwt>
<totfact> 0.90865858E-01</totfact>
</mgrwt>
</event>
<event>
12    1  0.1663913E-007  0.1758940E+04  0.7818608E-02  0.8728445E-01
          2   -1    0    0  501    0  0.00000000000E+00  0.00000000000E+00  0.92547192713E+03  0.92547192713E+03  0.00000000000E+00 0.  1.
         -2   -1    0    0    0  501 -0.00000000000E+00 -0.00000000000E+00 -0.83575456593E+03  0.83575456593E+03  0.00000000000E+00 0. -1.
         23    2    1    2    0    0  0.39239601575E+03  0.37331147483E+03  0.38842262639E+03  0.67304531650E+03  0.93711103741E+02 0.  0.
        254    2    1    2    0    0 -0.39239601575E+03 -0.37331147483E+03 -0.29870526518E+03  0.10881811766E+04  0.89530852065E+03 0.  0.
        -24    2    4    4    0    0 -0.54979156043E+03  0.25146006042E+02  0.57595455721E+01  0.55645021865E+03  0.81857143407E+02 0.  0.
         24    2    4    4    0    0  0.15739554469E+03 -0.39845748087E+03 -0.30446481075E+03  0.53173095790E+03  0.80605639108E+02 0.  0.
         13    1    3    3    0    0  0.67444604942E+02  0.58923148844E+02  0.25087771233E+02  0.93005959331E+02  0.00000000000E+00 0. -1.
        -13    1    3    3    0    0  0.32495141081E+03  0.31438832599E+03  0.36333485515E+03  0.58003935717E+03  0.00000000000E+00 0.  1.
          4    1    6    6  502    0  0.12547065299E+02 -0.12370824815E+03 -0.71081888653E+02  0.14322637467E+03  0.00000000000E+00 0. -1.
          3    1    5    5  503    0 -0.28272887679E+03 -0.27821655647E+02  0.70692161302E+01  0.28418239937E+03  0.00000000000E+00 0. -1.
         -4    1    5    5    0  503 -0.26706268364E+03  0.52967661689E+02 -0.13096705581E+01  0.27226781928E+03  0.00000000000E+00 0.  1.
         -3    1    6    6    0  502  0.14484847939E+03 -0.27474923272E+03 -0.23338292210E+03  0.38850458323E+03  0.00000000000E+00 0.  1.
<mgrwt>
<rscale>  0 0.17589399E+04</rscale>
<asrwt>0</asrwt>
<pdfrwt beam="1">  1        2 0.14238030E+00 0.17589399E+04</pdfrwt>
<pdfrwt beam="2">  1       -2 0.12857763E+00 0.17589399E+04</pdfrwt>
<totfact> 0.11921515E+01</totfact>
</mgrwt>
</event>
<event>
12    1  0.1663913E-007  0.2150399E+04  0.7818608E-02  0.8539361E-01
         -1   -1    0    0    0  501 -0.00000000000E+00  0.00000000000E+00  0.49695902230E+03  0.49695902230E+03  0.00000000000E+00 0.  1.
          1   -1    0    0  501    0  0.00000000000E+00 -0.00000000000E+00 -0.23262570231E+04  0.23262570231E+04  0.00000000000E+00 0. -1.
         23    2    1    2    0    0  0.81085706265E+03 -0.32031625930E+03 -0.95430509141E+03  0.12960374635E+04  0.94462782776E+02 0.  0.
        254    2    1    2    0    0 -0.81085706265E+03  0.32031625930E+03 -0.87499290941E+03  0.15271785819E+04  0.89809250495E+03 0.  0.
        -24    2    4    4    0    0 -0.77387447310E+03  0.55404161231E+02 -0.21337856044E+03  0.80909498880E+03  0.84575230706E+02 0.  0.
         24    2    4    4    0    0 -0.36982589547E+02  0.26491209807E+03 -0.66161434896E+03  0.71808359309E+03  0.79776990876E+02 0.  0.
         11    1    3    3    0    0  0.57668373283E+03 -0.19895994498E+03 -0.71526478662E+03  0.94008132754E+03  0.00000000000E+00 0. -1.
        -11    1    3    3    0    0  0.23417332982E+03 -0.12135631432E+03 -0.23904030479E+03  0.35595613598E+03  0.00000000000E+00 0.  1.
          2    1    6    6  502    0  0.20690700077E+02  0.10867385433E+03 -0.30656575439E+03  0.32591513228E+03  0.00000000000E+00 0. -1.
          1    1    5    5  503    0 -0.68630574675E+03  0.56781986484E+02 -0.21521382264E+03  0.72149619644E+03  0.00000000000E+00 0. -1.
         -2    1    5    5    0  503 -0.87568726348E+02 -0.13778252525E+01  0.18352622003E+01  0.87598792366E+02  0.00000000000E+00 0.  1.
         -1    1    6    6    0  502 -0.57673289625E+02  0.15623824374E+03 -0.35504859457E+03  0.39216846080E+03  0.00000000000E+00 0.  1.
<mgrwt>
<rscale>  0 0.21503994E+04</rscale>
<asrwt>0</asrwt>
<pdfrwt beam="1">  1        1 0.35788569E+00 0.21503994E+04</pdfrwt>
<pdfrwt beam="2">  1       -1 0.76455236E-01 0.21503994E+04</pdfrwt>
<totfact> 0.28074150E+00</totfact>
</mgrwt>
</event>
<event>
12    1  0.1663913E-007  0.1912244E+04  0.7818608E-02  0.8648786E-01
          2   -1    0    0  501    0  0.00000000000E+00  0.00000000000E+00  0.23985758376E+04  0.23985758376E+04  0.00000000000E+00 0. -1.
         -2   -1    0    0    0  501 -0.00000000000E+00 -0.00000000000E+00 -0.38112986300E+03  0.38112986300E+03  0.00000000000E+00 0.  1.
         23    2    1    2    0    0 -0.45019265032E+03 -0.19680333334E+03  0.15980708387E+04  0.16743911832E+04  0.91380820959E+02 0.  0.
        254    2    1    2    0    0  0.45019265032E+03  0.19680333334E+03  0.41937513584E+03  0.11053145173E+04  0.89690562674E+03 0.  0.
        -24    2    4    4    0    0  0.61534701959E+03 -0.14310252585E+03  0.28675061713E+03  0.69813832813E+03  0.77723364336E+02 0.  0.
         24    2    4    4    0    0 -0.16515436927E+03  0.33990585920E+03  0.13262451871E+03  0.40717618922E+03  0.73424977322E+02 0.  0.
         13    1    3    3    0    0 -0.24788476725E+03 -0.13361102204E+03  0.77875743702E+03  0.82810742585E+03  0.00000000000E+00 0.  1.
        -13    1    3    3    0    0 -0.20230788307E+03 -0.63192311303E+02  0.81931340172E+03  0.84628375737E+03  0.00000000000E+00 0. -1.
          2    1    6    6  502    0 -0.15850883022E+03  0.26065663493E+03  0.97838279579E+02  0.32037362492E+03  0.00000000000E+00 0. -1.
          1    1    5    5  503    0  0.56664399134E+03 -0.14828212528E+03  0.27814007182E+03  0.64840951655E+03  0.00000000000E+00 0. -1.
         -2    1    5    5    0  503  0.48703028251E+02  0.51795994317E+01  0.86105453033E+01  0.49728811584E+02  0.00000000000E+00 0.  1.
         -1    1    6    6    0  502 -0.66455390534E+01  0.79249224262E+02  0.34786239136E+02  0.86802564298E+02  0.00000000000E+00 0.  1.
<mgrwt>
<rscale>  0 0.19122436E+04</rscale>
<asrwt>0</asrwt>
<pdfrwt beam="1">  1        2 0.36901166E+00 0.19122436E+04</pdfrwt>
<pdfrwt beam="2">  1       -2 0.58635365E-01 0.19122436E+04</pdfrwt>
<totfact> 0.10137656E+01</totfact>
</mgrwt>
</event>
<event>
12    1  0.1663913E-007  0.1810813E+04  0.7818608E-02  0.8700570E-01
         -1   -1    0    0    0  501 -0.00000000000E+00  0.00000000000E+00  0.55677836800E+03  0.55677836800E+03  0.00000000000E+00 0.  1.
          1   -1    0    0  501    0  0.00000000000E+00 -0.00000000000E+00 -0.14723297631E+04  0.14723297631E+04  0.00000000000E+00 0. -1.
         23    2    1    2    0    0 -0.50071947238E+03  0.14537511973E+03  0.14277471598E+03  0.54798159532E+03  0.89695561886E+02 0.  0.
        254    2    1    2    0    0  0.50071947238E+03 -0.14537511973E+03 -0.10583261111E+04  0.14811265358E+04  0.89544834699E+03 0.  0.
        -24    2    4    4    0    0  0.45255868541E+03  0.13702644300E+03 -0.11672420752E+03  0.49356702565E+03  0.79989114057E+02 0.  0.
         24    2    4    4    0    0  0.48160786975E+02 -0.28240156273E+03 -0.94160190355E+03  0.98755951012E+03  0.81175964597E+02 0.  0.
         11    1    3    3    0    0 -0.22472982019E+03  0.58012571930E+02  0.18139077615E+02  0.23280458914E+03  0.00000000000E+00 0. -1.
        -11    1    3    3    0    0 -0.27598965219E+03  0.87362547798E+02  0.12463563837E+03  0.31517700618E+03  0.00000000000E+00 0.  1.
          2    1    6    6  502    0  0.45897381451E+02 -0.28661232451E+03 -0.93697957537E+03  0.98090974042E+03  0.00000000000E+00 0. -1.
          1    1    5    5  503    0  0.29870731926E+03  0.11717033147E+03 -0.50166006147E+02  0.32476387935E+03  0.00000000000E+00 0. -1.
         -2    1    5    5    0  503  0.15385136615E+03  0.19856111524E+02 -0.66558201376E+02  0.16880314630E+03  0.00000000000E+00 0.  1.
         -1    1    6    6    0  502  0.22634055242E+01  0.42107617782E+01 -0.46223281790E+01  0.66497697038E+01  0.00000000000E+00 0.  1.
<mgrwt>
<rscale>  0 0.18108135E+04</rscale>
<asrwt>0</asrwt>
<pdfrwt beam="1">  1        1 0.22651227E+00 0.18108135E+04</pdfrwt>
<pdfrwt beam="2">  1       -1 0.85658211E-01 0.18108135E+04</pdfrwt>
<totfact> 0.86785274E+00</totfact>
</mgrwt>
</event>
<event>
12    1  0.1663913E-007  0.1381925E+04  0.7818608E-02  0.8967007E-01
         -2   -1    0    0    0  501 -0.00000000000E+00  0.00000000000E+00  0.44527310165E+03  0.44527310165E+03  0.00000000000E+00 0.  1.
          2   -1    0    0  501    0  0.00000000000E+00 -0.00000000000E+00 -0.10722168157E+04  0.10722168157E+04  0.00000000000E+00 0. -1.
         23    2    1    2    0    0 -0.37462861999E+03 -0.39290455590E+02 -0.83412261239E+02  0.39638997691E+03  0.90978380127E+02 0.  0.
        254    2    1    2    0    0  0.37462861999E+03  0.39290455590E+02 -0.54353145281E+03  0.11210999404E+04  0.90528906623E+03 0.  0.
        -24    2    4    4    0    0  0.58545434302E+03 -0.22602656636E+03 -0.34026691931E+03  0.71835708592E+03  0.80065785793E+02 0.  0.
         24    2    4    4    0    0 -0.21082572302E+03  0.26531702195E+03 -0.20326453350E+03  0.40274285452E+03  0.77747853075E+02 0.  0.
         11    1    3    3    0    0 -0.21465574366E+03 -0.42682120102E+02 -0.89051868439E+02  0.23628179561E+03  0.00000000000E+00 0. -1.
        -11    1    3    3    0    0 -0.15997287634E+03  0.33916645119E+01  0.56396072006E+01  0.16010818130E+03  0.00000000000E+00 0.  1.
          2    1    6    6  502    0 -0.85334073691E+02  0.14383837047E+03 -0.13606474259E+03  0.21560379201E+03  0.00000000000E+00 0. -1.
          1    1    5    5  503    0  0.15622818727E+03 -0.44615401653E+02 -0.52821903717E+02  0.17084476601E+03  0.00000000000E+00 0. -1.
         -2    1    5    5    0  503  0.42922615575E+03 -0.18141116471E+03 -0.28744501559E+03  0.54751231991E+03  0.00000000000E+00 0.  1.
         -1    1    6    6    0  502 -0.12549164933E+03  0.12147865148E+03 -0.67199790917E+02  0.18713906251E+03  0.00000000000E+00 0.  1.
<mgrwt>
<rscale>  0 0.13819252E+04</rscale>
<asrwt>0</asrwt>
<pdfrwt beam="1">  1        2 0.16495643E+00 0.13819252E+04</pdfrwt>
<pdfrwt beam="2">  1       -2 0.68503555E-01 0.13819252E+04</pdfrwt>
<totfact> 0.43058476E+01</totfact>
</mgrwt>
</event>
<event>
12    1  0.1663913E-007  0.2295561E+04  0.7818608E-02  0.8479673E-01
         -1   -1    0    0    0  501 -0.00000000000E+00  0.00000000000E+00  0.48419147789E+03  0.48419147789E+03  0.00000000000E+00 0.  1.
          1   -1    0    0  501    0  0.00000000000E+00 -0.00000000000E+00 -0.27208248400E+04  0.27208248400E+04  0.00000000000E+00 0. -1.
         23    2    1    2    0    0 -0.73780281874E+03 -0.54249277994E+03 -0.51391360489E+03  0.10539961781E+04  0.90273664291E+02 0.  0.
        254    2    1    2    0    0  0.73780281874E+03  0.54249277994E+03 -0.17227197572E+04  0.21510201398E+04  0.90579957186E+03 0.  0.
        -24    2    4    4    0    0 -0.81900898609E+02  0.41527538962E+03 -0.40115813794E+03  0.58868560301E+03  0.80383338691E+02 0.  0.
         24    2    4    4    0    0  0.81970371735E+03  0.12721739032E+03 -0.13215616193E+04  0.15623345368E+04  0.79155813032E+02 0.  0.
         13    1    3    3    0    0 -0.72701685497E+03 -0.51675772477E+03 -0.49310916485E+03  0.10191902187E+04  0.00000000000E+00 0.  1.
        -13    1    3    3    0    0 -0.10785963765E+02 -0.25735055177E+02 -0.20804440037E+02  0.34805959325E+02  0.00000000000E+00 0. -1.
          2    1    6    6  502    0  0.34863106086E+03  0.49655132842E+02 -0.63478712417E+03  0.72592282085E+03  0.00000000000E+00 0. -1.
          1    1    5    5  503    0 -0.16594584621E+02  0.28381860381E+02 -0.61453991744E+02  0.69695791398E+02  0.00000000000E+00 0. -1.
         -2    1    5    5    0  503 -0.65306313988E+02  0.38689352924E+03 -0.33970414619E+03  0.51898981161E+03  0.00000000000E+00 0.  1.
         -1    1    6    6    0  502  0.47107265649E+03  0.77562257481E+02 -0.68677449512E+03  0.83641171597E+03  0.00000000000E+00 0.  1.
<mgrwt>
<rscale>  0 0.22955611E+04</rscale>
<asrwt>0</asrwt>
<pdfrwt beam="1">  1        1 0.41858843E+00 0.22955611E+04</pdfrwt>
<pdfrwt beam="2">  1       -1 0.74490997E-01 0.22955611E+04</pdfrwt>
<totfact> 0.15558712E+00</totfact>
</mgrwt>
</event>
<event>
12    1  0.1663913E-007  0.2195229E+04  0.7818608E-02  0.8520417E-01
          2   -1    0    0  501    0  0.00000000000E+00  0.00000000000E+00  0.24126926051E+04  0.24126926051E+04  0.00000000000E+00 0. -1.
         -2   -1    0    0    0  501 -0.00000000000E+00 -0.00000000000E+00 -0.49934144887E+03  0.49934144887E+03  0.00000000000E+00 0.  1.
         23    2    1    2    0    0  0.70004815196E+02 -0.11867429662E+03 -0.39654228075E+03  0.43014632336E+03  0.93786013082E+02 0.  0.
        254    2    1    2    0    0 -0.70004815196E+02  0.11867429662E+03  0.23098934370E+04  0.24818877306E+04  0.89731530375E+03 0.  0.
        -24    2    4    4    0    0 -0.13107899032E+02  0.50321661579E+03  0.13343071120E+04  0.14283200604E+04  0.79523243354E+02 0.  0.
         24    2    4    4    0    0 -0.56896916163E+02 -0.38454231918E+03  0.97558632499E+03  0.10535676703E+04  0.84416254572E+02 0.  0.
         11    1    3    3    0    0  0.40473722728E+02 -0.59604996813E+01 -0.50369772461E+02  0.64890398101E+02  0.00000000000E+00 0. -1.
        -11    1    3    3    0    0  0.29531092467E+02 -0.11271379693E+03 -0.34617250829E+03  0.36525592526E+03  0.00000000000E+00 0.  1.
          4    1    6    6  502    0 -0.71729173417E+02 -0.34802544074E+03  0.91170869014E+03  0.97850882336E+03  0.00000000000E+00 0. -1.
          1    1    5    5  503    0  0.16124126578E+02  0.43584347945E+03  0.11351141836E+04  0.12160196281E+04  0.00000000000E+00 0. -1.
         -2    1    5    5    0  503 -0.29232025610E+02  0.67373136347E+02  0.19919292843E+03  0.21230043231E+03  0.00000000000E+00 0.  1.
         -3    1    6    6    0  502  0.14832257254E+02 -0.36516878432E+02  0.63877634850E+02  0.75058846912E+02  0.00000000000E+00 0.  1.
<mgrwt>
<rscale>  0 0.21952288E+04</rscale>
<asrwt>0</asrwt>
<pdfrwt beam="1">  1        2 0.37118347E+00 0.21952288E+04</pdfrwt>
<pdfrwt beam="2">  1       -2 0.76821763E-01 0.21952288E+04</pdfrwt>
<totfact> 0.54113474E+00</totfact>
</mgrwt>
</event>
<event>
12    1  0.1663913E-007  0.1089880E+04  0.7818608E-02  0.9215112E-01
          2   -1    0    0  501    0  0.00000000000E+00  0.00000000000E+00  0.14090272666E+03  0.14090272666E+03  0.00000000000E+00 0. -1.
         -2   -1    0    0    0  501 -0.00000000000E+00 -0.00000000000E+00 -0.21075509026E+04  0.21075509026E+04  0.00000000000E+00 0.  1.
         23    2    1    2    0    0 -0.38903042862E+02  0.13099894892E+03 -0.25021118718E+03  0.29902709977E+03  0.90207520994E+02 0.  0.
        254    2    1    2    0    0  0.38903042862E+02 -0.13099894892E+03 -0.17164369888E+04  0.19494265295E+04  0.91402061581E+03 0.  0.
        -24    2    4    4    0    0  0.17372916368E+03 -0.31222539567E+03 -0.16621294855E+04  0.17018964613E+04  0.78170445027E+02 0.  0.
         24    2    4    4    0    0 -0.13482612082E+03  0.18122644675E+03 -0.54307503288E+02  0.24753006819E+03  0.85444261887E+02 0.  0.
         11    1    3    3    0    0 -0.52302794181E+01  0.10285755581E+03 -0.22725123002E+03  0.24949980793E+03  0.00000000000E+00 0.  1.
        -11    1    3    3    0    0 -0.33672763444E+02  0.28141393110E+02 -0.22959957155E+02  0.49527291837E+02  0.00000000000E+00 0. -1.
          2    1    6    6  502    0 -0.28405546996E+02  0.62354309707E+02  0.20208617186E+02  0.71437547885E+02  0.00000000000E+00 0. -1.
          3    1    5    5  503    0  0.15552515769E+03 -0.24530497396E+03 -0.14470539634E+04  0.14759159115E+04  0.00000000000E+00 0. -1.
         -4    1    5    5    0  503  0.18204005988E+02 -0.66920421712E+02 -0.21507552209E+03  0.22598054978E+03  0.00000000000E+00 0.  1.
         -1    1    6    6    0  502 -0.10642057382E+03  0.11887213704E+03 -0.74516120474E+02  0.17609252031E+03  0.00000000000E+00 0.  1.
<mgrwt>
<rscale>  0 0.10898801E+04</rscale>
<asrwt>0</asrwt>
<pdfrwt beam="1">  1        2 0.21677343E-01 0.10898801E+04</pdfrwt>
<pdfrwt beam="2">  1       -2 0.32423859E+00 0.10898801E+04</pdfrwt>
<totfact> 0.58863193E+00</totfact>
</mgrwt>
</event>
<event>
12    1  0.1663913E-007  0.1780613E+04  0.7818608E-02  0.8716677E-01
         -2   -1    0    0    0  501 -0.00000000000E+00  0.00000000000E+00  0.68419258950E+03  0.68419258950E+03  0.00000000000E+00 0.  1.
          2   -1    0    0  501    0  0.00000000000E+00 -0.00000000000E+00 -0.11585131240E+04  0.11585131240E+04  0.00000000000E+00 0. -1.
         23    2    1    2    0    0  0.65864412217E+03 -0.49352244602E+02 -0.14945556893E+03  0.68280345817E+03  0.87383474913E+02 0.  0.
        254    2    1    2    0    0 -0.65864412217E+03  0.49352244602E+02 -0.32486496558E+03  0.11599022553E+04  0.89643085197E+03 0.  0.
        -24    2    4    4    0    0 -0.66905520681E+03  0.32496376459E+03 -0.30851858301E+02  0.74880664344E+03  0.80766540404E+02 0.  0.
         24    2    4    4    0    0  0.10411084634E+02 -0.27561151998E+03 -0.29401310728E+03  0.41109561190E+03  0.80534428898E+02 0.  0.
         13    1    3    3    0    0  0.58095372230E+03 -0.53094310128E+02 -0.10357122074E+03  0.59249745230E+03  0.00000000000E+00 0.  1.
        -13    1    3    3    0    0  0.77690399878E+02  0.37420655265E+01 -0.45884348194E+02  0.90306005873E+02  0.00000000000E+00 0. -1.
          4    1    6    6  502    0  0.11261854047E+02 -0.20600958590E+03 -0.16375461519E+03  0.26340530145E+03  0.00000000000E+00 0. -1.
          1    1    5    5  503    0 -0.92276735240E+01  0.12305811153E+02  0.85327286775E+01  0.17589497022E+02  0.00000000000E+00 0. -1.
         -2    1    5    5    0  503 -0.65982753328E+03  0.31265795343E+03 -0.39384586979E+02  0.73121714642E+03  0.00000000000E+00 0.  1.
         -1    1    6    6    0  502 -0.85076941268E+00 -0.69601934088E+02 -0.13025849209E+03  0.14769031045E+03  0.00000000000E+00 0.  1.
<mgrwt>
<rscale>  0 0.17806135E+04</rscale>
<asrwt>0</asrwt>
<pdfrwt beam="1">  1        2 0.17823279E+00 0.17806135E+04</pdfrwt>
<pdfrwt beam="2">  1       -2 0.10526040E+00 0.17806135E+04</pdfrwt>
<totfact> 0.13863827E+01</totfact>
</mgrwt>
</event>
<event>
12    1  0.1663913E-007  0.1753738E+04  0.7818608E-02  0.8731295E-01
         -2   -1    0    0    0  501 -0.00000000000E+00  0.00000000000E+00  0.30222588035E+03  0.30222588035E+03  0.00000000000E+00 0.  1.
          2   -1    0    0  501    0  0.00000000000E+00 -0.00000000000E+00 -0.25441221824E+04  0.25441221824E+04  0.00000000000E+00 0. -1.
         23    2    1    2    0    0  0.22977701754E+03 -0.56482007847E+01  0.15559274117E+03  0.29309698903E+03  0.94166681565E+02 0.  0.
        254    2    1    2    0    0 -0.22977701754E+03  0.56482007847E+01 -0.23974890433E+04  0.25532510738E+04  0.84753050279E+03 0.  0.
        -24    2    4    4    0    0 -0.24055608695E+03 -0.29448397541E+03 -0.20518798505E+04  0.20883725081E+04  0.80627345613E+02 0.  0.
         24    2    4    4    0    0  0.10779069416E+02  0.30013217620E+03 -0.34560919277E+03  0.46487856569E+03  0.80441625977E+02 0.  0.
         13    1    3    3    0    0  0.13253117904E+03 -0.48014748207E+02  0.73536217850E+02  0.15898900842E+03  0.00000000000E+00 0.  1.
        -13    1    3    3    0    0  0.97245838499E+02  0.42366547422E+02  0.82056523316E+02  0.13410798061E+03  0.00000000000E+00 0. -1.
          2    1    6    6  502    0 -0.89561980746E+01  0.27649815352E+02 -0.74610689281E+02  0.80071722399E+02  0.00000000000E+00 0. -1.
          1    1    5    5  503    0 -0.10544982183E+03 -0.73150719633E+02 -0.75348197523E+03  0.76433355264E+03  0.00000000000E+00 0. -1.
         -2    1    5    5    0  503 -0.13510626512E+03 -0.22133325578E+03 -0.12983978753E+04  0.13240389554E+04  0.00000000000E+00 0.  1.
         -1    1    6    6    0  502  0.19735267491E+02  0.27248236084E+03 -0.27099850349E+03  0.38480684329E+03  0.00000000000E+00 0.  1.
<mgrwt>
<rscale>  0 0.17537384E+04</rscale>
<asrwt>0</asrwt>
<pdfrwt beam="1">  1        2 0.39140343E+00 0.17537384E+04</pdfrwt>
<pdfrwt beam="2">  1       -2 0.46496288E-01 0.17537384E+04</pdfrwt>
<totfact> 0.13656351E+01</totfact>
</mgrwt>
</event>
<event>
12    1  0.1663913E-007  0.2691971E+04  0.7818608E-02  0.8337615E-01
         -2   -1    0    0    0  501 -0.00000000000E+00  0.00000000000E+00  0.16140344367E+04  0.16140344367E+04  0.00000000000E+00 0.  1.
          2   -1    0    0  501    0  0.00000000000E+00 -0.00000000000E+00 -0.11224521733E+04  0.11224521733E+04  0.00000000000E+00 0. -1.
         23    2    1    2    0    0 -0.10442759111E+04  0.54152296126E+03  0.54286120579E+03  0.12986686532E+04  0.89903759618E+02 0.  0.
        254    2    1    2    0    0  0.10442759111E+04 -0.54152296126E+03 -0.51278942372E+02  0.14378179568E+04  0.82518582806E+03 0.  0.
        -24    2    4    4    0    0  0.15321532068E+03 -0.10426219134E+03 -0.34460889726E+03  0.39974780709E+03  0.81838121716E+02 0.  0.
         24    2    4    4    0    0  0.89106059046E+03 -0.43726076992E+03  0.29332995489E+03  0.10380701497E+04  0.79757234906E+02 0.  0.
         11    1    3    3    0    0 -0.18110706224E+03  0.84019527887E+02  0.12902799937E+03  0.23771258629E+03  0.00000000000E+00 0. -1.
        -11    1    3    3    0    0 -0.86316884890E+03  0.45750343337E+03  0.41383320642E+03  0.10609560669E+04  0.00000000000E+00 0.  1.
          2    1    6    6  502    0  0.85665668636E+03 -0.43123352050E+03  0.27104495237E+03  0.99663854716E+03  0.00000000000E+00 0. -1.
          1    1    5    5  503    0  0.13331344089E+03 -0.47065739398E+02 -0.22611482466E+03  0.26667502935E+03  0.00000000000E+00 0. -1.
         -2    1    5    5    0  503  0.19901879792E+02 -0.57196451939E+02 -0.11849407260E+03  0.13307277774E+03  0.00000000000E+00 0.  1.
         -1    1    6    6    0  502  0.34403904098E+02 -0.60272494189E+01  0.22285002521E+02  0.41431602553E+02  0.00000000000E+00 0.  1.
<mgrwt>
<rscale>  0 0.26919706E+04</rscale>
<asrwt>0</asrwt>
<pdfrwt beam="1">  1        2 0.17268495E+00 0.26919706E+04</pdfrwt>
<pdfrwt beam="2">  1       -2 0.24831299E+00 0.26919706E+04</pdfrwt>
<totfact> 0.12193077E+00</totfact>
</mgrwt>
</event>
<event>
12    1  0.1663913E-007  0.1263270E+04  0.7818608E-02  0.9059210E-01
          2   -1    0    0  501    0  0.00000000000E+00  0.00000000000E+00  0.12278302614E+04  0.12278302614E+04  0.00000000000E+00 0. -1.
         -2   -1    0    0    0  501 -0.00000000000E+00 -0.00000000000E+00 -0.32493315349E+03  0.32493315349E+03  0.00000000000E+00 0.  1.
         23    2    1    2    0    0 -0.54265216358E+02 -0.29737440887E+03  0.28667113569E+03  0.42644372915E+03  0.91091499824E+02 0.  0.
        254    2    1    2    0    0  0.54265216358E+02  0.29737440887E+03  0.61622597218E+03  0.11263196857E+04  0.89302034289E+03 0.  0.
        -24    2    4    4    0    0  0.30386864917E+03  0.31774057456E+03 -0.10540417403E+02  0.44649582275E+03  0.77150441749E+02 0.  0.
         24    2    4    4    0    0 -0.24960343281E+03 -0.20366165688E+02  0.62676638959E+03  0.67982386294E+03  0.81287902756E+02 0.  0.
         13    1    3    3    0    0 -0.64497221378E+02 -0.29796291011E+03  0.27211927936E+03  0.40864494315E+03  0.00000000000E+00 0. -1.
        -13    1    3    3    0    0  0.10232005020E+02  0.58850123863E+00  0.14551856330E+02  0.17798786000E+02  0.00000000000E+00 0.  1.
          4    1    6    6  502    0 -0.22677734197E+03 -0.35449803678E+02  0.50042642470E+03  0.55055540861E+03  0.00000000000E+00 0. -1.
          3    1    5    5  503    0  0.26354637999E+03  0.28319454235E+03 -0.34206703244E+02  0.38836315707E+03  0.00000000000E+00 0. -1.
         -4    1    5    5    0  503  0.40322269180E+02  0.34546032210E+02  0.23666285841E+02  0.58132665677E+02  0.00000000000E+00 0.  1.
         -3    1    6    6    0  502 -0.22826090844E+02  0.15083637990E+02  0.12633996488E+03  0.12926845433E+03  0.00000000000E+00 0.  1.
<mgrwt>
<rscale>  0 0.12632700E+04</rscale>
<asrwt>0</asrwt>
<pdfrwt beam="1">  1        2 0.18889696E+00 0.12632700E+04</pdfrwt>
<pdfrwt beam="2">  1       -2 0.49989717E-01 0.12632700E+04</pdfrwt>
<totfact> 0.67801184E+01</totfact>
</mgrwt>
</event>
<event>
12    1  0.1663913E-007  0.2025742E+04  0.7818608E-02  0.8594679E-01
          2   -1    0    0  501    0  0.00000000000E+00  0.00000000000E+00  0.36872948305E+04  0.36872948305E+04  0.00000000000E+00 0. -1.
         -2   -1    0    0    0  501 -0.00000000000E+00 -0.00000000000E+00 -0.27822783750E+03  0.27822783750E+03  0.00000000000E+00 0.  1.
         23    2    1    2    0    0  0.23248558602E+03  0.29576782419E+03  0.27180883163E+04  0.27455255746E+04  0.91533775347E+02 0.  0.
        254    2    1    2    0    0 -0.23248558602E+03 -0.29576782419E+03  0.69097867673E+03  0.12199970934E+04  0.93242330663E+03 0.  0.
        -24    2    4    4    0    0 -0.31466065370E+03 -0.59712693605E+03  0.42000087939E+03  0.79898356987E+03  0.80013133173E+02 0.  0.
         24    2    4    4    0    0  0.82175067683E+02  0.30135911186E+03  0.27097779734E+03  0.42101352356E+03  0.79078216491E+02 0.  0.
         11    1    3    3    0    0  0.26127486710E+02 -0.19993938082E+00  0.20952481064E+03  0.21114765405E+03  0.00000000000E+00 0.  1.
        -11    1    3    3    0    0  0.20635809931E+03  0.29596776357E+03  0.25085635056E+04  0.25343779205E+04  0.00000000000E+00 0. -1.
          4    1    6    6  502    0  0.31929053191E+02  0.16953331938E+03  0.19650445065E+03  0.26148615631E+03  0.00000000000E+00 0. -1.
          1    1    5    5  503    0 -0.13268034650E+03 -0.22083516759E+03  0.11831812121E+03  0.28349854215E+03  0.00000000000E+00 0. -1.
         -2    1    5    5    0  503 -0.18198030721E+03 -0.37629176846E+03  0.30168275818E+03  0.51548502772E+03  0.00000000000E+00 0.  1.
         -3    1    6    6    0  502  0.50246014492E+02  0.13182579248E+03  0.74473346691E+02  0.15952736725E+03  0.00000000000E+00 0.  1.
<mgrwt>
<rscale>  0 0.20257424E+04</rscale>
<asrwt>0</asrwt>
<pdfrwt beam="1">  1        2 0.56727609E+00 0.20257424E+04</pdfrwt>
<pdfrwt beam="2">  1       -2 0.42804285E-01 0.20257424E+04</pdfrwt>
<totfact> 0.28811604E+00</totfact>
</mgrwt>
</event>
<event>
12    1  0.1663913E-007  0.1627287E+04  0.7818608E-02  0.8803958E-01
         -2   -1    0    0    0  501 -0.00000000000E+00  0.00000000000E+00  0.14160097023E+04  0.14160097023E+04  0.00000000000E+00 0.  1.
          2   -1    0    0  501    0  0.00000000000E+00 -0.00000000000E+00 -0.46752208311E+03  0.46752208311E+03  0.00000000000E+00 0. -1.
         23    2    1    2    0    0 -0.51092268452E+03 -0.13826878451E+03  0.54023347234E+03  0.76132305082E+03  0.87179910187E+02 0.  0.
        254    2    1    2    0    0  0.51092268452E+03  0.13826878451E+03  0.40825414687E+03  0.11222087346E+04  0.90139932842E+03 0.  0.
        -24    2    4    4    0    0  0.80969358197E+02 -0.27776573412E+03  0.42368250045E+03  0.51945926282E+03  0.81370907145E+02 0.  0.
         24    2    4    4    0    0  0.42995332632E+03  0.41603451864E+03 -0.15428353578E+02  0.60274947178E+03  0.71584272933E+02 0.  0.
         11    1    3    3    0    0 -0.25072575389E+03 -0.98323723980E+02  0.31880397277E+03  0.41733311804E+03  0.00000000000E+00 0. -1.
        -11    1    3    3    0    0 -0.26019693063E+03 -0.39945060533E+02  0.22142949957E+03  0.34398993277E+03  0.00000000000E+00 0.  1.
          4    1    6    6  502    0  0.32084578019E+03  0.34859844450E+03 -0.19656703298E+01  0.47377922499E+03  0.00000000000E+00 0. -1.
          1    1    5    5  503    0  0.86858054628E+02 -0.16445593796E+03  0.24118062361E+03  0.30456226028E+03  0.00000000000E+00 0. -1.
         -2    1    5    5    0  503 -0.58886964312E+01 -0.11330979616E+03  0.18250187684E+03  0.21489700254E+03  0.00000000000E+00 0.  1.
         -3    1    6    6    0  502  0.10910754613E+03  0.67436074132E+02 -0.13462683248E+02  0.12897024679E+03  0.00000000000E+00 0.  1.
<mgrwt>
<rscale>  0 0.16272871E+04</rscale>
<asrwt>0</asrwt>
<pdfrwt beam="1">  1        2 0.71926475E-01 0.16272871E+04</pdfrwt>
<pdfrwt beam="2">  1       -2 0.21784764E+00 0.16272871E+04</pdfrwt>
<totfact> 0.64918385E+00</totfact>
</mgrwt>
</event>
<event>
12    1  0.1663913E-007  0.1039249E+04  0.7818608E-02  0.9266515E-01
          1   -1    0    0  501    0  0.00000000000E+00  0.00000000000E+00  0.17413150974E+03  0.17413150974E+03  0.00000000000E+00 0. -1.
         -1   -1    0    0    0  501 -0.00000000000E+00 -0.00000000000E+00 -0.15506074441E+04  0.15506074441E+04  0.00000000000E+00 0.  1.
         23    2    1    2    0    0 -0.25640824988E+02 -0.11822000315E+03 -0.22045554852E+03  0.26732480312E+03  0.90710971973E+02 0.  0.
        254    2    1    2    0    0  0.25640824988E+02  0.11822000315E+03 -0.11560203858E+04  0.14574141507E+04  0.87922662219E+03 0.  0.
        -24    2    4    4    0    0  0.16659231469E+03  0.44092514101E+03 -0.41195375867E+03  0.63040829899E+03  0.74436179776E+02 0.  0.
         24    2    4    4    0    0 -0.14095148971E+03 -0.32270513786E+03 -0.74406662715E+03  0.82700585171E+03  0.79357448752E+02 0.  0.
         11    1    3    3    0    0 -0.49934886575E+02 -0.11609711149E+03 -0.17689485637E+03  0.21740244342E+03  0.00000000000E+00 0. -1.
        -11    1    3    3    0    0  0.24294061587E+02 -0.21228916649E+01 -0.43560692147E+02  0.49922359697E+02  0.00000000000E+00 0.  1.
          2    1    6    6  502    0 -0.29405614753E+02 -0.15047107170E+02 -0.54584112204E+02  0.63800712522E+02  0.00000000000E+00 0. -1.
          1    1    5    5  503    0  0.63867700424E+01 -0.83465114157E+00 -0.10707934039E+02  0.12495892344E+02  0.00000000000E+00 0. -1.
         -2    1    5    5    0  503  0.16020554465E+03  0.44175979215E+03 -0.40124582464E+03  0.61791240665E+03  0.00000000000E+00 0.  1.
         -1    1    6    6    0  502 -0.11154587495E+03 -0.30765803069E+03 -0.68948251494E+03  0.76320513918E+03  0.00000000000E+00 0.  1.
<mgrwt>
<rscale>  0 0.10392490E+04</rscale>
<asrwt>0</asrwt>
<pdfrwt beam="1">  1        1 0.26789463E-01 0.10392490E+04</pdfrwt>
<pdfrwt beam="2">  1       -1 0.23855500E+00 0.10392490E+04</pdfrwt>
<totfact> 0.14845233E+01</totfact>
</mgrwt>
</event>
<event>
12    1  0.1663913E-007  0.2458159E+04  0.7818608E-02  0.8418045E-01
          1   -1    0    0  501    0  0.00000000000E+00  0.00000000000E+00  0.24968538129E+04  0.24968538129E+04  0.00000000000E+00 0. -1.
         -1   -1    0    0    0  501 -0.00000000000E+00 -0.00000000000E+00 -0.60501591938E+03  0.60501591938E+03  0.00000000000E+00 0.  1.
         23    2    1    2    0    0  0.15390579306E+03 -0.75507019523E+03 -0.96027648907E+02  0.78195303758E+03  0.91712871360E+02 0.  0.
        254    2    1    2    0    0 -0.15390579306E+03  0.75507019523E+03  0.19878655424E+04  0.23199166947E+04  0.91465078731E+03 0.  0.
        -24    2    4    4    0    0 -0.12129028316E+03  0.46926910169E+03  0.19595923656E+04  0.20203299470E+04  0.82498684577E+02 0.  0.
         24    2    4    4    0    0 -0.32615509896E+02  0.28580109353E+03  0.28273176826E+02  0.29958674767E+03  0.78783312319E+02 0.  0.
         13    1    3    3    0    0 -0.11293165134E+00 -0.21629698992E+02 -0.18597962363E+02  0.28526143029E+02  0.00000000000E+00 0. -1.
        -13    1    3    3    0    0  0.15401872471E+03 -0.73344049624E+03 -0.77429686544E+02  0.75342689455E+03  0.00000000000E+00 0.  1.
          4    1    6    6  502    0 -0.12667690821E+02  0.24761367920E+03  0.47434683712E+02  0.25243425626E+03  0.00000000000E+00 0. -1.
          3    1    5    5  503    0 -0.10526797612E+03  0.43364911578E+03  0.18715220156E+04  0.19239874109E+04  0.00000000000E+00 0. -1.
         -4    1    5    5    0  503 -0.16022307046E+02  0.35619985913E+02  0.88070349992E+02  0.96342536126E+02  0.00000000000E+00 0.  1.
         -3    1    6    6    0  502 -0.19947819075E+02  0.38187414336E+02 -0.19161506886E+02  0.47152491405E+02  0.00000000000E+00 0.  1.
<mgrwt>
<rscale>  0 0.24581589E+04</rscale>
<asrwt>0</asrwt>
<pdfrwt beam="1">  1        1 0.38413135E+00 0.24581589E+04</pdfrwt>
<pdfrwt beam="2">  1       -1 0.93079374E-01 0.24581589E+04</pdfrwt>
<totfact> 0.13604360E+00</totfact>
</mgrwt>
</event>
<event>
12    1  0.1663913E-007  0.2297264E+04  0.7818608E-02  0.8479001E-01
          1   -1    0    0  501    0  0.00000000000E+00  0.00000000000E+00  0.17994761431E+04  0.17994761431E+04  0.00000000000E+00 0. -1.
         -1   -1    0    0    0  501 -0.00000000000E+00 -0.00000000000E+00 -0.73318834430E+03  0.73318834430E+03  0.00000000000E+00 0.  1.
         23    2    1    2    0    0  0.35938600328E+03 -0.21929586853E+03  0.14192476907E+04  0.14830855336E+04  0.89608677747E+02 0.  0.
        254    2    1    2    0    0 -0.35938600328E+03  0.21929586853E+03 -0.35295989190E+03  0.10495789538E+04  0.89430773096E+03 0.  0.
        -24    2    4    4    0    0  0.13798482694E+03  0.29273362663E+03 -0.41898095795E+03  0.53620510869E+03  0.85076946521E+02 0.  0.
         24    2    4    4    0    0 -0.49737083022E+03 -0.73437758099E+02  0.66021066056E+02  0.51337384511E+03  0.80144099028E+02 0.  0.
         11    1    3    3    0    0  0.26074488626E+03 -0.11143852409E+03  0.89518781698E+03  0.93902484953E+03  0.00000000000E+00 0. -1.
        -11    1    3    3    0    0  0.98641117027E+02 -0.10785734444E+03  0.52405987375E+03  0.54406068411E+03  0.00000000000E+00 0.  1.
          4    1    6    6  502    0 -0.62736927630E+02 -0.91784255263E+01  0.36184750177E+02  0.73003436418E+02  0.00000000000E+00 0. -1.
          3    1    5    5  503    0  0.11305331184E+02 -0.21913756105E+01 -0.28452269373E+02  0.30694368746E+02  0.00000000000E+00 0. -1.
         -4    1    5    5    0  503  0.12667949576E+03  0.29492500224E+03 -0.39052868858E+03  0.50551073994E+03  0.00000000000E+00 0.  1.
         -3    1    6    6    0  502 -0.43463390259E+03 -0.64259332573E+02  0.29836315879E+02  0.44037040869E+03  0.00000000000E+00 0.  1.
<mgrwt>
<rscale>  0 0.22972635E+04</rscale>
<asrwt>0</asrwt>
<pdfrwt beam="1">  1        1 0.27684248E+00 0.22972635E+04</pdfrwt>
<pdfrwt beam="2">  1       -1 0.11279821E+00 0.22972635E+04</pdfrwt>
<totfact> 0.26499123E+00</totfact>
</mgrwt>
</event>
<event>
12    1  0.1663913E-007  0.1599294E+04  0.7818608E-02  0.8820982E-01
          1   -1    0    0  501    0  0.00000000000E+00  0.00000000000E+00  0.82395222610E+03  0.82395222610E+03  0.00000000000E+00 0. -1.
         -1   -1    0    0    0  501 -0.00000000000E+00 -0.00000000000E+00 -0.77605856764E+03  0.77605856764E+03  0.00000000000E+00 0.  1.
         23    2    1    2    0    0  0.44245789557E+03  0.12335008397E+03  0.25854579243E+03  0.53533858532E+03  0.93580134546E+02 0.  0.
        254    2    1    2    0    0 -0.44245789557E+03 -0.12335008397E+03 -0.21065213397E+03  0.10646722084E+04  0.93710637457E+03 0.  0.
        -24    2    4    4    0    0 -0.40035797317E+03  0.21521478021E+03  0.21951173762E+03  0.50986452282E+03  0.71920236229E+02 0.  0.
         24    2    4    4    0    0 -0.42099922408E+02 -0.33856486418E+03 -0.43016387158E+03  0.55480768560E+03  0.79825064090E+02 0.  0.
         11    1    3    3    0    0  0.39348001406E+02 -0.10154340646E+02  0.42851222803E+02  0.59055932338E+02  0.00000000000E+00 0.  1.
        -11    1    3    3    0    0  0.40310989417E+03  0.13350442462E+03  0.21569456962E+03  0.47628265298E+03  0.00000000000E+00 0. -1.
          4    1    6    6  502    0  0.22974997936E+02 -0.11810492432E+03 -0.13889170390E+03  0.18375943266E+03  0.00000000000E+00 0. -1.
          1    1    5    5  503    0 -0.26348061241E+02 -0.25953328000E+01  0.55301113168E+01  0.27046963132E+02  0.00000000000E+00 0. -1.
         -2    1    5    5    0  503 -0.37400991192E+03  0.21781011301E+03  0.21398162630E+03  0.48281755969E+03  0.00000000000E+00 0.  1.
         -3    1    6    6    0  502 -0.65074920344E+02 -0.22045993986E+03 -0.29127216768E+03  0.37104825293E+03  0.00000000000E+00 0.  1.
<mgrwt>
<rscale>  0 0.15992938E+04</rscale>
<asrwt>0</asrwt>
<pdfrwt beam="1">  1        1 0.12676188E+00 0.15992938E+04</pdfrwt>
<pdfrwt beam="2">  1       -1 0.11939362E+00 0.15992938E+04</pdfrwt>
<totfact> 0.12681490E+01</totfact>
</mgrwt>
</event>
<event>
12    1  0.1663913E-007  0.1286068E+04  0.7818608E-02  0.9040687E-01
          2   -1    0    0  501    0  0.00000000000E+00  0.00000000000E+00  0.91486948334E+03  0.91486948334E+03  0.00000000000E+00 0. -1.
         -2   -1    0    0    0  501 -0.00000000000E+00 -0.00000000000E+00 -0.45196879048E+03  0.45196879048E+03  0.00000000000E+00 0.  1.
         23    2    1    2    0    0 -0.11753777474E+03  0.62312134504E+02  0.44481242266E+03  0.47338250917E+03  0.92384944848E+02 0.  0.
        254    2    1    2    0    0  0.11753777474E+03 -0.62312134504E+02  0.18088270197E+02  0.89345576465E+03  0.88331086672E+03 0.  0.
        -24    2    4    4    0    0  0.31941517976E+03  0.14029001607E+03 -0.29330030809E+03  0.46276745355E+03  0.80133012352E+02 0.  0.
         24    2    4    4    0    0 -0.20187740502E+03 -0.20260215057E+03  0.31138857829E+03  0.43068831110E+03  0.82021073809E+02 0.  0.
         11    1    3    3    0    0 -0.10003558202E+03  0.47335783979E+02  0.43408766535E+03  0.44797309665E+03  0.00000000000E+00 0. -1.
        -11    1    3    3    0    0 -0.17502192720E+02  0.14976350525E+02  0.10724757314E+02  0.25409412517E+02  0.00000000000E+00 0.  1.
          4    1    6    6  502    0 -0.15675197285E+03 -0.19705125719E+03  0.25683780720E+03  0.35967490622E+03  0.00000000000E+00 0. -1.
          3    1    5    5  503    0  0.25070877522E+03  0.77741287109E+02 -0.19133953848E+03  0.32482213083E+03  0.00000000000E+00 0. -1.
         -4    1    5    5    0  503  0.68706404541E+02  0.62548728958E+02 -0.10196076962E+03  0.13794532272E+03  0.00000000000E+00 0.  1.
         -3    1    6    6    0  502 -0.45125432173E+02 -0.55508933798E+01  0.54550771089E+02  0.71013404879E+02  0.00000000000E+00 0.  1.
<mgrwt>
<rscale>  0 0.12860676E+04</rscale>
<asrwt>0</asrwt>
<pdfrwt beam="1">  1        2 0.14074915E+00 0.12860676E+04</pdfrwt>
<pdfrwt beam="2">  1       -2 0.69533660E-01 0.12860676E+04</pdfrwt>
<totfact> 0.53040858E+01</totfact>
</mgrwt>
</event>
<event>
12    1  0.1663913E-007  0.2376672E+04  0.7818608E-02  0.8448289E-01
          1   -1    0    0  501    0  0.00000000000E+00  0.00000000000E+00  0.50222518486E+03  0.50222518486E+03  0.00000000000E+00 0. -1.
         -1   -1    0    0    0  501 -0.00000000000E+00 -0.00000000000E+00 -0.28117705585E+04  0.28117705585E+04  0.00000000000E+00 0.  1.
         23    2    1    2    0    0 -0.37400923614E+03  0.93082998898E+03 -0.75685550220E+03  0.12598876829E+04  0.90329094279E+02 0.  0.
        254    2    1    2    0    0  0.37400923614E+03 -0.93082998898E+03 -0.15526898715E+04  0.20541080604E+04  0.89564876484E+03 0.  0.
        -24    2    4    4    0    0 -0.12284044780E+02  0.13631852511E+03 -0.42076928112E+03  0.44926839106E+03  0.77856671035E+02 0.  0.
         24    2    4    4    0    0  0.38629328092E+03 -0.10671485141E+04 -0.11319205903E+04  0.16048396694E+04  0.78979057896E+02 0.  0.
         11    1    3    3    0    0 -0.10281235900E+03  0.25965328793E+03 -0.16138450952E+03  0.32254483566E+03  0.00000000000E+00 0. -1.
        -11    1    3    3    0    0 -0.27119687714E+03  0.67117670105E+03 -0.59547099268E+03  0.93734284727E+03  0.00000000000E+00 0.  1.
          2    1    6    6  502    0  0.13822537238E+03 -0.28432359368E+03 -0.29757460293E+03  0.43416218606E+03  0.00000000000E+00 0. -1.
          1    1    5    5  503    0 -0.42584074231E+02  0.96197850023E+02 -0.24950733584E+03  0.27077913576E+03  0.00000000000E+00 0. -1.
         -2    1    5    5    0  503  0.30300029451E+02  0.40120675092E+02 -0.17126194528E+03  0.17848925530E+03  0.00000000000E+00 0.  1.
         -1    1    6    6    0  502  0.24806790854E+03 -0.78282492041E+03 -0.83434598740E+03  0.11706774833E+04  0.00000000000E+00 0.  1.
<mgrwt>
<rscale>  0 0.23766716E+04</rscale>
<asrwt>0</asrwt>
<pdfrwt beam="1">  1        1 0.77265413E-01 0.23766716E+04</pdfrwt>
<pdfrwt beam="2">  1       -1 0.43258008E+00 0.23766716E+04</pdfrwt>
<totfact> 0.16882933E-01</totfact>
</mgrwt>
</event>
<event>
12    1  0.1663913E-007  0.1704633E+04  0.7818608E-02  0.8758727E-01
         -1   -1    0    0    0  501 -0.00000000000E+00  0.00000000000E+00  0.22920814630E+04  0.22920814630E+04  0.00000000000E+00 0.  1.
          1   -1    0    0  501    0  0.00000000000E+00 -0.00000000000E+00 -0.31693597359E+03  0.31693597359E+03  0.00000000000E+00 0. -1.
         23    2    1    2    0    0  0.46358191140E+03  0.20325477555E+03  0.18639629395E+03  0.54638807367E+03  0.87038246169E+02 0.  0.
        254    2    1    2    0    0 -0.46358191140E+03 -0.20325477555E+03  0.17887491955E+04  0.20626293630E+04  0.89364171354E+03 0.  0.
        -24    2    4    4    0    0 -0.34668357701E+03  0.49241930278E+02  0.17307785767E+04  0.17676587954E+04  0.80055387030E+02 0.  0.
         24    2    4    4    0    0 -0.11689833439E+03 -0.25249670583E+03  0.57970618816E+02  0.29497056761E+03  0.78912838459E+02 0.  0.
         11    1    3    3    0    0  0.45032359900E+03  0.20591307429E+03  0.19285990467E+03  0.53140049003E+03  0.00000000000E+00 0. -1.
        -11    1    3    3    0    0  0.13258312398E+02 -0.26582987371E+01 -0.64636107215E+01  0.14987583640E+02  0.00000000000E+00 0.  1.
          4    1    6    6  502    0 -0.21393050139E+02 -0.88723265770E+02 -0.13701654869E+02  0.92288763288E+02  0.00000000000E+00 0. -1.
          3    1    5    5  503    0 -0.68029041013E+02 -0.21612863291E+02  0.31641110252E+03  0.32436253187E+03  0.00000000000E+00 0. -1.
         -4    1    5    5    0  503 -0.27865453599E+03  0.70854793570E+02  0.14143674742E+04  0.14432962635E+04  0.00000000000E+00 0.  1.
         -3    1    6    6    0  502 -0.95505284252E+02 -0.16377344006E+03  0.71672273684E+02  0.20268180432E+03  0.00000000000E+00 0.  1.
<mgrwt>
<rscale>  0 0.17046326E+04</rscale>
<asrwt>0</asrwt>
<pdfrwt beam="1">  1        1 0.48759382E-01 0.17046326E+04</pdfrwt>
<pdfrwt beam="2">  1       -1 0.35262791E+00 0.17046326E+04</pdfrwt>
<totfact> 0.11622411E+00</totfact>
</mgrwt>
</event>
<event>
12    1  0.1663913E-007  0.1160832E+04  0.7818608E-02  0.9147848E-01
         -2   -1    0    0    0  501 -0.00000000000E+00  0.00000000000E+00  0.74943168649E+03  0.74943168649E+03  0.00000000000E+00 0.  1.
          2   -1    0    0  501    0  0.00000000000E+00 -0.00000000000E+00 -0.44951761413E+03  0.44951761413E+03  0.00000000000E+00 0. -1.
         23    2    1    2    0    0  0.12711305412E+02 -0.54180407158E+02 -0.15216521473E+03  0.18678493144E+03  0.92936883078E+02 0.  0.
        254    2    1    2    0    0 -0.12711305412E+02  0.54180407158E+02  0.45207928709E+03  0.10121643692E+04  0.90388269959E+03 0.  0.
        -24    2    4    4    0    0  0.14091548479E+03  0.18866905258E+03 -0.20329660060E+03  0.32118995879E+03  0.79876758555E+02 0.  0.
         24    2    4    4    0    0 -0.15362679020E+03 -0.13448864542E+03  0.65537588769E+03  0.69097441039E+03  0.78991741534E+02 0.  0.
         11    1    3    3    0    0 -0.20668321649E+02 -0.31809014192E+02 -0.13963135005E+03  0.14469245599E+03  0.00000000000E+00 0. -1.
        -11    1    3    3    0    0  0.33379627061E+02 -0.22371392966E+02 -0.12533864676E+02  0.42092475452E+02  0.00000000000E+00 0.  1.
          4    1    6    6  502    0 -0.76678282998E+02 -0.26868133596E+02  0.17915840035E+03  0.19672109217E+03  0.00000000000E+00 0. -1.
          1    1    5    5  503    0  0.58005264560E+00 -0.71746178860E+01 -0.27229940861E+01  0.76958625036E+01  0.00000000000E+00 0. -1.
         -2    1    5    5    0  503  0.14033543214E+03  0.19584367047E+03 -0.20057360651E+03  0.31349409629E+03  0.00000000000E+00 0.  1.
         -3    1    6    6    0  502 -0.76948507203E+02 -0.10762051183E+03  0.47621748734E+03  0.49425331822E+03  0.00000000000E+00 0.  1.
<mgrwt>
<rscale>  0 0.11608320E+04</rscale>
<asrwt>0</asrwt>
<pdfrwt beam="1">  1        2 0.69156556E-01 0.11608320E+04</pdfrwt>
<pdfrwt beam="2">  1       -2 0.11529718E+00 0.11608320E+04</pdfrwt>
<totfact> 0.40352206E+01</totfact>
</mgrwt>
</event>
<event>
12    1  0.1663913E-007  0.2246171E+04  0.7818608E-02  0.8499453E-01
          2   -1    0    0  501    0  0.00000000000E+00  0.00000000000E+00  0.26002404394E+04  0.26002404394E+04  0.00000000000E+00 0. -1.
         -2   -1    0    0    0  501 -0.00000000000E+00 -0.00000000000E+00 -0.48507870440E+03  0.48507870440E+03  0.00000000000E+00 0.  1.
         23    2    1    2    0    0 -0.21266060271E+02  0.38485342989E+02 -0.39848174528E+03  0.41052350760E+03  0.88365615631E+02 0.  0.
        254    2    1    2    0    0  0.21266060271E+02 -0.38485342989E+02  0.25136434803E+04  0.26747956362E+04  0.91334264244E+03 0.  0.
        -24    2    4    4    0    0 -0.29577742882E+03  0.27920615752E+03  0.16151089860E+04  0.16674318766E+04  0.79445961659E+02 0.  0.
         24    2    4    4    0    0  0.31704348909E+03 -0.31769150051E+03  0.89853449428E+03  0.10073637595E+04  0.77285465367E+02 0.  0.
         13    1    3    3    0    0  0.14026555640E+02  0.48837177160E+02 -0.13072918941E+03  0.14025667577E+03  0.00000000000E+00 0. -1.
        -13    1    3    3    0    0 -0.35292615911E+02 -0.10351834171E+02 -0.26775255587E+03  0.27026683182E+03  0.00000000000E+00 0.  1.
          2    1    6    6  502    0  0.10963808521E+02 -0.11437871123E+02  0.78032996586E+02  0.79625238143E+02  0.00000000000E+00 0. -1.
          1    1    5    5  503    0 -0.20829589779E+03  0.18873121702E+03  0.95819586754E+03  0.99857196730E+03  0.00000000000E+00 0. -1.
         -2    1    5    5    0  503 -0.87481531028E+02  0.90474940496E+02  0.65691311844E+03  0.66885990933E+03  0.00000000000E+00 0.  1.
         -1    1    6    6    0  502  0.30607968057E+03 -0.30625362938E+03  0.82050149769E+03  0.92773852139E+03  0.00000000000E+00 0.  1.
<mgrwt>
<rscale>  0 0.22461712E+04</rscale>
<asrwt>0</asrwt>
<pdfrwt beam="1">  1        2 0.40003698E+00 0.22461712E+04</pdfrwt>
<pdfrwt beam="2">  1       -2 0.74627495E-01 0.22461712E+04</pdfrwt>
<totfact> 0.44733882E+00</totfact>
</mgrwt>
</event>
<event>
12    1  0.1663913E-007  0.3773831E+04  0.7818608E-02  0.8051794E-01
          2   -1    0    0  501    0  0.00000000000E+00  0.00000000000E+00  0.29421849106E+04  0.29421849106E+04  0.00000000000E+00 0. -1.
         -2   -1    0    0    0  501 -0.00000000000E+00 -0.00000000000E+00 -0.12101383903E+04  0.12101383903E+04  0.00000000000E+00 0.  1.
         23    2    1    2    0    0  0.23708023761E+03 -0.16824021227E+04  0.13925526440E+04  0.21987947246E+04  0.93869233540E+02 0.  0.
        254    2    1    2    0    0 -0.23708023761E+03  0.16824021227E+04  0.33949387636E+03  0.19535285763E+04  0.90240449061E+03 0.  0.
        -24    2    4    4    0    0 -0.12393559545E+02  0.90135357043E+02  0.32163475765E+03  0.34338964018E+03  0.78673659813E+02 0.  0.
         24    2    4    4    0    0 -0.22468667806E+03  0.15922667657E+04  0.17859118714E+02  0.16101389361E+04  0.80192824152E+02 0.  0.
         13    1    3    3    0    0  0.19095099957E+03 -0.15039853134E+04  0.12672785115E+04  0.19759627863E+04  0.00000000000E+00 0. -1.
        -13    1    3    3    0    0  0.46129238037E+02 -0.17841680936E+03  0.12527413256E+03  0.22283193836E+03  0.00000000000E+00 0.  1.
          2    1    6    6  502    0 -0.98675228050E+02  0.44983735659E+03  0.15012068739E+02  0.46077739769E+03  0.00000000000E+00 0. -1.
          1    1    5    5  503    0  0.12849170717E+02  0.61311631193E+02  0.27952225706E+03  0.28645577233E+03  0.00000000000E+00 0. -1.
         -2    1    5    5    0  503 -0.25242730262E+02  0.28823725850E+02  0.42112500589E+02  0.56933867855E+02  0.00000000000E+00 0.  1.
         -3    1    6    6    0  502 -0.12601145001E+03  0.11424294091E+04  0.28470499753E+01  0.11493615384E+04  0.00000000000E+00 0.  1.
<mgrwt>
<rscale>  0 0.37738314E+04</rscale>
<asrwt>0</asrwt>
<pdfrwt beam="1">  1        2 0.45264383E+00 0.37738314E+04</pdfrwt>
<pdfrwt beam="2">  1       -2 0.18617514E+00 0.37738314E+04</pdfrwt>
<totfact> 0.24993795E-01</totfact>
</mgrwt>
</event>
<event>
12    1  0.1663913E-007  0.1564547E+04  0.7818608E-02  0.8842629E-01
         -2   -1    0    0    0  501 -0.00000000000E+00  0.00000000000E+00  0.80970872274E+03  0.80970872274E+03  0.00000000000E+00 0.  1.
          2   -1    0    0  501    0  0.00000000000E+00 -0.00000000000E+00 -0.75576812800E+03  0.75576812800E+03  0.00000000000E+00 0. -1.
         23    2    1    2    0    0 -0.32711237659E+03  0.26415786778E+03  0.33205873672E+03  0.54278535319E+03  0.87011774921E+02 0.  0.
        254    2    1    2    0    0  0.32711237659E+03 -0.26415786778E+03 -0.27811814198E+03  0.10226914976E+04  0.88981251522E+03 0.  0.
        -24    2    4    4    0    0  0.47564368984E+03  0.13624980596E+03 -0.30365127621E+03  0.58691257175E+03  0.86379048540E+02 0.  0.
         24    2    4    4    0    0 -0.14853131324E+03 -0.40040767374E+03  0.25533134226E+02  0.43577892580E+03  0.82846092393E+02 0.  0.
         13    1    3    3    0    0 -0.14711291287E+02  0.18823040772E+02  0.50600165450E+02  0.55956283818E+02  0.00000000000E+00 0. -1.
        -13    1    3    3    0    0 -0.31240108531E+03  0.24533482701E+03  0.28145857127E+03  0.48682906937E+03  0.00000000000E+00 0.  1.
          4    1    6    6  502    0 -0.12223502782E+02 -0.14504101929E+03  0.74026014812E+01  0.14574330106E+03  0.00000000000E+00 0. -1.
          1    1    5    5  503    0  0.44852074738E+03  0.14817487774E+03 -0.29009344188E+03  0.55432919844E+03  0.00000000000E+00 0. -1.
         -4    1    5    5    0  503  0.27122942453E+02 -0.11925071775E+02 -0.13557834328E+02  0.32583373303E+02  0.00000000000E+00 0.  1.
         -3    1    6    6    0  502 -0.13630781046E+03 -0.25536665446E+03  0.18130532744E+02  0.29003562474E+03  0.00000000000E+00 0.  1.
<mgrwt>
<rscale>  0 0.15645473E+04</rscale>
<asrwt>0</asrwt>
<pdfrwt beam="1">  1        2 0.11627202E+00 0.15645473E+04</pdfrwt>
<pdfrwt beam="2">  1       -2 0.12457057E+00 0.15645473E+04</pdfrwt>
<totfact> 0.17262963E+01</totfact>
</mgrwt>
</event>
<event>
12    1  0.1663913E-007  0.1373955E+04  0.7818608E-02  0.8972890E-01
         -1   -1    0    0    0  501 -0.00000000000E+00  0.00000000000E+00  0.97071281719E+03  0.97071281719E+03  0.00000000000E+00 0.  1.
          1   -1    0    0  501    0  0.00000000000E+00 -0.00000000000E+00 -0.48617698125E+03  0.48617698125E+03  0.00000000000E+00 0. -1.
         23    2    1    2    0    0  0.27903732500E+02  0.36381627769E+02 -0.25935473515E+03  0.29205845181E+03  0.12621814254E+03 0.  0.
        254    2    1    2    0    0 -0.27903732500E+02 -0.36381627769E+02  0.74389057108E+03  0.11648313466E+04  0.89518525637E+03 0.  0.
        -24    2    4    4    0    0 -0.35727195019E+03 -0.18625605340E+03  0.10147642573E+03  0.42312969503E+03  0.80041926630E+02 0.  0.
         24    2    4    4    0    0  0.32936821769E+03  0.14987442563E+03  0.64241414535E+03  0.74170165160E+03  0.80496208304E+02 0.  0.
         11    1    3    3    0    0 -0.39194471877E+02  0.84318696799E+01 -0.18014594183E+03  0.18455314522E+03  0.00000000000E+00 0. -1.
        -11    1    3    3    0    0  0.67098204377E+02  0.27949758089E+02 -0.79208793314E+02  0.10750530660E+03  0.00000000000E+00 0.  1.
          4    1    6    6  502    0  0.29663872764E+03  0.11908172829E+03  0.51023048541E+03  0.60208815051E+03  0.00000000000E+00 0. -1.
          3    1    5    5  503    0 -0.32359609904E+03 -0.16109494686E+03  0.64588768402E+02  0.36720256838E+03  0.00000000000E+00 0. -1.
         -4    1    5    5    0  503 -0.33675851143E+02 -0.25161106543E+02  0.36887657323E+02  0.55927126652E+02  0.00000000000E+00 0.  1.
         -3    1    6    6    0  502  0.32729490044E+02  0.30792697345E+02  0.13218365994E+03  0.13961350108E+03  0.00000000000E+00 0.  1.
<mgrwt>
<rscale>  0 0.13739552E+04</rscale>
<asrwt>0</asrwt>
<pdfrwt beam="1">  1        1 0.74796459E-01 0.13739552E+04</pdfrwt>
<pdfrwt beam="2">  1       -1 0.14934043E+00 0.13739552E+04</pdfrwt>
<totfact> 0.15893853E+01</totfact>
</mgrwt>
</event>
<event>
12    1  0.1663913E-007  0.2474114E+04  0.7818608E-02  0.8412266E-01
         -2   -1    0    0    0  501 -0.00000000000E+00  0.00000000000E+00  0.11552704802E+04  0.11552704802E+04  0.00000000000E+00 0.  1.
          2   -1    0    0  501    0  0.00000000000E+00 -0.00000000000E+00 -0.13246334258E+04  0.13246334258E+04  0.00000000000E+00 0. -1.
         23    2    1    2    0    0  0.59914762153E+03 -0.66219573451E+03  0.51694126462E+03  0.10358421387E+04  0.90882352930E+02 0.  0.
        254    2    1    2    0    0 -0.59914762153E+03  0.66219573451E+03 -0.68630421023E+03  0.14440617673E+04  0.90378086711E+03 0.  0.
        -24    2    4    4    0    0 -0.40849391578E+03 -0.10000423912E+03 -0.53835927780E+02  0.43147976015E+03  0.80052165688E+02 0.  0.
         24    2    4    4    0    0 -0.19065370575E+03  0.76219997363E+03 -0.63246828245E+03  0.10125820072E+04  0.89490545190E+02 0.  0.
         11    1    3    3    0    0  0.57236170948E+03 -0.65238559135E+03  0.50943855864E+03  0.10063461290E+04  0.00000000000E+00 0.  1.
        -11    1    3    3    0    0  0.26785912046E+02 -0.98101431587E+01  0.75027059784E+01  0.29496009729E+02  0.00000000000E+00 0. -1.
          2    1    6    6  502    0 -0.37968467655E+02  0.26865561359E+03 -0.17790872003E+03  0.32445177748E+03  0.00000000000E+00 0. -1.
          1    1    5    5  503    0 -0.15151406319E+03 -0.20418020659E+01 -0.36808633530E+02  0.15593445996E+03  0.00000000000E+00 0. -1.
         -2    1    5    5    0  503 -0.25697985259E+03 -0.97962437054E+02 -0.17027294251E+02  0.27554530019E+03  0.00000000000E+00 0.  1.
         -1    1    6    6    0  502 -0.15268523810E+03  0.49354436004E+03 -0.45455956242E+03  0.68813022971E+03  0.00000000000E+00 0.  1.
<mgrwt>
<rscale>  0 0.24741139E+04</rscale>
<asrwt>0</asrwt>
<pdfrwt beam="1">  1        2 0.20378976E+00 0.24741139E+04</pdfrwt>
<pdfrwt beam="2">  1       -2 0.17773392E+00 0.24741139E+04</pdfrwt>
<totfact> 0.26879449E+00</totfact>
</mgrwt>
</event>
<event>
12    1  0.1663913E-007  0.2007896E+04  0.7818608E-02  0.8602938E-01
         -1   -1    0    0    0  501 -0.00000000000E+00  0.00000000000E+00  0.10611446952E+04  0.10611446952E+04  0.00000000000E+00 0.  1.
          1   -1    0    0  501    0  0.00000000000E+00 -0.00000000000E+00 -0.94983421071E+03  0.94983421071E+03  0.00000000000E+00 0. -1.
         23    2    1    2    0    0  0.57358257583E+03 -0.55426484347E+03 -0.83734026769E+02  0.80988624163E+03  0.11268473336E+03 0.  0.
        254    2    1    2    0    0 -0.57358257583E+03  0.55426484347E+03  0.19504451124E+03  0.12010926643E+04  0.87656987101E+03 0.  0.
        -24    2    4    4    0    0  0.70021989077E+02  0.17669541979E+03 -0.25331602765E+03  0.32686842808E+03  0.80929655128E+02 0.  0.
         24    2    4    4    0    0 -0.64360456491E+03  0.37756942368E+03  0.44836053890E+03  0.87422423618E+03  0.80345109482E+02 0.  0.
         11    1    3    3    0    0  0.48232502491E+03 -0.44628145785E+03 -0.10949449471E+03  0.66617836475E+03  0.00000000000E+00 0. -1.
        -11    1    3    3    0    0  0.91257550915E+02 -0.10798338562E+03  0.25760467945E+02  0.14370787688E+03  0.00000000000E+00 0.  1.
          2    1    6    6  502    0 -0.18730059530E+03  0.13826412604E+03  0.17271728530E+03  0.28987884054E+03  0.00000000000E+00 0. -1.
          3    1    5    5  503    0  0.31595720618E+02  0.10674954457E+03 -0.20581731884E+03  0.23399684519E+03  0.00000000000E+00 0. -1.
         -4    1    5    5    0  503  0.38426268459E+02  0.69945875227E+02 -0.47498708817E+02  0.92871582889E+02  0.00000000000E+00 0.  1.
         -1    1    6    6    0  502 -0.45630396960E+03  0.23930529764E+03  0.27564325360E+03  0.58434539564E+03  0.00000000000E+00 0.  1.
<mgrwt>
<rscale>  0 0.20078959E+04</rscale>
<asrwt>0</asrwt>
<pdfrwt beam="1">  1        1 0.14612834E+00 0.20078959E+04</pdfrwt>
<pdfrwt beam="2">  1       -1 0.16325303E+00 0.20078959E+04</pdfrwt>
<totfact> 0.42450079E+00</totfact>
</mgrwt>
</event>
<event>
12    1  0.1663913E-007  0.1820215E+04  0.7818608E-02  0.8695623E-01
          2   -1    0    0  501    0  0.00000000000E+00  0.00000000000E+00  0.25825718442E+04  0.25825718442E+04  0.00000000000E+00 0.  1.
         -2   -1    0    0    0  501 -0.00000000000E+00 -0.00000000000E+00 -0.32072514870E+03  0.32072514870E+03  0.00000000000E+00 0. -1.
         23    2    1    2    0    0  0.61531119781E+03 -0.28392054384E+03  0.76683835164E+03  0.10274388608E+04  0.91492129790E+02 0.  0.
        254    2    1    2    0    0 -0.61531119781E+03  0.28392054384E+03  0.14950083438E+04  0.18758581320E+04  0.90806114227E+03 0.  0.
        -24    2    4    4    0    0  0.10506929420E+03  0.22384876941E+03  0.89940499717E+03  0.93595704912E+03  0.77061149175E+02 0.  0.
         24    2    4    4    0    0 -0.72038049200E+03  0.60071774424E+02  0.59560334665E+03  0.93990108293E+03  0.78192248955E+02 0.  0.
         13    1    3    3    0    0  0.53173190419E+03 -0.23892862971E+03  0.60735981190E+03  0.84185013460E+03  0.00000000000E+00 0.  1.
        -13    1    3    3    0    0  0.83579293618E+02 -0.44991914128E+02  0.15947853975E+03  0.18558872621E+03  0.00000000000E+00 0. -1.
          4    1    6    6  502    0 -0.69335636651E+02 -0.14940714851E+02  0.45443752107E+02  0.84236512723E+02  0.00000000000E+00 0. -1.
          1    1    5    5  503    0  0.44259411280E+02  0.15664510741E+03  0.66521498600E+03  0.68484126830E+03  0.00000000000E+00 0. -1.
         -2    1    5    5    0  503  0.60809882916E+02  0.67203662005E+02  0.23419001117E+03  0.25111578082E+03  0.00000000000E+00 0.  1.
         -3    1    6    6    0  502 -0.65104485535E+03  0.75012489275E+02  0.55015959455E+03  0.85566457020E+03  0.00000000000E+00 0.  1.
<mgrwt>
<rscale>  0 0.18202151E+04</rscale>
<asrwt>0</asrwt>
<pdfrwt beam="1">  1        2 0.39731873E+00 0.18202151E+04</pdfrwt>
<pdfrwt beam="2">  1       -2 0.49342332E-01 0.18202151E+04</pdfrwt>
<totfact> 0.11434008E+01</totfact>
</mgrwt>
</event>
<event>
12    1  0.1663913E-007  0.3022855E+04  0.7818608E-02  0.8237235E-01
          2   -1    0    0  501    0  0.00000000000E+00  0.00000000000E+00  0.23676435960E+04  0.23676435960E+04  0.00000000000E+00 0. -1.
         -2   -1    0    0    0  501 -0.00000000000E+00 -0.00000000000E+00 -0.96484640885E+03  0.96484640885E+03  0.00000000000E+00 0.  1.
         23    2    1    2    0    0 -0.44003519704E+03  0.12099706756E+04  0.11811126703E+04  0.17495365943E+04  0.90504941473E+02 0.  0.
        254    2    1    2    0    0  0.44003519704E+03 -0.12099706756E+04  0.22168451685E+03  0.15829534105E+04  0.89383301823E+03 0.  0.
        -24    2    4    4    0    0 -0.20478856660E+03 -0.13072155542E+03  0.19755734790E+03  0.32291013827E+03  0.78838883974E+02 0.  0.
         24    2    4    4    0    0  0.64482376364E+03 -0.10792491202E+04  0.24127168950E+02  0.12600432723E+04  0.80935641993E+02 0.  0.
         13    1    3    3    0    0 -0.35718955378E+03  0.10292821205E+04  0.10359788659E+04  0.15034155352E+04  0.00000000000E+00 0. -1.
        -13    1    3    3    0    0 -0.82845643251E+02  0.18068855511E+03  0.14513380436E+03  0.24612105908E+03  0.00000000000E+00 0.  1.
          2    1    6    6  502    0  0.52254314350E+03 -0.92904337675E+03  0.28753968594E+02  0.10663018913E+04  0.00000000000E+00 0. -1.
          1    1    5    5  503    0 -0.13242201274E+03 -0.12574753334E+03  0.13456192379E+03  0.22683682006E+03  0.00000000000E+00 0. -1.
         -2    1    5    5    0  503 -0.72366553858E+02 -0.49740220738E+01  0.62995424107E+02  0.96073318207E+02  0.00000000000E+00 0.  1.
         -1    1    6    6    0  502  0.12228062014E+03 -0.15020574343E+03 -0.46267996439E+01  0.19374138096E+03  0.00000000000E+00 0.  1.
<mgrwt>
<rscale>  0 0.30228546E+04</rscale>
<asrwt>0</asrwt>
<pdfrwt beam="1">  1        2 0.36425286E+00 0.30228546E+04</pdfrwt>
<pdfrwt beam="2">  1       -2 0.14843791E+00 0.30228546E+04</pdfrwt>
<totfact> 0.10918058E+00</totfact>
</mgrwt>
</event>
<event>
12    1  0.1663913E-007  0.1482719E+04  0.7818608E-02  0.8896027E-01
          2   -1    0    0  501    0  0.00000000000E+00  0.00000000000E+00  0.55901727596E+03  0.55901727596E+03  0.00000000000E+00 0. -1.
         -2   -1    0    0    0  501 -0.00000000000E+00 -0.00000000000E+00 -0.98317814563E+03  0.98317814563E+03  0.00000000000E+00 0.  1.
         23    2    1    2    0    0  0.12611623989E+03  0.11798825192E+03  0.30981429356E+03  0.36772938672E+03  0.97023047797E+02 0.  0.
        254    2    1    2    0    0 -0.12611623989E+03 -0.11798825192E+03 -0.73397516323E+03  0.11744660349E+04  0.90045787979E+03 0.  0.
        -24    2    4    4    0    0  0.15020318987E+02 -0.15780677508E+03 -0.91239094352E+03  0.93014966111E+03  0.87135354532E+02 0.  0.
         24    2    4    4    0    0 -0.14113655888E+03  0.39818523162E+02  0.17841578029E+03  0.24431637376E+03  0.79707319554E+02 0.  0.
         11    1    3    3    0    0  0.68459419320E+02  0.88653228835E+01  0.71694516888E+02  0.99525824766E+02  0.00000000000E+00 0.  1.
        -11    1    3    3    0    0  0.57656820573E+02  0.10912292904E+03  0.23811977667E+03  0.26820356195E+03  0.00000000000E+00 0. -1.
          2    1    6    6  502    0 -0.13945350116E+03  0.14410438795E+02  0.16090080316E+03  0.21341042193E+03  0.00000000000E+00 0. -1.
          3    1    5    5  503    0  0.12093173878E+01 -0.16406674209E+03 -0.86393629031E+03  0.87937777549E+03  0.00000000000E+00 0. -1.
         -4    1    5    5    0  503  0.13811001599E+02  0.62599670132E+01 -0.48454653206E+02  0.50771885621E+02  0.00000000000E+00 0.  1.
         -1    1    6    6    0  502 -0.16830577212E+01  0.25408084367E+02  0.17514977137E+02  0.30905951831E+02  0.00000000000E+00 0.  1.
<mgrwt>
<rscale>  0 0.14827185E+04</rscale>
<asrwt>0</asrwt>
<pdfrwt beam="1">  1        2 0.86002659E-01 0.14827185E+04</pdfrwt>
<pdfrwt beam="2">  1       -2 0.15125817E+00 0.14827185E+04</pdfrwt>
<totfact> 0.15295699E+01</totfact>
</mgrwt>
</event>
<event>
12    1  0.1663913E-007  0.1147277E+04  0.7818608E-02  0.9160300E-01
          1   -1    0    0  501    0  0.00000000000E+00  0.00000000000E+00  0.34739488176E+04  0.34739488176E+04  0.00000000000E+00 0. -1.
         -1   -1    0    0    0  501 -0.00000000000E+00 -0.00000000000E+00 -0.94722461751E+02  0.94722461751E+02  0.00000000000E+00 0.  1.
         23    2    1    2    0    0  0.56013895222E+02  0.10956793375E+03  0.15524093642E+03  0.21801475516E+03  0.91038434531E+02 0.  0.
        254    2    1    2    0    0 -0.56013895222E+02 -0.10956793375E+03  0.32239854195E+04  0.33506565242E+04  0.90425354291E+03 0.  0.
        -24    2    4    4    0    0 -0.27731403554E+03  0.29525704641E+03  0.10816565058E+04  0.11576917252E+04  0.78673606524E+02 0.  0.
         24    2    4    4    0    0  0.22130014032E+03 -0.40482498016E+03  0.21423289137E+04  0.21929647990E+04  0.81635890641E+02 0.  0.
         13    1    3    3    0    0  0.36100517242E+02  0.38968553824E+02  0.13000864681E+03  0.14044231477E+03  0.00000000000E+00 0. -1.
        -13    1    3    3    0    0  0.19913377980E+02  0.70599379927E+02  0.25232289605E+02  0.77572440386E+02  0.00000000000E+00 0.  1.
          2    1    6    6  502    0  0.14809079089E+03 -0.21387282221E+03  0.10573575914E+04  0.10888882140E+04  0.00000000000E+00 0. -1.
          1    1    5    5  503    0 -0.25362322673E+03  0.29336195991E+03  0.99705211134E+03  0.10698125506E+04  0.00000000000E+00 0. -1.
         -4    1    5    5    0  503 -0.23690808814E+02  0.18950865064E+01  0.84604394424E+02  0.87879174615E+02  0.00000000000E+00 0.  1.
         -1    1    6    6    0  502  0.73209349427E+02 -0.19095215796E+03  0.10849713223E+04  0.11040765850E+04  0.00000000000E+00 0.  1.
<mgrwt>
<rscale>  0 0.11472767E+04</rscale>
<asrwt>0</asrwt>
<pdfrwt beam="1">  1        1 0.53445357E+00 0.11472767E+04</pdfrwt>
<pdfrwt beam="2">  1       -1 0.14572689E-01 0.11472767E+04</pdfrwt>
<totfact> 0.92007567E+00</totfact>
</mgrwt>
</event>
<event>
12    1  0.1663913E-007  0.1366096E+04  0.7818608E-02  0.8978732E-01
          1   -1    0    0  501    0  0.00000000000E+00  0.00000000000E+00  0.46624868657E+03  0.46624868657E+03  0.00000000000E+00 0. -1.
         -1   -1    0    0    0  501 -0.00000000000E+00 -0.00000000000E+00 -0.10006557059E+04  0.10006557059E+04  0.00000000000E+00 0.  1.
         23    2    1    2    0    0 -0.26322805554E+03 -0.83055142042E+02 -0.44252886849E+03  0.52985953854E+03  0.93446055532E+02 0.  0.
        254    2    1    2    0    0  0.26322805554E+03  0.83055142042E+02 -0.91878150812E+02  0.93704485390E+03  0.89074367681E+03 0.  0.
        -24    2    4    4    0    0  0.24572274871E+03  0.46780226991E+03 -0.98527704694E+02  0.54426943428E+03  0.85456863616E+02 0.  0.
         24    2    4    4    0    0  0.17505306836E+02 -0.38474712786E+03  0.66495538817E+01  0.39277541962E+03  0.76756273486E+02 0.  0.
         13    1    3    3    0    0 -0.39431642997E+02  0.11777057091E+02 -0.29551346114E+02  0.50663947737E+02  0.00000000000E+00 0. -1.
        -13    1    3    3    0    0 -0.22379641254E+03 -0.94832199134E+02 -0.41297752238E+03  0.47919559081E+03  0.00000000000E+00 0.  1.
          2    1    6    6  502    0 -0.28314638186E+01 -0.35002232998E+03  0.19374967507E+02  0.35056959086E+03  0.00000000000E+00 0. -1.
          1    1    5    5  503    0  0.22844399918E+03  0.45299898918E+03 -0.10947829703E+03  0.51901853770E+03  0.00000000000E+00 0. -1.
         -2    1    5    5    0  503  0.17278749527E+02  0.14803280730E+02  0.10950592337E+02  0.25250896581E+02  0.00000000000E+00 0.  1.
         -1    1    6    6    0  502  0.20336770654E+02 -0.34724797889E+02 -0.12725413626E+02  0.42205828756E+02  0.00000000000E+00 0.  1.
<mgrwt>
<rscale>  0 0.13660958E+04</rscale>
<asrwt>0</asrwt>
<pdfrwt beam="1">  1        1 0.71730567E-01 0.13660958E+04</pdfrwt>
<pdfrwt beam="2">  1       -1 0.15394703E+00 0.13660958E+04</pdfrwt>
<totfact> 0.15509022E+01</totfact>
</mgrwt>
</event>
<event>
12    1  0.1663913E-007  0.1428146E+04  0.7818608E-02  0.8933693E-01
          2   -1    0    0  501    0  0.00000000000E+00  0.00000000000E+00  0.73276600452E+03  0.73276600452E+03  0.00000000000E+00 0. -1.
         -2   -1    0    0    0  501 -0.00000000000E+00 -0.00000000000E+00 -0.69585702047E+03  0.69585702047E+03  0.00000000000E+00 0.  1.
         23    2    1    2    0    0 -0.36631487587E+02 -0.28736022377E+03  0.32122120741E+03  0.44921320415E+03  0.12120921831E+03 0.  0.
        254    2    1    2    0    0  0.36631487587E+02  0.28736022377E+03 -0.28431222337E+03  0.97940982083E+03  0.89134302752E+03 0.  0.
        -24    2    4    4    0    0  0.18481914384E+03  0.20382098186E+03  0.27049755904E+03  0.39426713482E+03  0.81095841908E+02 0.  0.
         24    2    4    4    0    0 -0.14818765625E+03  0.83539241915E+02 -0.55480978241E+03  0.58514268602E+03  0.75097815764E+02 0.  0.
         13    1    3    3    0    0 -0.21239839599E+02 -0.29045250098E+03  0.32112355708E+03  0.43351369646E+03  0.00000000000E+00 0. -1.
        -13    1    3    3    0    0 -0.15391647989E+02  0.30922772011E+01  0.97650331420E-01  0.15699507689E+02  0.00000000000E+00 0.  1.
          2    1    6    6  502    0 -0.99205583130E+02  0.18915093368E+02 -0.24744512549E+03  0.26726133018E+03  0.00000000000E+00 0. -1.
          3    1    5    5  503    0  0.39080917096E+02  0.40263592401E+02  0.15748455957E+02  0.58279403044E+02  0.00000000000E+00 0. -1.
         -4    1    5    5    0  503  0.14573822674E+03  0.16355738946E+03  0.25474910309E+03  0.33598773178E+03  0.00000000000E+00 0.  1.
         -1    1    6    6    0  502 -0.48982073121E+02  0.64624148546E+02 -0.30736465692E+03  0.31788135583E+03  0.00000000000E+00 0.  1.
<mgrwt>
<rscale>  0 0.14281462E+04</rscale>
<asrwt>0</asrwt>
<pdfrwt beam="1">  1        2 0.11273323E+00 0.14281462E+04</pdfrwt>
<pdfrwt beam="2">  1       -2 0.10705493E+00 0.14281462E+04</pdfrwt>
<totfact> 0.26338410E+01</totfact>
</mgrwt>
</event>
<event>
12    1  0.1663913E-007  0.1665425E+04  0.7818608E-02  0.8781333E-01
         -1   -1    0    0    0  501 -0.00000000000E+00  0.00000000000E+00  0.82151387926E+03  0.82151387926E+03  0.00000000000E+00 0.  1.
          1   -1    0    0  501    0  0.00000000000E+00 -0.00000000000E+00 -0.84406391086E+03  0.84406391086E+03  0.00000000000E+00 0. -1.
         23    2    1    2    0    0  0.32468163286E+03  0.36637412714E+03 -0.37808802648E+03  0.62546660139E+03  0.92788738150E+02 0.  0.
        254    2    1    2    0    0 -0.32468163286E+03 -0.36637412714E+03  0.35553799489E+03  0.10401111887E+04  0.84603537476E+03 0.  0.
        -24    2    4    4    0    0 -0.47032036916E+03 -0.24516897801E+03  0.54186403064E+03  0.76218389133E+03  0.77450494415E+02 0.  0.
         24    2    4    4    0    0  0.14563873629E+03 -0.12120514914E+03 -0.18632603575E+03  0.27792729739E+03  0.81393251260E+02 0.  0.
         13    1    3    3    0    0  0.29319279354E+01 -0.98707151048E+00  0.42504631368E+01  0.52570855483E+01  0.00000000000E+00 0.  1.
        -13    1    3    3    0    0  0.32174970493E+03  0.36736119865E+03 -0.38233848962E+03  0.62020951584E+03  0.00000000000E+00 0. -1.
          4    1    6    6  502    0  0.14347463048E+03 -0.80174121792E+02 -0.15829054338E+03  0.22818579167E+03  0.00000000000E+00 0. -1.
          3    1    5    5  503    0 -0.34518797149E+03 -0.14350102576E+03  0.39907413824E+03  0.54681573484E+03  0.00000000000E+00 0. -1.
         -4    1    5    5    0  503 -0.12513239766E+03 -0.10166795225E+03  0.14278989240E+03  0.21536815649E+03  0.00000000000E+00 0.  1.
         -3    1    6    6    0  502  0.21641058097E+01 -0.41031027344E+02 -0.28035492377E+02  0.49741505724E+02  0.00000000000E+00 0.  1.
<mgrwt>
<rscale>  0 0.16654251E+04</rscale>
<asrwt>0</asrwt>
<pdfrwt beam="1">  1        1 0.12985599E+00 0.16654251E+04</pdfrwt>
<pdfrwt beam="2">  1       -1 0.12638675E+00 0.16654251E+04</pdfrwt>
<totfact> 0.10529268E+01</totfact>
</mgrwt>
</event>
<event>
12    1  0.1663913E-007  0.1527777E+04  0.7818608E-02  0.8866189E-01
         -2   -1    0    0    0  501 -0.00000000000E+00  0.00000000000E+00  0.26261895775E+03  0.26261895775E+03  0.00000000000E+00 0.  1.
          2   -1    0    0  501    0  0.00000000000E+00 -0.00000000000E+00 -0.22219490765E+04  0.22219490765E+04  0.00000000000E+00 0. -1.
         23    2    1    2    0    0  0.47094715137E+02 -0.65148033674E+02 -0.14288961877E+04  0.14344215472E+04  0.96740278047E+02 0.  0.
        254    2    1    2    0    0 -0.47094715137E+02  0.65148033674E+02 -0.53043393107E+03  0.10501464871E+04  0.90276536850E+03 0.  0.
        -24    2    4    4    0    0  0.30762409006E+03 -0.21369250980E+03 -0.44059440106E+03  0.58310069842E+03  0.74739070980E+02 0.  0.
         24    2    4    4    0    0 -0.35471880520E+03  0.27884054347E+03 -0.89839530010E+02  0.46704578863E+03  0.80517998512E+02 0.  0.
         13    1    3    3    0    0  0.22429142725E+02  0.20736701394E+02 -0.20446471101E+03  0.20673387549E+03  0.00000000000E+00 0.  1.
        -13    1    3    3    0    0  0.24665572412E+02 -0.85884735068E+02 -0.12244314767E+04  0.12276876717E+04  0.00000000000E+00 0. -1.
          2    1    6    6  502    0 -0.28911245300E+02  0.27910380405E+02 -0.32798475728E+02  0.51870892119E+02  0.00000000000E+00 0. -1.
          3    1    5    5  503    0  0.40744236376E+02 -0.50939628416E+02 -0.46605291107E+02  0.80168520631E+02  0.00000000000E+00 0. -1.
         -4    1    5    5    0  503  0.26687985368E+03 -0.16275288138E+03 -0.39398910995E+03  0.50293217779E+03  0.00000000000E+00 0.  1.
         -1    1    6    6    0  502 -0.32580755990E+03  0.25093016307E+03 -0.57041054282E+02  0.41517489651E+03  0.00000000000E+00 0.  1.
<mgrwt>
<rscale>  0 0.15277774E+04</rscale>
<asrwt>0</asrwt>
<pdfrwt beam="1">  1        2 0.34183832E+00 0.15277774E+04</pdfrwt>
<pdfrwt beam="2">  1       -2 0.40402916E-01 0.15277774E+04</pdfrwt>
<totfact> 0.28092195E+01</totfact>
</mgrwt>
</event>
<event>
12    1  0.1663913E-007  0.1574034E+04  0.7818608E-02  0.8836660E-01
         -1   -1    0    0    0  501 -0.00000000000E+00  0.00000000000E+00  0.15204893928E+04  0.15204893928E+04  0.00000000000E+00 0.  1.
          1   -1    0    0  501    0  0.00000000000E+00 -0.00000000000E+00 -0.40736629245E+03  0.40736629245E+03  0.00000000000E+00 0. -1.
         23    2    1    2    0    0  0.13926249913E+03  0.21807515656E+03  0.93791119807E+03  0.97711526298E+03  0.90144351572E+02 0.  0.
        254    2    1    2    0    0 -0.13926249913E+03 -0.21807515656E+03  0.17521190229E+03  0.95074042228E+03  0.89791832718E+03 0.  0.
        -24    2    4    4    0    0 -0.37218799198E+03 -0.45213850086E+03  0.14944934697E+03  0.60998207609E+03  0.82400852628E+02 0.  0.
         24    2    4    4    0    0  0.23292549285E+03  0.23406334430E+03  0.25762555321E+02  0.34075834619E+03  0.80078754219E+02 0.  0.
         11    1    3    3    0    0  0.15250252584E+03  0.20171690258E+03  0.87189998635E+03  0.90783055433E+03  0.00000000000E+00 0.  1.
        -11    1    3    3    0    0 -0.13240026718E+02  0.16358253982E+02  0.66011211716E+02  0.69284708653E+02  0.00000000000E+00 0. -1.
          4    1    6    6  502    0  0.92905060075E+02  0.86617202641E+02  0.48903978168E+02  0.13610837249E+03  0.00000000000E+00 0. -1.
          3    1    5    5  503    0 -0.24114414933E+01 -0.78505562490E+01  0.14089237994E+02  0.16308062753E+02  0.00000000000E+00 0. -1.
         -4    1    5    5    0  503 -0.36977655048E+03 -0.44428794461E+03  0.13536010897E+03  0.59367401334E+03  0.00000000000E+00 0.  1.
         -1    1    6    6    0  502  0.14002043278E+03  0.14744614166E+03 -0.23141422847E+02  0.20464997370E+03  0.00000000000E+00 0.  1.
<mgrwt>
<rscale>  0 0.15740345E+04</rscale>
<asrwt>0</asrwt>
<pdfrwt beam="1">  1        1 0.62671738E-01 0.15740345E+04</pdfrwt>
<pdfrwt beam="2">  1       -1 0.23392144E+00 0.15740345E+04</pdfrwt>
<totfact> 0.50064298E+00</totfact>
</mgrwt>
</event>
<event>
12    1  0.1663913E-007  0.2593591E+04  0.7818608E-02  0.8370381E-01
          1   -1    0    0  501    0  0.00000000000E+00  0.00000000000E+00  0.47758864859E+04  0.47758864859E+04  0.00000000000E+00 0. -1.
         -1   -1    0    0    0  501 -0.00000000000E+00 -0.00000000000E+00 -0.35211863066E+03  0.35211863066E+03  0.00000000000E+00 0.  1.
         23    2    1    2    0    0  0.12534675753E+03  0.17088259665E+02 -0.28943805369E+03  0.32904122056E+03  0.92140760051E+02 0.  0.
        254    2    1    2    0    0 -0.12534675753E+03 -0.17088259665E+02  0.47132059089E+04  0.47989638960E+04  0.89428223562E+03 0.  0.
        -24    2    4    4    0    0 -0.16270750415E+03 -0.39347736636E+02  0.16168461389E+03  0.24653398566E+03  0.81333359909E+02 0.  0.
         24    2    4    4    0    0  0.37360746616E+02  0.22259476971E+02  0.45515212950E+04  0.45524299103E+04  0.79879156825E+02 0.  0.
         11    1    3    3    0    0 -0.81360829228E+01 -0.28535631239E+01  0.10939547230E+01  0.86911106750E+01  0.00000000000E+00 0. -1.
        -11    1    3    3    0    0  0.13348284045E+03  0.19941822789E+02 -0.29053200841E+03  0.32035010989E+03  0.00000000000E+00 0.  1.
          2    1    6    6  502    0  0.53732449270E+01  0.44090081567E+02  0.14850312269E+04  0.14856953092E+04  0.00000000000E+00 0. -1.
          1    1    5    5  503    0  0.25441120790E+01 -0.79502244490E+00  0.34170003585E+02  0.34273805041E+02  0.00000000000E+00 0. -1.
         -2    1    5    5    0  503 -0.16525161622E+03 -0.38552714192E+02  0.12751461031E+03  0.21226018062E+03  0.00000000000E+00 0.  1.
         -1    1    6    6    0  502  0.31987501689E+02 -0.21830604596E+02  0.30664900682E+04  0.30667346011E+04  0.00000000000E+00 0.  1.
<mgrwt>
<rscale>  0 0.25935910E+04</rscale>
<asrwt>0</asrwt>
<pdfrwt beam="1">  1        1 0.73475172E+00 0.25935910E+04</pdfrwt>
<pdfrwt beam="2">  1       -1 0.54172100E-01 0.25935910E+04</pdfrwt>
<totfact> 0.49268622E-02</totfact>
</mgrwt>
</event>
<event>
12    1  0.1672697E-007  0.2232349E+04  0.7818608E-02  0.8505083E-01
         -2   -1    0    0    0  501 -0.00000000000E+00  0.00000000000E+00  0.94410055510E+03  0.94410055510E+03  0.00000000000E+00 0.  1.
          2   -1    0    0  501    0  0.00000000000E+00 -0.00000000000E+00 -0.13196115523E+04  0.13196115523E+04  0.00000000000E+00 0. -1.
         23    2    1    2    0    0  0.32166774619E+03  0.83308540025E+03  0.11181873391E+03  0.90465535014E+03  0.91632146230E+02 0.  0.
        254    2    1    2    0    0 -0.32166774619E+03 -0.83308540025E+03 -0.48732973112E+03  0.13590567573E+04  0.90113460681E+03 0.  0.
        -24    2    4    4    0    0 -0.28840563436E+03  0.10095488005E+03 -0.33484042452E+02  0.31697551269E+03  0.77347248217E+02 0.  0.
         24    2    4    4    0    0 -0.33262111833E+02 -0.93404028030E+03 -0.45384568866E+03  0.10420812446E+04  0.80123641147E+02 0.  0.
         11    1    3    3    0    0  0.23604904430E+03  0.62234860384E+03  0.12315408085E+03  0.67690757393E+03  0.00000000000E+00 0.  1.
        -11    1    3    3    0    0  0.85618701890E+02  0.21073679642E+03 -0.11335346937E+02  0.22774777621E+03  0.00000000000E+00 0. -1.
          2    1    6    6  502    0  0.11847017373E+02 -0.33421366176E+02 -0.90275959461E+01  0.36590121977E+02  0.00000000000E+00 0. -1.
          1    1    5    5  503    0 -0.47803993243E+02 -0.72124177646E+01 -0.21487147692E+02  0.52904992731E+02  0.00000000000E+00 0. -1.
         -2    1    5    5    0  503 -0.24060164112E+03  0.10816729782E+03 -0.11996894761E+02  0.26407051995E+03  0.00000000000E+00 0.  1.
         -1    1    6    6    0  502 -0.45109129206E+02 -0.90061891413E+03 -0.44481809272E+03  0.10054911226E+04  0.00000000000E+00 0.  1.
<mgrwt>
<rscale>  0 0.22323494E+04</rscale>
<asrwt>0</asrwt>
<pdfrwt beam="1">  1        2 0.20301716E+00 0.22323494E+04</pdfrwt>
<pdfrwt beam="2">  1       -2 0.14524624E+00 0.22323494E+04</pdfrwt>
<totfact> 0.47893074E+00</totfact>
</mgrwt>
</event>
<event>
12    1  0.1663913E-007  0.1860064E+04  0.7818608E-02  0.8674995E-01
         -1   -1    0    0    0  501 -0.00000000000E+00  0.00000000000E+00  0.36752009751E+03  0.36752009751E+03  0.00000000000E+00 0.  1.
          1   -1    0    0  501    0  0.00000000000E+00 -0.00000000000E+00 -0.23535022252E+04  0.23535022252E+04  0.00000000000E+00 0. -1.
         23    2    1    2    0    0  0.68247844393E+03 -0.13969522198E+03 -0.52611761260E+03  0.87764531090E+03  0.90387875209E+02 0.  0.
        254    2    1    2    0    0 -0.68247844393E+03  0.13969522198E+03 -0.14598645151E+04  0.18433770118E+04  0.88404910710E+03 0.  0.
        -24    2    4    4    0    0 -0.63969418779E+03  0.12185458474E+03 -0.15656224449E+04  0.16975493336E+04  0.80267716681E+02 0.  0.
         24    2    4    4    0    0 -0.42784256135E+02  0.17840637238E+02  0.10575792974E+03  0.14582767826E+03  0.89062849346E+02 0.  0.
         11    1    3    3    0    0  0.29819930761E+03 -0.54737044808E+02 -0.17402947432E+03  0.34957864503E+03  0.00000000000E+00 0.  1.
        -11    1    3    3    0    0  0.38427913632E+03 -0.84958177173E+02 -0.35208813828E+03  0.52806666587E+03  0.00000000000E+00 0. -1.
          4    1    6    6  502    0  0.27429168464E+02  0.31748619004E+01  0.20384750106E+02  0.34321670525E+02  0.00000000000E+00 0. -1.
          3    1    5    5  503    0 -0.23382602991E+03  0.57757643257E+01 -0.54505252819E+03  0.59311906916E+03  0.00000000000E+00 0. -1.
         -4    1    5    5    0  503 -0.40586815789E+03  0.11607882042E+03 -0.10205699167E+04  0.11044302644E+04  0.00000000000E+00 0.  1.
         -3    1    6    6    0  502 -0.70213424599E+02  0.14665775338E+02  0.85373179634E+02  0.11150600773E+03  0.00000000000E+00 0.  1.
<mgrwt>
<rscale>  0 0.18600638E+04</rscale>
<asrwt>0</asrwt>
<pdfrwt beam="1">  1        1 0.36207726E+00 0.18600638E+04</pdfrwt>
<pdfrwt beam="2">  1       -1 0.56541555E-01 0.18600638E+04</pdfrwt>
<totfact> 0.50856284E+00</totfact>
</mgrwt>
</event>
<event>
12    1  0.1663913E-007  0.2935825E+04  0.7818608E-02  0.8262298E-01
          2   -1    0    0  501    0  0.00000000000E+00  0.00000000000E+00  0.17016265103E+04  0.17016265103E+04  0.00000000000E+00 0. -1.
         -2   -1    0    0    0  501 -0.00000000000E+00 -0.00000000000E+00 -0.12662983658E+04  0.12662983658E+04  0.00000000000E+00 0.  1.
         23    2    1    2    0    0  0.12631250588E+03  0.12738728802E+04 -0.16605518289E+03  0.12938576623E+04  0.88240367442E+02 0.  0.
        254    2    1    2    0    0 -0.12631250588E+03 -0.12738728802E+04  0.60138332739E+03  0.16740672138E+04  0.89561831474E+03 0.  0.
        -24    2    4    4    0    0 -0.48186017073E+03 -0.46130356892E+03  0.25027826042E+03  0.71682032148E+03  0.78752516192E+02 0.  0.
         24    2    4    4    0    0  0.35554766486E+03 -0.81256931129E+03  0.35110506697E+03  0.95724689230E+03  0.79773536528E+02 0.  0.
         13    1    3    3    0    0  0.76793690856E+02  0.70769988622E+03 -0.48585754534E+02  0.71351031910E+03  0.00000000000E+00 0. -1.
        -13    1    3    3    0    0  0.49518815020E+02  0.56617299400E+03 -0.11746942835E+03  0.58034734321E+03  0.00000000000E+00 0.  1.
          4    1    6    6  502    0  0.11019601980E+03 -0.33334623872E+03  0.11580439813E+03  0.36969384128E+03  0.00000000000E+00 0. -1.
          3    1    5    5  503    0 -0.37312704030E+01 -0.13373371122E+01 -0.46150400034E+01  0.60835387404E+01  0.00000000000E+00 0. -1.
         -4    1    5    5    0  503 -0.47812890033E+03 -0.45996623181E+03  0.25489330043E+03  0.71073678274E+03  0.00000000000E+00 0.  1.
         -3    1    6    6    0  502  0.24535164505E+03 -0.47922307257E+03  0.23530066883E+03  0.58755305102E+03  0.00000000000E+00 0.  1.
<mgrwt>
<rscale>  0 0.29358248E+04</rscale>
<asrwt>0</asrwt>
<pdfrwt beam="1">  1        2 0.26178869E+00 0.29358248E+04</pdfrwt>
<pdfrwt beam="2">  1       -2 0.19481513E+00 0.29358248E+04</pdfrwt>
<totfact> 0.12122308E+00</totfact>
</mgrwt>
</event>
<event>
12    1  0.1663913E-007  0.1175990E+04  0.7818608E-02  0.9134136E-01
          1   -1    0    0  501    0  0.00000000000E+00  0.00000000000E+00  0.43895958836E+03  0.43895958836E+03  0.00000000000E+00 0.  1.
         -1   -1    0    0    0  501 -0.00000000000E+00 -0.00000000000E+00 -0.78763117430E+03  0.78763117430E+03  0.00000000000E+00 0. -1.
         23    2    1    2    0    0  0.16839654888E+03 -0.22518661994E+03  0.31353617039E+00  0.29152619189E+03  0.76948104448E+02 0.  0.
        254    2    1    2    0    0 -0.16839654888E+03  0.22518661994E+03 -0.34898512212E+03  0.93506457077E+03  0.82066358795E+03 0.  0.
        -24    2    4    4    0    0 -0.47917851322E+03  0.11768639369E+03 -0.32342153764E+03  0.59540273094E+03  0.80254508969E+02 0.  0.
         24    2    4    4    0    0  0.31078196434E+03  0.10750022625E+03 -0.25563584471E+02  0.33966183983E+03  0.81086007329E+02 0.  0.
         11    1    3    3    0    0  0.31374993863E+02 -0.51667174445E+01  0.55338406622E+01  0.32275510864E+02  0.00000000000E+00 0.  1.
        -11    1    3    3    0    0  0.13702155501E+03 -0.22001990250E+03 -0.52203044918E+01  0.25925068102E+03  0.00000000000E+00 0. -1.
          2    1    6    6  502    0  0.76406492214E+02  0.38447853965E+02 -0.40970053503E+02  0.94840575763E+02  0.00000000000E+00 0. -1.
          1    1    5    5  503    0 -0.10589409807E+03  0.52161527067E+02 -0.10493905070E+03  0.15794489316E+03  0.00000000000E+00 0. -1.
         -2    1    5    5    0  503 -0.37328441515E+03  0.65524866627E+02 -0.21848248694E+03  0.43745783778E+03  0.00000000000E+00 0.  1.
         -1    1    6    6    0  502  0.23437547213E+03  0.69052372281E+02  0.15406469033E+02  0.24482126407E+03  0.00000000000E+00 0.  1.
<mgrwt>
<rscale>  0 0.11759902E+04</rscale>
<asrwt>0</asrwt>
<pdfrwt beam="1">  1        1 0.67532244E-01 0.11759902E+04</pdfrwt>
<pdfrwt beam="2">  1       -1 0.12117403E+00 0.11759902E+04</pdfrwt>
<totfact> 0.31745003E+01</totfact>
</mgrwt>
</event>
<event>
12    1  0.1663913E-007  0.1354674E+04  0.7818608E-02  0.8987297E-01
         -3   -1    0    0    0  501 -0.00000000000E+00  0.00000000000E+00  0.55447709771E+03  0.55447709771E+03  0.00000000000E+00 0.  1.
          3   -1    0    0  501    0  0.00000000000E+00 -0.00000000000E+00 -0.82742015537E+03  0.82742015537E+03  0.00000000000E+00 0. -1.
         23    2    1    2    0    0  0.28818858264E+02  0.33214410236E+03  0.55945745027E+02  0.35282350481E+03  0.10101617611E+03 0.  0.
        254    2    1    2    0    0 -0.28818858264E+02 -0.33214410236E+03 -0.32888880269E+03  0.10290737483E+04  0.91633765804E+03 0.  0.
        -24    2    4    4    0    0  0.11169570083E+03  0.22225083578E+03  0.12945395159E+03  0.29170847816E+03  0.80399919506E+02 0.  0.
         24    2    4    4    0    0 -0.14051455909E+03 -0.55439493814E+03 -0.45834275427E+03  0.73736527013E+03  0.80816906916E+02 0.  0.
         11    1    3    3    0    0  0.29409178280E+02  0.32595858691E+03  0.72434864491E+02  0.33520249065E+03  0.00000000000E+00 0.  1.
        -11    1    3    3    0    0 -0.59032001597E+00  0.61855154490E+01 -0.16489119464E+02  0.17621014154E+02  0.00000000000E+00 0. -1.
          2    1    6    6  502    0 -0.63280859252E+02 -0.11621856126E+03 -0.11594261851E+03  0.17593723857E+03  0.00000000000E+00 0. -1.
          1    1    5    5  503    0  0.74105086124E+02  0.62261824866E+02  0.41545437310E+02  0.10532863802E+03  0.00000000000E+00 0. -1.
         -2    1    5    5    0  503  0.37590614706E+02  0.15998901092E+03  0.87908514277E+02  0.18637984014E+03  0.00000000000E+00 0.  1.
         -1    1    6    6    0  502 -0.77233699842E+02 -0.43817637688E+03 -0.34240013576E+03  0.56142803156E+03  0.00000000000E+00 0.  1.
<mgrwt>
<rscale>  0 0.13546742E+04</rscale>
<asrwt>0</asrwt>
<pdfrwt beam="1">  1        3 0.12729541E+00 0.13546742E+04</pdfrwt>
<pdfrwt beam="2">  1       -3 0.85304169E-01 0.13546742E+04</pdfrwt>
<totfact> 0.15786335E+00</totfact>
</mgrwt>
</event>
<event>
12    1  0.1663913E-007  0.1898198E+04  0.7818608E-02  0.8655754E-01
         -2   -1    0    0    0  501 -0.00000000000E+00  0.00000000000E+00  0.88572840648E+03  0.88572840648E+03  0.00000000000E+00 0.  1.
          2   -1    0    0  501    0  0.00000000000E+00 -0.00000000000E+00 -0.10170030174E+04  0.10170030174E+04  0.00000000000E+00 0. -1.
         23    2    1    2    0    0  0.31199072097E+03  0.52470950159E+03  0.35112627709E+03  0.70980908984E+03  0.88775055712E+02 0.  0.
        254    2    1    2    0    0 -0.31199072097E+03 -0.52470950159E+03 -0.48240088798E+03  0.11929223340E+04  0.90426478823E+03 0.  0.
        -24    2    4    4    0    0 -0.43610288504E+03 -0.12987524653E+03 -0.59822701591E+03  0.75551933597E+03  0.76685060226E+02 0.  0.
         24    2    4    4    0    0  0.12411216407E+03 -0.39483425506E+03  0.11582612793E+03  0.43740299804E+03  0.81288206702E+02 0.  0.
         11    1    3    3    0    0  0.14115719592E+03  0.21260557253E+03  0.19543910744E+03  0.32143884045E+03  0.00000000000E+00 0. -1.
        -11    1    3    3    0    0  0.17083352505E+03  0.31210392906E+03  0.15568716965E+03  0.38837024939E+03  0.00000000000E+00 0.  1.
          4    1    6    6  502    0  0.24408072100E+02 -0.15865263311E+03  0.77292985333E+02  0.17815896710E+03  0.00000000000E+00 0. -1.
          1    1    5    5  503    0 -0.43674844466E+03 -0.13349695919E+03 -0.59697902664E+03  0.75163461886E+03  0.00000000000E+00 0. -1.
         -2    1    5    5    0  503  0.64555961749E+00  0.36217126576E+01 -0.12479892651E+01  0.38847171068E+01  0.00000000000E+00 0.  1.
         -3    1    6    6    0  502  0.99704091970E+02 -0.23618162194E+03  0.38533142596E+02  0.25924403094E+03  0.00000000000E+00 0.  1.
<mgrwt>
<rscale>  0 0.18981975E+04</rscale>
<asrwt>0</asrwt>
<pdfrwt beam="1">  1        2 0.15646200E+00 0.18981975E+04</pdfrwt>
<pdfrwt beam="2">  1       -2 0.13626591E+00 0.18981975E+04</pdfrwt>
<totfact> 0.88628700E+00</totfact>
</mgrwt>
</event>
<event>
12    1  0.1663914E-007  0.2112880E+04  0.7818608E-02  0.8555591E-01
         -2   -1    0    0    0  501 -0.00000000000E+00  0.00000000000E+00  0.82229897478E+03  0.82229897478E+03  0.00000000000E+00 0.  1.
          2   -1    0    0  501    0  0.00000000000E+00 -0.00000000000E+00 -0.13572507541E+04  0.13572507541E+04  0.00000000000E+00 0. -1.
         23    2    1    2    0    0  0.22543748090E+03  0.61301709460E+02 -0.10809548967E+04  0.11097139090E+04  0.91768805489E+02 0.  0.
        254    2    1    2    0    0 -0.22543748090E+03 -0.61301709460E+02  0.54600311740E+03  0.10698358199E+04  0.88985915738E+03 0.  0.
        -24    2    4    4    0    0 -0.29441201731E+03  0.25784937533E+03  0.60774039988E+03  0.72699204458E+03  0.77487437393E+02 0.  0.
         24    2    4    4    0    0  0.68974536411E+02 -0.31915108479E+03 -0.61737282475E+02  0.34284377532E+03  0.84353189835E+02 0.  0.
         13    1    3    3    0    0  0.17632035843E+03  0.27203061302E+02 -0.93703035074E+03  0.95386306856E+03  0.00000000000E+00 0. -1.
        -13    1    3    3    0    0  0.49117122466E+02  0.34098648157E+02 -0.14392454597E+03  0.15585084041E+03  0.00000000000E+00 0.  1.
          2    1    6    6  502    0  0.75073585048E+02 -0.31619642438E+03 -0.49333887427E+02  0.32870968104E+03  0.00000000000E+00 0. -1.
          3    1    5    5  503    0 -0.23764725151E+03  0.21125268542E+03  0.43097514337E+03  0.53557771373E+03  0.00000000000E+00 0. -1.
         -4    1    5    5    0  503 -0.56764765805E+02  0.46596689908E+02  0.17676525651E+03  0.19141433085E+03  0.00000000000E+00 0.  1.
         -3    1    6    6    0  502 -0.60990486376E+01 -0.29546604100E+01 -0.12403395049E+02  0.14134094281E+02  0.00000000000E+00 0.  1.
<mgrwt>
<rscale>  0 0.21128804E+04</rscale>
<asrwt>0</asrwt>
<pdfrwt beam="1">  1        2 0.20880781E+00 0.21128804E+04</pdfrwt>
<pdfrwt beam="2">  1       -2 0.12650754E+00 0.21128804E+04</pdfrwt>
<totfact> 0.65597873E+00</totfact>
</mgrwt>
</event>
<event>
12    1  0.1663913E-007  0.1989171E+04  0.7818608E-02  0.8611700E-01
         -1   -1    0    0    0  501 -0.00000000000E+00  0.00000000000E+00  0.21529627924E+03  0.21529627924E+03  0.00000000000E+00 0.  1.
          1   -1    0    0  501    0  0.00000000000E+00 -0.00000000000E+00 -0.45946004264E+04  0.45946004264E+04  0.00000000000E+00 0. -1.
         23    2    1    2    0    0  0.40481874864E+03  0.45281464109E+03 -0.29592277481E+04  0.30222887574E+04  0.91000823283E+02 0.  0.
        254    2    1    2    0    0 -0.40481874864E+03 -0.45281464109E+03 -0.14200763991E+04  0.17876079482E+04  0.90000326604E+03 0.  0.
        -24    2    4    4    0    0 -0.63442357254E+03 -0.49165893500E+03 -0.12520624027E+04  0.14893439440E+04  0.79141300217E+02 0.  0.
         24    2    4    4    0    0  0.22960482390E+03  0.38844293918E+02 -0.16801399641E+03  0.29826400428E+03  0.80656425242E+02 0.  0.
         13    1    3    3    0    0  0.36278932221E+03  0.41494526951E+03 -0.25295769697E+04  0.25889293762E+04  0.00000000000E+00 0.  1.
        -13    1    3    3    0    0  0.42029426423E+02  0.37869371580E+02 -0.42965077833E+03  0.43335938124E+03  0.00000000000E+00 0. -1.
          2    1    6    6  502    0  0.14632984548E+03  0.63295364424E+02 -0.11472855281E+03  0.19642140328E+03  0.00000000000E+00 0. -1.
          3    1    5    5  503    0 -0.62079288017E+03 -0.46567956422E+03 -0.11898026613E+04  0.14205180849E+04  0.00000000000E+00 0. -1.
         -4    1    5    5    0  503 -0.13630692362E+02 -0.25979370789E+02 -0.62259741374E+02  0.68825859071E+02  0.00000000000E+00 0.  1.
         -3    1    6    6    0  502  0.83274978414E+02 -0.24451070506E+02 -0.53285443595E+02  0.10184260100E+03  0.00000000000E+00 0.  1.
<mgrwt>
<rscale>  0 0.19891711E+04</rscale>
<asrwt>0</asrwt>
<pdfrwt beam="1">  1        1 0.70686155E+00 0.19891711E+04</pdfrwt>
<pdfrwt beam="2">  1       -1 0.33122507E-01 0.19891711E+04</pdfrwt>
<totfact> 0.20710038E-01</totfact>
</mgrwt>
</event>
<event>
12    1  0.1663913E-007  0.1743587E+04  0.7818608E-02  0.8736888E-01
          2   -1    0    0  501    0  0.00000000000E+00  0.00000000000E+00  0.14476218783E+04  0.14476218783E+04  0.00000000000E+00 0. -1.
         -2   -1    0    0    0  501 -0.00000000000E+00 -0.00000000000E+00 -0.52501519768E+03  0.52501519768E+03  0.00000000000E+00 0.  1.
         23    2    1    2    0    0 -0.41986705962E+03  0.18003456198E+03 -0.15680062173E+03  0.49042487458E+03  0.85025474846E+02 0.  0.
        254    2    1    2    0    0  0.41986705962E+03 -0.18003456198E+03  0.10794073024E+04  0.14822122014E+04  0.90726627534E+03 0.  0.
        -24    2    4    4    0    0  0.44382089219E+02  0.20223669985E+03 -0.51813966431E+02  0.22785122636E+03  0.79762407353E+02 0.  0.
         24    2    4    4    0    0  0.37548497040E+03 -0.38227126183E+03  0.11312212688E+04  0.12543609751E+04  0.81483839843E+02 0.  0.
         11    1    3    3    0    0 -0.15732075410E+03  0.45710515000E+02 -0.19061795467E+02  0.16493217666E+03  0.00000000000E+00 0. -1.
        -11    1    3    3    0    0 -0.26254630552E+03  0.13432404698E+03 -0.13773882626E+03  0.32549269792E+03  0.00000000000E+00 0.  1.
          2    1    6    6  502    0  0.95281994135E+02 -0.61488002261E+02  0.29184639775E+03  0.31310342174E+03  0.00000000000E+00 0. -1.
          1    1    5    5  503    0  0.16992175701E+02  0.29044386781E+02 -0.39766555147E+02  0.52093083483E+02  0.00000000000E+00 0. -1.
         -2    1    5    5    0  503  0.27389913518E+02  0.17319231307E+03 -0.12047411284E+02  0.17575814288E+03  0.00000000000E+00 0.  1.
         -1    1    6    6    0  502  0.28020297627E+03 -0.32078325957E+03  0.83937487105E+03  0.94125755332E+03  0.00000000000E+00 0.  1.
<mgrwt>
<rscale>  0 0.17435865E+04</rscale>
<asrwt>0</asrwt>
<pdfrwt beam="1">  1        2 0.22271106E+00 0.17435865E+04</pdfrwt>
<pdfrwt beam="2">  1       -2 0.80771569E-01 0.17435865E+04</pdfrwt>
<totfact> 0.17436338E+01</totfact>
</mgrwt>
</event>
<event>
12    1  0.1663913E-007  0.1482027E+04  0.7818608E-02  0.8896493E-01
         -1   -1    0    0    0  501 -0.00000000000E+00  0.00000000000E+00  0.20496727524E+03  0.20496727524E+03  0.00000000000E+00 0.  1.
          1   -1    0    0  501    0  0.00000000000E+00 -0.00000000000E+00 -0.26789700786E+04  0.26789700786E+04  0.00000000000E+00 0. -1.
         23    2    1    2    0    0  0.15499429071E+03  0.35451529722E+03 -0.13063935181E+04  0.13655186847E+04  0.90955637084E+02 0.  0.
        254    2    1    2    0    0 -0.15499429071E+03 -0.35451529722E+03 -0.11676092853E+04  0.15184186692E+04  0.89026933327E+03 0.  0.
        -24    2    4    4    0    0  0.13721960562E+03 -0.16704047898E+02 -0.10329937301E+04  0.10453131656E+04  0.80593561843E+02 0.  0.
         24    2    4    4    0    0 -0.29221389633E+03 -0.33781124932E+03 -0.13461555514E+03  0.47310550363E+03  0.78753212649E+02 0.  0.
         13    1    3    3    0    0  0.15124344431E+03  0.33562276975E+03 -0.12851872514E+04  0.13368707844E+04  0.00000000000E+00 0. -1.
        -13    1    3    3    0    0  0.37508464006E+01  0.18892527465E+02 -0.21206266749E+02  0.28647900309E+02  0.00000000000E+00 0.  1.
          4    1    6    6  502    0 -0.27166115182E+03 -0.27139070873E+03 -0.11581318894E+03  0.40108028240E+03  0.00000000000E+00 0. -1.
          1    1    5    5  503    0  0.13385789613E+03 -0.52047877962E+01 -0.73689377753E+03  0.74897093771E+03  0.00000000000E+00 0. -1.
         -2    1    5    5    0  503  0.33617094899E+01 -0.11499260102E+02 -0.29609995262E+03  0.29634222786E+03  0.00000000000E+00 0.  1.
         -3    1    6    6    0  502 -0.20552744508E+02 -0.66420540585E+02 -0.18802366204E+02  0.72025221230E+02  0.00000000000E+00 0.  1.
<mgrwt>
<rscale>  0 0.14820273E+04</rscale>
<asrwt>0</asrwt>
<pdfrwt beam="1">  1        1 0.41214923E+00 0.14820273E+04</pdfrwt>
<pdfrwt beam="2">  1       -1 0.31533428E-01 0.14820273E+04</pdfrwt>
<totfact> 0.92294231E+00</totfact>
</mgrwt>
</event>
<event>
12    1  0.1663913E-007  0.1602015E+04  0.7818608E-02  0.8819311E-01
         -3   -1    0    0    0  501 -0.00000000000E+00  0.00000000000E+00  0.12843854899E+04  0.12843854899E+04  0.00000000000E+00 0.  1.
          3   -1    0    0  501    0  0.00000000000E+00 -0.00000000000E+00 -0.49954844526E+03  0.49954844526E+03  0.00000000000E+00 0. -1.
         23    2    1    2    0    0  0.15375677876E+03 -0.27039436945E+03 -0.22425752846E+03  0.39613771515E+03  0.99395111802E+02 0.  0.
        254    2    1    2    0    0 -0.15375677876E+03  0.27039436945E+03  0.10090945731E+04  0.13877962200E+04  0.90052886060E+03 0.  0.
        -24    2    4    4    0    0 -0.92574189056E+01  0.56918347036E+03  0.44209687607E+03  0.72566718386E+03  0.84188426580E+02 0.  0.
         24    2    4    4    0    0 -0.14449935985E+03 -0.29878910091E+03  0.56699769702E+03  0.66212903614E+03  0.82301155861E+02 0.  0.
         13    1    3    3    0    0  0.10585271931E+03 -0.97209158967E+02 -0.72646929649E+02  0.16103414284E+03  0.00000000000E+00 0.  1.
        -13    1    3    3    0    0  0.47904059444E+02 -0.17318521048E+03 -0.15161059881E+03  0.23510357231E+03  0.00000000000E+00 0. -1.
          2    1    6    6  502    0 -0.64906585949E+02 -0.14481905058E+03  0.19261958916E+03  0.24957509579E+03  0.00000000000E+00 0. -1.
          3    1    5    5  503    0 -0.89705893395E+01  0.33018651845E+03  0.30796232769E+03  0.45160204131E+03  0.00000000000E+00 0. -1.
         -4    1    5    5    0  503 -0.28682956602E+00  0.23899695191E+03  0.13413454838E+03  0.27406514255E+03  0.00000000000E+00 0.  1.
         -1    1    6    6    0  502 -0.79592773904E+02 -0.15397005034E+03  0.37437810786E+03  0.41255394035E+03  0.00000000000E+00 0.  1.
<mgrwt>
<rscale>  0 0.16020147E+04</rscale>
<asrwt>0</asrwt>
<pdfrwt beam="1">  1        3 0.76853608E-01 0.16020147E+04</pdfrwt>
<pdfrwt beam="2">  1       -3 0.19759777E+00 0.16020147E+04</pdfrwt>
<totfact> 0.60563218E-01</totfact>
</mgrwt>
</event>
<event>
12    1  0.1663913E-007  0.3162146E+04  0.7818608E-02  0.8198887E-01
          2   -1    0    0  501    0  0.00000000000E+00  0.00000000000E+00  0.17908483139E+04  0.17908483139E+04  0.00000000000E+00 0. -1.
         -2   -1    0    0    0  501 -0.00000000000E+00 -0.00000000000E+00 -0.13958699578E+04  0.13958699578E+04  0.00000000000E+00 0.  1.
         23    2    1    2    0    0 -0.44243405002E+03 -0.10560061157E+04 -0.72406359643E+03  0.13579970015E+04  0.94820669211E+02 0.  0.
        254    2    1    2    0    0  0.44243405002E+03  0.10560061157E+04  0.11190419525E+04  0.18287212702E+04  0.88378152701E+03 0.  0.
        -24    2    4    4    0    0  0.39439648357E+03  0.11881536295E+04  0.10929537220E+04  0.16637662450E+04  0.79452162666E+02 0.  0.
         24    2    4    4    0    0  0.48037566446E+02 -0.13214751375E+03  0.26088230483E+02  0.16495502514E+03  0.82213085138E+02 0.  0.
         13    1    3    3    0    0 -0.25669149492E+03 -0.68041405532E+03 -0.50316796697E+03  0.88432562624E+03  0.00000000000E+00 0. -1.
        -13    1    3    3    0    0 -0.18574255510E+03 -0.37559206041E+03 -0.22089562946E+03  0.47367137525E+03  0.00000000000E+00 0.  1.
          4    1    6    6  502    0  0.63109484193E+02 -0.55045290786E+02  0.65366480143E+01  0.83997135665E+02  0.00000000000E+00 0. -1.
          1    1    5    5  503    0  0.25780938415E+03  0.65144390300E+03  0.61030132040E+03  0.92914613436E+03  0.00000000000E+00 0. -1.
         -2    1    5    5    0  503  0.13658709943E+03  0.53670972648E+03  0.48265240163E+03  0.73462011069E+03  0.00000000000E+00 0.  1.
         -3    1    6    6    0  502 -0.15071917747E+02 -0.77102222968E+02  0.19551582469E+02  0.80957889475E+02  0.00000000000E+00 0.  1.
<mgrwt>
<rscale>  0 0.31621457E+04</rscale>
<asrwt>0</asrwt>
<pdfrwt beam="1">  1        2 0.27551512E+00 0.31621457E+04</pdfrwt>
<pdfrwt beam="2">  1       -2 0.21474922E+00 0.31621457E+04</pdfrwt>
<totfact> 0.78724986E-01</totfact>
</mgrwt>
</event>
<event>
12    1  0.1663913E-007  0.1415225E+04  0.7818608E-02  0.8942871E-01
          2   -1    0    0  501    0  0.00000000000E+00  0.00000000000E+00  0.24879404841E+04  0.24879404841E+04  0.00000000000E+00 0. -1.
         -2   -1    0    0    0  501 -0.00000000000E+00 -0.00000000000E+00 -0.20125702386E+03  0.20125702386E+03  0.00000000000E+00 0.  1.
         23    2    1    2    0    0 -0.13435489729E+03 -0.23307757305E+03  0.75339503547E+02  0.29388517895E+03  0.91192456527E+02 0.  0.
        254    2    1    2    0    0  0.13435489729E+03  0.23307757305E+03  0.22113439567E+04  0.23953123290E+04  0.88039915105E+03 0.  0.
        -24    2    4    4    0    0  0.27137579626E+03  0.35758169012E+02  0.20990783384E+04  0.21184058538E+04  0.81178946452E+02 0.  0.
         24    2    4    4    0    0 -0.13702089897E+03  0.19731940404E+03  0.11226561828E+03  0.27690647516E+03  0.79774387945E+02 0.  0.
         11    1    3    3    0    0 -0.45586283344E+02 -0.33953589220E+02 -0.13569448257E+02  0.58438731814E+02  0.00000000000E+00 0. -1.
        -11    1    3    3    0    0 -0.88768613944E+02 -0.19912398383E+03  0.88908951804E+02  0.23544644714E+03  0.00000000000E+00 0.  1.
          2    1    6    6  502    0 -0.20914977708E+02 -0.15045380282E+01  0.51027410996E+00  0.20975230795E+02  0.00000000000E+00 0. -1.
          1    1    5    5  503    0  0.21258929739E+02 -0.18507591004E+02  0.15357039403E+03  0.15613564276E+03  0.00000000000E+00 0. -1.
         -2    1    5    5    0  503  0.25011686652E+03  0.54265760016E+02  0.19455079444E+04  0.19622702110E+04  0.00000000000E+00 0.  1.
         -1    1    6    6    0  502 -0.11610592126E+03  0.19882394207E+03  0.11175534417E+03  0.25593124436E+03  0.00000000000E+00 0.  1.
<mgrwt>
<rscale>  0 0.14152251E+04</rscale>
<asrwt>0</asrwt>
<pdfrwt beam="1">  1        2 0.38276005E+00 0.14152251E+04</pdfrwt>
<pdfrwt beam="2">  1       -2 0.30962621E-01 0.14152251E+04</pdfrwt>
<totfact> 0.33357720E+01</totfact>
</mgrwt>
</event>
<event>
12    1  0.1663913E-007  0.1553677E+04  0.7818608E-02  0.8849522E-01
         -2   -1    0    0    0  501 -0.00000000000E+00  0.00000000000E+00  0.79540192741E+03  0.79540192741E+03  0.00000000000E+00 0.  1.
          2   -1    0    0  501    0  0.00000000000E+00 -0.00000000000E+00 -0.75870851169E+03  0.75870851169E+03  0.00000000000E+00 0. -1.
         23    2    1    2    0    0 -0.24014522157E+03 -0.20084794347E+03 -0.37323574551E+03  0.49574802372E+03  0.91932352590E+02 0.  0.
        254    2    1    2    0    0  0.24014522157E+03  0.20084794347E+03  0.40992916123E+03  0.10583624154E+04  0.92416419604E+03 0.  0.
        -24    2    4    4    0    0  0.50286078224E+03  0.38273370421E+03  0.33873348402E+03  0.72132832329E+03  0.78867750927E+02 0.  0.
         24    2    4    4    0    0 -0.26271556067E+03 -0.18188576074E+03  0.71195677204E+02  0.33703409209E+03  0.80132758608E+02 0.  0.
         11    1    3    3    0    0 -0.11075864651E+03 -0.38504693245E+02 -0.11292580818E+03  0.16279535415E+03  0.00000000000E+00 0.  1.
        -11    1    3    3    0    0 -0.12938657505E+03 -0.16234325022E+03 -0.26030993734E+03  0.33295266957E+03  0.00000000000E+00 0. -1.
          2    1    6    6  502    0 -0.99957439079E+02 -0.11341129144E+03  0.15926485757E+02  0.15201073515E+03  0.00000000000E+00 0. -1.
          1    1    5    5  503    0  0.32345850391E+03  0.25271304258E+03  0.26147409310E+03  0.48668058006E+03  0.00000000000E+00 0. -1.
         -2    1    5    5    0  503  0.17940227833E+03  0.13002066162E+03  0.77259390918E+02  0.23464774323E+03  0.00000000000E+00 0.  1.
         -1    1    6    6    0  502 -0.16275812159E+03 -0.68474469298E+02  0.55269191447E+02  0.18502335694E+03  0.00000000000E+00 0.  1.
<mgrwt>
<rscale>  0 0.15536772E+04</rscale>
<asrwt>0</asrwt>
<pdfrwt beam="1">  1        2 0.11672439E+00 0.15536772E+04</pdfrwt>
<pdfrwt beam="2">  1       -2 0.12236953E+00 0.15536772E+04</pdfrwt>
<totfact> 0.17975482E+01</totfact>
</mgrwt>
</event>
<event>
12    1  0.2609541E-007  0.1876219E+04  0.7818608E-02  0.8666785E-01
          1   -1    0    0  501    0  0.00000000000E+00  0.00000000000E+00  0.28764642776E+04  0.28764642776E+04  0.00000000000E+00 0. -1.
         -1   -1    0    0    0  501 -0.00000000000E+00 -0.00000000000E+00 -0.30594840358E+03  0.30594840358E+03  0.00000000000E+00 0.  1.
         23    2    1    2    0    0 -0.66962606833E+03 -0.13755834241E+03  0.14018640159E+04  0.15623205741E+04  0.91112503596E+02 0.  0.
        254    2    1    2    0    0  0.66962606833E+03  0.13755834241E+03  0.11686518581E+04  0.16200921070E+04  0.88973586017E+03 0.  0.
        -24    2    4    4    0    0  0.68355576823E+03  0.35765933520E+03  0.11470503928E+04  0.13847073838E+04  0.80754236866E+02 0.  0.
         24    2    4    4    0    0 -0.13929699904E+02 -0.22010099279E+03  0.21601465336E+02  0.23538472326E+03  0.79377963399E+02 0.  0.
         13    1    3    3    0    0 -0.64315841221E+03 -0.13315784597E+03  0.13775352310E+04  0.15261019192E+04  0.00000000000E+00 0. -1.
        -13    1    3    3    0    0 -0.26467656120E+02 -0.44004964394E+01  0.24328784864E+02  0.36218654895E+02  0.00000000000E+00 0.  1.
          4    1    6    6  502    0 -0.27072361048E+02 -0.21531160828E+03  0.10043246581E+02  0.21723919581E+03  0.00000000000E+00 0. -1.
          1    1    5    5  503    0  0.67602027630E+03  0.34765557887E+03  0.11403637001E+04  0.13705098263E+04  0.00000000000E+00 0. -1.
         -2    1    5    5    0  503  0.75354919326E+01  0.10003756334E+02  0.66866926979E+01  0.14197557490E+02  0.00000000000E+00 0.  1.
         -3    1    6    6    0  502  0.13142661144E+02 -0.47893845159E+01  0.11558218755E+02  0.18145527460E+02  0.00000000000E+00 0.  1.
<mgrwt>
<rscale>  0 0.18762192E+04</rscale>
<asrwt>0</asrwt>
<pdfrwt beam="1">  1        1 0.44253295E+00 0.18762192E+04</pdfrwt>
<pdfrwt beam="2">  1       -1 0.47068987E-01 0.18762192E+04</pdfrwt>
<totfact> 0.31062796E+00</totfact>
</mgrwt>
</event>
<event>
12    1  0.1663913E-007  0.2519739E+04  0.7818608E-02  0.8395987E-01
          2   -1    0    0  501    0  0.00000000000E+00  0.00000000000E+00  0.14408081931E+04  0.14408081931E+04  0.00000000000E+00 0.  1.
         -2   -1    0    0    0  501 -0.00000000000E+00 -0.00000000000E+00 -0.11016531320E+04  0.11016531320E+04  0.00000000000E+00 0. -1.
         23    2    1    2    0    0  0.80953349535E+03  0.24228293046E+03 -0.56041443259E+03  0.10181453888E+04  0.92250734119E+02 0.  0.
        254    2    1    2    0    0 -0.80953349535E+03 -0.24228293046E+03  0.89956949365E+03  0.15243159364E+04  0.89457716352E+03 0.  0.
        -24    2    4    4    0    0 -0.63255838813E+03  0.25797104528E+03  0.57538873622E+03  0.89671101476E+03  0.79619542966E+02 0.  0.
         24    2    4    4    0    0 -0.17697510722E+03 -0.50025397573E+03  0.32418075743E+03  0.62760492161E+03  0.84973792055E+02 0.  0.
         13    1    3    3    0    0  0.78726851782E+03  0.21759099886E+03 -0.53850370981E+03  0.97832704523E+03  0.00000000000E+00 0. -1.
        -13    1    3    3    0    0  0.22264977526E+02  0.24691931599E+02 -0.21910722781E+02  0.39818343551E+02  0.00000000000E+00 0.  1.
          4    1    6    6  502    0 -0.18414023245E+01 -0.75725425683E+02  0.67755569921E+02  0.10162946479E+03  0.00000000000E+00 0. -1.
          3    1    5    5  503    0 -0.19962335687E+03  0.42257443387E+02  0.17359584614E+03  0.26790052991E+03  0.00000000000E+00 0. -1.
         -4    1    5    5    0  503 -0.43293503126E+03  0.21571360189E+03  0.40179289008E+03  0.62881048484E+03  0.00000000000E+00 0.  1.
         -3    1    6    6    0  502 -0.17513370490E+03 -0.42452855005E+03  0.25642518751E+03  0.52597545683E+03  0.00000000000E+00 0.  1.
<mgrwt>
<rscale>  0 0.25197388E+04</rscale>
<asrwt>0</asrwt>
<pdfrwt beam="1">  1        2 0.22166280E+00 0.25197388E+04</pdfrwt>
<pdfrwt beam="2">  1       -2 0.16948510E+00 0.25197388E+04</pdfrwt>
<totfact> 0.26251675E+00</totfact>
</mgrwt>
</event>
<event>
12    1  0.1663913E-007  0.2052139E+04  0.7818608E-02  0.8582625E-01
         -1   -1    0    0    0  501 -0.00000000000E+00  0.00000000000E+00  0.46442252398E+03  0.46442252398E+03  0.00000000000E+00 0.  1.
          1   -1    0    0  501    0  0.00000000000E+00 -0.00000000000E+00 -0.22669411675E+04  0.22669411675E+04  0.00000000000E+00 0. -1.
         23    2    1    2    0    0  0.67714647697E+03  0.44593360670E+03 -0.52040678713E+03  0.96782285401E+03  0.92052809861E+02 0.  0.
        254    2    1    2    0    0 -0.67714647697E+03 -0.44593360670E+03 -0.12821118564E+04  0.17635408375E+04  0.89937830765E+03 0.  0.
        -24    2    4    4    0    0 -0.41386652134E+03 -0.22359169022E+03 -0.47906510322E+02  0.47962293353E+03  0.80401388082E+02 0.  0.
         24    2    4    4    0    0 -0.26327995562E+03 -0.22234191647E+03 -0.12342053461E+04  0.12839179040E+04  0.80187810405E+02 0.  0.
         13    1    3    3    0    0  0.31898658915E+03  0.25468035984E+03 -0.29294041138E+03  0.50242274467E+03  0.00000000000E+00 0. -1.
        -13    1    3    3    0    0  0.35815988781E+03  0.19125324686E+03 -0.22746637575E+03  0.46540010934E+03  0.00000000000E+00 0.  1.
          4    1    6    6  502    0 -0.17856124183E+03 -0.15586013849E+03 -0.97155271257E+03  0.10000455855E+04  0.00000000000E+00 0. -1.
          3    1    5    5  503    0 -0.19502003053E+03 -0.14314986913E+03 -0.16920404435E+01  0.24192469973E+03  0.00000000000E+00 0. -1.
         -4    1    5    5    0  503 -0.21884649082E+03 -0.80441821099E+02 -0.46214469878E+02  0.23769823380E+03  0.00000000000E+00 0.  1.
         -3    1    6    6    0  502 -0.84718713791E+02 -0.66481777985E+02 -0.26265263352E+03  0.28387231842E+03  0.00000000000E+00 0.  1.
<mgrwt>
<rscale>  0 0.20521389E+04</rscale>
<asrwt>0</asrwt>
<pdfrwt beam="1">  1        1 0.34876017E+00 0.20521389E+04</pdfrwt>
<pdfrwt beam="2">  1       -1 0.71449621E-01 0.20521389E+04</pdfrwt>
<totfact> 0.35815213E+00</totfact>
</mgrwt>
</event>
<event>
12    1  0.1663913E-007  0.1826197E+04  0.7818608E-02  0.8692491E-01
          2   -1    0    0  501    0  0.00000000000E+00  0.00000000000E+00  0.59653344148E+03  0.59653344148E+03  0.00000000000E+00 0. -1.
         -2   -1    0    0    0  501 -0.00000000000E+00 -0.00000000000E+00 -0.13976559043E+04  0.13976559043E+04  0.00000000000E+00 0.  1.
         23    2    1    2    0    0 -0.31992526695E+03  0.24609327583E+03 -0.93300546350E+03  0.10206447343E+04  0.91117517109E+02 0.  0.
        254    2    1    2    0    0  0.31992526695E+03 -0.24609327583E+03  0.13188300065E+03  0.97354461150E+03  0.87606044762E+03 0.  0.
        -24    2    4    4    0    0  0.20147666412E+02 -0.50031746855E+03  0.23629260301E+03  0.55926642063E+03  0.78874819834E+02 0.  0.
         24    2    4    4    0    0  0.29977760054E+03  0.25422419273E+03 -0.10440960236E+03  0.41427819087E+03  0.78920874397E+02 0.  0.
         11    1    3    3    0    0 -0.49546232951E+02  0.29279057837E+01 -0.12942361800E+03  0.13861412168E+03  0.00000000000E+00 0. -1.
        -11    1    3    3    0    0 -0.27037903400E+03  0.24316537004E+03 -0.80358184550E+03  0.88203061264E+03  0.00000000000E+00 0.  1.
          2    1    6    6  502    0  0.18874633993E+03  0.19694790967E+03 -0.95517468247E+02  0.28902810711E+03  0.00000000000E+00 0. -1.
          1    1    5    5  503    0  0.47486356787E+02 -0.32714774271E+03  0.17102934073E+03  0.37219838128E+03  0.00000000000E+00 0. -1.
         -2    1    5    5    0  503 -0.27338690374E+02 -0.17316972585E+03  0.65263262280E+02  0.18706803935E+03  0.00000000000E+00 0.  1.
         -1    1    6    6    0  502  0.11103126061E+03  0.57276283060E+02 -0.88921341108E+01  0.12525008376E+03  0.00000000000E+00 0.  1.
<mgrwt>
<rscale>  0 0.18261966E+04</rscale>
<asrwt>0</asrwt>
<pdfrwt beam="1">  1        2 0.91774377E-01 0.18261966E+04</pdfrwt>
<pdfrwt beam="2">  1       -2 0.21502398E+00 0.18261966E+04</pdfrwt>
<totfact> 0.49988366E+00</totfact>
</mgrwt>
</event>
<event>
12    1  0.1663913E-007  0.1428154E+04  0.7818608E-02  0.8933688E-01
         -1   -1    0    0    0  501 -0.00000000000E+00  0.00000000000E+00  0.70062237807E+03  0.70062237807E+03  0.00000000000E+00 0.  1.
          1   -1    0    0  501    0  0.00000000000E+00 -0.00000000000E+00 -0.72778999812E+03  0.72778999812E+03  0.00000000000E+00 0. -1.
         23    2    1    2    0    0 -0.10979348572E+03 -0.39455414012E+03  0.35339725211E+02  0.42353927556E+03  0.10202471649E+03 0.  0.
        254    2    1    2    0    0  0.10979348572E+03  0.39455414012E+03 -0.62507345266E+02  0.10048731006E+04  0.91549724257E+03 0.  0.
        -24    2    4    4    0    0 -0.22245194663E+03  0.56845849292E+03 -0.82825104169E+02  0.62136778520E+03  0.81289604934E+02 0.  0.
         24    2    4    4    0    0  0.33224543235E+03 -0.17390435280E+03  0.20317758903E+02  0.38350531543E+03  0.77677309378E+02 0.  0.
         11    1    3    3    0    0 -0.12586668910E+03 -0.29568956257E+03  0.17833610482E+02  0.32185832054E+03  0.00000000000E+00 0.  1.
        -11    1    3    3    0    0  0.16073203386E+02 -0.98864577545E+02  0.17506114729E+02  0.10168095502E+03  0.00000000000E+00 0. -1.
          2    1    6    6  502    0  0.18605704279E+03 -0.13756426484E+03 -0.82679564771E+00  0.23139108394E+03  0.00000000000E+00 0. -1.
          1    1    5    5  503    0 -0.11603112374E+03  0.37135873732E+03 -0.24134276838E+02  0.38981148877E+03  0.00000000000E+00 0. -1.
         -2    1    5    5    0  503 -0.10642082289E+03  0.19709975560E+03 -0.58690827332E+02  0.23155629643E+03  0.00000000000E+00 0.  1.
         -1    1    6    6    0  502  0.14618838956E+03 -0.36340087960E+02  0.21144554551E+02  0.15211423149E+03  0.00000000000E+00 0.  1.
<mgrwt>
<rscale>  0 0.14281540E+04</rscale>
<asrwt>0</asrwt>
<pdfrwt beam="1">  1        1 0.11196769E+00 0.14281540E+04</pdfrwt>
<pdfrwt beam="2">  1       -1 0.10778806E+00 0.14281540E+04</pdfrwt>
<totfact> 0.20000020E+01</totfact>
</mgrwt>
</event>
<event>
12    1  0.1921443E-007  0.1406273E+04  0.7818608E-02  0.8949291E-01
         -1   -1    0    0    0  501 -0.00000000000E+00  0.00000000000E+00  0.24400317382E+03  0.24400317382E+03  0.00000000000E+00 0. -1.
          1   -1    0    0  501    0  0.00000000000E+00 -0.00000000000E+00 -0.20262062291E+04  0.20262062291E+04  0.00000000000E+00 0.  1.
         23    2    1    2    0    0 -0.12827590031E+03 -0.28694128189E+03 -0.73747107623E+02  0.33543911918E+03  0.91053615747E+02 0.  0.
        254    2    1    2    0    0  0.12827590031E+03  0.28694128189E+03 -0.17084559477E+04  0.19347702838E+04  0.85189454741E+03 0.  0.
        -24    2    4    4    0    0 -0.37042939543E+02  0.54392451462E+03 -0.13423431336E+04  0.14510482727E+04  0.80186934510E+02 0.  0.
         24    2    4    4    0    0  0.16531883985E+03 -0.25698323273E+03 -0.36611281413E+03  0.48372201108E+03  0.81102963101E+02 0.  0.
         11    1    3    3    0    0 -0.36098950828E+02 -0.65006303157E+02  0.20771645409E+02  0.77203723706E+02  0.00000000000E+00 0. -1.
        -11    1    3    3    0    0 -0.92176949479E+02 -0.22193497873E+03 -0.94518753032E+02  0.25823539547E+03  0.00000000000E+00 0.  1.
          2    1    6    6  502    0  0.10892096748E+03 -0.20855942324E+03 -0.23226099227E+03  0.33061454704E+03  0.00000000000E+00 0. -1.
          3    1    5    5  503    0  0.16520878485E+01  0.37935880138E+03 -0.99158724381E+03  0.10616784314E+04  0.00000000000E+00 0. -1.
         -2    1    5    5    0  503 -0.38695027392E+02  0.16456571324E+03 -0.35075588975E+03  0.38936984130E+03  0.00000000000E+00 0.  1.
         -1    1    6    6    0  502  0.56397872367E+02 -0.48423809487E+02 -0.13385182185E+03  0.15310746404E+03  0.00000000000E+00 0.  1.
<mgrwt>
<rscale>  0 0.14062727E+04</rscale>
<asrwt>0</asrwt>
<pdfrwt beam="1">  1        1 0.31172401E+00 0.14062727E+04</pdfrwt>
<pdfrwt beam="2">  1       -1 0.37538953E-01 0.14062727E+04</pdfrwt>
<totfact> 0.19082684E+01</totfact>
</mgrwt>
</event>
<event>
12    1  0.1663913E-007  0.1860528E+04  0.7818608E-02  0.8674757E-01
          2   -1    0    0  501    0  0.00000000000E+00  0.00000000000E+00  0.45771338312E+03  0.45771338312E+03  0.00000000000E+00 0.  1.
         -2   -1    0    0    0  501 -0.00000000000E+00 -0.00000000000E+00 -0.18906839985E+04  0.18906839985E+04  0.00000000000E+00 0. -1.
         23    2    1    2    0    0  0.50541560851E+03  0.42681447883E+03 -0.22758795551E+03  0.70542161925E+03  0.90597167402E+02 0.  0.
        254    2    1    2    0    0 -0.50541560851E+03 -0.42681447883E+03 -0.12053826599E+04  0.16429757624E+04  0.89933667912E+03 0.  0.
        -24    2    4    4    0    0 -0.29343895939E+01 -0.15154466016E+03  0.11342774373E+03  0.20283492442E+03  0.72813177745E+02 0.  0.
         24    2    4    4    0    0 -0.50248121892E+03 -0.27526981867E+03 -0.13188104036E+04  0.14401408380E+04  0.80522692977E+02 0.  0.
         13    1    3    3    0    0  0.13499166306E+02 -0.25789379679E+00  0.39358937910E+01  0.14063614759E+02  0.00000000000E+00 0. -1.
        -13    1    3    3    0    0  0.49191644221E+03  0.42707237263E+03 -0.23152384930E+03  0.69135800449E+03  0.00000000000E+00 0.  1.
          2    1    6    6  502    0 -0.28709039899E+03 -0.13192637357E+03 -0.80714476874E+03  0.86678033143E+03  0.00000000000E+00 0. -1.
          3    1    5    5  503    0 -0.14907998902E+02 -0.15240116615E+03  0.11386385472E+03  0.19082280075E+03  0.00000000000E+00 0. -1.
         -4    1    5    5    0  503  0.11973609308E+02  0.85650598672E+00 -0.43611099088E+00  0.12012123674E+02  0.00000000000E+00 0.  1.
         -1    1    6    6    0  502 -0.21539081993E+03 -0.14334344510E+03 -0.51166563487E+03  0.57336050655E+03  0.00000000000E+00 0.  1.
<mgrwt>
<rscale>  0 0.18605283E+04</rscale>
<asrwt>0</asrwt>
<pdfrwt beam="1">  1        2 0.70417444E-01 0.18605283E+04</pdfrwt>
<pdfrwt beam="2">  1       -2 0.29087446E+00 0.18605283E+04</pdfrwt>
<totfact> 0.23186343E+00</totfact>
</mgrwt>
</event>
<event>
12    1  0.1663913E-007  0.1214886E+04  0.7818608E-02  0.9099926E-01
         -2   -1    0    0    0  501 -0.00000000000E+00  0.00000000000E+00  0.22566647479E+03  0.22566647479E+03  0.00000000000E+00 0.  1.
          2   -1    0    0  501    0  0.00000000000E+00 -0.00000000000E+00 -0.16350987481E+04  0.16350987481E+04  0.00000000000E+00 0. -1.
         23    2    1    2    0    0 -0.11824135234E+03  0.21103695525E+03 -0.15359512866E+03  0.29905834370E+03  0.85596819475E+02 0.  0.
        254    2    1    2    0    0  0.11824135234E+03 -0.21103695525E+03 -0.12558371447E+04  0.15617068792E+04  0.89626102713E+03 0.  0.
        -24    2    4    4    0    0 -0.27920424572E+03  0.15611062504E+02 -0.97824109330E+03  0.10207391652E+04  0.82183274720E+02 0.  0.
         24    2    4    4    0    0  0.39744559806E+03 -0.22664801775E+03 -0.27759605138E+03  0.54096771403E+03  0.79083326364E+02 0.  0.
         11    1    3    3    0    0  0.12722082141E+02  0.14298813527E+02 -0.46416602912E+01  0.19693969954E+02  0.00000000000E+00 0. -1.
        -11    1    3    3    0    0 -0.13096343448E+03  0.19673814172E+03 -0.14895346837E+03  0.27936437375E+03  0.00000000000E+00 0.  1.
          2    1    6    6  502    0  0.15790278353E+02 -0.31232032179E+02 -0.28138287950E+02  0.44905856781E+02  0.00000000000E+00 0. -1.
          1    1    5    5  503    0 -0.57907245938E+02  0.24921848317E+02 -0.13667842649E+03  0.15051690909E+03  0.00000000000E+00 0. -1.
         -2    1    5    5    0  503 -0.22129699978E+03 -0.93107858124E+01 -0.84156266682E+03  0.87022225611E+03  0.00000000000E+00 0.  1.
         -1    1    6    6    0  502  0.38165531970E+03 -0.19541598557E+03 -0.24945776343E+03  0.49606185724E+03  0.00000000000E+00 0.  1.
<mgrwt>
<rscale>  0 0.12148860E+04</rscale>
<asrwt>0</asrwt>
<pdfrwt beam="1">  1        2 0.25155366E+00 0.12148860E+04</pdfrwt>
<pdfrwt beam="2">  1       -2 0.34717919E-01 0.12148860E+04</pdfrwt>
<totfact> 0.81726590E+01</totfact>
</mgrwt>
</event>
<event>
12    1  0.1663913E-007  0.1724362E+04  0.7818608E-02  0.8747591E-01
         -2   -1    0    0    0  501 -0.00000000000E+00  0.00000000000E+00  0.76703408754E+03  0.76703408754E+03  0.00000000000E+00 0.  1.
          2   -1    0    0  501    0  0.00000000000E+00 -0.00000000000E+00 -0.96913024768E+03  0.96913024768E+03  0.00000000000E+00 0. -1.
         23    2    1    2    0    0  0.20106068297E+03  0.57804285473E+03  0.75523142109E+02  0.62353164229E+03  0.92352714098E+02 0.  0.
        254    2    1    2    0    0 -0.20106068297E+03 -0.57804285473E+03 -0.27761930225E+03  0.11126326929E+04  0.88674691556E+03 0.  0.
        -24    2    4    4    0    0  0.93276791173E+02  0.14102779484E+03  0.13323783406E+03  0.23012673069E+03  0.81342443183E+02 0.  0.
         24    2    4    4    0    0 -0.29433747415E+03 -0.71907064957E+03 -0.41085713632E+03  0.88250596224E+03  0.79473512412E+02 0.  0.
         13    1    3    3    0    0  0.10522838665E+03  0.26530838718E+03 -0.95030765774E+01  0.28557286658E+03  0.00000000000E+00 0. -1.
        -13    1    3    3    0    0  0.95832296323E+02  0.31273446755E+03  0.85026218686E+02  0.33795877571E+03  0.00000000000E+00 0.  1.
          4    1    6    6  502    0 -0.78422671277E+01 -0.49695966668E+02 -0.45672628021E+02  0.67949828602E+02  0.00000000000E+00 0. -1.
          3    1    5    5  503    0  0.46592687786E+02  0.12779509578E+03  0.11555823235E+03  0.17848296872E+03  0.00000000000E+00 0. -1.
         -4    1    5    5    0  503  0.46684103386E+02  0.13232699061E+02  0.17679601719E+02  0.51643761969E+02  0.00000000000E+00 0.  1.
         -3    1    6    6    0  502 -0.28649520702E+03 -0.66937468290E+03 -0.36518450830E+03  0.81455613364E+03  0.00000000000E+00 0.  1.
<mgrwt>
<rscale>  0 0.17243618E+04</rscale>
<asrwt>0</asrwt>
<pdfrwt beam="1">  1        2 0.14909696E+00 0.17243618E+04</pdfrwt>
<pdfrwt beam="2">  1       -2 0.11800524E+00 0.17243618E+04</pdfrwt>
<totfact> 0.13867098E+01</totfact>
</mgrwt>
</event>
<event>
12    1  0.1663913E-007  0.2587259E+04  0.7818608E-02  0.8372542E-01
          2   -1    0    0  501    0  0.00000000000E+00  0.00000000000E+00  0.46734664006E+04  0.46734664006E+04  0.00000000000E+00 0. -1.
         -2   -1    0    0    0  501 -0.00000000000E+00 -0.00000000000E+00 -0.35808045903E+03  0.35808045903E+03  0.00000000000E+00 0.  1.
         23    2    1    2    0    0 -0.10987445415E+04 -0.19459310076E+03  0.17137609788E+04  0.20474091909E+04  0.99003334885E+02 0.  0.
        254    2    1    2    0    0  0.10987445415E+04  0.19459310076E+03  0.26016249628E+04  0.29841376687E+04  0.94420291055E+03 0.  0.
        -24    2    4    4    0    0 -0.12196217214E+02  0.20640992287E+03  0.10543149149E+04  0.10774611040E+04  0.81170727558E+02 0.  0.
         24    2    4    4    0    0  0.11109407588E+04 -0.11816822109E+02  0.15473100479E+04  0.19066765646E+04  0.83175303328E+02 0.  0.
         11    1    3    3    0    0 -0.10800246069E+04 -0.20136594505E+03  0.16959050984E+04  0.20206670923E+04  0.00000000000E+00 0. -1.
        -11    1    3    3    0    0 -0.18719934667E+02  0.67728442911E+01  0.17855880419E+02  0.26742098633E+02  0.00000000000E+00 0.  1.
          2    1    6    6  502    0  0.78364361554E+03 -0.34151216991E+02  0.10425037707E+04  0.13046370122E+04  0.00000000000E+00 0. -1.
          1    1    5    5  503    0  0.30656215338E+01  0.12610018974E+03  0.81174942775E+03  0.82149119858E+03  0.00000000000E+00 0. -1.
         -2    1    5    5    0  503 -0.15261838747E+02  0.80309733128E+02  0.24256548714E+03  0.25596990547E+03  0.00000000000E+00 0.  1.
         -1    1    6    6    0  502  0.32729714321E+03  0.22334394882E+02  0.50480627720E+03  0.60203955239E+03  0.00000000000E+00 0.  1.
<mgrwt>
<rscale>  0 0.25872588E+04</rscale>
<asrwt>0</asrwt>
<pdfrwt beam="1">  1        2 0.71899478E+00 0.25872588E+04</pdfrwt>
<pdfrwt beam="2">  1       -2 0.55089305E-01 0.25872588E+04</pdfrwt>
<totfact> 0.22596532E-01</totfact>
</mgrwt>
</event>
<event>
12    1  0.1663913E-007  0.2705237E+04  0.7818608E-02  0.8333308E-01
          2   -1    0    0  501    0  0.00000000000E+00  0.00000000000E+00  0.20704036576E+04  0.20704036576E+04  0.00000000000E+00 0. -1.
         -2   -1    0    0    0  501 -0.00000000000E+00 -0.00000000000E+00 -0.88368146871E+03  0.88368146871E+03  0.00000000000E+00 0.  1.
         23    2    1    2    0    0 -0.57664289052E+02 -0.98541247960E+03  0.12743276781E+04  0.16145873434E+04  0.92834977322E+02 0.  0.
        254    2    1    2    0    0  0.57664289052E+02  0.98541247960E+03 -0.87605489232E+02  0.13394977829E+04  0.90123063836E+03 0.  0.
        -24    2    4    4    0    0  0.12445617098E+03  0.79446079661E+03  0.32670522795E+03  0.87164449371E+03  0.79815547322E+02 0.  0.
         24    2    4    4    0    0 -0.66791881930E+02  0.19095168299E+03 -0.41431071718E+03  0.46785328921E+03  0.79433173921E+02 0.  0.
         13    1    3    3    0    0  0.62196890883E+01 -0.57377600991E+02  0.46191594812E+02  0.73922507122E+02  0.00000000000E+00 0.  1.
        -13    1    3    3    0    0 -0.63883978141E+02 -0.92803487861E+03  0.12281360833E+04  0.15406648362E+04  0.00000000000E+00 0. -1.
          4    1    6    6  502    0 -0.27294303929E+01 -0.33751297232E+01  0.13618646652E+01  0.45492819526E+01  0.00000000000E+00 0. -1.
          1    1    5    5  503    0  0.52042787673E+02  0.36343701823E+03  0.10672039265E+03  0.38234037215E+03  0.00000000000E+00 0. -1.
         -2    1    5    5    0  503  0.72413383309E+02  0.43102377838E+03  0.21998483530E+03  0.48930412156E+03  0.00000000000E+00 0.  1.
         -3    1    6    6    0  502 -0.64062451537E+02  0.19432681271E+03 -0.41567258185E+03  0.46330400725E+03  0.00000000000E+00 0.  1.
<mgrwt>
<rscale>  0 0.27052374E+04</rscale>
<asrwt>0</asrwt>
<pdfrwt beam="1">  1        2 0.31852364E+00 0.27052374E+04</pdfrwt>
<pdfrwt beam="2">  1       -2 0.13595100E+00 0.27052374E+04</pdfrwt>
<totfact> 0.20741245E+00</totfact>
</mgrwt>
</event>
<event>
12    1  0.1663913E-007  0.1514591E+04  0.7818608E-02  0.8874808E-01
          1   -1    0    0  501    0  0.00000000000E+00  0.00000000000E+00  0.46926846687E+03  0.46926846687E+03  0.00000000000E+00 0. -1.
         -1   -1    0    0    0  501 -0.00000000000E+00 -0.00000000000E+00 -0.12221075696E+04  0.12221075696E+04  0.00000000000E+00 0.  1.
         23    2    1    2    0    0 -0.45403747075E+02  0.13914601102E+03  0.26999609894E+03  0.32091569157E+03  0.93090681709E+02 0.  0.
        254    2    1    2    0    0  0.45403747075E+02 -0.13914601102E+03 -0.10228352017E+04  0.13704603449E+04  0.90030361242E+03 0.  0.
        -24    2    4    4    0    0 -0.38549617724E+03 -0.97504877358E+02 -0.75061017326E+03  0.85308991510E+03  0.78944710231E+02 0.  0.
         24    2    4    4    0    0  0.43089992431E+03 -0.41641133662E+02 -0.27222502842E+03  0.51737042980E+03  0.78466341525E+02 0.  0.
         11    1    3    3    0    0 -0.69112157306E+02  0.11697330801E+03  0.18197259333E+03  0.22709748964E+03  0.00000000000E+00 0. -1.
        -11    1    3    3    0    0  0.23708410230E+02  0.22172703006E+02  0.88023505612E+02  0.93818201936E+02  0.00000000000E+00 0.  1.
          2    1    6    6  502    0  0.31848825355E+02 -0.14348227552E+02 -0.26650834405E+01  0.35033155441E+02  0.00000000000E+00 0. -1.
          3    1    5    5  503    0 -0.16547293953E+03 -0.30552227304E+02 -0.39796561301E+03  0.43207795760E+03  0.00000000000E+00 0. -1.
         -4    1    5    5    0  503 -0.22002323771E+03 -0.66952650055E+02 -0.35264456025E+03  0.42101195750E+03  0.00000000000E+00 0.  1.
         -1    1    6    6    0  502  0.39905109896E+03 -0.27292906110E+02 -0.26955994498E+03  0.48233727436E+03  0.00000000000E+00 0.  1.
<mgrwt>
<rscale>  0 0.15145911E+04</rscale>
<asrwt>0</asrwt>
<pdfrwt beam="1">  1        1 0.72195149E-01 0.15145911E+04</pdfrwt>
<pdfrwt beam="2">  1       -1 0.18801655E+00 0.15145911E+04</pdfrwt>
<totfact> 0.85251333E+00</totfact>
</mgrwt>
</event>
<event>
12    1  0.1663913E-007  0.2826056E+04  0.7818608E-02  0.8295224E-01
          1   -1    0    0  501    0  0.00000000000E+00  0.00000000000E+00  0.33349646448E+04  0.33349646448E+04  0.00000000000E+00 0. -1.
         -1   -1    0    0    0  501 -0.00000000000E+00 -0.00000000000E+00 -0.59870162887E+03  0.59870162887E+03  0.00000000000E+00 0.  1.
         23    2    1    2    0    0 -0.81672930916E+03  0.25604185521E+02 -0.72586359799E+02  0.82563652079E+03  0.93298156867E+02 0.  0.
        254    2    1    2    0    0  0.81672930916E+03 -0.25604185521E+02  0.28088493757E+04  0.31080297529E+04  0.10500056145E+04 0.  0.
        -24    2    4    4    0    0  0.63531783423E+03  0.11076190662E+03  0.27917002294E+04  0.28663374974E+04  0.80022046061E+02 0.  0.
         24    2    4    4    0    0  0.18141147493E+03 -0.13636609214E+03  0.17149146320E+02  0.24169225544E+03  0.81333995344E+02 0.  0.
         13    1    3    3    0    0 -0.72644021179E+03  0.26114472151E+02 -0.34752448315E+02  0.72773970595E+03  0.00000000000E+00 0. -1.
        -13    1    3    3    0    0 -0.90289097373E+02 -0.51028663059E+00 -0.37833911483E+02  0.97896814836E+02  0.00000000000E+00 0.  1.
          2    1    6    6  502    0  0.46550528964E+02 -0.81611715307E+02  0.20228142327E+02  0.96107239915E+02  0.00000000000E+00 0. -1.
          1    1    5    5  503    0  0.36439677396E+03  0.98272447215E+02  0.15368752452E+04  0.15825384678E+04  0.00000000000E+00 0. -1.
         -2    1    5    5    0  503  0.27092106027E+03  0.12489459407E+02  0.12548249842E+04  0.12837990296E+04  0.00000000000E+00 0.  1.
         -1    1    6    6    0  502  0.13486094596E+03 -0.54754376835E+02 -0.30789960066E+01  0.14558501553E+03  0.00000000000E+00 0.  1.
<mgrwt>
<rscale>  0 0.28260565E+04</rscale>
<asrwt>0</asrwt>
<pdfrwt beam="1">  1        1 0.51307148E+00 0.28260565E+04</pdfrwt>
<pdfrwt beam="2">  1       -1 0.92107944E-01 0.28260565E+04</pdfrwt>
<totfact> 0.33267153E-01</totfact>
</mgrwt>
</event>
<event>
12    1  0.1663913E-007  0.2172760E+04  0.7818608E-02  0.8529852E-01
          2   -1    0    0  501    0  0.00000000000E+00  0.00000000000E+00  0.16980222247E+04  0.16980222247E+04  0.00000000000E+00 0. -1.
         -2   -1    0    0    0  501 -0.00000000000E+00 -0.00000000000E+00 -0.69505633358E+03  0.69505633358E+03  0.00000000000E+00 0.  1.
         23    2    1    2    0    0 -0.79921499764E+03  0.11199445652E+03  0.87062909736E+03  0.11908376779E+04  0.93872142942E+02 0.  0.
        254    2    1    2    0    0  0.79921499764E+03 -0.11199445652E+03  0.13233679375E+03  0.12022408804E+04  0.88123931863E+03 0.  0.
        -24    2    4    4    0    0  0.21554256719E+01  0.26344546083E+03 -0.90947452704E+02  0.28984281839E+03  0.79556668653E+02 0.  0.
         24    2    4    4    0    0  0.79705957197E+03 -0.37543991735E+03  0.22328424646E+03  0.91239806198E+03  0.79719984841E+02 0.  0.
         13    1    3    3    0    0 -0.47787702206E+03  0.47154365065E+02  0.57765991852E+03  0.75118637090E+03  0.00000000000E+00 0. -1.
        -13    1    3    3    0    0 -0.32133797558E+03  0.64840091458E+02  0.29296917885E+03  0.43965130702E+03  0.00000000000E+00 0.  1.
          2    1    6    6  502    0  0.57456800763E+03 -0.24023768014E+03  0.18180340427E+03  0.64876422232E+03  0.00000000000E+00 0. -1.
          3    1    5    5  503    0 -0.23608179406E+02  0.18463611587E+03 -0.33904229657E+02  0.18920184515E+03  0.00000000000E+00 0. -1.
         -4    1    5    5    0  503  0.25763605078E+02  0.78809344958E+02 -0.57043223047E+02  0.10064097324E+03  0.00000000000E+00 0.  1.
         -1    1    6    6    0  502  0.22249156434E+03 -0.13520223721E+03  0.41480842187E+02  0.26363383966E+03  0.00000000000E+00 0.  1.
<mgrwt>
<rscale>  0 0.21727596E+04</rscale>
<asrwt>0</asrwt>
<pdfrwt beam="1">  1        2 0.26123419E+00 0.21727596E+04</pdfrwt>
<pdfrwt beam="2">  1       -2 0.10693174E+00 0.21727596E+04</pdfrwt>
<totfact> 0.63369361E+00</totfact>
</mgrwt>
</event>
<event>
12    1  0.1663913E-007  0.1368290E+04  0.7818608E-02  0.8977097E-01
          1   -1    0    0  501    0  0.00000000000E+00  0.00000000000E+00  0.68554905544E+03  0.68554905544E+03  0.00000000000E+00 0. -1.
         -1   -1    0    0    0  501 -0.00000000000E+00 -0.00000000000E+00 -0.68274365413E+03  0.68274365413E+03  0.00000000000E+00 0.  1.
         23    2    1    2    0    0 -0.79560124906E+02 -0.35429420199E+03 -0.10607427194E+03  0.38916847201E+03  0.91357284328E+02 0.  0.
        254    2    1    2    0    0  0.79560124906E+02  0.35429420199E+03  0.10887967325E+03  0.97912423757E+03  0.90275982094E+03 0.  0.
        -24    2    4    4    0    0  0.23452227139E+03 -0.24071409336E+03  0.98196595875E+02  0.35901754072E+03  0.79416954030E+02 0.  0.
         24    2    4    4    0    0 -0.15496214648E+03  0.59500829535E+03  0.10683077371E+02  0.62010669684E+03  0.79812586416E+02 0.  0.
         11    1    3    3    0    0 -0.56398955081E+02 -0.96825380355E+02 -0.58192166495E+02  0.12626291877E+03  0.00000000000E+00 0.  1.
        -11    1    3    3    0    0 -0.23161169825E+02 -0.25746882163E+03 -0.47882105442E+02  0.26290555324E+03  0.00000000000E+00 0. -1.
          4    1    6    6  502    0 -0.64175385267E+01  0.23861063658E+01  0.60452614743E+01  0.91336460750E+01  0.00000000000E+00 0. -1.
          1    1    5    5  503    0 -0.16262856310E+00 -0.73230405214E+01 -0.85406488618E+01  0.11251491168E+02  0.00000000000E+00 0. -1.
         -2    1    5    5    0  503  0.23468489995E+03 -0.23339105284E+03  0.10673724474E+03  0.34776604956E+03  0.00000000000E+00 0.  1.
         -1    1    6    6    0  502 -0.14854460795E+03  0.59262218899E+03  0.46378158970E+01  0.61097305077E+03  0.00000000000E+00 0.  1.
<mgrwt>
<rscale>  0 0.13682898E+04</rscale>
<asrwt>0</asrwt>
<pdfrwt beam="1">  1        1 0.10546909E+00 0.13682898E+04</pdfrwt>
<pdfrwt beam="2">  1       -1 0.10503748E+00 0.13682898E+04</pdfrwt>
<totfact> 0.23392256E+01</totfact>
</mgrwt>
</event>
<event>
12    1  0.1663913E-007  0.1630097E+04  0.7818608E-02  0.8802269E-01
         -2   -1    0    0    0  501 -0.00000000000E+00  0.00000000000E+00  0.21261403249E+03  0.21261403249E+03  0.00000000000E+00 0.  1.
          2   -1    0    0  501    0  0.00000000000E+00 -0.00000000000E+00 -0.31244600133E+04  0.31244600133E+04  0.00000000000E+00 0. -1.
         23    2    1    2    0    0  0.42064077960E+02 -0.54272860187E+03 -0.13050935175E+04  0.14179223861E+04  0.10445612265E+03 0.  0.
        254    2    1    2    0    0 -0.42064077960E+02  0.54272860187E+03 -0.16067524633E+04  0.19191516597E+04  0.89731036587E+03 0.  0.
        -24    2    4    4    0    0  0.35156855705E+03  0.35178893647E+03 -0.43392831701E+03  0.66484228144E+03  0.79784514535E+02 0.  0.
         24    2    4    4    0    0 -0.39363263501E+03  0.19093966540E+03 -0.11728241463E+04  0.12543093783E+04  0.79818112689E+02 0.  0.
         11    1    3    3    0    0  0.10744253223E+02 -0.37542250722E+02 -0.42836786246E+02  0.57964211566E+02  0.00000000000E+00 0.  1.
        -11    1    3    3    0    0  0.31319824737E+02 -0.50518635115E+03 -0.12622567312E+04  0.13599581745E+04  0.00000000000E+00 0. -1.
          4    1    6    6  502    0 -0.15190860370E+02  0.29579807907E+02 -0.93299710216E+02  0.99048287219E+02  0.00000000000E+00 0. -1.
          1    1    5    5  503    0  0.81025763798E+02  0.41159408109E+02 -0.63620816089E+02  0.11093637598E+03  0.00000000000E+00 0. -1.
         -2    1    5    5    0  503  0.27054279325E+03  0.31062952836E+03 -0.37030750092E+03  0.55390590547E+03  0.00000000000E+00 0.  1.
         -3    1    6    6    0  502 -0.37844177464E+03  0.16135985750E+03 -0.10795244361E+04  0.11552610911E+04  0.00000000000E+00 0.  1.
<mgrwt>
<rscale>  0 0.16300970E+04</rscale>
<asrwt>0</asrwt>
<pdfrwt beam="1">  1        2 0.48068614E+00 0.16300970E+04</pdfrwt>
<pdfrwt beam="2">  1       -2 0.32709852E-01 0.16300970E+04</pdfrwt>
<totfact> 0.12184824E+01</totfact>
</mgrwt>
</event>
<event>
12    1  0.1663913E-007  0.2007365E+04  0.7818608E-02  0.8603185E-01
         -2   -1    0    0    0  501 -0.00000000000E+00  0.00000000000E+00  0.10396360014E+04  0.10396360014E+04  0.00000000000E+00 0.  1.
          2   -1    0    0  501    0  0.00000000000E+00 -0.00000000000E+00 -0.96897253764E+03  0.96897253764E+03  0.00000000000E+00 0. -1.
         23    2    1    2    0    0  0.51594531989E+03 -0.29346487835E+03  0.56111293033E+03  0.82340634626E+03  0.10406287784E+03 0.  0.
        254    2    1    2    0    0 -0.51594531989E+03  0.29346487835E+03 -0.49044946659E+03  0.11852021928E+04  0.90102294671E+03 0.  0.
        -24    2    4    4    0    0 -0.68006206238E+03 -0.11767044195E+02 -0.46546929221E+03  0.82851754899E+03  0.84597842628E+02 0.  0.
         24    2    4    4    0    0  0.16411674249E+03  0.30523192255E+03 -0.24980174385E+02  0.35668464377E+03  0.80616960257E+02 0.  0.
         11    1    3    3    0    0  0.69899696300E+02 -0.85609838444E+02  0.10294840657E+03  0.15104100899E+03  0.00000000000E+00 0. -1.
        -11    1    3    3    0    0  0.44604562359E+03 -0.20785503991E+03  0.45816452375E+03  0.67236533727E+03  0.00000000000E+00 0.  1.
          4    1    6    6  502    0  0.37917083172E+02  0.15514978223E+03 -0.12020985407E+02  0.16016761287E+03  0.00000000000E+00 0. -1.
          1    1    5    5  503    0 -0.14164303071E+02 -0.86413826100E+00 -0.28893743570E+02  0.32190412143E+02  0.00000000000E+00 0. -1.
         -2    1    5    5    0  503 -0.66589775931E+03 -0.10902905934E+02 -0.43657554864E+03  0.79632713684E+03  0.00000000000E+00 0.  1.
         -3    1    6    6    0  502  0.12619965932E+03  0.15008214031E+03 -0.12959188978E+02  0.19651703090E+03  0.00000000000E+00 0.  1.
<mgrwt>
<rscale>  0 0.20073652E+04</rscale>
<asrwt>0</asrwt>
<pdfrwt beam="1">  1        2 0.14907270E+00 0.20073652E+04</pdfrwt>
<pdfrwt beam="2">  1       -2 0.15994400E+00 0.20073652E+04</pdfrwt>
<totfact> 0.61751567E+00</totfact>
</mgrwt>
</event>
<event>
12    1  0.1663913E-007  0.1716965E+04  0.7818608E-02  0.8751747E-01
          1   -1    0    0  501    0  0.00000000000E+00  0.00000000000E+00  0.33171849787E+04  0.33171849787E+04  0.00000000000E+00 0. -1.
         -1   -1    0    0    0  501 -0.00000000000E+00 -0.00000000000E+00 -0.22217401991E+03  0.22217401991E+03  0.00000000000E+00 0.  1.
         23    2    1    2    0    0  0.97459143495E+02  0.55342194578E+03  0.16449765360E+04  0.17408576806E+04  0.94146296964E+02 0.  0.
        254    2    1    2    0    0 -0.97459143495E+02 -0.55342194578E+03  0.14500344227E+04  0.17985013180E+04  0.90345615779E+03 0.  0.
        -24    2    4    4    0    0 -0.38307240235E+03 -0.44857575926E+03  0.43900764501E+03  0.73966490871E+03  0.80073638429E+02 0.  0.
         24    2    4    4    0    0  0.28561325885E+03 -0.10484618652E+03  0.10110267777E+04  0.10588364093E+04  0.79948357783E+02 0.  0.
         11    1    3    3    0    0  0.38603174868E+02  0.33657806335E+03  0.85894347686E+03  0.92334115812E+03  0.00000000000E+00 0. -1.
        -11    1    3    3    0    0  0.58855968627E+02  0.21684388243E+03  0.78603305919E+03  0.81751652248E+03  0.00000000000E+00 0.  1.
          2    1    6    6  502    0  0.69239175971E+02  0.51515763306E+01  0.17448544466E+03  0.18779183322E+03  0.00000000000E+00 0. -1.
          3    1    5    5  503    0 -0.19193032459E+03 -0.22776820117E+03  0.27130929860E+03  0.40289494719E+03  0.00000000000E+00 0. -1.
         -4    1    5    5    0  503 -0.19114207776E+03 -0.22080755808E+03  0.16769834640E+03  0.33676996152E+03  0.00000000000E+00 0.  1.
         -1    1    6    6    0  502  0.21637408288E+03 -0.10999776285E+03  0.83654133308E+03  0.87104457609E+03  0.00000000000E+00 0.  1.
<mgrwt>
<rscale>  0 0.17169651E+04</rscale>
<asrwt>0</asrwt>
<pdfrwt beam="1">  1        1 0.51033611E+00 0.17169651E+04</pdfrwt>
<pdfrwt beam="2">  1       -1 0.34180621E-01 0.17169651E+04</pdfrwt>
<totfact> 0.26822412E+00</totfact>
</mgrwt>
</event>
<event>
12    1  0.1663913E-007  0.2185908E+04  0.7818608E-02  0.8524316E-01
          2   -1    0    0  501    0  0.00000000000E+00  0.00000000000E+00  0.10050118446E+04  0.10050118446E+04  0.00000000000E+00 0. -1.
         -2   -1    0    0    0  501 -0.00000000000E+00 -0.00000000000E+00 -0.11885914361E+04  0.11885914361E+04  0.00000000000E+00 0.  1.
         23    2    1    2    0    0  0.12308902803E+03 -0.49617035284E+03  0.67637346331E+03  0.85223240950E+03  0.86504855752E+02 0.  0.
        254    2    1    2    0    0 -0.12308902803E+03  0.49617035284E+03 -0.85995305478E+03  0.13413708712E+04  0.89354386005E+03 0.  0.
        -24    2    4    4    0    0  0.13331434855E+03  0.30519643893E+03  0.74626564615E+02  0.35036715866E+03  0.79186108970E+02 0.  0.
         24    2    4    4    0    0 -0.25640337658E+03  0.19097391391E+03 -0.93457961940E+03  0.99100371255E+03  0.80221979387E+02 0.  0.
         11    1    3    3    0    0  0.13451353429E+03 -0.41086651787E+03  0.56980699661E+03  0.71525184362E+03  0.00000000000E+00 0. -1.
        -11    1    3    3    0    0 -0.11424506255E+02 -0.85303834969E+02  0.10656646670E+03  0.13698056588E+03  0.00000000000E+00 0.  1.
          4    1    6    6  502    0 -0.18129819924E+03  0.14034330207E+03 -0.54944523983E+03  0.59536152970E+03  0.00000000000E+00 0. -1.
          1    1    5    5  503    0  0.12858876163E+03  0.23290843660E+03  0.36607952584E+02  0.26855455991E+03  0.00000000000E+00 0. -1.
         -2    1    5    5    0  503  0.47255869206E+01  0.72288002334E+02  0.38018612031E+02  0.81812598748E+02  0.00000000000E+00 0.  1.
         -3    1    6    6    0  502 -0.75105177342E+02  0.50630611838E+02 -0.38513437957E+03  0.39564218284E+03  0.00000000000E+00 0.  1.
<mgrwt>
<rscale>  0 0.21859080E+04</rscale>
<asrwt>0</asrwt>
<pdfrwt beam="1">  1        2 0.15461721E+00 0.21859080E+04</pdfrwt>
<pdfrwt beam="2">  1       -2 0.18286022E+00 0.21859080E+04</pdfrwt>
<totfact> 0.39639573E+00</totfact>
</mgrwt>
</event>
<event>
12    1  0.1663913E-007  0.1971772E+04  0.7818608E-02  0.8619933E-01
         -2   -1    0    0    0  501 -0.00000000000E+00  0.00000000000E+00  0.42060265767E+03  0.42060265767E+03  0.00000000000E+00 0.  1.
          2   -1    0    0  501    0  0.00000000000E+00 -0.00000000000E+00 -0.23109005836E+04  0.23109005836E+04  0.00000000000E+00 0. -1.
         23    2    1    2    0    0 -0.32636317833E+03  0.31572946574E+03 -0.16223479964E+04  0.16874110004E+04  0.95628673332E+02 0.  0.
        254    2    1    2    0    0  0.32636317833E+03 -0.31572946574E+03 -0.26794992955E+03  0.10440922409E+04  0.90118445560E+03 0.  0.
        -24    2    4    4    0    0  0.36984785541E+03 -0.55702701258E+03 -0.36784826143E+03  0.76708503908E+03  0.77721199414E+02 0.  0.
         24    2    4    4    0    0 -0.43484677075E+02  0.24129754685E+03  0.99898331889E+02  0.27700720180E+03  0.81473246409E+02 0.  0.
         13    1    3    3    0    0 -0.11177488858E+03  0.56714483802E+02 -0.51973761834E+03  0.53463758781E+03  0.00000000000E+00 0.  1.
        -13    1    3    3    0    0 -0.21458828975E+03  0.25901498193E+03 -0.11026103781E+04  0.11527734126E+04  0.00000000000E+00 0. -1.
          4    1    6    6  502    0 -0.50582688588E+02  0.83111614606E+02  0.57774183611E+02  0.11315478407E+03  0.00000000000E+00 0. -1.
          1    1    5    5  503    0  0.18269811624E+03 -0.28756935700E+03 -0.14377050804E+03  0.36979006983E+03  0.00000000000E+00 0. -1.
         -2    1    5    5    0  503  0.18714973917E+03 -0.26945765559E+03 -0.22407775339E+03  0.39729496925E+03  0.00000000000E+00 0.  1.
         -3    1    6    6    0  502  0.70980115124E+01  0.15818593224E+03  0.42124148279E+02  0.16385241772E+03  0.00000000000E+00 0.  1.
<mgrwt>
<rscale>  0 0.19717717E+04</rscale>
<asrwt>0</asrwt>
<pdfrwt beam="1">  1        2 0.35552315E+00 0.19717717E+04</pdfrwt>
<pdfrwt beam="2">  1       -2 0.64708104E-01 0.19717717E+04</pdfrwt>
<totfact> 0.91762952E+00</totfact>
</mgrwt>
</event>
<event>
12    1  0.1663913E-007  0.1342167E+04  0.7818608E-02  0.8996778E-01
         -1   -1    0    0    0  501 -0.00000000000E+00  0.00000000000E+00  0.58957220666E+03  0.58957220666E+03  0.00000000000E+00 0.  1.
          1   -1    0    0  501    0  0.00000000000E+00 -0.00000000000E+00 -0.76386469561E+03  0.76386469561E+03  0.00000000000E+00 0. -1.
         23    2    1    2    0    0  0.17571775838E+03 -0.24549618342E+03 -0.24799052567E+03  0.40131250919E+03  0.91691452867E+02 0.  0.
        254    2    1    2    0    0 -0.17571775838E+03  0.24549618342E+03  0.73698036725E+02  0.95212439307E+03  0.89998019566E+03 0.  0.
        -24    2    4    4    0    0 -0.27860238301E+03 -0.22153025103E+03 -0.17828814621E+03  0.40591329445E+03  0.79271682166E+02 0.  0.
         24    2    4    4    0    0  0.10288462463E+03  0.46702643445E+03  0.25198618293E+03  0.54621109862E+03  0.78425706293E+02 0.  0.
         11    1    3    3    0    0  0.18460134535E+03 -0.22214474796E+03 -0.23853252699E+03  0.37459806751E+03  0.00000000000E+00 0. -1.
        -11    1    3    3    0    0 -0.88835869677E+01 -0.23351435459E+02 -0.94579986842E+01  0.26714441685E+02  0.00000000000E+00 0.  1.
          4    1    6    6  502    0  0.10901318405E+03  0.46345226934E+03  0.24231754867E+03  0.53421875168E+03  0.00000000000E+00 0. -1.
          1    1    5    5  503    0 -0.18142065376E+03 -0.10698223492E+03 -0.74822393218E+02  0.22351072172E+03  0.00000000000E+00 0. -1.
         -2    1    5    5    0  503 -0.97181729248E+02 -0.11454801611E+03 -0.10346575299E+03  0.18240257273E+03  0.00000000000E+00 0.  1.
         -3    1    6    6    0  502 -0.61285594135E+01  0.35741651110E+01  0.96686342598E+01  0.11992346942E+02  0.00000000000E+00 0.  1.
<mgrwt>
<rscale>  0 0.13421675E+04</rscale>
<asrwt>0</asrwt>
<pdfrwt beam="1">  1        1 0.11751765E+00 0.13421675E+04</pdfrwt>
<pdfrwt beam="2">  1       -1 0.90703416E-01 0.13421675E+04</pdfrwt>
<totfact> 0.27686825E+01</totfact>
</mgrwt>
</event>
<event>
12    1  0.1663913E-007  0.1467954E+04  0.7818608E-02  0.8906047E-01
          2   -1    0    0  501    0  0.00000000000E+00  0.00000000000E+00  0.36588749548E+03  0.36588749548E+03  0.00000000000E+00 0. -1.
         -2   -1    0    0    0  501 -0.00000000000E+00 -0.00000000000E+00 -0.14723722157E+04  0.14723722157E+04  0.00000000000E+00 0.  1.
         23    2    1    2    0    0  0.13171300525E+03  0.74884662286E+02 -0.86311244220E+03  0.88108610916E+03  0.91616676906E+02 0.  0.
        254    2    1    2    0    0 -0.13171300525E+03 -0.74884662286E+02 -0.24337227806E+03  0.95717360204E+03  0.91323338217E+03 0.  0.
        -24    2    4    4    0    0  0.37065971607E+03  0.59861567787E+02 -0.20007214275E+02  0.38443555105E+03  0.80114741941E+02 0.  0.
         24    2    4    4    0    0 -0.50237272132E+03 -0.13474623007E+03 -0.22336506378E+03  0.57273805099E+03  0.87189596239E+02 0.  0.
         13    1    3    3    0    0 -0.11788080016E+02  0.24647468252E+01 -0.13012093651E+03  0.13067705202E+03  0.00000000000E+00 0. -1.
        -13    1    3    3    0    0  0.14350108526E+03  0.72419915461E+02 -0.73299150568E+03  0.75040905714E+03  0.00000000000E+00 0.  1.
          2    1    6    6  502    0 -0.36600436310E+03 -0.58141911693E+02 -0.16696098058E+03  0.40646727389E+03  0.00000000000E+00 0. -1.
          3    1    5    5  503    0  0.34240236320E+03  0.61855818274E+02  0.29753501778E+01  0.34795743028E+03  0.00000000000E+00 0. -1.
         -4    1    5    5    0  503  0.28257352866E+02 -0.19942504868E+01 -0.22982564453E+02  0.36478120769E+02  0.00000000000E+00 0.  1.
         -1    1    6    6    0  502 -0.13636835821E+03 -0.76604318380E+02 -0.56404083200E+02  0.16627077710E+03  0.00000000000E+00 0.  1.
<mgrwt>
<rscale>  0 0.14679545E+04</rscale>
<asrwt>0</asrwt>
<pdfrwt beam="1">  1        2 0.56290385E-01 0.14679545E+04</pdfrwt>
<pdfrwt beam="2">  1       -2 0.22651880E+00 0.14679545E+04</pdfrwt>
<totfact> 0.76529046E+00</totfact>
</mgrwt>
</event>
<event>
12    1  0.1663913E-007  0.1348441E+04  0.7818608E-02  0.8992009E-01
         -1   -1    0    0    0  501 -0.00000000000E+00  0.00000000000E+00  0.18138406686E+03  0.18138406686E+03  0.00000000000E+00 0.  1.
          1   -1    0    0  501    0  0.00000000000E+00 -0.00000000000E+00 -0.25061357773E+04  0.25061357773E+04  0.00000000000E+00 0. -1.
         23    2    1    2    0    0  0.12008606241E+03  0.33462859358E+03 -0.83262654861E+03  0.90989800547E+03  0.90832003634E+02 0.  0.
        254    2    1    2    0    0 -0.12008606241E+03 -0.33462859358E+03 -0.14921251619E+04  0.17776218387E+04  0.89839019632E+03 0.  0.
        -24    2    4    4    0    0  0.20183775435E+03 -0.11550917226E+03 -0.13235940347E+04  0.13463923150E+04  0.82402969019E+02 0.  0.
         24    2    4    4    0    0 -0.32192381676E+03 -0.21911942131E+03 -0.16853112720E+03  0.43122952374E+03  0.76862843553E+02 0.  0.
         11    1    3    3    0    0 -0.38246507029E+01  0.37316800140E+02 -0.42764825563E+02  0.56885866708E+02  0.00000000000E+00 0. -1.
        -11    1    3    3    0    0  0.12391071311E+03  0.29731179344E+03 -0.78986172305E+03  0.85301213876E+03  0.00000000000E+00 0.  1.
          2    1    6    6  502    0  0.45164565281E+01 -0.26503520895E+01 -0.24830711834E+01  0.57955490051E+01  0.00000000000E+00 0. -1.
          1    1    5    5  503    0  0.13456978553E+02 -0.36190218879E+02 -0.13763755171E+03  0.14295075325E+03  0.00000000000E+00 0. -1.
         -2    1    5    5    0  503  0.18838077580E+03 -0.79318953384E+02 -0.11859564830E+04  0.12034415617E+04  0.00000000000E+00 0.  1.
         -3    1    6    6    0  502 -0.32644027329E+03 -0.21646906922E+03 -0.16604805602E+03  0.42543397474E+03  0.00000000000E+00 0.  1.
<mgrwt>
<rscale>  0 0.13484407E+04</rscale>
<asrwt>0</asrwt>
<pdfrwt beam="1">  1        1 0.38555931E+00 0.13484407E+04</pdfrwt>
<pdfrwt beam="2">  1       -1 0.27905244E-01 0.13484407E+04</pdfrwt>
<totfact> 0.15272497E+01</totfact>
</mgrwt>
</event>
<event>
12    1  0.1663913E-007  0.1390643E+04  0.7818608E-02  0.8960620E-01
         -1   -1    0    0    0  501 -0.00000000000E+00  0.00000000000E+00  0.12978500191E+04  0.12978500191E+04  0.00000000000E+00 0.  1.
          1   -1    0    0  501    0  0.00000000000E+00 -0.00000000000E+00 -0.37251734468E+03  0.37251734468E+03  0.00000000000E+00 0. -1.
         23    2    1    2    0    0 -0.12583755673E+03  0.14818113079E+03 -0.13752224373E+03  0.25527744061E+03  0.91986227024E+02 0.  0.
        254    2    1    2    0    0  0.12583755673E+03 -0.14818113079E+03  0.10628549181E+04  0.14150899231E+04  0.91379766654E+03 0.  0.
        -24    2    4    4    0    0  0.40454013992E+03 -0.24136169450E+03  0.99391683063E+03  0.11026405036E+04  0.77699559666E+02 0.  0.
         24    2    4    4    0    0 -0.27870258319E+03  0.93180563711E+02  0.68938087470E+02  0.31244941953E+03  0.80712034576E+02 0.  0.
         13    1    3    3    0    0 -0.12021764211E+03  0.15196626944E+03 -0.10172965220E+03  0.21884915046E+03  0.00000000000E+00 0.  1.
        -13    1    3    3    0    0 -0.56199146142E+01 -0.37851386513E+01 -0.35792591529E+02  0.36428290150E+02  0.00000000000E+00 0. -1.
          4    1    6    6  502    0 -0.13088951666E+03  0.69159631014E+02  0.67475596880E+02  0.16269012357E+03  0.00000000000E+00 0. -1.
          3    1    5    5  503    0  0.17065526996E+03 -0.12163583774E+03  0.36216536887E+03  0.41842831237E+03  0.00000000000E+00 0. -1.
         -4    1    5    5    0  503  0.23388486996E+03 -0.11972585676E+03  0.63175146176E+03  0.68421219122E+03  0.00000000000E+00 0.  1.
         -3    1    6    6    0  502 -0.14781306654E+03  0.24020932697E+02  0.14624905901E+01  0.14975929595E+03  0.00000000000E+00 0.  1.
<mgrwt>
<rscale>  0 0.13906425E+04</rscale>
<asrwt>0</asrwt>
<pdfrwt beam="1">  1        1 0.57310361E-01 0.13906425E+04</pdfrwt>
<pdfrwt beam="2">  1       -1 0.19966923E+00 0.13906425E+04</pdfrwt>
<totfact> 0.97361225E+00</totfact>
</mgrwt>
</event>
<event>
12    1  0.1663913E-007  0.1678385E+04  0.7818608E-02  0.8773789E-01
          2   -1    0    0  501    0  0.00000000000E+00  0.00000000000E+00  0.19003599763E+04  0.19003599763E+04  0.00000000000E+00 0. -1.
         -2   -1    0    0    0  501 -0.00000000000E+00 -0.00000000000E+00 -0.37058470147E+03  0.37058470147E+03  0.00000000000E+00 0.  1.
         23    2    1    2    0    0 -0.16205038799E+03  0.46390756664E+03  0.10753883919E+03  0.51115840713E+03  0.90817160337E+02 0.  0.
        254    2    1    2    0    0  0.16205038799E+03 -0.46390756664E+03  0.14222364357E+04  0.17597862707E+04  0.91248050986E+03 0.  0.
        -24    2    4    4    0    0  0.16070026791E+03 -0.73310279614E+03  0.10516006283E+04  0.12946457113E+04  0.83542507253E+02 0.  0.
         24    2    4    4    0    0  0.13501200795E+01  0.26919522950E+03  0.37063580742E+03  0.46514055942E+03  0.80727590516E+02 0.  0.
         11    1    3    3    0    0 -0.13930644485E+03  0.37615875966E+03  0.51078358547E+02  0.40436455922E+03  0.00000000000E+00 0.  1.
        -11    1    3    3    0    0 -0.22743943139E+02  0.87748806986E+02  0.56460480643E+02  0.10679384791E+03  0.00000000000E+00 0. -1.
          4    1    6    6  502    0 -0.32324850437E+02  0.95548288027E+02  0.16995291627E+03  0.19763189280E+03  0.00000000000E+00 0. -1.
          3    1    5    5  503    0 -0.90722418391E+01 -0.18208390516E+02  0.30062819123E+02  0.36299092974E+02  0.00000000000E+00 0. -1.
         -4    1    5    5    0  503  0.16977250975E+03 -0.71489440562E+03  0.10215378091E+04  0.12583466183E+04  0.00000000000E+00 0.  1.
         -3    1    6    6    0  502  0.33674970516E+02  0.17364694147E+03  0.20068289114E+03  0.26750866662E+03  0.00000000000E+00 0.  1.
<mgrwt>
<rscale>  0 0.16783853E+04</rscale>
<asrwt>0</asrwt>
<pdfrwt beam="1">  1        2 0.29236307E+00 0.16783853E+04</pdfrwt>
<pdfrwt beam="2">  1       -2 0.57013032E-01 0.16783853E+04</pdfrwt>
<totfact> 0.20864366E+01</totfact>
</mgrwt>
</event>
<event>
12    1  0.1663913E-007  0.1818076E+04  0.7818608E-02  0.8696745E-01
         -3   -1    0    0    0  501 -0.00000000000E+00  0.00000000000E+00  0.68142965780E+03  0.68142965780E+03  0.00000000000E+00 0.  1.
          3   -1    0    0  501    0  0.00000000000E+00 -0.00000000000E+00 -0.12126715444E+04  0.12126715444E+04  0.00000000000E+00 0. -1.
         23    2    1    2    0    0 -0.53807787849E+03 -0.40289365123E+03 -0.33648236667E+03  0.75638521616E+03  0.83947094182E+02 0.  0.
        254    2    1    2    0    0  0.53807787849E+03  0.40289365123E+03 -0.19475951996E+03  0.11377159861E+04  0.89700350994E+03 0.  0.
        -24    2    4    4    0    0  0.31439665260E+03  0.59871387210E+03 -0.37902480606E+03  0.77884043805E+03  0.75027118564E+02 0.  0.
         24    2    4    4    0    0  0.22368122589E+03 -0.19582022088E+03  0.18426528610E+03  0.35887554803E+03  0.80368610756E+02 0.  0.
         11    1    3    3    0    0 -0.44521762860E+03 -0.33501357429E+03 -0.31268400687E+03  0.63892418950E+03  0.00000000000E+00 0. -1.
        -11    1    3    3    0    0 -0.92860249888E+02 -0.67880076938E+02 -0.23798359804E+02  0.11746102666E+03  0.00000000000E+00 0.  1.
          2    1    6    6  502    0  0.74544828007E+02 -0.10936109307E+03  0.54615696230E+02  0.14317700351E+03  0.00000000000E+00 0. -1.
          3    1    5    5  503    0  0.31384871558E+02  0.31629861568E+02 -0.10780796881E+02  0.45844125980E+02  0.00000000000E+00 0. -1.
         -2    1    5    5    0  503  0.28301178104E+03  0.56708401053E+03 -0.36824400918E+03  0.73299631207E+03  0.00000000000E+00 0.  1.
         -1    1    6    6    0  502  0.14913639789E+03 -0.86459127803E+02  0.12964958987E+03  0.21569854452E+03  0.00000000000E+00 0.  1.
<mgrwt>
<rscale>  0 0.18180763E+04</rscale>
<asrwt>0</asrwt>
<pdfrwt beam="1">  1        3 0.18656485E+00 0.18180763E+04</pdfrwt>
<pdfrwt beam="2">  1       -3 0.10483533E+00 0.18180763E+04</pdfrwt>
<totfact> 0.34638526E-01</totfact>
</mgrwt>
</event>
<event>
12    1  0.1663913E-007  0.2527608E+04  0.7818608E-02  0.8393216E-01
          1   -1    0    0  501    0  0.00000000000E+00  0.00000000000E+00  0.94299413184E+03  0.94299413184E+03  0.00000000000E+00 0. -1.
         -1   -1    0    0    0  501 -0.00000000000E+00 -0.00000000000E+00 -0.16937542572E+04  0.16937542572E+04  0.00000000000E+00 0.  1.
         23    2    1    2    0    0  0.58020393138E+03 -0.77276985537E+03 -0.89635878047E+03  0.13213359453E+04  0.93057862179E+02 0.  0.
        254    2    1    2    0    0 -0.58020393138E+03  0.77276985537E+03  0.14559865509E+03  0.13154124437E+04  0.88051182695E+03 0.  0.
        -24    2    4    4    0    0 -0.77414068262E+03  0.42197682947E+03  0.11575908295E+02  0.88528498564E+03  0.78976344795E+02 0.  0.
         24    2    4    4    0    0  0.19393675125E+03  0.35079302590E+03  0.13402274680E+03  0.43012745809E+03  0.79876924335E+02 0.  0.
         11    1    3    3    0    0  0.40747936652E+03 -0.60702609579E+03 -0.68964113698E+03  0.10050497564E+04  0.00000000000E+00 0.  1.
        -11    1    3    3    0    0  0.17272456485E+03 -0.16574375958E+03 -0.20671764349E+03  0.31628618887E+03  0.00000000000E+00 0. -1.
          4    1    6    6  502    0  0.25515459460E+02  0.33170228353E+02 -0.96869347147E+01  0.42955086132E+02  0.00000000000E+00 0. -1.
          1    1    5    5  503    0 -0.14990367116E+03  0.84089225275E+02 -0.29008450753E+02  0.17430891730E+03  0.00000000000E+00 0. -1.
         -2    1    5    5    0  503 -0.62423701146E+03  0.33788760419E+03  0.40584359048E+02  0.71097606833E+03  0.00000000000E+00 0.  1.
         -3    1    6    6    0  502  0.16842129179E+03  0.31762279755E+03  0.14370968151E+03  0.38717237196E+03  0.00000000000E+00 0.  1.
<mgrwt>
<rscale>  0 0.25276078E+04</rscale>
<asrwt>0</asrwt>
<pdfrwt beam="1">  1        1 0.14507602E+00 0.25276078E+04</pdfrwt>
<pdfrwt beam="2">  1       -1 0.26057758E+00 0.25276078E+04</pdfrwt>
<totfact> 0.88517457E-01</totfact>
</mgrwt>
</event>
<event>
12    1  0.1663913E-007  0.1375081E+04  0.7818608E-02  0.8972057E-01
         -2   -1    0    0    0  501 -0.00000000000E+00  0.00000000000E+00  0.63142315641E+03  0.63142315641E+03  0.00000000000E+00 0. -1.
          2   -1    0    0  501    0  0.00000000000E+00 -0.00000000000E+00 -0.74864484497E+03  0.74864484497E+03  0.00000000000E+00 0.  1.
         23    2    1    2    0    0 -0.79189813466E+02 -0.18974485681E+03  0.29276054348E+03  0.36893482943E+03  0.90166708423E+02 0.  0.
        254    2    1    2    0    0  0.79189813466E+02  0.18974485681E+03 -0.40998223204E+03  0.10111331720E+04  0.90112747355E+03 0.  0.
        -24    2    4    4    0    0  0.11853047954E+03  0.38615530711E+03 -0.59704274897E+03  0.72523415963E+03  0.79618756639E+02 0.  0.
         24    2    4    4    0    0 -0.39340666074E+02 -0.19641045029E+03  0.18706051692E+03  0.28589901232E+03  0.81374782733E+02 0.  0.
         13    1    3    3    0    0 -0.59707117061E+02 -0.53200567592E+02  0.15263522282E+03  0.17231584798E+03  0.00000000000E+00 0. -1.
        -13    1    3    3    0    0 -0.19482696405E+02 -0.13654428922E+03  0.14012532065E+03  0.19661898145E+03  0.00000000000E+00 0.  1.
          4    1    6    6  502    0 -0.84221945315E+01 -0.14379142534E+03  0.16941299541E+03  0.22236832143E+03  0.00000000000E+00 0. -1.
          3    1    5    5  503    0  0.10446539211E+03  0.37885794870E+03 -0.58721361980E+03  0.70658771481E+03  0.00000000000E+00 0. -1.
         -2    1    5    5    0  503  0.14065087431E+02  0.72973584045E+01 -0.98291291707E+01  0.18646444819E+02  0.00000000000E+00 0.  1.
         -3    1    6    6    0  502 -0.30918471543E+02 -0.52619024956E+02  0.17647521510E+02  0.63530690893E+02  0.00000000000E+00 0.  1.
<mgrwt>
<rscale>  0 0.13750806E+04</rscale>
<asrwt>0</asrwt>
<pdfrwt beam="1">  1        2 0.11517613E+00 0.13750806E+04</pdfrwt>
<pdfrwt beam="2">  1       -2 0.97142024E-01 0.13750806E+04</pdfrwt>
<totfact> 0.32426560E+01</totfact>
</mgrwt>
</event>
<event>
12    1  0.1663913E-007  0.1900123E+04  0.7818608E-02  0.8654795E-01
         -2   -1    0    0    0  501 -0.00000000000E+00  0.00000000000E+00  0.59906409332E+03  0.59906409332E+03  0.00000000000E+00 0. -1.
          2   -1    0    0  501    0  0.00000000000E+00 -0.00000000000E+00 -0.15067118298E+04  0.15067118298E+04  0.00000000000E+00 0.  1.
         23    2    1    2    0    0  0.70812461228E+03  0.18839297912E+03 -0.32186929299E+03  0.80570491236E+03  0.92888012869E+02 0.  0.
        254    2    1    2    0    0 -0.70812461228E+03 -0.18839297912E+03 -0.58577844349E+03  0.13000710108E+04  0.90006436830E+03 0.  0.
        -24    2    4    4    0    0 -0.23160673941E+03  0.32009359797E+03 -0.41411513269E+03  0.57738389932E+03  0.76021252766E+02 0.  0.
         24    2    4    4    0    0 -0.47651787287E+03 -0.50848657709E+03 -0.17166331081E+03  0.72268711145E+03  0.84737751523E+02 0.  0.
         13    1    3    3    0    0  0.68584491497E+03  0.17247808559E+03 -0.29179390947E+03  0.76503308622E+03  0.00000000000E+00 0. -1.
        -13    1    3    3    0    0  0.22279697309E+02  0.15914893533E+02 -0.30075383516E+02  0.40671826145E+02  0.00000000000E+00 0.  1.
          2    1    6    6  502    0 -0.46534666923E+02 -0.93356475835E+02 -0.23893587346E+02  0.10701313154E+03  0.00000000000E+00 0. -1.
          3    1    5    5  503    0 -0.11927116165E+03  0.10410852380E+03 -0.17839310962E+03  0.23851267532E+03  0.00000000000E+00 0. -1.
         -4    1    5    5    0  503 -0.11233557776E+03  0.21598507417E+03 -0.23572202307E+03  0.33887122400E+03  0.00000000000E+00 0.  1.
         -1    1    6    6    0  502 -0.42998320595E+03 -0.41513010125E+03 -0.14776972346E+03  0.61567397991E+03  0.00000000000E+00 0.  1.
<mgrwt>
<rscale>  0 0.19001231E+04</rscale>
<asrwt>0</asrwt>
<pdfrwt beam="1">  1        2 0.23180182E+00 0.19001231E+04</pdfrwt>
<pdfrwt beam="2">  1       -2 0.92163707E-01 0.19001231E+04</pdfrwt>
<totfact> 0.11788580E+01</totfact>
</mgrwt>
</event>
<event>
12    1  0.1663913E-007  0.1692490E+04  0.7818608E-02  0.8765659E-01
          2   -1    0    0  501    0  0.00000000000E+00  0.00000000000E+00  0.12545132486E+04  0.12545132486E+04  0.00000000000E+00 0. -1.
         -2   -1    0    0    0  501 -0.00000000000E+00 -0.00000000000E+00 -0.57084353783E+03  0.57084353783E+03  0.00000000000E+00 0.  1.
         23    2    1    2    0    0  0.28269726488E+03 -0.34087688956E+03  0.69266119002E+03  0.82730154828E+03  0.92377108767E+02 0.  0.
        254    2    1    2    0    0 -0.28269726488E+03  0.34087688956E+03 -0.89914792633E+01  0.99805523813E+03  0.89438169383E+03 0.  0.
        -24    2    4    4    0    0 -0.55511228602E+03  0.32814796717E+03 -0.16724211121E+03  0.67129803368E+03  0.82706637049E+02 0.  0.
         24    2    4    4    0    0  0.27241502114E+03  0.12728922395E+02  0.15825063195E+03  0.32675720445E+03  0.85761523669E+02 0.  0.
         11    1    3    3    0    0  0.41419046926E+02 -0.61814847068E+02  0.62838925204E+02  0.97392727075E+02  0.00000000000E+00 0.  1.
        -11    1    3    3    0    0  0.24127821795E+03 -0.27906204249E+03  0.62982226481E+03  0.72990882121E+03  0.00000000000E+00 0. -1.
          4    1    6    6  502    0  0.18140800397E+03  0.42437589257E+01  0.56653252912E+02  0.19009593488E+03  0.00000000000E+00 0. -1.
          1    1    5    5  503    0 -0.39911403574E+03  0.26619196964E+03 -0.97568421290E+02  0.48956079812E+03  0.00000000000E+00 0. -1.
         -2    1    5    5    0  503 -0.15599825028E+03  0.61955997525E+02 -0.69673689923E+02  0.18173723555E+03  0.00000000000E+00 0.  1.
         -3    1    6    6    0  502  0.91007017174E+02  0.84851634694E+01  0.10159737904E+03  0.13666126957E+03  0.00000000000E+00 0.  1.
<mgrwt>
<rscale>  0 0.16924902E+04</rscale>
<asrwt>0</asrwt>
<pdfrwt beam="1">  1        2 0.19300204E+00 0.16924902E+04</pdfrwt>
<pdfrwt beam="2">  1       -2 0.87822083E-01 0.16924902E+04</pdfrwt>
<totfact> 0.18717571E+01</totfact>
</mgrwt>
</event>
<event>
12    1  0.1663913E-007  0.1835395E+04  0.7818608E-02  0.8687700E-01
          1   -1    0    0  501    0  0.00000000000E+00  0.00000000000E+00  0.32681539644E+04  0.32681539644E+04  0.00000000000E+00 0. -1.
         -1   -1    0    0    0  501 -0.00000000000E+00 -0.00000000000E+00 -0.25768941973E+03  0.25768941973E+03  0.00000000000E+00 0.  1.
         23    2    1    2    0    0 -0.10356476430E+03 -0.57281271754E+03  0.49389008320E+03  0.76882865532E+03  0.91268927777E+02 0.  0.
        254    2    1    2    0    0  0.10356476430E+03  0.57281271754E+03  0.25165744614E+04  0.27570147288E+04  0.96392070472E+03 0.  0.
        -24    2    4    4    0    0  0.26186371442E+03 -0.77328505105E+02  0.15649222781E+04  0.15905802609E+04  0.80072011636E+02 0.  0.
         24    2    4    4    0    0 -0.15829895012E+03  0.65014122264E+03  0.95165218328E+03  0.11664344679E+04  0.84766284272E+02 0.  0.
         13    1    3    3    0    0 -0.83818882904E+02 -0.31241256245E+03  0.32054190097E+03  0.45538371138E+03  0.00000000000E+00 0. -1.
        -13    1    3    3    0    0 -0.19745881399E+02 -0.26040015508E+03  0.17334818223E+03  0.31344494394E+03  0.00000000000E+00 0.  1.
          2    1    6    6  502    0 -0.73190276797E+02  0.15331715414E+03  0.26036260538E+03  0.31088848910E+03  0.00000000000E+00 0. -1.
          1    1    5    5  503    0  0.89843295275E+02  0.64138363631E+01  0.39686007309E+03  0.40695315777E+03  0.00000000000E+00 0. -1.
         -2    1    5    5    0  503  0.17202041915E+03 -0.83742341468E+02  0.11680622051E+04  0.11836271031E+04  0.00000000000E+00 0.  1.
         -1    1    6    6    0  502 -0.85108673320E+02  0.49682406850E+03  0.69128957790E+03  0.85554597879E+03  0.00000000000E+00 0.  1.
<mgrwt>
<rscale>  0 0.18353950E+04</rscale>
<asrwt>0</asrwt>
<pdfrwt beam="1">  1        1 0.50279289E+00 0.18353950E+04</pdfrwt>
<pdfrwt beam="2">  1       -1 0.39644529E-01 0.18353950E+04</pdfrwt>
<totfact> 0.22091623E+00</totfact>
</mgrwt>
</event>
<event>
12    1  0.1663913E-007  0.1828863E+04  0.7818608E-02  0.8691099E-01
          2   -1    0    0  501    0  0.00000000000E+00  0.00000000000E+00  0.57914431866E+03  0.57914431866E+03  0.00000000000E+00 0. -1.
         -2   -1    0    0    0  501 -0.00000000000E+00 -0.00000000000E+00 -0.14438287210E+04  0.14438287210E+04  0.00000000000E+00 0.  1.
         23    2    1    2    0    0  0.30979644359E+03 -0.54646744458E+03 -0.28962999705E+03  0.69765754383E+03  0.90774494327E+02 0.  0.
        254    2    1    2    0    0 -0.30979644359E+03  0.54646744458E+03 -0.57505440525E+03  0.13253154958E+04  0.10154669320E+04 0.  0.
        -24    2    4    4    0    0 -0.81125431913E+02 -0.23993415496E+03  0.75558538973E+02  0.27621846181E+03  0.80235973327E+02 0.  0.
         24    2    4    4    0    0 -0.22867101168E+03  0.78640159954E+03 -0.65061294422E+03  0.10490970340E+04  0.81175588613E+02 0.  0.
         13    1    3    3    0    0  0.29385333506E+03 -0.48650421390E+03 -0.23514778442E+03  0.61508585839E+03  0.00000000000E+00 0. -1.
        -13    1    3    3    0    0  0.15943108528E+02 -0.59963230678E+02 -0.54482212635E+02  0.82571685441E+02  0.00000000000E+00 0.  1.
          4    1    6    6  502    0 -0.19503421719E+02  0.12357059792E+03 -0.13217923593E+03  0.18199292992E+03  0.00000000000E+00 0. -1.
          1    1    5    5  503    0 -0.17132770920E+02 -0.36284259565E+02  0.45466289470E+02  0.60640438733E+02  0.00000000000E+00 0. -1.
         -2    1    5    5    0  503 -0.63992660993E+02 -0.20364989539E+03  0.30092249503E+02  0.21557802308E+03  0.00000000000E+00 0.  1.
         -3    1    6    6    0  502 -0.20916758996E+03  0.66283100161E+03 -0.51843370829E+03  0.86710410406E+03  0.00000000000E+00 0.  1.
<mgrwt>
<rscale>  0 0.18288633E+04</rscale>
<asrwt>0</asrwt>
<pdfrwt beam="1">  1        2 0.89099126E-01 0.18288633E+04</pdfrwt>
<pdfrwt beam="2">  1       -2 0.22212749E+00 0.18288633E+04</pdfrwt>
<totfact> 0.46683304E+00</totfact>
</mgrwt>
</event>
<event>
12    1  0.1663913E-007  0.1532228E+04  0.7818608E-02  0.8863300E-01
          2   -1    0    0  501    0  0.00000000000E+00  0.00000000000E+00  0.79395653170E+03  0.79395653170E+03  0.00000000000E+00 0. -1.
         -2   -1    0    0    0  501 -0.00000000000E+00 -0.00000000000E+00 -0.73924780276E+03  0.73924780276E+03  0.00000000000E+00 0.  1.
         23    2    1    2    0    0 -0.10975809231E+02  0.47131664495E+03 -0.13489261332E+03  0.49880660672E+03  0.91390183209E+02 0.  0.
        254    2    1    2    0    0  0.10975809231E+02 -0.47131664495E+03  0.18960134226E+03  0.10343977277E+04  0.90098287552E+03 0.  0.
        -24    2    4    4    0    0 -0.15072007146E+03  0.23230232842E+03  0.91613762323E+02  0.30143350620E+03  0.76079993968E+02 0.  0.
         24    2    4    4    0    0  0.16169588069E+03 -0.70361897337E+03  0.97987579940E+02  0.73296422154E+03  0.80061018717E+02 0.  0.
         11    1    3    3    0    0  0.18403625253E+02  0.44561335878E+02 -0.34876312356E+02  0.59504312796E+02  0.00000000000E+00 0. -1.
        -11    1    3    3    0    0 -0.29379434484E+02  0.42675530907E+03 -0.10001630097E+03  0.43930229392E+03  0.00000000000E+00 0.  1.
          2    1    6    6  502    0  0.13836105293E+03 -0.42937376934E+03  0.64232275745E+02  0.45566588638E+03  0.00000000000E+00 0. -1.
          1    1    5    5  503    0 -0.11652647128E+03  0.11386839854E+03  0.39798612692E+02  0.16771511640E+03  0.00000000000E+00 0. -1.
         -2    1    5    5    0  503 -0.34193600176E+02  0.11843392988E+03  0.51815149631E+02  0.13371838980E+03  0.00000000000E+00 0.  1.
         -1    1    6    6    0  502  0.23334827757E+02 -0.27424520403E+03  0.33755304195E+02  0.27729833515E+03  0.00000000000E+00 0.  1.
<mgrwt>
<rscale>  0 0.15322279E+04</rscale>
<asrwt>0</asrwt>
<pdfrwt beam="1">  1        2 0.12214716E+00 0.15322279E+04</pdfrwt>
<pdfrwt beam="2">  1       -2 0.11373043E+00 0.15322279E+04</pdfrwt>
<totfact> 0.20319692E+01</totfact>
</mgrwt>
</event>
<event>
12    1  0.1663913E-007  0.2029750E+04  0.7818608E-02  0.8592837E-01
          1   -1    0    0  501    0  0.00000000000E+00  0.00000000000E+00  0.12424008124E+04  0.12424008124E+04  0.00000000000E+00 0. -1.
         -1   -1    0    0    0  501 -0.00000000000E+00 -0.00000000000E+00 -0.82901656481E+03  0.82901656481E+03  0.00000000000E+00 0.  1.
         23    2    1    2    0    0  0.28353991525E+03  0.68402139290E+03  0.53362062863E+03  0.91720281872E+03  0.90718718493E+02 0.  0.
        254    2    1    2    0    0 -0.28353991525E+03 -0.68402139290E+03 -0.12023638101E+03  0.11542145585E+04  0.87719684811E+03 0.  0.
        -24    2    4    4    0    0  0.23546626120E+03 -0.52269474387E+03 -0.16990707972E+03  0.60276988695E+03  0.76216569355E+02 0.  0.
         24    2    4    4    0    0 -0.51900617645E+03 -0.16132664903E+03  0.49670698715E+02  0.55144467159E+03  0.78932557470E+02 0.  0.
         13    1    3    3    0    0  0.82858164976E+02  0.24747877136E+03  0.23714716240E+03  0.35263294573E+03  0.00000000000E+00 0. -1.
        -13    1    3    3    0    0  0.20068175028E+03  0.43654262153E+03  0.29647346622E+03  0.56456987299E+03  0.00000000000E+00 0.  1.
          4    1    6    6  502    0 -0.87679444933E+02  0.27483288332E+01  0.75342748845E+01  0.88045463672E+02  0.00000000000E+00 0. -1.
          3    1    5    5  503    0  0.10151852884E+03 -0.29334035894E+03 -0.64658416785E+02  0.31707300223E+03  0.00000000000E+00 0. -1.
         -4    1    5    5    0  503  0.13394773236E+03 -0.22935438493E+03 -0.10524866293E+03  0.28569688472E+03  0.00000000000E+00 0.  1.
         -3    1    6    6    0  502 -0.43132673152E+03 -0.16407497786E+03  0.42136423830E+02  0.46339920791E+03  0.00000000000E+00 0.  1.
<mgrwt>
<rscale>  0 0.20297496E+04</rscale>
<asrwt>0</asrwt>
<pdfrwt beam="1">  1        1 0.19113859E+00 0.20297496E+04</pdfrwt>
<pdfrwt beam="2">  1       -1 0.12754101E+00 0.20297496E+04</pdfrwt>
<totfact> 0.49006944E+00</totfact>
</mgrwt>
</event>
<event>
12    1  0.1663913E-007  0.3553710E+04  0.7818608E-02  0.8101178E-01
         -1   -1    0    0    0  501 -0.00000000000E+00  0.00000000000E+00  0.26827733677E+04  0.26827733677E+04  0.00000000000E+00 0.  1.
          1   -1    0    0  501    0  0.00000000000E+00 -0.00000000000E+00 -0.11768469500E+04  0.11768469500E+04  0.00000000000E+00 0. -1.
         23    2    1    2    0    0  0.13358763664E+04 -0.98593540633E+03  0.72366556758E+03  0.18130812532E+04  0.83291567876E+02 0.  0.
        254    2    1    2    0    0 -0.13358763664E+04  0.98593540633E+03  0.78226085008E+03  0.20465390644E+04  0.90540367393E+03 0.  0.
        -24    2    4    4    0    0 -0.31229257432E+02  0.44040014255E+03  0.47990594610E+02  0.45122048195E+03  0.79807731946E+02 0.  0.
         24    2    4    4    0    0 -0.13046471090E+04  0.54553526378E+03  0.73427025547E+03  0.15953185825E+04  0.78586057664E+02 0.  0.
         11    1    3    3    0    0  0.11854671066E+04 -0.87392137642E+03  0.61242840028E+03  0.15950358549E+04  0.00000000000E+00 0. -1.
        -11    1    3    3    0    0  0.15040925986E+03 -0.11201402991E+03  0.11123716729E+03  0.21804539834E+03  0.00000000000E+00 0.  1.
          4    1    6    6  502    0 -0.26328710240E+03  0.81291048627E+02  0.12489992592E+03  0.30253648436E+03  0.00000000000E+00 0. -1.
          1    1    5    5  503    0  0.21957725315E+02  0.93961797509E+02 -0.55720706295E+01  0.96654069046E+02  0.00000000000E+00 0. -1.
         -2    1    5    5    0  503 -0.53186982747E+02  0.34643834504E+03  0.53562665240E+02  0.35456641290E+03  0.00000000000E+00 0.  1.
         -3    1    6    6    0  502 -0.10413600066E+04  0.46424421515E+03  0.60937032954E+03  0.12927820981E+04  0.00000000000E+00 0.  1.
<mgrwt>
<rscale>  0 0.35537100E+04</rscale>
<asrwt>0</asrwt>
<pdfrwt beam="1">  1        1 0.18105338E+00 0.35537100E+04</pdfrwt>
<pdfrwt beam="2">  1       -1 0.41273436E+00 0.35537100E+04</pdfrwt>
<totfact> 0.52756767E-02</totfact>
</mgrwt>
</event>
<event>
12    1  0.1663913E-007  0.1921198E+04  0.7818608E-02  0.8644376E-01
         -1   -1    0    0    0  501 -0.00000000000E+00  0.00000000000E+00  0.76219494064E+03  0.76219494064E+03  0.00000000000E+00 0.  1.
          1   -1    0    0  501    0  0.00000000000E+00 -0.00000000000E+00 -0.12106494933E+04  0.12106494933E+04  0.00000000000E+00 0. -1.
         23    2    1    2    0    0 -0.22821542321E+03 -0.61641422191E+03 -0.59172348531E+03  0.89053454080E+03  0.10424160847E+03 0.  0.
        254    2    1    2    0    0  0.22821542321E+03  0.61641422191E+03  0.14326893262E+03  0.10823098932E+04  0.84783249844E+03 0.  0.
        -24    2    4    4    0    0  0.18530191709E+03 -0.15755222768E+03  0.16214584234E+03  0.30290839120E+03  0.79389636268E+02 0.  0.
         24    2    4    4    0    0  0.42913506123E+02  0.77396644959E+03 -0.18876909719E+02  0.77940150196E+03  0.79023600490E+02 0.  0.
         11    1    3    3    0    0 -0.64407751741E+02 -0.87352505640E+02 -0.66685285536E+02  0.12738032043E+03  0.00000000000E+00 0.  1.
        -11    1    3    3    0    0 -0.16380767147E+03 -0.52906171627E+03 -0.52503819978E+03  0.76315422037E+03  0.00000000000E+00 0. -1.
          4    1    6    6  502    0 -0.19136036320E+02  0.11411429304E+03 -0.14595041721E+02  0.11662450431E+03  0.00000000000E+00 0. -1.
          1    1    5    5  503    0 -0.70358043852E+01 -0.14268622279E+02  0.80434306079E+01  0.17826746788E+02  0.00000000000E+00 0. -1.
         -2    1    5    5    0  503  0.19233772147E+03 -0.14328360541E+03  0.15410241173E+03  0.28508164441E+03  0.00000000000E+00 0.  1.
         -3    1    6    6    0  502  0.62049542442E+02  0.65985215655E+03 -0.42818679986E+01  0.66277699765E+03  0.00000000000E+00 0.  1.
<mgrwt>
<rscale>  0 0.19211985E+04</rscale>
<asrwt>0</asrwt>
<pdfrwt beam="1">  1        1 0.18625377E+00 0.19211985E+04</pdfrwt>
<pdfrwt beam="2">  1       -1 0.11726076E+00 0.19211985E+04</pdfrwt>
<totfact> 0.64204391E+00</totfact>
</mgrwt>
</event>
<event>
12    1  0.1663913E-007  0.1885238E+04  0.7818608E-02  0.8662240E-01
          1   -1    0    0  501    0  0.00000000000E+00  0.00000000000E+00  0.21307207148E+04  0.21307207148E+04  0.00000000000E+00 0. -1.
         -1   -1    0    0    0  501 -0.00000000000E+00 -0.00000000000E+00 -0.41700926218E+03  0.41700926218E+03  0.00000000000E+00 0.  1.
         23    2    1    2    0    0  0.57600229434E+03  0.94712576709E+02  0.12249238404E+04  0.13600583052E+04  0.92580038227E+02 0.  0.
        254    2    1    2    0    0 -0.57600229434E+03 -0.94712576709E+02  0.48878761227E+03  0.11876716718E+04  0.91153801614E+03 0.  0.
        -24    2    4    4    0    0 -0.63087936527E+03 -0.35765372844E+03  0.14592007315E+03  0.74402748035E+03  0.79744973329E+02 0.  0.
         24    2    4    4    0    0  0.54877070926E+02  0.26294115173E+03  0.34286753912E+03  0.44364419148E+03  0.84335502979E+02 0.  0.
         11    1    3    3    0    0  0.39021363277E+03  0.81620788410E+02  0.92141668026E+03  0.10039608214E+04  0.00000000000E+00 0.  1.
        -11    1    3    3    0    0  0.18578866157E+03  0.13091788299E+02  0.30350716012E+03  0.35609748375E+03  0.00000000000E+00 0. -1.
          4    1    6    6  502    0  0.24904310105E+02  0.11196568150E+02  0.24677713603E+02  0.36804583258E+02  0.00000000000E+00 0. -1.
          1    1    5    5  503    0 -0.25714274710E+02 -0.33633260608E+02  0.48411042079E+00  0.42339750895E+02  0.00000000000E+00 0. -1.
         -4    1    5    5    0  503 -0.60516509056E+03 -0.32402046783E+03  0.14543596273E+03  0.70168772945E+03  0.00000000000E+00 0.  1.
         -3    1    6    6    0  502  0.29972760821E+02  0.25174458358E+03  0.31818982552E+03  0.40683960822E+03  0.00000000000E+00 0.  1.
<mgrwt>
<rscale>  0 0.18852377E+04</rscale>
<asrwt>0</asrwt>
<pdfrwt beam="1">  1        1 0.32780318E+00 0.18852377E+04</pdfrwt>
<pdfrwt beam="2">  1       -1 0.64155273E-01 0.18852377E+04</pdfrwt>
<totfact> 0.56065037E+00</totfact>
</mgrwt>
</event>
<event>
12    1  0.1663913E-007  0.1423227E+04  0.7818608E-02  0.8937176E-01
         -1   -1    0    0    0  501 -0.00000000000E+00  0.00000000000E+00  0.33221160194E+03  0.33221160194E+03  0.00000000000E+00 0.  1.
          1   -1    0    0  501    0  0.00000000000E+00 -0.00000000000E+00 -0.15243099085E+04  0.15243099085E+04  0.00000000000E+00 0. -1.
         23    2    1    2    0    0  0.36295454224E+03  0.18940639665E+03 -0.30653144755E+03  0.51933487333E+03  0.90201992709E+02 0.  0.
        254    2    1    2    0    0 -0.36295454224E+03 -0.18940639665E+03 -0.88556685900E+03  0.13371866371E+04  0.91445538867E+03 0.  0.
        -24    2    4    4    0    0 -0.18558480695E+03  0.23887137421E+03 -0.79939640816E+03  0.85843872282E+03  0.79882222457E+02 0.  0.
         24    2    4    4    0    0 -0.17736973529E+03 -0.42827777086E+03 -0.86170450835E+02  0.47874791428E+03  0.83020159111E+02 0.  0.
         13    1    3    3    0    0 -0.23295021569E+01 -0.43768877343E-01 -0.14655903411E+02  0.14839946119E+02  0.00000000000E+00 0. -1.
        -13    1    3    3    0    0  0.36528404440E+03  0.18945016553E+03 -0.29187554414E+03  0.50449492721E+03  0.00000000000E+00 0.  1.
          2    1    6    6  502    0 -0.31714703333E+02 -0.25711106689E+02  0.47193924163E+01  0.41099344027E+02  0.00000000000E+00 0. -1.
          3    1    5    5  503    0 -0.35114406297E+01  0.51366028426E+02 -0.12837526150E+03  0.13831488299E+03  0.00000000000E+00 0. -1.
         -4    1    5    5    0  503 -0.18207336633E+03  0.18750534579E+03 -0.67102114666E+03  0.72012383983E+03  0.00000000000E+00 0.  1.
         -1    1    6    6    0  502 -0.14565503196E+03 -0.40256666417E+03 -0.90889843251E+02  0.43764857025E+03  0.00000000000E+00 0.  1.
<mgrwt>
<rscale>  0 0.14232265E+04</rscale>
<asrwt>0</asrwt>
<pdfrwt beam="1">  1        1 0.23450922E+00 0.14232265E+04</pdfrwt>
<pdfrwt beam="2">  1       -1 0.51109477E-01 0.14232265E+04</pdfrwt>
<totfact> 0.23572593E+01</totfact>
</mgrwt>
</event>
<event>
12    1  0.1663913E-007  0.2061187E+04  0.7818608E-02  0.8578536E-01
         -1   -1    0    0    0  501 -0.00000000000E+00  0.00000000000E+00  0.27864484631E+03  0.27864484631E+03  0.00000000000E+00 0.  1.
          1   -1    0    0  501    0  0.00000000000E+00 -0.00000000000E+00 -0.38117450957E+04  0.38117450957E+04  0.00000000000E+00 0. -1.
         23    2    1    2    0    0 -0.78526494793E+02  0.56832075329E+03 -0.25706445935E+03  0.63520169240E+03  0.90797382989E+02 0.  0.
        254    2    1    2    0    0  0.78526494793E+02 -0.56832075329E+03 -0.32760357900E+04  0.34551882496E+04  0.93635487593E+03 0.  0.
        -24    2    4    4    0    0 -0.21404071696E+02  0.20227879249E+03 -0.25968127251E+03  0.33920376963E+03  0.79056877373E+02 0.  0.
         24    2    4    4    0    0  0.99930566489E+02 -0.77059954579E+03 -0.30163545175E+04  0.31159844800E+04  0.84586795864E+02 0.  0.
         11    1    3    3    0    0 -0.87424815356E+02  0.41324891121E+03 -0.15803045373E+03  0.45098934052E+03  0.00000000000E+00 0.  1.
        -11    1    3    3    0    0  0.88983205635E+01  0.15507184208E+03 -0.99034005616E+02  0.18421235187E+03  0.00000000000E+00 0. -1.
          4    1    6    6  502    0  0.24034473138E+02 -0.22615363989E+03 -0.10420830409E+04  0.10666115454E+04  0.00000000000E+00 0. -1.
          1    1    5    5  503    0  0.20737384424E+02  0.54683887218E+02 -0.11122419982E+03  0.12566299877E+03  0.00000000000E+00 0. -1.
         -2    1    5    5    0  503 -0.42141456121E+02  0.14759490528E+03 -0.14845707269E+03  0.21354077086E+03  0.00000000000E+00 0.  1.
         -3    1    6    6    0  502  0.75896093352E+02 -0.54444590590E+03 -0.19742714766E+04  0.20493729345E+04  0.00000000000E+00 0.  1.
<mgrwt>
<rscale>  0 0.20611872E+04</rscale>
<asrwt>0</asrwt>
<pdfrwt beam="1">  1        1 0.58642227E+00 0.20611872E+04</pdfrwt>
<pdfrwt beam="2">  1       -1 0.42868441E-01 0.20611872E+04</pdfrwt>
<totfact> 0.69327404E-01</totfact>
</mgrwt>
</event>
<event>
12    1  0.1663913E-007  0.1663530E+04  0.7818608E-02  0.8782442E-01
          2   -1    0    0  501    0  0.00000000000E+00  0.00000000000E+00  0.41432680730E+03  0.41432680730E+03  0.00000000000E+00 0. -1.
         -2   -1    0    0    0  501 -0.00000000000E+00 -0.00000000000E+00 -0.16697763522E+04  0.16697763522E+04  0.00000000000E+00 0.  1.
         23    2    1    2    0    0  0.35969124182E+03  0.13626075596E+03  0.87636543587E+02  0.40536054776E+03  0.93232112776E+02 0.  0.
        254    2    1    2    0    0 -0.35969124182E+03 -0.13626075596E+03 -0.13430860885E+04  0.16787426117E+04  0.93078017401E+03 0.  0.
        -24    2    4    4    0    0 -0.58844398344E+02 -0.39582231967E+03 -0.11649704985E+04  0.12343460710E+04  0.79473194785E+02 0.  0.
         24    2    4    4    0    0 -0.30084684348E+03  0.25956156371E+03 -0.17811559001E+03  0.44439654074E+03  0.88781154728E+02 0.  0.
         13    1    3    3    0    0  0.46405800033E+01 -0.94770430744E+01  0.83564350324E+01  0.13460287317E+02  0.00000000000E+00 0.  1.
        -13    1    3    3    0    0  0.35505066182E+03  0.14573779904E+03  0.79280108555E+02  0.39190026045E+03  0.00000000000E+00 0. -1.
          4    1    6    6  502    0 -0.29269390185E+03  0.22132544101E+03 -0.15094174499E+03  0.39678467889E+03  0.00000000000E+00 0. -1.
          3    1    5    5  503    0 -0.42014330344E+02 -0.22947407125E+03 -0.79135995497E+03  0.82502977622E+03  0.00000000000E+00 0. -1.
         -4    1    5    5    0  503 -0.16830068000E+02 -0.16634824843E+03 -0.37361054350E+03  0.40931629476E+03  0.00000000000E+00 0.  1.
         -3    1    6    6    0  502 -0.81529416263E+01  0.38236122700E+02 -0.27173845020E+02  0.47611861857E+02  0.00000000000E+00 0.  1.
<mgrwt>
<rscale>  0 0.16635301E+04</rscale>
<asrwt>0</asrwt>
<pdfrwt beam="1">  1        2 0.63742586E-01 0.16635301E+04</pdfrwt>
<pdfrwt beam="2">  1       -2 0.25688867E+00 0.16635301E+04</pdfrwt>
<totfact> 0.42525279E+00</totfact>
</mgrwt>
</event>
<event>
12    1  0.1663913E-007  0.1731228E+04  0.7818608E-02  0.8743752E-01
         -2   -1    0    0    0  501 -0.00000000000E+00  0.00000000000E+00  0.60274249921E+03  0.60274249921E+03  0.00000000000E+00 0.  1.
          2   -1    0    0  501    0  0.00000000000E+00 -0.00000000000E+00 -0.12431298157E+04  0.12431298157E+04  0.00000000000E+00 0. -1.
         23    2    1    2    0    0 -0.20019019701E+01  0.15005214920E+03 -0.88231305820E+03  0.89967404459E+03  0.91746382780E+02 0.  0.
        254    2    1    2    0    0  0.20019019701E+01 -0.15005214920E+03  0.24192574173E+03  0.94619827030E+03  0.90235439109E+03 0.  0.
        -24    2    4    4    0    0  0.32888269450E+03  0.20512982443E+03 -0.10760833479E+02  0.39554434038E+03  0.78086221968E+02 0.  0.
         24    2    4    4    0    0 -0.32688079253E+03 -0.35518197363E+03  0.25268657521E+03  0.55065392992E+03  0.79774421523E+02 0.  0.
         11    1    3    3    0    0 -0.19940614206E+02 -0.12912149804E+01 -0.56838677630E+02  0.60248905432E+02  0.00000000000E+00 0.  1.
        -11    1    3    3    0    0  0.17938712236E+02  0.15134336418E+03 -0.82547438057E+03  0.83942513916E+03  0.00000000000E+00 0. -1.
          2    1    6    6  502    0 -0.69991253744E+02 -0.33577164646E+02  0.41739912406E+02  0.88138651419E+02  0.00000000000E+00 0. -1.
          1    1    5    5  503    0  0.11089379519E+03  0.10077051634E+03 -0.31011240364E+02  0.15301577632E+03  0.00000000000E+00 0. -1.
         -2    1    5    5    0  503  0.21798889930E+03  0.10435930809E+03  0.20250406884E+02  0.24252856406E+03  0.00000000000E+00 0.  1.
         -1    1    6    6    0  502 -0.25688953878E+03 -0.32160480899E+03  0.21094666280E+03  0.46251527850E+03  0.00000000000E+00 0.  1.
<mgrwt>
<rscale>  0 0.17312275E+04</rscale>
<asrwt>0</asrwt>
<pdfrwt beam="1">  1        2 0.19125074E+00 0.17312275E+04</pdfrwt>
<pdfrwt beam="2">  1       -2 0.92729616E-01 0.17312275E+04</pdfrwt>
<totfact> 0.16714359E+01</totfact>
</mgrwt>
</event>
<event>
12    1  0.1663913E-007  0.1676456E+04  0.7818608E-02  0.8774907E-01
          2   -1    0    0  501    0  0.00000000000E+00  0.00000000000E+00  0.12762962758E+04  0.12762962758E+04  0.00000000000E+00 0. -1.
         -2   -1    0    0    0  501 -0.00000000000E+00 -0.00000000000E+00 -0.55051971148E+03  0.55051971148E+03  0.00000000000E+00 0.  1.
         23    2    1    2    0    0 -0.24736832488E+03  0.53673478440E+00  0.84194049239E+03  0.88231875897E+03  0.91821693946E+02 0.  0.
        254    2    1    2    0    0  0.24736832488E+03 -0.53673478440E+00 -0.11616392803E+03  0.94449722835E+03  0.90409600151E+03 0.  0.
        -24    2    4    4    0    0  0.31612642843E+03  0.14852508054E+03 -0.44328010577E+03  0.56993171432E+03  0.79556825716E+02 0.  0.
         24    2    4    4    0    0 -0.68758103551E+02 -0.14906181533E+03  0.32711617775E+03  0.37456551402E+03  0.79669498306E+02 0.  0.
         13    1    3    3    0    0 -0.83610270630E+01 -0.19330621485E+02  0.38974971853E+02  0.44301559019E+02  0.00000000000E+00 0.  1.
        -13    1    3    3    0    0 -0.23900729782E+03  0.19867356270E+02  0.80296552053E+03  0.83801719995E+03  0.00000000000E+00 0. -1.
          2    1    6    6  502    0 -0.52543686085E+02 -0.13069748500E+03  0.31906784773E+03  0.34877924679E+03  0.00000000000E+00 0. -1.
          3    1    5    5  503    0  0.30666154670E+03  0.15670285123E+03 -0.41694824051E+03  0.54077992111E+03  0.00000000000E+00 0. -1.
         -4    1    5    5    0  503  0.94648817318E+01 -0.81777706905E+01 -0.26331865261E+02  0.29151793217E+02  0.00000000000E+00 0.  1.
         -1    1    6    6    0  502 -0.16214417466E+02 -0.18364330321E+02  0.80483300141E+01  0.25786267235E+02  0.00000000000E+00 0.  1.
<mgrwt>
<rscale>  0 0.16764561E+04</rscale>
<asrwt>0</asrwt>
<pdfrwt beam="1">  1        2 0.19635327E+00 0.16764561E+04</pdfrwt>
<pdfrwt beam="2">  1       -2 0.84695341E-01 0.16764561E+04</pdfrwt>
<totfact> 0.19768412E+01</totfact>
</mgrwt>
</event>
<event>
12    1  0.1663913E-007  0.1705198E+04  0.7818608E-02  0.8758405E-01
          1   -1    0    0  501    0  0.00000000000E+00  0.00000000000E+00  0.20314455110E+04  0.20314455110E+04  0.00000000000E+00 0. -1.
         -1   -1    0    0    0  501 -0.00000000000E+00 -0.00000000000E+00 -0.35783635132E+03  0.35783635132E+03  0.00000000000E+00 0.  1.
         23    2    1    2    0    0  0.10139206755E+03 -0.23831886745E+03  0.13774652425E+04  0.14045194006E+04  0.90487669983E+02 0.  0.
        254    2    1    2    0    0 -0.10139206755E+03  0.23831886745E+03  0.29614391722E+03  0.98476246175E+03  0.90276223471E+03 0.  0.
        -24    2    4    4    0    0 -0.18168615823E+03  0.67860286407E+02  0.59022007351E+03  0.62654885731E+03  0.81171773806E+02 0.  0.
         24    2    4    4    0    0  0.80294090685E+02  0.17045858105E+03 -0.29407615629E+03  0.35821360443E+03  0.79579720098E+02 0.  0.
         11    1    3    3    0    0  0.64363855706E+02 -0.86293850407E+02  0.75761030093E+03  0.76522068883E+03  0.00000000000E+00 0. -1.
        -11    1    3    3    0    0  0.37028211844E+02 -0.15202501705E+03  0.61985494154E+03  0.63929871174E+03  0.00000000000E+00 0.  1.
          4    1    6    6  502    0  0.53740021160E+02  0.50363644541E+02 -0.65116458338E+02  0.98308899455E+02  0.00000000000E+00 0. -1.
          3    1    5    5  503    0 -0.32524960536E+02  0.82773779027E+00  0.35175832655E+02  0.47915523692E+02  0.00000000000E+00 0. -1.
         -4    1    5    5    0  503 -0.14916119770E+03  0.67032548617E+02  0.55504424085E+03  0.57863333362E+03  0.00000000000E+00 0.  1.
         -3    1    6    6    0  502  0.26554069525E+02  0.12009493650E+03 -0.22895969795E+03  0.25990470498E+03  0.00000000000E+00 0.  1.
<mgrwt>
<rscale>  0 0.17051980E+04</rscale>
<asrwt>0</asrwt>
<pdfrwt beam="1">  1        1 0.31253007E+00 0.17051980E+04</pdfrwt>
<pdfrwt beam="2">  1       -1 0.55051748E-01 0.17051980E+04</pdfrwt>
<totfact> 0.90024736E+00</totfact>
</mgrwt>
</event>
<event>
12    1  0.1663913E-007  0.1253678E+04  0.7818608E-02  0.9067128E-01
         -2   -1    0    0    0  501 -0.00000000000E+00  0.00000000000E+00  0.15148873545E+03  0.15148873545E+03  0.00000000000E+00 0.  1.
          2   -1    0    0  501    0  0.00000000000E+00 -0.00000000000E+00 -0.25937697439E+04  0.25937697439E+04  0.00000000000E+00 0. -1.
         23    2    1    2    0    0  0.17902838090E+03  0.16710828836E+03 -0.89099008303E+03  0.92865315716E+03  0.92504146017E+02 0.  0.
        254    2    1    2    0    0 -0.17902838090E+03 -0.16710828836E+03 -0.15512909254E+04  0.18166053222E+04  0.91300329688E+03 0.  0.
        -24    2    4    4    0    0  0.56039143485E+02  0.44216447646E+02  0.91264911475E+02  0.14180910055E+03  0.81762198406E+02 0.  0.
         24    2    4    4    0    0 -0.23506752439E+03 -0.21132473601E+03 -0.16425558369E+04  0.16747962216E+04  0.83891725612E+02 0.  0.
         11    1    3    3    0    0  0.76411249512E+01  0.76365839620E+01 -0.17561910886E+03  0.17595106025E+03  0.00000000000E+00 0.  1.
        -11    1    3    3    0    0  0.17138725595E+03  0.15947170440E+03 -0.71537097417E+03  0.75270209691E+03  0.00000000000E+00 0. -1.
          4    1    6    6  502    0 -0.47948504467E+02 -0.69594717457E+01 -0.19253235631E+03  0.19853513935E+03  0.00000000000E+00 0. -1.
          3    1    5    5  503    0 -0.16697173564E+02  0.30123530575E+02  0.28184525332E+02  0.44503821943E+02  0.00000000000E+00 0. -1.
         -4    1    5    5    0  503  0.72736317049E+02  0.14092917071E+02  0.63080386143E+02  0.97305278610E+02  0.00000000000E+00 0.  1.
         -3    1    6    6    0  502 -0.18711901992E+03 -0.20436526426E+03 -0.14500234806E+04  0.14762610823E+04  0.00000000000E+00 0.  1.
<mgrwt>
<rscale>  0 0.12536776E+04</rscale>
<asrwt>0</asrwt>
<pdfrwt beam="1">  1        2 0.39904150E+00 0.12536776E+04</pdfrwt>
<pdfrwt beam="2">  1       -2 0.23305959E-01 0.12536776E+04</pdfrwt>
<totfact> 0.49465742E+01</totfact>
</mgrwt>
</event>
<event>
12    1  0.1663913E-007  0.2075402E+04  0.7818608E-02  0.8572157E-01
          2   -1    0    0  501    0  0.00000000000E+00  0.00000000000E+00  0.35092451519E+03  0.35092451519E+03  0.00000000000E+00 0.  1.
         -2   -1    0    0    0  501 -0.00000000000E+00 -0.00000000000E+00 -0.30685327379E+04  0.30685327379E+04  0.00000000000E+00 0. -1.
         23    2    1    2    0    0 -0.10903882968E+03  0.48846790051E+03 -0.22132498165E+04  0.22709186273E+04  0.90035021886E+02 0.  0.
        254    2    1    2    0    0  0.10903882968E+03 -0.48846790051E+03 -0.50435840621E+03  0.11485386258E+04  0.90237088656E+03 0.  0.
        -24    2    4    4    0    0  0.15084662723E+03 -0.57647773218E+03 -0.69583533912E+03  0.91962380817E+03  0.80248668125E+02 0.  0.
         24    2    4    4    0    0 -0.41807797542E+02  0.88009831667E+02  0.19147693291E+03  0.22891481767E+03  0.79025030878E+02 0.  0.
         11    1    3    3    0    0 -0.45249496697E+02  0.34541365888E+03 -0.16446183818E+04  0.16811090787E+04  0.00000000000E+00 0.  1.
        -11    1    3    3    0    0 -0.63789332986E+02  0.14305424163E+03 -0.56863143471E+03  0.58980954858E+03  0.00000000000E+00 0. -1.
          4    1    6    6  502    0  0.77640987700E+01  0.73323414890E+02  0.11061545847E+03  0.13293751936E+03  0.00000000000E+00 0. -1.
          1    1    5    5  503    0  0.68353349221E+02 -0.38738589440E+03 -0.42408331266E+03  0.57843467013E+03  0.00000000000E+00 0. -1.
         -2    1    5    5    0  503  0.82493278004E+02 -0.18909183778E+03 -0.27175202646E+03  0.34118913804E+03  0.00000000000E+00 0.  1.
         -3    1    6    6    0  502 -0.49571896312E+02  0.14686416777E+02  0.80861474443E+02  0.95977298309E+02  0.00000000000E+00 0.  1.
<mgrwt>
<rscale>  0 0.20754020E+04</rscale>
<asrwt>0</asrwt>
<pdfrwt beam="1">  1        2 0.53988386E-01 0.20754020E+04</pdfrwt>
<pdfrwt beam="2">  1       -2 0.47208197E+00 0.20754020E+04</pdfrwt>
<totfact> 0.21133052E-01</totfact>
</mgrwt>
</event>
<event>
12    1  0.1663913E-007  0.1310952E+04  0.7818608E-02  0.9020925E-01
          2   -1    0    0  501    0  0.00000000000E+00  0.00000000000E+00  0.75706368553E+03  0.75706368553E+03  0.00000000000E+00 0. -1.
         -2   -1    0    0    0  501 -0.00000000000E+00 -0.00000000000E+00 -0.56752032066E+03  0.56752032066E+03  0.00000000000E+00 0.  1.
         23    2    1    2    0    0 -0.24200354284E+03  0.21705309303E+03  0.14248006649E+03  0.36644632298E+03  0.91129459191E+02 0.  0.
        254    2    1    2    0    0  0.24200354284E+03 -0.21705309303E+03  0.47063298384E+02  0.95813768322E+03  0.90007505576E+03 0.  0.
        -24    2    4    4    0    0 -0.19275614142E+03 -0.15302395439E+03  0.33768810828E+03  0.42519238361E+03  0.78638692338E+02 0.  0.
         24    2    4    4    0    0  0.43475968426E+03 -0.64029138641E+02 -0.29062480990E+03  0.53294529961E+03  0.80325578673E+02 0.  0.
         13    1    3    3    0    0 -0.12217696442E+02  0.36106217388E+02 -0.57537173331E+01  0.38549141412E+02  0.00000000000E+00 0.  1.
        -13    1    3    3    0    0 -0.22978584640E+03  0.18094687564E+03  0.14823378382E+03  0.32789718156E+03  0.00000000000E+00 0. -1.
          2    1    6    6  502    0  0.38312540838E+03 -0.46640484184E+02 -0.22173503256E+03  0.44511440999E+03  0.00000000000E+00 0. -1.
          1    1    5    5  503    0 -0.17745568615E+03 -0.16052541232E+03  0.32653734567E+03  0.40482782348E+03  0.00000000000E+00 0. -1.
         -4    1    5    5    0  503 -0.15300455269E+02  0.75014579255E+01  0.11150762612E+02  0.20364560130E+02  0.00000000000E+00 0.  1.
         -1    1    6    6    0  502  0.51634275876E+02 -0.17388654457E+02 -0.68889777341E+02  0.87830889618E+02  0.00000000000E+00 0.  1.
<mgrwt>
<rscale>  0 0.13109524E+04</rscale>
<asrwt>0</asrwt>
<pdfrwt beam="1">  1        2 0.11647134E+00 0.13109524E+04</pdfrwt>
<pdfrwt beam="2">  1       -2 0.87310818E-01 0.13109524E+04</pdfrwt>
<totfact> 0.41133540E+01</totfact>
</mgrwt>
</event>
<event>
12    1  0.1663913E-007  0.2315383E+04  0.7818608E-02  0.8471880E-01
          2   -1    0    0  501    0  0.00000000000E+00  0.00000000000E+00  0.10868102661E+04  0.10868102661E+04  0.00000000000E+00 0.  1.
         -2   -1    0    0    0  501 -0.00000000000E+00 -0.00000000000E+00 -0.12331953594E+04  0.12331953594E+04  0.00000000000E+00 0. -1.
         23    2    1    2    0    0  0.39473052536E+03 -0.62240041594E+03  0.57832928906E+03  0.94133107259E+03  0.91896442948E+02 0.  0.
        254    2    1    2    0    0 -0.39473052536E+03  0.62240041594E+03 -0.72471438237E+03  0.13786745530E+04  0.91232566640E+03 0.  0.
        -24    2    4    4    0    0  0.28961060854E+03  0.24287070505E+03 -0.22993876079E+03  0.44941043138E+03  0.78977326922E+02 0.  0.
         24    2    4    4    0    0 -0.68434113391E+03  0.37952971089E+03 -0.49477562158E+03  0.92926412158E+03  0.79770313686E+02 0.  0.
         11    1    3    3    0    0  0.16404408332E+02 -0.19016130541E+02  0.45196784935E+02  0.51705581922E+02  0.00000000000E+00 0. -1.
        -11    1    3    3    0    0  0.37832611703E+03 -0.60338428540E+03  0.53313250412E+03  0.88962549067E+03  0.00000000000E+00 0.  1.
          4    1    6    6  502    0 -0.53238561135E+03  0.32670847699E+03 -0.37337850404E+03  0.72772548079E+03  0.00000000000E+00 0. -1.
          3    1    5    5  503    0  0.28249103321E+03  0.21125435463E+03 -0.20118251689E+03  0.40608372449E+03  0.00000000000E+00 0. -1.
         -4    1    5    5    0  503  0.71195753346E+01  0.31616350416E+02 -0.28756243900E+02  0.43326706888E+02  0.00000000000E+00 0.  1.
         -3    1    6    6    0  502 -0.15195552256E+03  0.52821233900E+02 -0.12139711754E+03  0.20153864080E+03  0.00000000000E+00 0.  1.
<mgrwt>
<rscale>  0 0.23153828E+04</rscale>
<asrwt>0</asrwt>
<pdfrwt beam="1">  1        2 0.16720158E+00 0.23153828E+04</pdfrwt>
<pdfrwt beam="2">  1       -2 0.18972236E+00 0.23153828E+04</pdfrwt>
<totfact> 0.31287764E+00</totfact>
</mgrwt>
</event>
<event>
12    1  0.1663913E-007  0.1141535E+04  0.7818608E-02  0.9165628E-01
         -1   -1    0    0    0  501 -0.00000000000E+00  0.00000000000E+00  0.19874465167E+03  0.19874465167E+03  0.00000000000E+00 0.  1.
          1   -1    0    0  501    0  0.00000000000E+00 -0.00000000000E+00 -0.16391668371E+04  0.16391668371E+04  0.00000000000E+00 0. -1.
         23    2    1    2    0    0  0.16291114431E+02 -0.11406639507E+03 -0.20454121253E+02  0.15648606366E+03  0.10388923982E+03 0.  0.
        254    2    1    2    0    0 -0.16291114431E+02  0.11406639507E+03 -0.14199680642E+04  0.16814254251E+04  0.89308768551E+03 0.  0.
        -24    2    4    4    0    0  0.36449261437E+03 -0.15225913258E+03 -0.45458697184E+03  0.60698979950E+03  0.75826066403E+02 0.  0.
         24    2    4    4    0    0 -0.38078372880E+03  0.26632552765E+03 -0.96538109231E+03  0.10744356256E+04  0.80781961649E+02 0.  0.
         11    1    3    3    0    0 -0.26156809931E+02 -0.90103258855E+02  0.16569378958E+02  0.95274971956E+02  0.00000000000E+00 0.  1.
        -11    1    3    3    0    0  0.42447924362E+02 -0.23963136219E+02 -0.37023500212E+02  0.61211091707E+02  0.00000000000E+00 0. -1.
          2    1    6    6  502    0 -0.90411984596E+02  0.55598167717E+02 -0.30418895489E+03  0.32217449230E+03  0.00000000000E+00 0. -1.
          1    1    5    5  503    0  0.12867468843E+03 -0.82515947049E+02 -0.13655346715E+03  0.20497050117E+03  0.00000000000E+00 0. -1.
         -2    1    5    5    0  503  0.23581792594E+03 -0.69743185526E+02 -0.31803350469E+03  0.40201929833E+03  0.00000000000E+00 0.  1.
         -1    1    6    6    0  502 -0.29037174421E+03  0.21072735993E+03 -0.66119213743E+03  0.75226113328E+03  0.00000000000E+00 0.  1.
<mgrwt>
<rscale>  0 0.11415352E+04</rscale>
<asrwt>0</asrwt>
<pdfrwt beam="1">  1        1 0.25217952E+00 0.11415352E+04</pdfrwt>
<pdfrwt beam="2">  1       -1 0.30576100E-01 0.11415352E+04</pdfrwt>
<totfact> 0.51446857E+01</totfact>
</mgrwt>
</event>
<event>
12    1  0.1663913E-007  0.1135781E+04  0.7818608E-02  0.9171002E-01
          1   -1    0    0  501    0  0.00000000000E+00  0.00000000000E+00  0.89786098197E+03  0.89786098197E+03  0.00000000000E+00 0. -1.
         -1   -1    0    0    0  501 -0.00000000000E+00 -0.00000000000E+00 -0.35918659313E+03  0.35918659313E+03  0.00000000000E+00 0.  1.
         23    2    1    2    0    0 -0.45752484798E+02  0.18972026207E+03  0.14182703150E+03  0.25746856634E+03  0.89933798357E+02 0.  0.
        254    2    1    2    0    0  0.45752484798E+02 -0.18972026207E+03  0.39684735734E+03  0.99957900876E+03  0.89642807967E+03 0.  0.
        -24    2    4    4    0    0 -0.10224016746E+03 -0.42573532133E+03 -0.70630273787E+02  0.44952322336E+03  0.73340828288E+02 0.  0.
         24    2    4    4    0    0  0.14799265225E+03  0.23601505926E+03  0.46747763113E+03  0.55005578540E+03  0.80131754792E+02 0.  0.
         13    1    3    3    0    0 -0.28842158019E+01  0.89662297259E+02  0.16058663614E+02  0.91134663699E+02  0.00000000000E+00 0.  1.
        -13    1    3    3    0    0 -0.42868268996E+02  0.10005796481E+03  0.12576836788E+03  0.16633390264E+03  0.00000000000E+00 0. -1.
          2    1    6    6  502    0  0.33571960184E+02  0.87790913989E+02  0.97704944979E+02  0.13557498797E+03  0.00000000000E+00 0. -1.
          1    1    5    5  503    0 -0.25804010289E+02 -0.24845137179E+02 -0.63846969537E+01  0.36385328686E+02  0.00000000000E+00 0. -1.
         -4    1    5    5    0  503 -0.76436157166E+02 -0.40089018415E+03 -0.64245576834E+02  0.41313789467E+03  0.00000000000E+00 0.  1.
         -1    1    6    6    0  502  0.11442069207E+03  0.14822414527E+03  0.36977268615E+03  0.41448079743E+03  0.00000000000E+00 0.  1.
<mgrwt>
<rscale>  0 0.11357810E+04</rscale>
<asrwt>0</asrwt>
<pdfrwt beam="1">  1        1 0.13813246E+00 0.11357810E+04</pdfrwt>
<pdfrwt beam="2">  1       -1 0.55259476E-01 0.11357810E+04</pdfrwt>
<totfact> 0.60124538E+01</totfact>
</mgrwt>
</event>
<event>
12    1  0.1663913E-007  0.2276978E+04  0.7818608E-02  0.8487054E-01
          2   -1    0    0  501    0  0.00000000000E+00  0.00000000000E+00  0.12267256521E+04  0.12267256521E+04  0.00000000000E+00 0. -1.
         -2   -1    0    0    0  501 -0.00000000000E+00 -0.00000000000E+00 -0.10565987411E+04  0.10565987411E+04  0.00000000000E+00 0.  1.
         23    2    1    2    0    0  0.50831908872E+03  0.80177645108E+03 -0.63433408857E+01  0.95431260479E+03  0.97152129334E+02 0.  0.
        254    2    1    2    0    0 -0.50831908872E+03 -0.80177645108E+03  0.17647025195E+03  0.13290117884E+04  0.91317950620E+03 0.  0.
        -24    2    4    4    0    0 -0.18719131679E+03  0.16733970110E+02 -0.27073313853E+03  0.33935656696E+03  0.80906318669E+02 0.  0.
         24    2    4    4    0    0 -0.32112777193E+03 -0.81851042119E+03  0.44720339048E+03  0.98965522149E+03  0.79650671523E+02 0.  0.
         11    1    3    3    0    0  0.12498852702E+03  0.26194742212E+03  0.26260626660E+02  0.29142444021E+03  0.00000000000E+00 0.  1.
        -11    1    3    3    0    0  0.38333056170E+03  0.53982902896E+03 -0.32603967546E+02  0.66288816458E+03  0.00000000000E+00 0. -1.
          4    1    6    6  502    0 -0.55846926947E+02 -0.89922647492E+02  0.73858270635E+02  0.12907364534E+03  0.00000000000E+00 0. -1.
          1    1    5    5  503    0  0.18204848102E+01  0.13784023004E+02 -0.31654659366E+02  0.34573558028E+02  0.00000000000E+00 0. -1.
         -2    1    5    5    0  503 -0.18901180160E+03  0.29499471062E+01 -0.23907847916E+03  0.30478300893E+03  0.00000000000E+00 0.  1.
         -3    1    6    6    0  502 -0.26528084498E+03 -0.72858777369E+03  0.37334511984E+03  0.86058157615E+03  0.00000000000E+00 0.  1.
<mgrwt>
<rscale>  0 0.22769776E+04</rscale>
<asrwt>0</asrwt>
<pdfrwt beam="1">  1        2 0.18872702E+00 0.22769776E+04</pdfrwt>
<pdfrwt beam="2">  1       -2 0.16255365E+00 0.22769776E+04</pdfrwt>
<totfact> 0.40007584E+00</totfact>
</mgrwt>
</event>
<event>
12    1  0.2104809E-007  0.2353025E+04  0.7818608E-02  0.8457303E-01
          1   -1    0    0  501    0  0.00000000000E+00  0.00000000000E+00  0.13654132565E+04  0.13654132565E+04  0.00000000000E+00 0. -1.
         -1   -1    0    0    0  501 -0.00000000000E+00 -0.00000000000E+00 -0.10137455406E+04  0.10137455406E+04  0.00000000000E+00 0.  1.
         23    2    1    2    0    0 -0.19837641438E+03 -0.24224434143E+03  0.10872106636E+04  0.11352090156E+04  0.92935242337E+02 0.  0.
        254    2    1    2    0    0  0.19837641438E+03  0.24224434143E+03 -0.73554294774E+03  0.12439497816E+04  0.95307508012E+03 0.  0.
        -24    2    4    4    0    0  0.75639831958E+02  0.19738821367E+03  0.19501892763E+03  0.30085205354E+03  0.88295441080E+02 0.  0.
         24    2    4    4    0    0  0.12273658242E+03  0.44856127766E+02 -0.93056187536E+03  0.94309772802E+03  0.80072341410E+02 0.  0.
         13    1    3    3    0    0 -0.81823463594E+01 -0.38020963300E+02  0.66521082351E+02  0.77055816389E+02  0.00000000000E+00 0.  1.
        -13    1    3    3    0    0 -0.19019406802E+03 -0.20422337813E+03  0.10206895812E+04  0.10581531992E+04  0.00000000000E+00 0. -1.
          2    1    6    6  502    0  0.84238944796E+02  0.59767907706E+02 -0.78595872072E+03  0.79271654031E+03  0.00000000000E+00 0. -1.
          3    1    5    5  503    0  0.67719679514E+02  0.17767020051E+03  0.20301277837E+03  0.27814895888E+03  0.00000000000E+00 0. -1.
         -2    1    5    5    0  503  0.79201524435E+01  0.19718013153E+02 -0.79938507474E+01  0.22703094661E+02  0.00000000000E+00 0.  1.
         -3    1    6    6    0  502  0.38497637627E+02 -0.14911779940E+02 -0.14460315465E+03  0.15038118771E+03  0.00000000000E+00 0.  1.
<mgrwt>
<rscale>  0 0.23530249E+04</rscale>
<asrwt>0</asrwt>
<pdfrwt beam="1">  1        1 0.21006358E+00 0.23530249E+04</pdfrwt>
<pdfrwt beam="2">  1       -1 0.15596085E+00 0.23530249E+04</pdfrwt>
<totfact> 0.22942422E+00</totfact>
</mgrwt>
</event>
<event>
12    1  0.1663913E-007  0.3942071E+04  0.7818608E-02  0.8016336E-01
          2   -1    0    0  501    0  0.00000000000E+00  0.00000000000E+00  0.11137030871E+04  0.11137030871E+04  0.00000000000E+00 0. -1.
         -2   -1    0    0    0  501 -0.00000000000E+00 -0.00000000000E+00 -0.34883458145E+04  0.34883458145E+04  0.00000000000E+00 0.  1.
         23    2    1    2    0    0  0.90419584901E+03  0.14896345156E+04 -0.19153244820E+04  0.25910219958E+04  0.91356379199E+02 0.  0.
        254    2    1    2    0    0 -0.90419584901E+03 -0.14896345156E+04 -0.45931824541E+03  0.20110269058E+04  0.89256643561E+03 0.  0.
        -24    2    4    4    0    0 -0.29732885658E+03 -0.33491135909E+03 -0.53471873171E+03  0.70197149851E+03  0.79182038840E+02 0.  0.
         24    2    4    4    0    0 -0.60686699243E+03 -0.11547231565E+04  0.75400486298E+02  0.13090554073E+04  0.79168879216E+02 0.  0.
         11    1    3    3    0    0  0.76458419291E+03  0.12306633471E+04 -0.16363190406E+04  0.21855574265E+04  0.00000000000E+00 0.  1.
        -11    1    3    3    0    0  0.13961165610E+03  0.25897116846E+03 -0.27900544138E+03  0.40546456927E+03  0.00000000000E+00 0. -1.
          4    1    6    6  502    0 -0.39960714721E+03 -0.73453583246E+03  0.84384667719E+02  0.84044603242E+03  0.00000000000E+00 0. -1.
          1    1    5    5  503    0 -0.19829857011E+03 -0.23038464098E+03 -0.30324871382E+03  0.42937068850E+03  0.00000000000E+00 0. -1.
         -2    1    5    5    0  503 -0.99030286465E+02 -0.10452671811E+03 -0.23147001789E+03  0.27260081001E+03  0.00000000000E+00 0.  1.
         -3    1    6    6    0  502 -0.20725984522E+03 -0.42018732402E+03 -0.89841814210E+01  0.46860937488E+03  0.00000000000E+00 0.  1.
<mgrwt>
<rscale>  0 0.39420713E+04</rscale>
<asrwt>0</asrwt>
<pdfrwt beam="1">  1        2 0.17133894E+00 0.39420713E+04</pdfrwt>
<pdfrwt beam="2">  1       -2 0.53666858E+00 0.39420713E+04</pdfrwt>
<totfact> 0.17031970E-02</totfact>
</mgrwt>
</event>
<event>
12    1  0.1663913E-007  0.2751244E+04  0.7818608E-02  0.8318567E-01
          2   -1    0    0  501    0  0.00000000000E+00  0.00000000000E+00  0.24410540264E+04  0.24410540264E+04  0.00000000000E+00 0.  1.
         -2   -1    0    0    0  501 -0.00000000000E+00 -0.00000000000E+00 -0.77521239551E+03  0.77521239551E+03  0.00000000000E+00 0. -1.
         23    2    1    2    0    0  0.40536898277E+03 -0.41895582310E+03 -0.51695496241E+03  0.78449804965E+03  0.91360619721E+02 0.  0.
        254    2    1    2    0    0 -0.40536898277E+03  0.41895582310E+03  0.21827965933E+04  0.24317683723E+04  0.89947120842E+03 0.  0.
        -24    2    4    4    0    0 -0.22734186436E+03  0.67581662191E+03  0.12087618063E+04  0.14056510335E+04  0.79607121734E+02 0.  0.
         24    2    4    4    0    0 -0.17802711841E+03 -0.25686079881E+03  0.97403478702E+03  0.10261173388E+04  0.80634371220E+02 0.  0.
         11    1    3    3    0    0  0.53174783293E+02 -0.48269550220E+02 -0.28189019408E+02  0.77150034815E+02  0.00000000000E+00 0.  1.
        -11    1    3    3    0    0  0.35219419948E+03 -0.37068627288E+03 -0.48876594300E+03  0.70734801483E+03  0.00000000000E+00 0. -1.
          2    1    6    6  502    0 -0.16686463188E+00 -0.28522103733E+02  0.47280737694E+02  0.55217808740E+02  0.00000000000E+00 0. -1.
          1    1    5    5  503    0 -0.13513150743E+03  0.42246918337E+03  0.67549940845E+03  0.80810901864E+03  0.00000000000E+00 0. -1.
         -2    1    5    5    0  503 -0.92210356930E+02  0.25334743854E+03  0.53326239787E+03  0.59754201486E+03  0.00000000000E+00 0.  1.
         -1    1    6    6    0  502 -0.17786025378E+03 -0.22833869508E+03  0.92675404932E+03  0.97089953007E+03  0.00000000000E+00 0.  1.
<mgrwt>
<rscale>  0 0.27512436E+04</rscale>
<asrwt>0</asrwt>
<pdfrwt beam="1">  1        2 0.37554677E+00 0.27512436E+04</pdfrwt>
<pdfrwt beam="2">  1       -2 0.11926345E+00 0.27512436E+04</pdfrwt>
<totfact> 0.17732901E+00</totfact>
</mgrwt>
</event>
<event>
12    1  0.1663913E-007  0.2257765E+04  0.7818608E-02  0.8494762E-01
          1   -1    0    0  501    0  0.00000000000E+00  0.00000000000E+00  0.74522699588E+03  0.74522699588E+03  0.00000000000E+00 0. -1.
         -1   -1    0    0    0  501 -0.00000000000E+00 -0.00000000000E+00 -0.17100507613E+04  0.17100507613E+04  0.00000000000E+00 0.  1.
         23    2    1    2    0    0  0.74823391794E+03 -0.44373287504E+03 -0.80514150286E+03  0.11884009942E+04  0.85388659377E+02 0.  0.
        254    2    1    2    0    0 -0.74823391794E+03  0.44373287504E+03 -0.15968226256E+03  0.12668767629E+04  0.90704214188E+03 0.  0.
        -24    2    4    4    0    0  0.17797381886E+03  0.22616780661E+03  0.73821911860E+01  0.29756817964E+03  0.75271294945E+02 0.  0.
         24    2    4    4    0    0 -0.92620773680E+03  0.21756506843E+03 -0.16706445375E+03  0.96930858329E+03  0.80332230353E+02 0.  0.
         11    1    3    3    0    0  0.60607592470E+02 -0.13018711161E+02 -0.70143905150E+02  0.93610547135E+02  0.00000000000E+00 0.  1.
        -11    1    3    3    0    0  0.68762632547E+03 -0.43071416388E+03 -0.73499759771E+03  0.10947904471E+04  0.00000000000E+00 0. -1.
          4    1    6    6  502    0 -0.33759023321E+03  0.79806624896E+02 -0.10033395178E+03  0.36111378375E+03  0.00000000000E+00 0. -1.
          1    1    5    5  503    0  0.11185465466E+03  0.19313098023E+03  0.12038920023E+02  0.22350833293E+03  0.00000000000E+00 0. -1.
         -4    1    5    5    0  503  0.66119164197E+02  0.33036826380E+02 -0.46567288369E+01  0.74059846711E+02  0.00000000000E+00 0.  1.
         -3    1    6    6    0  502 -0.58861750359E+03  0.13775844353E+03 -0.66730501966E+02  0.60819479954E+03  0.00000000000E+00 0.  1.
<mgrwt>
<rscale>  0 0.22577653E+04</rscale>
<asrwt>0</asrwt>
<pdfrwt beam="1">  1        1 0.11465031E+00 0.22577653E+04</pdfrwt>
<pdfrwt beam="2">  1       -1 0.26308473E+00 0.22577653E+04</pdfrwt>
<totfact> 0.12858203E+00</totfact>
</mgrwt>
</event>
<event>
12    1  0.1663913E-007  0.1550898E+04  0.7818608E-02  0.8851294E-01
         -2   -1    0    0    0  501 -0.00000000000E+00  0.00000000000E+00  0.15860933636E+04  0.15860933636E+04  0.00000000000E+00 0.  1.
          2   -1    0    0  501    0  0.00000000000E+00 -0.00000000000E+00 -0.37912107840E+03  0.37912107840E+03  0.00000000000E+00 0. -1.
         23    2    1    2    0    0 -0.61744222198E+02  0.27396491195E+03 -0.13767354119E+03  0.32473669395E+03  0.87354418884E+02 0.  0.
        254    2    1    2    0    0  0.61744222198E+02 -0.27396491195E+03  0.13446458264E+04  0.16404777481E+04  0.89678632987E+03 0.  0.
        -24    2    4    4    0    0  0.89442865646E+02 -0.25914602538E+03  0.14634607335E+04  0.14909855202E+04  0.78509961248E+02 0.  0.
         24    2    4    4    0    0 -0.27698643448E+02 -0.14818886575E+02 -0.11881490712E+03  0.14949222791E+03  0.85112453872E+02 0.  0.
         13    1    3    3    0    0 -0.33836763946E+02  0.25386474999E+03 -0.13674907980E+03  0.29033179073E+03  0.00000000000E+00 0. -1.
        -13    1    3    3    0    0 -0.27907458251E+02  0.20100161958E+02 -0.92446139694E+00  0.34404903221E+02  0.00000000000E+00 0.  1.
          2    1    6    6  502    0 -0.10181013884E+02  0.34604407746E+02 -0.65109215781E+02  0.74433380004E+02  0.00000000000E+00 0. -1.
          3    1    5    5  503    0  0.41970723470E+02 -0.21545010244E+03  0.10717424480E+04  0.10939891056E+04  0.00000000000E+00 0. -1.
         -4    1    5    5    0  503  0.47472142176E+02 -0.43695922940E+02  0.39171828551E+03  0.39699641455E+03  0.00000000000E+00 0.  1.
         -1    1    6    6    0  502 -0.17517629564E+02 -0.49423294322E+02 -0.53705691339E+02  0.75058847909E+02  0.00000000000E+00 0.  1.
<mgrwt>
<rscale>  0 0.15508984E+04</rscale>
<asrwt>0</asrwt>
<pdfrwt beam="1">  1        2 0.58326321E-01 0.15508984E+04</pdfrwt>
<pdfrwt beam="2">  1       -2 0.24401436E+00 0.15508984E+04</pdfrwt>
<totfact> 0.56892202E+00</totfact>
</mgrwt>
</event>
<event>
12    1  0.1663913E-007  0.1107279E+04  0.7818608E-02  0.9198126E-01
         -1   -1    0    0    0  501 -0.00000000000E+00  0.00000000000E+00  0.10220789108E+03  0.10220789108E+03  0.00000000000E+00 0.  1.
          1   -1    0    0  501    0  0.00000000000E+00 -0.00000000000E+00 -0.29989533266E+04  0.29989533266E+04  0.00000000000E+00 0. -1.
         23    2    1    2    0    0  0.15985397659E+03  0.59789187919E+02 -0.71682267537E+03  0.74250861638E+03  0.91412562861E+02 0.  0.
        254    2    1    2    0    0 -0.15985397659E+03 -0.59789187919E+02 -0.21799227602E+04  0.23586526013E+04  0.88433636846E+03 0.  0.
        -24    2    4    4    0    0  0.23835442446E+03 -0.32871725147E+03 -0.10138079506E+04  0.10949589369E+04  0.79124267972E+02 0.  0.
         24    2    4    4    0    0 -0.39820840105E+03  0.26892806355E+03 -0.11661148096E+04  0.12636936644E+04  0.78776229309E+02 0.  0.
         11    1    3    3    0    0 -0.11542995467E+02 -0.13666339701E+01 -0.44233980294E+02  0.45735691155E+02  0.00000000000E+00 0.  1.
        -11    1    3    3    0    0  0.17139697206E+03  0.61155821889E+02 -0.67258869508E+03  0.69677292523E+03  0.00000000000E+00 0. -1.
          2    1    6    6  502    0 -0.31620879270E+03  0.24691523407E+03 -0.98921330992E+03  0.10674727659E+04  0.00000000000E+00 0. -1.
          3    1    5    5  503    0  0.14512591838E+03 -0.24114134209E+03 -0.61977378004E+03  0.68068363979E+03  0.00000000000E+00 0. -1.
         -4    1    5    5    0  503  0.93228506080E+02 -0.87575909373E+02 -0.39403417055E+03  0.41427529713E+03  0.00000000000E+00 0.  1.
         -1    1    6    6    0  502 -0.81999608355E+02  0.22012829474E+02 -0.17690149967E+03  0.19622089853E+03  0.00000000000E+00 0.  1.
<mgrwt>
<rscale>  0 0.11072790E+04</rscale>
<asrwt>0</asrwt>
<pdfrwt beam="1">  1        1 0.46137742E+00 0.11072790E+04</pdfrwt>
<pdfrwt beam="2">  1       -1 0.15724291E-01 0.11072790E+04</pdfrwt>
<totfact> 0.18480021E+01</totfact>
</mgrwt>
</event>
<event>
12    1  0.1663913E-007  0.1554094E+04  0.7818608E-02  0.8849257E-01
         -2   -1    0    0    0  501 -0.00000000000E+00  0.00000000000E+00  0.53638798756E+03  0.53638798756E+03  0.00000000000E+00 0.  1.
          2   -1    0    0  501    0  0.00000000000E+00 -0.00000000000E+00 -0.11256813296E+04  0.11256813296E+04  0.00000000000E+00 0. -1.
         23    2    1    2    0    0 -0.10058193776E+03  0.51696470242E+03 -0.27634117577E+03  0.60176889468E+03  0.91608555434E+02 0.  0.
        254    2    1    2    0    0  0.10058193776E+03 -0.51696470242E+03 -0.31295216632E+03  0.10603004225E+04  0.86540666618E+03 0.  0.
        -24    2    4    4    0    0  0.63175001960E+02  0.15977920569E+03 -0.32672904605E+03  0.37764967930E+03  0.79667655269E+02 0.  0.
         24    2    4    4    0    0  0.37406935799E+02 -0.67674390811E+03  0.13776879737E+02  0.68265074323E+03  0.80253590637E+02 0.  0.
         13    1    3    3    0    0  0.21657164911E+01  0.54813481521E+02 -0.26585301958E+01  0.54920632437E+02  0.00000000000E+00 0. -1.
        -13    1    3    3    0    0 -0.10274765425E+03  0.46215122089E+03 -0.27368264557E+03  0.54684826224E+03  0.00000000000E+00 0.  1.
          2    1    6    6  502    0  0.44413162587E+02 -0.20430880132E+03 -0.12324094837E+02  0.20944330646E+03  0.00000000000E+00 0. -1.
          3    1    5    5  503    0 -0.17514750078E+02  0.48924467702E+02 -0.99686968597E+02  0.11241824460E+03  0.00000000000E+00 0. -1.
         -4    1    5    5    0  503  0.80689752038E+02  0.11085473799E+03 -0.22704207746E+03  0.26523143470E+03  0.00000000000E+00 0.  1.
         -1    1    6    6    0  502 -0.70062267880E+01 -0.47243510679E+03  0.26100974575E+02  0.47320743677E+03  0.00000000000E+00 0.  1.
<mgrwt>
<rscale>  0 0.15540939E+04</rscale>
<asrwt>0</asrwt>
<pdfrwt beam="1">  1        2 0.17318174E+00 0.15540939E+04</pdfrwt>
<pdfrwt beam="2">  1       -2 0.82521230E-01 0.15540939E+04</pdfrwt>
<totfact> 0.26056828E+01</totfact>
</mgrwt>
</event>
<event>
12    1  0.1663913E-007  0.3631189E+04  0.7818608E-02  0.8083385E-01
         -2   -1    0    0    0  501 -0.00000000000E+00  0.00000000000E+00  0.17030091319E+04  0.17030091319E+04  0.00000000000E+00 0.  1.
          2   -1    0    0  501    0  0.00000000000E+00 -0.00000000000E+00 -0.19356224344E+04  0.19356224344E+04  0.00000000000E+00 0. -1.
         23    2    1    2    0    0  0.25521976081E+02 -0.11512341205E+04 -0.13662842332E+04  0.17893202930E+04  0.94568142026E+02 0.  0.
        254    2    1    2    0    0 -0.25521976081E+02  0.11512341205E+04  0.11336709307E+04  0.18493112733E+04  0.89930586287E+03 0.  0.
        -24    2    4    4    0    0 -0.17629254942E+03  0.11606305821E+03  0.66039547519E+03  0.69810771548E+03  0.81746573567E+02 0.  0.
         24    2    4    4    0    0  0.15077057333E+03  0.10351710623E+04  0.47327545553E+03  0.11512035578E+04  0.83481020533E+02 0.  0.
         13    1    3    3    0    0  0.37697997856E+02 -0.90474143805E+03 -0.10180110501E+04  0.13624700756E+04  0.00000000000E+00 0. -1.
        -13    1    3    3    0    0 -0.12176021775E+02 -0.24649268245E+03 -0.34827318311E+03  0.42685021738E+03  0.00000000000E+00 0.  1.
          2    1    6    6  502    0 -0.68187529880E+01  0.10547629191E+03  0.61234984354E+02  0.12215345618E+03  0.00000000000E+00 0. -1.
          1    1    5    5  503    0 -0.48857575389E+02  0.22288755033E+01  0.87136069059E+02  0.99923596262E+02  0.00000000000E+00 0. -1.
         -2    1    5    5    0  503 -0.12743497403E+03  0.11383418270E+03  0.57325940614E+03  0.59818411921E+03  0.00000000000E+00 0.  1.
         -1    1    6    6    0  502  0.15758932632E+03  0.92969477038E+03  0.41204047117E+03  0.10290501017E+04  0.00000000000E+00 0.  1.
<mgrwt>
<rscale>  0 0.36311886E+04</rscale>
<asrwt>0</asrwt>
<pdfrwt beam="1">  1        2 0.29778806E+00 0.36311886E+04</pdfrwt>
<pdfrwt beam="2">  1       -2 0.26200141E+00 0.36311886E+04</pdfrwt>
<totfact> 0.31994871E-01</totfact>
</mgrwt>
</event>
<event>
12    1  0.1750036E-007  0.1935053E+04  0.7818608E-02  0.8637603E-01
          1   -1    0    0  501    0  0.00000000000E+00  0.00000000000E+00  0.83718890197E+03  0.83718890197E+03  0.00000000000E+00 0. -1.
         -1   -1    0    0    0  501 -0.00000000000E+00 -0.00000000000E+00 -0.11181551300E+04  0.11181551300E+04  0.00000000000E+00 0.  1.
         23    2    1    2    0    0 -0.96840579428E+02 -0.41837999618E+03  0.51202593937E+03  0.67440752242E+03  0.90747036752E+02 0.  0.
        254    2    1    2    0    0  0.96840579428E+02  0.41837999618E+03 -0.79299216738E+03  0.12809365095E+04  0.90969326968E+03 0.  0.
        -24    2    4    4    0    0 -0.46078118533E+02  0.60154955933E+03 -0.83307391742E+03  0.10316115803E+04  0.78900161269E+02 0.  0.
         24    2    4    4    0    0  0.14291869796E+03 -0.18316956315E+03  0.40081750045E+02  0.24932492920E+03  0.81114305429E+02 0.  0.
         13    1    3    3    0    0 -0.73798650818E+02 -0.29791879011E+03  0.29835202215E+03  0.42803711928E+03  0.00000000000E+00 0. -1.
        -13    1    3    3    0    0 -0.23041928611E+02 -0.12046120608E+03  0.21367391721E+03  0.24637040313E+03  0.00000000000E+00 0.  1.
          4    1    6    6  502    0  0.13821027959E+03 -0.18848847831E+03  0.28124221084E+02  0.23541656622E+03  0.00000000000E+00 0. -1.
          3    1    5    5  503    0 -0.53216229224E+02  0.55743877360E+03 -0.79767172718E+03  0.97460255371E+03  0.00000000000E+00 0. -1.
         -4    1    5    5    0  503  0.71381106910E+01  0.44110785730E+02 -0.35402190246E+02  0.57009026621E+02  0.00000000000E+00 0.  1.
         -3    1    6    6    0  502  0.47084183675E+01  0.53189151596E+01  0.11957528961E+02  0.13908362982E+02  0.00000000000E+00 0.  1.
<mgrwt>
<rscale>  0 0.19350525E+04</rscale>
<asrwt>0</asrwt>
<pdfrwt beam="1">  1        1 0.12879829E+00 0.19350525E+04</pdfrwt>
<pdfrwt beam="2">  1       -1 0.17202387E+00 0.19350525E+04</pdfrwt>
<totfact> 0.45550142E+00</totfact>
</mgrwt>
</event>
<event>
12    1  0.1663913E-007  0.3519862E+04  0.7818608E-02  0.8109099E-01
          2   -1    0    0  501    0  0.00000000000E+00  0.00000000000E+00  0.31699527830E+04  0.31699527830E+04  0.00000000000E+00 0.  1.
         -2   -1    0    0    0  501 -0.00000000000E+00 -0.00000000000E+00 -0.97709857366E+03  0.97709857366E+03  0.00000000000E+00 0. -1.
         23    2    1    2    0    0  0.26550000698E+03 -0.15202920164E+04  0.35824282075E+03  0.15868929647E+04  0.90073823769E+02 0.  0.
        254    2    1    2    0    0 -0.26550000698E+03  0.15202920164E+04  0.18346113886E+04  0.25601583921E+04  0.89823937576E+03 0.  0.
        -24    2    4    4    0    0 -0.12236708696E+03  0.13893196097E+04  0.10513188709E+04  0.17483860798E+04  0.79998960411E+02 0.  0.
         24    2    4    4    0    0 -0.14313292002E+03  0.13097240670E+03  0.78329251769E+03  0.81177231226E+03  0.88240096135E+02 0.  0.
         11    1    3    3    0    0  0.22890217811E+02 -0.80531101205E+02  0.38910377094E+02  0.92321383104E+02  0.00000000000E+00 0.  1.
        -11    1    3    3    0    0  0.24260978917E+03 -0.14397609152E+04  0.31933244366E+03  0.14945715816E+04  0.00000000000E+00 0. -1.
          4    1    6    6  502    0 -0.13367906285E+01  0.18503027392E+02  0.20458368910E+03  0.20542306316E+03  0.00000000000E+00 0. -1.
          1    1    5    5  503    0 -0.46526846852E+02  0.23359581131E+03  0.16039437053E+03  0.28715519260E+03  0.00000000000E+00 0. -1.
         -2    1    5    5    0  503 -0.75840240105E+02  0.11557237984E+04  0.89092450041E+03  0.14612308872E+04  0.00000000000E+00 0.  1.
         -3    1    6    6    0  502 -0.14179612939E+03  0.11246937931E+03  0.57870882859E+03  0.60634924910E+03  0.00000000000E+00 0.  1.
<mgrwt>
<rscale>  0 0.35198616E+04</rscale>
<asrwt>0</asrwt>
<pdfrwt beam="1">  1        2 0.48768504E+00 0.35198616E+04</pdfrwt>
<pdfrwt beam="2">  1       -2 0.15032286E+00 0.35198616E+04</pdfrwt>
<totfact> 0.33120508E-01</totfact>
</mgrwt>
</event>
<event>
12    1  0.1663913E-007  0.1811160E+04  0.7818608E-02  0.8700387E-01
          2   -1    0    0  501    0  0.00000000000E+00  0.00000000000E+00  0.25798630469E+04  0.25798630469E+04  0.00000000000E+00 0.  1.
         -2   -1    0    0    0  501 -0.00000000000E+00 -0.00000000000E+00 -0.31787547096E+03  0.31787547096E+03  0.00000000000E+00 0. -1.
         23    2    1    2    0    0 -0.33971167023E+03 -0.39786370095E+01  0.17927136478E+04  0.18271646565E+04  0.96377437102E+02 0.  0.
        254    2    1    2    0    0  0.33971167023E+03  0.39786370095E+01  0.46927392811E+03  0.10705738614E+04  0.90027247242E+03 0.  0.
        -24    2    4    4    0    0  0.41101109673E+03  0.12794077407E+03  0.67571022217E+03  0.80532533826E+03  0.81643326765E+02 0.  0.
         24    2    4    4    0    0 -0.71299426499E+02 -0.12396213706E+03 -0.20643629405E+03  0.26524852311E+03  0.85385103289E+02 0.  0.
         13    1    3    3    0    0 -0.24848802346E+03 -0.43221441616E+02  0.13613906341E+04  0.13845572756E+04  0.00000000000E+00 0.  1.
        -13    1    3    3    0    0 -0.91223646769E+02  0.39242804606E+02  0.43132301372E+03  0.44260738088E+03  0.00000000000E+00 0. -1.
          4    1    6    6  502    0 -0.53308210611E+02 -0.12636028615E+03 -0.13843432989E+03  0.19486598196E+03  0.00000000000E+00 0. -1.
          1    1    5    5  503    0  0.39572391286E+03  0.13248730644E+03  0.61988721597E+03  0.74726866795E+03  0.00000000000E+00 0. -1.
         -2    1    5    5    0  503  0.15287183870E+02 -0.45465323645E+01  0.55823006198E+02  0.58056670317E+02  0.00000000000E+00 0.  1.
         -3    1    6    6    0  502 -0.17991215889E+02  0.23981490830E+01 -0.68001964161E+02  0.70382541144E+02  0.00000000000E+00 0.  1.
<mgrwt>
<rscale>  0 0.18111600E+04</rscale>
<asrwt>0</asrwt>
<pdfrwt beam="1">  1        2 0.39690199E+00 0.18111600E+04</pdfrwt>
<pdfrwt beam="2">  1       -2 0.48903920E-01 0.18111600E+04</pdfrwt>
<totfact> 0.11695188E+01</totfact>
</mgrwt>
</event>
