<event>
12    1  0.1755460E-007  0.1036197E+04  0.7818608E-02  0.9269711E-01
          1   -1    0    0  501    0  0.00000000000E+00  0.00000000000E+00  0.87276446481E+03  0.87276446481E+03  0.00000000000E+00 0. -1.
         -1   -1    0    0    0  501 -0.00000000000E+00 -0.00000000000E+00 -0.30755870566E+03  0.30755870566E+03  0.00000000000E+00 0.  1.
         23    2    1    2    0    0 -0.18088370964E+02  0.25254877103E+02  0.16071667034E+03  0.18981588934E+03  0.96100081895E+02 0.  0.
        254    2    1    2    0    0  0.18088370964E+02 -0.25254877103E+02  0.40448908881E+03  0.99050728113E+03  0.90361952891E+03 0.  0.
        -24    2    4    4    0    0 -0.21962600249E+03  0.31602071865E+03  0.40948445795E+03  0.56740385557E+03  0.78517121862E+02 0.  0.
         24    2    4    4    0    0  0.23771437346E+03 -0.34127559575E+03 -0.49953691414E+01  0.42310342557E+03  0.77552559022E+02 0.  0.
         13    1    3    3    0    0  0.41497243767E+01  0.27983602640E+02  0.16465494300E+03  0.16706750876E+03  0.00000000000E+00 0. -1.
        -13    1    3    3    0    0 -0.22238095340E+02 -0.27287255378E+01 -0.39382726624E+01  0.22748380580E+02  0.00000000000E+00 0.  1.
          4    1    6    6  502    0  0.13284992745E+03 -0.12877889904E+03 -0.17247216697E+02  0.18582404189E+03  0.00000000000E+00 0. -1.
          3    1    5    5  503    0 -0.21975750712E+03  0.30469292879E+03  0.40997188044E+03  0.55606482135E+03  0.00000000000E+00 0. -1.
         -4    1    5    5    0  503  0.13150462203E+00  0.11327789851E+02 -0.48742248600E+00  0.11339034221E+02  0.00000000000E+00 0.  1.
         -3    1    6    6    0  502  0.10486444601E+03 -0.21249669671E+03  0.12251847556E+02  0.23727938368E+03  0.00000000000E+00 0.  1.
<mgrwt>
<rscale>  0 0.10361975E+04</rscale>
<asrwt>0</asrwt>
<pdfrwt beam="1">  1        1 0.13427146E+00 0.10361975E+04</pdfrwt>
<pdfrwt beam="2">  1       -1 0.47316724E-01 0.10361975E+04</pdfrwt>
<totfact> 0.85412857E+01</totfact>
</mgrwt>
</event>
<event>
12    1  0.1755460E-007  0.2237601E+04  0.7818608E-02  0.8502939E-01
          1   -1    0    0  501    0  0.00000000000E+00  0.00000000000E+00  0.21820752178E+04  0.21820752178E+04  0.00000000000E+00 0. -1.
         -1   -1    0    0    0  501 -0.00000000000E+00 -0.00000000000E+00 -0.57363500309E+03  0.57363500309E+03  0.00000000000E+00 0.  1.
         23    2    1    2    0    0 -0.37291267010E+02 -0.12144965677E+02 -0.47818684304E+03  0.48769297201E+03  0.87427909212E+02 0.  0.
        254    2    1    2    0    0  0.37291267010E+02  0.12144965677E+02  0.20866270577E+04  0.22680172489E+04  0.88789167373E+03 0.  0.
        -24    2    4    4    0    0  0.10795318596E+03  0.12772571500E+03  0.21017704368E+04  0.21099729594E+04  0.81112094451E+02 0.  0.
         24    2    4    4    0    0 -0.70661918952E+02 -0.11558074932E+03 -0.15143379038E+02  0.15804428947E+03  0.79979116657E+02 0.  0.
         13    1    3    3    0    0  0.22706623562E+02  0.30323667462E+01 -0.49281647149E+02  0.54345807082E+02  0.00000000000E+00 0. -1.
        -13    1    3    3    0    0 -0.59997890572E+02 -0.15177332423E+02 -0.42890519589E+03  0.43334716493E+03  0.00000000000E+00 0.  1.
          2    1    6    6  502    0 -0.11901354945E+02 -0.73685378794E+02 -0.36078251589E+02  0.82902457957E+02  0.00000000000E+00 0. -1.
          1    1    5    5  503    0  0.95049927007E+02  0.13891946494E+03  0.19470691410E+04  0.19543314320E+04  0.00000000000E+00 0. -1.
         -2    1    5    5    0  503  0.12903258955E+02 -0.11193749941E+02  0.15470129579E+03  0.15564152739E+03  0.00000000000E+00 0.  1.
         -1    1    6    6    0  502 -0.58760564008E+02 -0.41895370525E+02  0.20934872552E+02  0.75141831510E+02  0.00000000000E+00 0.  1.
<mgrwt>
<rscale>  0 0.22376011E+04</rscale>
<asrwt>0</asrwt>
<pdfrwt beam="1">  1        1 0.33570388E+00 0.22376011E+04</pdfrwt>
<pdfrwt beam="2">  1       -1 0.88251540E-01 0.22376011E+04</pdfrwt>
<totfact> 0.25679063E+00</totfact>
</mgrwt>
</event>
<event>
12    1  0.1755460E-007  0.1603503E+04  0.7818608E-02  0.8818399E-01
          1   -1    0    0  501    0  0.00000000000E+00  0.00000000000E+00  0.45519990246E+03  0.45519990246E+03  0.00000000000E+00 0. -1.
         -1   -1    0    0    0  501 -0.00000000000E+00 -0.00000000000E+00 -0.14121389191E+04  0.14121389191E+04  0.00000000000E+00 0.  1.
         23    2    1    2    0    0 -0.35545683766E+03  0.35774926430E+03 -0.19558301124E+03  0.54857224216E+03  0.91349280450E+02 0.  0.
        254    2    1    2    0    0  0.35545683766E+03 -0.35774926430E+03 -0.76135600543E+03  0.13187665794E+04  0.95139278137E+03 0.  0.
        -24    2    4    4    0    0  0.13463501940E+03 -0.38662401205E+03  0.97003770023E+02  0.42839724552E+03  0.80683043022E+02 0.  0.
         24    2    4    4    0    0  0.22082181827E+03  0.28874747749E+02 -0.85835977545E+03  0.89036933390E+03  0.79875028416E+02 0.  0.
         13    1    3    3    0    0 -0.89996227889E+02  0.14628697195E+03 -0.46893276513E+02  0.17803982302E+03  0.00000000000E+00 0. -1.
        -13    1    3    3    0    0 -0.26546060977E+03  0.21146229234E+03 -0.14868973473E+03  0.37053241914E+03  0.00000000000E+00 0.  1.
          4    1    6    6  502    0  0.16004928458E+03  0.17759020840E+02 -0.46282997496E+03  0.49004361238E+03  0.00000000000E+00 0. -1.
          1    1    5    5  503    0  0.43632301357E+02 -0.21648529248E+03  0.79278380914E+02  0.23463742511E+03  0.00000000000E+00 0. -1.
         -2    1    5    5    0  503  0.91002718039E+02 -0.17013871957E+03  0.17725389109E+02  0.19375982041E+03  0.00000000000E+00 0.  1.
         -3    1    6    6    0  502  0.60772533689E+02  0.11115726909E+02 -0.39552980049E+03  0.40032572152E+03  0.00000000000E+00 0.  1.
<mgrwt>
<rscale>  0 0.16035030E+04</rscale>
<asrwt>0</asrwt>
<pdfrwt beam="1">  1        1 0.70030755E-01 0.16035030E+04</pdfrwt>
<pdfrwt beam="2">  1       -1 0.21725214E+00 0.16035030E+04</pdfrwt>
<totfact> 0.55521850E+00</totfact>
</mgrwt>
</event>
<event>
12    1  0.1755460E-007  0.2233466E+04  0.7818608E-02  0.8504627E-01
         -1   -1    0    0    0  501 -0.00000000000E+00  0.00000000000E+00  0.97962321732E+03  0.97962321732E+03  0.00000000000E+00 0.  1.
          1   -1    0    0  501    0  0.00000000000E+00 -0.00000000000E+00 -0.12730327741E+04  0.12730327741E+04  0.00000000000E+00 0. -1.
         23    2    1    2    0    0 -0.45498824560E+03  0.35057798129E+03  0.61743062062E+03  0.84823722741E+03  0.91469110020E+02 0.  0.
        254    2    1    2    0    0  0.45498824560E+03 -0.35057798129E+03 -0.91084017736E+03  0.14044187640E+04  0.90157806721E+03 0.  0.
        -24    2    4    4    0    0  0.55401054861E+03 -0.13122824255E+02 -0.17700952515E+03  0.58707718712E+03  0.78913593037E+02 0.  0.
         24    2    4    4    0    0 -0.99022303002E+02 -0.33745515704E+03 -0.73383065221E+03  0.81734157684E+03  0.76540365832E+02 0.  0.
         13    1    3    3    0    0 -0.34194813854E+02  0.26738681832E+02  0.16778327513E+02  0.46537669417E+02  0.00000000000E+00 0. -1.
        -13    1    3    3    0    0 -0.42079343175E+03  0.32383929946E+03  0.60065229311E+03  0.80169955800E+03  0.00000000000E+00 0.  1.
          2    1    6    6  502    0  0.30785524101E+01 -0.50918053008E+02 -0.15909749110E+03  0.16707524437E+03  0.00000000000E+00 0. -1.
          3    1    5    5  503    0  0.20873540935E+02  0.70398005770E+01  0.63568101713E+01  0.22927549779E+02  0.00000000000E+00 0. -1.
         -4    1    5    5    0  503  0.53313700767E+03 -0.20162624832E+02 -0.18336633532E+03  0.56414963734E+03  0.00000000000E+00 0.  1.
         -1    1    6    6    0  502 -0.10210085541E+03 -0.28653710403E+03 -0.57473316111E+03  0.65026633247E+03  0.00000000000E+00 0.  1.
<mgrwt>
<rscale>  0 0.22334659E+04</rscale>
<asrwt>0</asrwt>
<pdfrwt beam="1">  1        1 0.19585119E+00 0.22334659E+04</pdfrwt>
<pdfrwt beam="2">  1       -1 0.15071127E+00 0.22334659E+04</pdfrwt>
<totfact> 0.29619471E+00</totfact>
</mgrwt>
</event>
<event>
12    1  0.1957598E-007  0.3552928E+04  0.7818608E-02  0.8101360E-01
         -2   -1    0    0    0  501 -0.00000000000E+00  0.00000000000E+00  0.19284882176E+04  0.19284882176E+04  0.00000000000E+00 0. -1.
          2   -1    0    0  501    0  0.00000000000E+00 -0.00000000000E+00 -0.16364243121E+04  0.16364243121E+04  0.00000000000E+00 0.  1.
         23    2    1    2    0    0 -0.14373932401E+04 -0.59230868490E+02  0.96043255798E+03  0.17320387184E+04  0.88993264761E+02 0.  0.
        254    2    1    2    0    0  0.14373932401E+04  0.59230868490E+02 -0.66836865252E+03  0.18328738113E+04  0.91820593010E+03 0.  0.
        -24    2    4    4    0    0  0.42089598899E+03 -0.10129740528E+03 -0.66918282079E+03  0.80085183209E+03  0.78379917435E+02 0.  0.
         24    2    4    4    0    0  0.10164972511E+04  0.16052827377E+03  0.81416827464E+00  0.10320219792E+04  0.77670551332E+02 0.  0.
         11    1    3    3    0    0 -0.46855788189E+03 -0.65936824240E+01  0.26562359310E+03  0.53865188995E+03  0.00000000000E+00 0.  1.
        -11    1    3    3    0    0 -0.96883535821E+03 -0.52637186066E+02  0.69480896488E+03  0.11933868285E+04  0.00000000000E+00 0. -1.
          2    1    6    6  502    0  0.97330867993E+03  0.16806420137E+03  0.70652637002E+01  0.98773745508E+03  0.00000000000E+00 0. -1.
          3    1    5    5  503    0  0.34271778079E+03 -0.11288905294E+03 -0.55500539751E+03  0.66198973316E+03  0.00000000000E+00 0. -1.
         -4    1    5    5    0  503  0.78178208204E+02  0.11591647655E+02 -0.11417742328E+03  0.13886209894E+03  0.00000000000E+00 0.  1.
         -1    1    6    6    0  502  0.43188571176E+02 -0.75359275963E+01 -0.62510954256E+01  0.44284524148E+02  0.00000000000E+00 0.  1.
<mgrwt>
<rscale>  0 0.35529284E+04</rscale>
<asrwt>0</asrwt>
<pdfrwt beam="1">  1        2 0.25175759E+00 0.35529284E+04</pdfrwt>
<pdfrwt beam="2">  1       -2 0.29669049E+00 0.35529284E+04</pdfrwt>
<totfact> 0.28990205E-01</totfact>
</mgrwt>
</event>
<event>
12    1  0.1755460E-007  0.2002604E+04  0.7818608E-02  0.8605404E-01
         -1   -1    0    0    0  501 -0.00000000000E+00  0.00000000000E+00  0.81471105699E+03  0.81471105699E+03  0.00000000000E+00 0.  1.
          1   -1    0    0  501    0  0.00000000000E+00 -0.00000000000E+00 -0.12306273218E+04  0.12306273218E+04  0.00000000000E+00 0. -1.
         23    2    1    2    0    0  0.40435971533E+03 -0.49081730543E+03  0.27979477164E+03  0.70136282789E+03  0.96001538630E+02 0.  0.
        254    2    1    2    0    0 -0.40435971533E+03  0.49081730543E+03 -0.69571103650E+03  0.13439755509E+04  0.95804385522E+03 0.  0.
        -24    2    4    4    0    0  0.57572755134E+02  0.62315981584E+03 -0.54479175086E+03  0.83383156877E+03  0.82669553450E+02 0.  0.
         24    2    4    4    0    0 -0.46193247047E+03 -0.13234251041E+03 -0.15091928564E+03  0.51014398217E+03  0.81080851205E+02 0.  0.
         11    1    3    3    0    0  0.24455973175E+02 -0.50812745648E+01  0.21087388774E+01  0.25067124981E+02  0.00000000000E+00 0. -1.
        -11    1    3    3    0    0  0.37990374216E+03 -0.48573603086E+03  0.27768603277E+03  0.67629570291E+03  0.00000000000E+00 0.  1.
          4    1    6    6  502    0 -0.60721609690E+02 -0.44261465980E+02 -0.37657839232E+02  0.84049414690E+02  0.00000000000E+00 0. -1.
          3    1    5    5  503    0  0.25847086663E+02  0.42698524666E+02 -0.41789782348E+02  0.65097018414E+02  0.00000000000E+00 0. -1.
         -4    1    5    5    0  503  0.31725668471E+02  0.58046129117E+03 -0.50300196851E+03  0.76873455035E+03  0.00000000000E+00 0.  1.
         -3    1    6    6    0  502 -0.40121086078E+03 -0.88081044429E+02 -0.11326144641E+03  0.42609456748E+03  0.00000000000E+00 0.  1.
<mgrwt>
<rscale>  0 0.20026040E+04</rscale>
<asrwt>0</asrwt>
<pdfrwt beam="1">  1        1 0.18932728E+00 0.20026040E+04</pdfrwt>
<pdfrwt beam="2">  1       -1 0.12534016E+00 0.20026040E+04</pdfrwt>
<totfact> 0.52328749E+00</totfact>
</mgrwt>
</event>
<event>
12    1  0.1755460E-007  0.2301984E+04  0.7818608E-02  0.8477139E-01
         -2   -1    0    0    0  501 -0.00000000000E+00  0.00000000000E+00  0.13596167412E+04  0.13596167412E+04  0.00000000000E+00 0. -1.
          2   -1    0    0  501    0  0.00000000000E+00 -0.00000000000E+00 -0.97437969428E+03  0.97437969428E+03  0.00000000000E+00 0.  1.
         23    2    1    2    0    0 -0.12130717462E+03 -0.57301446447E+03  0.95085200340E+03  0.11204734971E+04  0.90996253753E+02 0.  0.
        254    2    1    2    0    0  0.12130717462E+03  0.57301446447E+03 -0.56561495650E+03  0.12135229384E+04  0.89980922190E+03 0.  0.
        -24    2    4    4    0    0 -0.32880025263E+03  0.32817928229E+03 -0.36569147585E+02  0.47287569182E+03  0.80391976609E+02 0.  0.
         24    2    4    4    0    0  0.45010742725E+03  0.24483518217E+03 -0.52904580892E+03  0.74064724654E+03  0.78280989903E+02 0.  0.
         11    1    3    3    0    0 -0.40513598558E+02 -0.27745261573E+03  0.53381066420E+03  0.60297191548E+03  0.00000000000E+00 0.  1.
        -11    1    3    3    0    0 -0.80793576062E+02 -0.29556184874E+03  0.41704133919E+03  0.51750158160E+03  0.00000000000E+00 0. -1.
          4    1    6    6  502    0  0.40597928756E+03  0.22915601018E+03 -0.50742648670E+03  0.68906697667E+03  0.00000000000E+00 0. -1.
          3    1    5    5  503    0 -0.23246373544E+03  0.23241408498E+03 -0.62442794549E+02  0.33459647007E+03  0.00000000000E+00 0. -1.
         -4    1    5    5    0  503 -0.96336517195E+02  0.95765197313E+02  0.25873646964E+02  0.13827922175E+03  0.00000000000E+00 0.  1.
         -3    1    6    6    0  502  0.44128139695E+02  0.15679171999E+02 -0.21619322216E+02  0.51580269877E+02  0.00000000000E+00 0.  1.
<mgrwt>
<rscale>  0 0.23019843E+04</rscale>
<asrwt>0</asrwt>
<pdfrwt beam="1">  1        2 0.14990457E+00 0.23019843E+04</pdfrwt>
<pdfrwt beam="2">  1       -2 0.20917181E+00 0.23019843E+04</pdfrwt>
<totfact> 0.27492145E+00</totfact>
</mgrwt>
</event>
<event>
12    1  0.1755460E-007  0.1389584E+04  0.7818608E-02  0.8961393E-01
         -1   -1    0    0    0  501 -0.00000000000E+00  0.00000000000E+00  0.44728333140E+03  0.44728333140E+03  0.00000000000E+00 0.  1.
          1   -1    0    0  501    0  0.00000000000E+00 -0.00000000000E+00 -0.10792617767E+04  0.10792617767E+04  0.00000000000E+00 0. -1.
         23    2    1    2    0    0 -0.17934438379E+03  0.28616625701E+03 -0.25145252498E+03  0.43092745556E+03  0.91730937983E+02 0.  0.
        254    2    1    2    0    0  0.17934438379E+03 -0.28616625701E+03 -0.38052592027E+03  0.10956176525E+04  0.97032083859E+03 0.  0.
        -24    2    4    4    0    0  0.37409231052E+02  0.30599480243E+02  0.30715812645E+03  0.32085845326E+03  0.79172303388E+02 0.  0.
         24    2    4    4    0    0  0.14193515274E+03 -0.31676573726E+03 -0.68768404672E+03  0.77475919923E+03  0.82803072386E+02 0.  0.
         11    1    3    3    0    0 -0.14984987482E+03  0.17674363539E+03 -0.20151183454E+03  0.30708356695E+03  0.00000000000E+00 0.  1.
        -11    1    3    3    0    0 -0.29494508973E+02  0.10942262163E+03 -0.49940690444E+02  0.12384388861E+03  0.00000000000E+00 0. -1.
          2    1    6    6  502    0  0.85733430263E+02 -0.26958156545E+03 -0.52746934808E+03  0.59853851560E+03  0.00000000000E+00 0. -1.
          3    1    5    5  503    0  0.26114957886E+02  0.51848733854E+02  0.13398671471E+03  0.14602301855E+03  0.00000000000E+00 0. -1.
         -4    1    5    5    0  503  0.11294273166E+02 -0.21249253612E+02  0.17317141174E+03  0.17483543471E+03  0.00000000000E+00 0.  1.
         -1    1    6    6    0  502  0.56201722479E+02 -0.47184171810E+02 -0.16021469864E+03  0.17622068363E+03  0.00000000000E+00 0.  1.
<mgrwt>
<rscale>  0 0.13895838E+04</rscale>
<asrwt>0</asrwt>
<pdfrwt beam="1">  1        1 0.16604027E+00 0.13895838E+04</pdfrwt>
<pdfrwt beam="2">  1       -1 0.68812821E-01 0.13895838E+04</pdfrwt>
<totfact> 0.27415685E+01</totfact>
</mgrwt>
</event>
<event>
12    1  0.1755460E-007  0.1450780E+04  0.7818608E-02  0.8917860E-01
         -1   -1    0    0    0  501 -0.00000000000E+00  0.00000000000E+00  0.20190051254E+03  0.20190051254E+03  0.00000000000E+00 0.  1.
          1   -1    0    0  501    0  0.00000000000E+00 -0.00000000000E+00 -0.26061862730E+04  0.26061862730E+04  0.00000000000E+00 0. -1.
         23    2    1    2    0    0 -0.15219578842E+03 -0.41717281386E+03 -0.79358244782E+03  0.91379459336E+03  0.89725931253E+02 0.  0.
        254    2    1    2    0    0  0.15219578842E+03  0.41717281386E+03 -0.16107033127E+04  0.18942921922E+04  0.89262592019E+03 0.  0.
        -24    2    4    4    0    0 -0.35232472389E+03  0.90893387462E+02 -0.44350624587E+03  0.57910719900E+03  0.79202518013E+02 0.  0.
         24    2    4    4    0    0  0.50452051231E+03  0.32627942639E+03 -0.11671970668E+04  0.13151849932E+04  0.79770685011E+02 0.  0.
         11    1    3    3    0    0 -0.45955670820E+02 -0.11758916813E+03 -0.15048581697E+03  0.19643094780E+03  0.00000000000E+00 0.  1.
        -11    1    3    3    0    0 -0.10624011760E+03 -0.29958364572E+03 -0.64309663085E+03  0.71736364556E+03  0.00000000000E+00 0. -1.
          4    1    6    6  502    0  0.20967738430E+02  0.52846902327E+01 -0.19675298595E+02  0.29235105276E+02  0.00000000000E+00 0. -1.
          1    1    5    5  503    0 -0.11184950789E+03  0.67671850775E+02 -0.16065998192E+03  0.20712658351E+03  0.00000000000E+00 0. -1.
         -2    1    5    5    0  503 -0.24047521600E+03  0.23221536687E+02 -0.28284626395E+03  0.37198061550E+03  0.00000000000E+00 0.  1.
         -1    1    6    6    0  502  0.48355277388E+03  0.32099473616E+03 -0.11475217682E+04  0.12859498879E+04  0.00000000000E+00 0.  1.
<mgrwt>
<rscale>  0 0.14507796E+04</rscale>
<asrwt>0</asrwt>
<pdfrwt beam="1">  1        1 0.40095171E+00 0.14507796E+04</pdfrwt>
<pdfrwt beam="2">  1       -1 0.31061619E-01 0.14507796E+04</pdfrwt>
<totfact> 0.10687905E+01</totfact>
</mgrwt>
</event>
<event>
12    1  0.2010649E-007  0.1950706E+04  0.7818608E-02  0.8630020E-01
         -2   -1    0    0    0  501 -0.00000000000E+00  0.00000000000E+00  0.10879239951E+04  0.10879239951E+04  0.00000000000E+00 0.  1.
          2   -1    0    0  501    0  0.00000000000E+00 -0.00000000000E+00 -0.87443015342E+03  0.87443015342E+03  0.00000000000E+00 0. -1.
         23    2    1    2    0    0 -0.36466113688E+03  0.28705212882E+03 -0.52245319350E+03  0.70488395592E+03  0.92343827672E+02 0.  0.
        254    2    1    2    0    0  0.36466113688E+03 -0.28705212882E+03  0.73594703518E+03  0.12574701926E+04  0.90787475861E+03 0.  0.
        -24    2    4    4    0    0  0.65334529758E+03 -0.15720897368E+03  0.59832071957E+03  0.90336621395E+03  0.80672757306E+02 0.  0.
         24    2    4    4    0    0 -0.28868416071E+03 -0.12984315513E+03  0.13762631561E+03  0.35410397866E+03  0.79062224705E+02 0.  0.
         13    1    3    3    0    0 -0.40804449432E+02  0.15172785414E+01 -0.35719093390E+02  0.54250888105E+02  0.00000000000E+00 0.  1.
        -13    1    3    3    0    0 -0.32385668745E+03  0.28553485027E+03 -0.48673410011E+03  0.65063306781E+03  0.00000000000E+00 0. -1.
          2    1    6    6  502    0 -0.28731042019E+03 -0.13137629932E+03  0.12250448847E+03  0.33884267628E+03  0.00000000000E+00 0. -1.
          1    1    5    5  503    0  0.54963026891E+03 -0.13180379245E+03  0.53995045452E+03  0.78167267161E+03  0.00000000000E+00 0. -1.
         -2    1    5    5    0  503  0.10371502868E+03 -0.25405181236E+02  0.58370265041E+02  0.12169354234E+03  0.00000000000E+00 0.  1.
         -1    1    6    6    0  502 -0.13737405140E+01  0.15331441885E+01  0.15121827143E+02  0.15261302377E+02  0.00000000000E+00 0.  1.
<mgrwt>
<rscale>  0 0.19507061E+04</rscale>
<asrwt>0</asrwt>
<pdfrwt beam="1">  1        2 0.13452772E+00 0.19507061E+04</pdfrwt>
<pdfrwt beam="2">  1       -2 0.16737292E+00 0.19507061E+04</pdfrwt>
<totfact> 0.63344605E+00</totfact>
</mgrwt>
</event>
<event>
12    1  0.1755460E-007  0.1322123E+04  0.7818608E-02  0.9012203E-01
         -2   -1    0    0    0  501 -0.00000000000E+00  0.00000000000E+00  0.42621260678E+03  0.42621260678E+03  0.00000000000E+00 0. -1.
          2   -1    0    0  501    0  0.00000000000E+00 -0.00000000000E+00 -0.10253147348E+04  0.10253147348E+04  0.00000000000E+00 0.  1.
         23    2    1    2    0    0  0.86604619899E+02  0.65766347880E+02 -0.52513912044E+03  0.54405753109E+03  0.91662034787E+02 0.  0.
        254    2    1    2    0    0 -0.86604619899E+02 -0.65766347880E+02 -0.73963007571E+02  0.90746981049E+03  0.89788939060E+03 0.  0.
        -24    2    4    4    0    0 -0.19472138375E+03 -0.36336427662E+03  0.21472291255E+03  0.47175809210E+03  0.80621048589E+02 0.  0.
         24    2    4    4    0    0  0.10811676385E+03  0.29759792874E+03 -0.28868592012E+03  0.43571171839E+03  0.79065664148E+02 0.  0.
         11    1    3    3    0    0  0.50578059090E+02  0.86120291871E+02 -0.39874409709E+03  0.41106167383E+03  0.00000000000E+00 0. -1.
        -11    1    3    3    0    0  0.36026560809E+02 -0.20353943991E+02 -0.12639502335E+03  0.13299585726E+03  0.00000000000E+00 0.  1.
          4    1    6    6  502    0  0.82642998470E+02  0.28626382193E+03 -0.25673510697E+03  0.39330618619E+03  0.00000000000E+00 0. -1.
          3    1    5    5  503    0 -0.12704609277E+03 -0.29960035335E+03  0.14912857991E+03  0.35796705820E+03  0.00000000000E+00 0. -1.
         -4    1    5    5    0  503 -0.67675290983E+02 -0.63763923272E+02  0.65594332644E+02  0.11379103390E+03  0.00000000000E+00 0.  1.
         -3    1    6    6    0  502  0.25473765381E+02  0.11334106804E+02 -0.31950813156E+02  0.42405532199E+02  0.00000000000E+00 0.  1.
<mgrwt>
<rscale>  0 0.13221226E+04</rscale>
<asrwt>0</asrwt>
<pdfrwt beam="1">  1        2 0.15774073E+00 0.13221226E+04</pdfrwt>
<pdfrwt beam="2">  1       -2 0.65571171E-01 0.13221226E+04</pdfrwt>
<totfact> 0.50888216E+01</totfact>
</mgrwt>
</event>
<event>
12    1  0.1755460E-007  0.4572125E+04  0.7818608E-02  0.7898130E-01
          2   -1    0    0  501    0  0.00000000000E+00  0.00000000000E+00  0.27946540585E+04  0.27946540585E+04  0.00000000000E+00 0. -1.
         -2   -1    0    0    0  501 -0.00000000000E+00 -0.00000000000E+00 -0.18700282936E+04  0.18700282936E+04  0.00000000000E+00 0.  1.
         23    2    1    2    0    0  0.48963084592E+03 -0.58936373604E+03  0.25433633305E+04  0.26578082207E+04  0.90330106754E+02 0.  0.
        254    2    1    2    0    0 -0.48963084592E+03  0.58936373604E+03 -0.16187375657E+04  0.20068741314E+04  0.90561829392E+03 0.  0.
        -24    2    4    4    0    0 -0.82196016374E+02  0.28495206076E+03  0.55282184345E+00  0.30760508419E+03  0.81649985722E+02 0.  0.
         24    2    4    4    0    0 -0.40743482954E+03  0.30441167528E+03 -0.16192903875E+04  0.16992690472E+04  0.82123854416E+02 0.  0.
         13    1    3    3    0    0  0.48581556204E+03 -0.59035018554E+03  0.25006886350E+04  0.26149519597E+04  0.00000000000E+00 0. -1.
        -13    1    3    3    0    0  0.38152838784E+01  0.98644950388E+00  0.42674695466E+02  0.42856260999E+02  0.00000000000E+00 0.  1.
          2    1    6    6  502    0 -0.38087404286E+03  0.29326220135E+03 -0.15724196561E+04  0.16442540345E+04  0.00000000000E+00 0. -1.
          3    1    5    5  503    0 -0.91930932583E+02  0.19484175969E+03  0.14388824625E+02  0.21592046211E+03  0.00000000000E+00 0. -1.
         -4    1    5    5    0  503  0.97349162095E+01  0.90110301069E+02 -0.13836002782E+02  0.91684622077E+02  0.00000000000E+00 0.  1.
         -1    1    6    6    0  502 -0.26560786686E+02  0.11149473926E+02 -0.46870731428E+02  0.55015012704E+02  0.00000000000E+00 0.  1.
<mgrwt>
<rscale>  0 0.45721252E+04</rscale>
<asrwt>0</asrwt>
<pdfrwt beam="1">  1        2 0.42994678E+00 0.45721252E+04</pdfrwt>
<pdfrwt beam="2">  1       -2 0.28769666E+00 0.45721252E+04</pdfrwt>
<totfact> 0.66315857E-02</totfact>
</mgrwt>
</event>
<event>
12    1  0.1755460E-007  0.1892637E+04  0.7818608E-02  0.8658530E-01
         -2   -1    0    0    0  501 -0.00000000000E+00  0.00000000000E+00  0.50285074952E+03  0.50285074952E+03  0.00000000000E+00 0.  1.
          2   -1    0    0  501    0  0.00000000000E+00 -0.00000000000E+00 -0.17808835955E+04  0.17808835955E+04  0.00000000000E+00 0. -1.
         23    2    1    2    0    0  0.50718392194E+03 -0.48948711333E+03 -0.51006440362E+03  0.87588637034E+03  0.10088643677E+03 0.  0.
        254    2    1    2    0    0 -0.50718392194E+03  0.48948711333E+03 -0.76796844239E+03  0.14078479747E+04  0.94627016577E+03 0.  0.
        -24    2    4    4    0    0 -0.32560600285E+03  0.64087699946E+03 -0.87564903827E+03  0.11356804434E+04  0.79159545779E+02 0.  0.
         24    2    4    4    0    0 -0.18157791908E+03 -0.15138988614E+03  0.10768059587E+03  0.27216753135E+03  0.81182609415E+02 0.  0.
         11    1    3    3    0    0  0.50880134411E+02 -0.30994716859E+02 -0.15321056442E+02  0.61515813587E+02  0.00000000000E+00 0.  1.
        -11    1    3    3    0    0  0.45630378752E+03 -0.45849239647E+03 -0.49474334718E+03  0.81437055676E+03  0.00000000000E+00 0. -1.
          4    1    6    6  502    0 -0.18349002933E+03 -0.12166964983E+03  0.95799497008E+02  0.24010339061E+03  0.00000000000E+00 0. -1.
          3    1    5    5  503    0 -0.29632481771E+03  0.60594210327E+03 -0.84285106846E+03  0.10795240404E+04  0.00000000000E+00 0. -1.
         -4    1    5    5    0  503 -0.29281185139E+02  0.34934896190E+02 -0.32797969810E+02  0.56156403006E+02  0.00000000000E+00 0.  1.
         -3    1    6    6    0  502  0.19121102458E+01 -0.29720236302E+02  0.11881098867E+02  0.32064140746E+02  0.00000000000E+00 0.  1.
<mgrwt>
<rscale>  0 0.18926369E+04</rscale>
<asrwt>0</asrwt>
<pdfrwt beam="1">  1        2 0.27398209E+00 0.18926369E+04</pdfrwt>
<pdfrwt beam="2">  1       -2 0.77361655E-01 0.18926369E+04</pdfrwt>
<totfact> 0.12347721E+01</totfact>
</mgrwt>
</event>
<event>
12    1  0.1755460E-007  0.1534099E+04  0.7818608E-02  0.8862089E-01
          4   -1    0    0  501    0  0.00000000000E+00  0.00000000000E+00  0.47920178024E+03  0.47920178024E+03  0.00000000000E+00 0. -1.
         -4   -1    0    0    0  501 -0.00000000000E+00 -0.00000000000E+00 -0.12278015028E+04  0.12278015028E+04  0.00000000000E+00 0.  1.
         23    2    1    2    0    0  0.26518643682E+02 -0.64657686444E+02  0.30752457681E+03  0.32828235548E+03  0.91181602856E+02 0.  0.
        254    2    1    2    0    0 -0.26518643682E+02  0.64657686444E+02 -0.10561242994E+04  0.13787209276E+04  0.88350948240E+03 0.  0.
        -24    2    4    4    0    0  0.29443662995E+03 -0.21450765742E+03 -0.78192420704E+03  0.86626679524E+03  0.79411780150E+02 0.  0.
         24    2    4    4    0    0 -0.32095527363E+03  0.27916534386E+03 -0.27420009234E+03  0.51245413233E+03  0.80485838602E+02 0.  0.
         13    1    3    3    0    0  0.44488744785E+02  0.30794449846E+01  0.11011398170E+03  0.11880160083E+03  0.00000000000E+00 0.  1.
        -13    1    3    3    0    0 -0.17970101103E+02 -0.67737131428E+02  0.19741059511E+03  0.20948075465E+03  0.00000000000E+00 0. -1.
          4    1    6    6  502    0 -0.16355512967E+03  0.95662039973E+02 -0.98176496329E+02  0.21340133731E+03  0.00000000000E+00 0. -1.
          3    1    5    5  503    0  0.40323939392E+02 -0.59460004151E+02 -0.11036501490E+03  0.13168883284E+03  0.00000000000E+00 0. -1.
         -4    1    5    5    0  503  0.25411269056E+03 -0.15504765327E+03 -0.67155919214E+03  0.73457796239E+03  0.00000000000E+00 0.  1.
         -3    1    6    6    0  502 -0.15740014396E+03  0.18350330389E+03 -0.17602359601E+03  0.29905279502E+03  0.00000000000E+00 0.  1.
<mgrwt>
<rscale>  0 0.15340986E+04</rscale>
<asrwt>0</asrwt>
<pdfrwt beam="1">  1        4 0.73723351E-01 0.15340986E+04</pdfrwt>
<pdfrwt beam="2">  1       -4 0.18889254E+00 0.15340986E+04</pdfrwt>
<totfact> 0.50222140E-01</totfact>
</mgrwt>
</event>
<event>
12    1  0.1755460E-007  0.1799933E+04  0.7818608E-02  0.8706335E-01
          2   -1    0    0  501    0  0.00000000000E+00  0.00000000000E+00  0.58313600326E+03  0.58313600326E+03  0.00000000000E+00 0. -1.
         -2   -1    0    0    0  501 -0.00000000000E+00 -0.00000000000E+00 -0.13889377875E+04  0.13889377875E+04  0.00000000000E+00 0.  1.
         23    2    1    2    0    0 -0.20663623951E+03  0.64849294927E+02 -0.10088911833E+04  0.10359560932E+04  0.91867517316E+02 0.  0.
        254    2    1    2    0    0  0.20663623951E+03 -0.64849294927E+02  0.20308939910E+03  0.93611769754E+03  0.88778774102E+03 0.  0.
        -24    2    4    4    0    0  0.27249825058E+03  0.25032270215E+03  0.39997454855E+03  0.55065992685E+03  0.79561069456E+02 0.  0.
         24    2    4    4    0    0 -0.65862011078E+02 -0.31517199708E+03 -0.19688514945E+03  0.38545777069E+03  0.78375625453E+02 0.  0.
         13    1    3    3    0    0  0.30034562072E+01 -0.10358331874E+02 -0.26030102289E+02  0.28175911938E+02  0.00000000000E+00 0. -1.
        -13    1    3    3    0    0 -0.20963969571E+03  0.75207626801E+02 -0.98286108104E+03  0.10077801813E+04  0.00000000000E+00 0.  1.
          2    1    6    6  502    0 -0.76498822394E+02 -0.20075868660E+03 -0.10974938251E+03  0.24124893168E+03  0.00000000000E+00 0. -1.
          3    1    5    5  503    0  0.19447925461E+03  0.13616139085E+03  0.21973006295E+03  0.32348632953E+03  0.00000000000E+00 0. -1.
         -4    1    5    5    0  503  0.78018995977E+02  0.11416131130E+03  0.18024448560E+03  0.22717359732E+03  0.00000000000E+00 0.  1.
         -1    1    6    6    0  502  0.10636811315E+02 -0.11441331047E+03 -0.87135766941E+02  0.14420883901E+03  0.00000000000E+00 0.  1.
<mgrwt>
<rscale>  0 0.17999329E+04</rscale>
<asrwt>0</asrwt>
<pdfrwt beam="1">  1        2 0.89713233E-01 0.17999329E+04</pdfrwt>
<pdfrwt beam="2">  1       -2 0.21368273E+00 0.17999329E+04</pdfrwt>
<totfact> 0.52511752E+00</totfact>
</mgrwt>
</event>
<event>
12    1  0.1755460E-007  0.3586955E+04  0.7818608E-02  0.8093486E-01
         -2   -1    0    0    0  501 -0.00000000000E+00  0.00000000000E+00  0.94556703159E+03  0.94556703159E+03  0.00000000000E+00 0.  1.
          2   -1    0    0  501    0  0.00000000000E+00 -0.00000000000E+00 -0.34017270864E+04  0.34017270864E+04  0.00000000000E+00 0. -1.
         23    2    1    2    0    0 -0.93090789372E+03  0.13730526273E+04 -0.12177240618E+04  0.20597590677E+04  0.88839755864E+02 0.  0.
        254    2    1    2    0    0  0.93090789372E+03 -0.13730526273E+04 -0.12384359930E+04  0.22875350503E+04  0.97325735231E+03 0.  0.
        -24    2    4    4    0    0  0.33116600356E+03 -0.15149859387E+03  0.90483671250E+02  0.38377823459E+03  0.80471688936E+02 0.  0.
         24    2    4    4    0    0  0.59974189015E+03 -0.12215540334E+04 -0.13289196642E+04  0.19037568157E+04  0.79862056672E+02 0.  0.
         11    1    3    3    0    0 -0.89949177488E+03  0.13282651210E+04 -0.11561121027E+04  0.19773641240E+04  0.00000000000E+00 0.  1.
        -11    1    3    3    0    0 -0.31416118831E+02  0.44787506314E+02 -0.61611959092E+02  0.82394943700E+02  0.00000000000E+00 0. -1.
          4    1    6    6  502    0  0.39882364290E+01 -0.24974941831E+02 -0.36736754669E+02  0.44600929283E+02  0.00000000000E+00 0. -1.
          1    1    5    5  503    0  0.56890886454E+02 -0.44178086923E+02  0.47134356746E+02  0.86080914909E+02  0.00000000000E+00 0. -1.
         -2    1    5    5    0  503  0.27427511711E+03 -0.10732050695E+03  0.43349314504E+02  0.29769731968E+03  0.00000000000E+00 0.  1.
         -3    1    6    6    0  502  0.59575365372E+03 -0.11965790916E+04 -0.12921829096E+04  0.18591558864E+04  0.00000000000E+00 0.  1.
<mgrwt>
<rscale>  0 0.35869547E+04</rscale>
<asrwt>0</asrwt>
<pdfrwt beam="1">  1        2 0.52334263E+00 0.35869547E+04</pdfrwt>
<pdfrwt beam="2">  1       -2 0.14547185E+00 0.35869547E+04</pdfrwt>
<totfact> 0.25167335E-01</totfact>
</mgrwt>
</event>
<event>
12    1  0.1755460E-007  0.1633283E+04  0.7818608E-02  0.8800358E-01
         -2   -1    0    0    0  501 -0.00000000000E+00  0.00000000000E+00  0.23774306943E+03  0.23774306943E+03  0.00000000000E+00 0.  1.
          2   -1    0    0  501    0  0.00000000000E+00 -0.00000000000E+00 -0.28051445372E+04  0.28051445372E+04  0.00000000000E+00 0. -1.
         23    2    1    2    0    0 -0.21980471091E+03  0.42241149417E+03 -0.14541052064E+04  0.15327813992E+04  0.90836584899E+02 0.  0.
        254    2    1    2    0    0  0.21980471091E+03 -0.42241149417E+03 -0.11132962613E+04  0.15101062074E+04  0.90235614406E+03 0.  0.
        -24    2    4    4    0    0 -0.15393626215E+03 -0.56676381250E+03 -0.79730290529E+03  0.99333622443E+03  0.78149472252E+02 0.  0.
         24    2    4    4    0    0  0.37374097306E+03  0.14435231833E+03 -0.31599335606E+03  0.51676998296E+03  0.81728253813E+02 0.  0.
         13    1    3    3    0    0 -0.74448718864E+02  0.13667021749E+03 -0.61872571843E+03  0.63799911813E+03  0.00000000000E+00 0. -1.
        -13    1    3    3    0    0 -0.14535599204E+03  0.28574127667E+03 -0.83537948796E+03  0.89478228108E+03  0.00000000000E+00 0.  1.
          4    1    6    6  502    0  0.19974372296E+03  0.51061477244E+02 -0.11985553314E+03  0.23847469078E+03  0.00000000000E+00 0. -1.
          3    1    5    5  503    0 -0.10487208236E+03 -0.28842175520E+03 -0.46430600079E+03  0.55656565192E+03  0.00000000000E+00 0. -1.
         -4    1    5    5    0  503 -0.49064179789E+02 -0.27834205729E+03 -0.33299690451E+03  0.43677057251E+03  0.00000000000E+00 0.  1.
         -3    1    6    6    0  502  0.17399725010E+03  0.93290841085E+02 -0.19613782291E+03  0.27829529218E+03  0.00000000000E+00 0.  1.
<mgrwt>
<rscale>  0 0.16332834E+04</rscale>
<asrwt>0</asrwt>
<pdfrwt beam="1">  1        2 0.43156070E+00 0.16332834E+04</pdfrwt>
<pdfrwt beam="2">  1       -2 0.36575857E-01 0.16332834E+04</pdfrwt>
<totfact> 0.15518169E+01</totfact>
</mgrwt>
</event>
<event>
12    1  0.1755460E-007  0.2418724E+04  0.7818608E-02  0.8432527E-01
         -1   -1    0    0    0  501 -0.00000000000E+00  0.00000000000E+00  0.79806009752E+03  0.79806009752E+03  0.00000000000E+00 0.  1.
          1   -1    0    0  501    0  0.00000000000E+00 -0.00000000000E+00 -0.18326395649E+04  0.18326395649E+04  0.00000000000E+00 0. -1.
         23    2    1    2    0    0  0.61164766359E+03 -0.30491322874E+02 -0.13556239471E+04  0.14905768075E+04  0.95185860603E+02 0.  0.
        254    2    1    2    0    0 -0.61164766359E+03  0.30491322874E+02  0.32104447964E+03  0.11401228550E+04  0.90651419259E+03 0.  0.
        -24    2    4    4    0    0 -0.14402900947E+03 -0.26505978005E+02  0.57565608463E+03  0.59920586542E+03  0.78872168377E+02 0.  0.
         24    2    4    4    0    0 -0.46761865412E+03  0.56997300879E+02 -0.25461160499E+03  0.54091698955E+03  0.76473670011E+02 0.  0.
         13    1    3    3    0    0  0.56639886352E+03 -0.10384705293E+02 -0.11946356553E+04  0.13221459313E+04  0.00000000000E+00 0. -1.
        -13    1    3    3    0    0  0.45248800074E+02 -0.20106617581E+02 -0.16098829172E+03  0.16843087618E+03  0.00000000000E+00 0.  1.
          4    1    6    6  502    0 -0.13507698707E+03  0.13263303031E+02 -0.35527432932E+02  0.14029934474E+03  0.00000000000E+00 0. -1.
          3    1    5    5  503    0 -0.80297472193E+02 -0.74115688255E+01  0.17030764530E+03  0.18843383306E+03  0.00000000000E+00 0. -1.
         -4    1    5    5    0  503 -0.63731537281E+02 -0.19094409179E+02  0.40534843932E+03  0.41077203236E+03  0.00000000000E+00 0.  1.
         -3    1    6    6    0  502 -0.33254166705E+03  0.43733997848E+02 -0.21908417205E+03  0.40061764481E+03  0.00000000000E+00 0.  1.
<mgrwt>
<rscale>  0 0.24187241E+04</rscale>
<asrwt>0</asrwt>
<pdfrwt beam="1">  1        1 0.28194454E+00 0.24187241E+04</pdfrwt>
<pdfrwt beam="2">  1       -1 0.12277848E+00 0.24187241E+04</pdfrwt>
<totfact> 0.20262721E+00</totfact>
</mgrwt>
</event>
<event>
12    1  0.1755460E-007  0.1767129E+04  0.7818608E-02  0.8723978E-01
         -2   -1    0    0    0  501 -0.00000000000E+00  0.00000000000E+00  0.26679992774E+03  0.26679992774E+03  0.00000000000E+00 0.  1.
          2   -1    0    0  501    0  0.00000000000E+00 -0.00000000000E+00 -0.29261107077E+04  0.29261107077E+04  0.00000000000E+00 0. -1.
         23    2    1    2    0    0 -0.51437288664E+03  0.38712362045E+03 -0.72610841096E+03  0.97464941884E+03  0.90906001761E+02 0.  0.
        254    2    1    2    0    0  0.51437288664E+03 -0.38712362045E+03 -0.19332023691E+04  0.22182612166E+04  0.87690778394E+03 0.  0.
        -24    2    4    4    0    0  0.38473377490E+03 -0.48361041821E+03 -0.57420959926E+03  0.84732125273E+03  0.79608588085E+02 0.  0.
         24    2    4    4    0    0  0.12963911174E+03  0.96486797764E+02 -0.13589927698E+04  0.13709399639E+04  0.80616591770E+02 0.  0.
         13    1    3    3    0    0 -0.78926470851E+01  0.20947092918E+02 -0.11071568976E+02  0.24973069882E+02  0.00000000000E+00 0. -1.
        -13    1    3    3    0    0 -0.50648023956E+03  0.36617652753E+03 -0.71503684198E+03  0.94967634896E+03  0.00000000000E+00 0.  1.
          4    1    6    6  502    0  0.13495359999E+03  0.10204468321E+03 -0.12127383410E+04  0.12244835137E+04  0.00000000000E+00 0. -1.
          3    1    5    5  503    0  0.34412559767E+03 -0.43037916140E+03 -0.54236866256E+03  0.77318330017E+03  0.00000000000E+00 0. -1.
         -4    1    5    5    0  503  0.40608177232E+02 -0.53231256811E+02 -0.31840936701E+02  0.74137952560E+02  0.00000000000E+00 0.  1.
         -3    1    6    6    0  502 -0.53144882447E+01 -0.55578854477E+01 -0.14625442877E+03  0.14645645022E+03  0.00000000000E+00 0.  1.
<mgrwt>
<rscale>  0 0.17671289E+04</rscale>
<asrwt>0</asrwt>
<pdfrwt beam="1">  1        2 0.45017085E+00 0.17671289E+04</pdfrwt>
<pdfrwt beam="2">  1       -2 0.41046145E-01 0.17671289E+04</pdfrwt>
<totfact> 0.10338597E+01</totfact>
</mgrwt>
</event>
<event>
12    1  0.1755460E-007  0.1209404E+04  0.7818608E-02  0.9104665E-01
         -1   -1    0    0    0  501 -0.00000000000E+00  0.00000000000E+00  0.33406131060E+03  0.33406131060E+03  0.00000000000E+00 0.  1.
          1   -1    0    0  501    0  0.00000000000E+00 -0.00000000000E+00 -0.10946025705E+04  0.10946025705E+04  0.00000000000E+00 0. -1.
         23    2    1    2    0    0  0.33814602096E+02 -0.68155592799E+02 -0.46259512272E+03  0.47780706250E+03  0.92286127168E+02 0.  0.
        254    2    1    2    0    0 -0.33814602096E+02  0.68155592799E+02 -0.29794613718E+03  0.95085681860E+03  0.89976006617E+03 0.  0.
        -24    2    4    4    0    0 -0.29629264358E+03 -0.28416272971E+03 -0.28253622698E+03  0.50466514686E+03  0.79513541618E+02 0.  0.
         24    2    4    4    0    0  0.26247804148E+03  0.35231832251E+03 -0.15409910199E+02  0.44619167174E+03  0.76332299563E+02 0.  0.
         11    1    3    3    0    0  0.52847557411E+02 -0.16342081897E+02 -0.32286162026E+03  0.32756610600E+03  0.00000000000E+00 0. -1.
        -11    1    3    3    0    0 -0.19032955316E+02 -0.51813510902E+02 -0.13973350247E+03  0.15024095650E+03  0.00000000000E+00 0.  1.
          4    1    6    6  502    0  0.21827165191E+03  0.26088383426E+03  0.14061532487E+02  0.34044179488E+03  0.00000000000E+00 0. -1.
          3    1    5    5  503    0 -0.28997218209E+03 -0.26352654182E+03 -0.24729738766E+03  0.46334231683E+03  0.00000000000E+00 0. -1.
         -4    1    5    5    0  503 -0.63204614910E+01 -0.20636187895E+02 -0.35238839326E+02  0.41322830026E+02  0.00000000000E+00 0.  1.
         -3    1    6    6    0  502  0.44206389570E+02  0.91434488250E+02 -0.29471442686E+02  0.10574987685E+03  0.00000000000E+00 0.  1.
<mgrwt>
<rscale>  0 0.12094038E+04</rscale>
<asrwt>0</asrwt>
<pdfrwt beam="1">  1        1 0.16840039E+00 0.12094038E+04</pdfrwt>
<pdfrwt beam="2">  1       -1 0.51394048E-01 0.12094038E+04</pdfrwt>
<totfact> 0.48194262E+01</totfact>
</mgrwt>
</event>
<event>
12    1  0.1755460E-007  0.2336318E+04  0.7818608E-02  0.8463738E-01
         -2   -1    0    0    0  501 -0.00000000000E+00  0.00000000000E+00  0.12395130921E+04  0.12395130921E+04  0.00000000000E+00 0.  1.
          2   -1    0    0  501    0  0.00000000000E+00 -0.00000000000E+00 -0.11009122793E+04  0.11009122793E+04  0.00000000000E+00 0. -1.
         23    2    1    2    0    0  0.84963270968E+03 -0.22641039924E+03 -0.39972231818E+03  0.97008604488E+03  0.90286170459E+02 0.  0.
        254    2    1    2    0    0 -0.84963270968E+03  0.22641039924E+03  0.53832313095E+03  0.13703393266E+04  0.90271848681E+03 0.  0.
        -24    2    4    4    0    0 -0.99326989734E+03  0.10474551834E+03  0.58613390220E+03  0.11608087333E+04  0.79795059587E+02 0.  0.
         24    2    4    4    0    0  0.14363718766E+03  0.12166488090E+03 -0.47810771248E+02  0.20953059323E+03  0.78633419929E+02 0.  0.
         13    1    3    3    0    0  0.73776142489E+03 -0.17984307099E+03 -0.31436263011E+03  0.82186331799E+03  0.00000000000E+00 0.  1.
        -13    1    3    3    0    0  0.11187128479E+03 -0.46567328251E+02 -0.85359688064E+02  0.14822272689E+03  0.00000000000E+00 0. -1.
          2    1    6    6  502    0  0.20958917885E+02 -0.10571027610E+02 -0.81072241246E+01  0.24834450803E+02  0.00000000000E+00 0. -1.
          1    1    5    5  503    0 -0.45434362368E+02 -0.65175933622E+01  0.13480458455E+02  0.47838092220E+02  0.00000000000E+00 0. -1.
         -2    1    5    5    0  503 -0.94783553497E+03  0.11126311171E+03  0.57265344374E+03  0.11129706411E+04  0.00000000000E+00 0.  1.
         -1    1    6    6    0  502  0.12267826978E+03  0.13223590851E+03 -0.39703547123E+02  0.18469614243E+03  0.00000000000E+00 0.  1.
<mgrwt>
<rscale>  0 0.23363178E+04</rscale>
<asrwt>0</asrwt>
<pdfrwt beam="1">  1        2 0.16937112E+00 0.23363178E+04</pdfrwt>
<pdfrwt beam="2">  1       -2 0.19069432E+00 0.23363178E+04</pdfrwt>
<totfact> 0.30156350E+00</totfact>
</mgrwt>
</event>
<event>
12    1  0.1755460E-007  0.1259741E+04  0.7818608E-02  0.9062115E-01
         -2   -1    0    0    0  501 -0.00000000000E+00  0.00000000000E+00  0.63650656521E+03  0.63650656521E+03  0.00000000000E+00 0.  1.
          2   -1    0    0  501    0  0.00000000000E+00 -0.00000000000E+00 -0.62330356434E+03  0.62330356434E+03  0.00000000000E+00 0. -1.
         23    2    1    2    0    0 -0.17972975387E+02 -0.14219709087E+02  0.30385359603E+03  0.32167816254E+03  0.10307572201E+03 0.  0.
        254    2    1    2    0    0  0.17972975387E+02  0.14219709087E+02 -0.29065059515E+03  0.93813196701E+03  0.89167740304E+03 0.  0.
        -24    2    4    4    0    0 -0.67285217265E+02 -0.40973383194E+03 -0.26102499852E+03  0.49696626610E+03  0.80201660147E+02 0.  0.
         24    2    4    4    0    0  0.85258192652E+02  0.42395354103E+03 -0.29625596630E+02  0.44116570090E+03  0.82121466808E+02 0.  0.
         11    1    3    3    0    0 -0.52760229607E+02 -0.53084442934E+01  0.25822481194E+03  0.26361311597E+03  0.00000000000E+00 0.  1.
        -11    1    3    3    0    0  0.34787254220E+02 -0.89112647937E+01  0.45628784086E+02  0.58065046574E+02  0.00000000000E+00 0. -1.
          2    1    6    6  502    0  0.37147441777E+02  0.50457876578E+02 -0.14322517228E+02  0.64273355592E+02  0.00000000000E+00 0. -1.
          3    1    5    5  503    0 -0.32755727401E+02 -0.66833451290E+02 -0.22200910392E+02  0.77669352457E+02  0.00000000000E+00 0. -1.
         -2    1    5    5    0  503 -0.34529489864E+02 -0.34290038065E+03 -0.23882408813E+03  0.41929691365E+03  0.00000000000E+00 0.  1.
         -1    1    6    6    0  502  0.48110750875E+02  0.37349566445E+03 -0.15303079402E+02  0.37689234531E+03  0.00000000000E+00 0.  1.
<mgrwt>
<rscale>  0 0.12597409E+04</rscale>
<asrwt>0</asrwt>
<pdfrwt beam="1">  1        2 0.95892856E-01 0.12597409E+04</pdfrwt>
<pdfrwt beam="2">  1       -2 0.97924087E-01 0.12597409E+04</pdfrwt>
<totfact> 0.40402929E+01</totfact>
</mgrwt>
</event>
<event>
12    1  0.1755460E-007  0.1446106E+04  0.7818608E-02  0.8921104E-01
          2   -1    0    0  501    0  0.00000000000E+00  0.00000000000E+00  0.20265461760E+04  0.20265461760E+04  0.00000000000E+00 0. -1.
         -2   -1    0    0    0  501 -0.00000000000E+00 -0.00000000000E+00 -0.25797868429E+03  0.25797868429E+03  0.00000000000E+00 0.  1.
         23    2    1    2    0    0  0.33300850626E+03  0.40961318460E+01  0.99772874134E+02  0.35943083378E+03  0.91238447587E+02 0.  0.
        254    2    1    2    0    0 -0.33300850626E+03 -0.40961318460E+01  0.16687946176E+04  0.19250940266E+04  0.90011115521E+03 0.  0.
        -24    2    4    4    0    0 -0.52582165822E+03 -0.24428394099E+03  0.13650278062E+04  0.14852377348E+04  0.80418635434E+02 0.  0.
         24    2    4    4    0    0  0.19281315196E+03  0.24018780914E+03  0.30376681138E+03  0.43985629177E+03  0.79575036847E+02 0.  0.
         11    1    3    3    0    0  0.18890372292E+03  0.32128958453E+02  0.20829668009E+02  0.19274532828E+03  0.00000000000E+00 0.  1.
        -11    1    3    3    0    0  0.14410478334E+03 -0.28032826607E+02  0.78943206125E+02  0.16668550549E+03  0.00000000000E+00 0. -1.
          4    1    6    6  502    0  0.39855305149E+02  0.93379604948E+02  0.65031551884E+02  0.12057072078E+03  0.00000000000E+00 0. -1.
          3    1    5    5  503    0 -0.19018257243E+03 -0.12846281121E+03  0.57377757985E+03  0.61797476960E+03  0.00000000000E+00 0. -1.
         -4    1    5    5    0  503 -0.33563908580E+03 -0.11582112978E+03  0.79125022639E+03  0.86726296519E+03  0.00000000000E+00 0.  1.
         -3    1    6    6    0  502  0.15295784681E+03  0.14680820419E+03  0.23873525950E+03  0.31928557100E+03  0.00000000000E+00 0.  1.
<mgrwt>
<rscale>  0 0.14461061E+04</rscale>
<asrwt>0</asrwt>
<pdfrwt beam="1">  1        2 0.31177632E+00 0.14461061E+04</pdfrwt>
<pdfrwt beam="2">  1       -2 0.39689030E-01 0.14461061E+04</pdfrwt>
<totfact> 0.37641346E+01</totfact>
</mgrwt>
</event>
<event>
12    1  0.1755460E-007  0.1407518E+04  0.7818608E-02  0.8948395E-01
         -2   -1    0    0    0  501 -0.00000000000E+00  0.00000000000E+00  0.23153054347E+03  0.23153054347E+03  0.00000000000E+00 0. -1.
          2   -1    0    0  501    0  0.00000000000E+00 -0.00000000000E+00 -0.21391415093E+04  0.21391415093E+04  0.00000000000E+00 0.  1.
         23    2    1    2    0    0 -0.22491096207E+03 -0.31354409945E+03 -0.79543070134E+03  0.88911003542E+03  0.94402390222E+02 0.  0.
        254    2    1    2    0    0  0.22491096207E+03  0.31354409945E+03 -0.11121802645E+04  0.14815620173E+04  0.89954779049E+03 0.  0.
        -24    2    4    4    0    0 -0.20860352208E+03  0.46205040283E+03 -0.57357041680E+03  0.76976211376E+03  0.80899224810E+02 0.  0.
         24    2    4    4    0    0  0.43351448415E+03 -0.14850630338E+03 -0.53860984766E+03  0.71179990356E+03  0.81053097435E+02 0.  0.
         13    1    3    3    0    0 -0.18142776341E+03 -0.26579946904E+03 -0.56956664923E+03  0.65419535232E+03  0.00000000000E+00 0. -1.
        -13    1    3    3    0    0 -0.43483198661E+02 -0.47744630409E+02 -0.22586405211E+03  0.23491468310E+03  0.00000000000E+00 0.  1.
          4    1    6    6  502    0  0.36460378489E+03 -0.91517781757E+02 -0.43781344558E+03  0.57705462260E+03  0.00000000000E+00 0. -1.
          3    1    5    5  503    0 -0.21550166557E+03  0.43512074211E+03 -0.54359761156E+03  0.72888228910E+03  0.00000000000E+00 0. -1.
         -4    1    5    5    0  503  0.68981434850E+01  0.26929660726E+02 -0.29972805235E+02  0.40879824658E+02  0.00000000000E+00 0.  1.
         -3    1    6    6    0  502  0.68910699262E+02 -0.56988521624E+02 -0.10079640207E+03  0.13474528096E+03  0.00000000000E+00 0.  1.
<mgrwt>
<rscale>  0 0.14075178E+04</rscale>
<asrwt>0</asrwt>
<pdfrwt beam="1">  1        2 0.32909869E+00 0.14075178E+04</pdfrwt>
<pdfrwt beam="2">  1       -2 0.35620084E-01 0.14075178E+04</pdfrwt>
<totfact> 0.40302353E+01</totfact>
</mgrwt>
</event>
<event>
12    1  0.1755460E-007  0.1341502E+04  0.7818608E-02  0.8997286E-01
         -2   -1    0    0    0  501 -0.00000000000E+00  0.00000000000E+00  0.22608597217E+04  0.22608597217E+04  0.00000000000E+00 0.  1.
          2   -1    0    0  501    0  0.00000000000E+00 -0.00000000000E+00 -0.19899825951E+03  0.19899825951E+03  0.00000000000E+00 0. -1.
         23    2    1    2    0    0 -0.15290851410E+03 -0.23933731704E+03  0.10159621123E+04  0.10591057293E+04  0.94141209181E+02 0.  0.
        254    2    1    2    0    0  0.15290851410E+03  0.23933731704E+03  0.10458993499E+04  0.14007522519E+04  0.88743340935E+03 0.  0.
        -24    2    4    4    0    0 -0.38631178812E+02 -0.32184670044E+03  0.38245823051E+03  0.50730505277E+03  0.77501302750E+02 0.  0.
         24    2    4    4    0    0  0.19153969291E+03  0.56118401748E+03  0.66344111936E+03  0.89344719909E+03  0.80491137800E+02 0.  0.
         13    1    3    3    0    0 -0.15713929390E+03 -0.24481710286E+03  0.97192151869E+03  0.10145243270E+04  0.00000000000E+00 0. -1.
        -13    1    3    3    0    0  0.42307797961E+01  0.54797858247E+01  0.44040593587E+02  0.44581402332E+02  0.00000000000E+00 0.  1.
          4    1    6    6  502    0  0.36463598586E+02  0.15235972307E+03  0.12905813597E+03  0.20297556921E+03  0.00000000000E+00 0. -1.
          1    1    5    5  503    0  0.21710210097E+02 -0.60902886132E+02  0.88917866156E+02  0.10994035512E+03  0.00000000000E+00 0. -1.
         -2    1    5    5    0  503 -0.60341388909E+02 -0.26094381431E+03  0.29354036435E+03  0.39736469766E+03  0.00000000000E+00 0.  1.
         -3    1    6    6    0  502  0.15507609433E+03  0.40882429441E+03  0.53438298339E+03  0.69047162988E+03  0.00000000000E+00 0.  1.
<mgrwt>
<rscale>  0 0.13415024E+04</rscale>
<asrwt>0</asrwt>
<pdfrwt beam="1">  1        2 0.30615118E-01 0.13415024E+04</pdfrwt>
<pdfrwt beam="2">  1       -2 0.34782456E+00 0.13415024E+04</pdfrwt>
<totfact> 0.27590177E+00</totfact>
</mgrwt>
</event>
<event>
12    1  0.1755460E-007  0.1786558E+04  0.7818608E-02  0.8713481E-01
          1   -1    0    0  501    0  0.00000000000E+00  0.00000000000E+00  0.11001995265E+04  0.11001995265E+04  0.00000000000E+00 0. -1.
         -1   -1    0    0    0  501 -0.00000000000E+00 -0.00000000000E+00 -0.72527520951E+03  0.72527520951E+03  0.00000000000E+00 0.  1.
         23    2    1    2    0    0 -0.28419391192E+02  0.25989754313E+03 -0.48654162293E+03  0.55653556035E+03  0.68225247271E+02 0.  0.
        254    2    1    2    0    0  0.28419391192E+02 -0.25989754313E+03  0.86146593996E+03  0.12689391757E+04  0.89427550074E+03 0.  0.
        -24    2    4    4    0    0 -0.26573886155E+03 -0.34877770184E+03  0.11865550933E+03  0.46139534196E+03  0.80891927031E+02 0.  0.
         24    2    4    4    0    0  0.29415825274E+03  0.88880158707E+02  0.74281043063E+03  0.80754383374E+03  0.77012643750E+02 0.  0.
         11    1    3    3    0    0 -0.46929627186E+02  0.23083991539E+03 -0.43113080503E+03  0.49128731664E+03  0.00000000000E+00 0.  1.
        -11    1    3    3    0    0  0.18510235993E+02  0.29057627744E+02 -0.55410817900E+02  0.65248243708E+02  0.00000000000E+00 0. -1.
          2    1    6    6  502    0  0.77026691103E+02 -0.45694755571E+01  0.23649209106E+03  0.24876193515E+03  0.00000000000E+00 0. -1.
          3    1    5    5  503    0 -0.51580774104E+02 -0.32079321739E+02 -0.11461352773E+01  0.60753376585E+02  0.00000000000E+00 0. -1.
         -4    1    5    5    0  503 -0.21415808744E+03 -0.31669838010E+03  0.11980164461E+03  0.40064196538E+03  0.00000000000E+00 0.  1.
         -1    1    6    6    0  502  0.21713156164E+03  0.93449634264E+02  0.50631833957E+03  0.55878189859E+03  0.00000000000E+00 0.  1.
<mgrwt>
<rscale>  0 0.17865581E+04</rscale>
<asrwt>0</asrwt>
<pdfrwt beam="1">  1        1 0.16926147E+00 0.17865581E+04</pdfrwt>
<pdfrwt beam="2">  1       -1 0.11158080E+00 0.17865581E+04</pdfrwt>
<totfact> 0.88348562E+00</totfact>
</mgrwt>
</event>
<event>
12    1  0.1755460E-007  0.1361008E+04  0.7818608E-02  0.8982537E-01
          2   -1    0    0  501    0  0.00000000000E+00  0.00000000000E+00  0.68922596423E+03  0.68922596423E+03  0.00000000000E+00 0.  1.
         -2   -1    0    0    0  501 -0.00000000000E+00 -0.00000000000E+00 -0.67189197251E+03  0.67189197251E+03  0.00000000000E+00 0. -1.
         23    2    1    2    0    0  0.23918377930E+02 -0.92310612651E+01  0.36781533816E+03  0.38842841468E+03  0.12219332654E+03 0.  0.
        254    2    1    2    0    0 -0.23918377930E+02  0.92310612651E+01 -0.35048134644E+03  0.97268952207E+03  0.90698976336E+03 0.  0.
        -24    2    4    4    0    0 -0.16420324772E+03 -0.41168784770E+03 -0.12106145532E+03  0.46620767797E+03  0.79019823669E+02 0.  0.
         24    2    4    4    0    0  0.14028486979E+03  0.42091890896E+03 -0.22941989112E+03  0.50648184409E+03  0.83891592772E+02 0.  0.
         11    1    3    3    0    0  0.65053284420E+02  0.25477151623E+02  0.18103038073E+03  0.19404384508E+03  0.00000000000E+00 0. -1.
        -11    1    3    3    0    0 -0.41134906490E+02 -0.34708212888E+02  0.18678495743E+03  0.19438456959E+03  0.00000000000E+00 0.  1.
          4    1    6    6  502    0  0.10357726537E+03  0.37497202450E+03 -0.17578380080E+03  0.42688665204E+03  0.00000000000E+00 0. -1.
          3    1    5    5  503    0 -0.15175953983E+03 -0.34089184139E+03 -0.74348213584E+02  0.38048109325E+03  0.00000000000E+00 0. -1.
         -4    1    5    5    0  503 -0.12443707890E+02 -0.70796006308E+02 -0.46713241734E+02  0.85726584725E+02  0.00000000000E+00 0.  1.
         -3    1    6    6    0  502  0.36707604420E+02  0.45946884458E+02 -0.53636090316E+02  0.79595192054E+02  0.00000000000E+00 0.  1.
<mgrwt>
<rscale>  0 0.13610076E+04</rscale>
<asrwt>0</asrwt>
<pdfrwt beam="1">  1        2 0.10603476E+00 0.13610076E+04</pdfrwt>
<pdfrwt beam="2">  1       -2 0.10336800E+00 0.13610076E+04</pdfrwt>
<totfact> 0.31132586E+01</totfact>
</mgrwt>
</event>
<event>
12    1  0.1755460E-007  0.1823982E+04  0.7818608E-02  0.8693649E-01
          1   -1    0    0  501    0  0.00000000000E+00  0.00000000000E+00  0.17262986108E+04  0.17262986108E+04  0.00000000000E+00 0. -1.
         -1   -1    0    0    0  501 -0.00000000000E+00 -0.00000000000E+00 -0.48179840139E+03  0.48179840139E+03  0.00000000000E+00 0.  1.
         23    2    1    2    0    0  0.43821053390E+03  0.37933827820E+03  0.92342969161E+03  0.10941060967E+04  0.91759218895E+02 0.  0.
        254    2    1    2    0    0 -0.43821053390E+03 -0.37933827820E+03  0.32107051785E+03  0.11139909155E+04  0.89552413761E+03 0.  0.
        -24    2    4    4    0    0 -0.46240828337E+03 -0.36807076110E+03 -0.16663937922E+03  0.61906292720E+03  0.78566655874E+02 0.  0.
         24    2    4    4    0    0  0.24197749474E+02 -0.11267517107E+02  0.48770989707E+03  0.49492798830E+03  0.79876666645E+02 0.  0.
         11    1    3    3    0    0  0.22305077522E+03  0.19304058382E+03  0.55531012557E+03  0.62879698702E+03  0.00000000000E+00 0. -1.
        -11    1    3    3    0    0  0.21515975868E+03  0.18629769438E+03  0.36811956604E+03  0.46530910972E+03  0.00000000000E+00 0.  1.
          2    1    6    6  502    0  0.32923987391E+02  0.28470010331E+02  0.25549276892E+03  0.25917385170E+03  0.00000000000E+00 0. -1.
          1    1    5    5  503    0 -0.41661576410E+03 -0.31535804985E+03 -0.16910016440E+03  0.54919419162E+03  0.00000000000E+00 0. -1.
         -2    1    5    5    0  503 -0.45792519270E+02 -0.52712711242E+02  0.24607851779E+01  0.69868735578E+02  0.00000000000E+00 0.  1.
         -1    1    6    6    0  502 -0.87262379171E+01 -0.39737527438E+02  0.23221712815E+03  0.23575413660E+03  0.00000000000E+00 0.  1.
<mgrwt>
<rscale>  0 0.18239824E+04</rscale>
<asrwt>0</asrwt>
<pdfrwt beam="1">  1        1 0.26558440E+00 0.18239824E+04</pdfrwt>
<pdfrwt beam="2">  1       -1 0.74122832E-01 0.18239824E+04</pdfrwt>
<totfact> 0.78906175E+00</totfact>
</mgrwt>
</event>
<event>
12    1  0.1755460E-007  0.2732524E+04  0.7818608E-02  0.8324529E-01
         -2   -1    0    0    0  501 -0.00000000000E+00  0.00000000000E+00  0.99095428964E+03  0.99095428964E+03  0.00000000000E+00 0.  1.
          2   -1    0    0  501    0  0.00000000000E+00 -0.00000000000E+00 -0.18837116075E+04  0.18837116075E+04  0.00000000000E+00 0. -1.
         23    2    1    2    0    0  0.77801481167E+03 -0.90923930364E+03 -0.17618617837E+03  0.12130564042E+04  0.91875523635E+02 0.  0.
        254    2    1    2    0    0 -0.77801481167E+03  0.90923930364E+03 -0.71657113950E+03  0.16616094930E+04  0.90302201008E+03 0.  0.
        -24    2    4    4    0    0 -0.30054920066E+03 -0.13277668634E+03 -0.25626714148E+03  0.42377151120E+03  0.77136083945E+02 0.  0.
         24    2    4    4    0    0 -0.47746561101E+03  0.10420159900E+04 -0.46030399803E+03  0.12378379818E+04  0.81193382964E+02 0.  0.
         13    1    3    3    0    0  0.64116253489E+03 -0.70379967925E+03 -0.11711632391E+03  0.95923908281E+03  0.00000000000E+00 0.  1.
        -13    1    3    3    0    0  0.13685227678E+03 -0.20543962439E+03 -0.59069854463E+02  0.25381732139E+03  0.00000000000E+00 0. -1.
          4    1    6    6  502    0 -0.13456444898E+03  0.23106503243E+03 -0.13151191225E+03  0.29798325994E+03  0.00000000000E+00 0. -1.
          1    1    5    5  503    0 -0.14053274045E+03 -0.25821039806E+02 -0.85812913865E+02  0.16667343346E+03  0.00000000000E+00 0. -1.
         -2    1    5    5    0  503 -0.16001646021E+03 -0.10695564654E+03 -0.17045422761E+03  0.25709807774E+03  0.00000000000E+00 0.  1.
         -3    1    6    6    0  502 -0.34290116203E+03  0.81095095755E+03 -0.32879208578E+03  0.93985472183E+03  0.00000000000E+00 0.  1.
<mgrwt>
<rscale>  0 0.27325242E+04</rscale>
<asrwt>0</asrwt>
<pdfrwt beam="1">  1        2 0.28980178E+00 0.27325242E+04</pdfrwt>
<pdfrwt beam="2">  1       -2 0.15245451E+00 0.27325242E+04</pdfrwt>
<totfact> 0.19468856E+00</totfact>
</mgrwt>
</event>
<event>
12    1  0.1755460E-007  0.2241120E+04  0.7818608E-02  0.8501506E-01
         -2   -1    0    0    0  501 -0.00000000000E+00  0.00000000000E+00  0.29420934106E+03  0.29420934106E+03  0.00000000000E+00 0.  1.
          2   -1    0    0  501    0  0.00000000000E+00 -0.00000000000E+00 -0.42678937481E+04  0.42678937481E+04  0.00000000000E+00 0. -1.
         23    2    1    2    0    0  0.52864985050E+03 -0.25311523706E+03 -0.17573981994E+03  0.61906187521E+03  0.93888941650E+02 0.  0.
        254    2    1    2    0    0 -0.52864985050E+03  0.25311523706E+03 -0.37979445871E+04  0.39430412139E+04  0.88297958102E+03 0.  0.
        -24    2    4    4    0    0 -0.67722913307E+03 -0.21643905310E+02 -0.19201880759E+04  0.20377960481E+04  0.79891986009E+02 0.  0.
         24    2    4    4    0    0  0.14857928258E+03  0.27475914237E+03 -0.18777565112E+04  0.19052451658E+04  0.80132622344E+02 0.  0.
         13    1    3    3    0    0  0.27883406975E+03 -0.84717854656E+02 -0.10345157798E+03  0.30923742066E+03  0.00000000000E+00 0. -1.
        -13    1    3    3    0    0  0.24981578075E+03 -0.16839738241E+03 -0.72288241963E+02  0.30982445455E+03  0.00000000000E+00 0.  1.
          2    1    6    6  502    0  0.36975283649E+02  0.15378235025E+02 -0.24524357339E+03  0.24849159343E+03  0.00000000000E+00 0. -1.
          3    1    5    5  503    0 -0.16341610800E+03  0.23477796755E+02 -0.41194824402E+03  0.44379881370E+03  0.00000000000E+00 0. -1.
         -4    1    5    5    0  503 -0.51381302507E+03 -0.45121702065E+02 -0.15082398319E+04  0.15939972344E+04  0.00000000000E+00 0.  1.
         -1    1    6    6    0  502  0.11160399893E+03  0.25938090735E+03 -0.16325129378E+04  0.16567535724E+04  0.00000000000E+00 0.  1.
<mgrwt>
<rscale>  0 0.22411195E+04</rscale>
<asrwt>0</asrwt>
<pdfrwt beam="1">  1        2 0.65659897E+00 0.22411195E+04</pdfrwt>
<pdfrwt beam="2">  1       -2 0.45262980E-01 0.22411195E+04</pdfrwt>
<totfact> 0.86205546E-01</totfact>
</mgrwt>
</event>
<event>
12    1  0.1755460E-007  0.1388866E+04  0.7818608E-02  0.8961918E-01
          1   -1    0    0  501    0  0.00000000000E+00  0.00000000000E+00  0.11911410025E+04  0.11911410025E+04  0.00000000000E+00 0. -1.
         -1   -1    0    0    0  501 -0.00000000000E+00 -0.00000000000E+00 -0.40485287363E+03  0.40485287363E+03  0.00000000000E+00 0.  1.
         23    2    1    2    0    0  0.29384924785E+03 -0.30608760090E+02 -0.72228079628E+02  0.31754006896E+03  0.91271700159E+02 0.  0.
        254    2    1    2    0    0 -0.29384924785E+03  0.30608760090E+02  0.85851620846E+03  0.12784538071E+04  0.90006098688E+03 0.  0.
        -24    2    4    4    0    0  0.54200992949E+02 -0.38604302262E+03  0.37416523080E+03  0.54645847094E+03  0.81549234034E+02 0.  0.
         24    2    4    4    0    0 -0.34805024080E+03  0.41665178271E+03  0.48435097765E+03  0.73199533618E+03  0.80520956815E+02 0.  0.
         13    1    3    3    0    0  0.16203181879E+03  0.24073114268E+02 -0.17682561460E+02  0.16476194375E+03  0.00000000000E+00 0. -1.
        -13    1    3    3    0    0  0.13181742907E+03 -0.54681874358E+02 -0.54545518168E+02  0.15277812521E+03  0.00000000000E+00 0.  1.
          2    1    6    6  502    0 -0.10079589706E+03  0.14051490993E+03  0.20287897288E+03  0.26657856331E+03  0.00000000000E+00 0. -1.
          1    1    5    5  503    0 -0.12533789794E+02 -0.67828124884E+02  0.37870144772E+02  0.78688615930E+02  0.00000000000E+00 0. -1.
         -2    1    5    5    0  503  0.66734782743E+02 -0.31821489773E+03  0.33629508603E+03  0.46776985501E+03  0.00000000000E+00 0.  1.
         -1    1    6    6    0  502 -0.24725434374E+03  0.27613687278E+03  0.28147200477E+03  0.46541677288E+03  0.00000000000E+00 0.  1.
<mgrwt>
<rscale>  0 0.13888655E+04</rscale>
<asrwt>0</asrwt>
<pdfrwt beam="1">  1        1 0.18325246E+00 0.13888655E+04</pdfrwt>
<pdfrwt beam="2">  1       -1 0.62285058E-01 0.13888655E+04</pdfrwt>
<totfact> 0.27675343E+01</totfact>
</mgrwt>
</event>
<event>
12    1  0.1755460E-007  0.1787280E+04  0.7818608E-02  0.8713093E-01
          2   -1    0    0  501    0  0.00000000000E+00  0.00000000000E+00  0.16923300451E+04  0.16923300451E+04  0.00000000000E+00 0. -1.
         -2   -1    0    0    0  501 -0.00000000000E+00 -0.00000000000E+00 -0.47188935928E+03  0.47188935928E+03  0.00000000000E+00 0.  1.
         23    2    1    2    0    0  0.19460916478E+03 -0.32041504467E+03 -0.21686069206E+03  0.44316999681E+03  0.93981692055E+02 0.  0.
        254    2    1    2    0    0 -0.19460916478E+03  0.32041504467E+03  0.14373013779E+04  0.17210494076E+04  0.86927399856E+03 0.  0.
        -24    2    4    4    0    0  0.19803443399E+03  0.43441581453E+03  0.10381977621E+04  0.11454928373E+04  0.79777880238E+02 0.  0.
         24    2    4    4    0    0 -0.39264359877E+03 -0.11400076986E+03  0.39910361581E+03  0.57555657027E+03  0.69400996002E+02 0.  0.
         11    1    3    3    0    0  0.54469265359E+01 -0.34947255521E+02  0.41196727994E+01  0.35608304946E+02  0.00000000000E+00 0. -1.
        -11    1    3    3    0    0  0.18916223825E+03 -0.28546778915E+03 -0.22098036486E+03  0.40756169186E+03  0.00000000000E+00 0.  1.
          4    1    6    6  502    0 -0.17189666604E+03 -0.18402007493E+02  0.18928347555E+03  0.25635001812E+03  0.00000000000E+00 0. -1.
          3    1    5    5  503    0  0.75474666487E+02  0.15450332161E+03  0.28766217364E+03  0.33513762519E+03  0.00000000000E+00 0. -1.
         -4    1    5    5    0  503  0.12255976750E+03  0.27991249292E+03  0.75053558842E+03  0.81035521211E+03  0.00000000000E+00 0.  1.
         -3    1    6    6    0  502 -0.22074693274E+03 -0.95598762362E+02  0.20982014026E+03  0.31920655215E+03  0.00000000000E+00 0.  1.
<mgrwt>
<rscale>  0 0.17872801E+04</rscale>
<asrwt>0</asrwt>
<pdfrwt beam="1">  1        2 0.26035847E+00 0.17872801E+04</pdfrwt>
<pdfrwt beam="2">  1       -2 0.72598364E-01 0.17872801E+04</pdfrwt>
<totfact> 0.16058949E+01</totfact>
</mgrwt>
</event>
<event>
12    1  0.1755460E-007  0.2560404E+04  0.7818608E-02  0.8381777E-01
         -1   -1    0    0    0  501 -0.00000000000E+00  0.00000000000E+00  0.72089968291E+03  0.72089968291E+03  0.00000000000E+00 0.  1.
          1   -1    0    0  501    0  0.00000000000E+00 -0.00000000000E+00 -0.22734326251E+04  0.22734326251E+04  0.00000000000E+00 0. -1.
         23    2    1    2    0    0  0.98014389741E+03  0.13298739863E+03 -0.10989151629E+03  0.99904619031E+03  0.87461061095E+02 0.  0.
        254    2    1    2    0    0 -0.98014389741E+03 -0.13298739863E+03 -0.14426414259E+04  0.19952861177E+04  0.95999203116E+03 0.  0.
        -24    2    4    4    0    0 -0.54748476648E+03 -0.54441836843E+03 -0.81975232958E+03  0.11289789656E+04  0.80428188678E+02 0.  0.
         24    2    4    4    0    0 -0.43265913092E+03  0.41143096980E+03 -0.62288909629E+03  0.86630715205E+03  0.77639480514E+02 0.  0.
         11    1    3    3    0    0  0.41598421787E+03  0.75415116447E+02 -0.77802517911E+01  0.42283666069E+03  0.00000000000E+00 0. -1.
        -11    1    3    3    0    0  0.56415967953E+03  0.57572282182E+02 -0.10211126449E+03  0.57620952962E+03  0.00000000000E+00 0.  1.
          2    1    6    6  502    0 -0.36492966155E+03  0.36941452469E+03 -0.50763222980E+03  0.72617575673E+03  0.00000000000E+00 0. -1.
          3    1    5    5  503    0 -0.28161854588E+03 -0.27365103112E+03 -0.47491471138E+03  0.61622875242E+03  0.00000000000E+00 0. -1.
         -4    1    5    5    0  503 -0.26586622060E+03 -0.27076733731E+03 -0.34483761820E+03  0.51275021320E+03  0.00000000000E+00 0.  1.
         -1    1    6    6    0  502 -0.67729469372E+02  0.42016445113E+02 -0.11525686649E+03  0.14013139532E+03  0.00000000000E+00 0.  1.
<mgrwt>
<rscale>  0 0.25604038E+04</rscale>
<asrwt>0</asrwt>
<pdfrwt beam="1">  1        1 0.34975887E+00 0.25604038E+04</pdfrwt>
<pdfrwt beam="2">  1       -1 0.11090764E+00 0.25604038E+04</pdfrwt>
<totfact> 0.12833672E+00</totfact>
</mgrwt>
</event>
<event>
12    1  0.1755460E-007  0.1740966E+04  0.7818608E-02  0.8738339E-01
          1   -1    0    0  501    0  0.00000000000E+00  0.00000000000E+00  0.13900723382E+04  0.13900723382E+04  0.00000000000E+00 0. -1.
         -1   -1    0    0    0  501 -0.00000000000E+00 -0.00000000000E+00 -0.54510852506E+03  0.54510852506E+03  0.00000000000E+00 0.  1.
         23    2    1    2    0    0  0.41072445880E+03 -0.19316254772E+03  0.79847751279E+03  0.92299317735E+03  0.91343943977E+02 0.  0.
        254    2    1    2    0    0 -0.41072445880E+03  0.19316254772E+03  0.46486300343E+02  0.10121876859E+04  0.90352453452E+03 0.  0.
        -24    2    4    4    0    0 -0.50582469645E+03 -0.15647851745E+03  0.24752951825E+03  0.59000695318E+03  0.80580347643E+02 0.  0.
         24    2    4    4    0    0  0.95100237649E+02  0.34964106517E+03 -0.20104321791E+03  0.42218073273E+03  0.80779118353E+02 0.  0.
         11    1    3    3    0    0  0.39009967780E+03 -0.15684658351E+03  0.74050728453E+03  0.85154544671E+03  0.00000000000E+00 0. -1.
        -11    1    3    3    0    0  0.20624781002E+02 -0.36315964218E+02  0.57970228260E+02  0.71447730635E+02  0.00000000000E+00 0.  1.
          4    1    6    6  502    0  0.25795566000E+02  0.68236651347E+02 -0.67396645144E+01  0.73260322754E+02  0.00000000000E+00 0. -1.
          1    1    5    5  503    0 -0.57582266683E+02 -0.21543470963E+02  0.22366447209E+01  0.61521062711E+02  0.00000000000E+00 0. -1.
         -2    1    5    5    0  503 -0.44824242977E+03 -0.13493504649E+03  0.24529287353E+03  0.52848589047E+03  0.00000000000E+00 0.  1.
         -3    1    6    6    0  502  0.69304671649E+02  0.28140441383E+03 -0.19430355340E+03  0.34892040997E+03  0.00000000000E+00 0.  1.
<mgrwt>
<rscale>  0 0.17409656E+04</rscale>
<asrwt>0</asrwt>
<pdfrwt beam="1">  1        1 0.21385728E+00 0.17409656E+04</pdfrwt>
<pdfrwt beam="2">  1       -1 0.83862850E-01 0.17409656E+04</pdfrwt>
<totfact> 0.10437219E+01</totfact>
</mgrwt>
</event>
<event>
12    1  0.1755460E-007  0.1082546E+04  0.7818608E-02  0.9222373E-01
          2   -1    0    0  501    0  0.00000000000E+00  0.00000000000E+00  0.12816150769E+04  0.12816150769E+04  0.00000000000E+00 0. -1.
         -2   -1    0    0    0  501 -0.00000000000E+00 -0.00000000000E+00 -0.22859932208E+03  0.22859932208E+03  0.00000000000E+00 0.  1.
         23    2    1    2    0    0 -0.10734405761E+03  0.71916462643E+02  0.29821095176E+03  0.33681791769E+03  0.88441017792E+02 0.  0.
        254    2    1    2    0    0  0.10734405761E+03 -0.71916462643E+02  0.75480480309E+03  0.11733964813E+04  0.88906371386E+03 0.  0.
        -24    2    4    4    0    0  0.30864775065E+03 -0.20418516944E+01  0.86386006102E+03  0.92077603163E+03  0.79414685361E+02 0.  0.
         24    2    4    4    0    0 -0.20130369304E+03 -0.69874610948E+02 -0.10905525793E+03  0.25262044969E+03  0.80736635017E+02 0.  0.
         13    1    3    3    0    0 -0.71480523156E+02  0.84993518900E+02  0.26037930262E+03  0.28307374424E+03  0.00000000000E+00 0. -1.
        -13    1    3    3    0    0 -0.35863534449E+02 -0.13077056257E+02  0.37831649137E+02  0.53744173451E+02  0.00000000000E+00 0.  1.
          2    1    6    6  502    0 -0.76010888676E+02 -0.26835949305E+02 -0.86496447956E+02  0.11823476173E+03  0.00000000000E+00 0. -1.
          3    1    5    5  503    0  0.51007650142E+02  0.23528772914E+02  0.10685150964E+03  0.12071714310E+03  0.00000000000E+00 0. -1.
         -4    1    5    5    0  503  0.25764010051E+03 -0.25570624609E+02  0.75700855139E+03  0.80005888852E+03  0.00000000000E+00 0.  1.
         -1    1    6    6    0  502 -0.12529280437E+03 -0.43038661644E+02 -0.22558809972E+02  0.13438568796E+03  0.00000000000E+00 0.  1.
<mgrwt>
<rscale>  0 0.10825458E+04</rscale>
<asrwt>0</asrwt>
<pdfrwt beam="1">  1        2 0.19717154E+00 0.10825458E+04</pdfrwt>
<pdfrwt beam="2">  1       -2 0.35169127E-01 0.10825458E+04</pdfrwt>
<totfact> 0.12770822E+02</totfact>
</mgrwt>
</event>
<event>
12    1  0.3737488E-007  0.1819729E+04  0.7818608E-02  0.8695878E-01
         -2   -1    0    0    0  501 -0.00000000000E+00  0.00000000000E+00  0.39824691616E+03  0.39824691616E+03  0.00000000000E+00 0. -1.
          2   -1    0    0  501    0  0.00000000000E+00 -0.00000000000E+00 -0.20787444968E+04  0.20787444968E+04  0.00000000000E+00 0.  1.
         23    2    1    2    0    0  0.28069754130E+03  0.32750274997E+03 -0.12881236035E+04  0.13615033144E+04  0.91540682285E+02 0.  0.
        254    2    1    2    0    0 -0.28069754130E+03 -0.32750274997E+03 -0.39237397721E+03  0.11154880986E+04  0.95095068174E+03 0.  0.
        -24    2    4    4    0    0  0.19134858427E+03 -0.49218906346E+03 -0.24820453070E+03  0.58892064153E+03  0.79735049177E+02 0.  0.
         24    2    4    4    0    0 -0.47204612557E+03  0.16468631349E+03 -0.14416944651E+03  0.52656745703E+03  0.80866129996E+02 0.  0.
         11    1    3    3    0    0  0.70642560409E+02  0.74558662541E+02 -0.20061869719E+03  0.22538240207E+03  0.00000000000E+00 0. -1.
        -11    1    3    3    0    0  0.21005498089E+03  0.25294408743E+03 -0.10875049063E+04  0.11361209124E+04  0.00000000000E+00 0.  1.
          4    1    6    6  502    0 -0.46422044378E+03  0.16421905407E+03 -0.12827496524E+03  0.50884475516E+03  0.00000000000E+00 0. -1.
          3    1    5    5  503    0  0.18723500398E+03 -0.41684543164E+03 -0.22862348026E+03  0.51096551383E+03  0.00000000000E+00 0. -1.
         -4    1    5    5    0  503  0.41135802868E+01 -0.75343631816E+02 -0.19581050440E+02  0.77955127698E+02  0.00000000000E+00 0.  1.
         -3    1    6    6    0  502 -0.78256817888E+01  0.46725941698E+00 -0.15894481270E+02  0.17722701872E+02  0.00000000000E+00 0.  1.
<mgrwt>
<rscale>  0 0.18197292E+04</rscale>
<asrwt>0</asrwt>
<pdfrwt beam="1">  1        2 0.31980684E+00 0.18197292E+04</pdfrwt>
<pdfrwt beam="2">  1       -2 0.61268758E-01 0.18197292E+04</pdfrwt>
<totfact> 0.14102842E+01</totfact>
</mgrwt>
</event>
<event>
12    1  0.1755460E-007  0.1135415E+04  0.7818608E-02  0.9171345E-01
         -2   -1    0    0    0  501 -0.00000000000E+00  0.00000000000E+00  0.20141670747E+03  0.20141670747E+03  0.00000000000E+00 0.  1.
          2   -1    0    0  501    0  0.00000000000E+00 -0.00000000000E+00 -0.16001244679E+04  0.16001244679E+04  0.00000000000E+00 0. -1.
         23    2    1    2    0    0  0.45337496007E+02  0.43879783609E+02 -0.56233155954E+03  0.57310711087E+03  0.90851822851E+02 0.  0.
        254    2    1    2    0    0 -0.45337496007E+02 -0.43879783609E+02 -0.83637620085E+03  0.12284340645E+04  0.89752112925E+03 0.  0.
        -24    2    4    4    0    0 -0.21600277179E+03 -0.16035791205E+03  0.75078986403E+02  0.29038258445E+03  0.79456489842E+02 0.  0.
         24    2    4    4    0    0  0.17066527578E+03  0.11647812844E+03 -0.91145518726E+03  0.93805148002E+03  0.80599193792E+02 0.  0.
         13    1    3    3    0    0  0.28496230609E+02 -0.11971288032E+02 -0.60909181925E+02  0.68302820870E+02  0.00000000000E+00 0.  1.
        -13    1    3    3    0    0  0.16841265397E+02  0.55851071641E+02 -0.50142237762E+03  0.50480429000E+03  0.00000000000E+00 0. -1.
          2    1    6    6  502    0  0.25931952322E+02  0.59540624958E+02 -0.22413491141E+03  0.23335383152E+03  0.00000000000E+00 0. -1.
          1    1    5    5  503    0 -0.11313035589E+03 -0.61228099207E+02 -0.76034756183E+00  0.12863877987E+03  0.00000000000E+00 0. -1.
         -2    1    5    5    0  503 -0.10287241589E+03 -0.99129812840E+02  0.75839333965E+02  0.16174380458E+03  0.00000000000E+00 0.  1.
         -1    1    6    6    0  502  0.14473332346E+03  0.56937503479E+02 -0.68732027584E+03  0.70469764850E+03  0.00000000000E+00 0.  1.
<mgrwt>
<rscale>  0 0.11354150E+04</rscale>
<asrwt>0</asrwt>
<pdfrwt beam="1">  1        2 0.24617299E+00 0.11354150E+04</pdfrwt>
<pdfrwt beam="2">  1       -2 0.30987187E-01 0.11354150E+04</pdfrwt>
<totfact> 0.10656720E+02</totfact>
</mgrwt>
</event>
<event>
12    1  0.1755460E-007  0.2093345E+04  0.7818608E-02  0.8564181E-01
         -2   -1    0    0    0  501 -0.00000000000E+00  0.00000000000E+00  0.28663451300E+03  0.28663451300E+03  0.00000000000E+00 0. -1.
          2   -1    0    0  501    0  0.00000000000E+00 -0.00000000000E+00 -0.38220204071E+04  0.38220204071E+04  0.00000000000E+00 0.  1.
         23    2    1    2    0    0 -0.77336614010E+03 -0.34373681349E+03 -0.14872573584E+04  0.17136718142E+04  0.92121947033E+02 0.  0.
        254    2    1    2    0    0  0.77336614010E+03  0.34373681349E+03 -0.20481285357E+04  0.23949831059E+04  0.90821990461E+03 0.  0.
        -24    2    4    4    0    0  0.36853883491E+03 -0.87905827754E+02 -0.16054498279E+04  0.16514743559E+04  0.79687456784E+02 0.  0.
         24    2    4    4    0    0  0.40482730519E+03  0.43164264124E+03 -0.44267870779E+03  0.74350875002E+03  0.81488074297E+02 0.  0.
         11    1    3    3    0    0 -0.66399897375E+02 -0.23643386441E+02 -0.80051659131E+02  0.10665938413E+03  0.00000000000E+00 0. -1.
        -11    1    3    3    0    0 -0.70696624272E+03 -0.32009342705E+03 -0.14072056992E+04  0.16070124301E+04  0.00000000000E+00 0.  1.
          4    1    6    6  502    0  0.50961144901E+02  0.22635031591E+02 -0.30897697908E+02  0.63749907300E+02  0.00000000000E+00 0. -1.
          3    1    5    5  503    0  0.13810816439E+03  0.60504343641E+01 -0.58922452477E+03  0.60522393658E+03  0.00000000000E+00 0. -1.
         -4    1    5    5    0  503  0.23043067052E+03 -0.93956262118E+02 -0.10162253031E+04  0.10462504193E+04  0.00000000000E+00 0.  1.
         -3    1    6    6    0  502  0.35386616029E+03  0.40900760965E+03 -0.41178100988E+03  0.67975884272E+03  0.00000000000E+00 0.  1.
<mgrwt>
<rscale>  0 0.20933447E+04</rscale>
<asrwt>0</asrwt>
<pdfrwt beam="1">  1        2 0.58800306E+00 0.20933447E+04</pdfrwt>
<pdfrwt beam="2">  1       -2 0.44097623E-01 0.20933447E+04</pdfrwt>
<totfact> 0.21398635E+00</totfact>
</mgrwt>
</event>
<event>
12    1  0.1755460E-007  0.1625117E+04  0.7818608E-02  0.8805265E-01
         -2   -1    0    0    0  501 -0.00000000000E+00  0.00000000000E+00  0.26164337740E+03  0.26164337740E+03  0.00000000000E+00 0.  1.
          2   -1    0    0  501    0  0.00000000000E+00 -0.00000000000E+00 -0.25234765351E+04  0.25234765351E+04  0.00000000000E+00 0. -1.
         23    2    1    2    0    0  0.34040634512E+03  0.21388045520E+03 -0.14123047846E+04  0.14712905925E+04  0.92031919848E+02 0.  0.
        254    2    1    2    0    0 -0.34040634512E+03 -0.21388045520E+03 -0.84952837310E+03  0.13138293199E+04  0.91805647771E+03 0.  0.
        -24    2    4    4    0    0 -0.36706470947E+03 -0.54185208696E+03 -0.51282211493E+03  0.83532665394E+03  0.80273981664E+02 0.  0.
         24    2    4    4    0    0  0.26658364348E+02  0.32797163176E+03 -0.33670625817E+03  0.47850266598E+03  0.85543190447E+02 0.  0.
         13    1    3    3    0    0  0.32071517471E+03  0.19131471482E+03 -0.11966802222E+04  0.12535960663E+04  0.00000000000E+00 0.  1.
        -13    1    3    3    0    0  0.19691170411E+02  0.22565740376E+02 -0.21562456239E+03  0.21769452620E+03  0.00000000000E+00 0. -1.
          2    1    6    6  502    0 -0.11245461590E+02  0.16032945593E+02 -0.47746697112E+02  0.51606809976E+02  0.00000000000E+00 0. -1.
          3    1    5    5  503    0 -0.18040294830E+02 -0.34843236970E+02 -0.57852946975E+02  0.69903267976E+02  0.00000000000E+00 0. -1.
         -4    1    5    5    0  503 -0.34902441464E+03 -0.50700884999E+03 -0.45496916796E+03  0.76542338596E+03  0.00000000000E+00 0.  1.
         -1    1    6    6    0  502  0.37903825938E+02  0.31193868617E+03 -0.28895956106E+03  0.42689585601E+03  0.00000000000E+00 0.  1.
<mgrwt>
<rscale>  0 0.16251165E+04</rscale>
<asrwt>0</asrwt>
<pdfrwt beam="1">  1        2 0.38822717E+00 0.16251165E+04</pdfrwt>
<pdfrwt beam="2">  1       -2 0.40252826E-01 0.16251165E+04</pdfrwt>
<totfact> 0.18901510E+01</totfact>
</mgrwt>
</event>
<event>
12    1  0.1755460E-007  0.2440860E+04  0.7818608E-02  0.8424363E-01
         -3   -1    0    0    0  501 -0.00000000000E+00  0.00000000000E+00  0.29489219536E+04  0.29489219536E+04  0.00000000000E+00 0.  1.
          3   -1    0    0  501    0  0.00000000000E+00 -0.00000000000E+00 -0.50508265391E+03  0.50508265391E+03  0.00000000000E+00 0. -1.
         23    2    1    2    0    0  0.17254278486E+03 -0.70239541036E+03  0.21392670710E+04  0.22599089029E+04  0.87145413635E+02 0.  0.
        254    2    1    2    0    0 -0.17254278486E+03  0.70239541036E+03  0.30457222874E+03  0.11940957047E+04  0.89998332447E+03 0.  0.
        -24    2    4    4    0    0  0.73939703778E+02  0.17087474353E+02  0.43599071546E+03  0.44980292540E+03  0.80471772367E+02 0.  0.
         24    2    4    4    0    0 -0.24648248864E+03  0.68530793600E+03 -0.13141848673E+03  0.74429277928E+03  0.79374670299E+02 0.  0.
         11    1    3    3    0    0  0.42296048962E+01 -0.15331432408E+03  0.40812604000E+03  0.43599316055E+03  0.00000000000E+00 0. -1.
        -11    1    3    3    0    0  0.16831317996E+03 -0.54908108628E+03  0.17311410310E+04  0.18239157423E+04  0.00000000000E+00 0.  1.
          2    1    6    6  502    0 -0.98855343398E+02  0.18476099511E+03 -0.56929201263E+02  0.21714036517E+03  0.00000000000E+00 0. -1.
          1    1    5    5  503    0  0.66239908176E+01  0.29817236242E+02  0.56980671475E+02  0.64650922292E+02  0.00000000000E+00 0. -1.
         -2    1    5    5    0  503  0.67315712960E+02 -0.12729761889E+02  0.37901004399E+03  0.38515200310E+03  0.00000000000E+00 0.  1.
         -1    1    6    6    0  502 -0.14762714524E+03  0.50054694090E+03 -0.74489285464E+02  0.52715241411E+03  0.00000000000E+00 0.  1.
<mgrwt>
<rscale>  0 0.24408600E+04</rscale>
<asrwt>0</asrwt>
<pdfrwt beam="1">  1        3 0.77705026E-01 0.24408600E+04</pdfrwt>
<pdfrwt beam="2">  1       -3 0.45368029E+00 0.24408600E+04</pdfrwt>
<totfact> 0.19512730E-02</totfact>
</mgrwt>
</event>
<event>
12    1  0.1755460E-007  0.1808568E+04  0.7818608E-02  0.8701756E-01
          1   -1    0    0  501    0  0.00000000000E+00  0.00000000000E+00  0.15989735035E+04  0.15989735035E+04  0.00000000000E+00 0. -1.
         -1   -1    0    0    0  501 -0.00000000000E+00 -0.00000000000E+00 -0.51140927220E+03  0.51140927220E+03  0.00000000000E+00 0.  1.
         23    2    1    2    0    0  0.14012798874E+03  0.56384429450E+03  0.80659827307E+03  0.99800512922E+03  0.88640973296E+02 0.  0.
        254    2    1    2    0    0 -0.14012798874E+03 -0.56384429450E+03  0.28096595818E+03  0.11123776465E+04  0.90602754759E+03 0.  0.
        -24    2    4    4    0    0 -0.43373579137E+03 -0.51927070318E+03 -0.21518420017E+02  0.68154474493E+03  0.79192152670E+02 0.  0.
         24    2    4    4    0    0  0.29360780263E+03 -0.44573591321E+02  0.30248437820E+03  0.43083290152E+03  0.76992487740E+02 0.  0.
         11    1    3    3    0    0  0.80696419862E+02  0.43418629156E+03  0.65385632710E+03  0.78902328511E+03  0.00000000000E+00 0. -1.
        -11    1    3    3    0    0  0.59431568881E+02  0.12965800294E+03  0.15274194597E+03  0.20898184411E+03  0.00000000000E+00 0.  1.
          4    1    6    6  502    0  0.96720616837E+02  0.97088319318E+01  0.13693941144E+03  0.16793314605E+03  0.00000000000E+00 0. -1.
          1    1    5    5  503    0 -0.12077369929E+03 -0.17975554029E+03  0.22360647938E+02  0.21771159657E+03  0.00000000000E+00 0. -1.
         -2    1    5    5    0  503 -0.31296209208E+03 -0.33951516289E+03 -0.43879067956E+02  0.46383314836E+03  0.00000000000E+00 0.  1.
         -3    1    6    6    0  502  0.19688718579E+03 -0.54282423253E+02  0.16554496677E+03  0.26289975547E+03  0.00000000000E+00 0.  1.
<mgrwt>
<rscale>  0 0.18085684E+04</rscale>
<asrwt>0</asrwt>
<pdfrwt beam="1">  1        1 0.24599592E+00 0.18085684E+04</pdfrwt>
<pdfrwt beam="2">  1       -1 0.78678350E-01 0.18085684E+04</pdfrwt>
<totfact> 0.85169765E+00</totfact>
</mgrwt>
</event>
<event>
12    1  0.1755460E-007  0.1244358E+04  0.7818608E-02  0.9074892E-01
          1   -1    0    0  501    0  0.00000000000E+00  0.00000000000E+00  0.79065436858E+03  0.79065436858E+03  0.00000000000E+00 0. -1.
         -1   -1    0    0    0  501 -0.00000000000E+00 -0.00000000000E+00 -0.48960300982E+03  0.48960300982E+03  0.00000000000E+00 0.  1.
         23    2    1    2    0    0 -0.40661006266E+02 -0.15995071350E+03 -0.16465279935E+03  0.25084307033E+03  0.92596724660E+02 0.  0.
        254    2    1    2    0    0  0.40661006266E+02  0.15995071350E+03  0.46570415810E+03  0.10294143081E+04  0.90309241310E+03 0.  0.
        -24    2    4    4    0    0 -0.21114333857E+03  0.38228094358E+03 -0.68760827538E+01  0.44385516982E+03  0.78993050384E+02 0.  0.
         24    2    4    4    0    0  0.25180434484E+03 -0.22233023008E+03  0.47258024086E+03  0.58555913825E+03  0.81922286687E+02 0.  0.
         11    1    3    3    0    0  0.23914280492E+02 -0.16070068588E+02 -0.11543802297E+02  0.31038674059E+02  0.00000000000E+00 0. -1.
        -11    1    3    3    0    0 -0.64575286758E+02 -0.14388064491E+03 -0.15310899705E+03  0.21980439627E+03  0.00000000000E+00 0.  1.
          2    1    6    6  502    0  0.28814254164E+02 -0.44721998583E+02  0.12617651943E+03  0.13693367904E+03  0.00000000000E+00 0. -1.
          1    1    5    5  503    0 -0.65286920391E+02  0.63533596818E+02  0.16345151347E+02  0.92553032750E+02  0.00000000000E+00 0. -1.
         -2    1    5    5    0  503 -0.14585641818E+03  0.31874734676E+03 -0.23221234100E+02  0.35130213706E+03  0.00000000000E+00 0.  1.
         -1    1    6    6    0  502  0.22299009067E+03 -0.17760823150E+03  0.34640372143E+03  0.44862545921E+03  0.00000000000E+00 0.  1.
<mgrwt>
<rscale>  0 0.12443581E+04</rscale>
<asrwt>0</asrwt>
<pdfrwt beam="1">  1        1 0.12163913E+00 0.12443581E+04</pdfrwt>
<pdfrwt beam="2">  1       -1 0.75323540E-01 0.12443581E+04</pdfrwt>
<totfact> 0.39398884E+01</totfact>
</mgrwt>
</event>
<event>
12    1  0.1755460E-007  0.1041337E+04  0.7818608E-02  0.9264334E-01
         -2   -1    0    0    0  501 -0.00000000000E+00  0.00000000000E+00  0.72907298327E+03  0.72907298327E+03  0.00000000000E+00 0.  1.
          2   -1    0    0  501    0  0.00000000000E+00 -0.00000000000E+00 -0.37183614236E+03  0.37183614236E+03  0.00000000000E+00 0. -1.
         23    2    1    2    0    0 -0.54835441722E+02  0.55936347102E+02  0.11117318939E+03  0.16348587466E+03  0.90732312757E+02 0.  0.
        254    2    1    2    0    0  0.54835441722E+02 -0.55936347102E+02  0.24606365153E+03  0.93742325097E+03  0.90115438758E+03 0.  0.
        -24    2    4    4    0    0 -0.12851851670E+03 -0.16865344782E+03  0.52775925921E+03  0.57412218901E+03  0.78265302918E+02 0.  0.
         24    2    4    4    0    0  0.18335395842E+03  0.11271710071E+03 -0.28169560768E+03  0.36330106196E+03  0.79444492420E+02 0.  0.
         11    1    3    3    0    0  0.26850174583E+01  0.59931427038E+02  0.72292872468E+02  0.93942773406E+02  0.00000000000E+00 0.  1.
        -11    1    3    3    0    0 -0.57520459180E+02 -0.39950799356E+01  0.38880316917E+02  0.69543101251E+02  0.00000000000E+00 0. -1.
          4    1    6    6  502    0  0.50471989186E+02  0.46305313883E+02 -0.39196210682E+02  0.78917341047E+02  0.00000000000E+00 0. -1.
          1    1    5    5  503    0 -0.11564451314E+03 -0.11395987082E+03  0.31909626031E+03  0.35802643606E+03  0.00000000000E+00 0. -1.
         -2    1    5    5    0  503 -0.12874003553E+02 -0.54693576993E+02  0.20866299890E+03  0.21609575295E+03  0.00000000000E+00 0.  1.
         -3    1    6    6    0  502  0.13288196923E+03  0.66411786831E+02 -0.24249939700E+03  0.28438372091E+03  0.00000000000E+00 0.  1.
<mgrwt>
<rscale>  0 0.10413370E+04</rscale>
<asrwt>0</asrwt>
<pdfrwt beam="1">  1        2 0.57205561E-01 0.10413370E+04</pdfrwt>
<pdfrwt beam="2">  1       -2 0.11216507E+00 0.10413370E+04</pdfrwt>
<totfact> 0.53889676E+01</totfact>
</mgrwt>
</event>
<event>
12    1  0.1755460E-007  0.1421846E+04  0.7818608E-02  0.8938155E-01
          3   -1    0    0  501    0  0.00000000000E+00  0.00000000000E+00  0.71751882212E+03  0.71751882212E+03  0.00000000000E+00 0. -1.
         -3   -1    0    0    0  501 -0.00000000000E+00 -0.00000000000E+00 -0.70438793201E+03  0.70438793201E+03  0.00000000000E+00 0.  1.
         23    2    1    2    0    0 -0.33154396977E+03 -0.24011062215E+03 -0.84557358388E+02  0.42789816477E+03  0.91500698335E+02 0.  0.
        254    2    1    2    0    0  0.33154396977E+03  0.24011062215E+03  0.97688248498E+02  0.99400858935E+03  0.90051960947E+03 0.  0.
        -24    2    4    4    0    0  0.36223302432E+03  0.54740169574E+03  0.12765936757E+01  0.66127481071E+03  0.80133421099E+02 0.  0.
         24    2    4    4    0    0 -0.30689054547E+02 -0.30729107359E+03  0.96411654822E+02  0.33273377864E+03  0.77762062020E+02 0.  0.
         13    1    3    3    0    0 -0.32827911599E+03 -0.24003816548E+03 -0.69600633241E+02  0.41258907769E+03  0.00000000000E+00 0. -1.
        -13    1    3    3    0    0 -0.32648537811E+01 -0.72456674310E-01 -0.14956725147E+02  0.15309087082E+02  0.00000000000E+00 0.  1.
          2    1    6    6  502    0 -0.25921509054E+02 -0.30284852296E+03  0.78871307951E+02  0.31402203061E+03  0.00000000000E+00 0. -1.
          1    1    5    5  503    0  0.28267675391E+03  0.46670551725E+03  0.21983007565E+02  0.54608006707E+03  0.00000000000E+00 0. -1.
         -2    1    5    5    0  503  0.79556270413E+02  0.80696178484E+02 -0.20706413889E+02  0.11519474363E+03  0.00000000000E+00 0.  1.
         -1    1    6    6    0  502 -0.47675454927E+01 -0.44425506272E+01  0.17540346871E+02  0.18711748033E+02  0.00000000000E+00 0.  1.
<mgrwt>
<rscale>  0 0.14218461E+04</rscale>
<asrwt>0</asrwt>
<pdfrwt beam="1">  1        3 0.11038751E+00 0.14218461E+04</pdfrwt>
<pdfrwt beam="2">  1       -3 0.10836737E+00 0.14218461E+04</pdfrwt>
<totfact> 0.12741165E+00</totfact>
</mgrwt>
</event>
<event>
12    1  0.1755460E-007  0.2073565E+04  0.7818608E-02  0.8572978E-01
          2   -1    0    0  501    0  0.00000000000E+00  0.00000000000E+00  0.32720462609E+04  0.32720462609E+04  0.00000000000E+00 0.  1.
         -2   -1    0    0    0  501 -0.00000000000E+00 -0.00000000000E+00 -0.32851551383E+03  0.32851551383E+03  0.00000000000E+00 0. -1.
         23    2    1    2    0    0  0.72447450696E+03 -0.76581200367E+02  0.19418420895E+04  0.20761021394E+04  0.93388443091E+02 0.  0.
        254    2    1    2    0    0 -0.72447450696E+03  0.76581200367E+02  0.10016886576E+04  0.15244596353E+04  0.88874575750E+03 0.  0.
        -24    2    4    4    0    0  0.83377690127E+02 -0.74797236983E+02 -0.83585226237E+02  0.16066601992E+03  0.79250325171E+02 0.  0.
         24    2    4    4    0    0 -0.80785219709E+03  0.15137843735E+03  0.10852738838E+04  0.13637936154E+04  0.81074156528E+02 0.  0.
         13    1    3    3    0    0  0.48799572140E+02  0.18401158557E+02  0.13744209966E+03  0.14700452931E+03  0.00000000000E+00 0. -1.
        -13    1    3    3    0    0  0.67567493482E+03 -0.94982358924E+02  0.18043999898E+04  0.19290976101E+04  0.00000000000E+00 0.  1.
          4    1    6    6  502    0 -0.47008262923E+03  0.12365162205E+03  0.67092767703E+03  0.82849945670E+03  0.00000000000E+00 0. -1.
          3    1    5    5  503    0  0.64459134105E+02 -0.83524811261E+02 -0.90199384026E+02  0.13880671073E+03  0.00000000000E+00 0. -1.
         -4    1    5    5    0  503  0.18918556022E+02  0.87275742778E+01  0.66141577895E+01  0.21859309184E+02  0.00000000000E+00 0.  1.
         -3    1    6    6    0  502 -0.33776956785E+03  0.27726815304E+02  0.41434620679E+03  0.53529415870E+03  0.00000000000E+00 0.  1.
<mgrwt>
<rscale>  0 0.20735650E+04</rscale>
<asrwt>0</asrwt>
<pdfrwt beam="1">  1        2 0.50339171E+00 0.20735650E+04</pdfrwt>
<pdfrwt beam="2">  1       -2 0.50540850E-01 0.20735650E+04</pdfrwt>
<totfact> 0.39880333E+00</totfact>
</mgrwt>
</event>
<event>
12    1  0.1755460E-007  0.2625300E+04  0.7818608E-02  0.8359658E-01
          1   -1    0    0  501    0  0.00000000000E+00  0.00000000000E+00  0.10182566483E+04  0.10182566483E+04  0.00000000000E+00 0. -1.
         -1   -1    0    0    0  501 -0.00000000000E+00 -0.00000000000E+00 -0.16921572364E+04  0.16921572364E+04  0.00000000000E+00 0.  1.
         23    2    1    2    0    0 -0.10195193431E+04  0.12838715124E+03 -0.84141166271E+03  0.13312514529E+04  0.91399634982E+02 0.  0.
        254    2    1    2    0    0  0.10195193431E+04 -0.12838715124E+03  0.16751107463E+03  0.13791624317E+04  0.90450323463E+03 0.  0.
        -24    2    4    4    0    0  0.47996332671E+02  0.15615026225E+02  0.36245618495E+03  0.37486203317E+03  0.81237804683E+02 0.  0.
         24    2    4    4    0    0  0.97152301040E+03 -0.14400217747E+03 -0.19494511032E+03  0.10043003985E+04  0.77602239915E+02 0.  0.
         13    1    3    3    0    0 -0.73533209547E+03  0.94072168498E+02 -0.65845070418E+03  0.99152417688E+03  0.00000000000E+00 0.  1.
        -13    1    3    3    0    0 -0.28418724760E+03  0.34314982742E+02 -0.18296095853E+03  0.33972727604E+03  0.00000000000E+00 0. -1.
          4    1    6    6  502    0  0.54344701851E+03 -0.98049324972E+02 -0.14454264474E+03  0.57082476138E+03  0.00000000000E+00 0. -1.
          1    1    5    5  503    0  0.64303061386E+02  0.18750914660E+02  0.18722619270E+03  0.19884699580E+03  0.00000000000E+00 0. -1.
         -2    1    5    5    0  503 -0.16306728715E+02 -0.31358884351E+01  0.17522999225E+03  0.17601503737E+03  0.00000000000E+00 0.  1.
         -3    1    6    6    0  502  0.42807599188E+03 -0.45952852494E+02 -0.50402465581E+02  0.43347563717E+03  0.00000000000E+00 0.  1.
<mgrwt>
<rscale>  0 0.26253003E+04</rscale>
<asrwt>0</asrwt>
<pdfrwt beam="1">  1        1 0.15665487E+00 0.26253003E+04</pdfrwt>
<pdfrwt beam="2">  1       -1 0.26033188E+00 0.26253003E+04</pdfrwt>
<totfact> 0.76825675E-01</totfact>
</mgrwt>
</event>
<event>
12    1  0.1755460E-007  0.1728895E+04  0.7818608E-02  0.8745054E-01
          1   -1    0    0  501    0  0.00000000000E+00  0.00000000000E+00  0.67659207735E+03  0.67659207735E+03  0.00000000000E+00 0. -1.
         -1   -1    0    0    0  501 -0.00000000000E+00 -0.00000000000E+00 -0.11044614993E+04  0.11044614993E+04  0.00000000000E+00 0.  1.
         23    2    1    2    0    0  0.35568066308E+03 -0.49483878700E+03 -0.71477429953E+01  0.61616679959E+03  0.90753928162E+02 0.  0.
        254    2    1    2    0    0 -0.35568066308E+03  0.49483878700E+03 -0.42072167892E+03  0.11648867770E+04  0.89921093907E+03 0.  0.
        -24    2    4    4    0    0 -0.25674531144E+03  0.95527299298E+02  0.24644693654E+03  0.37691951505E+03  0.79300746799E+02 0.  0.
         24    2    4    4    0    0 -0.98935351649E+02  0.39931148770E+03 -0.66716861546E+03  0.78796726197E+03  0.80873830530E+02 0.  0.
         11    1    3    3    0    0  0.19907149626E+02 -0.46480165349E+02 -0.23542262337E+02  0.55775787696E+02  0.00000000000E+00 0.  1.
        -11    1    3    3    0    0  0.33577351346E+03 -0.44835862165E+03  0.16394519342E+02  0.56039101190E+03  0.00000000000E+00 0. -1.
          2    1    6    6  502    0 -0.77475353324E+02  0.38578370561E+03 -0.63448286973E+03  0.74659226480E+03  0.00000000000E+00 0. -1.
          1    1    5    5  503    0 -0.15366416276E+03  0.88441071985E+02  0.12223558496E+03  0.21535096090E+03  0.00000000000E+00 0. -1.
         -2    1    5    5    0  503 -0.10308114867E+03  0.70862273127E+01  0.12421135157E+03  0.16156855415E+03  0.00000000000E+00 0.  1.
         -1    1    6    6    0  502 -0.21459998325E+02  0.13527782095E+02 -0.32685745726E+02  0.41374997163E+02  0.00000000000E+00 0.  1.
<mgrwt>
<rscale>  0 0.17288955E+04</rscale>
<asrwt>0</asrwt>
<pdfrwt beam="1">  1        1 0.10409109E+00 0.17288955E+04</pdfrwt>
<pdfrwt beam="2">  1       -1 0.16991715E+00 0.17288955E+04</pdfrwt>
<totfact> 0.67093548E+00</totfact>
</mgrwt>
</event>
<event>
12    1  0.1755460E-007  0.2823482E+04  0.7818608E-02  0.8296015E-01
         -1   -1    0    0    0  501 -0.00000000000E+00  0.00000000000E+00  0.86860170256E+03  0.86860170256E+03  0.00000000000E+00 0.  1.
          1   -1    0    0  501    0  0.00000000000E+00 -0.00000000000E+00 -0.22945074661E+04  0.22945074661E+04  0.00000000000E+00 0. -1.
         23    2    1    2    0    0  0.64652569605E+03  0.98653228245E+03 -0.12106217214E+03  0.11889677885E+04  0.88016660358E+02 0.  0.
        254    2    1    2    0    0 -0.64652569605E+03 -0.98653228245E+03 -0.13048435914E+04  0.19741413802E+04  0.89631242938E+03 0.  0.
        -24    2    4    4    0    0 -0.51882253241E+03 -0.11169590387E+04 -0.91459263807E+03  0.15361180639E+04  0.80029358893E+02 0.  0.
         24    2    4    4    0    0 -0.12770316365E+03  0.13042675630E+03 -0.39025095334E+03  0.43802331630E+03  0.79053034583E+02 0.  0.
         11    1    3    3    0    0  0.56485938584E+02  0.49610140390E+02 -0.42387393109E+00  0.75179830782E+02  0.00000000000E+00 0. -1.
        -11    1    3    3    0    0  0.59003975747E+03  0.93692214206E+03 -0.12063829821E+03  0.11137879577E+04  0.00000000000E+00 0.  1.
          4    1    6    6  502    0 -0.88867655249E+02  0.80431856386E+02 -0.32809787088E+03  0.34930639351E+03  0.00000000000E+00 0. -1.
          3    1    5    5  503    0 -0.49822571108E+03 -0.10957814570E+04 -0.88302045473E+03  0.14928800971E+04  0.00000000000E+00 0. -1.
         -4    1    5    5    0  503 -0.20596821328E+02 -0.21177581740E+02 -0.31572183337E+02  0.43237966856E+02  0.00000000000E+00 0.  1.
         -3    1    6    6    0  502 -0.38835508399E+02  0.49994899918E+02 -0.62153082456E+02  0.88716922789E+02  0.00000000000E+00 0.  1.
<mgrwt>
<rscale>  0 0.28234823E+04</rscale>
<asrwt>0</asrwt>
<pdfrwt beam="1">  1        1 0.35300114E+00 0.28234823E+04</pdfrwt>
<pdfrwt beam="2">  1       -1 0.13363103E+00 0.28234823E+04</pdfrwt>
<totfact> 0.76671704E-01</totfact>
</mgrwt>
</event>
<event>
12    1  0.1755460E-007  0.1446406E+04  0.7818608E-02  0.8920896E-01
         -2   -1    0    0    0  501 -0.00000000000E+00  0.00000000000E+00  0.15634056161E+04  0.15634056161E+04  0.00000000000E+00 0.  1.
          2   -1    0    0  501    0  0.00000000000E+00 -0.00000000000E+00 -0.33454034797E+03  0.33454034797E+03  0.00000000000E+00 0. -1.
         23    2    1    2    0    0  0.11180933579E+03 -0.26564092677E+03 -0.57087114083E+02  0.30758144039E+03  0.90999858978E+02 0.  0.
        254    2    1    2    0    0 -0.11180933579E+03  0.26564092677E+03  0.12859523822E+04  0.15903645237E+04  0.89023556396E+03 0.  0.
        -24    2    4    4    0    0 -0.25959386749E+02  0.37443366813E+03  0.13603244829E+04  0.14135960280E+04  0.83045590194E+02 0.  0.
         24    2    4    4    0    0 -0.85849949042E+02 -0.10879274136E+03 -0.74372100687E+02  0.17676849567E+03  0.80683439309E+02 0.  0.
         13    1    3    3    0    0  0.83866830411E+02 -0.12119831178E+03  0.59928018234E+01  0.14750793096E+03  0.00000000000E+00 0.  1.
        -13    1    3    3    0    0  0.27942505379E+02 -0.14444261499E+03 -0.63079915906E+02  0.16007350943E+03  0.00000000000E+00 0. -1.
          4    1    6    6  502    0 -0.85505759311E+02 -0.11760736345E+03 -0.80334135551E+02  0.16612134164E+03  0.00000000000E+00 0. -1.
          1    1    5    5  503    0 -0.25255521062E+02  0.23568085838E+03  0.99408250161E+03  0.10219507465E+04  0.00000000000E+00 0. -1.
         -2    1    5    5    0  503 -0.70386568636E+00  0.13875280975E+03  0.36624198132E+03  0.39164528150E+03  0.00000000000E+00 0.  1.
         -3    1    6    6    0  502 -0.34418973120E+00  0.88146220952E+01  0.59620348637E+01  0.10647154031E+02  0.00000000000E+00 0.  1.
<mgrwt>
<rscale>  0 0.14464056E+04</rscale>
<asrwt>0</asrwt>
<pdfrwt beam="1">  1        2 0.51467747E-01 0.14464056E+04</pdfrwt>
<pdfrwt beam="2">  1       -2 0.24052394E+00 0.14464056E+04</pdfrwt>
<totfact> 0.69352962E+00</totfact>
</mgrwt>
</event>
<event>
12    1  0.1755460E-007  0.1196827E+04  0.7818608E-02  0.9115638E-01
         -2   -1    0    0    0  501 -0.00000000000E+00  0.00000000000E+00  0.34121613509E+03  0.34121613509E+03  0.00000000000E+00 0.  1.
          2   -1    0    0  501    0  0.00000000000E+00 -0.00000000000E+00 -0.10494780392E+04  0.10494780392E+04  0.00000000000E+00 0. -1.
         23    2    1    2    0    0  0.33854036289E+02  0.22682846729E+03 -0.13245508011E+03  0.28034086537E+03  0.91920635333E+02 0.  0.
        254    2    1    2    0    0 -0.33854036289E+02 -0.22682846729E+03 -0.57580682404E+03  0.11103533090E+04  0.92126745453E+03 0.  0.
        -24    2    4    4    0    0  0.30292555661E+03 -0.12691910077E+03 -0.65909046840E+03  0.74067565895E+03  0.79547691604E+02 0.  0.
         24    2    4    4    0    0 -0.33677959290E+03 -0.99909366525E+02  0.83283644366E+02  0.36967765001E+03  0.79517443274E+02 0.  0.
         13    1    3    3    0    0  0.12313537549E+02  0.95792538614E+02 -0.10875271255E+03  0.14544753744E+03  0.00000000000E+00 0. -1.
        -13    1    3    3    0    0  0.21540498740E+02  0.13103592868E+03 -0.23702367564E+02  0.13489332792E+03  0.00000000000E+00 0.  1.
          4    1    6    6  502    0 -0.77790573926E+02 -0.59747434089E+02  0.23263482382E+02  0.10080832746E+03  0.00000000000E+00 0. -1.
          1    1    5    5  503    0  0.40683820303E+01  0.57756669053E+01 -0.39162773015E+02  0.39794884731E+02  0.00000000000E+00 0. -1.
         -2    1    5    5    0  503  0.29885717458E+03 -0.13269476767E+03 -0.61992769539E+03  0.70088077422E+03  0.00000000000E+00 0.  1.
         -3    1    6    6    0  502 -0.25898901897E+03 -0.40161932436E+02  0.60020161984E+02  0.26886932255E+03  0.00000000000E+00 0.  1.
<mgrwt>
<rscale>  0 0.11968272E+04</rscale>
<asrwt>0</asrwt>
<pdfrwt beam="1">  1        2 0.16145816E+00 0.11968272E+04</pdfrwt>
<pdfrwt beam="2">  1       -2 0.52494791E-01 0.11968272E+04</pdfrwt>
<totfact> 0.79160887E+01</totfact>
</mgrwt>
</event>
<event>
12    1  0.1755460E-007  0.1900593E+04  0.7818608E-02  0.8654561E-01
         -2   -1    0    0    0  501 -0.00000000000E+00  0.00000000000E+00  0.12383788062E+04  0.12383788062E+04  0.00000000000E+00 0. -1.
          2   -1    0    0  501    0  0.00000000000E+00 -0.00000000000E+00 -0.72923024174E+03  0.72923024174E+03  0.00000000000E+00 0.  1.
         23    2    1    2    0    0  0.54935859276E+03  0.31106258863E+03  0.59959892828E+03  0.87993015367E+03  0.12729258839E+03 0.  0.
        254    2    1    2    0    0 -0.54935859276E+03 -0.31106258863E+03 -0.90450363807E+02  0.10876788943E+04  0.88108416809E+03 0.  0.
        -24    2    4    4    0    0 -0.57778520924E+03 -0.13455341706E+03  0.28602652465E+03  0.66320602304E+03  0.78042848108E+02 0.  0.
         24    2    4    4    0    0  0.28426616477E+02 -0.17650917157E+03 -0.37647688845E+03  0.42447287124E+03  0.80491059793E+02 0.  0.
         13    1    3    3    0    0  0.49518897510E+02  0.17547851676E+02  0.10694546684E+02  0.53613632947E+02  0.00000000000E+00 0.  1.
        -13    1    3    3    0    0  0.49983969525E+03  0.29351473695E+03  0.58890438159E+03  0.82631652072E+03  0.00000000000E+00 0. -1.
          2    1    6    6  502    0  0.40506961486E+01 -0.14416939974E+03 -0.34243513738E+03  0.37156836151E+03  0.00000000000E+00 0. -1.
          3    1    5    5  503    0 -0.46807927947E+03 -0.11745959877E+03  0.19848184708E+03  0.52181415546E+03  0.00000000000E+00 0. -1.
         -4    1    5    5    0  503 -0.10970592977E+03 -0.17093818296E+02  0.87544677562E+02  0.14139186759E+03  0.00000000000E+00 0.  1.
         -1    1    6    6    0  502  0.24375920328E+02 -0.32339771830E+02 -0.34041751072E+02  0.52904509731E+02  0.00000000000E+00 0.  1.
<mgrwt>
<rscale>  0 0.19005928E+04</rscale>
<asrwt>0</asrwt>
<pdfrwt beam="1">  1        2 0.11218927E+00 0.19005928E+04</pdfrwt>
<pdfrwt beam="2">  1       -2 0.19051982E+00 0.19005928E+04</pdfrwt>
<totfact> 0.55960093E+00</totfact>
</mgrwt>
</event>
<event>
12    1  0.1755460E-007  0.1126766E+04  0.7818608E-02  0.9179489E-01
          2   -1    0    0  501    0  0.00000000000E+00  0.00000000000E+00  0.87644013156E+03  0.87644013156E+03  0.00000000000E+00 0. -1.
         -2   -1    0    0    0  501 -0.00000000000E+00 -0.00000000000E+00 -0.36214737517E+03  0.36214737517E+03  0.00000000000E+00 0.  1.
         23    2    1    2    0    0 -0.11645099660E+03 -0.30143007903E+02 -0.11888631408E+03  0.19249317404E+03  0.91925137160E+02 0.  0.
        254    2    1    2    0    0  0.11645099660E+03  0.30143007903E+02  0.63317907046E+03  0.10460943327E+04  0.82397098376E+03 0.  0.
        -24    2    4    4    0    0 -0.21437537081E+03 -0.11843028857E+03 -0.55800498437E+02  0.26339947891E+03  0.79265736629E+02 0.  0.
         24    2    4    4    0    0  0.33082636741E+03  0.14857329647E+03  0.68897956890E+03  0.78269485378E+03  0.79989236620E+02 0.  0.
         13    1    3    3    0    0 -0.80638977281E+02 -0.17079104027E+01 -0.12244908467E+03  0.14662653222E+03  0.00000000000E+00 0.  1.
        -13    1    3    3    0    0 -0.35812019324E+02 -0.28435097500E+02  0.35627705875E+01  0.45866641823E+02  0.00000000000E+00 0. -1.
          4    1    6    6  502    0  0.23505712137E+03  0.68717916553E+02  0.41920789754E+03  0.48549898427E+03  0.00000000000E+00 0. -1.
          1    1    5    5  503    0 -0.15946820666E+03 -0.52840910123E+02 -0.15100301165E+02  0.16867213704E+03  0.00000000000E+00 0. -1.
         -2    1    5    5    0  503 -0.54907164150E+02 -0.65589378445E+02 -0.40700197273E+02  0.94727341870E+02  0.00000000000E+00 0.  1.
         -3    1    6    6    0  502  0.95769246041E+02  0.79855379918E+02  0.26977167136E+03  0.29719586952E+03  0.00000000000E+00 0.  1.
<mgrwt>
<rscale>  0 0.11267662E+04</rscale>
<asrwt>0</asrwt>
<pdfrwt beam="1">  1        2 0.13483694E+00 0.11267662E+04</pdfrwt>
<pdfrwt beam="2">  1       -2 0.55714981E-01 0.11267662E+04</pdfrwt>
<totfact> 0.91294752E+01</totfact>
</mgrwt>
</event>
<event>
12    1  0.1755460E-007  0.1760649E+04  0.7818608E-02  0.8727510E-01
          1   -1    0    0  501    0  0.00000000000E+00  0.00000000000E+00  0.84848479905E+03  0.84848479905E+03  0.00000000000E+00 0. -1.
         -1   -1    0    0    0  501 -0.00000000000E+00 -0.00000000000E+00 -0.91335883531E+03  0.91335883531E+03  0.00000000000E+00 0.  1.
         23    2    1    2    0    0  0.35990423630E+03  0.21552806862E+03  0.46390946513E+03  0.63247913347E+03  0.93991780363E+02 0.  0.
        254    2    1    2    0    0 -0.35990423630E+03 -0.21552806862E+03 -0.52878350138E+03  0.11293645009E+04  0.90546605506E+03 0.  0.
        -24    2    4    4    0    0 -0.88493905151E+02 -0.54731561154E+03 -0.26727280901E+03  0.62082404486E+03  0.81253863654E+02 0.  0.
         24    2    4    4    0    0 -0.27141033115E+03  0.33178754292E+03 -0.26151069237E+03  0.50854045603E+03  0.80492308299E+02 0.  0.
         11    1    3    3    0    0  0.32510522565E+03  0.15660048622E+03  0.40187791240E+03  0.54011385513E+03  0.00000000000E+00 0. -1.
        -11    1    3    3    0    0  0.34799010653E+02  0.58927582401E+02  0.62031552727E+02  0.92365278345E+02  0.00000000000E+00 0.  1.
          4    1    6    6  502    0 -0.13631515662E+03  0.16181628544E+03 -0.17591023896E+03  0.27515585462E+03  0.00000000000E+00 0. -1.
          1    1    5    5  503    0 -0.26984466743E+02 -0.64814522017E+02 -0.11088681823E+02  0.71077722067E+02  0.00000000000E+00 0. -1.
         -2    1    5    5    0  503 -0.61509438408E+02 -0.48250108952E+03 -0.25618412718E+03  0.54974632279E+03  0.00000000000E+00 0.  1.
         -3    1    6    6    0  502 -0.13509517453E+03  0.16997125748E+03 -0.85600453415E+02  0.23338460141E+03  0.00000000000E+00 0.  1.
<mgrwt>
<rscale>  0 0.17606488E+04</rscale>
<asrwt>0</asrwt>
<pdfrwt beam="1">  1        1 0.13053612E+00 0.17606488E+04</pdfrwt>
<pdfrwt beam="2">  1       -1 0.14051674E+00 0.17606488E+04</pdfrwt>
<totfact> 0.78958650E+00</totfact>
</mgrwt>
</event>
<event>
12    1  0.1755460E-007  0.2188968E+04  0.7818608E-02  0.8523034E-01
         -1   -1    0    0    0  501 -0.00000000000E+00  0.00000000000E+00  0.10734628418E+04  0.10734628418E+04  0.00000000000E+00 0.  1.
          1   -1    0    0  501    0  0.00000000000E+00 -0.00000000000E+00 -0.11159170767E+04  0.11159170767E+04  0.00000000000E+00 0. -1.
         23    2    1    2    0    0  0.12776759553E+03 -0.22614135470E+03  0.85191021104E+03  0.89541696013E+03  0.92498940790E+02 0.  0.
        254    2    1    2    0    0 -0.12776759553E+03  0.22614135470E+03 -0.89436444586E+03  0.12939629584E+04  0.89832505521E+03 0.  0.
        -24    2    4    4    0    0 -0.40840433879E+03  0.11821855431E+03 -0.88202193382E+03  0.98232875766E+03  0.78976995777E+02 0.  0.
         24    2    4    4    0    0  0.28063674326E+03  0.10792280040E+03 -0.12342512047E+02  0.31163420071E+03  0.80989042052E+02 0.  0.
         13    1    3    3    0    0 -0.64973575362E+01 -0.12707157026E+02  0.12567037644E+02  0.19016254357E+02  0.00000000000E+00 0. -1.
        -13    1    3    3    0    0  0.13426495307E+03 -0.21343419768E+03  0.83934317339E+03  0.87640070577E+03  0.00000000000E+00 0.  1.
          4    1    6    6  502    0  0.62204700891E+02  0.49855003891E+02  0.22766097781E+02  0.82905014529E+02  0.00000000000E+00 0. -1.
          3    1    5    5  503    0 -0.48724711466E+02  0.39718379958E+01 -0.16454037226E+03  0.17164908129E+03  0.00000000000E+00 0. -1.
         -4    1    5    5    0  503 -0.35967962733E+03  0.11424671631E+03 -0.71748156156E+03  0.81067967637E+03  0.00000000000E+00 0.  1.
         -3    1    6    6    0  502  0.21843204237E+03  0.58067796505E+02 -0.35108609829E+02  0.22872918618E+03  0.00000000000E+00 0.  1.
<mgrwt>
<rscale>  0 0.21889683E+04</rscale>
<asrwt>0</asrwt>
<pdfrwt beam="1">  1        1 0.17167955E+00 0.21889683E+04</pdfrwt>
<pdfrwt beam="2">  1       -1 0.16514813E+00 0.21889683E+04</pdfrwt>
<totfact> 0.30089654E+00</totfact>
</mgrwt>
</event>
<event>
12    1  0.3357790E-007  0.2051174E+04  0.7818608E-02  0.8583062E-01
         -1   -1    0    0    0  501 -0.00000000000E+00  0.00000000000E+00  0.13237076282E+04  0.13237076282E+04  0.00000000000E+00 0.  1.
          1   -1    0    0  501    0  0.00000000000E+00 -0.00000000000E+00 -0.79460799612E+03  0.79460799612E+03  0.00000000000E+00 0. -1.
         23    2    1    2    0    0 -0.26393360642E+03  0.78171054505E+03  0.19486515926E+03  0.85266717711E+03  0.91304763219E+02 0.  0.
        254    2    1    2    0    0  0.26393360642E+03 -0.78171054505E+03  0.33423447279E+03  0.12656484472E+04  0.89967826707E+03 0.  0.
        -24    2    4    4    0    0  0.32282586009E+03  0.75051903743E+02  0.25627154062E+01  0.34143660534E+03  0.81994290973E+02 0.  0.
         24    2    4    4    0    0 -0.58892253674E+02 -0.85676244879E+03  0.33167175738E+03  0.92421184185E+03  0.81554783899E+02 0.  0.
         11    1    3    3    0    0 -0.24611495881E+03  0.77023975570E+03  0.18616093892E+03  0.82975764498E+03  0.00000000000E+00 0.  1.
        -11    1    3    3    0    0 -0.17818647607E+02  0.11470789344E+02  0.87042203409E+01  0.22909532131E+02  0.00000000000E+00 0. -1.
          2    1    6    6  502    0 -0.66729310380E+02 -0.83353952320E+03  0.31106189834E+03  0.89218856875E+03  0.00000000000E+00 0. -1.
          3    1    5    5  503    0  0.32761637361E+03  0.76440198511E+02  0.30069242525E+01  0.33642924040E+03  0.00000000000E+00 0. -1.
         -4    1    5    5    0  503 -0.47905135132E+01 -0.13882947679E+01 -0.44420884634E+00  0.50073649339E+01  0.00000000000E+00 0.  1.
         -1    1    6    6    0  502  0.78370567053E+01 -0.23222925588E+02  0.20609859044E+02  0.32023273107E+02  0.00000000000E+00 0.  1.
<mgrwt>
<rscale>  0 0.20511740E+04</rscale>
<asrwt>0</asrwt>
<pdfrwt beam="1">  1        1 0.12224738E+00 0.20511740E+04</pdfrwt>
<pdfrwt beam="2">  1       -1 0.20364733E+00 0.20511740E+04</pdfrwt>
<totfact> 0.29320161E+00</totfact>
</mgrwt>
</event>
<event>
12    1  0.1755460E-007  0.2672053E+04  0.7818608E-02  0.8344130E-01
         -2   -1    0    0    0  501 -0.00000000000E+00  0.00000000000E+00  0.83778887424E+03  0.83778887424E+03  0.00000000000E+00 0. -1.
          2   -1    0    0  501    0  0.00000000000E+00 -0.00000000000E+00 -0.21305687284E+04  0.21305687284E+04  0.00000000000E+00 0.  1.
         23    2    1    2    0    0 -0.36414287341E+03  0.11185770064E+04 -0.78252216988E+03  0.14155103003E+04  0.86682826390E+02 0.  0.
        254    2    1    2    0    0  0.36414287341E+03 -0.11185770064E+04 -0.51025768424E+03  0.15528473023E+04  0.87587515564E+03 0.  0.
        -24    2    4    4    0    0 -0.72956771914E+02  0.10875078799E+03 -0.85376513260E+02  0.18013166211E+03  0.89492134965E+02 0.  0.
         24    2    4    4    0    0  0.43709964532E+03 -0.12273277944E+04 -0.42488117098E+03  0.13727156402E+04  0.80215985961E+02 0.  0.
         11    1    3    3    0    0 -0.45458894647E+02  0.18364461213E+03 -0.16155318981E+03  0.24877959684E+03  0.00000000000E+00 0.  1.
        -11    1    3    3    0    0 -0.31868397876E+03  0.93493239431E+03 -0.62096898007E+03  0.11667307035E+04  0.00000000000E+00 0. -1.
          2    1    6    6  502    0  0.37124584196E+03 -0.10497838552E+04 -0.39223652186E+03  0.11805588113E+04  0.00000000000E+00 0. -1.
          3    1    5    5  503    0 -0.28259693373E+02  0.10238020674E+03 -0.83223889380E+02  0.13493158550E+03  0.00000000000E+00 0. -1.
         -4    1    5    5    0  503 -0.44697078540E+02  0.63705812430E+01 -0.21526238800E+01  0.45200076604E+02  0.00000000000E+00 0.  1.
         -1    1    6    6    0  502  0.65853803355E+02 -0.17754393920E+03 -0.32644649118E+02  0.19215682886E+03  0.00000000000E+00 0.  1.
<mgrwt>
<rscale>  0 0.26720530E+04</rscale>
<asrwt>0</asrwt>
<pdfrwt beam="1">  1        2 0.32777980E+00 0.26720530E+04</pdfrwt>
<pdfrwt beam="2">  1       -2 0.12889060E+00 0.26720530E+04</pdfrwt>
<totfact> 0.22044715E+00</totfact>
</mgrwt>
</event>
<event>
12    1  0.1755460E-007  0.1373304E+04  0.7818608E-02  0.8973372E-01
         -2   -1    0    0    0  501 -0.00000000000E+00  0.00000000000E+00  0.47136979991E+03  0.47136979991E+03  0.00000000000E+00 0.  1.
          2   -1    0    0  501    0  0.00000000000E+00 -0.00000000000E+00 -0.10002574797E+04  0.10002574797E+04  0.00000000000E+00 0. -1.
         23    2    1    2    0    0  0.27725363094E+03  0.24577349071E+03 -0.26005794559E+03  0.46236175114E+03  0.94202278387E+02 0.  0.
        254    2    1    2    0    0 -0.27725363094E+03 -0.24577349071E+03 -0.26882973423E+03  0.10092655285E+04  0.89948501732E+03 0.  0.
        -24    2    4    4    0    0 -0.32906797201E+02  0.32439753720E+03 -0.16853506008E+03  0.37571592777E+03  0.80260653236E+02 0.  0.
         24    2    4    4    0    0 -0.24434683374E+03 -0.57017102791E+03 -0.10029467415E+03  0.63354960072E+03  0.80781796759E+02 0.  0.
         13    1    3    3    0    0  0.22429812695E+03  0.14752967876E+03 -0.16038907374E+03  0.31272881358E+03  0.00000000000E+00 0. -1.
        -13    1    3    3    0    0  0.52955503992E+02  0.98243811945E+02 -0.99668871847E+02  0.14963293756E+03  0.00000000000E+00 0.  1.
          2    1    6    6  502    0 -0.24879920775E+03 -0.55962951150E+03 -0.10462348787E+03  0.62131498464E+03  0.00000000000E+00 0. -1.
          1    1    5    5  503    0 -0.12572769065E+02  0.30600140815E+03 -0.16553067288E+03  0.34813121086E+03  0.00000000000E+00 0. -1.
         -2    1    5    5    0  503 -0.20334028136E+02  0.18396129054E+02 -0.30043871969E+01  0.27584716907E+02  0.00000000000E+00 0.  1.
         -1    1    6    6    0  502  0.44523740121E+01 -0.10541516407E+02  0.43288137207E+01  0.12234616084E+02  0.00000000000E+00 0.  1.
<mgrwt>
<rscale>  0 0.13733043E+04</rscale>
<asrwt>0</asrwt>
<pdfrwt beam="1">  1        2 0.15388576E+00 0.13733043E+04</pdfrwt>
<pdfrwt beam="2">  1       -2 0.72518432E-01 0.13733043E+04</pdfrwt>
<totfact> 0.42246450E+01</totfact>
</mgrwt>
</event>
<event>
12    1  0.1755460E-007  0.1294790E+04  0.7818608E-02  0.9033707E-01
         -2   -1    0    0    0  501 -0.00000000000E+00  0.00000000000E+00  0.19267726650E+03  0.19267726650E+03  0.00000000000E+00 0.  1.
          2   -1    0    0  501    0  0.00000000000E+00 -0.00000000000E+00 -0.21752467708E+04  0.21752467708E+04  0.00000000000E+00 0. -1.
         23    2    1    2    0    0  0.14763147358E+03  0.26807982338E+03 -0.29873328164E+03  0.43779275449E+03  0.93589949380E+02 0.  0.
        254    2    1    2    0    0 -0.14763147358E+03 -0.26807982338E+03 -0.16838362226E+04  0.19301312828E+04  0.89243515197E+03 0.  0.
        -24    2    4    4    0    0  0.40574791434E+01 -0.20540963793E+03  0.15674748714E+02  0.22089737678E+03  0.79626445537E+02 0.  0.
         24    2    4    4    0    0 -0.15168895272E+03 -0.62670185454E+02 -0.16995109713E+04  0.17092339060E+04  0.78777618806E+02 0.  0.
         11    1    3    3    0    0  0.15727558240E+02  0.50845719844E+02 -0.10676178809E+03  0.11929259286E+03  0.00000000000E+00 0. -1.
        -11    1    3    3    0    0  0.13190391534E+03  0.21723410354E+03 -0.19197149356E+03  0.31850016163E+03  0.00000000000E+00 0.  1.
          4    1    6    6  502    0 -0.80002021851E+02 -0.42259113663E+02 -0.12768072196E+04  0.12800089188E+04  0.00000000000E+00 0. -1.
          1    1    5    5  503    0 -0.16729723282E+02 -0.19136875862E+03  0.25844471830E+02  0.19382936347E+03  0.00000000000E+00 0. -1.
         -2    1    5    5    0  503  0.20787202426E+02 -0.14040879308E+02 -0.10169723115E+02  0.27068013312E+02  0.00000000000E+00 0.  1.
         -3    1    6    6    0  502 -0.71686930870E+02 -0.20411071791E+02 -0.42270375177E+03  0.42922498724E+03  0.00000000000E+00 0.  1.
<mgrwt>
<rscale>  0 0.12947905E+04</rscale>
<asrwt>0</asrwt>
<pdfrwt beam="1">  1        2 0.33465332E+00 0.12947905E+04</pdfrwt>
<pdfrwt beam="2">  1       -2 0.29642659E-01 0.12947905E+04</pdfrwt>
<totfact> 0.54933101E+01</totfact>
</mgrwt>
</event>
<event>
12    1  0.1755460E-007  0.1587725E+04  0.7818608E-02  0.8828125E-01
         -2   -1    0    0    0  501 -0.00000000000E+00  0.00000000000E+00  0.46581722423E+03  0.46581722423E+03  0.00000000000E+00 0.  1.
          2   -1    0    0  501    0  0.00000000000E+00 -0.00000000000E+00 -0.13529295460E+04  0.13529295460E+04  0.00000000000E+00 0. -1.
         23    2    1    2    0    0 -0.26351492092E+03 -0.14849657456E+03 -0.80901177800E+03  0.86869920412E+03  0.92988731001E+02 0.  0.
        254    2    1    2    0    0  0.26351492092E+03  0.14849657456E+03 -0.78100543814E+02  0.95004756616E+03  0.89721755267E+03 0.  0.
        -24    2    4    4    0    0  0.72053909306E+02  0.18127590998E+03  0.38658780404E+03  0.44023408045E+03  0.79392656904E+02 0.  0.
         24    2    4    4    0    0  0.19146101161E+03 -0.32779335426E+02 -0.46468834786E+03  0.50981348571E+03  0.79010921886E+02 0.  0.
         11    1    3    3    0    0 -0.20524438044E+03 -0.91182272783E+02 -0.48401252613E+03  0.53357997341E+03  0.00000000000E+00 0. -1.
        -11    1    3    3    0    0 -0.58270540473E+02 -0.57314301775E+02 -0.32499925187E+03  0.33511923070E+03  0.00000000000E+00 0.  1.
          2    1    6    6  502    0  0.16799384396E+03 -0.56818101881E+01 -0.32877302868E+03  0.36925048269E+03  0.00000000000E+00 0. -1.
          1    1    5    5  503    0  0.88608791669E+02  0.16555432196E+03  0.34529182765E+03  0.39304732250E+03  0.00000000000E+00 0. -1.
         -2    1    5    5    0  503 -0.16554882363E+02  0.15721588027E+02  0.41295976387E+02  0.47186757951E+02  0.00000000000E+00 0.  1.
         -1    1    6    6    0  502  0.23467167647E+02 -0.27097525238E+02 -0.13591531917E+03  0.14056300302E+03  0.00000000000E+00 0.  1.
<mgrwt>
<rscale>  0 0.15877253E+04</rscale>
<asrwt>0</asrwt>
<pdfrwt beam="1">  1        2 0.20814301E+00 0.15877253E+04</pdfrwt>
<pdfrwt beam="2">  1       -2 0.71664189E-01 0.15877253E+04</pdfrwt>
<totfact> 0.26101050E+01</totfact>
</mgrwt>
</event>
<event>
12    1  0.1755460E-007  0.1619634E+04  0.7818608E-02  0.8808576E-01
         -1   -1    0    0    0  501 -0.00000000000E+00  0.00000000000E+00  0.20543907984E+04  0.20543907984E+04  0.00000000000E+00 0.  1.
          1   -1    0    0  501    0  0.00000000000E+00 -0.00000000000E+00 -0.31922059800E+03  0.31922059800E+03  0.00000000000E+00 0. -1.
         23    2    1    2    0    0  0.23419731284E+03  0.95616160976E+02 -0.12289386784E+03  0.29293324835E+03  0.81952142474E+02 0.  0.
        254    2    1    2    0    0 -0.23419731284E+03 -0.95616160976E+02  0.18580640682E+04  0.20806781480E+04  0.90157009848E+03 0.  0.
        -24    2    4    4    0    0 -0.26070590156E+02  0.24296640333E+03  0.97627596519E+02  0.27415484743E+03  0.76924534098E+02 0.  0.
         24    2    4    4    0    0 -0.20812672268E+03 -0.33858256431E+03  0.17604364717E+04  0.18065233006E+04  0.80218321804E+02 0.  0.
         11    1    3    3    0    0  0.20949970992E+03  0.52207379755E+02 -0.10218342872E+03  0.23886647329E+03  0.00000000000E+00 0. -1.
        -11    1    3    3    0    0  0.24697602922E+02  0.43408781221E+02 -0.20710439121E+02  0.54066775064E+02  0.00000000000E+00 0.  1.
          2    1    6    6  502    0 -0.21226915755E+01  0.84895038217E+00  0.48230907864E+00  0.23364841800E+01  0.00000000000E+00 0. -1.
          3    1    5    5  503    0 -0.31715383115E+01  0.63161429568E+02  0.63677579317E+02  0.89745523276E+02  0.00000000000E+00 0. -1.
         -4    1    5    5    0  503 -0.22899051845E+02  0.17980497377E+03  0.33950017202E+02  0.18440932415E+03  0.00000000000E+00 0.  1.
         -1    1    6    6    0  502 -0.20600403111E+03 -0.33943151469E+03  0.17599541626E+04  0.18041868164E+04  0.00000000000E+00 0.  1.
<mgrwt>
<rscale>  0 0.16196344E+04</rscale>
<asrwt>0</asrwt>
<pdfrwt beam="1">  1        1 0.49110863E-01 0.16196344E+04</pdfrwt>
<pdfrwt beam="2">  1       -1 0.31606011E+00 0.16196344E+04</pdfrwt>
<totfact> 0.20157864E+00</totfact>
</mgrwt>
</event>
<event>
12    1  0.1755460E-007  0.1670710E+04  0.7818608E-02  0.8778248E-01
         -1   -1    0    0    0  501 -0.00000000000E+00  0.00000000000E+00  0.84242103836E+03  0.84242103836E+03  0.00000000000E+00 0.  1.
          1   -1    0    0  501    0  0.00000000000E+00 -0.00000000000E+00 -0.82834778386E+03  0.82834778386E+03  0.00000000000E+00 0. -1.
         23    2    1    2    0    0  0.47007233906E+03 -0.33744387891E+02  0.35020456703E+03  0.59419807363E+03  0.91221840946E+02 0.  0.
        254    2    1    2    0    0 -0.47007233906E+03  0.33744387891E+02 -0.33613131253E+03  0.10765707486E+04  0.90769688212E+03 0.  0.
        -24    2    4    4    0    0 -0.12967036181E+03  0.43807694265E+03 -0.26905143851E+03  0.53775885391E+03  0.89833724067E+02 0.  0.
         24    2    4    4    0    0 -0.34040197725E+03 -0.40433255476E+03 -0.67079874019E+02  0.53881189469E+03  0.80375539850E+02 0.  0.
         13    1    3    3    0    0  0.18510456170E+02  0.17279716456E+02  0.23138444430E+02  0.34301795858E+02  0.00000000000E+00 0. -1.
        -13    1    3    3    0    0  0.45156188289E+03 -0.51024104347E+02  0.32706612260E+03  0.55989627777E+03  0.00000000000E+00 0.  1.
          4    1    6    6  502    0 -0.21536473371E+03 -0.19459081841E+03 -0.43423309435E+02  0.29348447819E+03  0.00000000000E+00 0. -1.
          3    1    5    5  503    0 -0.78549449731E+02  0.37649790406E+03 -0.23549719540E+03  0.45097629301E+03  0.00000000000E+00 0. -1.
         -4    1    5    5    0  503 -0.51120912082E+02  0.61579038590E+02 -0.33554243107E+02  0.86782560900E+02  0.00000000000E+00 0.  1.
         -3    1    6    6    0  502 -0.12503724354E+03 -0.20974173635E+03 -0.23656564584E+02  0.24532741650E+03  0.00000000000E+00 0.  1.
<mgrwt>
<rscale>  0 0.16707096E+04</rscale>
<asrwt>0</asrwt>
<pdfrwt beam="1">  1        1 0.12743812E+00 0.16707096E+04</pdfrwt>
<pdfrwt beam="2">  1       -1 0.12960324E+00 0.16707096E+04</pdfrwt>
<totfact> 0.10189520E+01</totfact>
</mgrwt>
</event>
<event>
12    1  0.1755460E-007  0.1684943E+04  0.7818608E-02  0.8769999E-01
         -1   -1    0    0    0  501 -0.00000000000E+00  0.00000000000E+00  0.45039976659E+03  0.45039976659E+03  0.00000000000E+00 0.  1.
          1   -1    0    0  501    0  0.00000000000E+00 -0.00000000000E+00 -0.15758400689E+04  0.15758400689E+04  0.00000000000E+00 0. -1.
         23    2    1    2    0    0  0.80203485579E+02 -0.13539817912E+02 -0.11110310377E+04  0.11176272565E+04  0.89915472211E+02 0.  0.
        254    2    1    2    0    0 -0.80203485579E+02  0.13539817912E+02 -0.14409264620E+02  0.90861257892E+03  0.90484985821E+03 0.  0.
        -24    2    4    4    0    0 -0.10804024628E+03  0.77652086157E+02 -0.44237188940E+03  0.46884687684E+03  0.80137158000E+02 0.  0.
         24    2    4    4    0    0  0.27836760697E+02 -0.64112268245E+02  0.42796262478E+03  0.43976570208E+03  0.73188771898E+02 0.  0.
         13    1    3    3    0    0  0.98707674458E+02 -0.76523210840E+01 -0.10021239934E+04  0.10070026123E+04  0.00000000000E+00 0. -1.
        -13    1    3    3    0    0 -0.18504188879E+02 -0.58874968284E+01 -0.10890704428E+03  0.11062464427E+03  0.00000000000E+00 0.  1.
          4    1    6    6  502    0  0.46470993355E+02 -0.66450986945E+02  0.31595332224E+03  0.32619287044E+03  0.00000000000E+00 0. -1.
          1    1    5    5  503    0 -0.87027928660E+02  0.28972901329E+02 -0.35489116778E+03  0.36655290252E+03  0.00000000000E+00 0. -1.
         -2    1    5    5    0  503 -0.21012317615E+02  0.48679184828E+02 -0.87480721625E+02  0.10229397432E+03  0.00000000000E+00 0.  1.
         -3    1    6    6    0  502 -0.18634232659E+02  0.23387187006E+01  0.11200930254E+03  0.11357283164E+03  0.00000000000E+00 0.  1.
<mgrwt>
<rscale>  0 0.16849427E+04</rscale>
<asrwt>0</asrwt>
<pdfrwt beam="1">  1        1 0.24243694E+00 0.16849427E+04</pdfrwt>
<pdfrwt beam="2">  1       -1 0.69292271E-01 0.16849427E+04</pdfrwt>
<totfact> 0.11637730E+01</totfact>
</mgrwt>
</event>
<event>
12    1  0.1755460E-007  0.2295013E+04  0.7818608E-02  0.8479890E-01
          2   -1    0    0  501    0  0.00000000000E+00  0.00000000000E+00  0.11339033272E+04  0.11339033272E+04  0.00000000000E+00 0. -1.
         -2   -1    0    0    0  501 -0.00000000000E+00 -0.00000000000E+00 -0.11612733026E+04  0.11612733026E+04  0.00000000000E+00 0.  1.
         23    2    1    2    0    0  0.87093513422E+03 -0.20841575185E+03  0.35977789806E+03  0.96941136589E+03  0.91395441613E+02 0.  0.
        254    2    1    2    0    0 -0.87093513422E+03  0.20841575185E+03 -0.38714787350E+03  0.13257652639E+04  0.89766637752E+03 0.  0.
        -24    2    4    4    0    0 -0.79329700228E+03  0.50875030747E+03 -0.25861195182E+03  0.98044723601E+03  0.79054612779E+02 0.  0.
         24    2    4    4    0    0 -0.77638131939E+02 -0.30033455561E+03 -0.12853592168E+03  0.34531802788E+03  0.80588661664E+02 0.  0.
         13    1    3    3    0    0  0.41590273673E+03 -0.54090186046E+02  0.15559862458E+03  0.44733853692E+03  0.00000000000E+00 0. -1.
        -13    1    3    3    0    0  0.45503239749E+03 -0.15432556581E+03  0.20417927349E+03  0.52207282897E+03  0.00000000000E+00 0.  1.
          2    1    6    6  502    0 -0.40415493090E+02 -0.74042311202E+02 -0.42254818548E+01  0.84460231037E+02  0.00000000000E+00 0. -1.
          3    1    5    5  503    0 -0.64822088738E+03  0.43257274425E+03 -0.24061946891E+03  0.81560237047E+03  0.00000000000E+00 0. -1.
         -4    1    5    5    0  503 -0.14507611491E+03  0.76177563216E+02 -0.17992482907E+02  0.16484486554E+03  0.00000000000E+00 0.  1.
         -1    1    6    6    0  502 -0.37222638849E+02 -0.22629224441E+03 -0.12431043982E+03  0.26085779684E+03  0.00000000000E+00 0.  1.
<mgrwt>
<rscale>  0 0.22950134E+04</rscale>
<asrwt>0</asrwt>
<pdfrwt beam="1">  1        2 0.17444667E+00 0.22950134E+04</pdfrwt>
<pdfrwt beam="2">  1       -2 0.17865743E+00 0.22950134E+04</pdfrwt>
<totfact> 0.34889681E+00</totfact>
</mgrwt>
</event>
<event>
12    1  0.1755460E-007  0.2454518E+04  0.7818608E-02  0.8419370E-01
          1   -1    0    0  501    0  0.00000000000E+00  0.00000000000E+00  0.12932475980E+04  0.12932475980E+04  0.00000000000E+00 0. -1.
         -1   -1    0    0    0  501 -0.00000000000E+00 -0.00000000000E+00 -0.11646370678E+04  0.11646370678E+04  0.00000000000E+00 0.  1.
         23    2    1    2    0    0 -0.87658941984E+03  0.59526735122E+03  0.83464477818E+02  0.10663825909E+04  0.86332385308E+02 0.  0.
        254    2    1    2    0    0  0.87658941984E+03 -0.59526735122E+03  0.45146052360E+02  0.13915020749E+04  0.90082608090E+03 0.  0.
        -24    2    4    4    0    0  0.59926311521E+03 -0.81942778226E+03 -0.26860702813E+02  0.10190345587E+04  0.84449765673E+02 0.  0.
         24    2    4    4    0    0  0.27732630463E+03  0.22416043103E+03  0.72006755173E+02  0.37246751619E+03  0.79933095442E+02 0.  0.
         13    1    3    3    0    0 -0.76381567795E+03  0.49364063530E+03  0.93505096332E+02  0.91424212862E+03  0.00000000000E+00 0. -1.
        -13    1    3    3    0    0 -0.11277374189E+03  0.10162671593E+03 -0.10040618514E+02  0.15214046231E+03  0.00000000000E+00 0.  1.
          4    1    6    6  502    0  0.14075583248E+03  0.16278545125E+03  0.52145969534E+02  0.22142833977E+03  0.00000000000E+00 0. -1.
          3    1    5    5  503    0  0.10793520072E+03 -0.11969059832E+03 -0.30447589361E+02  0.16402104309E+03  0.00000000000E+00 0. -1.
         -4    1    5    5    0  503  0.49132791450E+03 -0.69973718394E+03  0.35868865480E+01  0.85501351563E+03  0.00000000000E+00 0.  1.
         -3    1    6    6    0  502  0.13657047215E+03  0.61374979781E+02  0.19860785639E+02  0.15103917642E+03  0.00000000000E+00 0.  1.
<mgrwt>
<rscale>  0 0.24545175E+04</rscale>
<asrwt>0</asrwt>
<pdfrwt beam="1">  1        1 0.19896117E+00 0.24545175E+04</pdfrwt>
<pdfrwt beam="2">  1       -1 0.17917493E+00 0.24545175E+04</pdfrwt>
<totfact> 0.17212830E+00</totfact>
</mgrwt>
</event>
<event>
12    1  0.1755460E-007  0.3554161E+04  0.7818608E-02  0.8101073E-01
         -2   -1    0    0    0  501 -0.00000000000E+00  0.00000000000E+00  0.89455703774E+03  0.89455703774E+03  0.00000000000E+00 0.  1.
          2   -1    0    0  501    0  0.00000000000E+00 -0.00000000000E+00 -0.35302561828E+04  0.35302561828E+04  0.00000000000E+00 0. -1.
         23    2    1    2    0    0 -0.63358488178E+03  0.13482293730E+04 -0.21573508311E+04  0.26232995330E+04  0.91572849394E+02 0.  0.
        254    2    1    2    0    0  0.63358488178E+03 -0.13482293730E+04 -0.47834831401E+03  0.18015136876E+04  0.89301859565E+03 0.  0.
        -24    2    4    4    0    0  0.73431429734E+03 -0.11648000446E+04 -0.12742183203E+03  0.13850794605E+04  0.78944015803E+02 0.  0.
         24    2    4    4    0    0 -0.10072941556E+03 -0.18342932849E+03 -0.35092648198E+03  0.41643422703E+03  0.80469472315E+02 0.  0.
         11    1    3    3    0    0 -0.30176135973E+03  0.60193957165E+03 -0.10494663204E+04  0.12469044565E+04  0.00000000000E+00 0. -1.
        -11    1    3    3    0    0 -0.33182352205E+03  0.74628980140E+03 -0.11078845107E+04  0.13763950765E+04  0.00000000000E+00 0.  1.
          2    1    6    6  502    0 -0.97998197206E+02 -0.11332374958E+03 -0.27424588826E+03  0.31250076177E+03  0.00000000000E+00 0. -1.
          1    1    5    5  503    0  0.40271548876E+03 -0.63057320361E+03 -0.10846314417E+03  0.75602022701E+03  0.00000000000E+00 0. -1.
         -2    1    5    5    0  503  0.33159880858E+03 -0.53422684094E+03 -0.18958687864E+02  0.62905923352E+03  0.00000000000E+00 0.  1.
         -1    1    6    6    0  502 -0.27312183524E+01 -0.70105578915E+02 -0.76680593715E+02  0.10393346526E+03  0.00000000000E+00 0.  1.
<mgrwt>
<rscale>  0 0.35541612E+04</rscale>
<asrwt>0</asrwt>
<pdfrwt beam="1">  1        2 0.54311634E+00 0.35541612E+04</pdfrwt>
<pdfrwt beam="2">  1       -2 0.13762416E+00 0.35541612E+04</pdfrwt>
<totfact> 0.23737311E-01</totfact>
</mgrwt>
</event>
<event>
12    1  0.1755460E-007  0.2644950E+04  0.7818608E-02  0.8353091E-01
          1   -1    0    0  501    0  0.00000000000E+00  0.00000000000E+00  0.21232185314E+04  0.21232185314E+04  0.00000000000E+00 0. -1.
         -1   -1    0    0    0  501 -0.00000000000E+00 -0.00000000000E+00 -0.82372122474E+03  0.82372122474E+03  0.00000000000E+00 0.  1.
         23    2    1    2    0    0 -0.17198140816E+03 -0.10787014866E+04  0.10327102552E+04  0.15060639531E+04  0.92540033662E+02 0.  0.
        254    2    1    2    0    0  0.17198140816E+03  0.10787014866E+04  0.26678705152E+03  0.14408758031E+04  0.90098459874E+03 0.  0.
        -24    2    4    4    0    0  0.40472497363E+02  0.27706170665E+03  0.51063460180E+03  0.58869889272E+03  0.86124778051E+02 0.  0.
         24    2    4    4    0    0  0.13150891080E+03  0.80163977990E+03 -0.24384755028E+03  0.85217691035E+03  0.82601019481E+02 0.  0.
         11    1    3    3    0    0 -0.39262217360E+02 -0.47114174045E+03  0.40622515030E+03  0.62332570462E+03  0.00000000000E+00 0.  1.
        -11    1    3    3    0    0 -0.13271919080E+03 -0.60755974611E+03  0.62648510486E+03  0.88273824847E+03  0.00000000000E+00 0. -1.
          2    1    6    6  502    0 -0.10842066788E+02  0.68332587267E+02 -0.27817923293E+02  0.74570300731E+02  0.00000000000E+00 0. -1.
          3    1    5    5  503    0 -0.26287923181E+02  0.53515528841E+02  0.10690996631E+03  0.12241204037E+03  0.00000000000E+00 0. -1.
         -4    1    5    5    0  503  0.66760420544E+02  0.22354617781E+03  0.40372463549E+03  0.46628685234E+03  0.00000000000E+00 0.  1.
         -1    1    6    6    0  502  0.14235097759E+03  0.73330719263E+03 -0.21602962699E+03  0.77760660962E+03  0.00000000000E+00 0.  1.
<mgrwt>
<rscale>  0 0.26449500E+04</rscale>
<asrwt>0</asrwt>
<pdfrwt beam="1">  1        1 0.32664900E+00 0.26449500E+04</pdfrwt>
<pdfrwt beam="2">  1       -1 0.12672634E+00 0.26449500E+04</pdfrwt>
<totfact> 0.11656123E+00</totfact>
</mgrwt>
</event>
<event>
12    1  0.1755460E-007  0.1909330E+04  0.7818608E-02  0.8650226E-01
         -1   -1    0    0    0  501 -0.00000000000E+00  0.00000000000E+00  0.62389306690E+03  0.62389306690E+03  0.00000000000E+00 0.  1.
          1   -1    0    0  501    0  0.00000000000E+00 -0.00000000000E+00 -0.14608040018E+04  0.14608040018E+04  0.00000000000E+00 0. -1.
         23    2    1    2    0    0  0.68527743070E+03 -0.61812552639E+02 -0.62379852130E+03  0.93304053440E+03  0.89521477729E+02 0.  0.
        254    2    1    2    0    0 -0.68527743070E+03  0.61812552639E+02 -0.21311241361E+03  0.11516565343E+04  0.89859330261E+03 0.  0.
        -24    2    4    4    0    0 -0.91543146253E+02  0.91722990539E+02 -0.47390667059E+03  0.49787023393E+03  0.80585251650E+02 0.  0.
         24    2    4    4    0    0 -0.59373428445E+03 -0.29910437900E+02  0.26079425699E+03  0.65378630038E+03  0.77510304242E+02 0.  0.
         13    1    3    3    0    0  0.16303076148E+02 -0.97779969499E+01 -0.37248875154E+02  0.41819591299E+02  0.00000000000E+00 0.  1.
        -13    1    3    3    0    0  0.66897435455E+03 -0.52034555689E+02 -0.58654964614E+03  0.89122094310E+03  0.00000000000E+00 0. -1.
          4    1    6    6  502    0 -0.30166015961E+02  0.39642275863E+01 -0.30779952337E+01  0.30580674845E+02  0.00000000000E+00 0. -1.
          1    1    5    5  503    0 -0.77537173589E+01  0.14820080555E+01  0.33540869019E+00  0.79012011585E+01  0.00000000000E+00 0. -1.
         -2    1    5    5    0  503 -0.83789428894E+02  0.90240982484E+02 -0.47424207928E+03  0.48996903277E+03  0.00000000000E+00 0.  1.
         -3    1    6    6    0  502 -0.56356826849E+03 -0.33874665486E+02  0.26387225222E+03  0.62320562553E+03  0.00000000000E+00 0.  1.
<mgrwt>
<rscale>  0 0.19093302E+04</rscale>
<asrwt>0</asrwt>
<pdfrwt beam="1">  1        1 0.22473907E+00 0.19093302E+04</pdfrwt>
<pdfrwt beam="2">  1       -1 0.95983550E-01 0.19093302E+04</pdfrwt>
<totfact> 0.68125178E+00</totfact>
</mgrwt>
</event>
<event>
12    1  0.1755460E-007  0.1536028E+04  0.7818608E-02  0.8860842E-01
          2   -1    0    0  501    0  0.00000000000E+00  0.00000000000E+00  0.17053228179E+04  0.17053228179E+04  0.00000000000E+00 0. -1.
         -2   -1    0    0    0  501 -0.00000000000E+00 -0.00000000000E+00 -0.34588502708E+03  0.34588502708E+03  0.00000000000E+00 0.  1.
         23    2    1    2    0    0  0.34751952837E+03  0.18354105356E+03  0.86810706924E+03  0.95705874114E+03  0.88850488996E+02 0.  0.
        254    2    1    2    0    0 -0.34751952837E+03 -0.18354105356E+03  0.49133072158E+03  0.10941491038E+04  0.89515319501E+03 0.  0.
        -24    2    4    4    0    0 -0.47563834220E+03 -0.25802729484E+03  0.65937341286E+03  0.85677682408E+03  0.80519011706E+02 0.  0.
         24    2    4    4    0    0  0.12811881383E+03  0.74486241282E+02 -0.16804269128E+03  0.23737227976E+03  0.78387642557E+02 0.  0.
         13    1    3    3    0    0  0.10058819425E+03  0.69480752567E+02  0.18452011561E+03  0.22134415028E+03  0.00000000000E+00 0.  1.
        -13    1    3    3    0    0  0.24693133412E+03  0.11406030099E+03  0.68358695363E+03  0.73571459086E+03  0.00000000000E+00 0. -1.
          2    1    6    6  502    0 -0.41386633564E+01 -0.65248193380E+01  0.11917775476E+01  0.78180646898E+01  0.00000000000E+00 0. -1.
          1    1    5    5  503    0 -0.74141982959E+02 -0.40068296225E+02  0.61441315512E+02  0.10429543255E+03  0.00000000000E+00 0. -1.
         -2    1    5    5    0  503 -0.40149635924E+03 -0.21795899861E+03  0.59793209735E+03  0.75248139153E+03  0.00000000000E+00 0.  1.
         -3    1    6    6    0  502  0.13225747719E+03  0.81011060620E+02 -0.16923446883E+03  0.22955421507E+03  0.00000000000E+00 0.  1.
<mgrwt>
<rscale>  0 0.15360282E+04</rscale>
<asrwt>0</asrwt>
<pdfrwt beam="1">  1        2 0.26235735E+00 0.15360282E+04</pdfrwt>
<pdfrwt beam="2">  1       -2 0.53213082E-01 0.15360282E+04</pdfrwt>
<totfact> 0.31245344E+01</totfact>
</mgrwt>
</event>
<event>
12    1  0.1755460E-007  0.1284536E+04  0.7818608E-02  0.9041919E-01
         -1   -1    0    0    0  501 -0.00000000000E+00  0.00000000000E+00  0.12958392431E+04  0.12958392431E+04  0.00000000000E+00 0.  1.
          1   -1    0    0  501    0  0.00000000000E+00 -0.00000000000E+00 -0.31833299017E+03  0.31833299017E+03  0.00000000000E+00 0. -1.
         23    2    1    2    0    0  0.10884377318E+03 -0.15534566559E+03  0.55521163468E+03  0.59180067756E+03  0.77387595215E+02 0.  0.
        254    2    1    2    0    0 -0.10884377318E+03  0.15534566559E+03  0.42229461829E+03  0.10223715557E+04  0.91155450225E+03 0.  0.
        -24    2    4    4    0    0  0.91480401844E+02  0.47475812566E+03  0.40519233407E+03  0.63569706449E+03  0.78523807930E+02 0.  0.
         24    2    4    4    0    0 -0.20032417503E+03 -0.31941246006E+03  0.17102284212E+02  0.38667449125E+03  0.84086736839E+02 0.  0.
         13    1    3    3    0    0  0.46176422054E+01  0.83521732853E+01  0.14888593777E+02  0.17684785630E+02  0.00000000000E+00 0. -1.
        -13    1    3    3    0    0  0.10422613098E+03 -0.16369783888E+03  0.54032304090E+03  0.57411589193E+03  0.00000000000E+00 0.  1.
          2    1    6    6  502    0 -0.16065484482E+03 -0.18429863776E+03 -0.24712808282E+01  0.24450373059E+03  0.00000000000E+00 0. -1.
          3    1    5    5  503    0  0.35512215691E+02  0.65542210123E+02  0.41215992862E+02  0.85180143453E+02  0.00000000000E+00 0. -1.
         -4    1    5    5    0  503  0.55968186154E+02  0.40921591554E+03  0.36397634121E+03  0.55051692104E+03  0.00000000000E+00 0.  1.
         -1    1    6    6    0  502 -0.39669330203E+02 -0.13511382231E+03  0.19573565040E+02  0.14217076066E+03  0.00000000000E+00 0.  1.
<mgrwt>
<rscale>  0 0.12845363E+04</rscale>
<asrwt>0</asrwt>
<pdfrwt beam="1">  1        1 0.48974307E-01 0.12845363E+04</pdfrwt>
<pdfrwt beam="2">  1       -1 0.19935988E+00 0.12845363E+04</pdfrwt>
<totfact> 0.12134102E+01</totfact>
</mgrwt>
</event>
<event>
12    1  0.1755460E-007  0.1124608E+04  0.7818608E-02  0.9181534E-01
          2   -1    0    0  501    0  0.00000000000E+00  0.00000000000E+00  0.12282033500E+04  0.12282033500E+04  0.00000000000E+00 0. -1.
         -2   -1    0    0    0  501 -0.00000000000E+00 -0.00000000000E+00 -0.25743744354E+03  0.25743744354E+03  0.00000000000E+00 0.  1.
         23    2    1    2    0    0 -0.17567005946E+02 -0.13146274460E+03  0.35022764709E+03  0.38632227361E+03  0.94839028820E+02 0.  0.
        254    2    1    2    0    0  0.17567005946E+02  0.13146274460E+03  0.62053825933E+03  0.10993185199E+04  0.89768726400E+03 0.  0.
        -24    2    4    4    0    0 -0.66629262288E+01  0.21085608601E+03 -0.18113016228E+03  0.28944347956E+03  0.80403411493E+02 0.  0.
         24    2    4    4    0    0  0.24229932174E+02 -0.79393341409E+02  0.80166842161E+03  0.80987504032E+03  0.79592276353E+02 0.  0.
         11    1    3    3    0    0 -0.57004964560E+02 -0.77947498967E+02  0.20590362164E+03  0.22742400925E+03  0.00000000000E+00 0. -1.
        -11    1    3    3    0    0  0.39437958615E+02 -0.53515245636E+02  0.14432402545E+03  0.15889826436E+03  0.00000000000E+00 0.  1.
          2    1    6    6  502    0  0.33225143474E+02 -0.26161208155E+02  0.58703057918E+03  0.58855179879E+03  0.00000000000E+00 0. -1.
          1    1    5    5  503    0  0.33393722013E+02  0.13606058681E+03 -0.10070723203E+03  0.17253860593E+03  0.00000000000E+00 0. -1.
         -2    1    5    5    0  503 -0.40056648242E+02  0.74795499204E+02 -0.80422930251E+02  0.11690487364E+03  0.00000000000E+00 0.  1.
         -1    1    6    6    0  502 -0.89952112996E+01 -0.53232133255E+02  0.21463784243E+03  0.22132324153E+03  0.00000000000E+00 0.  1.
<mgrwt>
<rscale>  0 0.11246075E+04</rscale>
<asrwt>0</asrwt>
<pdfrwt beam="1">  1        2 0.18895436E+00 0.11246075E+04</pdfrwt>
<pdfrwt beam="2">  1       -2 0.39605761E-01 0.11246075E+04</pdfrwt>
<totfact> 0.10884947E+02</totfact>
</mgrwt>
</event>
<event>
12    1  0.2807301E-007  0.1943810E+04  0.7818608E-02  0.8633351E-01
         -2   -1    0    0    0  501 -0.00000000000E+00  0.00000000000E+00  0.43060025979E+03  0.43060025979E+03  0.00000000000E+00 0.  1.
          2   -1    0    0  501    0  0.00000000000E+00 -0.00000000000E+00 -0.21936811739E+04  0.21936811739E+04  0.00000000000E+00 0. -1.
         23    2    1    2    0    0  0.45167058002E+03  0.46273884688E+03 -0.12417911266E+04  0.14036604026E+04  0.10041797841E+03 0.  0.
        254    2    1    2    0    0 -0.45167058002E+03 -0.46273884688E+03 -0.52128978747E+03  0.12206210311E+04  0.89444905149E+03 0.  0.
        -24    2    4    4    0    0 -0.56032747266E+03 -0.64146842216E+03 -0.51028516659E+03  0.99612674143E+03  0.80180549466E+02 0.  0.
         24    2    4    4    0    0  0.10865689263E+03  0.17872957528E+03 -0.11004620884E+02  0.22449428965E+03  0.80783680321E+02 0.  0.
         13    1    3    3    0    0  0.15266439333E+03  0.16779826647E+03 -0.54122205158E+03  0.58684238458E+03  0.00000000000E+00 0. -1.
        -13    1    3    3    0    0  0.29900618669E+03  0.29494058040E+03 -0.70056907505E+03  0.81681801802E+03  0.00000000000E+00 0.  1.
          4    1    6    6  502    0  0.11201941258E+03  0.14618563462E+03  0.11903653791E+02  0.18455428886E+03  0.00000000000E+00 0. -1.
          3    1    5    5  503    0 -0.55345958235E+03 -0.63756887676E+03 -0.49440342947E+03  0.97838966317E+03  0.00000000000E+00 0. -1.
         -4    1    5    5    0  503 -0.68678903016E+01 -0.38995453948E+01 -0.15881737117E+02  0.17737078264E+02  0.00000000000E+00 0.  1.
         -1    1    6    6    0  502 -0.33625199445E+01  0.32543940661E+02 -0.22908274675E+02  0.39940000785E+02  0.00000000000E+00 0.  1.
<mgrwt>
<rscale>  0 0.19438104E+04</rscale>
<asrwt>0</asrwt>
<pdfrwt beam="1">  1        2 0.33748941E+00 0.19438104E+04</pdfrwt>
<pdfrwt beam="2">  1       -2 0.66246193E-01 0.19438104E+04</pdfrwt>
<totfact> 0.10182805E+01</totfact>
</mgrwt>
</event>
<event>
12    1  0.1755460E-007  0.1203862E+04  0.7818608E-02  0.9109483E-01
         -2   -1    0    0    0  501 -0.00000000000E+00  0.00000000000E+00  0.46940433546E+03  0.46940433546E+03  0.00000000000E+00 0.  1.
          2   -1    0    0  501    0  0.00000000000E+00 -0.00000000000E+00 -0.77187361919E+03  0.77187361919E+03  0.00000000000E+00 0. -1.
         23    2    1    2    0    0 -0.83501432371E+02 -0.17966187355E+03  0.10345304966E+03  0.24092190866E+03  0.89944174762E+02 0.  0.
        254    2    1    2    0    0  0.83501432371E+02  0.17966187355E+03 -0.40592233339E+03  0.10003560460E+04  0.89257403054E+03 0.  0.
        -24    2    4    4    0    0  0.48203340930E+03  0.89662449062E+02 -0.24443074409E+03  0.55390089299E+03  0.81634846429E+02 0.  0.
         24    2    4    4    0    0 -0.39853197693E+03  0.89999424485E+02 -0.16149158930E+03  0.44645515300E+03  0.79467208222E+02 0.  0.
         13    1    3    3    0    0 -0.16318823543E+02  0.53109185292E+01  0.22083876808E+02  0.27967972259E+02  0.00000000000E+00 0.  1.
        -13    1    3    3    0    0 -0.67182608828E+02 -0.18497279208E+03  0.81369172851E+02  0.21295393640E+03  0.00000000000E+00 0. -1.
          2    1    6    6  502    0 -0.23638738719E+03  0.92704379601E+02 -0.10421796991E+03  0.27447128096E+03  0.00000000000E+00 0. -1.
          3    1    5    5  503    0  0.39307824958E+03  0.39982569598E+02 -0.19768811777E+03  0.44180279319E+03  0.00000000000E+00 0. -1.
         -4    1    5    5    0  503  0.88955159721E+02  0.49679879464E+02 -0.46742626317E+02  0.11209809980E+03  0.00000000000E+00 0.  1.
         -1    1    6    6    0  502 -0.16214458973E+03 -0.27049551162E+01 -0.57273619392E+02  0.17198387203E+03  0.00000000000E+00 0.  1.
<mgrwt>
<rscale>  0 0.12038618E+04</rscale>
<asrwt>0</asrwt>
<pdfrwt beam="1">  1        2 0.11874979E+00 0.12038618E+04</pdfrwt>
<pdfrwt beam="2">  1       -2 0.72216052E-01 0.12038618E+04</pdfrwt>
<totfact> 0.61884477E+01</totfact>
</mgrwt>
</event>
<event>
12    1  0.1755460E-007  0.2648731E+04  0.7818608E-02  0.8351834E-01
          2   -1    0    0  501    0  0.00000000000E+00  0.00000000000E+00  0.21675929979E+04  0.21675929979E+04  0.00000000000E+00 0. -1.
         -2   -1    0    0    0  501 -0.00000000000E+00 -0.00000000000E+00 -0.80916673051E+03  0.80916673051E+03  0.00000000000E+00 0.  1.
         23    2    1    2    0    0  0.92836836903E+03 -0.28943385235E+03 -0.12663432292E+03  0.98493931362E+03  0.91811852537E+02 0.  0.
        254    2    1    2    0    0 -0.92836836903E+03  0.28943385235E+03  0.14850605904E+04  0.19918204148E+04  0.90349533724E+03 0.  0.
        -24    2    4    4    0    0 -0.82791971612E+03 -0.74829913071E+02  0.60630110408E+03  0.10319273147E+04  0.78882075385E+02 0.  0.
         24    2    4    4    0    0 -0.10044865291E+03  0.36426376542E+03  0.87875948628E+03  0.95989310012E+03  0.79990663644E+02 0.  0.
         11    1    3    3    0    0  0.97902809857E+02 -0.61260729067E+02 -0.12318051521E+02  0.11614461458E+03  0.00000000000E+00 0. -1.
        -11    1    3    3    0    0  0.83046555918E+03 -0.22817312328E+03 -0.11431627140E+03  0.86879469904E+03  0.00000000000E+00 0.  1.
          2    1    6    6  502    0 -0.39653302265E+02  0.99817270015E+02  0.34162737690E+03  0.35811330110E+03  0.00000000000E+00 0. -1.
          1    1    5    5  503    0 -0.45416746403E+02  0.35713189941E+01  0.14839692628E+02  0.47912959108E+02  0.00000000000E+00 0. -1.
         -2    1    5    5    0  503 -0.78250296972E+03 -0.78401232065E+02  0.59146141145E+03  0.98401435561E+03  0.00000000000E+00 0.  1.
         -1    1    6    6    0  502 -0.60795350649E+02  0.26444649541E+03  0.53713210937E+03  0.60177979902E+03  0.00000000000E+00 0.  1.
<mgrwt>
<rscale>  0 0.26487311E+04</rscale>
<asrwt>0</asrwt>
<pdfrwt beam="1">  1        2 0.33347584E+00 0.26487311E+04</pdfrwt>
<pdfrwt beam="2">  1       -2 0.12448719E+00 0.26487311E+04</pdfrwt>
<totfact> 0.22982598E+00</totfact>
</mgrwt>
</event>
<event>
12    1  0.1755460E-007  0.2184424E+04  0.7818608E-02  0.8524939E-01
         -1   -1    0    0    0  501 -0.00000000000E+00  0.00000000000E+00  0.45647547928E+03  0.45647547928E+03  0.00000000000E+00 0. -1.
          1   -1    0    0  501    0  0.00000000000E+00 -0.00000000000E+00 -0.26133427866E+04  0.26133427866E+04  0.00000000000E+00 0.  1.
         23    2    1    2    0    0  0.88881472334E+03 -0.12640306391E+03 -0.10791451568E+04  0.14067714440E+04  0.92099290184E+02 0.  0.
        254    2    1    2    0    0 -0.88881472334E+03  0.12640306391E+03 -0.10777221505E+04  0.16630468218E+04  0.89345976461E+03 0.  0.
        -24    2    4    4    0    0  0.17096378318E+02  0.20191703274E+03 -0.58882865191E+03  0.62755356626E+03  0.77727234308E+02 0.  0.
         24    2    4    4    0    0 -0.90591110166E+03 -0.75513968831E+02 -0.48889349854E+03  0.10354932556E+04  0.82777688937E+02 0.  0.
         13    1    3    3    0    0  0.84305789564E+02 -0.14043185466E+02 -0.64829400834E+02  0.10727314867E+03  0.00000000000E+00 0. -1.
        -13    1    3    3    0    0  0.80450893377E+03 -0.11235987844E+03 -0.10143157560E+04  0.12994982954E+04  0.00000000000E+00 0.  1.
          4    1    6    6  502    0 -0.20025162395E+03 -0.42318685035E+02 -0.13670976048E+03  0.24613236806E+03  0.00000000000E+00 0. -1.
          3    1    5    5  503    0 -0.12280255916E+02  0.16686425542E+03 -0.40673526367E+03  0.43980456925E+03  0.00000000000E+00 0. -1.
         -4    1    5    5    0  503  0.29376634234E+02  0.35052777321E+02 -0.18209338824E+03  0.18774899701E+03  0.00000000000E+00 0.  1.
         -3    1    6    6    0  502 -0.70565947771E+03 -0.33195283797E+02 -0.35218373806E+03  0.78936088749E+03  0.00000000000E+00 0.  1.
<mgrwt>
<rscale>  0 0.21844239E+04</rscale>
<asrwt>0</asrwt>
<pdfrwt beam="1">  1        1 0.40205272E+00 0.21844239E+04</pdfrwt>
<pdfrwt beam="2">  1       -1 0.70226999E-01 0.21844239E+04</pdfrwt>
<totfact> 0.21134718E+00</totfact>
</mgrwt>
</event>
<event>
12    1  0.1755460E-007  0.2216356E+04  0.7818608E-02  0.8511651E-01
         -1   -1    0    0    0  501 -0.00000000000E+00  0.00000000000E+00  0.20418016850E+04  0.20418016850E+04  0.00000000000E+00 0. -1.
          1   -1    0    0  501    0  0.00000000000E+00 -0.00000000000E+00 -0.60145817706E+03  0.60145817706E+03  0.00000000000E+00 0.  1.
         23    2    1    2    0    0  0.28043736864E+03 -0.81403882593E+02 -0.41852330472E+03  0.51845892454E+03  0.91466879301E+02 0.  0.
        254    2    1    2    0    0 -0.28043736864E+03  0.81403882593E+02  0.18588668127E+04  0.21248009376E+04  0.98697593032E+03 0.  0.
        -24    2    4    4    0    0  0.46841330006E+02  0.44946800179E+03  0.50720738292E+03  0.68409730382E+03  0.80710575330E+02 0.  0.
         24    2    4    4    0    0 -0.32727869865E+03 -0.36806411920E+03  0.13516594298E+04  0.14407036337E+04  0.77853732849E+02 0.  0.
         11    1    3    3    0    0  0.20216342951E+03 -0.82861003509E+02 -0.24607895938E+03  0.32907575478E+03  0.00000000000E+00 0. -1.
        -11    1    3    3    0    0  0.78273939129E+02  0.14571209163E+01 -0.17244434534E+03  0.18938316976E+03  0.00000000000E+00 0.  1.
          2    1    6    6  502    0 -0.19679164414E+03 -0.26948493545E+03  0.85483947271E+03  0.91765985296E+03  0.00000000000E+00 0. -1.
          1    1    5    5  503    0  0.37193926176E+02  0.28538625628E+03  0.37763024173E+03  0.47479817068E+03  0.00000000000E+00 0. -1.
         -2    1    5    5    0  503  0.96474038295E+01  0.16408174551E+03  0.12957714120E+03  0.20929913313E+03  0.00000000000E+00 0.  1.
         -1    1    6    6    0  502 -0.13048705450E+03 -0.98579183750E+02  0.49681995708E+03  0.52304378078E+03  0.00000000000E+00 0.  1.
<mgrwt>
<rscale>  0 0.22163559E+04</rscale>
<asrwt>0</asrwt>
<pdfrwt beam="1">  1        1 0.92532028E-01 0.22163559E+04</pdfrwt>
<pdfrwt beam="2">  1       -1 0.31412333E+00 0.22163559E+04</pdfrwt>
<totfact> 0.83102285E-01</totfact>
</mgrwt>
</event>
<event>
12    1  0.1755460E-007  0.2177504E+04  0.7818608E-02  0.8527850E-01
          2   -1    0    0  501    0  0.00000000000E+00  0.00000000000E+00  0.17682124328E+04  0.17682124328E+04  0.00000000000E+00 0. -1.
         -2   -1    0    0    0  501 -0.00000000000E+00 -0.00000000000E+00 -0.67038399693E+03  0.67038399693E+03  0.00000000000E+00 0.  1.
         23    2    1    2    0    0 -0.16989872759E+03 -0.42045707122E+03 -0.41187138355E+03  0.61949185713E+03  0.92099935379E+02 0.  0.
        254    2    1    2    0    0  0.16989872759E+03  0.42045707122E+03  0.15096998194E+04  0.18191045726E+04  0.90790868204E+03 0.  0.
        -24    2    4    4    0    0 -0.26047497832E+03  0.20154906865E+02  0.10006053879E+04  0.10373775136E+04  0.81777311396E+02 0.  0.
         24    2    4    4    0    0  0.43037370592E+03  0.40030216435E+03  0.50909443143E+03  0.78172705900E+03  0.80353625498E+02 0.  0.
         13    1    3    3    0    0 -0.16226610521E+03 -0.34217567852E+03 -0.30202353781E+03  0.48438899787E+03  0.00000000000E+00 0.  1.
        -13    1    3    3    0    0 -0.76326223863E+01 -0.78281392692E+02 -0.10984784574E+03  0.13510285926E+03  0.00000000000E+00 0. -1.
          2    1    6    6  502    0  0.41176777367E+02  0.40161408381E+02  0.85494836725E+02  0.10304286887E+03  0.00000000000E+00 0. -1.
          3    1    5    5  503    0 -0.70911997312E+02 -0.28377240965E+02  0.33553497757E+03  0.34411843941E+03  0.00000000000E+00 0. -1.
         -4    1    5    5    0  503 -0.18956298101E+03  0.48532147830E+02  0.66507041038E+03  0.69325907416E+03  0.00000000000E+00 0.  1.
         -1    1    6    6    0  502  0.38919692855E+03  0.36014075597E+03  0.42359959470E+03  0.67868419013E+03  0.00000000000E+00 0.  1.
<mgrwt>
<rscale>  0 0.21775044E+04</rscale>
<asrwt>0</asrwt>
<pdfrwt beam="1">  1        2 0.27203268E+00 0.21775044E+04</pdfrwt>
<pdfrwt beam="2">  1       -2 0.10313600E+00 0.21775044E+04</pdfrwt>
<totfact> 0.63150477E+00</totfact>
</mgrwt>
</event>
<event>
12    1  0.2278383E-007  0.2972447E+04  0.7818608E-02  0.8251643E-01
         -2   -1    0    0    0  501 -0.00000000000E+00  0.00000000000E+00  0.20184671078E+04  0.20184671078E+04  0.00000000000E+00 0.  1.
          2   -1    0    0  501    0  0.00000000000E+00 -0.00000000000E+00 -0.10943257216E+04  0.10943257216E+04  0.00000000000E+00 0. -1.
         23    2    1    2    0    0 -0.83151660454E+03  0.16598230169E+03  0.15144617052E+04  0.17386313255E+04  0.10136390567E+03 0.  0.
        254    2    1    2    0    0  0.83151660454E+03 -0.16598230169E+03 -0.59032031894E+03  0.13741615039E+04  0.90601974135E+03 0.  0.
        -24    2    4    4    0    0 -0.10939638723E+03 -0.18996533941E+03  0.42011743121E+02  0.23761592623E+03  0.81498111143E+02 0.  0.
         24    2    4    4    0    0  0.94091299177E+03  0.23983037721E+02 -0.63233206206E+03  0.11365455777E+04  0.77456886178E+02 0.  0.
         11    1    3    3    0    0 -0.72285986167E+03  0.12175793333E+03  0.13561936482E+04  0.15416266037E+04  0.00000000000E+00 0.  1.
        -11    1    3    3    0    0 -0.10865674287E+03  0.44224368359E+02  0.15826805704E+03  0.19700472179E+03  0.00000000000E+00 0. -1.
          4    1    6    6  502    0  0.85903192710E+02  0.14369127062E+02 -0.36910575536E+02  0.94595036427E+02  0.00000000000E+00 0. -1.
          1    1    5    5  503    0 -0.10195552578E+02 -0.20151402346E+02 -0.21266051030E+02  0.31020529255E+02  0.00000000000E+00 0. -1.
         -2    1    5    5    0  503 -0.99200834653E+02 -0.16981393707E+03  0.63277794150E+02  0.20659539697E+03  0.00000000000E+00 0.  1.
         -3    1    6    6    0  502  0.85500979906E+03  0.96139106591E+01 -0.59542148652E+03  0.10419505412E+04  0.00000000000E+00 0.  1.
<mgrwt>
<rscale>  0 0.29724471E+04</rscale>
<asrwt>0</asrwt>
<pdfrwt beam="1">  1        2 0.16835780E+00 0.29724471E+04</pdfrwt>
<pdfrwt beam="2">  1       -2 0.31053340E+00 0.29724471E+04</pdfrwt>
<totfact> 0.51602417E-01</totfact>
</mgrwt>
</event>
<event>
12    1  0.1755460E-007  0.2140150E+04  0.7818608E-02  0.8543760E-01
         -2   -1    0    0    0  501 -0.00000000000E+00  0.00000000000E+00  0.47379841287E+03  0.47379841287E+03  0.00000000000E+00 0.  1.
          2   -1    0    0  501    0  0.00000000000E+00 -0.00000000000E+00 -0.24167666286E+04  0.24167666286E+04  0.00000000000E+00 0. -1.
         23    2    1    2    0    0  0.25029188806E+02  0.12503351214E+03 -0.19783936498E+04  0.19845583032E+04  0.90390186382E+02 0.  0.
        254    2    1    2    0    0 -0.25029188806E+02 -0.12503351214E+03  0.35425434076E+02  0.90600673825E+03  0.89628868615E+03 0.  0.
        -24    2    4    4    0    0  0.79129508767E+02 -0.41185130557E+03 -0.23774940343E+03  0.48846742401E+03  0.78693509480E+02 0.  0.
         24    2    4    4    0    0 -0.10415869757E+03  0.28681779343E+03  0.27317483750E+03  0.41753931424E+03  0.81247191862E+02 0.  0.
         11    1    3    3    0    0  0.15857599048E+02  0.13474770636E+03 -0.19134785387E+04  0.19182827023E+04  0.00000000000E+00 0. -1.
        -11    1    3    3    0    0  0.91715897584E+01 -0.97141942259E+01 -0.64915111152E+02  0.66275600971E+02  0.00000000000E+00 0.  1.
          4    1    6    6  502    0 -0.43563607622E+02  0.88892579876E+02  0.13979079838E+03  0.17129257420E+03  0.00000000000E+00 0. -1.
          1    1    5    5  503    0  0.27580480569E+02 -0.74511452159E+02 -0.79180031953E+02  0.11217003553E+03  0.00000000000E+00 0. -1.
         -2    1    5    5    0  503  0.51549028198E+02 -0.33733985341E+03 -0.15856937147E+03  0.37629738848E+03  0.00000000000E+00 0.  1.
         -3    1    6    6    0  502 -0.60595089952E+02  0.19792521355E+03  0.13338403912E+03  0.24624674004E+03  0.00000000000E+00 0.  1.
<mgrwt>
<rscale>  0 0.21401497E+04</rscale>
<asrwt>0</asrwt>
<pdfrwt beam="1">  1        2 0.37181025E+00 0.21401497E+04</pdfrwt>
<pdfrwt beam="2">  1       -2 0.72892064E-01 0.21401497E+04</pdfrwt>
<totfact> 0.60750797E+00</totfact>
</mgrwt>
</event>
<event>
12    1  0.1755460E-007  0.1783530E+04  0.7818608E-02  0.8715107E-01
          2   -1    0    0  501    0  0.00000000000E+00  0.00000000000E+00  0.11925265833E+04  0.11925265833E+04  0.00000000000E+00 0. -1.
         -2   -1    0    0    0  501 -0.00000000000E+00 -0.00000000000E+00 -0.66685693037E+03  0.66685693037E+03  0.00000000000E+00 0.  1.
         23    2    1    2    0    0  0.32701700965E+03  0.47918028157E+03  0.50046576717E+03  0.77134966412E+03  0.89221372844E+02 0.  0.
        254    2    1    2    0    0 -0.32701700965E+03 -0.47918028157E+03  0.25203885744E+02  0.10880338495E+04  0.92012420630E+03 0.  0.
        -24    2    4    4    0    0 -0.59247153438E+02 -0.30938709169E+03 -0.42244884083E+03  0.53362898035E+03  0.84061095985E+02 0.  0.
         24    2    4    4    0    0 -0.26776985622E+03 -0.16979318988E+03  0.44765272657E+03  0.55440486918E+03  0.80258159261E+02 0.  0.
         13    1    3    3    0    0  0.27987461335E+02  0.60684764651E+02  0.26400864865E+02  0.71853631212E+02  0.00000000000E+00 0.  1.
        -13    1    3    3    0    0  0.29902954832E+03  0.41849551692E+03  0.47406490230E+03  0.69949603290E+03  0.00000000000E+00 0. -1.
          2    1    6    6  502    0 -0.25833001542E+03 -0.13600694082E+03  0.39692247566E+03  0.49272683761E+03  0.00000000000E+00 0. -1.
          1    1    5    5  503    0 -0.10397678025E+01 -0.21435467405E+03 -0.28742322606E+03  0.35855420550E+03  0.00000000000E+00 0. -1.
         -2    1    5    5    0  503 -0.58207385636E+02 -0.95032417641E+02 -0.13502561477E+03  0.17507477486E+03  0.00000000000E+00 0.  1.
         -3    1    6    6    0  502 -0.94398407980E+01 -0.33786249063E+02  0.50730250911E+02  0.61678031563E+02  0.00000000000E+00 0.  1.
<mgrwt>
<rscale>  0 0.17835298E+04</rscale>
<asrwt>0</asrwt>
<pdfrwt beam="1">  1        2 0.18346563E+00 0.17835298E+04</pdfrwt>
<pdfrwt beam="2">  1       -2 0.10259337E+00 0.17835298E+04</pdfrwt>
<totfact> 0.14060515E+01</totfact>
</mgrwt>
</event>
<event>
12    1  0.1755460E-007  0.1913486E+04  0.7818608E-02  0.8648172E-01
         -2   -1    0    0    0  501 -0.00000000000E+00  0.00000000000E+00  0.36810408665E+03  0.36810408665E+03  0.00000000000E+00 0.  1.
          2   -1    0    0  501    0  0.00000000000E+00 -0.00000000000E+00 -0.24866811177E+04  0.24866811177E+04  0.00000000000E+00 0. -1.
         23    2    1    2    0    0  0.51415762311E+03  0.44098939736E+03 -0.12486372968E+04  0.14235162652E+04  0.92052965475E+02 0.  0.
        254    2    1    2    0    0 -0.51415762311E+03 -0.44098939736E+03 -0.86993973425E+03  0.14312689391E+04  0.91263679788E+03 0.  0.
        -24    2    4    4    0    0  0.12836577822E+02  0.24316972561E+03 -0.10567158107E+03  0.27522986680E+03  0.72723471778E+02 0.  0.
         24    2    4    4    0    0 -0.52699420093E+03 -0.68415912298E+03 -0.76426815318E+03  0.11560390723E+04  0.80770869629E+02 0.  0.
         11    1    3    3    0    0  0.50364411844E+03  0.43805398742E+03 -0.11950556828E+04  0.13688340947E+04  0.00000000000E+00 0. -1.
        -11    1    3    3    0    0  0.10513504667E+02  0.29354099414E+01 -0.53581613952E+02  0.54682170454E+02  0.00000000000E+00 0.  1.
          4    1    6    6  502    0 -0.69696553205E+02 -0.78274708260E+02 -0.12892564276E+03  0.16615162005E+03  0.00000000000E+00 0. -1.
          3    1    5    5  503    0 -0.13657672142E+01  0.60223025301E+02  0.58168890569E+01  0.60518710287E+02  0.00000000000E+00 0. -1.
         -4    1    5    5    0  503  0.14202345036E+02  0.18294670031E+03 -0.11148847013E+03  0.21471115651E+03  0.00000000000E+00 0.  1.
         -3    1    6    6    0  502 -0.45729764773E+03 -0.60588441472E+03 -0.63534251042E+03  0.98988745227E+03  0.00000000000E+00 0.  1.
<mgrwt>
<rscale>  0 0.19134863E+04</rscale>
<asrwt>0</asrwt>
<pdfrwt beam="1">  1        2 0.38256633E+00 0.19134863E+04</pdfrwt>
<pdfrwt beam="2">  1       -2 0.56631397E-01 0.19134863E+04</pdfrwt>
<totfact> 0.97039492E+00</totfact>
</mgrwt>
</event>
<event>
12    1  0.1755460E-007  0.3592175E+04  0.7818608E-02  0.8092286E-01
         -2   -1    0    0    0  501 -0.00000000000E+00  0.00000000000E+00  0.16448657144E+04  0.16448657144E+04  0.00000000000E+00 0. -1.
          2   -1    0    0  501    0  0.00000000000E+00 -0.00000000000E+00 -0.19612124300E+04  0.19612124300E+04  0.00000000000E+00 0.  1.
         23    2    1    2    0    0 -0.15709000233E+04 -0.57977550010E+03  0.26263508175E+02  0.16772075353E+04  0.92026251146E+02 0.  0.
        254    2    1    2    0    0  0.15709000233E+04  0.57977550010E+03 -0.34261022382E+03  0.19288706091E+04  0.89403218488E+03 0.  0.
        -24    2    4    4    0    0  0.71639888940E+03 -0.13461890448E+02  0.20640474728E+03  0.74989349241E+03  0.79553372195E+02 0.  0.
         24    2    4    4    0    0  0.85450113385E+03  0.59323739055E+03 -0.54901497110E+03  0.11789771167E+04  0.80416502552E+02 0.  0.
         11    1    3    3    0    0 -0.15374054966E+04 -0.57550423551E+03  0.36265718771E+02  0.16419914703E+04  0.00000000000E+00 0. -1.
        -11    1    3    3    0    0 -0.33494526638E+02 -0.42712645870E+01 -0.10002210596E+02  0.35216064980E+02  0.00000000000E+00 0.  1.
          4    1    6    6  502    0  0.10288018817E+03  0.83728266173E+02 -0.42863238728E+02  0.13939875505E+03  0.00000000000E+00 0. -1.
          1    1    5    5  503    0  0.14833646830E+03  0.26617160202E+02  0.29417854440E+02  0.15354996322E+03  0.00000000000E+00 0. -1.
         -2    1    5    5    0  503  0.56806242110E+03 -0.40079050650E+02  0.17698689284E+03  0.59634352919E+03  0.00000000000E+00 0.  1.
         -3    1    6    6    0  502  0.75162094568E+03  0.50950912437E+03 -0.50615173238E+03  0.10395783616E+04  0.00000000000E+00 0.  1.
<mgrwt>
<rscale>  0 0.35921754E+04</rscale>
<asrwt>0</asrwt>
<pdfrwt beam="1">  1        2 0.30172499E+00 0.35921754E+04</pdfrwt>
<pdfrwt beam="2">  1       -2 0.25305626E+00 0.35921754E+04</pdfrwt>
<totfact> 0.35242632E-01</totfact>
</mgrwt>
</event>
<event>
12    1  0.1755460E-007  0.1773328E+04  0.7818608E-02  0.8720614E-01
          1   -1    0    0  501    0  0.00000000000E+00  0.00000000000E+00  0.20285505674E+04  0.20285505674E+04  0.00000000000E+00 0. -1.
         -1   -1    0    0    0  501 -0.00000000000E+00 -0.00000000000E+00 -0.38755388662E+03  0.38755388662E+03  0.00000000000E+00 0.  1.
         23    2    1    2    0    0  0.59253223839E+02  0.54650840046E+03  0.11036656617E+04  0.12363017567E+04  0.90453105854E+02 0.  0.
        254    2    1    2    0    0 -0.59253223839E+02 -0.54650840046E+03  0.53733101903E+03  0.11798026973E+04  0.89500134317E+03 0.  0.
        -24    2    4    4    0    0  0.13666377695E+03 -0.53432752087E+03 -0.45977928802E+02  0.55922158554E+03  0.80199278723E+02 0.  0.
         24    2    4    4    0    0 -0.19591700079E+03 -0.12180879595E+02  0.58330894783E+03  0.62058111178E+03  0.79622500934E+02 0.  0.
         13    1    3    3    0    0  0.54102053059E+02  0.54673780873E+03  0.11010674674E+04  0.12305278670E+04  0.00000000000E+00 0. -1.
        -13    1    3    3    0    0  0.51511707796E+01 -0.22940826898E+00  0.25981943533E+01  0.57738897160E+01  0.00000000000E+00 0.  1.
          4    1    6    6  502    0 -0.35516326551E+02 -0.34212244050E+00  0.22557328439E+03  0.22835243184E+03  0.00000000000E+00 0. -1.
          1    1    5    5  503    0  0.12494697049E+03 -0.51553064090E+03 -0.28882119898E+02  0.53124171899E+03  0.00000000000E+00 0. -1.
         -2    1    5    5    0  503  0.11716806463E+02 -0.18796879968E+02 -0.17095808904E+02  0.27979866553E+02  0.00000000000E+00 0.  1.
         -3    1    6    6    0  502 -0.16040067424E+03 -0.11838757155E+02  0.35773566344E+03  0.39222867994E+03  0.00000000000E+00 0.  1.
<mgrwt>
<rscale>  0 0.17733276E+04</rscale>
<asrwt>0</asrwt>
<pdfrwt beam="1">  1        1 0.31208470E+00 0.17733276E+04</pdfrwt>
<pdfrwt beam="2">  1       -1 0.59623676E-01 0.17733276E+04</pdfrwt>
<totfact> 0.76880532E+00</totfact>
</mgrwt>
</event>
<event>
12    1  0.1755460E-007  0.1314803E+04  0.7818608E-02  0.9017908E-01
         -1   -1    0    0    0  501 -0.00000000000E+00  0.00000000000E+00  0.23296063823E+03  0.23296063823E+03  0.00000000000E+00 0.  1.
          1   -1    0    0  501    0  0.00000000000E+00 -0.00000000000E+00 -0.18551480782E+04  0.18551480782E+04  0.00000000000E+00 0. -1.
         23    2    1    2    0    0  0.99086965005E+02  0.23158937204E+03 -0.77490035682E+03  0.81998291515E+03  0.91921457044E+02 0.  0.
        254    2    1    2    0    0 -0.99086965005E+02 -0.23158937204E+03 -0.84728708311E+03  0.12681258012E+04  0.90928311471E+03 0.  0.
        -24    2    4    4    0    0  0.12662338415E+03 -0.43090988037E+03 -0.84103382181E+03  0.95681439807E+03  0.80243981120E+02 0.  0.
         24    2    4    4    0    0 -0.22571034916E+03  0.19932050834E+03 -0.62532613045E+01  0.31131140318E+03  0.78751887037E+02 0.  0.
         13    1    3    3    0    0  0.80103387257E+02  0.16195695924E+03 -0.66008303380E+03  0.68436556080E+03  0.00000000000E+00 0. -1.
        -13    1    3    3    0    0  0.18983577748E+02  0.69632412796E+02 -0.11481732302E+03  0.13561735435E+03  0.00000000000E+00 0.  1.
          4    1    6    6  502    0 -0.15111704099E+02  0.47510786332E+02  0.11253903052E+02  0.51110554219E+02  0.00000000000E+00 0. -1.
          3    1    5    5  503    0  0.40722521159E+02 -0.10031795830E+03 -0.13986433737E+03  0.17687297520E+03  0.00000000000E+00 0. -1.
         -4    1    5    5    0  503  0.85900862994E+02 -0.33059192208E+03 -0.70116948443E+03  0.77994142287E+03  0.00000000000E+00 0.  1.
         -3    1    6    6    0  502 -0.21059864506E+03  0.15180972200E+03 -0.17507164357E+02  0.26020084896E+03  0.00000000000E+00 0.  1.
<mgrwt>
<rscale>  0 0.13148026E+04</rscale>
<asrwt>0</asrwt>
<pdfrwt beam="1">  1        1 0.28540741E+00 0.13148026E+04</pdfrwt>
<pdfrwt beam="2">  1       -1 0.35840097E-01 0.13148026E+04</pdfrwt>
<totfact> 0.27290509E+01</totfact>
</mgrwt>
</event>
<event>
12    1  0.1755460E-007  0.1238252E+04  0.7818608E-02  0.9080018E-01
         -2   -1    0    0    0  501 -0.00000000000E+00  0.00000000000E+00  0.78856713211E+03  0.78856713211E+03  0.00000000000E+00 0.  1.
          2   -1    0    0  501    0  0.00000000000E+00 -0.00000000000E+00 -0.48609294172E+03  0.48609294172E+03  0.00000000000E+00 0. -1.
         23    2    1    2    0    0  0.27168739265E+03 -0.81845243614E+01 -0.12475671551E+02  0.28625825309E+03  0.88921984429E+02 0.  0.
        254    2    1    2    0    0 -0.27168739265E+03  0.81845243614E+01  0.31494986194E+03  0.98840182074E+03  0.89658447340E+03 0.  0.
        -24    2    4    4    0    0  0.17952798250E+03 -0.24533457803E+03 -0.91154290145E+02  0.32598120747E+03  0.74399538516E+02 0.  0.
         24    2    4    4    0    0 -0.45121537515E+03  0.25351910239E+03  0.40610415209E+03  0.66242061327E+03  0.77545061044E+02 0.  0.
         11    1    3    3    0    0  0.18099325600E+03 -0.29396928346E+01  0.34049977179E+02  0.18419175187E+03  0.00000000000E+00 0.  1.
        -11    1    3    3    0    0  0.90694136657E+02 -0.52448315268E+01 -0.46525648730E+02  0.10206650122E+03  0.00000000000E+00 0. -1.
          4    1    6    6  502    0 -0.23819744725E+03  0.98384025749E+02  0.17117787678E+03  0.30938536794E+03  0.00000000000E+00 0. -1.
          3    1    5    5  503    0  0.17668509778E+03 -0.24145148199E+03 -0.10037401467E+03  0.31558102724E+03  0.00000000000E+00 0. -1.
         -4    1    5    5    0  503  0.28428847159E+01 -0.38830960404E+01  0.92197245254E+01  0.10400180224E+02  0.00000000000E+00 0.  1.
         -3    1    6    6    0  502 -0.21301792790E+03  0.15513507664E+03  0.23492627531E+03  0.35303524533E+03  0.00000000000E+00 0.  1.
<mgrwt>
<rscale>  0 0.12382519E+04</rscale>
<asrwt>0</asrwt>
<pdfrwt beam="1">  1        2 0.74783530E-01 0.12382519E+04</pdfrwt>
<pdfrwt beam="2">  1       -2 0.12131802E+00 0.12382519E+04</pdfrwt>
<totfact> 0.32353271E+01</totfact>
</mgrwt>
</event>
<event>
12    1  0.1755460E-007  0.2172532E+04  0.7818608E-02  0.8529948E-01
         -1   -1    0    0    0  501 -0.00000000000E+00  0.00000000000E+00  0.55643942994E+03  0.55643942994E+03  0.00000000000E+00 0.  1.
          1   -1    0    0  501    0  0.00000000000E+00 -0.00000000000E+00 -0.21205800152E+04  0.21205800152E+04  0.00000000000E+00 0. -1.
         23    2    1    2    0    0 -0.42891188065E+03  0.16821054832E+02 -0.16146527560E+04  0.16732715031E+04  0.92117594854E+02 0.  0.
        254    2    1    2    0    0  0.42891188065E+03 -0.16821054832E+02  0.50512170750E+02  0.10037479421E+04  0.90593051750E+03 0.  0.
        -24    2    4    4    0    0  0.34578418999E+03  0.11004058169E+03  0.44110783247E+03  0.57720037623E+03  0.83117499920E+02 0.  0.
         24    2    4    4    0    0  0.83127690662E+02 -0.12686163653E+03 -0.39059566172E+03  0.42654756582E+03  0.79835876511E+02 0.  0.
         13    1    3    3    0    0 -0.13369456436E+02 -0.37104677934E+01 -0.15097896008E+03  0.15161515862E+03  0.00000000000E+00 0.  1.
        -13    1    3    3    0    0 -0.41554242421E+03  0.20531522625E+02 -0.14636737960E+04  0.15216563445E+04  0.00000000000E+00 0. -1.
          4    1    6    6  502    0  0.56220054046E+02 -0.41339503877E+02 -0.96486584864E+02  0.11907690841E+03  0.00000000000E+00 0. -1.
          3    1    5    5  503    0  0.15698194511E+03  0.48169339534E+02  0.26474856994E+03  0.31153719144E+03  0.00000000000E+00 0. -1.
         -4    1    5    5    0  503  0.18880224488E+03  0.61871242159E+02  0.17635926253E+03  0.26566318480E+03  0.00000000000E+00 0.  1.
         -3    1    6    6    0  502  0.26907636617E+02 -0.85522132649E+02 -0.29410907686E+03  0.30747065741E+03  0.00000000000E+00 0.  1.
<mgrwt>
<rscale>  0 0.21725325E+04</rscale>
<asrwt>0</asrwt>
<pdfrwt beam="1">  1        1 0.32624308E+00 0.21725325E+04</pdfrwt>
<pdfrwt beam="2">  1       -1 0.85606066E-01 0.21725325E+04</pdfrwt>
<totfact> 0.30397386E+00</totfact>
</mgrwt>
</event>
<event>
12    1  0.1755460E-007  0.1456245E+04  0.7818608E-02  0.8914082E-01
         -2   -1    0    0    0  501 -0.00000000000E+00  0.00000000000E+00  0.46278744238E+03  0.46278744238E+03  0.00000000000E+00 0.  1.
          2   -1    0    0  501    0  0.00000000000E+00 -0.00000000000E+00 -0.11455852575E+04  0.11455852575E+04  0.00000000000E+00 0. -1.
         23    2    1    2    0    0 -0.25154670561E+03  0.11342688049E+03  0.17161360840E+03  0.33761009151E+03  0.91585702958E+02 0.  0.
        254    2    1    2    0    0  0.25154670561E+03 -0.11342688049E+03 -0.85441142357E+03  0.12707626084E+04  0.89926487972E+03 0.  0.
        -24    2    4    4    0    0 -0.18946860719E+03 -0.33375394672E+03 -0.57965980263E+03  0.70025917218E+03  0.84067659515E+02 0.  0.
         24    2    4    4    0    0  0.44101531280E+03  0.22032706623E+03 -0.27475162094E+03  0.57050343624E+03  0.83349836911E+02 0.  0.
         13    1    3    3    0    0 -0.94321277878E+02  0.59034492319E+02  0.11946832457E+03  0.16326130993E+03  0.00000000000E+00 0.  1.
        -13    1    3    3    0    0 -0.15722542773E+03  0.54392388166E+02  0.52145283828E+02  0.17434878158E+03  0.00000000000E+00 0. -1.
          4    1    6    6  502    0  0.32608378638E+03  0.18485821294E+03 -0.17246015354E+03  0.41260840901E+03  0.00000000000E+00 0. -1.
          1    1    5    5  503    0 -0.50618126686E+02 -0.11903253279E+03 -0.26433686341E+03  0.29428713185E+03  0.00000000000E+00 0. -1.
         -2    1    5    5    0  503 -0.13885048051E+03 -0.21472141393E+03 -0.31532293922E+03  0.40597204033E+03  0.00000000000E+00 0.  1.
         -3    1    6    6    0  502  0.11493152642E+03  0.35468853294E+02 -0.10229146740E+03  0.15789502722E+03  0.00000000000E+00 0.  1.
<mgrwt>
<rscale>  0 0.14562451E+04</rscale>
<asrwt>0</asrwt>
<pdfrwt beam="1">  1        2 0.17624388E+00 0.14562451E+04</pdfrwt>
<pdfrwt beam="2">  1       -2 0.71198068E-01 0.14562451E+04</pdfrwt>
<totfact> 0.35471302E+01</totfact>
</mgrwt>
</event>
<event>
12    1  0.1755460E-007  0.1922848E+04  0.7818608E-02  0.8643566E-01
          2   -1    0    0  501    0  0.00000000000E+00  0.00000000000E+00  0.13388807933E+04  0.13388807933E+04  0.00000000000E+00 0. -1.
         -2   -1    0    0    0  501 -0.00000000000E+00 -0.00000000000E+00 -0.69037983592E+03  0.69037983592E+03  0.00000000000E+00 0.  1.
         23    2    1    2    0    0 -0.13541729701E+03 -0.11001541878E+03  0.10228833572E+04  0.10416225351E+04  0.90806973084E+02 0.  0.
        254    2    1    2    0    0  0.13541729701E+03  0.11001541878E+03 -0.37438239982E+03  0.98763809418E+03  0.89712072047E+03 0.  0.
        -24    2    4    4    0    0  0.49231600810E+03  0.14984600323E+03 -0.10252157919E+03  0.53082715085E+03  0.80236608611E+02 0.  0.
         24    2    4    4    0    0 -0.35689871109E+03 -0.39830584446E+02 -0.27186082063E+03  0.45681094334E+03  0.76189019700E+02 0.  0.
         13    1    3    3    0    0 -0.11765567546E+03 -0.12517434787E+03  0.93719269210E+03  0.95280722996E+03  0.00000000000E+00 0. -1.
        -13    1    3    3    0    0 -0.17761621544E+02  0.15158929091E+02  0.85690665128E+02  0.88815305106E+02  0.00000000000E+00 0.  1.
          4    1    6    6  502    0 -0.25574949094E+03 -0.10763880993E+02 -0.22800116983E+03  0.34279468592E+03  0.00000000000E+00 0. -1.
          3    1    5    5  503    0  0.31748382012E+03  0.11702216429E+03 -0.33496431957E+02  0.34001790236E+03  0.00000000000E+00 0. -1.
         -4    1    5    5    0  503  0.17483218798E+03  0.32823838937E+02 -0.69025147233E+02  0.19080924849E+03  0.00000000000E+00 0.  1.
         -3    1    6    6    0  502 -0.10114922016E+03 -0.29066703453E+02 -0.43859650794E+02  0.11401625742E+03  0.00000000000E+00 0.  1.
<mgrwt>
<rscale>  0 0.19228482E+04</rscale>
<asrwt>0</asrwt>
<pdfrwt beam="1">  1        2 0.20598166E+00 0.19228482E+04</pdfrwt>
<pdfrwt beam="2">  1       -2 0.10621228E+00 0.19228482E+04</pdfrwt>
<totfact> 0.10491982E+01</totfact>
</mgrwt>
</event>
<event>
12    1  0.1755460E-007  0.1990895E+04  0.7818608E-02  0.8610889E-01
          2   -1    0    0  501    0  0.00000000000E+00  0.00000000000E+00  0.15284413104E+04  0.15284413104E+04  0.00000000000E+00 0.  1.
         -2   -1    0    0    0  501 -0.00000000000E+00 -0.00000000000E+00 -0.64831810077E+03  0.64831810077E+03  0.00000000000E+00 0. -1.
         23    2    1    2    0    0  0.98711604223E+02 -0.49289857069E+03 -0.31529587675E+03  0.60029171172E+03  0.90805657682E+02 0.  0.
        254    2    1    2    0    0 -0.98711604223E+02  0.49289857069E+03  0.11954190864E+04  0.15764676994E+04  0.89639870231E+03 0.  0.
        -24    2    4    4    0    0 -0.53605883734E+01  0.35381613964E+03  0.13093548173E+04  0.13585278150E+04  0.77286415428E+02 0.  0.
         24    2    4    4    0    0 -0.93351015849E+02  0.13908243105E+03 -0.11393573093E+03  0.21793988442E+03  0.80362352207E+02 0.  0.
         11    1    3    3    0    0  0.10534460580E+03 -0.47003775282E+03 -0.31664129368E+03  0.57645007062E+03  0.00000000000E+00 0. -1.
        -11    1    3    3    0    0 -0.66330015811E+01 -0.22860817872E+02  0.13454169367E+01  0.23841641103E+02  0.00000000000E+00 0.  1.
          2    1    6    6  502    0 -0.54745333812E+02  0.13550303014E+03 -0.98336351291E+02  0.17614812158E+03  0.00000000000E+00 0. -1.
          3    1    5    5  503    0 -0.32469730372E+02  0.14211833997E+03  0.61900822751E+03  0.63594267955E+03  0.00000000000E+00 0. -1.
         -4    1    5    5    0  503  0.27109141999E+02  0.21169779967E+03  0.69034658978E+03  0.72258513546E+03  0.00000000000E+00 0.  1.
         -1    1    6    6    0  502 -0.38605682037E+02  0.35794009150E+01 -0.15599379637E+02  0.41791762843E+02  0.00000000000E+00 0.  1.
<mgrwt>
<rscale>  0 0.19908954E+04</rscale>
<asrwt>0</asrwt>
<pdfrwt beam="1">  1        2 0.23514482E+00 0.19908954E+04</pdfrwt>
<pdfrwt beam="2">  1       -2 0.99741246E-01 0.19908954E+04</pdfrwt>
<totfact> 0.94536754E+00</totfact>
</mgrwt>
</event>
<event>
12    1  0.1755460E-007  0.3789954E+04  0.7818608E-02  0.8048314E-01
          2   -1    0    0  501    0  0.00000000000E+00  0.00000000000E+00  0.30229100467E+04  0.30229100467E+04  0.00000000000E+00 0. -1.
         -2   -1    0    0    0  501 -0.00000000000E+00 -0.00000000000E+00 -0.11879073477E+04  0.11879073477E+04  0.00000000000E+00 0.  1.
         23    2    1    2    0    0  0.95733059842E+03 -0.13880191904E+04  0.20800365460E+03  0.17013551466E+04  0.90910213421E+02 0.  0.
        254    2    1    2    0    0 -0.95733059842E+03  0.13880191904E+04  0.16269990444E+04  0.25094622478E+04  0.89844072438E+03 0.  0.
        -24    2    4    4    0    0 -0.30438296054E+03  0.34378490860E+03 -0.16764026386E+01  0.46604690276E+03  0.79748700280E+02 0.  0.
         24    2    4    4    0    0 -0.65294763788E+03  0.10442342818E+04  0.16286754470E+04  0.20434153451E+04  0.78719169208E+02 0.  0.
         13    1    3    3    0    0  0.29108047678E+03 -0.44918897762E+03  0.10582351243E+03  0.54561634631E+03  0.00000000000E+00 0. -1.
        -13    1    3    3    0    0  0.66625012164E+03 -0.93883021282E+03  0.10218014217E+03  0.11557388003E+04  0.00000000000E+00 0.  1.
          2    1    6    6  502    0 -0.22622246624E+03  0.30063534069E+03  0.52379270329E+03  0.64491628008E+03  0.00000000000E+00 0. -1.
          3    1    5    5  503    0 -0.93834284653E+02  0.14175347292E+03  0.29673969136E+02  0.17256727530E+03  0.00000000000E+00 0. -1.
         -4    1    5    5    0  503 -0.21054867589E+03  0.20203143568E+03 -0.31350371774E+02  0.29347962746E+03  0.00000000000E+00 0.  1.
         -1    1    6    6    0  502 -0.42672517164E+03  0.74359894115E+03  0.11048827437E+04  0.13984990650E+04  0.00000000000E+00 0.  1.
<mgrwt>
<rscale>  0 0.37899536E+04</rscale>
<asrwt>0</asrwt>
<pdfrwt beam="1">  1        2 0.46506308E+00 0.37899536E+04</pdfrwt>
<pdfrwt beam="2">  1       -2 0.18275498E+00 0.37899536E+04</pdfrwt>
<totfact> 0.23445328E-01</totfact>
</mgrwt>
</event>
<event>
12    1  0.1755460E-007  0.4236112E+04  0.7818608E-02  0.7958538E-01
          1   -1    0    0  501    0  0.00000000000E+00  0.00000000000E+00  0.13850778953E+04  0.13850778953E+04  0.00000000000E+00 0. -1.
         -1   -1    0    0    0  501 -0.00000000000E+00 -0.00000000000E+00 -0.32389238873E+04  0.32389238873E+04  0.00000000000E+00 0.  1.
         23    2    1    2    0    0  0.19507233914E+04 -0.14333423944E+03 -0.14416145362E+04  0.24315096528E+04  0.90112523223E+02 0.  0.
        254    2    1    2    0    0 -0.19507233914E+04  0.14333423944E+03 -0.41223145578E+03  0.21924921297E+04  0.90067780690E+03 0.  0.
        -24    2    4    4    0    0 -0.19015960953E+04 -0.48924674076E+02 -0.49073093295E+03  0.19659348332E+04  0.74977239773E+02 0.  0.
         24    2    4    4    0    0 -0.49127296142E+02  0.19225891352E+03  0.78499477173E+02  0.22655729656E+03  0.76085870268E+02 0.  0.
         13    1    3    3    0    0  0.26625364000E+03 -0.33859918855E+02 -0.16443004492E+03  0.31476139311E+03  0.00000000000E+00 0. -1.
        -13    1    3    3    0    0  0.16844697514E+04 -0.10947432059E+03 -0.12771844913E+04  0.21167482597E+04  0.00000000000E+00 0.  1.
          4    1    6    6  502    0  0.13548238987E+02  0.41811120212E+01  0.35491508832E+01  0.14616187922E+02  0.00000000000E+00 0. -1.
          1    1    5    5  503    0 -0.55224054033E+03  0.20393261369E+01 -0.11167851350E+03  0.56342334316E+03  0.00000000000E+00 0. -1.
         -2    1    5    5    0  503 -0.13493555549E+04 -0.50964000213E+02 -0.37905241945E+03  0.14025114900E+04  0.00000000000E+00 0.  1.
         -3    1    6    6    0  502 -0.62675535129E+02  0.18807780150E+03  0.74950326290E+02  0.21194110864E+03  0.00000000000E+00 0.  1.
<mgrwt>
<rscale>  0 0.42361123E+04</rscale>
<asrwt>0</asrwt>
<pdfrwt beam="1">  1        1 0.21308891E+00 0.42361123E+04</pdfrwt>
<pdfrwt beam="2">  1       -1 0.49829597E+00 0.42361123E+04</pdfrwt>
<totfact> 0.92554665E-03</totfact>
</mgrwt>
</event>
<event>
12    1  0.1755460E-007  0.2091863E+04  0.7818608E-02  0.8564836E-01
         -1   -1    0    0    0  501 -0.00000000000E+00  0.00000000000E+00  0.15045973921E+04  0.15045973921E+04  0.00000000000E+00 0.  1.
          1   -1    0    0  501    0  0.00000000000E+00 -0.00000000000E+00 -0.72708635366E+03  0.72708635366E+03  0.00000000000E+00 0. -1.
         23    2    1    2    0    0 -0.72161148761E+03 -0.58736695034E+02 -0.15563552781E+03  0.74607033407E+03  0.90693921903E+02 0.  0.
        254    2    1    2    0    0  0.72161148761E+03  0.58736695034E+02  0.93314656628E+03  0.14856134117E+04  0.90117232345E+03 0.  0.
        -24    2    4    4    0    0  0.16236386444E+03 -0.16842625188E+03 -0.11343179050E+03  0.27474974973E+03  0.88832578946E+02 0.  0.
         24    2    4    4    0    0  0.55924762317E+03  0.22716294691E+03  0.10465783568E+04  0.12108636620E+04  0.80645164680E+02 0.  0.
         13    1    3    3    0    0 -0.71209091891E+03 -0.69217488354E+02 -0.15381034196E+03  0.73179379526E+03  0.00000000000E+00 0. -1.
        -13    1    3    3    0    0 -0.95205686959E+01  0.10480793320E+02 -0.18251858494E+01  0.14276538807E+02  0.00000000000E+00 0.  1.
          4    1    6    6  502    0  0.14223824081E+03  0.84513466506E+02  0.33957722143E+03  0.37773923874E+03  0.00000000000E+00 0. -1.
          1    1    5    5  503    0  0.29371646606E+02 -0.85812761960E+02 -0.21580045590E+02  0.93232087326E+02  0.00000000000E+00 0. -1.
         -2    1    5    5    0  503  0.13299221783E+03 -0.82613489917E+02 -0.91851744913E+02  0.18151766240E+03  0.00000000000E+00 0.  1.
         -3    1    6    6    0  502  0.41700938236E+03  0.14264948041E+03  0.70700113536E+03  0.83312442326E+03  0.00000000000E+00 0.  1.
<mgrwt>
<rscale>  0 0.20918625E+04</rscale>
<asrwt>0</asrwt>
<pdfrwt beam="1">  1        1 0.11185944E+00 0.20918625E+04</pdfrwt>
<pdfrwt beam="2">  1       -1 0.23147652E+00 0.20918625E+04</pdfrwt>
<totfact> 0.21828199E+00</totfact>
</mgrwt>
</event>
<event>
12    1  0.1755460E-007  0.3891872E+04  0.7818608E-02  0.8026722E-01
          1   -1    0    0  501    0  0.00000000000E+00  0.00000000000E+00  0.20755137407E+04  0.20755137407E+04  0.00000000000E+00 0. -1.
         -1   -1    0    0    0  501 -0.00000000000E+00 -0.00000000000E+00 -0.18244479205E+04  0.18244479205E+04  0.00000000000E+00 0.  1.
         23    2    1    2    0    0  0.31507414292E+03 -0.54736350572E+03 -0.16132211156E+04  0.17348488841E+04  0.91322285660E+02 0.  0.
        254    2    1    2    0    0 -0.31507414292E+03  0.54736350572E+03  0.18642869358E+04  0.21651127771E+04  0.90181430215E+03 0.  0.
        -24    2    4    4    0    0 -0.10326241414E+02  0.77411841425E+02 -0.81581883670E+02  0.13873533383E+03  0.80577072770E+02 0.  0.
         24    2    4    4    0    0 -0.30474790150E+03  0.46995166430E+03  0.19458688194E+04  0.20263774432E+04  0.77937344591E+02 0.  0.
         13    1    3    3    0    0  0.29839307400E+03 -0.47820755990E+03 -0.13696510686E+04  0.14811026118E+04  0.00000000000E+00 0. -1.
        -13    1    3    3    0    0  0.16681068922E+02 -0.69155945823E+02 -0.24357004707E+03  0.25374627235E+03  0.00000000000E+00 0.  1.
          2    1    6    6  502    0 -0.27889958536E+03  0.44951507087E+03  0.18754455913E+04  0.19486264248E+04  0.00000000000E+00 0. -1.
          1    1    5    5  503    0  0.42818242236E+01  0.47167515383E+02 -0.92079321183E+02  0.10354568999E+03  0.00000000000E+00 0. -1.
         -4    1    5    5    0  503 -0.14608065638E+02  0.30244326042E+02  0.10497437513E+02  0.35189643843E+02  0.00000000000E+00 0.  1.
         -3    1    6    6    0  502 -0.25848316142E+02  0.20436593430E+02  0.70423228188E+02  0.77751018430E+02  0.00000000000E+00 0.  1.
<mgrwt>
<rscale>  0 0.38918719E+04</rscale>
<asrwt>0</asrwt>
<pdfrwt beam="1">  1        1 0.31930981E+00 0.38918719E+04</pdfrwt>
<pdfrwt beam="2">  1       -1 0.28068430E+00 0.38918719E+04</pdfrwt>
<totfact> 0.92119493E-02</totfact>
</mgrwt>
</event>
<event>
12    1  0.1755460E-007  0.1371933E+04  0.7818608E-02  0.8974389E-01
         -2   -1    0    0    0  501 -0.00000000000E+00  0.00000000000E+00  0.54174269417E+03  0.54174269417E+03  0.00000000000E+00 0.  1.
          2   -1    0    0  501    0  0.00000000000E+00 -0.00000000000E+00 -0.86858610700E+03  0.86858610700E+03  0.00000000000E+00 0. -1.
         23    2    1    2    0    0  0.37180107381E+03  0.95652286925E+01 -0.18068522756E+03  0.42332209834E+03  0.90702345038E+02 0.  0.
        254    2    1    2    0    0 -0.37180107381E+03 -0.95652286925E+01 -0.14615818527E+03  0.98700670284E+03  0.90249237351E+03 0.  0.
        -24    2    4    4    0    0  0.13950946734E+03 -0.21580474783E+03  0.19635947853E+03  0.33328795139E+03  0.80555776156E+02 0.  0.
         24    2    4    4    0    0 -0.51131054114E+03  0.20623951914E+03 -0.34251766380E+03  0.65371875145E+03  0.77824464284E+02 0.  0.
         13    1    3    3    0    0  0.35013570074E+03  0.84848253877E+01 -0.19140281596E+03  0.39912659540E+03  0.00000000000E+00 0. -1.
        -13    1    3    3    0    0  0.21665373064E+02  0.10804033048E+01  0.10717588398E+02  0.24195502937E+02  0.00000000000E+00 0.  1.
          4    1    6    6  502    0 -0.17997916140E+03  0.60541872118E+02 -0.16022397131E+03  0.24845429721E+03  0.00000000000E+00 0. -1.
          1    1    5    5  503    0  0.14790537202E+03 -0.19817448308E+03  0.19251303237E+03  0.31338537370E+03  0.00000000000E+00 0. -1.
         -2    1    5    5    0  503 -0.83959046886E+01 -0.17630264748E+02  0.38464461610E+01  0.19902577690E+02  0.00000000000E+00 0.  1.
         -3    1    6    6    0  502 -0.33133137974E+03  0.14569764702E+03 -0.18229369249E+03  0.40526445424E+03  0.00000000000E+00 0.  1.
<mgrwt>
<rscale>  0 0.13719332E+04</rscale>
<asrwt>0</asrwt>
<pdfrwt beam="1">  1        2 0.13362863E+00 0.13719332E+04</pdfrwt>
<pdfrwt beam="2">  1       -2 0.83345030E-01 0.13719332E+04</pdfrwt>
<totfact> 0.37872497E+01</totfact>
</mgrwt>
</event>
<event>
12    1  0.1755460E-007  0.1883309E+04  0.7818608E-02  0.8663209E-01
         -2   -1    0    0    0  501 -0.00000000000E+00  0.00000000000E+00  0.70053960634E+03  0.70053960634E+03  0.00000000000E+00 0.  1.
          2   -1    0    0  501    0  0.00000000000E+00 -0.00000000000E+00 -0.12657576608E+04  0.12657576608E+04  0.00000000000E+00 0. -1.
         23    2    1    2    0    0 -0.15445317062E+03  0.74077416196E+02  0.51626072416E+03  0.55167585646E+03  0.92075348384E+02 0.  0.
        254    2    1    2    0    0  0.15445317062E+03 -0.74077416196E+02 -0.10814787786E+04  0.14146214107E+04  0.89566407846E+03 0.  0.
        -24    2    4    4    0    0  0.11343533550E+03 -0.29094428852E+03 -0.11293945002E+04  0.11743602582E+04  0.77935386743E+02 0.  0.
         24    2    4    4    0    0  0.41017835123E+02  0.21686687232E+03  0.47915721596E+02  0.24026115250E+03  0.81949996448E+02 0.  0.
         11    1    3    3    0    0 -0.14609667400E+03  0.89961353184E+02  0.41890313273E+03  0.45267771961E+03  0.00000000000E+00 0.  1.
        -11    1    3    3    0    0 -0.83564966284E+01 -0.15883936988E+02  0.97357591429E+02  0.98998136846E+02  0.00000000000E+00 0. -1.
          4    1    6    6  502    0  0.64772620551E+00  0.29952454065E+02  0.38529396824E+02  0.48806592519E+02  0.00000000000E+00 0. -1.
          3    1    5    5  503    0  0.79268225296E+01 -0.47304586861E+02 -0.29110721669E+03  0.29503215089E+03  0.00000000000E+00 0. -1.
         -2    1    5    5    0  503  0.10550851297E+03 -0.24363970166E+03 -0.83828728351E+03  0.87932810727E+03  0.00000000000E+00 0.  1.
         -3    1    6    6    0  502  0.40370108917E+02  0.18691441826E+03  0.93863247723E+01  0.19145455998E+03  0.00000000000E+00 0.  1.
<mgrwt>
<rscale>  0 0.18833092E+04</rscale>
<asrwt>0</asrwt>
<pdfrwt beam="1">  1        2 0.19473195E+00 0.18833092E+04</pdfrwt>
<pdfrwt beam="2">  1       -2 0.10777532E+00 0.18833092E+04</pdfrwt>
<totfact> 0.11210369E+01</totfact>
</mgrwt>
</event>
<event>
12    1  0.1755460E-007  0.2210172E+04  0.7818608E-02  0.8514206E-01
          2   -1    0    0  501    0  0.00000000000E+00  0.00000000000E+00  0.19462504773E+04  0.19462504773E+04  0.00000000000E+00 0. -1.
         -2   -1    0    0    0  501 -0.00000000000E+00 -0.00000000000E+00 -0.62747083354E+03  0.62747083354E+03  0.00000000000E+00 0.  1.
         23    2    1    2    0    0 -0.53521380241E+03  0.55736566128E+03  0.11323886725E+04  0.13739349541E+04  0.91010208377E+02 0.  0.
        254    2    1    2    0    0  0.53521380241E+03 -0.55736566128E+03  0.18639097127E+03  0.11997863567E+04  0.89868538033E+03 0.  0.
        -24    2    4    4    0    0  0.27944577692E+03  0.68425192432E+02  0.38802812122E+03  0.48965664029E+03  0.80161420462E+02 0.  0.
         24    2    4    4    0    0  0.25576802549E+03 -0.62579085371E+03 -0.20163714995E+03  0.71012971638E+03  0.81210826816E+02 0.  0.
         13    1    3    3    0    0 -0.43341757708E+03  0.42971598024E+03  0.94981505699E+03  0.11290063163E+04  0.00000000000E+00 0. -1.
        -13    1    3    3    0    0 -0.10179622532E+03  0.12764968104E+03  0.18257361547E+03  0.24492863782E+03  0.00000000000E+00 0.  1.
          2    1    6    6  502    0  0.78010870388E+02 -0.19296581194E+03 -0.10176701944E+03  0.23168518883E+03  0.00000000000E+00 0. -1.
          3    1    5    5  503    0  0.25016090842E+02  0.42255778848E+01  0.58001592194E+01  0.26025029423E+02  0.00000000000E+00 0. -1.
         -4    1    5    5    0  503  0.25442968607E+03  0.64199614547E+02  0.38222796200E+03  0.46363161087E+03  0.00000000000E+00 0.  1.
         -3    1    6    6    0  502  0.17775715510E+03 -0.43282504177E+03 -0.99870130503E+02  0.47844452755E+03  0.00000000000E+00 0.  1.
<mgrwt>
<rscale>  0 0.22101723E+04</rscale>
<asrwt>0</asrwt>
<pdfrwt beam="1">  1        2 0.29942315E+00 0.22101723E+04</pdfrwt>
<pdfrwt beam="2">  1       -2 0.96533975E-01 0.22101723E+04</pdfrwt>
<totfact> 0.58673333E+00</totfact>
</mgrwt>
</event>
<event>
12    1  0.1755460E-007  0.1530858E+04  0.7818608E-02  0.8864188E-01
         -1   -1    0    0    0  501 -0.00000000000E+00  0.00000000000E+00  0.48762910911E+03  0.48762910911E+03  0.00000000000E+00 0.  1.
          1   -1    0    0  501    0  0.00000000000E+00 -0.00000000000E+00 -0.12014901877E+04  0.12014901877E+04  0.00000000000E+00 0. -1.
         23    2    1    2    0    0  0.45992964306E+03  0.73138081545E+02 -0.56353223347E+02  0.47780783001E+03  0.90775443276E+02 0.  0.
        254    2    1    2    0    0 -0.45992964306E+03 -0.73138081545E+02 -0.65750785525E+03  0.12113114668E+04  0.90447467314E+03 0.  0.
        -24    2    4    4    0    0 -0.67626827111E+03 -0.37862661321E+02 -0.69795266550E+03  0.97563858839E+03  0.77203472970E+02 0.  0.
         24    2    4    4    0    0  0.21633862805E+03 -0.35275420223E+02  0.40444810255E+02  0.23567287841E+03  0.76545187194E+02 0.  0.
         13    1    3    3    0    0  0.43767027336E+03  0.47607488983E+02 -0.47560035627E+02  0.44281338979E+03  0.00000000000E+00 0.  1.
        -13    1    3    3    0    0  0.22259369698E+02  0.25530592561E+02 -0.87931877198E+01  0.34994440218E+02  0.00000000000E+00 0. -1.
          2    1    6    6  502    0  0.23327675980E+02 -0.23101352398E+02  0.25743743434E+02  0.41720417966E+02  0.00000000000E+00 0. -1.
          1    1    5    5  503    0 -0.10229287717E+03 -0.32784747335E+02 -0.99735464887E+02  0.14658047391E+03  0.00000000000E+00 0. -1.
         -2    1    5    5    0  503 -0.57397539394E+03 -0.50779139863E+01 -0.59821720061E+03  0.82905811447E+03  0.00000000000E+00 0.  1.
         -1    1    6    6    0  502  0.19301095207E+03 -0.12174067826E+02  0.14701066821E+02  0.19395246044E+03  0.00000000000E+00 0.  1.
<mgrwt>
<rscale>  0 0.15308580E+04</rscale>
<asrwt>0</asrwt>
<pdfrwt beam="1">  1        1 0.18484464E+00 0.15308580E+04</pdfrwt>
<pdfrwt beam="2">  1       -1 0.75019864E-01 0.15308580E+04</pdfrwt>
<totfact> 0.18379946E+01</totfact>
</mgrwt>
</event>
<event>
12    1  0.1755460E-007  0.1258586E+04  0.7818608E-02  0.9063067E-01
          1   -1    0    0  501    0  0.00000000000E+00  0.00000000000E+00  0.92046910608E+03  0.92046910608E+03  0.00000000000E+00 0. -1.
         -1   -1    0    0    0  501 -0.00000000000E+00 -0.00000000000E+00 -0.43022592406E+03  0.43022592406E+03  0.00000000000E+00 0.  1.
         23    2    1    2    0    0 -0.27785739105E+03 -0.13613521434E+03  0.10423540931E+03  0.33915120316E+03  0.91765961589E+02 0.  0.
        254    2    1    2    0    0  0.27785739105E+03  0.13613521434E+03  0.38600777271E+03  0.10115438270E+04  0.88231592242E+03 0.  0.
        -24    2    4    4    0    0  0.27024248700E+02 -0.15010360065E+03  0.55990820350E+03  0.58555392131E+03  0.78197170435E+02 0.  0.
         24    2    4    4    0    0  0.25083314236E+03  0.28623881499E+03 -0.17390043079E+03  0.42598990567E+03  0.79850581691E+02 0.  0.
         13    1    3    3    0    0 -0.12398127051E+03 -0.42813716797E+02 -0.30205353067E-01  0.13116543255E+03  0.00000000000E+00 0.  1.
        -13    1    3    3    0    0 -0.15387612055E+03 -0.93321497540E+02  0.10426561466E+03  0.20798577062E+03  0.00000000000E+00 0. -1.
          4    1    6    6  502    0  0.23240263348E+03  0.25217678178E+03 -0.17914629511E+03  0.38690762253E+03  0.00000000000E+00 0. -1.
          3    1    5    5  503    0  0.11991994029E+02 -0.13574872176E+03  0.53942093534E+03  0.55636900422E+03  0.00000000000E+00 0. -1.
         -4    1    5    5    0  503  0.15032254670E+02 -0.14354878887E+02  0.20487268166E+02  0.29184917084E+02  0.00000000000E+00 0.  1.
         -3    1    6    6    0  502  0.18430508876E+02  0.34062033203E+02  0.52458643171E+01  0.39082283145E+02  0.00000000000E+00 0.  1.
<mgrwt>
<rscale>  0 0.12585860E+04</rscale>
<asrwt>0</asrwt>
<pdfrwt beam="1">  1        1 0.14161063E+00 0.12585860E+04</pdfrwt>
<pdfrwt beam="2">  1       -1 0.66188604E-01 0.12585860E+04</pdfrwt>
<totfact> 0.39924072E+01</totfact>
</mgrwt>
</event>
<event>
12    1  0.1755460E-007  0.1701891E+04  0.7818608E-02  0.8760287E-01
         -1   -1    0    0    0  501 -0.00000000000E+00  0.00000000000E+00  0.11042822689E+04  0.11042822689E+04  0.00000000000E+00 0.  1.
          1   -1    0    0  501    0  0.00000000000E+00 -0.00000000000E+00 -0.65572731319E+03  0.65572731319E+03  0.00000000000E+00 0. -1.
         23    2    1    2    0    0  0.53044452521E+03  0.28636017352E+03  0.23105605739E+03  0.65230928608E+03  0.93525182404E+02 0.  0.
        254    2    1    2    0    0 -0.53044452521E+03 -0.28636017352E+03  0.21749889834E+03  0.11077002960E+04  0.90350463847E+03 0.  0.
        -24    2    4    4    0    0  0.57884280595E+02 -0.44301985432E+03 -0.63337274205E+01  0.45393838834E+03  0.80017267176E+02 0.  0.
         24    2    4    4    0    0 -0.58832880581E+03  0.15665968080E+03  0.22383262577E+03  0.65376190769E+03  0.81428178473E+02 0.  0.
         13    1    3    3    0    0  0.20316589282E+03  0.12245138470E+03  0.44028630880E+02  0.24126591545E+03  0.00000000000E+00 0. -1.
        -13    1    3    3    0    0  0.32727863239E+03  0.16390878882E+03  0.18702742651E+03  0.41104337063E+03  0.00000000000E+00 0.  1.
          4    1    6    6  502    0 -0.44018095094E+03  0.82602749725E+02  0.17770809010E+03  0.48183259449E+03  0.00000000000E+00 0. -1.
          3    1    5    5  503    0  0.76149220713E+02 -0.29875893636E+03  0.15068614623E+01  0.30831457394E+03  0.00000000000E+00 0. -1.
         -4    1    5    5    0  503 -0.18264940118E+02 -0.14426091796E+03 -0.78405888827E+01  0.14562381440E+03  0.00000000000E+00 0.  1.
         -3    1    6    6    0  502 -0.14814785487E+03  0.74056931080E+02  0.46124535662E+02  0.17192931319E+03  0.00000000000E+00 0.  1.
<mgrwt>
<rscale>  0 0.17018908E+04</rscale>
<asrwt>0</asrwt>
<pdfrwt beam="1">  1        1 0.10088113E+00 0.17018908E+04</pdfrwt>
<pdfrwt beam="2">  1       -1 0.16988958E+00 0.17018908E+04</pdfrwt>
<totfact> 0.70507892E+00</totfact>
</mgrwt>
</event>
<event>
12    1  0.1755460E-007  0.1203995E+04  0.7818608E-02  0.9109367E-01
          4   -1    0    0  501    0  0.00000000000E+00  0.00000000000E+00  0.78316434711E+03  0.78316434711E+03  0.00000000000E+00 0. -1.
         -4   -1    0    0    0  501 -0.00000000000E+00 -0.00000000000E+00 -0.46273942917E+03  0.46273942917E+03  0.00000000000E+00 0.  1.
         23    2    1    2    0    0  0.12315389870E+02  0.10179628633E+03  0.21922702833E+03  0.25828916621E+03  0.90214470526E+02 0.  0.
        254    2    1    2    0    0 -0.12315389870E+02 -0.10179628633E+03  0.10119788961E+03  0.98761461006E+03  0.97705038376E+03 0.  0.
        -24    2    4    4    0    0  0.43446520493E+03 -0.91580469596E+02 -0.14119972406E+03  0.47288198619E+03  0.80827062821E+02 0.  0.
         24    2    4    4    0    0 -0.44678059480E+03 -0.10215816738E+02  0.24239761366E+03  0.51473262387E+03  0.80472406186E+02 0.  0.
         11    1    3    3    0    0 -0.29805501610E+02  0.27277088377E+02  0.29132182841E+02  0.49810556649E+02  0.00000000000E+00 0.  1.
        -11    1    3    3    0    0  0.42120891481E+02  0.74519197957E+02  0.19009484549E+03  0.20847860957E+03  0.00000000000E+00 0. -1.
          2    1    6    6  502    0 -0.33918811223E+03 -0.27552707340E+02  0.15017510960E+03  0.37196813130E+03  0.00000000000E+00 0. -1.
          1    1    5    5  503    0  0.14243204910E+03  0.73938555989E+01 -0.36208178280E+02  0.14714819022E+03  0.00000000000E+00 0. -1.
         -2    1    5    5    0  503  0.29203315584E+03 -0.98974325195E+02 -0.10499154578E+03  0.32573379597E+03  0.00000000000E+00 0.  1.
         -1    1    6    6    0  502 -0.10759248258E+03  0.17336890602E+02  0.92222504060E+02  0.14276449257E+03  0.00000000000E+00 0.  1.
<mgrwt>
<rscale>  0 0.12039951E+04</rscale>
<asrwt>0</asrwt>
<pdfrwt beam="1">  1        4 0.12048682E+00 0.12039951E+04</pdfrwt>
<pdfrwt beam="2">  1       -4 0.71190682E-01 0.12039951E+04</pdfrwt>
<totfact> 0.18594454E+00</totfact>
</mgrwt>
</event>
<event>
12    1  0.1755460E-007  0.2471620E+04  0.7818608E-02  0.8413166E-01
         -3   -1    0    0    0  501 -0.00000000000E+00  0.00000000000E+00  0.14536436570E+04  0.14536436570E+04  0.00000000000E+00 0.  1.
          3   -1    0    0  501    0  0.00000000000E+00 -0.00000000000E+00 -0.10506195424E+04  0.10506195424E+04  0.00000000000E+00 0. -1.
         23    2    1    2    0    0 -0.29870316125E+03 -0.76919968678E+02 -0.86351208253E+03  0.92156422522E+03  0.92126241744E+02 0.  0.
        254    2    1    2    0    0  0.29870316125E+03  0.76919968678E+02  0.12665361971E+04  0.15826989742E+04  0.89759781873E+03 0.  0.
        -24    2    4    4    0    0  0.70732540939E+02 -0.33264186974E+03  0.94868363584E+03  0.10109040432E+04  0.79199985615E+02 0.  0.
         24    2    4    4    0    0  0.22797062032E+03  0.40956183842E+03  0.31785256127E+03  0.57179493103E+03  0.78788890241E+02 0.  0.
         11    1    3    3    0    0 -0.19219542464E+03 -0.26144068447E+02 -0.64099464467E+03  0.66969898318E+03  0.00000000000E+00 0. -1.
        -11    1    3    3    0    0 -0.10650773661E+03 -0.50775900230E+02 -0.22251743785E+03  0.25186524205E+03  0.00000000000E+00 0.  1.
          4    1    6    6  502    0  0.10974377241E+03  0.25776969500E+03  0.15792271584E+03  0.32160300904E+03  0.00000000000E+00 0. -1.
          3    1    5    5  503    0  0.73160019782E+02 -0.33365472602E+03  0.90782568511E+03  0.96996151431E+03  0.00000000000E+00 0. -1.
         -4    1    5    5    0  503 -0.24274788430E+01  0.10128562789E+01  0.40857950729E+02  0.40942528857E+02  0.00000000000E+00 0.  1.
         -3    1    6    6    0  502  0.11822684790E+03  0.15179214342E+03  0.15992984544E+03  0.25019192199E+03  0.00000000000E+00 0.  1.
<mgrwt>
<rscale>  0 0.24716201E+04</rscale>
<asrwt>0</asrwt>
<pdfrwt beam="1">  1        3 0.16163377E+00 0.24716201E+04</pdfrwt>
<pdfrwt beam="2">  1       -3 0.22363749E+00 0.24716201E+04</pdfrwt>
<totfact> 0.64797356E-02</totfact>
</mgrwt>
</event>
<event>
12    1  0.1755460E-007  0.1464764E+04  0.7818608E-02  0.8908229E-01
          1   -1    0    0  501    0  0.00000000000E+00  0.00000000000E+00  0.32354522471E+04  0.32354522471E+04  0.00000000000E+00 0. -1.
         -1   -1    0    0    0  501 -0.00000000000E+00 -0.00000000000E+00 -0.16578314151E+03  0.16578314151E+03  0.00000000000E+00 0.  1.
         23    2    1    2    0    0  0.89918990889E+02 -0.88206197923E+02  0.19296921946E+04  0.19357179934E+04  0.86176712704E+02 0.  0.
        254    2    1    2    0    0 -0.89918990889E+02  0.88206197923E+02  0.11399769109E+04  0.14655173951E+04  0.91232018489E+03 0.  0.
        -24    2    4    4    0    0  0.18480802107E+03 -0.34475646392E+03  0.54891110618E+03  0.67882675243E+03  0.80568810700E+02 0.  0.
         24    2    4    4    0    0 -0.27472701196E+03  0.43296266184E+03  0.59106580475E+03  0.78669064272E+03  0.81189803285E+02 0.  0.
         11    1    3    3    0    0  0.10604523558E+03 -0.85241368474E+02  0.17483384735E+04  0.17536245610E+04  0.00000000000E+00 0. -1.
        -11    1    3    3    0    0 -0.16126244694E+02 -0.29648294489E+01  0.18135372113E+03  0.18209343247E+03  0.00000000000E+00 0.  1.
          2    1    6    6  502    0 -0.38353360761E+02  0.75640493534E+02  0.14655107609E+03  0.16932124039E+03  0.00000000000E+00 0. -1.
          1    1    5    5  503    0  0.66525781738E+02 -0.70761128776E+02  0.17787392076E+03  0.20266215401E+03  0.00000000000E+00 0. -1.
         -2    1    5    5    0  503  0.11828223934E+03 -0.27399533514E+03  0.37103718542E+03  0.47616459841E+03  0.00000000000E+00 0.  1.
         -1    1    6    6    0  502 -0.23637365120E+03  0.35732216831E+03  0.44451472865E+03  0.61736940233E+03  0.00000000000E+00 0.  1.
<mgrwt>
<rscale>  0 0.14647641E+04</rscale>
<asrwt>0</asrwt>
<pdfrwt beam="1">  1        1 0.49776184E+00 0.14647641E+04</pdfrwt>
<pdfrwt beam="2">  1       -1 0.25505101E-01 0.14647641E+04</pdfrwt>
<totfact> 0.52970087E+00</totfact>
</mgrwt>
</event>
<event>
12    1  0.1755460E-007  0.2679761E+04  0.7818608E-02  0.8341602E-01
          3   -1    0    0  501    0  0.00000000000E+00  0.00000000000E+00  0.19067141391E+04  0.19067141391E+04  0.00000000000E+00 0. -1.
         -3   -1    0    0    0  501 -0.00000000000E+00 -0.00000000000E+00 -0.94155713408E+03  0.94155713408E+03  0.00000000000E+00 0.  1.
         23    2    1    2    0    0 -0.98171926763E+03 -0.59763806712E+03  0.10383592713E+03  0.11577467422E+04  0.93014190497E+02 0.  0.
        254    2    1    2    0    0  0.98171926763E+03  0.59763806712E+03  0.86132107789E+03  0.16905245310E+04  0.89165868519E+03 0.  0.
        -24    2    4    4    0    0  0.65914814394E+03  0.53333689002E+03  0.10048392952E+03  0.85774331132E+03  0.81866074190E+02 0.  0.
         24    2    4    4    0    0  0.32257112368E+03  0.64301177097E+02  0.76083714837E+03  0.83278121964E+03  0.80402874536E+02 0.  0.
         13    1    3    3    0    0 -0.89993482644E+02 -0.87695566046E+02  0.17848716590E+02  0.12691696461E+03  0.00000000000E+00 0. -1.
        -13    1    3    3    0    0 -0.89172578498E+03 -0.50994250107E+03  0.85987210539E+02  0.10308297776E+04  0.00000000000E+00 0.  1.
          4    1    6    6  502    0  0.32504076530E+03  0.61935307931E+02  0.72685452978E+03  0.79862693978E+03  0.00000000000E+00 0. -1.
          1    1    5    5  503    0  0.45023735226E+03  0.40708651394E+03  0.55302347149E+02  0.60950098671E+03  0.00000000000E+00 0. -1.
         -2    1    5    5    0  503  0.20891079168E+03  0.12625037608E+03  0.45181582368E+02  0.24824232461E+03  0.00000000000E+00 0.  1.
         -1    1    6    6    0  502 -0.24696416200E+01  0.23658691651E+01  0.33982618584E+02  0.34154279856E+02  0.00000000000E+00 0.  1.
<mgrwt>
<rscale>  0 0.26797614E+04</rscale>
<asrwt>0</asrwt>
<pdfrwt beam="1">  1        3 0.29334064E+00 0.26797614E+04</pdfrwt>
<pdfrwt beam="2">  1       -3 0.14485494E+00 0.26797614E+04</pdfrwt>
<totfact> 0.33970149E-02</totfact>
</mgrwt>
</event>
<event>
12    1  0.1755460E-007  0.1392028E+04  0.7818608E-02  0.8959609E-01
         -2   -1    0    0    0  501 -0.00000000000E+00  0.00000000000E+00  0.29100628230E+03  0.29100628230E+03  0.00000000000E+00 0.  1.
          2   -1    0    0  501    0  0.00000000000E+00 -0.00000000000E+00 -0.16646914463E+04  0.16646914463E+04  0.00000000000E+00 0. -1.
         23    2    1    2    0    0  0.22716624148E+03  0.27061310810E+03 -0.16162322336E+03  0.39903740762E+03  0.90955103251E+02 0.  0.
        254    2    1    2    0    0 -0.22716624148E+03 -0.27061310810E+03 -0.12120619406E+04  0.15566603210E+04  0.91063782672E+03 0.  0.
        -24    2    4    4    0    0  0.27166673841E+03 -0.35902262895E+03 -0.47516450677E+03  0.65884386113E+03  0.74792111832E+02 0.  0.
         24    2    4    4    0    0 -0.49883297989E+03  0.88409520853E+02 -0.73689743386E+03  0.89781645986E+03  0.80037380934E+02 0.  0.
         13    1    3    3    0    0  0.11960529387E+03  0.12588978787E+03 -0.12772251574E+03  0.21556137418E+03  0.00000000000E+00 0.  1.
        -13    1    3    3    0    0  0.10756094762E+03  0.14472332023E+03 -0.33900707618E+02  0.18347603344E+03  0.00000000000E+00 0. -1.
          2    1    6    6  502    0 -0.33833772514E+03  0.22958050916E+02 -0.46971939236E+03  0.57934082880E+03  0.00000000000E+00 0. -1.
          3    1    5    5  503    0  0.26741760694E+03 -0.33638375096E+03 -0.46642624448E+03  0.63420788859E+03  0.00000000000E+00 0. -1.
         -4    1    5    5    0  503  0.42491314762E+01 -0.22638877990E+02 -0.87382622870E+01  0.24635972535E+02  0.00000000000E+00 0.  1.
         -1    1    6    6    0  502 -0.16049525475E+03  0.65451469937E+02 -0.26717804151E+03  0.31847563106E+03  0.00000000000E+00 0.  1.
<mgrwt>
<rscale>  0 0.13920283E+04</rscale>
<asrwt>0</asrwt>
<pdfrwt beam="1">  1        2 0.25610638E+00 0.13920283E+04</pdfrwt>
<pdfrwt beam="2">  1       -2 0.44770197E-01 0.13920283E+04</pdfrwt>
<totfact> 0.47274037E+01</totfact>
</mgrwt>
</event>
<event>
12    1  0.1755460E-007  0.1765805E+04  0.7818608E-02  0.8724699E-01
          1   -1    0    0  501    0  0.00000000000E+00  0.00000000000E+00  0.10063260532E+04  0.10063260532E+04  0.00000000000E+00 0.  1.
         -1   -1    0    0    0  501 -0.00000000000E+00 -0.00000000000E+00 -0.77461619908E+03  0.77461619908E+03  0.00000000000E+00 0. -1.
         23    2    1    2    0    0  0.17230476004E+03 -0.30247852378E+03  0.64105629820E+03  0.73508007535E+03  0.90594437053E+02 0.  0.
        254    2    1    2    0    0 -0.17230476004E+03  0.30247852378E+03 -0.40934644411E+03  0.10458621769E+04  0.89726305736E+03 0.  0.
        -24    2    4    4    0    0 -0.44880420726E+03  0.22978461957E+03  0.34891343665E+02  0.51173675847E+03  0.80192993852E+02 0.  0.
         24    2    4    4    0    0  0.27649944722E+03  0.72693904210E+02 -0.44423778778E+03  0.53412541844E+03  0.78780724236E+02 0.  0.
         13    1    3    3    0    0  0.10414117792E+03 -0.25617090826E+03  0.51339769979E+03  0.58313473343E+03  0.00000000000E+00 0.  1.
        -13    1    3    3    0    0  0.68163582123E+02 -0.46307615519E+02  0.12765859841E+03  0.15194534192E+03  0.00000000000E+00 0. -1.
          2    1    6    6  502    0  0.10042361057E+03  0.56120893599E+02 -0.13044346852E+03  0.17392514119E+03  0.00000000000E+00 0. -1.
          1    1    5    5  503    0 -0.48384038869E+02 -0.96425787176E+00  0.27435983891E+01  0.48471355898E+02  0.00000000000E+00 0. -1.
         -2    1    5    5    0  503 -0.40042016839E+03  0.23074887744E+03  0.32147745276E+02  0.46326540258E+03  0.00000000000E+00 0.  1.
         -1    1    6    6    0  502  0.17607583665E+03  0.16573010611E+02 -0.31379431926E+03  0.36020027725E+03  0.00000000000E+00 0.  1.
<mgrwt>
<rscale>  0 0.17658046E+04</rscale>
<asrwt>0</asrwt>
<pdfrwt beam="1">  1        1 0.15481939E+00 0.17658046E+04</pdfrwt>
<pdfrwt beam="2">  1       -1 0.11917172E+00 0.17658046E+04</pdfrwt>
<totfact> 0.89160738E+00</totfact>
</mgrwt>
</event>
<event>
12    1  0.1755460E-007  0.2069025E+04  0.7818608E-02  0.8575012E-01
         -2   -1    0    0    0  501 -0.00000000000E+00  0.00000000000E+00  0.32425203595E+03  0.32425203595E+03  0.00000000000E+00 0. -1.
          2   -1    0    0  501    0  0.00000000000E+00 -0.00000000000E+00 -0.33005673744E+04  0.33005673744E+04  0.00000000000E+00 0.  1.
         23    2    1    2    0    0  0.75436710349E+03 -0.14221934315E+03 -0.17956498515E+04  0.19555417886E+04  0.10241693956E+03 0.  0.
        254    2    1    2    0    0 -0.75436710349E+03  0.14221934315E+03 -0.11806654870E+04  0.16692776218E+04  0.89622581860E+03 0.  0.
        -24    2    4    4    0    0 -0.35417086269E+03 -0.36625808570E+03 -0.40298202942E+03  0.65453082002E+03  0.80212798276E+02 0.  0.
         24    2    4    4    0    0 -0.40019624080E+03  0.50847742885E+03 -0.77768345760E+03  0.10147468018E+04  0.78823756780E+02 0.  0.
         11    1    3    3    0    0  0.19504687817E+03 -0.75558105159E+02 -0.42578202077E+03  0.47438659461E+03  0.00000000000E+00 0. -1.
        -11    1    3    3    0    0  0.55932022532E+03 -0.66661237995E+02 -0.13698678307E+04  0.14811551940E+04  0.00000000000E+00 0.  1.
          2    1    6    6  502    0 -0.18661832558E+03  0.17547026635E+03 -0.29746105621E+03  0.39255482901E+03  0.00000000000E+00 0. -1.
          1    1    5    5  503    0 -0.16510173900E+03 -0.22533517229E+03 -0.20261377952E+03  0.34508965175E+03  0.00000000000E+00 0. -1.
         -2    1    5    5    0  503 -0.18906912369E+03 -0.14092291341E+03 -0.20036824989E+03  0.30944116827E+03  0.00000000000E+00 0.  1.
         -1    1    6    6    0  502 -0.21357791522E+03  0.33300716250E+03 -0.48022240139E+03  0.62219197274E+03  0.00000000000E+00 0.  1.
<mgrwt>
<rscale>  0 0.20690246E+04</rscale>
<asrwt>0</asrwt>
<pdfrwt beam="1">  1        2 0.50777962E+00 0.20690246E+04</pdfrwt>
<pdfrwt beam="2">  1       -2 0.49884926E-01 0.20690246E+04</pdfrwt>
<totfact> 0.39230657E+00</totfact>
</mgrwt>
</event>
<event>
12    1  0.1755460E-007  0.2073160E+04  0.7818608E-02  0.8573160E-01
          2   -1    0    0  501    0  0.00000000000E+00  0.00000000000E+00  0.20259872059E+04  0.20259872059E+04  0.00000000000E+00 0. -1.
         -2   -1    0    0    0  501 -0.00000000000E+00 -0.00000000000E+00 -0.53035770985E+03  0.53035770985E+03  0.00000000000E+00 0.  1.
         23    2    1    2    0    0  0.37628464425E+03  0.35654730487E+03 -0.20132767929E+03  0.56526307854E+03  0.10135777919E+03 0.  0.
        254    2    1    2    0    0 -0.37628464425E+03 -0.35654730487E+03  0.16969571754E+04  0.19910818372E+04  0.90334219066E+03 0.  0.
        -24    2    4    4    0    0 -0.59429105394E+03 -0.15539156055E+03  0.64007618737E+03  0.89047937332E+03  0.76990874734E+02 0.  0.
         24    2    4    4    0    0  0.21800640969E+03 -0.20115574432E+03  0.10568809880E+04  0.11006024639E+04  0.79611133890E+02 0.  0.
         11    1    3    3    0    0  0.36192291219E+03  0.30096456843E+03 -0.18241371126E+03  0.50481940125E+03  0.00000000000E+00 0.  1.
        -11    1    3    3    0    0  0.14361732057E+02  0.55582736438E+02 -0.18913968034E+02  0.60443677291E+02  0.00000000000E+00 0. -1.
          2    1    6    6  502    0  0.14590511771E+03 -0.12586296114E+03  0.81018907326E+03  0.83278816202E+03  0.00000000000E+00 0. -1.
          1    1    5    5  503    0 -0.53687975057E+03 -0.14239002033E+03  0.54182624267E+03  0.77594488316E+03  0.00000000000E+00 0. -1.
         -2    1    5    5    0  503 -0.57411303373E+02 -0.13001540218E+02  0.98249944698E+02  0.11453449016E+03  0.00000000000E+00 0.  1.
         -1    1    6    6    0  502  0.72101291974E+02 -0.75292783185E+02  0.24669191474E+03  0.26781430190E+03  0.00000000000E+00 0.  1.
<mgrwt>
<rscale>  0 0.20731598E+04</rscale>
<asrwt>0</asrwt>
<pdfrwt beam="1">  1        2 0.31169034E+00 0.20731598E+04</pdfrwt>
<pdfrwt beam="2">  1       -2 0.81593495E-01 0.20731598E+04</pdfrwt>
<totfact> 0.78902199E+00</totfact>
</mgrwt>
</event>
<event>
12    1  0.1755460E-007  0.1973422E+04  0.7818608E-02  0.8619148E-01
         -2   -1    0    0    0  501 -0.00000000000E+00  0.00000000000E+00  0.17358170395E+04  0.17358170395E+04  0.00000000000E+00 0. -1.
          2   -1    0    0  501    0  0.00000000000E+00 -0.00000000000E+00 -0.56088787768E+03  0.56088787768E+03  0.00000000000E+00 0.  1.
         23    2    1    2    0    0 -0.61325338422E+03 -0.44947134878E+03  0.63841125005E+03  0.99783030398E+03  0.99960915932E+02 0.  0.
        254    2    1    2    0    0  0.61325338422E+03  0.44947134878E+03  0.53651791181E+03  0.12988746132E+04  0.90615649013E+03 0.  0.
        -24    2    4    4    0    0  0.76792123938E+03  0.35345621776E+03  0.65138464840E+03  0.10702586262E+04  0.80729418390E+02 0.  0.
         24    2    4    4    0    0 -0.15466785516E+03  0.96015131019E+02 -0.11486673659E+03  0.22861598706E+03  0.77005529425E+02 0.  0.
         11    1    3    3    0    0 -0.58342058985E+03 -0.44389152869E+03  0.59152010957E+03  0.94197415778E+03  0.00000000000E+00 0.  1.
        -11    1    3    3    0    0 -0.29832794372E+02 -0.55798200847E+01  0.46891140477E+02  0.55856146192E+02  0.00000000000E+00 0. -1.
          4    1    6    6  502    0 -0.11927431507E+03  0.93297560171E+02 -0.59190730546E+02  0.16258640642E+03  0.00000000000E+00 0. -1.
          1    1    5    5  503    0  0.62855444723E+03  0.28425691981E+03  0.49056388268E+03  0.84648426600E+03  0.00000000000E+00 0. -1.
         -2    1    5    5    0  503  0.13936679214E+03  0.69199297946E+02  0.16082076572E+03  0.22377436018E+03  0.00000000000E+00 0.  1.
         -3    1    6    6    0  502 -0.35393540088E+02  0.27175708480E+01 -0.55676006041E+02  0.66029580643E+02  0.00000000000E+00 0.  1.
<mgrwt>
<rscale>  0 0.19734221E+04</rscale>
<asrwt>0</asrwt>
<pdfrwt beam="1">  1        2 0.86290443E-01 0.19734221E+04</pdfrwt>
<pdfrwt beam="2">  1       -2 0.26704877E+00 0.19734221E+04</pdfrwt>
<totfact> 0.25303456E+00</totfact>
</mgrwt>
</event>
<event>
12    1  0.1755460E-007  0.1781691E+04  0.7818608E-02  0.8716097E-01
         -2   -1    0    0    0  501 -0.00000000000E+00  0.00000000000E+00  0.76535711787E+03  0.76535711787E+03  0.00000000000E+00 0.  1.
          2   -1    0    0  501    0  0.00000000000E+00 -0.00000000000E+00 -0.10369086522E+04  0.10369086522E+04  0.00000000000E+00 0. -1.
         23    2    1    2    0    0  0.11682072101E+03 -0.57416628286E+02  0.54973392702E+03  0.57246869215E+03  0.92570313335E+02 0.  0.
        254    2    1    2    0    0 -0.11682072101E+03  0.57416628286E+02 -0.82128546137E+03  0.12297970779E+04  0.90606141834E+03 0.  0.
        -24    2    4    4    0    0  0.83487375852E+02  0.22489435151E+03  0.97758169295E+02  0.27093449291E+03  0.79380277858E+02 0.  0.
         24    2    4    4    0    0 -0.20030809686E+03 -0.16747772323E+03 -0.91904363066E+03  0.95886258503E+03  0.81265862895E+02 0.  0.
         13    1    3    3    0    0  0.55406779937E+02 -0.65320662198E+02  0.20430510826E+03  0.22153391938E+03  0.00000000000E+00 0. -1.
        -13    1    3    3    0    0  0.61413941069E+02  0.79040339123E+01  0.34542881875E+03  0.35093477277E+03  0.00000000000E+00 0.  1.
          2    1    6    6  502    0 -0.48648417312E+02 -0.57730498498E+02 -0.15766928582E+03  0.17481156327E+03  0.00000000000E+00 0. -1.
          3    1    5    5  503    0 -0.12977128160E+02  0.62202932074E+02  0.24944732141E+02  0.68263096000E+02  0.00000000000E+00 0. -1.
         -4    1    5    5    0  503  0.96464504012E+02  0.16269141944E+03  0.72813437154E+02  0.20267139691E+03  0.00000000000E+00 0.  1.
         -1    1    6    6    0  502 -0.15165967955E+03 -0.10974722473E+03 -0.76137434484E+03  0.78405102176E+03  0.00000000000E+00 0.  1.
<mgrwt>
<rscale>  0 0.17816907E+04</rscale>
<asrwt>0</asrwt>
<pdfrwt beam="1">  1        2 0.15952441E+00 0.17816907E+04</pdfrwt>
<pdfrwt beam="2">  1       -2 0.11774725E+00 0.17816907E+04</pdfrwt>
<totfact> 0.12554400E+01</totfact>
</mgrwt>
</event>
<event>
12    1  0.1755460E-007  0.3243846E+04  0.7818608E-02  0.8177332E-01
         -1   -1    0    0    0  501 -0.00000000000E+00  0.00000000000E+00  0.13884219546E+04  0.13884219546E+04  0.00000000000E+00 0.  1.
          1   -1    0    0  501    0  0.00000000000E+00 -0.00000000000E+00 -0.18946940661E+04  0.18946940661E+04  0.00000000000E+00 0. -1.
         23    2    1    2    0    0  0.11402198891E+04 -0.95031555960E+03 -0.54389800401E+02  0.14881314201E+04  0.91519476696E+02 0.  0.
        254    2    1    2    0    0 -0.11402198891E+04  0.95031555960E+03 -0.45188231110E+03  0.17949846007E+04  0.90253589136E+03 0.  0.
        -24    2    4    4    0    0 -0.85113437194E+03  0.73582871007E+03  0.98636447473E+02  0.11322833262E+04  0.80391370465E+02 0.  0.
         24    2    4    4    0    0 -0.28908551717E+03  0.21448684953E+03 -0.55051875858E+03  0.66270127443E+03  0.80790040991E+02 0.  0.
         11    1    3    3    0    0  0.11414252170E+04 -0.95091827862E+03 -0.53660213222E+02  0.14865989766E+04  0.00000000000E+00 0. -1.
        -11    1    3    3    0    0 -0.12053279026E+01  0.60271902320E+00 -0.72958717908E+00  0.15324434820E+01  0.00000000000E+00 0.  1.
          2    1    6    6  502    0 -0.72936776505E+01  0.14500524934E+02 -0.50583304158E+01  0.17001460632E+02  0.00000000000E+00 0. -1.
          1    1    5    5  503    0 -0.17080673041E+03  0.15345902471E+03  0.52542686143E+02  0.23555327484E+03  0.00000000000E+00 0. -1.
         -2    1    5    5    0  503 -0.68032764152E+03  0.58236968536E+03  0.46093761330E+02  0.89673005140E+03  0.00000000000E+00 0.  1.
         -1    1    6    6    0  502 -0.28179183952E+03  0.19998632459E+03 -0.54546042816E+03  0.64569981380E+03  0.00000000000E+00 0.  1.
<mgrwt>
<rscale>  0 0.32438464E+04</rscale>
<asrwt>0</asrwt>
<pdfrwt beam="1">  1        1 0.29149139E+00 0.32438464E+04</pdfrwt>
<pdfrwt beam="2">  1       -1 0.21360338E+00 0.32438464E+04</pdfrwt>
<totfact> 0.35589009E-01</totfact>
</mgrwt>
</event>
<event>
12    1  0.1755460E-007  0.1783317E+04  0.7818608E-02  0.8715222E-01
         -2   -1    0    0    0  501 -0.00000000000E+00  0.00000000000E+00  0.50078629717E+03  0.50078629717E+03  0.00000000000E+00 0.  1.
          2   -1    0    0  501    0  0.00000000000E+00 -0.00000000000E+00 -0.15876135106E+04  0.15876135106E+04  0.00000000000E+00 0. -1.
         23    2    1    2    0    0  0.48441213836E+02  0.28838064019E+03  0.28693636932E+03  0.41946897661E+03  0.90065517647E+02 0.  0.
        254    2    1    2    0    0 -0.48441213836E+02 -0.28838064019E+03 -0.13737635827E+04  0.16689308311E+04  0.90143984440E+03 0.  0.
        -24    2    4    4    0    0  0.14231390577E+03 -0.27622947246E+03 -0.14172255688E+04  0.14531475099E+04  0.80953093364E+02 0.  0.
         24    2    4    4    0    0 -0.19075511960E+03 -0.12151167731E+02  0.43461986105E+02  0.21578332125E+03  0.90212698455E+02 0.  0.
         13    1    3    3    0    0 -0.84596417613E+01  0.91640049802E+01 -0.31221984184E+01  0.12856618878E+02  0.00000000000E+00 0. -1.
        -13    1    3    3    0    0  0.56900855597E+02  0.27921663521E+03  0.29005856774E+03  0.40661235773E+03  0.00000000000E+00 0.  1.
          2    1    6    6  502    0 -0.19233982695E+03 -0.42868462257E+01  0.22941745447E+02  0.19375063810E+03  0.00000000000E+00 0. -1.
          3    1    5    5  503    0  0.10267811456E+03 -0.25341714993E+03 -0.11517222271E+04  0.11837344024E+04  0.00000000000E+00 0. -1.
         -4    1    5    5    0  503  0.39635791207E+02 -0.22812322522E+02 -0.26550334174E+03  0.26941310747E+03  0.00000000000E+00 0.  1.
         -1    1    6    6    0  502  0.15847073450E+01 -0.78643215054E+01  0.20520240658E+02  0.22032683150E+02  0.00000000000E+00 0.  1.
<mgrwt>
<rscale>  0 0.17833172E+04</rscale>
<asrwt>0</asrwt>
<pdfrwt beam="1">  1        2 0.24424823E+00 0.17833172E+04</pdfrwt>
<pdfrwt beam="2">  1       -2 0.77044046E-01 0.17833172E+04</pdfrwt>
<totfact> 0.16110229E+01</totfact>
</mgrwt>
</event>
<event>
12    1  0.1755460E-007  0.1550737E+04  0.7818608E-02  0.8851397E-01
          2   -1    0    0  501    0  0.00000000000E+00  0.00000000000E+00  0.37923041981E+03  0.37923041981E+03  0.00000000000E+00 0. -1.
         -2   -1    0    0    0  501 -0.00000000000E+00 -0.00000000000E+00 -0.15853055952E+04  0.15853055952E+04  0.00000000000E+00 0.  1.
         23    2    1    2    0    0  0.15698666155E+03  0.33066625633E+03 -0.82100358248E+03  0.90515568771E+03  0.10618357483E+03 0.  0.
        254    2    1    2    0    0 -0.15698666155E+03 -0.33066625633E+03 -0.38507159293E+03  0.10593803273E+04  0.91652690154E+03 0.  0.
        -24    2    4    4    0    0 -0.34564111545E+03  0.63566515281E+02  0.12652886535E+03  0.38201397144E+03  0.80103920336E+02 0.  0.
         24    2    4    4    0    0  0.18865445389E+03 -0.39423277161E+03 -0.51160045828E+03  0.67736635588E+03  0.77975444786E+02 0.  0.
         13    1    3    3    0    0  0.52720889802E+02  0.22888171951E+03 -0.48288815461E+03  0.53697979815E+03  0.00000000000E+00 0.  1.
        -13    1    3    3    0    0  0.10426577175E+03  0.10178453681E+03 -0.33811542787E+03  0.36817588956E+03  0.00000000000E+00 0. -1.
          2    1    6    6  502    0  0.67807812948E+02 -0.16896794124E+03 -0.15816352329E+03  0.24117164999E+03  0.00000000000E+00 0. -1.
          3    1    5    5  503    0 -0.43557488948E+02 -0.62111790153E+01 -0.68049297601E+01  0.44521238272E+02  0.00000000000E+00 0. -1.
         -4    1    5    5    0  503 -0.30208362650E+03  0.69777694296E+02  0.13333379511E+03  0.33749273316E+03  0.00000000000E+00 0.  1.
         -1    1    6    6    0  502  0.12084664094E+03 -0.22526483037E+03 -0.35343693499E+03  0.43619470589E+03  0.00000000000E+00 0.  1.
<mgrwt>
<rscale>  0 0.15507367E+04</rscale>
<asrwt>0</asrwt>
<pdfrwt beam="1">  1        2 0.58343142E-01 0.15507367E+04</pdfrwt>
<pdfrwt beam="2">  1       -2 0.24389317E+00 0.15507367E+04</pdfrwt>
<totfact> 0.56972243E+00</totfact>
</mgrwt>
</event>
<event>
12    1  0.1755460E-007  0.2035477E+04  0.7818608E-02  0.8590211E-01
         -2   -1    0    0    0  501 -0.00000000000E+00  0.00000000000E+00  0.83440926362E+03  0.83440926362E+03  0.00000000000E+00 0.  1.
          2   -1    0    0  501    0  0.00000000000E+00 -0.00000000000E+00 -0.12413477413E+04  0.12413477413E+04  0.00000000000E+00 0. -1.
         23    2    1    2    0    0 -0.26254923227E+03  0.72479860962E+03  0.10708425504E+03  0.78340697657E+03  0.89411013798E+02 0.  0.
        254    2    1    2    0    0  0.26254923227E+03 -0.72479860962E+03 -0.51402273270E+03  0.12923500283E+04  0.90093512647E+03 0.  0.
        -24    2    4    4    0    0 -0.21157186258E+01 -0.25327464755E+03 -0.67259643754E+03  0.72325423740E+03  0.80982718909E+02 0.  0.
         24    2    4    4    0    0  0.26466495090E+03 -0.47152396207E+03  0.15857370485E+03  0.56909579092E+03  0.79636777555E+02 0.  0.
         11    1    3    3    0    0  0.11966788272E+01  0.36214141961E+01  0.83671530025E+01  0.91954298628E+01  0.00000000000E+00 0.  1.
        -11    1    3    3    0    0 -0.26374591110E+03  0.72117719542E+03  0.98717102042E+02  0.77421154671E+03  0.00000000000E+00 0. -1.
          4    1    6    6  502    0  0.19216030326E+03 -0.31573353596E+03  0.14389303242E+03  0.39663390256E+03  0.00000000000E+00 0. -1.
          1    1    5    5  503    0  0.17155621199E+02 -0.21218306674E+03 -0.47512102063E+03  0.52063034237E+03  0.00000000000E+00 0. -1.
         -2    1    5    5    0  503 -0.19271339825E+02 -0.41091580811E+02 -0.19747541692E+03  0.20262389503E+03  0.00000000000E+00 0.  1.
         -3    1    6    6    0  502  0.72504647637E+02 -0.15579042610E+03  0.14680672427E+02  0.17246188836E+03  0.00000000000E+00 0.  1.
<mgrwt>
<rscale>  0 0.20354774E+04</rscale>
<asrwt>0</asrwt>
<pdfrwt beam="1">  1        2 0.19097658E+00 0.20354774E+04</pdfrwt>
<pdfrwt beam="2">  1       -2 0.12837066E+00 0.20354774E+04</pdfrwt>
<totfact> 0.74354560E+00</totfact>
</mgrwt>
</event>
<event>
12    1  0.1755460E-007  0.2221788E+04  0.7818608E-02  0.8509414E-01
          2   -1    0    0  501    0  0.00000000000E+00  0.00000000000E+00  0.64963319645E+03  0.64963319645E+03  0.00000000000E+00 0. -1.
         -2   -1    0    0    0  501 -0.00000000000E+00 -0.00000000000E+00 -0.18996644945E+04  0.18996644945E+04  0.00000000000E+00 0.  1.
         23    2    1    2    0    0  0.54173972244E+03  0.42647213721E+03  0.18484979211E+03  0.71949657147E+03  0.90252202310E+02 0.  0.
        254    2    1    2    0    0 -0.54173972244E+03 -0.42647213721E+03 -0.14348810901E+04  0.18298011194E+04  0.90217957369E+03 0.  0.
        -24    2    4    4    0    0 -0.65322665672E+03 -0.61420613408E+03 -0.11183790111E+04  0.14357302138E+04  0.81212032307E+02 0.  0.
         24    2    4    4    0    0  0.11148693428E+03  0.18773399688E+03 -0.31650207899E+03  0.39407090559E+03  0.86283964506E+02 0.  0.
         13    1    3    3    0    0  0.52723078419E+03  0.39678816519E+03  0.16239364537E+03  0.67954752880E+03  0.00000000000E+00 0. -1.
        -13    1    3    3    0    0  0.14508938251E+02  0.29683972015E+02  0.22456146743E+02  0.39949042671E+02  0.00000000000E+00 0.  1.
          4    1    6    6  502    0  0.12014780632E+03  0.13838152901E+03 -0.22974608206E+03  0.29388468003E+03  0.00000000000E+00 0. -1.
          3    1    5    5  503    0 -0.54143268699E+03 -0.51530553395E+03 -0.97710215245E+03  0.12302104552E+04  0.00000000000E+00 0. -1.
         -4    1    5    5    0  503 -0.11179396973E+03 -0.98900600134E+02 -0.14127685867E+03  0.20551975859E+03  0.00000000000E+00 0.  1.
         -3    1    6    6    0  502 -0.86608720399E+01  0.49352467870E+02 -0.86755996934E+02  0.10018622557E+03  0.00000000000E+00 0.  1.
<mgrwt>
<rscale>  0 0.22217877E+04</rscale>
<asrwt>0</asrwt>
<pdfrwt beam="1">  1        2 0.99943568E-01 0.22217877E+04</pdfrwt>
<pdfrwt beam="2">  1       -2 0.29225608E+00 0.22217877E+04</pdfrwt>
<totfact> 0.14557258E+00</totfact>
</mgrwt>
</event>
<event>
12    1  0.1755460E-007  0.2038195E+04  0.7818608E-02  0.8588969E-01
         -2   -1    0    0    0  501 -0.00000000000E+00  0.00000000000E+00  0.48114631771E+03  0.48114631771E+03  0.00000000000E+00 0.  1.
          2   -1    0    0  501    0  0.00000000000E+00 -0.00000000000E+00 -0.21585105764E+04  0.21585105764E+04  0.00000000000E+00 0. -1.
         23    2    1    2    0    0  0.59673826230E+03 -0.51802732575E+03 -0.34588860485E+03  0.86750750484E+03  0.92094951418E+02 0.  0.
        254    2    1    2    0    0 -0.59673826230E+03  0.51802732575E+03 -0.13314756538E+04  0.17721493892E+04  0.86211204444E+03 0.  0.
        -24    2    4    4    0    0  0.89570332498E+01  0.16934888369E+03  0.73788077094E+02  0.20066242802E+03  0.77855358486E+02 0.  0.
         24    2    4    4    0    0 -0.60569529555E+03  0.34867844206E+03 -0.14052637309E+04  0.15714869612E+04  0.79760070796E+02 0.  0.
         11    1    3    3    0    0  0.43275298512E+03 -0.41885540625E+03 -0.28607817793E+03  0.66675011913E+03  0.00000000000E+00 0.  1.
        -11    1    3    3    0    0  0.16398527718E+03 -0.99171919502E+02 -0.59810426919E+02  0.20075738571E+03  0.00000000000E+00 0. -1.
          4    1    6    6  502    0 -0.99201910444E+02  0.54068020917E+02 -0.16753921148E+03  0.20207364327E+03  0.00000000000E+00 0. -1.
          3    1    5    5  503    0  0.85368678530E+01  0.14791675295E+02 -0.14728430446E+02  0.22552127043E+02  0.00000000000E+00 0. -1.
         -4    1    5    5    0  503  0.42016539681E+00  0.15455720840E+03  0.88516507540E+02  0.17811030097E+03  0.00000000000E+00 0.  1.
         -3    1    6    6    0  502 -0.50649338510E+03  0.29461042114E+03 -0.12377245194E+04  0.13694133179E+04  0.00000000000E+00 0.  1.
<mgrwt>
<rscale>  0 0.20381947E+04</rscale>
<asrwt>0</asrwt>
<pdfrwt beam="1">  1        2 0.33207855E+00 0.20381947E+04</pdfrwt>
<pdfrwt beam="2">  1       -2 0.74022510E-01 0.20381947E+04</pdfrwt>
<totfact> 0.82957896E+00</totfact>
</mgrwt>
</event>
<event>
12    1  0.1755460E-007  0.1391650E+04  0.7818608E-02  0.8959885E-01
         -1   -1    0    0    0  501 -0.00000000000E+00  0.00000000000E+00  0.36082397584E+03  0.36082397584E+03  0.00000000000E+00 0.  1.
          1   -1    0    0  501    0  0.00000000000E+00 -0.00000000000E+00 -0.13418518613E+04  0.13418518613E+04  0.00000000000E+00 0. -1.
         23    2    1    2    0    0  0.29731046008E+03 -0.16397943022E+03 -0.52112948355E+03  0.62894863778E+03  0.93368555391E+02 0.  0.
        254    2    1    2    0    0 -0.29731046008E+03  0.16397943022E+03 -0.45989840186E+03  0.10737271993E+04  0.90890087209E+03 0.  0.
        -24    2    4    4    0    0 -0.84525794232E+02  0.63079263673E+02 -0.70875761944E+03  0.72118032552E+03  0.81486780569E+02 0.  0.
         24    2    4    4    0    0 -0.21278466585E+03  0.10090016654E+03  0.24885921758E+03  0.35254687379E+03  0.83067625553E+02 0.  0.
         13    1    3    3    0    0  0.22375422261E+03 -0.16280355860E+03 -0.38374925483E+03  0.47311144714E+03  0.00000000000E+00 0. -1.
        -13    1    3    3    0    0  0.73556237467E+02 -0.11758716128E+01 -0.13738022872E+03  0.15583719065E+03  0.00000000000E+00 0.  1.
          2    1    6    6  502    0 -0.66138652943E+02 -0.28679910095E+01  0.41240947067E+02  0.77995913358E+02  0.00000000000E+00 0. -1.
          3    1    5    5  503    0 -0.17422429722E+02  0.41414011299E+01 -0.20788145414E+02  0.27437916293E+02  0.00000000000E+00 0. -1.
         -4    1    5    5    0  503 -0.67103364510E+02  0.58937862543E+02 -0.68796947403E+03  0.69374240923E+03  0.00000000000E+00 0.  1.
         -1    1    6    6    0  502 -0.14664601291E+03  0.10376815755E+03  0.20761827051E+03  0.27455096043E+03  0.00000000000E+00 0.  1.
<mgrwt>
<rscale>  0 0.13916498E+04</rscale>
<asrwt>0</asrwt>
<pdfrwt beam="1">  1        1 0.20643876E+00 0.13916498E+04</pdfrwt>
<pdfrwt beam="2">  1       -1 0.55511379E-01 0.13916498E+04</pdfrwt>
<totfact> 0.27036060E+01</totfact>
</mgrwt>
</event>
<event>
12    1  0.1755460E-007  0.2691331E+04  0.7818608E-02  0.8337823E-01
          1   -1    0    0  501    0  0.00000000000E+00  0.00000000000E+00  0.96330171783E+03  0.96330171783E+03  0.00000000000E+00 0. -1.
         -1   -1    0    0    0  501 -0.00000000000E+00 -0.00000000000E+00 -0.18798017206E+04  0.18798017206E+04  0.00000000000E+00 0.  1.
         23    2    1    2    0    0 -0.52604588656E+03  0.51724389046E+03  0.58169312514E+03  0.94404975975E+03  0.92722920941E+02 0.  0.
        254    2    1    2    0    0  0.52604588656E+03 -0.51724389046E+03 -0.14981931279E+04  0.18990536787E+04  0.90418842563E+03 0.  0.
        -24    2    4    4    0    0  0.75190189728E+02 -0.17292337612E+03  0.80043772129E+02  0.22005982404E+03  0.80394415604E+02 0.  0.
         24    2    4    4    0    0  0.45085569683E+03 -0.34432051434E+03 -0.15782369001E+04  0.16789938547E+04  0.79756976745E+02 0.  0.
         13    1    3    3    0    0 -0.47384986142E+03  0.46380332810E+03  0.48325835651E+03  0.82047904145E+03  0.00000000000E+00 0. -1.
        -13    1    3    3    0    0 -0.52196025138E+02  0.53440562358E+02  0.98434768634E+02  0.12357071830E+03  0.00000000000E+00 0.  1.
          2    1    6    6  502    0  0.38512671263E+03 -0.30514343689E+03 -0.12792506680E+04  0.13703712539E+04  0.00000000000E+00 0. -1.
          3    1    5    5  503    0  0.47097738635E+02 -0.52686453869E+02 -0.38616901400E+01  0.70774091704E+02  0.00000000000E+00 0. -1.
         -4    1    5    5    0  503  0.28092451093E+02 -0.12023692225E+03  0.83905462269E+02  0.14928573233E+03  0.00000000000E+00 0.  1.
         -3    1    6    6    0  502  0.65728984195E+02 -0.39177077452E+02 -0.29898623201E+03  0.30862260075E+03  0.00000000000E+00 0.  1.
<mgrwt>
<rscale>  0 0.26913314E+04</rscale>
<asrwt>0</asrwt>
<pdfrwt beam="1">  1        1 0.14820026E+00 0.26913314E+04</pdfrwt>
<pdfrwt beam="2">  1       -1 0.28920026E+00 0.26913314E+04</pdfrwt>
<totfact> 0.54835600E-01</totfact>
</mgrwt>
</event>
<event>
12    1  0.1755460E-007  0.1938895E+04  0.7818608E-02  0.8635734E-01
         -1   -1    0    0    0  501 -0.00000000000E+00  0.00000000000E+00  0.68405530458E+03  0.68405530458E+03  0.00000000000E+00 0.  1.
          1   -1    0    0  501    0  0.00000000000E+00 -0.00000000000E+00 -0.13739074778E+04  0.13739074778E+04  0.00000000000E+00 0. -1.
         23    2    1    2    0    0  0.50421731785E+03 -0.19081569150E+03  0.29376763004E+03  0.62077527753E+03  0.91743081441E+02 0.  0.
        254    2    1    2    0    0 -0.50421731785E+03  0.19081569150E+03 -0.98361980323E+03  0.14371875048E+04  0.89852895054E+03 0.  0.
        -24    2    4    4    0    0 -0.66115587741E+03  0.36170353161E+03 -0.54182058325E+03  0.93114878420E+03  0.74242675457E+02 0.  0.
         24    2    4    4    0    0  0.15693855956E+03 -0.17088784012E+03 -0.44179921999E+03  0.50603872062E+03  0.84001610758E+02 0.  0.
         13    1    3    3    0    0  0.35443234075E+03 -0.17026696701E+03  0.23801622698E+03  0.45963556055E+03  0.00000000000E+00 0. -1.
        -13    1    3    3    0    0  0.14978497710E+03 -0.20548724489E+02  0.55751403066E+02  0.16113971698E+03  0.00000000000E+00 0.  1.
          4    1    6    6  502    0  0.13248579561E+03 -0.11337457778E+03 -0.38023802275E+03  0.41831475574E+03  0.00000000000E+00 0. -1.
          3    1    5    5  503    0 -0.40754964265E+03  0.18938250063E+03 -0.34830479823E+03  0.56857600656E+03  0.00000000000E+00 0. -1.
         -2    1    5    5    0  503 -0.25360623476E+03  0.17232103098E+03 -0.19351578502E+03  0.36257277763E+03  0.00000000000E+00 0.  1.
         -3    1    6    6    0  502  0.24452763957E+02 -0.57513262333E+02 -0.61561197237E+02  0.87723964882E+02  0.00000000000E+00 0.  1.
<mgrwt>
<rscale>  0 0.19388953E+04</rscale>
<asrwt>0</asrwt>
<pdfrwt beam="1">  1        1 0.21137038E+00 0.19388953E+04</pdfrwt>
<pdfrwt beam="2">  1       -1 0.10523928E+00 0.19388953E+04</pdfrwt>
<totfact> 0.63296837E+00</totfact>
</mgrwt>
</event>
<event>
12    1  0.1755460E-007  0.1110420E+04  0.7818608E-02  0.9195095E-01
          1   -1    0    0  501    0  0.00000000000E+00  0.00000000000E+00  0.51229796551E+03  0.51229796551E+03  0.00000000000E+00 0. -1.
         -1   -1    0    0    0  501 -0.00000000000E+00 -0.00000000000E+00 -0.60171634092E+03  0.60171634092E+03  0.00000000000E+00 0.  1.
         23    2    1    2    0    0 -0.16601949700E+03  0.29280209443E+02 -0.33097886749E+02  0.19557337008E+03  0.93454100645E+02 0.  0.
        254    2    1    2    0    0  0.16601949700E+03 -0.29280209443E+02 -0.56320488658E+02  0.91844093635E+03  0.90107821640E+03 0.  0.
        -24    2    4    4    0    0 -0.84511341061E+02  0.16579890228E+03 -0.39727045144E+03  0.44569601532E+03  0.78674543034E+02 0.  0.
         24    2    4    4    0    0  0.25053083806E+03 -0.19507911172E+03  0.34094996278E+03  0.47274492103E+03  0.80120675151E+02 0.  0.
         13    1    3    3    0    0 -0.64334953666E+02  0.70446848396E+01  0.32620469733E+02  0.72475574460E+02  0.00000000000E+00 0. -1.
        -13    1    3    3    0    0 -0.10168454333E+03  0.22235524603E+02 -0.65718356482E+02  0.12309779562E+03  0.00000000000E+00 0.  1.
          2    1    6    6  502    0  0.20165272717E+03 -0.19200620221E+03  0.29312137238E+03  0.40428992444E+03  0.00000000000E+00 0. -1.
          3    1    5    5  503    0 -0.22410015926E+02  0.12316846343E+03 -0.22079441892E+03  0.25381657673E+03  0.00000000000E+00 0. -1.
         -4    1    5    5    0  503 -0.62101325136E+02  0.42630438850E+02 -0.17647603252E+03  0.19187943859E+03  0.00000000000E+00 0.  1.
         -1    1    6    6    0  502  0.48878110893E+02 -0.30729095108E+01  0.47828590405E+02  0.68454996585E+02  0.00000000000E+00 0.  1.
<mgrwt>
<rscale>  0 0.11104198E+04</rscale>
<asrwt>0</asrwt>
<pdfrwt beam="1">  1        1 0.78815071E-01 0.11104198E+04</pdfrwt>
<pdfrwt beam="2">  1       -1 0.92571745E-01 0.11104198E+04</pdfrwt>
<totfact> 0.48450174E+01</totfact>
</mgrwt>
</event>
<event>
12    1  0.1755460E-007  0.2323179E+04  0.7818608E-02  0.8468838E-01
          2   -1    0    0  501    0  0.00000000000E+00  0.00000000000E+00  0.47493085924E+03  0.47493085924E+03  0.00000000000E+00 0. -1.
         -2   -1    0    0    0  501 -0.00000000000E+00 -0.00000000000E+00 -0.28410252249E+04  0.28410252249E+04  0.00000000000E+00 0.  1.
         23    2    1    2    0    0  0.53538809796E+02 -0.45213597033E+03  0.23908191714E+03  0.52306531974E+03  0.95623353816E+02 0.  0.
        254    2    1    2    0    0 -0.53538809796E+02  0.45213597033E+03 -0.26051762828E+04  0.27928907644E+04  0.89777615117E+03 0.  0.
        -24    2    4    4    0    0 -0.18305041596E+03  0.31436565402E+03 -0.29957900023E+03  0.47813675423E+03  0.80832908865E+02 0.  0.
         24    2    4    4    0    0  0.12951160616E+03  0.13777031630E+03 -0.23055972826E+04  0.23147540102E+04  0.80952961830E+02 0.  0.
         13    1    3    3    0    0 -0.30461056781E+00  0.17475438098E+01 -0.47193716607E+01  0.50417423414E+01  0.00000000000E+00 0.  1.
        -13    1    3    3    0    0  0.53843420364E+02 -0.45388351413E+03  0.24380128880E+03  0.51802357740E+03  0.00000000000E+00 0. -1.
          4    1    6    6  502    0  0.54066883925E+02  0.67948908091E+02 -0.62337572885E+03  0.62939461499E+03  0.00000000000E+00 0. -1.
          1    1    5    5  503    0 -0.63541738004E+02  0.13519940050E+03 -0.17200714818E+03  0.22782205641E+03  0.00000000000E+00 0. -1.
         -2    1    5    5    0  503 -0.11950867796E+03  0.17916625352E+03 -0.12757185206E+03  0.25031469782E+03  0.00000000000E+00 0.  1.
         -3    1    6    6    0  502  0.75444722239E+02  0.69821408211E+02 -0.16822215537E+04  0.16853593952E+04  0.00000000000E+00 0.  1.
<mgrwt>
<rscale>  0 0.23231793E+04</rscale>
<asrwt>0</asrwt>
<pdfrwt beam="1">  1        2 0.73066287E-01 0.23231793E+04</pdfrwt>
<pdfrwt beam="2">  1       -2 0.43708080E+00 0.23231793E+04</pdfrwt>
<totfact> 0.25004404E-01</totfact>
</mgrwt>
</event>
<event>
12    1  0.1755460E-007  0.1576851E+04  0.7818608E-02  0.8834897E-01
         -1   -1    0    0    0  501 -0.00000000000E+00  0.00000000000E+00  0.43350529879E+03  0.43350529879E+03  0.00000000000E+00 0.  1.
          1   -1    0    0  501    0  0.00000000000E+00 -0.00000000000E+00 -0.14339266539E+04  0.14339266539E+04  0.00000000000E+00 0. -1.
         23    2    1    2    0    0  0.29557444892E+02 -0.79832708146E+02 -0.94690575999E+03  0.95513545776E+03  0.91685988782E+02 0.  0.
        254    2    1    2    0    0 -0.29557444892E+02  0.79832708146E+02 -0.53515595156E+02  0.91229649496E+03  0.90673814960E+03 0.  0.
        -24    2    4    4    0    0 -0.55757435415E+02  0.40348446630E+01  0.41698505615E+03  0.42843831838E+03  0.80979528464E+02 0.  0.
         24    2    4    4    0    0  0.26199990523E+02  0.75797863483E+02 -0.47050065130E+03  0.48385817658E+03  0.79473999232E+02 0.  0.
         11    1    3    3    0    0  0.60645569645E+01 -0.82655452447E+02 -0.88483025181E+03  0.88870314346E+03  0.00000000000E+00 0. -1.
        -11    1    3    3    0    0  0.23492887928E+02  0.28227443015E+01 -0.62075508174E+02  0.66432314303E+02  0.00000000000E+00 0.  1.
          4    1    6    6  502    0 -0.47267539442E+00  0.37547450118E+02 -0.38184203635E+03  0.38368395217E+03  0.00000000000E+00 0. -1.
          1    1    5    5  503    0 -0.28947105223E+02  0.17816002696E+02  0.37614609828E+03  0.37767874193E+03  0.00000000000E+00 0. -1.
         -2    1    5    5    0  503 -0.26810330193E+02 -0.13781158033E+02  0.40838957862E+02  0.50759576446E+02  0.00000000000E+00 0.  1.
         -3    1    6    6    0  502  0.26672665918E+02  0.38250413364E+02 -0.88658614954E+02  0.10017422441E+03  0.00000000000E+00 0.  1.
<mgrwt>
<rscale>  0 0.15768510E+04</rscale>
<asrwt>0</asrwt>
<pdfrwt beam="1">  1        1 0.22060410E+00 0.15768510E+04</pdfrwt>
<pdfrwt beam="2">  1       -1 0.66693124E-01 0.15768510E+04</pdfrwt>
<totfact> 0.15926269E+01</totfact>
</mgrwt>
</event>
<event>
12    1  0.1755460E-007  0.1320497E+04  0.7818608E-02  0.9013467E-01
         -2   -1    0    0    0  501 -0.00000000000E+00  0.00000000000E+00  0.17794247545E+04  0.17794247545E+04  0.00000000000E+00 0.  1.
          2   -1    0    0  501    0  0.00000000000E+00 -0.00000000000E+00 -0.24498257509E+03  0.24498257509E+03  0.00000000000E+00 0. -1.
         23    2    1    2    0    0 -0.15347743653E+03 -0.15884343312E+03 -0.12614947376E+01  0.23852322718E+03  0.90028766346E+02 0.  0.
        254    2    1    2    0    0  0.15347743653E+03  0.15884343312E+03  0.15357036742E+04  0.17858841024E+04  0.88442619402E+03 0.  0.
        -24    2    4    4    0    0  0.49755141577E+03  0.20423539028E+02  0.65233646181E+03  0.82459204091E+03  0.80216221802E+02 0.  0.
         24    2    4    4    0    0 -0.34407397924E+03  0.13841989409E+03  0.88336721237E+03  0.96129206153E+03  0.78726268828E+02 0.  0.
         11    1    3    3    0    0 -0.70605182873E+02 -0.11499180216E+03 -0.34099767031E+02  0.13917974179E+03  0.00000000000E+00 0. -1.
        -11    1    3    3    0    0 -0.82872253655E+02 -0.43851630957E+02  0.32838272294E+02  0.99343485396E+02  0.00000000000E+00 0.  1.
          4    1    6    6  502    0 -0.17361821314E+03  0.28103472941E+02  0.42638014807E+03  0.46123000748E+03  0.00000000000E+00 0. -1.
          1    1    5    5  503    0  0.56402725320E+02  0.28168557684E+02  0.87821834396E+02  0.10810832374E+03  0.00000000000E+00 0. -1.
         -2    1    5    5    0  503  0.44114869045E+03 -0.77450186562E+01  0.56451462742E+03  0.71648371717E+03  0.00000000000E+00 0.  1.
         -3    1    6    6    0  502 -0.17045576610E+03  0.11031642115E+03  0.45698706429E+03  0.50006205405E+03  0.00000000000E+00 0.  1.
<mgrwt>
<rscale>  0 0.13204970E+04</rscale>
<asrwt>0</asrwt>
<pdfrwt beam="1">  1        2 0.37689628E-01 0.13204970E+04</pdfrwt>
<pdfrwt beam="2">  1       -2 0.27375765E+00 0.13204970E+04</pdfrwt>
<totfact> 0.62175861E+00</totfact>
</mgrwt>
</event>
<event>
12    1  0.1755460E-007  0.2550188E+04  0.7818608E-02  0.8385321E-01
          2   -1    0    0  501    0  0.00000000000E+00  0.00000000000E+00  0.27963620564E+04  0.27963620564E+04  0.00000000000E+00 0. -1.
         -2   -1    0    0    0  501 -0.00000000000E+00 -0.00000000000E+00 -0.58142124026E+03  0.58142124026E+03  0.00000000000E+00 0.  1.
         23    2    1    2    0    0 -0.90012491455E+02  0.10742371506E+04  0.13575610094E+04  0.17358094151E+04  0.89301328028E+02 0.  0.
        254    2    1    2    0    0  0.90012491455E+02 -0.10742371506E+04  0.85737980679E+03  0.16419738816E+04  0.89380668512E+03 0.  0.
        -24    2    4    4    0    0  0.18464583709E+03 -0.36751030194E+03  0.82311034639E+03  0.92364875841E+03  0.80364665074E+02 0.  0.
         24    2    4    4    0    0 -0.94633345640E+02 -0.70672684862E+03  0.34269460404E+02  0.71832512315E+03  0.79989236567E+02 0.  0.
         13    1    3    3    0    0 -0.11209088508E+02  0.11874641419E+02  0.23231641934E+02  0.28396477968E+02  0.00000000000E+00 0.  1.
        -13    1    3    3    0    0 -0.78803402946E+02  0.10623625091E+04  0.13343293674E+04  0.17074129371E+04  0.00000000000E+00 0. -1.
          2    1    6    6  502    0  0.96795404764E+00 -0.19816175908E+03 -0.13679000515E+02  0.19863568348E+03  0.00000000000E+00 0. -1.
          3    1    5    5  503    0  0.14019432518E+02 -0.61124243632E+02  0.77594090234E+02  0.99767532228E+02  0.00000000000E+00 0. -1.
         -4    1    5    5    0  503  0.17062640458E+03 -0.30638605831E+03  0.74551625615E+03  0.82388122618E+03  0.00000000000E+00 0.  1.
         -1    1    6    6    0  502 -0.95601299687E+02 -0.50856508954E+03  0.47948460919E+02  0.51968943968E+03  0.00000000000E+00 0.  1.
<mgrwt>
<rscale>  0 0.25501877E+04</rscale>
<asrwt>0</asrwt>
<pdfrwt beam="1">  1        2 0.43020954E+00 0.25501877E+04</pdfrwt>
<pdfrwt beam="2">  1       -2 0.89449423E-01 0.25501877E+04</pdfrwt>
<totfact> 0.22124330E+00</totfact>
</mgrwt>
</event>
<event>
12    1  0.1755460E-007  0.2773286E+04  0.7818608E-02  0.8311610E-01
          2   -1    0    0  501    0  0.00000000000E+00  0.00000000000E+00  0.10947698179E+04  0.10947698179E+04  0.00000000000E+00 0. -1.
         -2   -1    0    0    0  501 -0.00000000000E+00 -0.00000000000E+00 -0.17563313367E+04  0.17563313367E+04  0.00000000000E+00 0.  1.
         23    2    1    2    0    0  0.30010655629E+03 -0.19543390591E+03 -0.15177462765E+04  0.15622341030E+04  0.93612371155E+02 0.  0.
        254    2    1    2    0    0 -0.30010655629E+03  0.19543390591E+03  0.85618475767E+03  0.12888670517E+04  0.89435316340E+03 0.  0.
        -24    2    4    4    0    0  0.28272090131E+03 -0.86227131397E+02  0.21260711855E+03  0.37283995073E+03  0.80259677143E+02 0.  0.
         24    2    4    4    0    0 -0.58282745759E+03  0.28166103730E+03  0.64357763913E+03  0.91602710093E+03  0.76763837838E+02 0.  0.
         11    1    3    3    0    0  0.25050112973E+03 -0.19963754686E+03 -0.13229691322E+04  0.13611955374E+04  0.00000000000E+00 0.  1.
        -11    1    3    3    0    0  0.49605426558E+02  0.42036409497E+01 -0.19477714426E+03  0.20103856562E+03  0.00000000000E+00 0. -1.
          2    1    6    6  502    0 -0.50175357651E+03  0.26851951738E+03  0.54849999323E+03  0.79038700984E+03  0.00000000000E+00 0. -1.
          3    1    5    5  503    0  0.27025552718E+03 -0.63346638826E+02  0.17890031982E+03  0.33023653804E+03  0.00000000000E+00 0. -1.
         -4    1    5    5    0  503  0.12465374128E+02 -0.22880492571E+02  0.33706798728E+02  0.42603412692E+02  0.00000000000E+00 0.  1.
         -1    1    6    6    0  502 -0.81073881089E+02  0.13141519922E+02  0.95077645891E+02  0.12564009109E+03  0.00000000000E+00 0.  1.
<mgrwt>
<rscale>  0 0.27732858E+04</rscale>
<asrwt>0</asrwt>
<pdfrwt beam="1">  1        2 0.16842613E+00 0.27732858E+04</pdfrwt>
<pdfrwt beam="2">  1       -2 0.27020482E+00 0.27732858E+04</pdfrwt>
<totfact> 0.92500068E-01</totfact>
</mgrwt>
</event>
<event>
12    1  0.1755460E-007  0.1192359E+04  0.7818608E-02  0.9119571E-01
         -1   -1    0    0    0  501 -0.00000000000E+00  0.00000000000E+00  0.61244816886E+03  0.61244816886E+03  0.00000000000E+00 0.  1.
          1   -1    0    0  501    0  0.00000000000E+00 -0.00000000000E+00 -0.58034317172E+03  0.58034317172E+03  0.00000000000E+00 0. -1.
         23    2    1    2    0    0  0.12092779163E+03 -0.15522784839E+03 -0.14028184827E+03  0.25792444032E+03  0.90148789535E+02 0.  0.
        254    2    1    2    0    0 -0.12092779163E+03  0.15522784839E+03  0.17238684541E+03  0.93486690026E+03  0.89751862433E+03 0.  0.
        -24    2    4    4    0    0 -0.43995796940E+03  0.25830487822E+03  0.26275239312E+03  0.57885447448E+03  0.75823858942E+02 0.  0.
         24    2    4    4    0    0  0.31903017777E+03 -0.10307702983E+03 -0.90365547703E+02  0.35601242578E+03  0.78573447786E+02 0.  0.
         11    1    3    3    0    0  0.59182663072E+02 -0.12542307658E+03 -0.12707872749E+03  0.18810246869E+03  0.00000000000E+00 0. -1.
        -11    1    3    3    0    0  0.61745128560E+02 -0.29804771807E+02 -0.13203120780E+02  0.69821971626E+02  0.00000000000E+00 0.  1.
          4    1    6    6  502    0  0.17723730339E+03 -0.85205332812E+02 -0.81341209536E+02  0.21281307014E+03  0.00000000000E+00 0. -1.
          3    1    5    5  503    0 -0.30870495467E+03  0.15743508162E+03  0.14466880232E+03  0.37551779762E+03  0.00000000000E+00 0. -1.
         -4    1    5    5    0  503 -0.13125301473E+03  0.10086979660E+03  0.11808359080E+03  0.20333667686E+03  0.00000000000E+00 0.  1.
         -3    1    6    6    0  502  0.14179287437E+03 -0.17871697014E+02 -0.90243381670E+01  0.14319935564E+03  0.00000000000E+00 0.  1.
<mgrwt>
<rscale>  0 0.11923592E+04</rscale>
<asrwt>0</asrwt>
<pdfrwt beam="1">  1        1 0.89283565E-01 0.11923592E+04</pdfrwt>
<pdfrwt beam="2">  1       -1 0.94222795E-01 0.11923592E+04</pdfrwt>
<totfact> 0.38832640E+01</totfact>
</mgrwt>
</event>
<event>
12    1  0.1755460E-007  0.1394405E+04  0.7818608E-02  0.8957879E-01
         -2   -1    0    0    0  501 -0.00000000000E+00  0.00000000000E+00  0.45737979085E+03  0.45737979085E+03  0.00000000000E+00 0.  1.
          2   -1    0    0  501    0  0.00000000000E+00 -0.00000000000E+00 -0.10627736343E+04  0.10627736343E+04  0.00000000000E+00 0. -1.
         23    2    1    2    0    0  0.31534728464E+03 -0.14234354278E+03  0.28490408008E+02  0.35897241534E+03  0.91344937069E+02 0.  0.
        254    2    1    2    0    0 -0.31534728464E+03  0.14234354278E+03 -0.63388425141E+03  0.11611810098E+04  0.90930000503E+03 0.  0.
        -24    2    4    4    0    0  0.39657655704E+02 -0.17316231766E+03  0.14645884657E+03  0.24413259415E+03  0.81194900548E+02 0.  0.
         24    2    4    4    0    0 -0.35500494034E+03  0.31550586044E+03 -0.78034309798E+03  0.91704841561E+03  0.80436250319E+02 0.  0.
         13    1    3    3    0    0  0.17014768872E+03 -0.48770152847E+02 -0.23562156649E+02  0.17856074320E+03  0.00000000000E+00 0. -1.
        -13    1    3    3    0    0  0.14519959592E+03 -0.93573389933E+02  0.52052564657E+02  0.18041167214E+03  0.00000000000E+00 0.  1.
          2    1    6    6  502    0 -0.35557283052E+03  0.30948197133E+03 -0.74801700355E+03  0.88416093896E+03  0.00000000000E+00 0. -1.
          1    1    5    5  503    0  0.64587568824E+02 -0.13619537483E+03  0.11300003804E+03  0.18838721498E+03  0.00000000000E+00 0. -1.
         -2    1    5    5    0  503 -0.24929913121E+02 -0.36966942826E+02  0.33458808537E+02  0.55745379170E+02  0.00000000000E+00 0.  1.
         -3    1    6    6    0  502  0.56789017425E+00  0.60238891083E+01 -0.32326094433E+02  0.32887476652E+02  0.00000000000E+00 0.  1.
<mgrwt>
<rscale>  0 0.13944048E+04</rscale>
<asrwt>0</asrwt>
<pdfrwt beam="1">  1        2 0.16350363E+00 0.13944048E+04</pdfrwt>
<pdfrwt beam="2">  1       -2 0.70366123E-01 0.13944048E+04</pdfrwt>
<totfact> 0.41129726E+01</totfact>
</mgrwt>
</event>
<event>
12    1  0.1755460E-007  0.1799372E+04  0.7818608E-02  0.8706633E-01
          2   -1    0    0  501    0  0.00000000000E+00  0.00000000000E+00  0.24651964487E+04  0.24651964487E+04  0.00000000000E+00 0. -1.
         -2   -1    0    0    0  501 -0.00000000000E+00 -0.00000000000E+00 -0.32834512368E+03  0.32834512368E+03  0.00000000000E+00 0.  1.
         23    2    1    2    0    0  0.21178831960E+03 -0.58243822967E+03  0.12700404976E+04  0.14160637696E+04  0.90250485929E+02 0.  0.
        254    2    1    2    0    0 -0.21178831960E+03  0.58243822967E+03  0.86681082739E+03  0.13774778028E+04  0.87292353788E+03 0.  0.
        -24    2    4    4    0    0 -0.53176623155E+03  0.35252422309E+03  0.38253143154E+03  0.74819182563E+03  0.80075332949E+02 0.  0.
         24    2    4    4    0    0  0.31997791194E+03  0.22991400658E+03  0.48427939585E+03  0.62928597715E+03  0.78917635789E+02 0.  0.
         11    1    3    3    0    0  0.14056300567E+03 -0.37419828729E+03  0.91256084487E+03  0.99626784168E+03  0.00000000000E+00 0. -1.
        -11    1    3    3    0    0  0.71225313937E+02 -0.20823994238E+03  0.35747965272E+03  0.41979592787E+03  0.00000000000E+00 0.  1.
          4    1    6    6  502    0  0.30608377685E+03  0.21403309340E+03  0.42207365857E+03  0.56359880835E+03  0.00000000000E+00 0. -1.
          3    1    5    5  503    0 -0.26343172058E+03  0.13437519330E+03  0.20154496385E+03  0.35787335251E+03  0.00000000000E+00 0. -1.
         -4    1    5    5    0  503 -0.26833451096E+03  0.21814902979E+03  0.18098646768E+03  0.39031847312E+03  0.00000000000E+00 0.  1.
         -3    1    6    6    0  502  0.13894135091E+02  0.15880913181E+02  0.62205737283E+02  0.65687168795E+02  0.00000000000E+00 0.  1.
<mgrwt>
<rscale>  0 0.17993724E+04</rscale>
<asrwt>0</asrwt>
<pdfrwt beam="1">  1        2 0.37926098E+00 0.17993724E+04</pdfrwt>
<pdfrwt beam="2">  1       -2 0.50514636E-01 0.17993724E+04</pdfrwt>
<totfact> 0.12771265E+01</totfact>
</mgrwt>
</event>
<event>
12    1  0.1755460E-007  0.1831985E+04  0.7818608E-02  0.8689473E-01
          2   -1    0    0  501    0  0.00000000000E+00  0.00000000000E+00  0.75604338378E+03  0.75604338378E+03  0.00000000000E+00 0. -1.
         -2   -1    0    0    0  501 -0.00000000000E+00 -0.00000000000E+00 -0.11097802409E+04  0.11097802409E+04  0.00000000000E+00 0.  1.
         23    2    1    2    0    0  0.22702774393E+03 -0.62110879270E+03 -0.33451961554E+03  0.74671612135E+03  0.91454162449E+02 0.  0.
        254    2    1    2    0    0 -0.22702774393E+03  0.62110879270E+03 -0.19217241597E+02  0.11191075033E+04  0.90261540690E+03 0.  0.
        -24    2    4    4    0    0 -0.30373585615E+03 -0.14354036840E+03  0.14973504955E+02  0.34571859356E+03  0.80236104162E+02 0.  0.
         24    2    4    4    0    0  0.76708112224E+02  0.76464916109E+03 -0.34190746552E+02  0.77338890977E+03  0.79930748573E+02 0.  0.
         11    1    3    3    0    0  0.43081049863E+02 -0.53141047356E+02 -0.53631262413E+02  0.86926751231E+02  0.00000000000E+00 0. -1.
        -11    1    3    3    0    0  0.18394669406E+03 -0.56796774534E+03 -0.28088835312E+03  0.65978937012E+03  0.00000000000E+00 0.  1.
          4    1    6    6  502    0  0.59275100988E+02  0.72856757945E+03 -0.43434800552E+02  0.73226418547E+03  0.00000000000E+00 0. -1.
          1    1    5    5  503    0 -0.26596356541E+03 -0.12753466716E+03  0.40005347876E+02  0.29766111152E+03  0.00000000000E+00 0. -1.
         -2    1    5    5    0  503 -0.37772290743E+02 -0.16005701235E+02 -0.25031842921E+02  0.48057482040E+02  0.00000000000E+00 0.  1.
         -3    1    6    6    0  502  0.17433011236E+02  0.36081581645E+02  0.92440539995E+01  0.41124724304E+02  0.00000000000E+00 0.  1.
<mgrwt>
<rscale>  0 0.18319847E+04</rscale>
<asrwt>0</asrwt>
<pdfrwt beam="1">  1        2 0.11631437E+00 0.18319847E+04</pdfrwt>
<pdfrwt beam="2">  1       -2 0.17073542E+00 0.18319847E+04</pdfrwt>
<totfact> 0.73545443E+00</totfact>
</mgrwt>
</event>
<event>
12    1  0.1755460E-007  0.1183776E+04  0.7818608E-02  0.9127177E-01
          2   -1    0    0  501    0  0.00000000000E+00  0.00000000000E+00  0.16129881256E+04  0.16129881256E+04  0.00000000000E+00 0. -1.
         -2   -1    0    0    0  501 -0.00000000000E+00 -0.00000000000E+00 -0.21719406308E+03  0.21719406308E+03  0.00000000000E+00 0.  1.
         23    2    1    2    0    0  0.10330789356E+03 -0.10845209491E+03  0.81394488849E+01  0.17578987796E+03  0.91659439239E+02 0.  0.
        254    2    1    2    0    0 -0.10330789356E+03  0.10845209491E+03  0.13876546137E+04  0.16543923107E+04  0.88825346230E+03 0.  0.
        -24    2    4    4    0    0  0.33407789971E+02 -0.34889856614E+03  0.89149648768E+03  0.96120446200E+03  0.79383501677E+02 0.  0.
         24    2    4    4    0    0 -0.13671568353E+03  0.45735066105E+03  0.49615812598E+03  0.69318784875E+03  0.80471749063E+02 0.  0.
         11    1    3    3    0    0  0.10573871951E+03 -0.12209981527E+03  0.98562301281E+01  0.16182146633E+03  0.00000000000E+00 0.  1.
        -11    1    3    3    0    0 -0.24308259527E+01  0.13647720353E+02 -0.17167812432E+01  0.13968411631E+02  0.00000000000E+00 0. -1.
          4    1    6    6  502    0 -0.82767395220E+02  0.37563024122E+03  0.41667128638E+03  0.56706567585E+03  0.00000000000E+00 0. -1.
          1    1    5    5  503    0  0.16932746566E+02 -0.18308239462E+03  0.36056442683E+03  0.40473767680E+03  0.00000000000E+00 0. -1.
         -2    1    5    5    0  503  0.16475043405E+02 -0.16581617152E+03  0.53093206085E+03  0.55646678520E+03  0.00000000000E+00 0.  1.
         -3    1    6    6    0  502 -0.53948288310E+02  0.81720419830E+02  0.79486839594E+02  0.12612217290E+03  0.00000000000E+00 0.  1.
<mgrwt>
<rscale>  0 0.11837761E+04</rscale>
<asrwt>0</asrwt>
<pdfrwt beam="1">  1        2 0.24815201E+00 0.11837761E+04</pdfrwt>
<pdfrwt beam="2">  1       -2 0.33414472E-01 0.11837761E+04</pdfrwt>
<totfact> 0.90627173E+01</totfact>
</mgrwt>
</event>
<event>
12    1  0.1755460E-007  0.1238181E+04  0.7818608E-02  0.9080078E-01
         -2   -1    0    0    0  501 -0.00000000000E+00  0.00000000000E+00  0.33784906562E+03  0.33784906562E+03  0.00000000000E+00 0.  1.
          2   -1    0    0  501    0  0.00000000000E+00 -0.00000000000E+00 -0.11344497495E+04  0.11344497495E+04  0.00000000000E+00 0. -1.
         23    2    1    2    0    0 -0.10431854113E+03 -0.27074637828E+03 -0.18235510663E+03  0.35482252173E+03  0.91976505891E+02 0.  0.
        254    2    1    2    0    0  0.10431854113E+03  0.27074637828E+03 -0.61424557722E+03  0.11174762933E+04  0.88728218605E+03 0.  0.
        -24    2    4    4    0    0  0.14638729995E+03  0.22336023053E+03  0.17019449690E+03  0.32672710995E+03  0.80407732410E+02 0.  0.
         24    2    4    4    0    0 -0.42068758820E+02  0.47386147748E+02 -0.78444007411E+03  0.79074918340E+03  0.76959818758E+02 0.  0.
         11    1    3    3    0    0 -0.10725283370E+02 -0.26744781742E+02 -0.59371907147E+02  0.65994987780E+02  0.00000000000E+00 0. -1.
        -11    1    3    3    0    0 -0.93593257764E+02 -0.24400159654E+03 -0.12298319948E+03  0.28882753395E+03  0.00000000000E+00 0.  1.
          2    1    6    6  502    0 -0.26240316064E+01 -0.10080495008E+02 -0.39391219316E+03  0.39404989258E+03  0.00000000000E+00 0. -1.
          1    1    5    5  503    0  0.18563286537E+02  0.64819323699E+02  0.11175063751E+02  0.68344878240E+02  0.00000000000E+00 0. -1.
         -2    1    5    5    0  503  0.12782401342E+03  0.15854090684E+03  0.15901943314E+03  0.25838223171E+03  0.00000000000E+00 0.  1.
         -1    1    6    6    0  502 -0.39444727213E+02  0.57466642756E+02 -0.39052788095E+03  0.39669929082E+03  0.00000000000E+00 0.  1.
<mgrwt>
<rscale>  0 0.12381806E+04</rscale>
<asrwt>0</asrwt>
<pdfrwt beam="1">  1        2 0.17453073E+00 0.12381806E+04</pdfrwt>
<pdfrwt beam="2">  1       -2 0.51976779E-01 0.12381806E+04</pdfrwt>
<totfact> 0.71368106E+01</totfact>
</mgrwt>
</event>
<event>
12    1  0.1755460E-007  0.2452035E+04  0.7818608E-02  0.8420275E-01
         -1   -1    0    0    0  501 -0.00000000000E+00  0.00000000000E+00  0.58541345322E+03  0.58541345322E+03  0.00000000000E+00 0.  1.
          1   -1    0    0  501    0  0.00000000000E+00 -0.00000000000E+00 -0.25676196715E+04  0.25676196715E+04  0.00000000000E+00 0. -1.
         23    2    1    2    0    0  0.77153266098E+03 -0.35447077278E+03 -0.16556672787E+04  0.18629398339E+04  0.91643392141E+02 0.  0.
        254    2    1    2    0    0 -0.77153266098E+03  0.35447077278E+03 -0.32653893953E+03  0.12900932908E+04  0.91476819146E+03 0.  0.
        -24    2    4    4    0    0  0.33479176596E+02  0.10110723993E+03  0.23723540403E+03  0.27204211390E+03  0.79892087066E+02 0.  0.
         24    2    4    4    0    0 -0.80501183758E+03  0.25336353285E+03 -0.56377434356E+03  0.10180511769E+04  0.79684062559E+02 0.  0.
         11    1    3    3    0    0  0.44958842089E+03 -0.15660595200E+03 -0.93034031029E+03  0.10450781145E+04  0.00000000000E+00 0.  1.
        -11    1    3    3    0    0  0.32194424009E+03 -0.19786482077E+03 -0.72532696842E+03  0.81786171945E+03  0.00000000000E+00 0. -1.
          2    1    6    6  502    0 -0.70145507219E+03  0.24314053739E+03 -0.51192435173E+03  0.90178882291E+03  0.00000000000E+00 0. -1.
          3    1    5    5  503    0  0.54862399594E+02  0.96720107694E+02  0.19398065386E+03  0.22359149401E+03  0.00000000000E+00 0. -1.
         -2    1    5    5    0  503 -0.21383222999E+02  0.43871322370E+01  0.43254750171E+02  0.48450619887E+02  0.00000000000E+00 0.  1.
         -1    1    6    6    0  502 -0.10355676538E+03  0.10222995462E+02 -0.51849991827E+02  0.11626235395E+03  0.00000000000E+00 0.  1.
<mgrwt>
<rscale>  0 0.24520352E+04</rscale>
<asrwt>0</asrwt>
<pdfrwt beam="1">  1        1 0.39501842E+00 0.24520352E+04</pdfrwt>
<pdfrwt beam="2">  1       -1 0.90063607E-01 0.24520352E+04</pdfrwt>
<totfact> 0.13075298E+00</totfact>
</mgrwt>
</event>
<event>
12    1  0.1755460E-007  0.1916072E+04  0.7818608E-02  0.8646897E-01
         -1   -1    0    0    0  501 -0.00000000000E+00  0.00000000000E+00  0.10695512024E+04  0.10695512024E+04  0.00000000000E+00 0.  1.
          1   -1    0    0  501    0  0.00000000000E+00 -0.00000000000E+00 -0.85814799592E+03  0.85814799592E+03  0.00000000000E+00 0. -1.
         23    2    1    2    0    0 -0.81982638549E+02 -0.36221936731E+03 -0.56435549944E+03  0.68159010438E+03  0.90243656635E+02 0.  0.
        254    2    1    2    0    0  0.81982638549E+02  0.36221936731E+03  0.77575870595E+03  0.12461090940E+04  0.90169966238E+03 0.  0.
        -24    2    4    4    0    0 -0.39538090944E+03  0.26082715416E+03  0.37474948544E+03  0.60916295831E+03  0.79280924857E+02 0.  0.
         24    2    4    4    0    0  0.47736354799E+03  0.10139221315E+03  0.40100922050E+03  0.63694613565E+03  0.82070987302E+02 0.  0.
         13    1    3    3    0    0 -0.73493033025E+02 -0.35975687005E+03 -0.52129771614E+03  0.63763433118E+03  0.00000000000E+00 0. -1.
        -13    1    3    3    0    0 -0.84896055245E+01 -0.24624972638E+01 -0.43057783302E+02  0.43955773200E+02  0.00000000000E+00 0.  1.
          4    1    6    6  502    0  0.79866611591E+02 -0.10570259257E+02  0.83530259579E+02  0.11605046442E+03  0.00000000000E+00 0. -1.
          3    1    5    5  503    0 -0.13349279803E+03  0.11756905232E+03  0.10339531461E+03  0.20575082083E+03  0.00000000000E+00 0. -1.
         -4    1    5    5    0  503 -0.26188811141E+03  0.14325810184E+03  0.27135417083E+03  0.40341213748E+03  0.00000000000E+00 0.  1.
         -3    1    6    6    0  502  0.39749693640E+03  0.11196247241E+03  0.31747896092E+03  0.52089567123E+03  0.00000000000E+00 0.  1.
<mgrwt>
<rscale>  0 0.19160723E+04</rscale>
<asrwt>0</asrwt>
<pdfrwt beam="1">  1        1 0.13202277E+00 0.19160723E+04</pdfrwt>
<pdfrwt beam="2">  1       -1 0.16454634E+00 0.19160723E+04</pdfrwt>
<totfact> 0.49748223E+00</totfact>
</mgrwt>
</event>
<event>
12    1  0.1755460E-007  0.1581021E+04  0.7818608E-02  0.8832293E-01
         -1   -1    0    0    0  501 -0.00000000000E+00  0.00000000000E+00  0.10674101566E+04  0.10674101566E+04  0.00000000000E+00 0.  1.
          1   -1    0    0  501    0  0.00000000000E+00 -0.00000000000E+00 -0.58544214360E+03  0.58544214360E+03  0.00000000000E+00 0. -1.
         23    2    1    2    0    0 -0.17601172706E+03 -0.14575309778E+03 -0.34720412270E+03  0.42534734513E+03  0.90252798379E+02 0.  0.
        254    2    1    2    0    0  0.17601172706E+03  0.14575309778E+03  0.82917213569E+03  0.12275049550E+04  0.87579557574E+03 0.  0.
        -24    2    4    4    0    0 -0.10623046722E+03  0.30933279830E+03  0.82572008269E+03  0.89174422893E+03  0.80140018673E+02 0.  0.
         24    2    4    4    0    0  0.28224219428E+03 -0.16357970052E+03  0.34520529982E+01  0.33576072612E+03  0.79400087411E+02 0.  0.
         13    1    3    3    0    0 -0.37566437854E+02 -0.14451470551E+02 -0.16408080455E+02  0.43466163373E+02  0.00000000000E+00 0.  1.
        -13    1    3    3    0    0 -0.13844528920E+03 -0.13130162723E+03 -0.33079604225E+03  0.38188118176E+03  0.00000000000E+00 0. -1.
          2    1    6    6  502    0  0.28389274787E+03 -0.15058201889E+03  0.91183345536E+01  0.32148589507E+03  0.00000000000E+00 0. -1.
          3    1    5    5  503    0 -0.19447279864E+02  0.14610374438E+03  0.43959163294E+03  0.46364351021E+03  0.00000000000E+00 0. -1.
         -2    1    5    5    0  503 -0.86783187358E+02  0.16322905392E+03  0.38612844976E+03  0.42810071872E+03  0.00000000000E+00 0.  1.
         -1    1    6    6    0  502 -0.16505535856E+01 -0.12997681628E+02 -0.56662815554E+01  0.14274831050E+02  0.00000000000E+00 0.  1.
<mgrwt>
<rscale>  0 0.15810211E+04</rscale>
<asrwt>0</asrwt>
<pdfrwt beam="1">  1        1 0.90068022E-01 0.15810211E+04</pdfrwt>
<pdfrwt beam="2">  1       -1 0.16421695E+00 0.15810211E+04</pdfrwt>
<totfact> 0.92623311E+00</totfact>
</mgrwt>
</event>
<event>
12    1  0.1755460E-007  0.1777552E+04  0.7818608E-02  0.8718329E-01
          1   -1    0    0  501    0  0.00000000000E+00  0.00000000000E+00  0.10823094511E+04  0.10823094511E+04  0.00000000000E+00 0. -1.
         -1   -1    0    0    0  501 -0.00000000000E+00 -0.00000000000E+00 -0.72984929814E+03  0.72984929814E+03  0.00000000000E+00 0.  1.
         23    2    1    2    0    0  0.52255561786E+03 -0.33050425031E+03 -0.10019734613E+03  0.63268289878E+03  0.89166748326E+02 0.  0.
        254    2    1    2    0    0 -0.52255561786E+03  0.33050425031E+03  0.45265749913E+03  0.11794758505E+04  0.89664208978E+03 0.  0.
        -24    2    4    4    0    0 -0.25974076423E+03 -0.19264254059E+03 -0.12266579005E+03  0.35470275475E+03  0.78681224752E+02 0.  0.
         24    2    4    4    0    0 -0.26281485362E+03  0.52314679091E+03  0.57532328918E+03  0.82477309575E+03  0.80619850392E+02 0.  0.
         13    1    3    3    0    0  0.49412390285E+03 -0.33299980194E+03 -0.99670606700E+02  0.60413701203E+03  0.00000000000E+00 0. -1.
        -13    1    3    3    0    0  0.28431715004E+02  0.24955516264E+01 -0.52673943350E+00  0.28545886752E+02  0.00000000000E+00 0.  1.
          2    1    6    6  502    0 -0.25482457067E+02  0.18486459504E+02  0.17621638383E+02  0.36078067332E+02  0.00000000000E+00 0. -1.
          1    1    5    5  503    0 -0.13249010090E+03 -0.87348690575E+02 -0.19307238844E+02  0.15986303530E+03  0.00000000000E+00 0. -1.
         -2    1    5    5    0  503 -0.12725066333E+03 -0.10529385002E+03 -0.10335855120E+03  0.19483971945E+03  0.00000000000E+00 0.  1.
         -1    1    6    6    0  502 -0.23733239656E+03  0.50466033140E+03  0.55770165079E+03  0.78869502841E+03  0.00000000000E+00 0.  1.
<mgrwt>
<rscale>  0 0.17775520E+04</rscale>
<asrwt>0</asrwt>
<pdfrwt beam="1">  1        1 0.16650915E+00 0.17775520E+04</pdfrwt>
<pdfrwt beam="2">  1       -1 0.11228451E+00 0.17775520E+04</pdfrwt>
<totfact> 0.89859587E+00</totfact>
</mgrwt>
</event>
<event>
12    1  0.1755460E-007  0.1555134E+04  0.7818608E-02  0.8848595E-01
         -1   -1    0    0    0  501 -0.00000000000E+00  0.00000000000E+00  0.37359118699E+03  0.37359118699E+03  0.00000000000E+00 0.  1.
          1   -1    0    0  501    0  0.00000000000E+00 -0.00000000000E+00 -0.16183744157E+04  0.16183744157E+04  0.00000000000E+00 0. -1.
         23    2    1    2    0    0  0.86568188113E+02 -0.18463326512E+03  0.18531502731E+03  0.29043519996E+03  0.91801156028E+02 0.  0.
        254    2    1    2    0    0 -0.86568188113E+02  0.18463326512E+03 -0.14300982560E+04  0.17015304027E+04  0.89913358057E+03 0.  0.
        -24    2    4    4    0    0  0.66301739938E+02  0.45051543007E+03 -0.12585452637E+04  0.13407552567E+04  0.79551268206E+02 0.  0.
         24    2    4    4    0    0 -0.15286992805E+03 -0.26588216495E+03 -0.17155299234E+03  0.36077514599E+03  0.81643960225E+02 0.  0.
         11    1    3    3    0    0  0.41411850682E+02 -0.13410598049E+03  0.17091159063E+03  0.22115634106E+03  0.00000000000E+00 0.  1.
        -11    1    3    3    0    0  0.45156337431E+02 -0.50527284632E+02  0.14403436680E+02  0.69278858901E+02  0.00000000000E+00 0. -1.
          4    1    6    6  502    0 -0.10152879598E+03 -0.10531485089E+03 -0.10241442245E+03  0.17857219313E+03  0.00000000000E+00 0. -1.
          3    1    5    5  503    0  0.45824687833E+02  0.92952844712E+02 -0.30870246732E+03  0.32563376159E+03  0.00000000000E+00 0. -1.
         -4    1    5    5    0  503  0.20477052105E+02  0.35756258536E+03 -0.94984279633E+03  0.10151214951E+04  0.00000000000E+00 0.  1.
         -3    1    6    6    0  502 -0.51341132071E+02 -0.16056731406E+03 -0.69138569894E+02  0.18220295286E+03  0.00000000000E+00 0.  1.
<mgrwt>
<rscale>  0 0.15551340E+04</rscale>
<asrwt>0</asrwt>
<pdfrwt beam="1">  1        1 0.24898068E+00 0.15551340E+04</pdfrwt>
<pdfrwt beam="2">  1       -1 0.57475567E-01 0.15551340E+04</pdfrwt>
<totfact> 0.16003298E+01</totfact>
</mgrwt>
</event>
<event>
12    1  0.1755460E-007  0.1957166E+04  0.7818608E-02  0.8626913E-01
          2   -1    0    0  501    0  0.00000000000E+00  0.00000000000E+00  0.19722356437E+04  0.19722356437E+04  0.00000000000E+00 0.  1.
         -2   -1    0    0    0  501 -0.00000000000E+00 -0.00000000000E+00 -0.48555277825E+03  0.48555277825E+03  0.00000000000E+00 0. -1.
         23    2    1    2    0    0  0.42740922655E+03  0.61608822928E+03  0.82210481547E+03  0.11165747051E+04  0.92948325757E+02 0.  0.
        254    2    1    2    0    0 -0.42740922655E+03 -0.61608822928E+03  0.66457805001E+03  0.13412137169E+04  0.89159794559E+03 0.  0.
        -24    2    4    4    0    0 -0.44460295775E+03 -0.54589594613E+03  0.42331635370E+02  0.70975464562E+03  0.79281243556E+02 0.  0.
         24    2    4    4    0    0  0.17193731202E+02 -0.70192283150E+02  0.62224641464E+03  0.63145907126E+03  0.79544812093E+02 0.  0.
         13    1    3    3    0    0  0.32447493034E+03  0.49360697626E+03  0.69587044042E+03  0.91278009251E+03  0.00000000000E+00 0.  1.
        -13    1    3    3    0    0  0.10293429621E+03  0.12248125302E+03  0.12623437505E+03  0.20379461260E+03  0.00000000000E+00 0. -1.
          4    1    6    6  502    0  0.36526215801E+02 -0.62630366652E+01  0.14984343819E+03  0.15435817450E+03  0.00000000000E+00 0. -1.
          1    1    5    5  503    0 -0.89060186682E+02 -0.73779769311E+02 -0.11849786690E+02  0.11625656393E+03  0.00000000000E+00 0. -1.
         -2    1    5    5    0  503 -0.35554277107E+03 -0.47211617682E+03  0.54181422060E+02  0.59349808170E+03  0.00000000000E+00 0.  1.
         -3    1    6    6    0  502 -0.19332484600E+02 -0.63929246485E+02  0.47240297646E+03  0.47710089675E+03  0.00000000000E+00 0.  1.
<mgrwt>
<rscale>  0 0.19571658E+04</rscale>
<asrwt>0</asrwt>
<pdfrwt beam="1">  1        2 0.30342086E+00 0.19571658E+04</pdfrwt>
<pdfrwt beam="2">  1       -2 0.74700428E-01 0.19571658E+04</pdfrwt>
<totfact> 0.10397288E+01</totfact>
</mgrwt>
</event>
<event>
12    1  0.1755460E-007  0.1577207E+04  0.7818608E-02  0.8834674E-01
          2   -1    0    0  501    0  0.00000000000E+00  0.00000000000E+00  0.43862984857E+03  0.43862984857E+03  0.00000000000E+00 0. -1.
         -2   -1    0    0    0  501 -0.00000000000E+00 -0.00000000000E+00 -0.14178133061E+04  0.14178133061E+04  0.00000000000E+00 0.  1.
         23    2    1    2    0    0  0.24130967849E+03 -0.81052445502E+02 -0.87756852091E+03  0.92022739956E+03  0.10905089705E+03 0.  0.
        254    2    1    2    0    0 -0.24130967849E+03  0.81052445502E+02 -0.10161493662E+03  0.93621575512E+03  0.89519522169E+03 0.  0.
        -24    2    4    4    0    0  0.12043972323E+03 -0.21597462624E+03  0.23804679796E+03  0.35241142063E+03  0.79854650829E+02 0.  0.
         24    2    4    4    0    0 -0.36174940172E+03  0.29702707174E+03 -0.33966173458E+03  0.58380433449E+03  0.79810375537E+02 0.  0.
         11    1    3    3    0    0  0.36686116190E+02 -0.17657598688E+02 -0.32579200202E+03  0.32832619526E+03  0.00000000000E+00 0.  1.
        -11    1    3    3    0    0  0.20462356230E+03 -0.63394846814E+02 -0.55177651889E+03  0.59190120430E+03  0.00000000000E+00 0. -1.
          2    1    6    6  502    0 -0.15823233778E+03  0.84326307148E+02 -0.10914089190E+03  0.20990505731E+03  0.00000000000E+00 0. -1.
          3    1    5    5  503    0  0.17947621886E+02 -0.86263985859E+02  0.47331715523E+02  0.10001941652E+03  0.00000000000E+00 0. -1.
         -4    1    5    5    0  503  0.10249210135E+03 -0.12971064038E+03  0.19071508244E+03  0.25239200410E+03  0.00000000000E+00 0.  1.
         -1    1    6    6    0  502 -0.20351706394E+03  0.21270076459E+03 -0.23052084268E+03  0.37389927719E+03  0.00000000000E+00 0.  1.
<mgrwt>
<rscale>  0 0.15772067E+04</rscale>
<asrwt>0</asrwt>
<pdfrwt beam="1">  1        2 0.67481515E-01 0.15772067E+04</pdfrwt>
<pdfrwt beam="2">  1       -2 0.21812513E+00 0.15772067E+04</pdfrwt>
<totfact> 0.69830716E+00</totfact>
</mgrwt>
</event>
<event>
12    1  0.1755460E-007  0.2005634E+04  0.7818608E-02  0.8603991E-01
         -2   -1    0    0    0  501 -0.00000000000E+00  0.00000000000E+00  0.31743740199E+03  0.31743740199E+03  0.00000000000E+00 0.  1.
          2   -1    0    0  501    0  0.00000000000E+00 -0.00000000000E+00 -0.31680001008E+04  0.31680001008E+04  0.00000000000E+00 0. -1.
         23    2    1    2    0    0 -0.41687595184E+03  0.47346809580E+03 -0.19991279999E+04  0.20987818293E+04  0.10205297679E+03 0.  0.
        254    2    1    2    0    0  0.41687595184E+03 -0.47346809580E+03 -0.85143469891E+03  0.13866556735E+04  0.89437984848E+03 0.  0.
        -24    2    4    4    0    0  0.32531288760E+03 -0.10050215791E+03 -0.92369617800E+03  0.98769128720E+03  0.79939295511E+02 0.  0.
         24    2    4    4    0    0  0.91563064241E+02 -0.37296593790E+03  0.72261479086E+02  0.39896438630E+03  0.80395737527E+02 0.  0.
         11    1    3    3    0    0 -0.27995897936E+03  0.35125894176E+03 -0.12768727199E+04  0.13535744594E+04  0.00000000000E+00 0. -1.
        -11    1    3    3    0    0 -0.13691697248E+03  0.12220915405E+03 -0.72225528005E+03  0.74520736997E+03  0.00000000000E+00 0.  1.
          4    1    6    6  502    0  0.64691061015E+02 -0.35213615811E+03  0.61282578350E+02  0.36323595862E+03  0.00000000000E+00 0. -1.
          3    1    5    5  503    0  0.31989124309E+03 -0.83367033874E+02 -0.89152565353E+03  0.95084092289E+03  0.00000000000E+00 0. -1.
         -4    1    5    5    0  503  0.54216445174E+01 -0.17135124031E+02 -0.32170524474E+02  0.36850364310E+02  0.00000000000E+00 0.  1.
         -3    1    6    6    0  502  0.26872003226E+02 -0.20829779787E+02  0.10978900737E+02  0.35728427683E+02  0.00000000000E+00 0.  1.
<mgrwt>
<rscale>  0 0.20056338E+04</rscale>
<asrwt>0</asrwt>
<pdfrwt beam="1">  1        2 0.48738462E+00 0.20056338E+04</pdfrwt>
<pdfrwt beam="2">  1       -2 0.48836525E-01 0.20056338E+04</pdfrwt>
<totfact> 0.50325008E+00</totfact>
</mgrwt>
</event>
<event>
12    1  0.1755460E-007  0.2343353E+04  0.7818608E-02  0.8461021E-01
         -1   -1    0    0    0  501 -0.00000000000E+00  0.00000000000E+00  0.11236420236E+04  0.11236420236E+04  0.00000000000E+00 0.  1.
          1   -1    0    0  501    0  0.00000000000E+00 -0.00000000000E+00 -0.12217647344E+04  0.12217647344E+04  0.00000000000E+00 0. -1.
         23    2    1    2    0    0 -0.69145041329E+03 -0.54799237014E+03 -0.51080823757E+03  0.10236315933E+04  0.92180645996E+02 0.  0.
        254    2    1    2    0    0  0.69145041329E+03  0.54799237014E+03  0.41268552676E+03  0.13217751648E+04  0.89352164517E+03 0.  0.
        -24    2    4    4    0    0 -0.68378875091E+02  0.47682001147E+03  0.17316937810E+03  0.51786720988E+03  0.78522733445E+02 0.  0.
         24    2    4    4    0    0  0.75982928838E+03  0.71172358669E+02  0.23951614866E+03  0.80390795487E+03  0.80585124623E+02 0.  0.
         11    1    3    3    0    0 -0.66062967986E+03 -0.52635854974E+03 -0.46459471336E+03  0.96401926561E+03  0.00000000000E+00 0. -1.
        -11    1    3    3    0    0 -0.30820733435E+02 -0.21633820398E+02 -0.46213524204E+02  0.59612327700E+02  0.00000000000E+00 0.  1.
          4    1    6    6  502    0  0.69143160740E+03  0.46944813583E+02  0.20010753630E+03  0.72133522672E+03  0.00000000000E+00 0. -1.
          1    1    5    5  503    0 -0.41286792658E+02  0.18555290477E+03  0.10631248317E+03  0.21779996280E+03  0.00000000000E+00 0. -1.
         -2    1    5    5    0  503 -0.27092082432E+02  0.29126710669E+03  0.66856894923E+02  0.30006724708E+03  0.00000000000E+00 0.  1.
         -3    1    6    6    0  502  0.68397680988E+02  0.24227545086E+02  0.39408612361E+02  0.82572728147E+02  0.00000000000E+00 0.  1.
<mgrwt>
<rscale>  0 0.23433533E+04</rscale>
<asrwt>0</asrwt>
<pdfrwt beam="1">  1        1 0.18796380E+00 0.23433533E+04</pdfrwt>
<pdfrwt beam="2">  1       -1 0.17286800E+00 0.23433533E+04</pdfrwt>
<totfact> 0.21749413E+00</totfact>
</mgrwt>
</event>
<event>
12    1  0.1755460E-007  0.1673550E+04  0.7818608E-02  0.8776595E-01
         -1   -1    0    0    0  501 -0.00000000000E+00  0.00000000000E+00  0.31608021659E+03  0.31608021659E+03  0.00000000000E+00 0.  1.
          1   -1    0    0  501    0  0.00000000000E+00 -0.00000000000E+00 -0.22152375947E+04  0.22152375947E+04  0.00000000000E+00 0. -1.
         23    2    1    2    0    0 -0.20977612926E+03 -0.47146268058E+03 -0.11249028799E+04  0.12427450433E+04  0.11280811111E+03 0.  0.
        254    2    1    2    0    0  0.20977612926E+03  0.47146268058E+03 -0.77425449820E+03  0.12885727679E+04  0.89144078139E+03 0.  0.
        -24    2    4    4    0    0  0.21018639806E+02 -0.20856751883E+02  0.17748561311E+03  0.19683675972E+03  0.79792103598E+02 0.  0.
         24    2    4    4    0    0  0.18875748945E+03  0.49231943246E+03 -0.95174011131E+03  0.10917360082E+04  0.89835732251E+02 0.  0.
         11    1    3    3    0    0 -0.88575008016E+01 -0.14195355717E+03 -0.31054546616E+03  0.34156661761E+03  0.00000000000E+00 0.  1.
        -11    1    3    3    0    0 -0.20091862846E+03 -0.32950912341E+03 -0.81435741373E+03  0.90117842571E+03  0.00000000000E+00 0. -1.
          4    1    6    6  502    0  0.13894104465E+03  0.42578508916E+03 -0.84596135732E+03  0.95720853220E+03  0.00000000000E+00 0. -1.
          3    1    5    5  503    0  0.80702973364E+01  0.29557814668E+02  0.89598503221E+02  0.94692586228E+02  0.00000000000E+00 0. -1.
         -4    1    5    5    0  503  0.12948342470E+02 -0.50414566551E+02  0.87887109888E+02  0.10214417349E+03  0.00000000000E+00 0.  1.
         -1    1    6    6    0  502  0.49816444802E+02  0.66534343307E+02 -0.10577875398E+03  0.13452747603E+03  0.00000000000E+00 0.  1.
<mgrwt>
<rscale>  0 0.16735505E+04</rscale>
<asrwt>0</asrwt>
<pdfrwt beam="1">  1        1 0.34080577E+00 0.16735505E+04</pdfrwt>
<pdfrwt beam="2">  1       -1 0.48627727E-01 0.16735505E+04</pdfrwt>
<totfact> 0.85913724E+00</totfact>
</mgrwt>
</event>
<event>
12    1  0.1755460E-007  0.1546678E+04  0.7818608E-02  0.8853992E-01
         -2   -1    0    0    0  501 -0.00000000000E+00  0.00000000000E+00  0.74624170203E+03  0.74624170203E+03  0.00000000000E+00 0.  1.
          2   -1    0    0  501    0  0.00000000000E+00 -0.00000000000E+00 -0.80142062606E+03  0.80142062606E+03  0.00000000000E+00 0. -1.
         23    2    1    2    0    0  0.33263171995E+03 -0.30192305296E+03  0.20544409769E+03  0.50187944177E+03  0.88737285092E+02 0.  0.
        254    2    1    2    0    0 -0.33263171995E+03  0.30192305296E+03 -0.26062302172E+03  0.10457828863E+04  0.90770925678E+03 0.  0.
        -24    2    4    4    0    0 -0.60541154316E+03  0.33239971241E+03 -0.62343171474E+02  0.69814799941E+03  0.80692333302E+02 0.  0.
         24    2    4    4    0    0  0.27277982320E+03 -0.30476659444E+02 -0.19827985025E+03  0.34763488691E+03  0.78723928173E+02 0.  0.
         11    1    3    3    0    0  0.13502172969E+03 -0.14941041946E+03  0.13523119430E+03  0.24257332261E+03  0.00000000000E+00 0. -1.
        -11    1    3    3    0    0  0.19760999026E+03 -0.15251263350E+03  0.70212903394E+02  0.25930611916E+03  0.00000000000E+00 0.  1.
          4    1    6    6  502    0  0.27530711895E+02 -0.81042190776E+01  0.39564798270E+01  0.28970194975E+02  0.00000000000E+00 0. -1.
          1    1    5    5  503    0 -0.45417343236E+03  0.25869610753E+03 -0.80823091747E+02  0.52889465385E+03  0.00000000000E+00 0. -1.
         -2    1    5    5    0  503 -0.15123811080E+03  0.73703604878E+02  0.18479920273E+02  0.16925334556E+03  0.00000000000E+00 0.  1.
         -3    1    6    6    0  502  0.24524911131E+03 -0.22372440366E+02 -0.20223633007E+03  0.31866469194E+03  0.00000000000E+00 0.  1.
<mgrwt>
<rscale>  0 0.15466784E+04</rscale>
<asrwt>0</asrwt>
<pdfrwt beam="1">  1        2 0.12329548E+00 0.15466784E+04</pdfrwt>
<pdfrwt beam="2">  1       -2 0.11480642E+00 0.15466784E+04</pdfrwt>
<totfact> 0.19590529E+01</totfact>
</mgrwt>
</event>
<event>
12    1  0.1755460E-007  0.4220974E+04  0.7818608E-02  0.7961395E-01
         -2   -1    0    0    0  501 -0.00000000000E+00  0.00000000000E+00  0.21437383435E+04  0.21437383435E+04  0.00000000000E+00 0.  1.
          2   -1    0    0  501    0  0.00000000000E+00 -0.00000000000E+00 -0.20777514393E+04  0.20777514393E+04  0.00000000000E+00 0. -1.
         23    2    1    2    0    0 -0.10868364541E+04 -0.76132228620E+03 -0.14796899356E+04  0.19895981450E+04  0.90517245211E+02 0.  0.
        254    2    1    2    0    0  0.10868364541E+04  0.76132228620E+03  0.15456768398E+04  0.22318916377E+04  0.91181044533E+03 0.  0.
        -24    2    4    4    0    0  0.59745206084E+02  0.32063757354E+03  0.84764917105E+03  0.91165733639E+03  0.78943261904E+02 0.  0.
         24    2    4    4    0    0  0.10270912480E+04  0.44068471266E+03  0.69802766872E+03  0.13202343014E+04  0.81587599846E+02 0.  0.
         11    1    3    3    0    0 -0.93915205353E+03 -0.65333216390E+03 -0.13197041083E+04  0.17465590255E+04  0.00000000000E+00 0. -1.
        -11    1    3    3    0    0 -0.14768440057E+03 -0.10799012230E+03 -0.15998582738E+03  0.24303911959E+03  0.00000000000E+00 0.  1.
          4    1    6    6  502    0  0.84859426970E+03  0.39596563397E+03  0.59185497061E+03  0.11077875808E+04  0.00000000000E+00 0. -1.
          3    1    5    5  503    0  0.30889405958E+02  0.12504041843E+03  0.44210199127E+03  0.46048173940E+03  0.00000000000E+00 0. -1.
         -4    1    5    5    0  503  0.28855800127E+02  0.19559715511E+03  0.40554717978E+03  0.45117559699E+03  0.00000000000E+00 0.  1.
         -3    1    6    6    0  502  0.17849697831E+03  0.44719078691E+02  0.10617269812E+03  0.21244672059E+03  0.00000000000E+00 0.  1.
<mgrwt>
<rscale>  0 0.42209740E+04</rscale>
<asrwt>0</asrwt>
<pdfrwt beam="1">  1        2 0.31965407E+00 0.42209740E+04</pdfrwt>
<pdfrwt beam="2">  1       -2 0.32980590E+00 0.42209740E+04</pdfrwt>
<totfact> 0.97535929E-02</totfact>
</mgrwt>
</event>
<event>
12    1  0.1755460E-007  0.1136009E+04  0.7818608E-02  0.9170789E-01
         -1   -1    0    0    0  501 -0.00000000000E+00  0.00000000000E+00  0.25896131780E+03  0.25896131780E+03  0.00000000000E+00 0.  1.
          1   -1    0    0  501    0  0.00000000000E+00 -0.00000000000E+00 -0.12458580123E+04  0.12458580123E+04  0.00000000000E+00 0. -1.
         23    2    1    2    0    0 -0.12419565148E+03  0.35075752687E+02 -0.37925320194E+03  0.41071658601E+03  0.90555256987E+02 0.  0.
        254    2    1    2    0    0  0.12419565148E+03 -0.35075752687E+02 -0.60764349251E+03  0.10941027440E+04  0.90065272568E+03 0.  0.
        -24    2    4    4    0    0  0.26409166063E+03 -0.36971869547E+03 -0.55061833560E+03  0.71834627635E+03  0.80028134141E+02 0.  0.
         24    2    4    4    0    0 -0.13989600915E+03  0.33464294279E+03 -0.57025156911E+02  0.37575646770E+03  0.79901576723E+02 0.  0.
         11    1    3    3    0    0 -0.11021478070E+03  0.79558489532E+01 -0.19654672208E+03  0.22547994895E+03  0.00000000000E+00 0. -1.
        -11    1    3    3    0    0 -0.13980870775E+02  0.27119903734E+02 -0.18270647985E+03  0.18523663705E+03  0.00000000000E+00 0.  1.
          4    1    6    6  502    0 -0.21557858109E+02  0.15360382407E+03 -0.22442490556E+02  0.15672441226E+03  0.00000000000E+00 0. -1.
          3    1    5    5  503    0 -0.13689792987E+01 -0.14491976821E+02 -0.37083032142E+02  0.39837705372E+02  0.00000000000E+00 0. -1.
         -4    1    5    5    0  503  0.26546063993E+03 -0.35522671865E+03 -0.51353530345E+03  0.67850857098E+03  0.00000000000E+00 0.  1.
         -3    1    6    6    0  502 -0.11833815104E+03  0.18103911871E+03 -0.34582666354E+02  0.21903205544E+03  0.00000000000E+00 0.  1.
<mgrwt>
<rscale>  0 0.11360089E+04</rscale>
<asrwt>0</asrwt>
<pdfrwt beam="1">  1        1 0.19167046E+00 0.11360089E+04</pdfrwt>
<pdfrwt beam="2">  1       -1 0.39840204E-01 0.11360089E+04</pdfrwt>
<totfact> 0.60319141E+01</totfact>
</mgrwt>
</event>
<event>
12    1  0.1755460E-007  0.1493972E+04  0.7818608E-02  0.8888472E-01
         -2   -1    0    0    0  501 -0.00000000000E+00  0.00000000000E+00  0.72189960881E+03  0.72189960881E+03  0.00000000000E+00 0.  1.
          2   -1    0    0  501    0  0.00000000000E+00 -0.00000000000E+00 -0.77294368319E+03  0.77294368319E+03  0.00000000000E+00 0. -1.
         23    2    1    2    0    0  0.42552292862E+03 -0.10071347028E+03  0.12732338885E+03  0.46456969580E+03  0.91655829219E+02 0.  0.
        254    2    1    2    0    0 -0.42552292862E+03  0.10071347028E+03 -0.17836746323E+03  0.10302735962E+04  0.91566138132E+03 0.  0.
        -24    2    4    4    0    0  0.12801904480E+03  0.35684057260E+03 -0.14686161361E+03  0.41417682755E+03  0.79057199786E+02 0.  0.
         24    2    4    4    0    0 -0.55354197341E+03 -0.25612710233E+03 -0.31505849617E+02  0.61609676866E+03  0.81072812448E+02 0.  0.
         13    1    3    3    0    0  0.46503281672E+02 -0.13707038000E+02  0.46917645645E+02  0.67466314334E+02  0.00000000000E+00 0. -1.
        -13    1    3    3    0    0  0.37901964695E+03 -0.87006432275E+02  0.80405743203E+02  0.39710338146E+03  0.00000000000E+00 0.  1.
          4    1    6    6  502    0 -0.20848028597E+03 -0.64065180356E+02  0.14118092266E+02  0.21855822451E+03  0.00000000000E+00 0. -1.
          3    1    5    5  503    0  0.98065204471E+01  0.19755173508E+02  0.97831364769E+01  0.24127670483E+02  0.00000000000E+00 0. -1.
         -4    1    5    5    0  503  0.11821252435E+03  0.33708539910E+03 -0.15664475009E+03  0.39004915706E+03  0.00000000000E+00 0.  1.
         -3    1    6    6    0  502 -0.34506168745E+03 -0.19206192197E+03 -0.45623941882E+02  0.39753854415E+03  0.00000000000E+00 0.  1.
<mgrwt>
<rscale>  0 0.14939715E+04</rscale>
<asrwt>0</asrwt>
<pdfrwt beam="1">  1        2 0.11891441E+00 0.14939715E+04</pdfrwt>
<pdfrwt beam="2">  1       -2 0.11106148E+00 0.14939715E+04</pdfrwt>
<totfact> 0.22370381E+01</totfact>
</mgrwt>
</event>
<event>
12    1  0.1755460E-007  0.1598252E+04  0.7818608E-02  0.8821622E-01
         -1   -1    0    0    0  501 -0.00000000000E+00  0.00000000000E+00  0.12214591103E+04  0.12214591103E+04  0.00000000000E+00 0.  1.
          1   -1    0    0  501    0  0.00000000000E+00 -0.00000000000E+00 -0.52281941459E+03  0.52281941459E+03  0.00000000000E+00 0. -1.
         23    2    1    2    0    0  0.42797136833E+03  0.29684961952E+03  0.78473359816E+02  0.53494720016E+03  0.93441158149E+02 0.  0.
        254    2    1    2    0    0 -0.42797136833E+03 -0.29684961952E+03  0.62016633592E+03  0.12093313248E+04  0.89810733218E+03 0.  0.
        -24    2    4    4    0    0 -0.26611852374E+03 -0.43828132425E+03 -0.30243733607E+02  0.52002438406E+03  0.81247084404E+02 0.  0.
         24    2    4    4    0    0 -0.16185284459E+03  0.14143170474E+03  0.65041006953E+03  0.68930694070E+03  0.76886471834E+02 0.  0.
         13    1    3    3    0    0  0.22986289473E+03  0.16807617328E+03 -0.37063160756E+01  0.28478112153E+03  0.00000000000E+00 0. -1.
        -13    1    3    3    0    0  0.19810847360E+03  0.12877344623E+03  0.82179675891E+02  0.25016607863E+03  0.00000000000E+00 0.  1.
          4    1    6    6  502    0 -0.45479566995E+02  0.15104834862E+02  0.23413681699E+03  0.23899078669E+03  0.00000000000E+00 0. -1.
          3    1    5    5  503    0 -0.18067326528E+02 -0.21866667907E+02 -0.20908035438E+02  0.35238124228E+02  0.00000000000E+00 0. -1.
         -4    1    5    5    0  503 -0.24805119721E+03 -0.41641465635E+03 -0.93356981687E+01  0.48478625983E+03  0.00000000000E+00 0.  1.
         -3    1    6    6    0  502 -0.11637327759E+03  0.12632686987E+03  0.41627325254E+03  0.45031615402E+03  0.00000000000E+00 0.  1.
<mgrwt>
<rscale>  0 0.15982522E+04</rscale>
<asrwt>0</asrwt>
<pdfrwt beam="1">  1        1 0.80433756E-01 0.15982522E+04</pdfrwt>
<pdfrwt beam="2">  1       -1 0.18791679E+00 0.15982522E+04</pdfrwt>
<totfact> 0.73051081E+00</totfact>
</mgrwt>
</event>
<event>
12    1  0.1755460E-007  0.2230072E+04  0.7818608E-02  0.8506015E-01
         -1   -1    0    0    0  501 -0.00000000000E+00  0.00000000000E+00  0.13100488511E+04  0.13100488511E+04  0.00000000000E+00 0.  1.
          1   -1    0    0  501    0  0.00000000000E+00 -0.00000000000E+00 -0.94905255503E+03  0.94905255503E+03  0.00000000000E+00 0. -1.
         23    2    1    2    0    0 -0.87051725425E+03 -0.22788485477E+03  0.41868972111E+03  0.99685166626E+03  0.93168476292E+02 0.  0.
        254    2    1    2    0    0  0.87051725425E+03  0.22788485477E+03 -0.57693425070E+02  0.12622497398E+04  0.88329727579E+03 0.  0.
        -24    2    4    4    0    0  0.25248832001E+03  0.47789903308E+03 -0.18985439033E+03  0.57776454241E+03  0.75028923593E+02 0.  0.
         24    2    4    4    0    0  0.61802893424E+03 -0.25001417831E+03  0.13216096526E+03  0.68448519743E+03  0.81157943811E+02 0.  0.
         11    1    3    3    0    0 -0.41304853990E+02 -0.32884305482E+02  0.22468577416E+02  0.57378615191E+02  0.00000000000E+00 0.  1.
        -11    1    3    3    0    0 -0.82921240026E+03 -0.19500054929E+03  0.39622114369E+03  0.93947305107E+03  0.00000000000E+00 0. -1.
          4    1    6    6  502    0  0.12615293940E+03 -0.28243648317E+02  0.50462112075E+02  0.13877569147E+03  0.00000000000E+00 0. -1.
          1    1    5    5  503    0  0.83253394323E+02  0.96590357361E+02 -0.59335140717E+02  0.14064666269E+03  0.00000000000E+00 0. -1.
         -2    1    5    5    0  503  0.16923492569E+03  0.38130867572E+03 -0.13051924961E+03  0.43711787972E+03  0.00000000000E+00 0.  1.
         -3    1    6    6    0  502  0.49187599485E+03 -0.22177052999E+03  0.81698853182E+02  0.54570950595E+03  0.00000000000E+00 0.  1.
<mgrwt>
<rscale>  0 0.22300719E+04</rscale>
<asrwt>0</asrwt>
<pdfrwt beam="1">  1        1 0.14600808E+00 0.22300719E+04</pdfrwt>
<pdfrwt beam="2">  1       -1 0.20154598E+00 0.22300719E+04</pdfrwt>
<totfact> 0.22171948E+00</totfact>
</mgrwt>
</event>
<event>
12    1  0.1755460E-007  0.1266329E+04  0.7818608E-02  0.9056701E-01
          3   -1    0    0  501    0  0.00000000000E+00  0.00000000000E+00  0.18016410171E+04  0.18016410171E+04  0.00000000000E+00 0. -1.
         -3   -1    0    0    0  501 -0.00000000000E+00 -0.00000000000E+00 -0.22251794472E+03  0.22251794472E+03  0.00000000000E+00 0.  1.
         23    2    1    2    0    0 -0.18098141715E+03 -0.11381492134E+03  0.47602194784E+02  0.23652819336E+03  0.89283299835E+02 0.  0.
        254    2    1    2    0    0  0.18098141715E+03  0.11381492134E+03  0.15315208776E+04  0.17876307685E+04  0.89686089009E+03 0.  0.
        -24    2    4    4    0    0  0.39262861625E+03 -0.15091856942E+03  0.34012245257E+03  0.54631651387E+03  0.76451328832E+02 0.  0.
         24    2    4    4    0    0 -0.21164719910E+03  0.26473349076E+03  0.11913984251E+04  0.12413142546E+04  0.80947597257E+02 0.  0.
         13    1    3    3    0    0 -0.69852181473E+02 -0.34038020595E+02  0.61400086731E+02  0.99034765376E+02  0.00000000000E+00 0. -1.
        -13    1    3    3    0    0 -0.11112923568E+03 -0.79776900749E+02 -0.13797891947E+02  0.13749342798E+03  0.00000000000E+00 0.  1.
          2    1    6    6  502    0 -0.18048094216E+03  0.24113746240E+03  0.11213434249E+04  0.11610907470E+04  0.00000000000E+00 0. -1.
          1    1    5    5  503    0  0.10117353997E+03 -0.56801962482E+02  0.57187811572E+02  0.12935607417E+03  0.00000000000E+00 0. -1.
         -2    1    5    5    0  503  0.29145507628E+03 -0.94116606936E+02  0.28293464100E+03  0.41696043969E+03  0.00000000000E+00 0.  1.
         -1    1    6    6    0  502 -0.31166256940E+02  0.23596028365E+02  0.70055000180E+02  0.80223507630E+02  0.00000000000E+00 0.  1.
<mgrwt>
<rscale>  0 0.12663293E+04</rscale>
<asrwt>0</asrwt>
<pdfrwt beam="1">  1        3 0.27717553E+00 0.12663293E+04</pdfrwt>
<pdfrwt beam="2">  1       -3 0.34233531E-01 0.12663293E+04</pdfrwt>
<totfact> 0.11311297E+00</totfact>
</mgrwt>
</event>
<event>
12    1  0.1755460E-007  0.1277261E+04  0.7818608E-02  0.9047794E-01
          1   -1    0    0  501    0  0.00000000000E+00  0.00000000000E+00  0.72937406077E+03  0.72937406077E+03  0.00000000000E+00 0. -1.
         -1   -1    0    0    0  501 -0.00000000000E+00 -0.00000000000E+00 -0.55917644873E+03  0.55917644873E+03  0.00000000000E+00 0.  1.
         23    2    1    2    0    0 -0.30892550123E+03 -0.23228117291E+02 -0.39001348065E+01  0.32263990459E+03  0.90037693413E+02 0.  0.
        254    2    1    2    0    0  0.30892550123E+03  0.23228117291E+02  0.17409774685E+03  0.96591060492E+03  0.89816410554E+03 0.  0.
        -24    2    4    4    0    0 -0.29961984284E+03  0.44418175458E+01 -0.44868283948E+02  0.31397545179E+03  0.82314284642E+02 0.  0.
         24    2    4    4    0    0  0.60854534407E+03  0.18786299745E+02  0.21896603080E+03  0.65193515313E+03  0.79955990336E+02 0.  0.
         13    1    3    3    0    0 -0.18069994189E+03 -0.39602272939E+02  0.33661723428E+02  0.18802638285E+03  0.00000000000E+00 0. -1.
        -13    1    3    3    0    0 -0.12822555934E+03  0.16374155648E+02 -0.37561858235E+02  0.13461352174E+03  0.00000000000E+00 0.  1.
          2    1    6    6  502    0  0.54782838597E+03  0.32063627727E+02  0.17570080957E+03  0.57620724673E+03  0.00000000000E+00 0. -1.
          3    1    5    5  503    0 -0.67655924619E+02 -0.18873083945E+02  0.18011835336E+02  0.72511679375E+02  0.00000000000E+00 0. -1.
         -4    1    5    5    0  503 -0.23196391822E+03  0.23314901491E+02 -0.62880119284E+02  0.24146377241E+03  0.00000000000E+00 0.  1.
         -1    1    6    6    0  502  0.60716958097E+02 -0.13277327982E+02  0.43265221235E+02  0.75727906398E+02  0.00000000000E+00 0.  1.
<mgrwt>
<rscale>  0 0.12772608E+04</rscale>
<asrwt>0</asrwt>
<pdfrwt beam="1">  1        1 0.11221139E+00 0.12772608E+04</pdfrwt>
<pdfrwt beam="2">  1       -1 0.86027146E-01 0.12772608E+04</pdfrwt>
<totfact> 0.33592201E+01</totfact>
</mgrwt>
</event>
<event>
12    1  0.1755460E-007  0.1541757E+04  0.7818608E-02  0.8857150E-01
          2   -1    0    0  501    0  0.00000000000E+00  0.00000000000E+00  0.22314295505E+04  0.22314295505E+04  0.00000000000E+00 0. -1.
         -2   -1    0    0    0  501 -0.00000000000E+00 -0.00000000000E+00 -0.26631062955E+03  0.26631062955E+03  0.00000000000E+00 0.  1.
         23    2    1    2    0    0 -0.40216814524E+03 -0.28960179644E+03  0.84485366576E+03  0.98379280812E+03  0.91989973413E+02 0.  0.
        254    2    1    2    0    0  0.40216814524E+03  0.28960179644E+03  0.11202652552E+04  0.15139473719E+04  0.88962575584E+03 0.  0.
        -24    2    4    4    0    0  0.45952999352E+03 -0.16846912025E+03  0.81733935577E+03  0.95603106940E+03  0.80013272290E+02 0.  0.
         24    2    4    4    0    0 -0.57361848285E+02  0.45807091669E+03  0.30292589941E+03  0.55791630253E+03  0.79919670521E+02 0.  0.
         13    1    3    3    0    0 -0.78785382935E+02 -0.84572155588E+02  0.13905511498E+03  0.18082010693E+03  0.00000000000E+00 0.  1.
        -13    1    3    3    0    0 -0.32338276230E+03 -0.20502964086E+03  0.70579855077E+03  0.80297270119E+03  0.00000000000E+00 0. -1.
          2    1    6    6  502    0 -0.72744383426E+02  0.36815891604E+03  0.22232072417E+03  0.43618715843E+03  0.00000000000E+00 0. -1.
          3    1    5    5  503    0  0.43557461337E+03 -0.16013414564E+03  0.72950010237E+03  0.86460313889E+03  0.00000000000E+00 0. -1.
         -4    1    5    5    0  503  0.23955380147E+02 -0.83349746061E+01  0.87839253400E+02  0.91427930511E+02  0.00000000000E+00 0.  1.
         -1    1    6    6    0  502  0.15382535141E+02  0.89912000651E+02  0.80605175240E+02  0.12172914410E+03  0.00000000000E+00 0.  1.
<mgrwt>
<rscale>  0 0.15417567E+04</rscale>
<asrwt>0</asrwt>
<pdfrwt beam="1">  1        2 0.34329684E+00 0.15417567E+04</pdfrwt>
<pdfrwt beam="2">  1       -2 0.40970868E-01 0.15417567E+04</pdfrwt>
<totfact> 0.26968593E+01</totfact>
</mgrwt>
</event>
<event>
12    1  0.1755460E-007  0.1560938E+04  0.7818608E-02  0.8844911E-01
          2   -1    0    0  501    0  0.00000000000E+00  0.00000000000E+00  0.29238855816E+04  0.29238855816E+04  0.00000000000E+00 0. -1.
         -2   -1    0    0    0  501 -0.00000000000E+00 -0.00000000000E+00 -0.20832954877E+03  0.20832954877E+03  0.00000000000E+00 0.  1.
         23    2    1    2    0    0  0.11197784400E+03 -0.64509765026E+01  0.19398428928E+04  0.19455172665E+04  0.97295082086E+02 0.  0.
        254    2    1    2    0    0 -0.11197784400E+03  0.64509765026E+01  0.77571314003E+03  0.11866978638E+04  0.89103327199E+03 0.  0.
        -24    2    4    4    0    0 -0.20449959198E+03  0.32190572377E+03  0.75278079669E+03  0.84749425647E+03  0.78257323969E+02 0.  0.
         24    2    4    4    0    0  0.92521747979E+02 -0.31545474727E+03  0.22932343337E+02  0.33920360738E+03  0.80381735876E+02 0.  0.
         11    1    3    3    0    0  0.11387356769E+03 -0.33197088430E+02  0.17115467774E+04  0.17156519482E+04  0.00000000000E+00 0. -1.
        -11    1    3    3    0    0 -0.18957236931E+01  0.26746111927E+02  0.22829611537E+03  0.22986531832E+03  0.00000000000E+00 0.  1.
          4    1    6    6  502    0  0.43024848833E+02 -0.26051234107E+03  0.25019981844E+02  0.26522408819E+03  0.00000000000E+00 0. -1.
          1    1    5    5  503    0 -0.19203526094E+03  0.31635062599E+03  0.74482877693E+03  0.83170016650E+03  0.00000000000E+00 0. -1.
         -2    1    5    5    0  503 -0.12464331039E+02  0.55550977886E+01  0.79520197635E+01  0.15794089971E+02  0.00000000000E+00 0.  1.
         -3    1    6    6    0  502  0.49496899146E+02 -0.54942406203E+02 -0.20876385075E+01  0.73979519186E+02  0.00000000000E+00 0.  1.
<mgrwt>
<rscale>  0 0.15609379E+04</rscale>
<asrwt>0</asrwt>
<pdfrwt beam="1">  1        2 0.44982852E+00 0.15609379E+04</pdfrwt>
<pdfrwt beam="2">  1       -2 0.32050702E-01 0.15609379E+04</pdfrwt>
<totfact> 0.17013170E+01</totfact>
</mgrwt>
</event>
<event>
12    1  0.1755460E-007  0.2120555E+04  0.7818608E-02  0.8552242E-01
          1   -1    0    0  501    0  0.00000000000E+00  0.00000000000E+00  0.25634824202E+04  0.25634824202E+04  0.00000000000E+00 0. -1.
         -1   -1    0    0    0  501 -0.00000000000E+00 -0.00000000000E+00 -0.43853969364E+03  0.43853969364E+03  0.00000000000E+00 0.  1.
         23    2    1    2    0    0 -0.22988302400E+03 -0.44986164173E+03  0.18809958267E+04  0.19499479146E+04  0.94497981331E+02 0.  0.
        254    2    1    2    0    0  0.22988302400E+03  0.44986164173E+03  0.24394689993E+03  0.10520741992E+04  0.89001591517E+03 0.  0.
        -24    2    4    4    0    0  0.42636175421E+03 -0.90369078108E+02  0.10821929217E+03  0.45605811443E+03  0.79540384760E+02 0.  0.
         24    2    4    4    0    0 -0.19647873021E+03  0.54023071984E+03  0.13572760775E+03  0.59601608479E+03  0.79750032816E+02 0.  0.
         11    1    3    3    0    0 -0.82842214059E+02 -0.76836388489E+02  0.40926281810E+03  0.42457357114E+03  0.00000000000E+00 0.  1.
        -11    1    3    3    0    0 -0.14704080994E+03 -0.37302525325E+03  0.14717330086E+04  0.15253743435E+04  0.00000000000E+00 0. -1.
          4    1    6    6  502    0 -0.11006524508E+03  0.39609020853E+03  0.11361080187E+03  0.42650817785E+03  0.00000000000E+00 0. -1.
          1    1    5    5  503    0  0.35372588823E+03 -0.43149507443E+02  0.89740250059E+02  0.36747407592E+03  0.00000000000E+00 0. -1.
         -2    1    5    5    0  503  0.72635865985E+02 -0.47219570664E+02  0.18479042115E+02  0.88584038509E+02  0.00000000000E+00 0.  1.
         -3    1    6    6    0  502 -0.86413485126E+02  0.14414051131E+03  0.22116805880E+02  0.16950790694E+03  0.00000000000E+00 0.  1.
<mgrwt>
<rscale>  0 0.21205554E+04</rscale>
<asrwt>0</asrwt>
<pdfrwt beam="1">  1        1 0.39438190E+00 0.21205554E+04</pdfrwt>
<pdfrwt beam="2">  1       -1 0.67467647E-01 0.21205554E+04</pdfrwt>
<totfact> 0.25002045E+00</totfact>
</mgrwt>
</event>
<event>
12    1  0.1755460E-007  0.4298657E+04  0.7818608E-02  0.7946867E-01
          2   -1    0    0  501    0  0.00000000000E+00  0.00000000000E+00  0.28584300677E+04  0.28584300677E+04  0.00000000000E+00 0. -1.
         -2   -1    0    0    0  501 -0.00000000000E+00 -0.00000000000E+00 -0.16161361618E+04  0.16161361618E+04  0.00000000000E+00 0.  1.
         23    2    1    2    0    0 -0.14735452441E+04  0.30420647140E+03  0.20781984842E+04  0.25673943635E+04  0.93422237025E+02 0.  0.
        254    2    1    2    0    0  0.14735452441E+04 -0.30420647140E+03 -0.83590457819E+03  0.19071718660E+04  0.82139570173E+03 0.  0.
        -24    2    4    4    0    0  0.38856642210E+02 -0.13392410143E+03 -0.34156966217E+03  0.37791379734E+03  0.81874907743E+02 0.  0.
         24    2    4    4    0    0  0.14346886019E+04 -0.17028236997E+03 -0.49433491602E+03  0.15292580687E+04  0.83281218227E+02 0.  0.
         13    1    3    3    0    0 -0.63385838994E+02  0.12773094585E+02  0.12553076815E+03  0.14120513547E+03  0.00000000000E+00 0.  1.
        -13    1    3    3    0    0 -0.14101594051E+04  0.29143337681E+03  0.19526677160E+04  0.24261892280E+04  0.00000000000E+00 0. -1.
          4    1    6    6  502    0  0.10625061829E+04 -0.15622953802E+03 -0.38884930400E+03  0.11421606010E+04  0.00000000000E+00 0. -1.
          3    1    5    5  503    0  0.31025418850E+02 -0.23942232216E+02 -0.36593760029E+02  0.53618190676E+02  0.00000000000E+00 0. -1.
         -4    1    5    5    0  503  0.78312233596E+01 -0.10998186921E+03 -0.30497590214E+03  0.32429560666E+03  0.00000000000E+00 0.  1.
         -3    1    6    6    0  502  0.37218241904E+03 -0.14052831955E+02 -0.10548561202E+03  0.38709746766E+03  0.00000000000E+00 0.  1.
<mgrwt>
<rscale>  0 0.42986566E+04</rscale>
<asrwt>0</asrwt>
<pdfrwt beam="1">  1        2 0.43975847E+00 0.42986566E+04</pdfrwt>
<pdfrwt beam="2">  1       -2 0.24863633E+00 0.42986566E+04</pdfrwt>
<totfact> 0.10746706E-01</totfact>
</mgrwt>
</event>
<event>
12    1  0.1755460E-007  0.1013085E+04  0.7818608E-02  0.9294308E-01
          2   -1    0    0  501    0  0.00000000000E+00  0.00000000000E+00  0.30642687581E+04  0.30642687581E+04  0.00000000000E+00 0. -1.
         -2   -1    0    0    0  501 -0.00000000000E+00 -0.00000000000E+00 -0.83734649437E+02  0.83734649437E+02  0.00000000000E+00 0.  1.
         23    2    1    2    0    0  0.34927323560E+02 -0.10352476392E+02  0.17454903406E+03  0.20119296638E+03  0.93188801528E+02 0.  0.
        254    2    1    2    0    0 -0.34927323560E+02  0.10352476392E+02  0.28059850746E+04  0.29468104412E+04  0.89934000553E+03 0.  0.
        -24    2    4    4    0    0  0.48206534228E+02  0.10076938989E+03  0.28012648134E+04  0.28046453159E+04  0.80451560473E+02 0.  0.
         24    2    4    4    0    0 -0.83133857788E+02 -0.90416913500E+02  0.47202612964E+01  0.14216512531E+03  0.71429583711E+02 0.  0.
         13    1    3    3    0    0  0.36394733534E+02 -0.49846902633E+01  0.12139879618E+02  0.38688505310E+02  0.00000000000E+00 0.  1.
        -13    1    3    3    0    0 -0.14674099740E+01 -0.53677861286E+01  0.16240915445E+03  0.16250446107E+03  0.00000000000E+00 0. -1.
          4    1    6    6  502    0 -0.69427144799E+02 -0.78602762316E+02  0.31806013962E+02  0.10959080802E+03  0.00000000000E+00 0. -1.
          3    1    5    5  503    0  0.32919706976E+02  0.44616502334E+02  0.58627027861E+03  0.58888638885E+03  0.00000000000E+00 0. -1.
         -4    1    5    5    0  503  0.15286827252E+02  0.56152887558E+02  0.22149945347E+04  0.22157589270E+04  0.00000000000E+00 0.  1.
         -3    1    6    6    0  502 -0.13706712989E+02 -0.11814151184E+02 -0.27085752665E+02  0.32574317285E+02  0.00000000000E+00 0.  1.
<mgrwt>
<rscale>  0 0.10130853E+04</rscale>
<asrwt>0</asrwt>
<pdfrwt beam="1">  1        2 0.47142588E+00 0.10130853E+04</pdfrwt>
<pdfrwt beam="2">  1       -2 0.12882256E-01 0.10130853E+04</pdfrwt>
<totfact> 0.73584801E+01</totfact>
</mgrwt>
</event>
<event>
12    1  0.1755460E-007  0.2064273E+04  0.7818608E-02  0.8577147E-01
          2   -1    0    0  501    0  0.00000000000E+00  0.00000000000E+00  0.25962781018E+04  0.25962781018E+04  0.00000000000E+00 0. -1.
         -2   -1    0    0    0  501 -0.00000000000E+00 -0.00000000000E+00 -0.41032031993E+03  0.41032031993E+03  0.00000000000E+00 0.  1.
         23    2    1    2    0    0  0.23667932993E+03 -0.33702970517E+03  0.19445799358E+04  0.19896991834E+04  0.88913364448E+02 0.  0.
        254    2    1    2    0    0 -0.23667932993E+03  0.33702970517E+03  0.24137784608E+03  0.10168992383E+04  0.89789457563E+03 0.  0.
        -24    2    4    4    0    0 -0.52832499522E+03  0.20691108726E+03 -0.51222736723E+02  0.57515992686E+03  0.79029577362E+02 0.  0.
         24    2    4    4    0    0  0.29164566530E+03  0.13011861791E+03  0.29260058280E+03  0.44173931147E+03  0.86778277392E+02 0.  0.
         11    1    3    3    0    0  0.14625267772E+03 -0.26776641971E+03  0.13183610431E+04  0.13532052842E+04  0.00000000000E+00 0. -1.
        -11    1    3    3    0    0  0.90426652207E+02 -0.69263285462E+02  0.62621889267E+03  0.63649389917E+03  0.00000000000E+00 0.  1.
          4    1    6    6  502    0  0.24981704866E+02  0.10564895714E+02 -0.14584912256E+01  0.27163022588E+02  0.00000000000E+00 0. -1.
          3    1    5    5  503    0 -0.16080180974E+03  0.82170227745E+02 -0.48718156402E+02  0.18703643256E+03  0.00000000000E+00 0. -1.
         -4    1    5    5    0  503 -0.36752318549E+03  0.12474085952E+03 -0.25045803212E+01  0.38812349430E+03  0.00000000000E+00 0.  1.
         -3    1    6    6    0  502  0.26666396043E+03  0.11955372220E+03  0.29405907403E+03  0.41457628888E+03  0.00000000000E+00 0.  1.
<mgrwt>
<rscale>  0 0.20642729E+04</rscale>
<asrwt>0</asrwt>
<pdfrwt beam="1">  1        2 0.39942739E+00 0.20642729E+04</pdfrwt>
<pdfrwt beam="2">  1       -2 0.63126205E-01 0.20642729E+04</pdfrwt>
<totfact> 0.65752489E+00</totfact>
</mgrwt>
</event>
<event>
12    1  0.1953241E-007  0.3037416E+04  0.7818608E-02  0.8233126E-01
         -2   -1    0    0    0  501 -0.00000000000E+00  0.00000000000E+00  0.13204324343E+04  0.13204324343E+04  0.00000000000E+00 0. -1.
          2   -1    0    0  501    0  0.00000000000E+00 -0.00000000000E+00 -0.17467566877E+04  0.17467566877E+04  0.00000000000E+00 0.  1.
         23    2    1    2    0    0  0.12023663226E+04  0.42101778506E+03 -0.73962183490E+03  0.14759828270E+04  0.92434289546E+02 0.  0.
        254    2    1    2    0    0 -0.12023663226E+04 -0.42101778506E+03  0.31329758146E+03  0.15912062950E+04  0.90046729513E+03 0.  0.
        -24    2    4    4    0    0  0.95751450692E+01  0.15836223977E+03  0.15564049968E+03  0.23643317009E+03  0.80662236459E+02 0.  0.
         24    2    4    4    0    0 -0.12119414677E+04 -0.57938002482E+03  0.15765708178E+03  0.13547731249E+04  0.77917458065E+02 0.  0.
         11    1    3    3    0    0  0.11878837750E+04  0.41126271893E+03 -0.71620989200E+03  0.14467762426E+04  0.00000000000E+00 0.  1.
        -11    1    3    3    0    0  0.14482547644E+02  0.97550661206E+01 -0.23411942898E+02  0.29206584387E+02  0.00000000000E+00 0. -1.
          4    1    6    6  502    0 -0.49554227102E+03 -0.24217929684E+03  0.10307360237E+03  0.56110348572E+03  0.00000000000E+00 0. -1.
          1    1    5    5  503    0 -0.37467312604E+01  0.84245577734E+02  0.29152012852E+02  0.89225530069E+02  0.00000000000E+00 0. -1.
         -4    1    5    5    0  503  0.13321876330E+02  0.74116662033E+02  0.12648848683E+03  0.14720764002E+03  0.00000000000E+00 0.  1.
         -3    1    6    6    0  502 -0.71639919666E+03 -0.33720072798E+03  0.54583479410E+02  0.79366963918E+03  0.00000000000E+00 0.  1.
<mgrwt>
<rscale>  0 0.30374161E+04</rscale>
<asrwt>0</asrwt>
<pdfrwt beam="1">  1        2 0.26873180E+00 0.30374161E+04</pdfrwt>
<pdfrwt beam="2">  1       -2 0.20314345E+00 0.30374161E+04</pdfrwt>
<totfact> 0.99996826E-01</totfact>
</mgrwt>
</event>
<event>
12    1  0.1755460E-007  0.1202835E+04  0.7818608E-02  0.9110378E-01
          2   -1    0    0  501    0  0.00000000000E+00  0.00000000000E+00  0.24902010007E+04  0.24902010007E+04  0.00000000000E+00 0.  1.
         -2   -1    0    0    0  501 -0.00000000000E+00 -0.00000000000E+00 -0.14525060852E+03  0.14525060852E+03  0.00000000000E+00 0. -1.
         23    2    1    2    0    0 -0.24019172747E+03  0.68652790827E+01  0.74201219349E+03  0.78520448394E+03  0.90690618610E+02 0.  0.
        254    2    1    2    0    0  0.24019172747E+03 -0.68652790827E+01  0.16029381987E+04  0.18502471253E+04  0.89233645999E+03 0.  0.
        -24    2    4    4    0    0  0.66497071290E+02 -0.41965560146E+03  0.10412820552E+04  0.11274220062E+04  0.79242521458E+02 0.  0.
         24    2    4    4    0    0  0.17369465618E+03  0.41279032237E+03  0.56165614350E+03  0.72282511912E+03  0.80329605194E+02 0.  0.
         13    1    3    3    0    0 -0.11973175025E+02  0.23339662388E+02  0.51964214915E+02  0.58209762002E+02  0.00000000000E+00 0. -1.
        -13    1    3    3    0    0 -0.22821855245E+03 -0.16474383305E+02  0.69004797858E+03  0.72699472194E+03  0.00000000000E+00 0.  1.
          2    1    6    6  502    0  0.60183213729E+02  0.23177578122E+03  0.32936541542E+03  0.40721445069E+03  0.00000000000E+00 0. -1.
          3    1    5    5  503    0  0.62388660171E+01 -0.23346337973E+02  0.24226377921E+02  0.34218304065E+02  0.00000000000E+00 0. -1.
         -2    1    5    5    0  503  0.60258205273E+02 -0.39630926348E+03  0.10170556773E+04  0.10932037021E+04  0.00000000000E+00 0.  1.
         -1    1    6    6    0  502  0.11351144246E+03  0.18101454115E+03  0.23229072808E+03  0.31561066843E+03  0.00000000000E+00 0.  1.
<mgrwt>
<rscale>  0 0.12028353E+04</rscale>
<asrwt>0</asrwt>
<pdfrwt beam="1">  1        2 0.38310782E+00 0.12028353E+04</pdfrwt>
<pdfrwt beam="2">  1       -2 0.22346249E-01 0.12028353E+04</pdfrwt>
<totfact> 0.61480152E+01</totfact>
</mgrwt>
</event>
<event>
12    1  0.1755460E-007  0.1856700E+04  0.7818608E-02  0.8676715E-01
          1   -1    0    0  501    0  0.00000000000E+00  0.00000000000E+00  0.32669932525E+04  0.32669932525E+04  0.00000000000E+00 0.  1.
         -1   -1    0    0    0  501 -0.00000000000E+00 -0.00000000000E+00 -0.26380025898E+03  0.26380025898E+03  0.00000000000E+00 0. -1.
         23    2    1    2    0    0 -0.37003042713E+03  0.18829264917E+03  0.64978700659E+02  0.43101334141E+03  0.95779069751E+02 0.  0.
        254    2    1    2    0    0  0.37003042713E+03 -0.18829264917E+03  0.29382142929E+04  0.30997801701E+04  0.89619040012E+03 0.  0.
        -24    2    4    4    0    0  0.21979291808E+03  0.19636907678E+03  0.29975358026E+03  0.42788669809E+03  0.79781428742E+02 0.  0.
         24    2    4    4    0    0  0.15023750906E+03 -0.38466172595E+03  0.26384607126E+04  0.26718934720E+04  0.83688954711E+02 0.  0.
         11    1    3    3    0    0 -0.35429344449E+03  0.19915691915E+03  0.66471685042E+02  0.41183225732E+03  0.00000000000E+00 0. -1.
        -11    1    3    3    0    0 -0.15736982643E+02 -0.10864269978E+02 -0.14929843826E+01  0.19181084100E+02  0.00000000000E+00 0.  1.
          2    1    6    6  502    0  0.90439858851E+02 -0.24819075712E+03  0.14204323413E+04  0.14447858167E+04  0.00000000000E+00 0. -1.
          1    1    5    5  503    0  0.91786033935E+02  0.72278993886E+02  0.17452593231E+03  0.21001959440E+03  0.00000000000E+00 0. -1.
         -2    1    5    5    0  503  0.12800688414E+03  0.12409008290E+03  0.12522764796E+03  0.21786710370E+03  0.00000000000E+00 0.  1.
         -1    1    6    6    0  502  0.59797650208E+02 -0.13647096883E+03  0.12180283713E+04  0.12271076552E+04  0.00000000000E+00 0.  1.
<mgrwt>
<rscale>  0 0.18566999E+04</rscale>
<asrwt>0</asrwt>
<pdfrwt beam="1">  1        1 0.50261432E+00 0.18566999E+04</pdfrwt>
<pdfrwt beam="2">  1       -1 0.40584658E-01 0.18566999E+04</pdfrwt>
<totfact> 0.21162318E+00</totfact>
</mgrwt>
</event>
<event>
12    1  0.1755460E-007  0.1352546E+04  0.7818608E-02  0.8988903E-01
         -2   -1    0    0    0  501 -0.00000000000E+00  0.00000000000E+00  0.35552724527E+03  0.35552724527E+03  0.00000000000E+00 0.  1.
          2   -1    0    0  501    0  0.00000000000E+00 -0.00000000000E+00 -0.12863847763E+04  0.12863847763E+04  0.00000000000E+00 0. -1.
         23    2    1    2    0    0  0.27721094558E+02 -0.34396455343E+03 -0.34711481838E+03  0.49785252362E+03  0.91040458242E+02 0.  0.
        254    2    1    2    0    0 -0.27721094558E+02  0.34396455343E+03 -0.58374271268E+03  0.11440594980E+04  0.92143177024E+03 0.  0.
        -24    2    4    4    0    0  0.12110840059E+02 -0.14990530786E+03 -0.61779389758E+03  0.64098591586E+03  0.81088659359E+02 0.  0.
         24    2    4    4    0    0 -0.39831934617E+02  0.49386986129E+03  0.34051184898E+02  0.50307358212E+03  0.80184305987E+02 0.  0.
         13    1    3    3    0    0 -0.22330369946E+02 -0.10541553972E+03 -0.68579031412E+02  0.12772691567E+03  0.00000000000E+00 0. -1.
        -13    1    3    3    0    0  0.50051464504E+02 -0.23854901371E+03 -0.27853578697E+03  0.37012560795E+03  0.00000000000E+00 0.  1.
          4    1    6    6  502    0  0.14762499910E+02  0.21971000287E+02  0.63458468688E+01  0.27219956460E+02  0.00000000000E+00 0. -1.
          3    1    5    5  503    0  0.41060482529E+01  0.95900555467E+01 -0.25769524058E+02  0.27801028179E+02  0.00000000000E+00 0. -1.
         -4    1    5    5    0  503  0.80047918059E+01 -0.15949536341E+03 -0.59202437352E+03  0.61318488768E+03  0.00000000000E+00 0.  1.
         -3    1    6    6    0  502 -0.54594434526E+02  0.47189886100E+03  0.27705338029E+02  0.47585362566E+03  0.00000000000E+00 0.  1.
<mgrwt>
<rscale>  0 0.13525455E+04</rscale>
<asrwt>0</asrwt>
<pdfrwt beam="1">  1        2 0.19790535E+00 0.13525455E+04</pdfrwt>
<pdfrwt beam="2">  1       -2 0.54696499E-01 0.13525455E+04</pdfrwt>
<totfact> 0.51706187E+01</totfact>
</mgrwt>
</event>
<event>
12    1  0.1755460E-007  0.1222794E+04  0.7818608E-02  0.9093135E-01
         -1   -1    0    0    0  501 -0.00000000000E+00  0.00000000000E+00  0.13067959086E+04  0.13067959086E+04  0.00000000000E+00 0.  1.
          1   -1    0    0  501    0  0.00000000000E+00 -0.00000000000E+00 -0.28604817373E+03  0.28604817373E+03  0.00000000000E+00 0. -1.
         23    2    1    2    0    0  0.47884687474E+02  0.25470168512E+03  0.18248402536E+03  0.33073052283E+03  0.94426519179E+02 0.  0.
        254    2    1    2    0    0 -0.47884687474E+02 -0.25470168512E+03  0.83826370953E+03  0.12621135595E+04  0.90723684819E+03 0.  0.
        -24    2    4    4    0    0  0.16856998838E+03 -0.19951547879E+03 -0.10305463840E+03  0.29189723276E+03  0.79758816058E+02 0.  0.
         24    2    4    4    0    0 -0.21645467586E+03 -0.55186206328E+02  0.94131834792E+03  0.97021632675E+03  0.73084502418E+02 0.  0.
         13    1    3    3    0    0  0.37071616601E+02  0.10023398414E+03  0.12760909033E+03  0.16644889987E+03  0.00000000000E+00 0.  1.
        -13    1    3    3    0    0  0.10813070873E+02  0.15446770098E+03  0.54874935031E+02  0.16428162296E+03  0.00000000000E+00 0. -1.
          2    1    6    6  502    0 -0.21693957418E+03 -0.53642888627E+02  0.94222374280E+03  0.96836249403E+03  0.00000000000E+00 0. -1.
          1    1    5    5  503    0  0.16826768426E+03 -0.18863089496E+03 -0.11324499066E+03  0.27698385514E+03  0.00000000000E+00 0. -1.
         -2    1    5    5    0  503  0.30230412403E+00 -0.10884583830E+02  0.10190352260E+02  0.14913377622E+02  0.00000000000E+00 0.  1.
         -1    1    6    6    0  502  0.48489832663E+00 -0.15433177014E+01 -0.90539487163E+00  0.18538327293E+01  0.00000000000E+00 0.  1.
<mgrwt>
<rscale>  0 0.12227945E+04</rscale>
<asrwt>0</asrwt>
<pdfrwt beam="1">  1        1 0.44007412E-01 0.12227945E+04</pdfrwt>
<pdfrwt beam="2">  1       -1 0.20104552E+00 0.12227945E+04</pdfrwt>
<totfact> 0.13650291E+01</totfact>
</mgrwt>
</event>
<event>
12    1  0.1755460E-007  0.1169603E+04  0.7818608E-02  0.9139887E-01
          2   -1    0    0  501    0  0.00000000000E+00  0.00000000000E+00  0.16867505101E+04  0.16867505101E+04  0.00000000000E+00 0. -1.
         -2   -1    0    0    0  501 -0.00000000000E+00 -0.00000000000E+00 -0.20275241956E+03  0.20275241956E+03  0.00000000000E+00 0.  1.
         23    2    1    2    0    0 -0.15887360921E+03  0.79720986279E+02  0.60161477173E+02  0.21503855718E+03  0.10500437317E+03 0.  0.
        254    2    1    2    0    0  0.15887360921E+03 -0.79720986279E+02  0.14238366134E+04  0.16744643725E+04  0.86308978316E+03 0.  0.
        -24    2    4    4    0    0  0.15629768996E+03  0.17212043331E+03  0.13865182467E+04  0.14081259165E+04  0.79569697684E+02 0.  0.
         24    2    4    4    0    0  0.25759192465E+01 -0.25184141959E+03  0.37318366686E+02  0.26633845602E+03  0.78184248313E+02 0.  0.
         11    1    3    3    0    0 -0.23524134900E+02 -0.17611547487E+02  0.36178960331E+02  0.46609748962E+02  0.00000000000E+00 0. -1.
        -11    1    3    3    0    0 -0.13534947431E+03  0.97332533766E+02  0.23982516842E+02  0.16842880822E+03  0.00000000000E+00 0.  1.
          4    1    6    6  502    0  0.26744058168E+02 -0.22599008660E+03  0.25323080482E+02  0.22897166265E+03  0.00000000000E+00 0. -1.
          3    1    5    5  503    0  0.13025285999E+03  0.17643443854E+03  0.12306098007E+04  0.12499981601E+04  0.00000000000E+00 0. -1.
         -4    1    5    5    0  503  0.26044829972E+02 -0.43140052274E+01  0.15590844593E+03  0.15812775633E+03  0.00000000000E+00 0.  1.
         -3    1    6    6    0  502 -0.24168138921E+02 -0.25851332984E+02  0.11995286205E+02  0.37366793375E+02  0.00000000000E+00 0.  1.
<mgrwt>
<rscale>  0 0.11696029E+04</rscale>
<asrwt>0</asrwt>
<pdfrwt beam="1">  1        2 0.25950007E+00 0.11696029E+04</pdfrwt>
<pdfrwt beam="2">  1       -2 0.31192681E-01 0.11696029E+04</pdfrwt>
<totfact> 0.93985927E+01</totfact>
</mgrwt>
</event>
<event>
12    1  0.1755460E-007  0.1172726E+04  0.7818608E-02  0.9137070E-01
          1   -1    0    0  501    0  0.00000000000E+00  0.00000000000E+00  0.12616447824E+04  0.12616447824E+04  0.00000000000E+00 0. -1.
         -1   -1    0    0    0  501 -0.00000000000E+00 -0.00000000000E+00 -0.27251873389E+03  0.27251873389E+03  0.00000000000E+00 0.  1.
         23    2    1    2    0    0 -0.47200359231E+02  0.19271683721E+03  0.93537798792E+02  0.23723562669E+03  0.90353580513E+02 0.  0.
        254    2    1    2    0    0  0.47200359231E+02 -0.19271683721E+03  0.89558824968E+03  0.12969278896E+04  0.91682931046E+03 0.  0.
        -24    2    4    4    0    0 -0.15923987303E+03  0.12445612300E+03  0.88305430876E+03  0.90940998733E+03  0.79968425763E+02 0.  0.
         24    2    4    4    0    0  0.20644023226E+03 -0.31717296020E+03  0.12533940927E+02  0.38751790225E+03  0.82442517581E+02 0.  0.
         11    1    3    3    0    0 -0.67787671393E+02  0.17804763174E+03  0.70832512671E+02  0.20325691233E+03  0.00000000000E+00 0.  1.
        -11    1    3    3    0    0  0.20587312162E+02  0.14669205468E+02  0.22705286121E+02  0.33978714351E+02  0.00000000000E+00 0. -1.
          2    1    6    6  502    0  0.15576107082E+03 -0.24554676578E+03 -0.25475429909E+02  0.29189676754E+03  0.00000000000E+00 0. -1.
          3    1    5    5  503    0 -0.61644557411E+02  0.46279308410E+02  0.51397054193E+03  0.51971871606E+03  0.00000000000E+00 0. -1.
         -4    1    5    5    0  503 -0.97595315617E+02  0.78176814588E+02  0.36908376683E+03  0.38969127127E+03  0.00000000000E+00 0.  1.
         -1    1    6    6    0  502  0.50679161439E+02 -0.71626194421E+02  0.38009370836E+02  0.95621134707E+02  0.00000000000E+00 0.  1.
<mgrwt>
<rscale>  0 0.11727265E+04</rscale>
<asrwt>0</asrwt>
<pdfrwt beam="1">  1        1 0.19409919E+00 0.11727265E+04</pdfrwt>
<pdfrwt beam="2">  1       -1 0.41925960E-01 0.11727265E+04</pdfrwt>
<totfact> 0.53361041E+01</totfact>
</mgrwt>
</event>
<event>
12    1  0.1755460E-007  0.1463840E+04  0.7818608E-02  0.8908861E-01
          1   -1    0    0  501    0  0.00000000000E+00  0.00000000000E+00  0.46924965458E+03  0.46924965458E+03  0.00000000000E+00 0. -1.
         -1   -1    0    0    0  501 -0.00000000000E+00 -0.00000000000E+00 -0.11416243900E+04  0.11416243900E+04  0.00000000000E+00 0.  1.
         23    2    1    2    0    0  0.27725380584E+03  0.31866632500E+03 -0.47510615204E+02  0.43548120811E+03  0.94703350104E+02 0.  0.
        254    2    1    2    0    0 -0.27725380584E+03 -0.31866632500E+03 -0.62486412024E+03  0.11753928365E+04  0.90148502583E+03 0.  0.
        -24    2    4    4    0    0  0.71236205504E+02 -0.50658537101E+03 -0.56784513854E+03  0.76838233661E+03  0.79120027460E+02 0.  0.
         24    2    4    4    0    0 -0.34849001134E+03  0.18791904601E+03 -0.57018981702E+02  0.40701049989E+03  0.75150029210E+02 0.  0.
         11    1    3    3    0    0  0.18194519892E+03  0.24934188644E+03 -0.69190985131E+00  0.30866796154E+03  0.00000000000E+00 0.  1.
        -11    1    3    3    0    0  0.95308606923E+02  0.69324438559E+02 -0.46818705353E+02  0.12681324657E+03  0.00000000000E+00 0. -1.
          2    1    6    6  502    0 -0.28494679124E+03  0.14921058189E+03 -0.15998637031E+02  0.32204724494E+03  0.00000000000E+00 0. -1.
          3    1    5    5  503    0  0.55694772358E+02 -0.48237230774E+03 -0.55325650188E+03  0.73612343245E+03  0.00000000000E+00 0. -1.
         -4    1    5    5    0  503  0.15541433146E+02 -0.24213063273E+02 -0.14588636667E+02  0.32258904153E+02  0.00000000000E+00 0.  1.
         -1    1    6    6    0  502 -0.63543220102E+02  0.38708464123E+02 -0.41020344671E+02  0.84963254955E+02  0.00000000000E+00 0.  1.
<mgrwt>
<rscale>  0 0.14638400E+04</rscale>
<asrwt>0</asrwt>
<pdfrwt beam="1">  1        1 0.72192255E-01 0.14638400E+04</pdfrwt>
<pdfrwt beam="2">  1       -1 0.17563452E+00 0.14638400E+04</pdfrwt>
<totfact> 0.10499595E+01</totfact>
</mgrwt>
</event>
<event>
12    1  0.1755460E-007  0.1964559E+04  0.7818608E-02  0.8623372E-01
          2   -1    0    0  501    0  0.00000000000E+00  0.00000000000E+00  0.11708702855E+04  0.11708702855E+04  0.00000000000E+00 0. -1.
         -2   -1    0    0    0  501 -0.00000000000E+00 -0.00000000000E+00 -0.82406502445E+03  0.82406502445E+03  0.00000000000E+00 0.  1.
         23    2    1    2    0    0 -0.14663360970E+03 -0.59957468343E+03  0.60497710978E+03  0.86883666655E+03  0.88817978353E+02 0.  0.
        254    2    1    2    0    0  0.14663360970E+03  0.59957468343E+03 -0.25817184872E+03  0.11260986434E+04  0.90578928827E+03 0.  0.
        -24    2    4    4    0    0  0.22560348098E+03  0.19135434316E+03 -0.53751587565E+03  0.61869038738E+03  0.79630795449E+02 0.  0.
         24    2    4    4    0    0 -0.78969871288E+02  0.40822034027E+03  0.27934402693E+03  0.50740825604E+03  0.80931861021E+02 0.  0.
         11    1    3    3    0    0 -0.22863216456E+02 -0.14281143417E+03  0.19452533901E+03  0.24240037110E+03  0.00000000000E+00 0.  1.
        -11    1    3    3    0    0 -0.12377039324E+03 -0.45676324926E+03  0.41045177078E+03  0.62643629544E+03  0.00000000000E+00 0. -1.
          2    1    6    6  502    0 -0.25315656687E+02  0.36659355858E+02  0.52192781258E+02  0.68621259540E+02  0.00000000000E+00 0. -1.
          3    1    5    5  503    0  0.25169180572E+01  0.60798224147E+01  0.13804664983E+01  0.67234518555E+01  0.00000000000E+00 0. -1.
         -4    1    5    5    0  503  0.22308656293E+03  0.18527452074E+03 -0.53889634215E+03  0.61196693553E+03  0.00000000000E+00 0.  1.
         -1    1    6    6    0  502 -0.53654214601E+02  0.37156098441E+03  0.22715124568E+03  0.43878699650E+03  0.00000000000E+00 0.  1.
<mgrwt>
<rscale>  0 0.19645592E+04</rscale>
<asrwt>0</asrwt>
<pdfrwt beam="1">  1        2 0.18013389E+00 0.19645592E+04</pdfrwt>
<pdfrwt beam="2">  1       -2 0.12677923E+00 0.19645592E+04</pdfrwt>
<totfact> 0.85031570E+00</totfact>
</mgrwt>
</event>
<event>
12    1  0.1755460E-007  0.4282266E+04  0.7818608E-02  0.7949905E-01
          2   -1    0    0  501    0  0.00000000000E+00  0.00000000000E+00  0.27615438579E+04  0.27615438579E+04  0.00000000000E+00 0. -1.
         -2   -1    0    0    0  501 -0.00000000000E+00 -0.00000000000E+00 -0.16601042867E+04  0.16601042867E+04  0.00000000000E+00 0.  1.
         23    2    1    2    0    0  0.14688136138E+04  0.10990069309E+03 -0.93617730238E+03  0.17476482333E+04  0.91404657139E+02 0.  0.
        254    2    1    2    0    0 -0.14688136138E+04 -0.10990069309E+03  0.20376168736E+04  0.26739999113E+04  0.91044022727E+03 0.  0.
        -24    2    4    4    0    0 -0.10642017287E+04  0.14862282247E+03  0.79328114851E+03  0.13379690025E+04  0.79069642683E+02 0.  0.
         24    2    4    4    0    0 -0.40461188511E+03 -0.25852351557E+03  0.12443357251E+04  0.13360309088E+04  0.77858889827E+02 0.  0.
         11    1    3    3    0    0  0.17891480306E+03 -0.15729116261E+02 -0.12204830825E+03  0.21714903039E+03  0.00000000000E+00 0. -1.
        -11    1    3    3    0    0  0.12898988107E+04  0.12562980936E+03 -0.81412899414E+03  0.15304992029E+04  0.00000000000E+00 0.  1.
          2    1    6    6  502    0 -0.18808652796E+02 -0.36960447853E+02  0.11176434213E+03  0.11921035314E+03  0.00000000000E+00 0. -1.
          1    1    5    5  503    0 -0.24419963371E+03  0.46255483072E+02  0.22306436120E+03  0.33396218357E+03  0.00000000000E+00 0. -1.
         -2    1    5    5    0  503 -0.82000209498E+03  0.10236733940E+03  0.57021678730E+03  0.10040068189E+04  0.00000000000E+00 0.  1.
         -1    1    6    6    0  502 -0.38580323231E+03 -0.22156306771E+03  0.11325713830E+04  0.12168205556E+04  0.00000000000E+00 0.  1.
<mgrwt>
<rscale>  0 0.42822661E+04</rscale>
<asrwt>0</asrwt>
<pdfrwt beam="1">  1        2 0.42485290E+00 0.42822661E+04</pdfrwt>
<pdfrwt beam="2">  1       -2 0.25540066E+00 0.42822661E+04</pdfrwt>
<totfact> 0.11196743E-01</totfact>
</mgrwt>
</event>
<event>
12    1  0.1755460E-007  0.1634080E+04  0.7818608E-02  0.8799881E-01
          2   -1    0    0  501    0  0.00000000000E+00  0.00000000000E+00  0.91719453961E+03  0.91719453961E+03  0.00000000000E+00 0. -1.
         -2   -1    0    0    0  501 -0.00000000000E+00 -0.00000000000E+00 -0.72782211374E+03  0.72782211374E+03  0.00000000000E+00 0.  1.
         23    2    1    2    0    0  0.14258232610E+03  0.96943451327E+02 -0.47453171360E+03  0.51284818745E+03  0.90028682597E+02 0.  0.
        254    2    1    2    0    0 -0.14258232610E+03 -0.96943451327E+02  0.66390413947E+03  0.11321684659E+04  0.90072691549E+03 0.  0.
        -24    2    4    4    0    0 -0.10386339458E+02 -0.26613542241E+03  0.81294901281E+03  0.85917365345E+03  0.79732867955E+02 0.  0.
         24    2    4    4    0    0 -0.13219598664E+03  0.16919197108E+03 -0.14904487335E+03  0.27299481245E+03  0.78804133079E+02 0.  0.
         13    1    3    3    0    0  0.13046488794E+03  0.93667870702E+02 -0.47379257348E+03  0.50027408455E+03  0.00000000000E+00 0.  1.
        -13    1    3    3    0    0  0.12117438152E+02  0.32755806255E+01 -0.73914012648E+00  0.12574102907E+02  0.00000000000E+00 0. -1.
          4    1    6    6  502    0 -0.10693314638E+03  0.11135446407E+03 -0.64083729871E+02  0.16715633071E+03  0.00000000000E+00 0. -1.
          1    1    5    5  503    0  0.95034562697E+01 -0.25496195752E+03  0.75114145894E+03  0.79329024121E+03  0.00000000000E+00 0. -1.
         -4    1    5    5    0  503 -0.19889795727E+02 -0.11173464888E+02  0.61807553871E+02  0.65883412231E+02  0.00000000000E+00 0.  1.
         -3    1    6    6    0  502 -0.25262840257E+02  0.57837507016E+02 -0.84961143476E+02  0.10583848174E+03  0.00000000000E+00 0.  1.
<mgrwt>
<rscale>  0 0.16340801E+04</rscale>
<asrwt>0</asrwt>
<pdfrwt beam="1">  1        2 0.14110685E+00 0.16340801E+04</pdfrwt>
<pdfrwt beam="2">  1       -2 0.11197263E+00 0.16340801E+04</pdfrwt>
<totfact> 0.17183923E+01</totfact>
</mgrwt>
</event>
<event>
12    1  0.1755460E-007  0.1750105E+04  0.7818608E-02  0.8733293E-01
         -1   -1    0    0    0  501 -0.00000000000E+00  0.00000000000E+00  0.41170384569E+03  0.41170384569E+03  0.00000000000E+00 0.  1.
          1   -1    0    0  501    0  0.00000000000E+00 -0.00000000000E+00 -0.18598721413E+04  0.18598721413E+04  0.00000000000E+00 0. -1.
         23    2    1    2    0    0 -0.53139437956E+03  0.62678887199E+02 -0.99791286426E+03  0.11360615682E+04  0.92180109591E+02 0.  0.
        254    2    1    2    0    0  0.53139437956E+03 -0.62678887199E+02 -0.45025543133E+03  0.11355144187E+04  0.89462529150E+03 0.  0.
        -24    2    4    4    0    0  0.13412857303E+03  0.22291914026E+03 -0.56462320618E+03  0.62684625453E+03  0.80333334715E+02 0.  0.
         24    2    4    4    0    0  0.39726580653E+03 -0.28559802746E+03  0.11436777485E+03  0.50866816421E+03  0.79227261894E+02 0.  0.
         11    1    3    3    0    0 -0.12986779441E+03  0.36985220433E+02 -0.18512415328E+03  0.22913861020E+03  0.00000000000E+00 0.  1.
        -11    1    3    3    0    0 -0.40152658515E+03  0.25693666766E+02 -0.81278871098E+03  0.90692295802E+03  0.00000000000E+00 0. -1.
          4    1    6    6  502    0  0.24523674854E+03 -0.19914978547E+03  0.39299823547E+02  0.31834914170E+03  0.00000000000E+00 0. -1.
          1    1    5    5  503    0  0.42992289336E+02  0.15473166356E+02 -0.93164155746E+02  0.10376567706E+03  0.00000000000E+00 0. -1.
         -2    1    5    5    0  503  0.91136283693E+02  0.20744597390E+03 -0.47145905044E+03  0.52308057747E+03  0.00000000000E+00 0.  1.
         -3    1    6    6    0  502  0.15202905799E+03 -0.86448241981E+02  0.75067951307E+02  0.19031902251E+03  0.00000000000E+00 0.  1.
<mgrwt>
<rscale>  0 0.17501046E+04</rscale>
<asrwt>0</asrwt>
<pdfrwt beam="1">  1        1 0.28613418E+00 0.17501046E+04</pdfrwt>
<pdfrwt beam="2">  1       -1 0.63339052E-01 0.17501046E+04</pdfrwt>
<totfact> 0.88874281E+00</totfact>
</mgrwt>
</event>
<event>
12    1  0.1755460E-007  0.1135538E+04  0.7818608E-02  0.9171230E-01
          1   -1    0    0  501    0  0.00000000000E+00  0.00000000000E+00  0.13848566257E+04  0.13848566257E+04  0.00000000000E+00 0. -1.
         -1   -1    0    0    0  501 -0.00000000000E+00 -0.00000000000E+00 -0.23277613568E+03  0.23277613568E+03  0.00000000000E+00 0.  1.
         23    2    1    2    0    0  0.15775310564E+03  0.12160166290E+03  0.19302514833E+03  0.29323214727E+03  0.95149238292E+02 0.  0.
        254    2    1    2    0    0 -0.15775310564E+03 -0.12160166290E+03  0.95905534168E+03  0.13244006141E+04  0.89139039229E+03 0.  0.
        -24    2    4    4    0    0  0.21148500430E+03 -0.22602143179E+03  0.36038175720E+02  0.32159295705E+03  0.79446115325E+02 0.  0.
         24    2    4    4    0    0 -0.36923810994E+03  0.10441976889E+03  0.92301716596E+03  0.10028076570E+04  0.80138869530E+02 0.  0.
         11    1    3    3    0    0  0.15318312487E+03  0.13375074942E+03  0.19283689560E+03  0.28025060396E+03  0.00000000000E+00 0. -1.
        -11    1    3    3    0    0  0.45699807674E+01 -0.12149086526E+02  0.18825273193E+00  0.12981543310E+02  0.00000000000E+00 0.  1.
          4    1    6    6  502    0 -0.14734958715E+03  0.73757586831E+02  0.45578261417E+03  0.48465438595E+03  0.00000000000E+00 0. -1.
          1    1    5    5  503    0  0.13501560938E+03 -0.19200415975E+03  0.38516102880E+02  0.23786193961E+03  0.00000000000E+00 0. -1.
         -2    1    5    5    0  503  0.76469394929E+02 -0.34017272045E+02 -0.24779271600E+01  0.83731017438E+02  0.00000000000E+00 0.  1.
         -3    1    6    6    0  502 -0.22188852280E+03  0.30662182062E+02  0.46723455179E+03  0.51815327109E+03  0.00000000000E+00 0.  1.
<mgrwt>
<rscale>  0 0.11355379E+04</rscale>
<asrwt>0</asrwt>
<pdfrwt beam="1">  1        1 0.21305486E+00 0.11355379E+04</pdfrwt>
<pdfrwt beam="2">  1       -1 0.35811714E-01 0.11355379E+04</pdfrwt>
<totfact> 0.58258937E+01</totfact>
</mgrwt>
</event>
<event>
12    1  0.1755460E-007  0.2135695E+04  0.7818608E-02  0.8545680E-01
         -2   -1    0    0    0  501 -0.00000000000E+00  0.00000000000E+00  0.73925504367E+03  0.73925504367E+03  0.00000000000E+00 0.  1.
          2   -1    0    0  501    0  0.00000000000E+00 -0.00000000000E+00 -0.15424969353E+04  0.15424969353E+04  0.00000000000E+00 0. -1.
         23    2    1    2    0    0 -0.64015521494E+03 -0.32917696992E+03 -0.86111742964E+03  0.11259105874E+04  0.89416142376E+02 0.  0.
        254    2    1    2    0    0  0.64015521494E+03  0.32917696992E+03  0.57875538005E+02  0.11558413915E+04  0.90247635301E+03 0.  0.
        -24    2    4    4    0    0  0.76460045866E+03  0.26530461807E+03  0.29883836335E+03  0.86637800196E+03  0.79410787170E+02 0.  0.
         24    2    4    4    0    0 -0.12444524371E+03  0.63872351855E+02 -0.24096282534E+03  0.28946338958E+03  0.78483595059E+02 0.  0.
         13    1    3    3    0    0 -0.38780578601E+03 -0.18229932502E+03 -0.44713228704E+03  0.61931708654E+03  0.00000000000E+00 0.  1.
        -13    1    3    3    0    0 -0.25234942894E+03 -0.14687764490E+03 -0.41398514260E+03  0.50659350090E+03  0.00000000000E+00 0. -1.
          2    1    6    6  502    0 -0.24752085253E+02 -0.72489162668E+01 -0.97436760789E+02  0.10079253377E+03  0.00000000000E+00 0. -1.
          3    1    5    5  503    0  0.52053719737E+03  0.21081651487E+03  0.23107715208E+03  0.60728842160E+03  0.00000000000E+00 0. -1.
         -4    1    5    5    0  503  0.24406326129E+03  0.54488103194E+02  0.67761211269E+02  0.25908958036E+03  0.00000000000E+00 0.  1.
         -1    1    6    6    0  502 -0.99693158460E+02  0.71121268122E+02 -0.14352606456E+03  0.18867085580E+03  0.00000000000E+00 0.  1.
<mgrwt>
<rscale>  0 0.21356953E+04</rscale>
<asrwt>0</asrwt>
<pdfrwt beam="1">  1        2 0.23730722E+00 0.21356953E+04</pdfrwt>
<pdfrwt beam="2">  1       -2 0.11373155E+00 0.21356953E+04</pdfrwt>
<totfact> 0.66879614E+00</totfact>
</mgrwt>
</event>
<event>
12    1  0.1755460E-007  0.2542906E+04  0.7818608E-02  0.8387858E-01
          1   -1    0    0  501    0  0.00000000000E+00  0.00000000000E+00  0.96428205512E+03  0.96428205512E+03  0.00000000000E+00 0. -1.
         -1   -1    0    0    0  501 -0.00000000000E+00 -0.00000000000E+00 -0.16764725821E+04  0.16764725821E+04  0.00000000000E+00 0.  1.
         23    2    1    2    0    0  0.49166728545E+03 -0.31137458287E+03  0.66701345199E+03  0.89018376790E+03  0.93964594691E+02 0.  0.
        254    2    1    2    0    0 -0.49166728545E+03  0.31137458287E+03 -0.13792039790E+04  0.17505708693E+04  0.90752625442E+03 0.  0.
        -24    2    4    4    0    0 -0.58716390063E+03 -0.14008104628E+03 -0.82965698591E+03  0.10286530971E+04  0.73568568015E+02 0.  0.
         24    2    4    4    0    0  0.95496615183E+02  0.45145562915E+03 -0.54954699307E+03  0.72191777221E+03  0.78940380323E+02 0.  0.
         11    1    3    3    0    0  0.48397232420E+03 -0.31801762337E+03  0.65854690636E+03  0.87695407363E+03  0.00000000000E+00 0. -1.
        -11    1    3    3    0    0  0.76949612481E+01  0.66430405008E+01  0.84665456246E+01  0.13229694272E+02  0.00000000000E+00 0.  1.
          2    1    6    6  502    0 -0.51841427481E+01  0.29053352279E+02 -0.14641810176E+02  0.32944729774E+02  0.00000000000E+00 0. -1.
          3    1    5    5  503    0 -0.48723523453E+02 -0.33270026526E+02 -0.73347249456E+02  0.94131266885E+02  0.00000000000E+00 0. -1.
         -4    1    5    5    0  503 -0.53844037718E+03 -0.10681101975E+03 -0.75630973645E+03  0.93452183023E+03  0.00000000000E+00 0.  1.
         -1    1    6    6    0  502  0.10068075793E+03  0.42240227687E+03 -0.53490518290E+03  0.68897304244E+03  0.00000000000E+00 0.  1.
<mgrwt>
<rscale>  0 0.25429058E+04</rscale>
<asrwt>0</asrwt>
<pdfrwt beam="1">  1        1 0.14835109E+00 0.25429058E+04</pdfrwt>
<pdfrwt beam="2">  1       -1 0.25791886E+00 0.25429058E+04</pdfrwt>
<totfact> 0.88456071E-01</totfact>
</mgrwt>
</event>
<event>
12    1  0.1755460E-007  0.2086076E+04  0.7818608E-02  0.8567402E-01
         -1   -1    0    0    0  501 -0.00000000000E+00  0.00000000000E+00  0.12797254386E+04  0.12797254386E+04  0.00000000000E+00 0.  1.
          1   -1    0    0  501    0  0.00000000000E+00 -0.00000000000E+00 -0.85012607668E+03  0.85012607668E+03  0.00000000000E+00 0. -1.
         23    2    1    2    0    0 -0.62241362023E+03  0.49820069131E+03  0.39352107387E+03  0.89375287918E+03  0.91283788247E+02 0.  0.
        254    2    1    2    0    0  0.62241362023E+03 -0.49820069131E+03  0.36078288070E+02  0.12360986361E+04  0.94394679506E+03 0.  0.
        -24    2    4    4    0    0  0.23647343583E+03 -0.69063397844E+03  0.21081900524E+03  0.76402124071E+03  0.79930127312E+02 0.  0.
         24    2    4    4    0    0  0.38594018440E+03  0.19243328714E+03 -0.17474071717E+03  0.47207739542E+03  0.79638891863E+02 0.  0.
         13    1    3    3    0    0 -0.23366152229E+03  0.20775712898E+03  0.20093316341E+03  0.37166499404E+03  0.00000000000E+00 0. -1.
        -13    1    3    3    0    0 -0.38875209794E+03  0.29044356232E+03  0.19258791046E+03  0.52208788513E+03  0.00000000000E+00 0.  1.
          2    1    6    6  502    0  0.29281871943E+03  0.14444178492E+03 -0.16776464709E+03  0.36708474293E+03  0.00000000000E+00 0. -1.
          3    1    5    5  503    0  0.24262598129E+03 -0.67957806897E+03  0.20538459672E+03  0.75025099214E+03  0.00000000000E+00 0. -1.
         -4    1    5    5    0  503 -0.61525454640E+01 -0.11055909470E+02  0.54344085153E+01  0.13770248574E+02  0.00000000000E+00 0.  1.
         -1    1    6    6    0  502  0.93121464967E+02  0.47991502219E+02 -0.69760700809E+01  0.10499265249E+03  0.00000000000E+00 0.  1.
<mgrwt>
<rscale>  0 0.20860757E+04</rscale>
<asrwt>0</asrwt>
<pdfrwt beam="1">  1        1 0.13078863E+00 0.20860757E+04</pdfrwt>
<pdfrwt beam="2">  1       -1 0.19688084E+00 0.20860757E+04</pdfrwt>
<totfact> 0.29160863E+00</totfact>
</mgrwt>
</event>
<event>
12    1  0.1755460E-007  0.1462887E+04  0.7818608E-02  0.8909515E-01
          1   -1    0    0  501    0  0.00000000000E+00  0.00000000000E+00  0.29866269429E+03  0.29866269429E+03  0.00000000000E+00 0. -1.
         -1   -1    0    0    0  501 -0.00000000000E+00 -0.00000000000E+00 -0.17913498496E+04  0.17913498496E+04  0.00000000000E+00 0.  1.
         23    2    1    2    0    0 -0.21465462115E+03  0.37417045438E+03 -0.26546065886E+03  0.51489323334E+03  0.92550229738E+02 0.  0.
        254    2    1    2    0    0  0.21465462115E+03 -0.37417045438E+03 -0.12272264965E+04  0.15751193106E+04  0.88816430552E+03 0.  0.
        -24    2    4    4    0    0  0.46786107070E+03 -0.50266593778E+03 -0.86929180192E+03  0.11108343816E+04  0.81961942622E+02 0.  0.
         24    2    4    4    0    0 -0.25320644955E+03  0.12849548340E+03 -0.35793469453E+03  0.46428492894E+03  0.82575143583E+02 0.  0.
         13    1    3    3    0    0 -0.10652678132E+03  0.22665687608E+03 -0.10492290096E+03  0.27153288891E+03  0.00000000000E+00 0. -1.
        -13    1    3    3    0    0 -0.10812783983E+03  0.14751357829E+03 -0.16053775790E+03  0.24336034443E+03  0.00000000000E+00 0.  1.
          2    1    6    6  502    0 -0.10796219646E+03  0.77448290218E+02 -0.22292670633E+03  0.25951953668E+03  0.00000000000E+00 0. -1.
          1    1    5    5  503    0  0.19285831968E+03 -0.24395370788E+03 -0.34125587196E+03  0.46169612648E+03  0.00000000000E+00 0. -1.
         -2    1    5    5    0  503  0.27500275103E+03 -0.25871222990E+03 -0.52803592996E+03  0.64913825515E+03  0.00000000000E+00 0.  1.
         -1    1    6    6    0  502 -0.14524425309E+03  0.51047193183E+02 -0.13500798820E+03  0.20476539226E+03  0.00000000000E+00 0.  1.
<mgrwt>
<rscale>  0 0.14628867E+04</rscale>
<asrwt>0</asrwt>
<pdfrwt beam="1">  1        1 0.45948108E-01 0.14628867E+04</pdfrwt>
<pdfrwt beam="2">  1       -1 0.27559228E+00 0.14628867E+04</pdfrwt>
<totfact> 0.40739014E+00</totfact>
</mgrwt>
</event>
<event>
12    1  0.1755460E-007  0.2852984E+04  0.7818608E-02  0.8287005E-01
         -2   -1    0    0    0  501 -0.00000000000E+00  0.00000000000E+00  0.13878866860E+04  0.13878866860E+04  0.00000000000E+00 0.  1.
          2   -1    0    0  501    0  0.00000000000E+00 -0.00000000000E+00 -0.14661716179E+04  0.14661716179E+04  0.00000000000E+00 0. -1.
         23    2    1    2    0    0  0.12867850209E+04 -0.13824457384E+02 -0.19787592519E+03  0.13052846885E+04  0.92770848976E+02 0.  0.
        254    2    1    2    0    0 -0.12867850209E+04  0.13824457384E+02  0.11959099329E+03  0.15487736154E+04  0.85345820065E+03 0.  0.
        -24    2    4    4    0    0 -0.12842727838E+03 -0.29364881318E+03 -0.54605108833E+02  0.33509547847E+03  0.81142285306E+02 0.  0.
         24    2    4    4    0    0 -0.11583577426E+04  0.30747327056E+03  0.17419610213E+03  0.12136781369E+04  0.79610716359E+02 0.  0.
         11    1    3    3    0    0  0.11227467095E+04  0.11820920914E+02 -0.19232197492E+03  0.11391609412E+04  0.00000000000E+00 0.  1.
        -11    1    3    3    0    0  0.16403831144E+03 -0.25645378298E+02 -0.55539502772E+01  0.16612374729E+03  0.00000000000E+00 0. -1.
          2    1    6    6  502    0 -0.58063100000E+03  0.19002788592E+03  0.10833548672E+03  0.62046718952E+03  0.00000000000E+00 0. -1.
          1    1    5    5  503    0 -0.11210259859E+03 -0.27489735075E+03 -0.27240570339E+02  0.29812345553E+03  0.00000000000E+00 0. -1.
         -2    1    5    5    0  503 -0.16324679792E+02 -0.18751462424E+02 -0.27364538494E+02  0.36972022941E+02  0.00000000000E+00 0.  1.
         -1    1    6    6    0  502 -0.57772674256E+03  0.11744538465E+03  0.65860615413E+02  0.59321094739E+03  0.00000000000E+00 0.  1.
<mgrwt>
<rscale>  0 0.28529844E+04</rscale>
<asrwt>0</asrwt>
<pdfrwt beam="1">  1        2 0.22556487E+00 0.28529844E+04</pdfrwt>
<pdfrwt beam="2">  1       -2 0.21352103E+00 0.28529844E+04</pdfrwt>
<totfact> 0.12494206E+00</totfact>
</mgrwt>
</event>
<event>
12    1  0.1755460E-007  0.1225134E+04  0.7818608E-02  0.9091137E-01
          3   -1    0    0  501    0  0.00000000000E+00  0.00000000000E+00  0.22868602068E+03  0.22868602068E+03  0.00000000000E+00 0. -1.
         -3   -1    0    0    0  501 -0.00000000000E+00 -0.00000000000E+00 -0.16408440876E+04  0.16408440876E+04  0.00000000000E+00 0.  1.
         23    2    1    2    0    0  0.26062635357E+03  0.28463208840E+02 -0.28056175019E+03  0.39425447043E+03  0.89361296743E+02 0.  0.
        254    2    1    2    0    0 -0.26062635357E+03 -0.28463208840E+02 -0.11315963167E+04  0.14752756378E+04  0.90950081537E+03 0.  0.
        -24    2    4    4    0    0 -0.48413145494E+02 -0.26821990616E+03 -0.11090127874E+04  0.11448290652E+04  0.80240108399E+02 0.  0.
         24    2    4    4    0    0 -0.21221320807E+03  0.23975669732E+03 -0.22583529273E+02  0.33044657268E+03  0.78531535152E+02 0.  0.
         11    1    3    3    0    0  0.17333757118E+03  0.79258540747E+01 -0.23918476181E+03  0.29549633336E+03  0.00000000000E+00 0.  1.
        -11    1    3    3    0    0  0.87288782385E+02  0.20537354765E+02 -0.41376988380E+02  0.98758137074E+02  0.00000000000E+00 0. -1.
          2    1    6    6  502    0 -0.20898214553E+03  0.19899591373E+03 -0.15833513175E+02  0.28900451722E+03  0.00000000000E+00 0. -1.
          3    1    5    5  503    0 -0.32699192517E+02 -0.26289570268E+03 -0.10723060819E+04  0.11045468396E+04  0.00000000000E+00 0. -1.
         -4    1    5    5    0  503 -0.15713952978E+02 -0.53242034822E+01 -0.36706705581E+02  0.40282225553E+02  0.00000000000E+00 0.  1.
         -1    1    6    6    0  502 -0.32310625410E+01  0.40760783587E+02 -0.67500160981E+01  0.41442055464E+02  0.00000000000E+00 0.  1.
<mgrwt>
<rscale>  0 0.12251336E+04</rscale>
<asrwt>0</asrwt>
<pdfrwt beam="1">  1        3 0.35182464E-01 0.12251336E+04</pdfrwt>
<pdfrwt beam="2">  1       -3 0.25243756E+00 0.12251336E+04</pdfrwt>
<totfact> 0.14669774E+00</totfact>
</mgrwt>
</event>
<event>
12    1  0.1755460E-007  0.2824600E+04  0.7818608E-02  0.8295671E-01
          1   -1    0    0  501    0  0.00000000000E+00  0.00000000000E+00  0.24123909874E+04  0.24123909874E+04  0.00000000000E+00 0. -1.
         -1   -1    0    0    0  501 -0.00000000000E+00 -0.00000000000E+00 -0.82681118820E+03  0.82681118820E+03  0.00000000000E+00 0.  1.
         23    2    1    2    0    0  0.10499944008E+04  0.47410065061E+03  0.13180798332E+04  0.17530605792E+04  0.92883146406E+02 0.  0.
        254    2    1    2    0    0 -0.10499944008E+04 -0.47410065061E+03  0.26749996599E+03  0.14861415964E+04  0.89988940659E+03 0.  0.
        -24    2    4    4    0    0 -0.10082261951E+04 -0.68148178990E+02  0.45111463994E+02  0.10145520804E+04  0.78208982083E+02 0.  0.
         24    2    4    4    0    0 -0.41768205716E+02 -0.40595247162E+03  0.22238850199E+03  0.47158951599E+03  0.79987708772E+02 0.  0.
         13    1    3    3    0    0  0.77882450300E+03  0.36581781567E+03  0.92412164201E+03  0.12626920012E+04  0.00000000000E+00 0. -1.
        -13    1    3    3    0    0  0.27116989784E+03  0.10828283494E+03  0.39395819120E+03  0.49036857796E+03  0.00000000000E+00 0.  1.
          4    1    6    6  502    0 -0.14212228586E+02 -0.80473663382E+02  0.10862445574E+02  0.82437798753E+02  0.00000000000E+00 0. -1.
          1    1    5    5  503    0 -0.32234323707E+03 -0.37892302401E+02  0.47349836312E+02  0.32799846961E+03  0.00000000000E+00 0. -1.
         -4    1    5    5    0  503 -0.68588295805E+03 -0.30255876589E+02 -0.22383723178E+01  0.68655361081E+03  0.00000000000E+00 0.  1.
         -3    1    6    6    0  502 -0.27555977130E+02 -0.32547880823E+03  0.21152605642E+03  0.38915171724E+03  0.00000000000E+00 0.  1.
<mgrwt>
<rscale>  0 0.28246004E+04</rscale>
<asrwt>0</asrwt>
<pdfrwt beam="1">  1        1 0.37113707E+00 0.28246004E+04</pdfrwt>
<pdfrwt beam="2">  1       -1 0.12720172E+00 0.28246004E+04</pdfrwt>
<totfact> 0.72067008E-01</totfact>
</mgrwt>
</event>
<event>
12    1  0.1755460E-007  0.1408567E+04  0.7818608E-02  0.8947641E-01
         -2   -1    0    0    0  501 -0.00000000000E+00  0.00000000000E+00  0.59311692758E+03  0.59311692758E+03  0.00000000000E+00 0.  1.
          2   -1    0    0  501    0  0.00000000000E+00 -0.00000000000E+00 -0.83628529174E+03  0.83628529174E+03  0.00000000000E+00 0. -1.
         23    2    1    2    0    0  0.61092639762E+02  0.30022081231E+03  0.21980317339E+03  0.38677124767E+03  0.86102939653E+02 0.  0.
        254    2    1    2    0    0 -0.61092639762E+02 -0.30022081231E+03 -0.46297153755E+03  0.10426309717E+04  0.88253716732E+03 0.  0.
        -24    2    4    4    0    0 -0.46191769711E+03 -0.17681115498E+03 -0.31146026379E+03  0.58977055274E+03  0.78687136989E+02 0.  0.
         24    2    4    4    0    0  0.40082505735E+03 -0.12340965733E+03 -0.15151127375E+03  0.45286041891E+03  0.78969758910E+02 0.  0.
         11    1    3    3    0    0  0.39362222292E+02  0.60076875673E+02  0.82152353261E+02  0.10912206322E+03  0.00000000000E+00 0. -1.
        -11    1    3    3    0    0  0.21730417471E+02  0.24014393663E+03  0.13765082013E+03  0.27764918445E+03  0.00000000000E+00 0.  1.
          2    1    6    6  502    0  0.16490408100E+02  0.25489532414E+01 -0.23138786038E+02  0.28527778414E+02  0.00000000000E+00 0. -1.
          3    1    5    5  503    0 -0.61639906361E+02 -0.40095274251E+02 -0.20361789520E+02  0.76300141192E+02  0.00000000000E+00 0. -1.
         -4    1    5    5    0  503 -0.40027779075E+03 -0.13671588073E+03 -0.29109847427E+03  0.51347041155E+03  0.00000000000E+00 0.  1.
         -1    1    6    6    0  502  0.38433464925E+03 -0.12595861057E+03 -0.12837248772E+03  0.42433264050E+03  0.00000000000E+00 0.  1.
<mgrwt>
<rscale>  0 0.14085666E+04</rscale>
<asrwt>0</asrwt>
<pdfrwt beam="1">  1        2 0.12865927E+00 0.14085666E+04</pdfrwt>
<pdfrwt beam="2">  1       -2 0.91248759E-01 0.14085666E+04</pdfrwt>
<totfact> 0.32321171E+01</totfact>
</mgrwt>
</event>
<event>
12    1  0.1755460E-007  0.2203974E+04  0.7818608E-02  0.8516776E-01
         -1   -1    0    0    0  501 -0.00000000000E+00  0.00000000000E+00  0.21075990685E+04  0.21075990685E+04  0.00000000000E+00 0.  1.
          1   -1    0    0  501    0  0.00000000000E+00 -0.00000000000E+00 -0.57618897100E+03  0.57618897100E+03  0.00000000000E+00 0. -1.
         23    2    1    2    0    0  0.10390269637E+03 -0.76158530072E+03  0.35671990553E+02  0.77604610206E+03  0.10083214284E+03 0.  0.
        254    2    1    2    0    0 -0.10390269637E+03  0.76158530072E+03  0.14957381069E+04  0.19077419374E+04  0.90079902012E+03 0.  0.
        -24    2    4    4    0    0  0.20404115167E+03  0.73998024524E+03  0.13551540363E+04  0.15597461783E+04  0.84629330960E+02 0.  0.
         24    2    4    4    0    0 -0.30794384804E+03  0.21605055479E+02  0.14058407058E+03  0.34799575908E+03  0.77723712406E+02 0.  0.
         11    1    3    3    0    0  0.10884617144E+03 -0.65947753045E+03  0.59612916194E+02  0.67105275648E+03  0.00000000000E+00 0. -1.
        -11    1    3    3    0    0 -0.49434750772E+01 -0.10210777028E+03 -0.23940925640E+02  0.10499334558E+03  0.00000000000E+00 0.  1.
          4    1    6    6  502    0 -0.20055513367E+03 -0.16150611033E+02  0.65362394607E+02  0.21155483097E+03  0.00000000000E+00 0. -1.
          1    1    5    5  503    0  0.19392885529E+03  0.67488514047E+03  0.12787624780E+04  0.14588734794E+04  0.00000000000E+00 0. -1.
         -2    1    5    5    0  503  0.10112296384E+02  0.65095104771E+02  0.76391558341E+02  0.10087269893E+03  0.00000000000E+00 0.  1.
         -3    1    6    6    0  502 -0.10738871437E+03  0.37755666512E+02  0.75221675972E+02  0.13644092811E+03  0.00000000000E+00 0.  1.
<mgrwt>
<rscale>  0 0.22039740E+04</rscale>
<asrwt>0</asrwt>
<pdfrwt beam="1">  1        1 0.88644459E-01 0.22039740E+04</pdfrwt>
<pdfrwt beam="2">  1       -1 0.32424600E+00 0.22039740E+04</pdfrwt>
<totfact> 0.76020988E-01</totfact>
</mgrwt>
</event>
<event>
12    1  0.1755460E-007  0.3019454E+04  0.7818608E-02  0.8238197E-01
         -2   -1    0    0    0  501 -0.00000000000E+00  0.00000000000E+00  0.82498445661E+03  0.82498445661E+03  0.00000000000E+00 0.  1.
          2   -1    0    0  501    0  0.00000000000E+00 -0.00000000000E+00 -0.27628108533E+04  0.27628108533E+04  0.00000000000E+00 0. -1.
         23    2    1    2    0    0 -0.22929536572E+03  0.67592048708E+03 -0.22782094682E+04  0.23891993784E+04  0.92684513798E+02 0.  0.
        254    2    1    2    0    0  0.22929536572E+03 -0.67592048708E+03  0.34038307153E+03  0.11985959315E+04  0.90073675512E+03 0.  0.
        -24    2    4    4    0    0 -0.32316800041E+02  0.20456054451E+03  0.21161314896E+02  0.22292995680E+03  0.79753197146E+02 0.  0.
         24    2    4    4    0    0  0.26161216577E+03 -0.88048103159E+03  0.31922175664E+03  0.97566597470E+03  0.79585124349E+02 0.  0.
         11    1    3    3    0    0 -0.67955597957E+02  0.32468221067E+03 -0.11296088599E+04  0.11773073845E+04  0.00000000000E+00 0. -1.
        -11    1    3    3    0    0 -0.16133976777E+03  0.35123827641E+03 -0.11486006083E+04  0.12118919939E+04  0.00000000000E+00 0.  1.
          2    1    6    6  502    0  0.29213657792E+02 -0.67420881564E+02  0.53481976550E+01  0.73672357710E+02  0.00000000000E+00 0. -1.
          1    1    5    5  503    0  0.16277428398E+02  0.28439580088E+02  0.23313316090E+02  0.40215358981E+02  0.00000000000E+00 0. -1.
         -2    1    5    5    0  503 -0.48594228440E+02  0.17612096442E+03 -0.21520011941E+01  0.18271459782E+03  0.00000000000E+00 0.  1.
         -1    1    6    6    0  502  0.23239850797E+03 -0.81306015003E+03  0.31387355898E+03  0.90199361699E+03  0.00000000000E+00 0.  1.
<mgrwt>
<rscale>  0 0.30194543E+04</rscale>
<asrwt>0</asrwt>
<pdfrwt beam="1">  1        2 0.42504783E+00 0.30194543E+04</pdfrwt>
<pdfrwt beam="2">  1       -2 0.12692068E+00 0.30194543E+04</pdfrwt>
<totfact> 0.95991218E-01</totfact>
</mgrwt>
</event>
<event>
12    1  0.1755460E-007  0.1730607E+04  0.7818608E-02  0.8744098E-01
         -1   -1    0    0    0  501 -0.00000000000E+00  0.00000000000E+00  0.13847309315E+04  0.13847309315E+04  0.00000000000E+00 0.  1.
          1   -1    0    0  501    0  0.00000000000E+00 -0.00000000000E+00 -0.54071916048E+03  0.54071916048E+03  0.00000000000E+00 0. -1.
         23    2    1    2    0    0  0.17267003034E+03 -0.52149962604E+02  0.97130421280E+03  0.99188767455E+03  0.88739659440E+02 0.  0.
        254    2    1    2    0    0 -0.17267003034E+03  0.52149962604E+02 -0.12729244179E+03  0.93356241741E+03  0.90708371361E+03 0.  0.
        -24    2    4    4    0    0 -0.43217625667E+03 -0.46202968675E+02  0.21035661987E+03  0.48916402441E+03  0.78233650764E+02 0.  0.
         24    2    4    4    0    0  0.25950622633E+03  0.98352931280E+02 -0.33764906166E+03  0.44439839300E+03  0.80413072718E+02 0.  0.
         11    1    3    3    0    0  0.87005715169E+02 -0.72173741681E+02  0.54878777624E+03  0.56030979539E+03  0.00000000000E+00 0.  1.
        -11    1    3    3    0    0  0.85664315170E+02  0.20023779077E+02  0.42251643656E+03  0.43157787916E+03  0.00000000000E+00 0. -1.
          2    1    6    6  502    0  0.98199853003E+02  0.11787802346E+02 -0.16721901968E+03  0.19427908780E+03  0.00000000000E+00 0. -1.
          3    1    5    5  503    0 -0.73065291373E+02 -0.16987637154E+02  0.69659182083E+02  0.10236951826E+03  0.00000000000E+00 0. -1.
         -4    1    5    5    0  503 -0.35911096530E+03 -0.29215331521E+02  0.14069743779E+03  0.38679450616E+03  0.00000000000E+00 0.  1.
         -1    1    6    6    0  502  0.16130637333E+03  0.86565128933E+02 -0.17043004198E+03  0.25011930520E+03  0.00000000000E+00 0.  1.
<mgrwt>
<rscale>  0 0.17306075E+04</rscale>
<asrwt>0</asrwt>
<pdfrwt beam="1">  1        1 0.83187564E-01 0.17306075E+04</pdfrwt>
<pdfrwt beam="2">  1       -1 0.21303553E+00 0.17306075E+04</pdfrwt>
<totfact> 0.46232916E+00</totfact>
</mgrwt>
</event>
<event>
12    1  0.1755460E-007  0.1373945E+04  0.7818608E-02  0.8972897E-01
          2   -1    0    0  501    0  0.00000000000E+00  0.00000000000E+00  0.31300351524E+04  0.31300351524E+04  0.00000000000E+00 0.  1.
         -2   -1    0    0    0  501 -0.00000000000E+00 -0.00000000000E+00 -0.15077507755E+03  0.15077507755E+03  0.00000000000E+00 0. -1.
         23    2    1    2    0    0  0.78781933376E+02  0.11784743989E+03  0.17403743865E+04  0.17484656793E+04  0.90192096252E+02 0.  0.
        254    2    1    2    0    0 -0.78781933376E+02 -0.11784743989E+03  0.12388856883E+04  0.15323445507E+04  0.89058826690E+03 0.  0.
        -24    2    4    4    0    0  0.25191014660E+03  0.60479698081E+02  0.40596903733E+02  0.27400085162E+03  0.79447103499E+02 0.  0.
         24    2    4    4    0    0 -0.33069207998E+03 -0.17832713798E+03  0.11982887846E+04  0.12583436991E+04  0.79843808685E+02 0.  0.
         13    1    3    3    0    0  0.30750757931E+02  0.62073440229E+02  0.39127267656E+03  0.39735755752E+03  0.00000000000E+00 0. -1.
        -13    1    3    3    0    0  0.48031175446E+02  0.55773999665E+02  0.13491017100E+04  0.13511081218E+04  0.00000000000E+00 0.  1.
          2    1    6    6  502    0 -0.29869520255E+02 -0.12949411200E+02  0.20116342587E+03  0.20378076307E+03  0.00000000000E+00 0. -1.
          3    1    5    5  503    0  0.15836401617E+02 -0.32191529610E+01 -0.16298643217E+02  0.22952131332E+02  0.00000000000E+00 0. -1.
         -4    1    5    5    0  503  0.23607374498E+03  0.63698851042E+02  0.56895546950E+02  0.25104872029E+03  0.00000000000E+00 0.  1.
         -1    1    6    6    0  502 -0.30082255972E+03 -0.16537772677E+03  0.99712535875E+03  0.10545629360E+04  0.00000000000E+00 0.  1.
<mgrwt>
<rscale>  0 0.13739451E+04</rscale>
<asrwt>0</asrwt>
<pdfrwt beam="1">  1        2 0.48154382E+00 0.13739451E+04</pdfrwt>
<pdfrwt beam="2">  1       -2 0.23196168E-01 0.13739451E+04</pdfrwt>
<totfact> 0.23323558E+01</totfact>
</mgrwt>
</event>
<event>
12    1  0.1755460E-007  0.1491611E+04  0.7818608E-02  0.8890051E-01
         -1   -1    0    0    0  501 -0.00000000000E+00  0.00000000000E+00  0.39139587291E+03  0.39139587291E+03  0.00000000000E+00 0.  1.
          1   -1    0    0  501    0  0.00000000000E+00 -0.00000000000E+00 -0.14211340421E+04  0.14211340421E+04  0.00000000000E+00 0. -1.
         23    2    1    2    0    0 -0.34589307840E+02  0.33258685009E+03  0.68900771440E+02  0.35352452957E+03  0.91770603299E+02 0.  0.
        254    2    1    2    0    0  0.34589307840E+02 -0.33258685009E+03 -0.10986389407E+04  0.14590053855E+04  0.89993264183E+03 0.  0.
        -24    2    4    4    0    0 -0.41524116883E+03 -0.20589433427E+03 -0.41763668405E+03  0.62919900052E+03  0.81567623519E+02 0.  0.
         24    2    4    4    0    0  0.44983047667E+03 -0.12669251582E+03 -0.68100225661E+03  0.82980638496E+03  0.80100634868E+02 0.  0.
         11    1    3    3    0    0  0.35611326122E+01  0.16023258502E+02 -0.16662730146E+02  0.23389592866E+02  0.00000000000E+00 0. -1.
        -11    1    3    3    0    0 -0.38150440452E+02  0.31656359159E+03  0.85563501586E+02  0.33013493670E+03  0.00000000000E+00 0.  1.
          2    1    6    6  502    0  0.26223092882E+03 -0.96981505801E+02 -0.46098403513E+03  0.53914446408E+03  0.00000000000E+00 0. -1.
          1    1    5    5  503    0 -0.40683234997E+03 -0.20521167088E+03 -0.38827728154E+03  0.59865151650E+03  0.00000000000E+00 0. -1.
         -2    1    5    5    0  503 -0.84088188653E+01 -0.68266339392E+00 -0.29359402514E+02  0.30547484021E+02  0.00000000000E+00 0.  1.
         -1    1    6    6    0  502  0.18759954785E+03 -0.29711010018E+02 -0.22001822148E+03  0.29066192088E+03  0.00000000000E+00 0.  1.
<mgrwt>
<rscale>  0 0.14916112E+04</rscale>
<asrwt>0</asrwt>
<pdfrwt beam="1">  1        1 0.21863601E+00 0.14916112E+04</pdfrwt>
<pdfrwt beam="2">  1       -1 0.60214749E-01 0.14916112E+04</pdfrwt>
<totfact> 0.20098906E+01</totfact>
</mgrwt>
</event>
<event>
12    1  0.1755460E-007  0.1080042E+04  0.7818608E-02  0.9224865E-01
          2   -1    0    0  501    0  0.00000000000E+00  0.00000000000E+00  0.41134533151E+03  0.41134533151E+03  0.00000000000E+00 0. -1.
         -2   -1    0    0    0  501 -0.00000000000E+00 -0.00000000000E+00 -0.70894916250E+03  0.70894916250E+03  0.00000000000E+00 0.  1.
         23    2    1    2    0    0  0.21934124477E+02 -0.14408482102E+03  0.18471292804E+02  0.17171079487E+03  0.88892445972E+02 0.  0.
        254    2    1    2    0    0 -0.21934124477E+02  0.14408482102E+03 -0.31607512379E+03  0.94858369914E+03  0.88242053972E+03 0.  0.
        -24    2    4    4    0    0  0.34387005375E+03  0.25219761705E+03 -0.35000576792E+03  0.55725174650E+03  0.78582564777E+02 0.  0.
         24    2    4    4    0    0 -0.36580417823E+03 -0.10811279603E+03  0.33930644124E+02  0.39133195264E+03  0.80550202168E+02 0.  0.
         11    1    3    3    0    0 -0.10458527523E+02  0.92594987542E+01  0.21889119660E+01  0.14138969224E+02  0.00000000000E+00 0.  1.
        -11    1    3    3    0    0  0.32392652000E+02 -0.15334431977E+03  0.16282380838E+02  0.15757182564E+03  0.00000000000E+00 0. -1.
          4    1    6    6  502    0 -0.13134086990E+03 -0.14084873424E+02  0.41934010675E+02  0.13859029193E+03  0.00000000000E+00 0. -1.
          3    1    5    5  503    0  0.24488870969E+03  0.20089664081E+03 -0.21825927954E+03  0.38466485872E+03  0.00000000000E+00 0. -1.
         -4    1    5    5    0  503  0.98981344061E+02  0.51300976232E+02 -0.13174648838E+03  0.17258688778E+03  0.00000000000E+00 0.  1.
         -3    1    6    6    0  502 -0.23446330833E+03 -0.94027922604E+02 -0.80033665513E+01  0.25274166071E+03  0.00000000000E+00 0.  1.
<mgrwt>
<rscale>  0 0.10800425E+04</rscale>
<asrwt>0</asrwt>
<pdfrwt beam="1">  1        2 0.63283897E-01 0.10800425E+04</pdfrwt>
<pdfrwt beam="2">  1       -2 0.10906910E+00 0.10800425E+04</pdfrwt>
<totfact> 0.51360206E+01</totfact>
</mgrwt>
</event>
<event>
12    1  0.1755460E-007  0.1511928E+04  0.7818608E-02  0.8876559E-01
         -1   -1    0    0    0  501 -0.00000000000E+00  0.00000000000E+00  0.17053389068E+03  0.17053389068E+03  0.00000000000E+00 0.  1.
          1   -1    0    0  501    0  0.00000000000E+00 -0.00000000000E+00 -0.33511329384E+04  0.33511329384E+04  0.00000000000E+00 0. -1.
         23    2    1    2    0    0  0.21728753953E+03  0.61021176809E+02 -0.40677383459E+02  0.24697138353E+03  0.91666547366E+02 0.  0.
        254    2    1    2    0    0 -0.21728753953E+03 -0.61021176809E+02 -0.31399216642E+04  0.32746954455E+04  0.90198932616E+03 0.  0.
        -24    2    4    4    0    0 -0.79839067550E+02 -0.39203814657E+03 -0.25285257328E+04  0.25612256395E+04  0.79788531829E+02 0.  0.
         24    2    4    4    0    0 -0.13744847198E+03  0.33101696976E+03 -0.61139593142E+03  0.71346980602E+03  0.82279173757E+02 0.  0.
         13    1    3    3    0    0  0.98753842044E+01  0.14413337407E+02 -0.29261421329E+02  0.34080761238E+02  0.00000000000E+00 0. -1.
        -13    1    3    3    0    0  0.20741215532E+03  0.46607839402E+02 -0.11415962130E+02  0.21289062229E+03  0.00000000000E+00 0.  1.
          4    1    6    6  502    0 -0.14147919637E+03  0.33312922972E+03 -0.60872515684E+03  0.70819330926E+03  0.00000000000E+00 0. -1.
          3    1    5    5  503    0 -0.55833101726E+02 -0.20182273675E+03 -0.10848972368E+04  0.11049216111E+04  0.00000000000E+00 0. -1.
         -4    1    5    5    0  503 -0.24005965824E+02 -0.19021540982E+03 -0.14436284960E+04  0.14563040284E+04  0.00000000000E+00 0.  1.
         -3    1    6    6    0  502  0.40307243959E+01 -0.21122599627E+01 -0.26707745774E+01  0.52764967686E+01  0.00000000000E+00 0.  1.
<mgrwt>
<rscale>  0 0.15119282E+04</rscale>
<asrwt>0</asrwt>
<pdfrwt beam="1">  1        1 0.51555892E+00 0.15119282E+04</pdfrwt>
<pdfrwt beam="2">  1       -1 0.26235983E-01 0.15119282E+04</pdfrwt>
<totfact> 0.41045270E+00</totfact>
</mgrwt>
</event>
<event>
12    1  0.1755460E-007  0.1284728E+04  0.7818608E-02  0.9041764E-01
          1   -1    0    0  501    0  0.00000000000E+00  0.00000000000E+00  0.21324127916E+04  0.21324127916E+04  0.00000000000E+00 0. -1.
         -1   -1    0    0    0  501 -0.00000000000E+00 -0.00000000000E+00 -0.19350454833E+03  0.19350454833E+03  0.00000000000E+00 0.  1.
         23    2    1    2    0    0 -0.85782550265E+02 -0.83850940919E+02  0.10426336938E+04  0.10534341903E+04  0.90823717625E+02 0.  0.
        254    2    1    2    0    0  0.85782550265E+02  0.83850940919E+02  0.89627454945E+03  0.12724831496E+04  0.89527407633E+03 0.  0.
        -24    2    4    4    0    0  0.37061504857E+03  0.15393088523E+03  0.87670796700E+03  0.96757056049E+03  0.80781795443E+02 0.  0.
         24    2    4    4    0    0 -0.28483249830E+03 -0.70079944314E+02  0.19566582451E+02  0.30491258909E+03  0.80920239455E+02 0.  0.
         13    1    3    3    0    0 -0.48477090277E+02  0.99565886649E+01  0.35088978140E+03  0.35436252712E+03  0.00000000000E+00 0.  1.
        -13    1    3    3    0    0 -0.37305459988E+02 -0.93807529584E+02  0.69174391239E+03  0.69907166319E+03  0.00000000000E+00 0. -1.
          2    1    6    6  502    0 -0.13773704046E+03 -0.63803982063E+02 -0.18287163580E+02  0.15289493384E+03  0.00000000000E+00 0. -1.
          3    1    5    5  503    0  0.35113435900E+03  0.16001685608E+03  0.85342839758E+03  0.93661131858E+03  0.00000000000E+00 0. -1.
         -4    1    5    5    0  503  0.19480689567E+02 -0.60859708483E+01  0.23279569417E+02  0.30959241906E+02  0.00000000000E+00 0.  1.
         -1    1    6    6    0  502 -0.14709545784E+03 -0.62759622509E+01  0.37853746031E+02  0.15201765525E+03  0.00000000000E+00 0.  1.
<mgrwt>
<rscale>  0 0.12847281E+04</rscale>
<asrwt>0</asrwt>
<pdfrwt beam="1">  1        1 0.32806349E+00 0.12847281E+04</pdfrwt>
<pdfrwt beam="2">  1       -1 0.29769932E-01 0.12847281E+04</pdfrwt>
<totfact> 0.24694881E+01</totfact>
</mgrwt>
</event>
<event>
12    1  0.1755460E-007  0.1767676E+04  0.7818608E-02  0.8723681E-01
         -2   -1    0    0    0  501 -0.00000000000E+00  0.00000000000E+00  0.65660101589E+03  0.65660101589E+03  0.00000000000E+00 0.  1.
          2   -1    0    0  501    0  0.00000000000E+00 -0.00000000000E+00 -0.11897168764E+04  0.11897168764E+04  0.00000000000E+00 0. -1.
         23    2    1    2    0    0 -0.17306799339E+03  0.56103930095E+03 -0.49679633866E+03  0.77458462323E+03  0.91962540739E+02 0.  0.
        254    2    1    2    0    0  0.17306799339E+03 -0.56103930095E+03 -0.36319521818E+02  0.10717332690E+04  0.89586576268E+03 0.  0.
        -24    2    4    4    0    0  0.12064392473E+03 -0.57868414731E+01 -0.38346262905E+03  0.40993342690E+03  0.80083596991E+02 0.  0.
         24    2    4    4    0    0  0.52424068659E+02 -0.55525245948E+03  0.34714310723E+03  0.66179984213E+03  0.80106912415E+02 0.  0.
         11    1    3    3    0    0  0.65741402970E+01  0.35307207908E+02 -0.14012631176E+02  0.38550902498E+02  0.00000000000E+00 0.  1.
        -11    1    3    3    0    0 -0.17964213369E+03  0.52573209304E+03 -0.48278370748E+03  0.73603372074E+03  0.00000000000E+00 0. -1.
          4    1    6    6  502    0  0.57658063186E+02 -0.21653241481E+03  0.15331969653E+03  0.27150997820E+03  0.00000000000E+00 0. -1.
          1    1    5    5  503    0  0.13873459944E+01  0.15181011267E+02 -0.10748770297E+03  0.10856331849E+03  0.00000000000E+00 0. -1.
         -2    1    5    5    0  503  0.11925657874E+03 -0.20967852740E+02 -0.27597492608E+03  0.30137010842E+03  0.00000000000E+00 0.  1.
         -3    1    6    6    0  502 -0.52339945274E+01 -0.33872004466E+03  0.19382341070E+03  0.39028986393E+03  0.00000000000E+00 0.  1.
<mgrwt>
<rscale>  0 0.17676757E+04</rscale>
<asrwt>0</asrwt>
<pdfrwt beam="1">  1        2 0.18303337E+00 0.17676757E+04</pdfrwt>
<pdfrwt beam="2">  1       -2 0.10101554E+00 0.17676757E+04</pdfrwt>
<totfact> 0.14665674E+01</totfact>
</mgrwt>
</event>
<event>
12    1  0.1755460E-007  0.2394695E+04  0.7818608E-02  0.8441492E-01
         -2   -1    0    0    0  501 -0.00000000000E+00  0.00000000000E+00  0.65173422587E+03  0.65173422587E+03  0.00000000000E+00 0.  1.
          2   -1    0    0  501    0  0.00000000000E+00 -0.00000000000E+00 -0.21997331315E+04  0.21997331315E+04  0.00000000000E+00 0. -1.
         23    2    1    2    0    0 -0.51761915706E+03  0.81324588500E+03 -0.24499864714E+03  0.99866116733E+03  0.89450147054E+02 0.  0.
        254    2    1    2    0    0  0.51761915706E+03 -0.81324588500E+03 -0.13030002585E+04  0.18528061901E+04  0.89765396620E+03 0.  0.
        -24    2    4    4    0    0 -0.76922695234E+02 -0.80567872661E+02  0.93023504684E+02  0.16594754137E+03  0.80479381923E+02 0.  0.
         24    2    4    4    0    0  0.59454185229E+03 -0.73267801234E+03 -0.13960237632E+04  0.16868586487E+04  0.79452308937E+02 0.  0.
         13    1    3    3    0    0 -0.48159350360E+03  0.72326754999E+03 -0.19926271666E+03  0.89148969811E+03  0.00000000000E+00 0.  1.
        -13    1    3    3    0    0 -0.36025653455E+02  0.89978335014E+02 -0.45735930485E+02  0.10717146923E+03  0.00000000000E+00 0. -1.
          2    1    6    6  502    0  0.34554578840E+03 -0.47380462656E+03 -0.82264822535E+03  0.10102686864E+04  0.00000000000E+00 0. -1.
          3    1    5    5  503    0 -0.99320391767E+01 -0.12028314698E+02  0.63904828916E+02  0.65781098466E+02  0.00000000000E+00 0. -1.
         -4    1    5    5    0  503 -0.66990656057E+02 -0.68539557963E+02  0.29118675768E+02  0.10016644290E+03  0.00000000000E+00 0.  1.
         -1    1    6    6    0  502  0.24899606389E+03 -0.25887338578E+03 -0.57337553783E+03  0.67658996230E+03  0.00000000000E+00 0.  1.
<mgrwt>
<rscale>  0 0.23946953E+04</rscale>
<asrwt>0</asrwt>
<pdfrwt beam="1">  1        2 0.33842048E+00 0.23946953E+04</pdfrwt>
<pdfrwt beam="2">  1       -2 0.10026680E+00 0.23946953E+04</pdfrwt>
<totfact> 0.38138517E+00</totfact>
</mgrwt>
</event>
<event>
12    1  0.1755460E-007  0.1486344E+04  0.7818608E-02  0.8893585E-01
          2   -1    0    0  501    0  0.00000000000E+00  0.00000000000E+00  0.34795629269E+04  0.34795629269E+04  0.00000000000E+00 0. -1.
         -2   -1    0    0    0  501 -0.00000000000E+00 -0.00000000000E+00 -0.15872824017E+03  0.15872824017E+03  0.00000000000E+00 0.  1.
         23    2    1    2    0    0  0.13433566250E+03  0.43610669169E+03  0.88716738179E+03  0.10017639838E+04  0.90719343009E+02 0.  0.
        254    2    1    2    0    0 -0.13433566250E+03 -0.43610669169E+03  0.24336673050E+04  0.26365271833E+04  0.90570631013E+03 0.  0.
        -24    2    4    4    0    0 -0.17980208855E+03 -0.35047466883E+03  0.24704622270E+04  0.25032230926E+04  0.88209704361E+02 0.  0.
         24    2    4    4    0    0  0.45466426056E+02 -0.85632022855E+02 -0.36794922000E+02  0.13330409069E+03  0.83762014492E+02 0.  0.
         13    1    3    3    0    0  0.73983268410E+01  0.18381683576E+02  0.10557209303E+02  0.22451641352E+02  0.00000000000E+00 0.  1.
        -13    1    3    3    0    0  0.12693733565E+03  0.41772500811E+03  0.87661017249E+03  0.97931234246E+03  0.00000000000E+00 0. -1.
          2    1    6    6  502    0  0.36715419993E+01  0.15539834331E+02 -0.14548544562E+02  0.21601546717E+02  0.00000000000E+00 0. -1.
          3    1    5    5  503    0 -0.38610352801E+02 -0.21247929250E+02  0.21256847068E+03  0.21708889554E+03  0.00000000000E+00 0. -1.
         -4    1    5    5    0  503 -0.14119173575E+03 -0.32922673958E+03  0.22578937563E+04  0.22861341971E+04  0.00000000000E+00 0.  1.
         -3    1    6    6    0  502  0.41794884057E+02 -0.10117185719E+03 -0.22246377438E+02  0.11170254397E+03  0.00000000000E+00 0.  1.
<mgrwt>
<rscale>  0 0.14863444E+04</rscale>
<asrwt>0</asrwt>
<pdfrwt beam="1">  1        2 0.53531732E+00 0.14863444E+04</pdfrwt>
<pdfrwt beam="2">  1       -2 0.24419732E-01 0.14863444E+04</pdfrwt>
<totfact> 0.12339013E+01</totfact>
</mgrwt>
</event>
<event>
12    1  0.1755460E-007  0.2664467E+04  0.7818608E-02  0.8346627E-01
          1   -1    0    0  501    0  0.00000000000E+00  0.00000000000E+00  0.74066566281E+03  0.74066566281E+03  0.00000000000E+00 0. -1.
         -1   -1    0    0    0  501 -0.00000000000E+00 -0.00000000000E+00 -0.23962843910E+04  0.23962843910E+04  0.00000000000E+00 0.  1.
         23    2    1    2    0    0  0.45841010269E+03  0.35871501079E+03  0.46955002253E+03  0.75506412963E+03  0.10405928592E+03 0.  0.
        254    2    1    2    0    0 -0.45841010269E+03 -0.35871501079E+03 -0.21251687507E+04  0.23818859242E+04  0.90455627552E+03 0.  0.
        -24    2    4    4    0    0  0.15814685694E+03  0.11233749767E+03 -0.14955744664E+03  0.25796504856E+03  0.80922152025E+02 0.  0.
         24    2    4    4    0    0 -0.61655695963E+03 -0.47105250846E+03 -0.19756113041E+04  0.21239208756E+04  0.77245782516E+02 0.  0.
         13    1    3    3    0    0  0.86853665465E+02  0.40657080949E+02  0.12141706544E+03  0.15472123712E+03  0.00000000000E+00 0.  1.
        -13    1    3    3    0    0  0.37155643722E+03  0.31805792984E+03  0.34813295709E+03  0.60034289251E+03  0.00000000000E+00 0. -1.
          4    1    6    6  502    0 -0.37662072507E+02 -0.93658909486E+01 -0.11572009704E+03  0.12205446521E+03  0.00000000000E+00 0. -1.
          1    1    5    5  503    0  0.12510430623E+02 -0.12466723255E+02 -0.19049349431E+02  0.25977062513E+02  0.00000000000E+00 0. -1.
         -2    1    5    5    0  503  0.14563642632E+03  0.12480422093E+03 -0.13050809721E+03  0.23198798604E+03  0.00000000000E+00 0.  1.
         -3    1    6    6    0  502 -0.57889488712E+03 -0.46168661751E+03 -0.18598912070E+04  0.20018664104E+04  0.00000000000E+00 0.  1.
<mgrwt>
<rscale>  0 0.26644666E+04</rscale>
<asrwt>0</asrwt>
<pdfrwt beam="1">  1        1 0.11394856E+00 0.26644666E+04</pdfrwt>
<pdfrwt beam="2">  1       -1 0.36865914E+00 0.26644666E+04</pdfrwt>
<totfact> 0.25516349E-01</totfact>
</mgrwt>
</event>
<event>
12    1  0.1755460E-007  0.1724767E+04  0.7818608E-02  0.8747364E-01
          2   -1    0    0  501    0  0.00000000000E+00  0.00000000000E+00  0.35515296307E+03  0.35515296307E+03  0.00000000000E+00 0. -1.
         -2   -1    0    0    0  501 -0.00000000000E+00 -0.00000000000E+00 -0.20940412941E+04  0.20940412941E+04  0.00000000000E+00 0.  1.
         23    2    1    2    0    0  0.53121717569E+03 -0.16867508837E+03 -0.98998670687E+03  0.11397044054E+04  0.90606173554E+02 0.  0.
        254    2    1    2    0    0 -0.53121717569E+03  0.16867508837E+03 -0.74890162413E+03  0.13094898517E+04  0.91829573451E+03 0.  0.
        -24    2    4    4    0    0  0.21151538057E+03 -0.13959478891E+03 -0.19520971250E+03  0.32980322778E+03  0.80236375106E+02 0.  0.
         24    2    4    4    0    0 -0.74273255626E+03  0.30826987729E+03 -0.55369191163E+03  0.97968662397E+03  0.80803346578E+02 0.  0.
         13    1    3    3    0    0  0.15658092009E+02 -0.11117340803E+02 -0.11082674345E+02  0.22171981926E+02  0.00000000000E+00 0. -1.
        -13    1    3    3    0    0  0.51555908368E+03 -0.15755774757E+03 -0.97890403253E+03  0.11175324235E+04  0.00000000000E+00 0.  1.
          2    1    6    6  502    0 -0.39033745514E+03  0.13096516234E+03 -0.24824828760E+03  0.48077272690E+03  0.00000000000E+00 0. -1.
          3    1    5    5  503    0  0.96870867369E+02 -0.83228782123E+02 -0.14317857363E+03  0.19186218769E+03  0.00000000000E+00 0. -1.
         -4    1    5    5    0  503  0.11464451320E+03 -0.56366006789E+02 -0.52031138865E+02  0.13794104008E+03  0.00000000000E+00 0.  1.
         -1    1    6    6    0  502 -0.35239510112E+03  0.17730471495E+03 -0.30544362403E+03  0.49891389707E+03  0.00000000000E+00 0.  1.
<mgrwt>
<rscale>  0 0.17247666E+04</rscale>
<asrwt>0</asrwt>
<pdfrwt beam="1">  1        2 0.54638919E-01 0.17247666E+04</pdfrwt>
<pdfrwt beam="2">  1       -2 0.32216019E+00 0.17247666E+04</pdfrwt>
<totfact> 0.20109360E+00</totfact>
</mgrwt>
</event>
<event>
12    1  0.1755460E-007  0.2828482E+04  0.7818608E-02  0.8294480E-01
         -2   -1    0    0    0  501 -0.00000000000E+00  0.00000000000E+00  0.12492076378E+04  0.12492076378E+04  0.00000000000E+00 0. -1.
          2   -1    0    0  501    0  0.00000000000E+00 -0.00000000000E+00 -0.16010764257E+04  0.16010764257E+04  0.00000000000E+00 0.  1.
         23    2    1    2    0    0  0.56745022830E+02 -0.10474397207E+04 -0.88036854473E+03  0.13722582573E+04  0.87715358012E+02 0.  0.
        254    2    1    2    0    0 -0.56745022830E+02  0.10474397207E+04  0.52849975687E+03  0.14780258062E+04  0.89716125898E+03 0.  0.
        -24    2    4    4    0    0  0.18848148694E+03  0.83591903860E+03  0.69466564169E+03  0.11059750218E+04  0.79589479086E+02 0.  0.
         24    2    4    4    0    0 -0.24522650977E+03  0.21152068214E+03 -0.16616588482E+03  0.37205078437E+03  0.77030155166E+02 0.  0.
         13    1    3    3    0    0  0.20225101290E+02 -0.51364000792E+02 -0.35614158805E+02  0.65693862780E+02  0.00000000000E+00 0. -1.
        -13    1    3    3    0    0  0.36519921541E+02 -0.99607571994E+03 -0.84475438592E+03  0.13065643945E+04  0.00000000000E+00 0.  1.
          4    1    6    6  502    0 -0.99129475083E+02  0.38663805950E+02 -0.47907895924E+02  0.11669065606E+03  0.00000000000E+00 0. -1.
          3    1    5    5  503    0  0.10768734745E+03  0.43930825306E+03  0.31654531763E+03  0.55207720848E+03  0.00000000000E+00 0. -1.
         -4    1    5    5    0  503  0.80794139488E+02  0.39661078554E+03  0.37812032406E+03  0.55389781337E+03  0.00000000000E+00 0.  1.
         -3    1    6    6    0  502 -0.14609703468E+03  0.17285687619E+03 -0.11825798890E+03  0.25536012830E+03  0.00000000000E+00 0.  1.
<mgrwt>
<rscale>  0 0.28284815E+04</rscale>
<asrwt>0</asrwt>
<pdfrwt beam="1">  1        2 0.24631945E+00 0.28284815E+04</pdfrwt>
<pdfrwt beam="2">  1       -2 0.19218579E+00 0.28284815E+04</pdfrwt>
<totfact> 0.14490290E+00</totfact>
</mgrwt>
</event>
<event>
12    1  0.1755460E-007  0.1284434E+04  0.7818608E-02  0.9042001E-01
          4   -1    0    0  501    0  0.00000000000E+00  0.00000000000E+00  0.78795412001E+03  0.78795412001E+03  0.00000000000E+00 0. -1.
         -4   -1    0    0    0  501 -0.00000000000E+00 -0.00000000000E+00 -0.52343476642E+03  0.52343476642E+03  0.00000000000E+00 0.  1.
         23    2    1    2    0    0  0.21700688670E+03  0.22315256109E+03  0.61279138613E+01  0.32468591387E+03  0.92164727217E+02 0.  0.
        254    2    1    2    0    0 -0.21700688670E+03 -0.22315256109E+03  0.25839143973E+03  0.98670297257E+03  0.89995975774E+03 0.  0.
        -24    2    4    4    0    0  0.22635608059E+03 -0.12423707407E+03 -0.20076438621E+03  0.33580535493E+03  0.76072148868E+02 0.  0.
         24    2    4    4    0    0 -0.44336296729E+03 -0.98915487018E+02  0.45915582594E+03  0.65089761764E+03  0.80552106210E+02 0.  0.
         11    1    3    3    0    0  0.15500244133E+03  0.20872535154E+03  0.14963349297E+02  0.26041492088E+03  0.00000000000E+00 0.  1.
        -11    1    3    3    0    0  0.62004445363E+02  0.14427209543E+02 -0.88354354356E+01  0.64270992985E+02  0.00000000000E+00 0. -1.
          2    1    6    6  502    0 -0.21144699456E+02 -0.16245794291E+02  0.88405019728E+01  0.28092323193E+02  0.00000000000E+00 0. -1.
          1    1    5    5  503    0  0.94026719384E+02 -0.72887712792E+02 -0.50930070860E+02  0.12941218935E+03  0.00000000000E+00 0. -1.
         -2    1    5    5    0  503  0.13232936121E+03 -0.51349361278E+02 -0.14983431535E+03  0.20639316558E+03  0.00000000000E+00 0.  1.
         -1    1    6    6    0  502 -0.42221826784E+03 -0.82669692727E+02  0.45031532397E+03  0.62280529444E+03  0.00000000000E+00 0.  1.
<mgrwt>
<rscale>  0 0.12844339E+04</rscale>
<asrwt>0</asrwt>
<pdfrwt beam="1">  1        4 0.12122371E+00 0.12844339E+04</pdfrwt>
<pdfrwt beam="2">  1       -4 0.80528425E-01 0.12844339E+04</pdfrwt>
<totfact> 0.13819478E+00</totfact>
</mgrwt>
</event>
<event>
12    1  0.1755460E-007  0.2815167E+04  0.7818608E-02  0.8298575E-01
          1   -1    0    0  501    0  0.00000000000E+00  0.00000000000E+00  0.97471591400E+03  0.97471591400E+03  0.00000000000E+00 0. -1.
         -1   -1    0    0    0  501 -0.00000000000E+00 -0.00000000000E+00 -0.20326858783E+04  0.20326858783E+04  0.00000000000E+00 0.  1.
         23    2    1    2    0    0  0.68601336572E+03 -0.49636866661E+03  0.47118572939E+03  0.97312656946E+03  0.89236413311E+02 0.  0.
        254    2    1    2    0    0 -0.68601336572E+03  0.49636866661E+03 -0.15291556937E+04  0.20342752229E+04  0.10406547726E+04 0.  0.
        -24    2    4    4    0    0 -0.54224088016E+03  0.80906865432E+03 -0.10042141201E+04  0.14014585041E+04  0.83801432846E+02 0.  0.
         24    2    4    4    0    0 -0.14377248556E+03 -0.31269998771E+03 -0.52494157358E+03  0.63281671877E+03  0.80259167456E+02 0.  0.
         11    1    3    3    0    0  0.17450035456E+03 -0.17122322334E+03  0.11578743839E+03  0.27050784987E+03  0.00000000000E+00 0.  1.
        -11    1    3    3    0    0  0.51151301116E+03 -0.32514544327E+03  0.35539829100E+03  0.70261871959E+03  0.00000000000E+00 0. -1.
          2    1    6    6  502    0 -0.67757782308E+02 -0.66027746133E+02 -0.12393622228E+03  0.15591974703E+03  0.00000000000E+00 0. -1.
          1    1    5    5  503    0 -0.13910494746E+03  0.27572917898E+03 -0.30489798558E+03  0.43398104585E+03  0.00000000000E+00 0. -1.
         -2    1    5    5    0  503 -0.40313593269E+03  0.53333947534E+03 -0.69931613456E+03  0.96747745826E+03  0.00000000000E+00 0.  1.
         -1    1    6    6    0  502 -0.76014703252E+02 -0.24667224157E+03 -0.40100535131E+03  0.47689697174E+03  0.00000000000E+00 0.  1.
<mgrwt>
<rscale>  0 0.28151670E+04</rscale>
<asrwt>0</asrwt>
<pdfrwt beam="1">  1        1 0.14995630E+00 0.28151670E+04</pdfrwt>
<pdfrwt beam="2">  1       -1 0.31272090E+00 0.28151670E+04</pdfrwt>
<totfact> 0.37387402E-01</totfact>
</mgrwt>
</event>
<event>
12    1  0.1755460E-007  0.2459955E+04  0.7818608E-02  0.8417392E-01
          1   -1    0    0  501    0  0.00000000000E+00  0.00000000000E+00  0.51916227269E+03  0.51916227269E+03  0.00000000000E+00 0.  1.
         -1   -1    0    0    0  501 -0.00000000000E+00 -0.00000000000E+00 -0.29140099981E+04  0.29140099981E+04  0.00000000000E+00 0. -1.
         23    2    1    2    0    0  0.34218596574E+03  0.21225960990E+03 -0.24221849530E+04  0.24571654235E+04  0.92393693562E+02 0.  0.
        254    2    1    2    0    0 -0.34218596574E+03 -0.21225960990E+03  0.27337227661E+02  0.97600684725E+03  0.88864878592E+03 0.  0.
        -24    2    4    4    0    0 -0.45756316478E+02 -0.27399559781E+03  0.39699580780E+03  0.49122768270E+03  0.80819160641E+02 0.  0.
         24    2    4    4    0    0 -0.29642964926E+03  0.61735987903E+02 -0.36965858014E+03  0.48477916454E+03  0.81740463273E+02 0.  0.
         11    1    3    3    0    0  0.11340750344E+01  0.15852034704E+02 -0.18015874941E+03  0.18085836480E+03  0.00000000000E+00 0.  1.
        -11    1    3    3    0    0  0.34105189071E+03  0.19640757520E+03 -0.22420262036E+04  0.22763070587E+04  0.00000000000E+00 0. -1.
          2    1    6    6  502    0 -0.20715829552E+03  0.69235943004E+02 -0.30104872200E+03  0.37193885011E+03  0.00000000000E+00 0. -1.
          1    1    5    5  503    0 -0.58137192853E+02 -0.20444630193E+03  0.25003828252E+03  0.32817276897E+03  0.00000000000E+00 0. -1.
         -2    1    5    5    0  503  0.12380876376E+02 -0.69549295876E+02  0.14695752528E+03  0.16305491373E+03  0.00000000000E+00 0.  1.
         -1    1    6    6    0  502 -0.89271353746E+02 -0.74999551012E+01 -0.68609858143E+02  0.11284031443E+03  0.00000000000E+00 0.  1.
<mgrwt>
<rscale>  0 0.24599545E+04</rscale>
<asrwt>0</asrwt>
<pdfrwt beam="1">  1        1 0.79871120E-01 0.24599545E+04</pdfrwt>
<pdfrwt beam="2">  1       -1 0.44830922E+00 0.24599545E+04</pdfrwt>
<totfact> 0.12456125E-01</totfact>
</mgrwt>
</event>
<event>
12    1  0.1755460E-007  0.1547030E+04  0.7818608E-02  0.8853767E-01
         -2   -1    0    0    0  501 -0.00000000000E+00  0.00000000000E+00  0.25170810762E+03  0.25170810762E+03  0.00000000000E+00 0.  1.
          2   -1    0    0  501    0  0.00000000000E+00 -0.00000000000E+00 -0.23770618045E+04  0.23770618045E+04  0.00000000000E+00 0. -1.
         23    2    1    2    0    0 -0.26133237872E+03  0.28978994315E+03 -0.12634008470E+04  0.13256980850E+04  0.94978360882E+02 0.  0.
        254    2    1    2    0    0  0.26133237872E+03 -0.28978994315E+03 -0.86195284987E+03  0.13030718271E+04  0.89596911102E+03 0.  0.
        -24    2    4    4    0    0 -0.17240394753E+03 -0.18898327937E+03  0.58903264072E+02  0.27702498807E+03  0.88518068734E+02 0.  0.
         24    2    4    4    0    0  0.43373632626E+03 -0.10080666379E+03 -0.92085611394E+03  0.10260468390E+04  0.80665662777E+02 0.  0.
         11    1    3    3    0    0 -0.25880418955E+03  0.26799838968E+03 -0.12340001483E+04  0.12890147833E+04  0.00000000000E+00 0. -1.
        -11    1    3    3    0    0 -0.25281891696E+01  0.21791553474E+02 -0.29400698660E+02  0.36683301719E+02  0.00000000000E+00 0.  1.
          2    1    6    6  502    0  0.34877117492E+03 -0.47443983654E+02 -0.72986793315E+03  0.81030825238E+03  0.00000000000E+00 0. -1.
          3    1    5    5  503    0 -0.53509081949E+02 -0.12354970730E+03  0.22397712980E+02  0.13648959511E+03  0.00000000000E+00 0. -1.
         -4    1    5    5    0  503 -0.11889486559E+03 -0.65433572066E+02  0.36505551092E+02  0.14053539297E+03  0.00000000000E+00 0.  1.
         -1    1    6    6    0  502  0.84965151340E+02 -0.53362680131E+02 -0.19098818079E+03  0.21573858666E+03  0.00000000000E+00 0.  1.
<mgrwt>
<rscale>  0 0.15470304E+04</rscale>
<asrwt>0</asrwt>
<pdfrwt beam="1">  1        2 0.36570181E+00 0.15470304E+04</pdfrwt>
<pdfrwt beam="2">  1       -2 0.38724325E-01 0.15470304E+04</pdfrwt>
<totfact> 0.24902024E+01</totfact>
</mgrwt>
</event>
<event>
12    1  0.1755460E-007  0.1765026E+04  0.7818608E-02  0.8725122E-01
          1   -1    0    0  501    0  0.00000000000E+00  0.00000000000E+00  0.16104588234E+04  0.16104588234E+04  0.00000000000E+00 0. -1.
         -1   -1    0    0    0  501 -0.00000000000E+00 -0.00000000000E+00 -0.48360707720E+03  0.48360707720E+03  0.00000000000E+00 0.  1.
         23    2    1    2    0    0 -0.36708051005E+03 -0.67936010498E+02  0.10137556036E+04  0.10841557433E+04  0.91268008960E+02 0.  0.
        254    2    1    2    0    0  0.36708051005E+03  0.67936010498E+02  0.11309614254E+03  0.10099101573E+04  0.93153871949E+03 0.  0.
        -24    2    4    4    0    0  0.77295155038E+02  0.34136005104E+03  0.38201931882E+03  0.52306028889E+03  0.71777993978E+02 0.  0.
         24    2    4    4    0    0  0.28978535501E+03 -0.27342404054E+03 -0.26892317628E+03  0.48684986838E+03  0.77245463809E+02 0.  0.
         13    1    3    3    0    0 -0.12634546698E+03  0.20139645917E+02  0.34362875731E+03  0.36667356765E+03  0.00000000000E+00 0. -1.
        -13    1    3    3    0    0 -0.24073504307E+03 -0.88075656416E+02  0.67012684631E+03  0.71748217564E+03  0.00000000000E+00 0.  1.
          2    1    6    6  502    0  0.60358652687E+02 -0.21109054973E+02 -0.54466094278E+02  0.83995920032E+02  0.00000000000E+00 0. -1.
          1    1    5    5  503    0  0.35072766496E+01 -0.31970491584E+01  0.71221941574E+01  0.85584906633E+01  0.00000000000E+00 0. -1.
         -2    1    5    5    0  503  0.73787878388E+02  0.34455710020E+03  0.37489712467E+03  0.51450179822E+03  0.00000000000E+00 0.  1.
         -1    1    6    6    0  502  0.22942670233E+03 -0.25231498557E+03 -0.21445708200E+03  0.40285394835E+03  0.00000000000E+00 0.  1.
<mgrwt>
<rscale>  0 0.17650261E+04</rscale>
<asrwt>0</asrwt>
<pdfrwt beam="1">  1        1 0.24776289E+00 0.17650261E+04</pdfrwt>
<pdfrwt beam="2">  1       -1 0.74401090E-01 0.17650261E+04</pdfrwt>
<totfact> 0.94437460E+00</totfact>
</mgrwt>
</event>
<event>
12    1  0.1755460E-007  0.1882219E+04  0.7818608E-02  0.8663758E-01
          2   -1    0    0  501    0  0.00000000000E+00  0.00000000000E+00  0.15170878178E+04  0.15170878178E+04  0.00000000000E+00 0. -1.
         -2   -1    0    0    0  501 -0.00000000000E+00 -0.00000000000E+00 -0.58380762853E+03  0.58380762853E+03  0.00000000000E+00 0.  1.
         23    2    1    2    0    0  0.57921165345E+03  0.36998500657E+03  0.61522298779E+03  0.92887144013E+03  0.10921439008E+03 0.  0.
        254    2    1    2    0    0 -0.57921165345E+03 -0.36998500657E+03  0.31805720152E+03  0.11720240062E+04  0.89448579820E+03 0.  0.
        -24    2    4    4    0    0 -0.46507580045E+03 -0.77704439194E+02  0.58246999553E+03  0.75369457810E+03  0.80316507210E+02 0.  0.
         24    2    4    4    0    0 -0.11413585300E+03 -0.29228056738E+03 -0.26441279402E+03  0.41832942814E+03  0.81427647648E+02 0.  0.
         13    1    3    3    0    0  0.73811694332E+02  0.68414716842E+02  0.48053897653E+02  0.11152540868E+03  0.00000000000E+00 0.  1.
        -13    1    3    3    0    0  0.50539995912E+03  0.30157028973E+03  0.56716909014E+03  0.81734603145E+03  0.00000000000E+00 0. -1.
          2    1    6    6  502    0 -0.23610332828E+02 -0.58205600366E+02 -0.10069834608E+03  0.11868233496E+03  0.00000000000E+00 0. -1.
          1    1    5    5  503    0 -0.38926499597E+03 -0.82069661128E+02  0.44697995602E+03  0.59837592485E+03  0.00000000000E+00 0. -1.
         -2    1    5    5    0  503 -0.75810804477E+02  0.43652219341E+01  0.13549003952E+03  0.15531865325E+03  0.00000000000E+00 0.  1.
         -1    1    6    6    0  502 -0.90525520173E+02 -0.23407496701E+03 -0.16371444794E+03  0.29964709317E+03  0.00000000000E+00 0.  1.
<mgrwt>
<rscale>  0 0.18822194E+04</rscale>
<asrwt>0</asrwt>
<pdfrwt beam="1">  1        2 0.23339812E+00 0.18822194E+04</pdfrwt>
<pdfrwt beam="2">  1       -2 0.89816559E-01 0.18822194E+04</pdfrwt>
<totfact> 0.12364006E+01</totfact>
</mgrwt>
</event>
<event>
12    1  0.1755460E-007  0.1195053E+04  0.7818608E-02  0.9117198E-01
          2   -1    0    0  501    0  0.00000000000E+00  0.00000000000E+00  0.13108702509E+04  0.13108702509E+04  0.00000000000E+00 0. -1.
         -2   -1    0    0    0  501 -0.00000000000E+00 -0.00000000000E+00 -0.27236695253E+03  0.27236695253E+03  0.00000000000E+00 0.  1.
         23    2    1    2    0    0  0.13126469506E+02  0.12690656023E+03  0.48898179180E+03  0.51392236991E+03  0.93463524158E+02 0.  0.
        254    2    1    2    0    0 -0.13126469506E+02 -0.12690656023E+03  0.54952150659E+03  0.10693148335E+04  0.90839570002E+03 0.  0.
        -24    2    4    4    0    0 -0.19211280721E+01 -0.51468893529E+03  0.29664750794E+03  0.59931362670E+03  0.79175048716E+02 0.  0.
         24    2    4    4    0    0 -0.11205341433E+02  0.38778237506E+03  0.25287399865E+03  0.47000120685E+03  0.80343918026E+02 0.  0.
         11    1    3    3    0    0  0.40827394879E+02  0.78494519671E+02  0.18753435087E+03  0.20735814078E+03  0.00000000000E+00 0.  1.
        -11    1    3    3    0    0 -0.27700925373E+02  0.48412040558E+02  0.30144744094E+03  0.30656422914E+03  0.00000000000E+00 0. -1.
          2    1    6    6  502    0 -0.33562599717E+02  0.34055600274E+03  0.20366823654E+03  0.39822806240E+03  0.00000000000E+00 0. -1.
          3    1    5    5  503    0  0.22943969534E+02 -0.43220218951E+03  0.26521181848E+03  0.50760463652E+03  0.00000000000E+00 0. -1.
         -4    1    5    5    0  503 -0.24865097606E+02 -0.82486745779E+02  0.31435689467E+02  0.91708990183E+02  0.00000000000E+00 0.  1.
         -3    1    6    6    0  502  0.22357258283E+02  0.47226372314E+02  0.49205762104E+02  0.71773144449E+02  0.00000000000E+00 0.  1.
<mgrwt>
<rscale>  0 0.11950527E+04</rscale>
<asrwt>0</asrwt>
<pdfrwt beam="1">  1        2 0.20167234E+00 0.11950527E+04</pdfrwt>
<pdfrwt beam="2">  1       -2 0.41902609E-01 0.11950527E+04</pdfrwt>
<totfact> 0.86741906E+01</totfact>
</mgrwt>
</event>
<event>
12    1  0.1755460E-007  0.2493605E+04  0.7818608E-02  0.8405267E-01
         -1   -1    0    0    0  501 -0.00000000000E+00  0.00000000000E+00  0.72508822764E+03  0.72508822764E+03  0.00000000000E+00 0.  1.
          1   -1    0    0  501    0  0.00000000000E+00 -0.00000000000E+00 -0.21438991177E+04  0.21438991177E+04  0.00000000000E+00 0. -1.
         23    2    1    2    0    0 -0.55049587518E+03  0.37567963358E+03 -0.15909588751E+04  0.17273088484E+04  0.90911053719E+02 0.  0.
        254    2    1    2    0    0  0.55049587518E+03 -0.37567963358E+03  0.17214798509E+03  0.11416784969E+04  0.91083146955E+03 0.  0.
        -24    2    4    4    0    0  0.64568187984E+03 -0.80294795205E+02 -0.16516363647E+03  0.67591966101E+03  0.78968457277E+02 0.  0.
         24    2    4    4    0    0 -0.95186004661E+02 -0.29538483837E+03  0.33731162156E+03  0.46575883592E+03  0.82701783404E+02 0.  0.
         13    1    3    3    0    0 -0.35380104639E+03  0.19794085979E+03 -0.89372967732E+03  0.98138091510E+03  0.00000000000E+00 0. -1.
        -13    1    3    3    0    0 -0.19669482879E+03  0.17773877378E+03 -0.69722919778E+03  0.74592793326E+03  0.00000000000E+00 0.  1.
          4    1    6    6  502    0 -0.76971264176E+02 -0.28379840041E+03  0.33205840265E+03  0.44354130625E+03  0.00000000000E+00 0. -1.
          3    1    5    5  503    0  0.44856559803E+03 -0.63296181938E+02 -0.77799599910E+02  0.45964146912E+03  0.00000000000E+00 0. -1.
         -4    1    5    5    0  503  0.19711628180E+03 -0.16998613266E+02 -0.87364036560E+02  0.21627819189E+03  0.00000000000E+00 0.  1.
         -3    1    6    6    0  502 -0.18214740485E+02 -0.11586437966E+02  0.52532189058E+01  0.22217529668E+02  0.00000000000E+00 0.  1.
<mgrwt>
<rscale>  0 0.24936046E+04</rscale>
<asrwt>0</asrwt>
<pdfrwt beam="1">  1        1 0.32983063E+00 0.24936046E+04</pdfrwt>
<pdfrwt beam="2">  1       -1 0.11155204E+00 0.24936046E+04</pdfrwt>
<totfact> 0.15607465E+00</totfact>
</mgrwt>
</event>
<event>
12    1  0.1755460E-007  0.1396614E+04  0.7818608E-02  0.8956273E-01
          3   -1    0    0  501    0  0.00000000000E+00  0.00000000000E+00  0.10552150408E+04  0.10552150408E+04  0.00000000000E+00 0. -1.
         -3   -1    0    0    0  501 -0.00000000000E+00 -0.00000000000E+00 -0.46211717469E+03  0.46211717469E+03  0.00000000000E+00 0.  1.
         23    2    1    2    0    0  0.21564083740E+03  0.24628892550E+03  0.41057858873E+03  0.53907041609E+03  0.12191361862E+03 0.  0.
        254    2    1    2    0    0 -0.21564083740E+03 -0.24628892550E+03  0.18251927735E+03  0.97826179936E+03  0.90361698518E+03 0.  0.
        -24    2    4    4    0    0  0.56375460437E+01 -0.25867679476E+03  0.50854612556E+03  0.57601994820E+03  0.78957918126E+02 0.  0.
         24    2    4    4    0    0 -0.22127838344E+03  0.12387869266E+02 -0.32602684821E+03  0.40224185116E+03  0.79921328725E+02 0.  0.
         13    1    3    3    0    0 -0.66536999140E+01  0.31175823145E+02  0.81079563322E+02  0.87121175725E+02  0.00000000000E+00 0.  1.
        -13    1    3    3    0    0  0.22229453731E+03  0.21511310235E+03  0.32949902541E+03  0.45194924037E+03  0.00000000000E+00 0. -1.
          2    1    6    6  502    0 -0.99127346609E+02  0.36314490782E+01 -0.80050316183E+02  0.12746556943E+03  0.00000000000E+00 0. -1.
          3    1    5    5  503    0  0.17891170615E+02 -0.89574144936E+02  0.11047927179E+03  0.14335023866E+03  0.00000000000E+00 0. -1.
         -4    1    5    5    0  503 -0.12253624571E+02 -0.16910264983E+03  0.39806685376E+03  0.43266970955E+03  0.00000000000E+00 0.  1.
         -1    1    6    6    0  502 -0.12215103683E+03  0.87564201878E+01 -0.24597653203E+03  0.27477628173E+03  0.00000000000E+00 0.  1.
<mgrwt>
<rscale>  0 0.13966145E+04</rscale>
<asrwt>0</asrwt>
<pdfrwt beam="1">  1        3 0.16234078E+00 0.13966145E+04</pdfrwt>
<pdfrwt beam="2">  1       -3 0.71094950E-01 0.13966145E+04</pdfrwt>
<totfact> 0.12649978E+00</totfact>
</mgrwt>
</event>
<event>
12    1  0.1755460E-007  0.2413257E+04  0.7818608E-02  0.8434557E-01
          2   -1    0    0  501    0  0.00000000000E+00  0.00000000000E+00  0.16680520680E+04  0.16680520680E+04  0.00000000000E+00 0. -1.
         -2   -1    0    0    0  501 -0.00000000000E+00 -0.00000000000E+00 -0.87284562165E+03  0.87284562165E+03  0.00000000000E+00 0.  1.
         23    2    1    2    0    0 -0.43249148978E+03  0.11531795016E+03  0.12761357110E+04  0.13553682130E+04  0.90296852902E+02 0.  0.
        254    2    1    2    0    0  0.43249148978E+03 -0.11531795016E+03 -0.48092926465E+03  0.11855294766E+04  0.98683335166E+03 0.  0.
        -24    2    4    4    0    0  0.24731846769E+03  0.10162995667E+03 -0.74084475600E+03  0.79168851252E+03  0.80154075422E+02 0.  0.
         24    2    4    4    0    0  0.18517302208E+03 -0.21694790683E+03  0.25991549135E+03  0.39384096409E+03  0.78734998385E+02 0.  0.
         11    1    3    3    0    0 -0.36307023596E+03  0.10269708074E+03  0.11562818690E+04  0.12162871566E+04  0.00000000000E+00 0. -1.
        -11    1    3    3    0    0 -0.69421253816E+02  0.12620869421E+02  0.11985384198E+03  0.13908105645E+03  0.00000000000E+00 0.  1.
          4    1    6    6  502    0  0.23726618198E+02 -0.46048734241E+01  0.46106772437E+01  0.24605194878E+02  0.00000000000E+00 0. -1.
          1    1    5    5  503    0  0.79243865721E+02  0.60786355045E+02 -0.35633755899E+03  0.37006894920E+03  0.00000000000E+00 0. -1.
         -2    1    5    5    0  503  0.16807460197E+03  0.40843601626E+02 -0.38450719701E+03  0.42161956332E+03  0.00000000000E+00 0.  1.
         -1    1    6    6    0  502  0.16144640388E+03 -0.21234303340E+03  0.25530481410E+03  0.36923576921E+03  0.00000000000E+00 0.  1.
<mgrwt>
<rscale>  0 0.24132567E+04</rscale>
<asrwt>0</asrwt>
<pdfrwt beam="1">  1        2 0.25662339E+00 0.24132567E+04</pdfrwt>
<pdfrwt beam="2">  1       -2 0.13428394E+00 0.24132567E+04</pdfrwt>
<totfact> 0.36708098E+00</totfact>
</mgrwt>
</event>
<event>
12    1  0.1755460E-007  0.1722247E+04  0.7818608E-02  0.8748777E-01
          1   -1    0    0  501    0  0.00000000000E+00  0.00000000000E+00  0.76357353651E+03  0.76357353651E+03  0.00000000000E+00 0. -1.
         -1   -1    0    0    0  501 -0.00000000000E+00 -0.00000000000E+00 -0.97113557807E+03  0.97113557807E+03  0.00000000000E+00 0.  1.
         23    2    1    2    0    0  0.18607000507E+03  0.56753610367E+03 -0.17439210218E+03  0.62897258249E+03  0.92057745290E+02 0.  0.
        254    2    1    2    0    0 -0.18607000507E+03 -0.56753610367E+03 -0.33169939388E+02  0.11057365321E+04  0.92996438521E+03 0.  0.
        -24    2    4    4    0    0 -0.24420172552E+03 -0.35668213729E+03 -0.44954708619E+03  0.62865943495E+03  0.79142104111E+02 0.  0.
         24    2    4    4    0    0  0.58131720449E+02 -0.21085396637E+03  0.41637714680E+03  0.47707709714E+03  0.79962092145E+02 0.  0.
         13    1    3    3    0    0  0.34361838073E+02  0.10455090388E+03  0.40199748740E+01  0.11012623492E+03  0.00000000000E+00 0. -1.
        -13    1    3    3    0    0  0.15170816700E+03  0.46298519978E+03 -0.17841207705E+03  0.51884634757E+03  0.00000000000E+00 0.  1.
          2    1    6    6  502    0  0.11262147895E-01 -0.59550345218E+02  0.55201450069E+02  0.81200023597E+02  0.00000000000E+00 0. -1.
          1    1    5    5  503    0 -0.85547233031E+02 -0.65141823127E+02 -0.11219634465E+03  0.15540207834E+03  0.00000000000E+00 0. -1.
         -2    1    5    5    0  503 -0.15865449249E+03 -0.29154031417E+03 -0.33735074153E+03  0.47325735661E+03  0.00000000000E+00 0.  1.
         -1    1    6    6    0  502  0.58120458301E+02 -0.15130362116E+03  0.36117569673E+03  0.39587707354E+03  0.00000000000E+00 0.  1.
<mgrwt>
<rscale>  0 0.17222467E+04</rscale>
<asrwt>0</asrwt>
<pdfrwt beam="1">  1        1 0.11747285E+00 0.17222467E+04</pdfrwt>
<pdfrwt beam="2">  1       -1 0.14940547E+00 0.17222467E+04</pdfrwt>
<totfact> 0.79771646E+00</totfact>
</mgrwt>
</event>
<event>
12    1  0.1755460E-007  0.1608295E+04  0.7818608E-02  0.8815468E-01
         -2   -1    0    0    0  501 -0.00000000000E+00  0.00000000000E+00  0.32517872863E+03  0.32517872863E+03  0.00000000000E+00 0. -1.
          2   -1    0    0  501    0  0.00000000000E+00 -0.00000000000E+00 -0.19886078999E+04  0.19886078999E+04  0.00000000000E+00 0.  1.
         23    2    1    2    0    0 -0.21836844955E+03 -0.44957747515E+03 -0.25540927831E+03  0.56938756341E+03  0.95726756996E+02 0.  0.
        254    2    1    2    0    0  0.21836844955E+03  0.44957747515E+03 -0.14080198930E+04  0.17443990652E+04  0.90033515622E+03 0.  0.
        -24    2    4    4    0    0 -0.20710821656E+03  0.54230945457E+03 -0.78765174114E+03  0.98175795980E+03  0.80374550827E+02 0.  0.
         24    2    4    4    0    0  0.42547666610E+03 -0.92731979424E+02 -0.62036815186E+03  0.76264110537E+03  0.84470103222E+02 0.  0.
         11    1    3    3    0    0 -0.20553432905E+03 -0.35428793310E+03 -0.18096324660E+03  0.44778565919E+03  0.00000000000E+00 0. -1.
        -11    1    3    3    0    0 -0.12834120497E+02 -0.95289542051E+02 -0.74446031714E+02  0.12160190423E+03  0.00000000000E+00 0.  1.
          2    1    6    6  502    0  0.13257007947E+03 -0.63494356852E+02 -0.24365652999E+03  0.28456082641E+03  0.00000000000E+00 0. -1.
          3    1    5    5  503    0 -0.82580577682E+02  0.31651188444E+03 -0.46987644251E+03  0.57252353317E+03  0.00000000000E+00 0. -1.
         -4    1    5    5    0  503 -0.12452763888E+03  0.22579757013E+03 -0.31777529863E+03  0.40923442663E+03  0.00000000000E+00 0.  1.
         -1    1    6    6    0  502  0.29290658663E+03 -0.29237622572E+02 -0.37671162188E+03  0.47808027895E+03  0.00000000000E+00 0.  1.
<mgrwt>
<rscale>  0 0.16082947E+04</rscale>
<asrwt>0</asrwt>
<pdfrwt beam="1">  1        2 0.30593967E+00 0.16082947E+04</pdfrwt>
<pdfrwt beam="2">  1       -2 0.50027497E-01 0.16082947E+04</pdfrwt>
<totfact> 0.24563143E+01</totfact>
</mgrwt>
</event>
<event>
12    1  0.1755460E-007  0.1122682E+04  0.7818608E-02  0.9183362E-01
          2   -1    0    0  501    0  0.00000000000E+00  0.00000000000E+00  0.58436350765E+03  0.58436350765E+03  0.00000000000E+00 0.  1.
         -2   -1    0    0    0  501 -0.00000000000E+00 -0.00000000000E+00 -0.53922578314E+03  0.53922578314E+03  0.00000000000E+00 0. -1.
         23    2    1    2    0    0 -0.14946075448E+03 -0.61898482880E+02 -0.81072843738E+02  0.20395647211E+03  0.94103651436E+02 0.  0.
        254    2    1    2    0    0  0.14946075448E+03  0.61898482880E+02  0.12621056824E+03  0.91963281868E+03  0.89645160179E+03 0.  0.
        -24    2    4    4    0    0  0.24621125744E+03  0.22860468887E+02 -0.34456461946E+03  0.43203589763E+03  0.82387229203E+02 0.  0.
         24    2    4    4    0    0 -0.96750502958E+02  0.39038013993E+02  0.47077518770E+03  0.48759692105E+03  0.72366108799E+02 0.  0.
         11    1    3    3    0    0 -0.12295387988E+03 -0.71434691387E+02 -0.96488044192E+02  0.17184444821E+03  0.00000000000E+00 0. -1.
        -11    1    3    3    0    0 -0.26506874601E+02  0.95362085072E+01  0.15415200455E+02  0.32112023899E+02  0.00000000000E+00 0.  1.
          4    1    6    6  502    0 -0.20227032157E+02  0.39773076659E+02  0.24958935192E+03  0.25354659344E+03  0.00000000000E+00 0. -1.
          3    1    5    5  503    0  0.20898904259E+03  0.30836104313E-01 -0.31922388247E+03  0.38154987618E+03  0.00000000000E+00 0. -1.
         -4    1    5    5    0  503  0.37222214847E+02  0.22829632782E+02 -0.25340736985E+02  0.50486021452E+02  0.00000000000E+00 0.  1.
         -3    1    6    6    0  502 -0.76523470801E+02 -0.73506266638E+00  0.22118583578E+03  0.23405032761E+03  0.00000000000E+00 0.  1.
<mgrwt>
<rscale>  0 0.11226823E+04</rscale>
<asrwt>0</asrwt>
<pdfrwt beam="1">  1        2 0.89902078E-01 0.11226823E+04</pdfrwt>
<pdfrwt beam="2">  1       -2 0.82957813E-01 0.11226823E+04</pdfrwt>
<totfact> 0.64687682E+01</totfact>
</mgrwt>
</event>
<event>
12    1  0.1755460E-007  0.2541157E+04  0.7818608E-02  0.8388468E-01
          1   -1    0    0  501    0  0.00000000000E+00  0.00000000000E+00  0.31543401216E+04  0.31543401216E+04  0.00000000000E+00 0. -1.
         -1   -1    0    0    0  501 -0.00000000000E+00 -0.00000000000E+00 -0.51179309093E+03  0.51179309093E+03  0.00000000000E+00 0.  1.
         23    2    1    2    0    0  0.81358327498E+03  0.13671175535E+03  0.22273963215E+04  0.23768159143E+04  0.85741869571E+02 0.  0.
        254    2    1    2    0    0 -0.81358327498E+03 -0.13671175535E+03  0.41515070918E+03  0.12893172982E+04  0.89965612027E+03 0.  0.
        -24    2    4    4    0    0  0.17389119763E+03 -0.82756191461E+02  0.16668489398E+03  0.26657125458E+03  0.78674290898E+02 0.  0.
         24    2    4    4    0    0 -0.98747447261E+03 -0.53955563894E+02  0.24846581519E+03  0.10227460436E+04  0.79102284959E+02 0.  0.
         13    1    3    3    0    0  0.75926449511E+02  0.28571211160E+02  0.28261283446E+03  0.29402577106E+03  0.00000000000E+00 0.  1.
        -13    1    3    3    0    0  0.73765682547E+03  0.10814054419E+03  0.19447834870E+04  0.20827901433E+04  0.00000000000E+00 0. -1.
          2    1    6    6  502    0 -0.29422372192E+03  0.10185545681E+02  0.48341052790E+02  0.29834242284E+03  0.00000000000E+00 0. -1.
          3    1    5    5  503    0  0.81198784472E+02 -0.72315339897E+02  0.57613550551E+02  0.12305312752E+03  0.00000000000E+00 0. -1.
         -4    1    5    5    0  503  0.92692413161E+02 -0.10440851564E+02  0.10907134343E+03  0.14351812707E+03  0.00000000000E+00 0.  1.
         -1    1    6    6    0  502 -0.69325075070E+03 -0.64141109575E+02  0.20012476240E+03  0.72440362078E+03  0.00000000000E+00 0.  1.
<mgrwt>
<rscale>  0 0.25411568E+04</rscale>
<asrwt>0</asrwt>
<pdfrwt beam="1">  1        1 0.48528308E+00 0.25411568E+04</pdfrwt>
<pdfrwt beam="2">  1       -1 0.78737401E-01 0.25411568E+04</pdfrwt>
<totfact> 0.65693520E-01</totfact>
</mgrwt>
</event>
<event>
12    1  0.1755460E-007  0.1217118E+04  0.7818608E-02  0.9098003E-01
          2   -1    0    0  501    0  0.00000000000E+00  0.00000000000E+00  0.31445854237E+04  0.31445854237E+04  0.00000000000E+00 0. -1.
         -2   -1    0    0    0  501 -0.00000000000E+00 -0.00000000000E+00 -0.11777207798E+03  0.11777207798E+03  0.00000000000E+00 0.  1.
         23    2    1    2    0    0 -0.76571004477E+01  0.44796452893E+00 -0.11951306112E+02  0.92183997356E+02  0.91083608796E+02 0.  0.
        254    2    1    2    0    0  0.76571004477E+01 -0.44796452893E+00  0.30387646518E+04  0.31701735043E+04  0.90324448871E+03 0.  0.
        -24    2    4    4    0    0  0.27134417900E+02  0.44170964987E+03  0.13734752073E+04  0.14452891037E+04  0.81134189668E+02 0.  0.
         24    2    4    4    0    0 -0.19477317452E+02 -0.44215761440E+03  0.16652894445E+04  0.17248844006E+04  0.78450873941E+02 0.  0.
         11    1    3    3    0    0 -0.47917251453E+01  0.34008993300E+02 -0.36792439072E+02  0.50331459625E+02  0.00000000000E+00 0.  1.
        -11    1    3    3    0    0 -0.28653753024E+01 -0.33561028771E+02  0.24841132960E+02  0.41852537731E+02  0.00000000000E+00 0. -1.
          4    1    6    6  502    0 -0.49833538081E+01 -0.40309196133E+03  0.15691278955E+04  0.16200834286E+04  0.00000000000E+00 0. -1.
          1    1    5    5  503    0  0.21938664421E+02  0.31464713331E+03  0.10874394352E+04  0.11322582076E+04  0.00000000000E+00 0. -1.
         -2    1    5    5    0  503  0.51957534788E+01  0.12706251656E+03  0.28603577212E+03  0.31303089608E+03  0.00000000000E+00 0.  1.
         -3    1    6    6    0  502 -0.14493963644E+02 -0.39065653069E+02  0.96161548924E+02  0.10480097196E+03  0.00000000000E+00 0.  1.
<mgrwt>
<rscale>  0 0.12171185E+04</rscale>
<asrwt>0</asrwt>
<pdfrwt beam="1">  1        2 0.48378231E+00 0.12171185E+04</pdfrwt>
<pdfrwt beam="2">  1       -2 0.18118784E-01 0.12171185E+04</pdfrwt>
<totfact> 0.35867486E+01</totfact>
</mgrwt>
</event>
<event>
12    1  0.1755460E-007  0.3277316E+04  0.7818608E-02  0.8168691E-01
         -2   -1    0    0    0  501 -0.00000000000E+00  0.00000000000E+00  0.10738687813E+04  0.10738687813E+04  0.00000000000E+00 0. -1.
          2   -1    0    0  501    0  0.00000000000E+00 -0.00000000000E+00 -0.25004918403E+04  0.25004918403E+04  0.00000000000E+00 0.  1.
         23    2    1    2    0    0  0.75390200739E+03  0.10475290988E+03  0.76697917961E+03  0.10844475812E+04  0.91804605387E+02 0.  0.
        254    2    1    2    0    0 -0.75390200739E+03 -0.10475290988E+03 -0.21936022386E+04  0.24899130403E+04  0.89913000084E+03 0.  0.
        -24    2    4    4    0    0 -0.62271803064E+03  0.21547052558E+03 -0.19471724482E+04  0.20572152753E+04  0.80304750673E+02 0.  0.
         24    2    4    4    0    0 -0.13118397675E+03 -0.32022343546E+03 -0.24642979042E+03  0.43269776502E+03  0.82142740879E+02 0.  0.
         13    1    3    3    0    0  0.11198691428E+03  0.45032885601E+02  0.99032770261E+02  0.15612981567E+03  0.00000000000E+00 0.  1.
        -13    1    3    3    0    0  0.64191509311E+03  0.59720024275E+02  0.66794640935E+03  0.92831776554E+03  0.00000000000E+00 0. -1.
          2    1    6    6  502    0 -0.10685516668E+03 -0.25468424382E+03 -0.23335786723E+03  0.36157708016E+03  0.00000000000E+00 0. -1.
          1    1    5    5  503    0 -0.43083682637E+03  0.18130579076E+03 -0.13096475276E+04  0.13905642046E+04  0.00000000000E+00 0. -1.
         -2    1    5    5    0  503 -0.19188120426E+03  0.34164734817E+02 -0.63752492057E+03  0.66665107065E+03  0.00000000000E+00 0.  1.
         -1    1    6    6    0  502 -0.24328810073E+02 -0.65539191638E+02 -0.13071923185E+02  0.71120684867E+02  0.00000000000E+00 0.  1.
<mgrwt>
<rscale>  0 0.32773161E+04</rscale>
<asrwt>0</asrwt>
<pdfrwt beam="1">  1        2 0.38469104E+00 0.32773161E+04</pdfrwt>
<pdfrwt beam="2">  1       -2 0.16521058E+00 0.32773161E+04</pdfrwt>
<totfact> 0.67144520E-01</totfact>
</mgrwt>
</event>
<event>
12    1  0.1755460E-007  0.1230312E+04  0.7818608E-02  0.9086731E-01
          2   -1    0    0  501    0  0.00000000000E+00  0.00000000000E+00  0.39914174143E+03  0.39914174143E+03  0.00000000000E+00 0. -1.
         -2   -1    0    0    0  501 -0.00000000000E+00 -0.00000000000E+00 -0.94807658370E+03  0.94807658370E+03  0.00000000000E+00 0.  1.
         23    2    1    2    0    0  0.10124367513E+03 -0.18545170334E+02 -0.41060153258E+03  0.43341247535E+03  0.93051330642E+02 0.  0.
        254    2    1    2    0    0 -0.10124367513E+03  0.18545170334E+02 -0.13833330970E+03  0.91380584978E+03  0.89739111954E+03 0.  0.
        -24    2    4    4    0    0  0.23776737423E+03 -0.13999530370E+03 -0.36866137728E+03  0.46710495770E+03  0.78382530606E+02 0.  0.
         24    2    4    4    0    0 -0.33901104936E+03  0.15854047404E+03  0.23032806758E+03  0.44670089208E+03  0.80169163463E+02 0.  0.
         11    1    3    3    0    0  0.11004658504E+03  0.74151304939E+01 -0.34831089620E+03  0.36535696989E+03  0.00000000000E+00 0.  1.
        -11    1    3    3    0    0 -0.88029099103E+01 -0.25960300828E+02 -0.62290636381E+02  0.68055505455E+02  0.00000000000E+00 0. -1.
          4    1    6    6  502    0 -0.31392002769E+03  0.12640304047E+03  0.18479477056E+03  0.38558088600E+03  0.00000000000E+00 0. -1.
          1    1    5    5  503    0  0.21134944126E+03 -0.14845232183E+03 -0.34257393883E+03  0.42902631824E+03  0.00000000000E+00 0. -1.
         -2    1    5    5    0  503  0.26417932973E+02  0.84570181324E+01 -0.26087438446E+02  0.38078639458E+02  0.00000000000E+00 0.  1.
         -3    1    6    6    0  502 -0.25091021672E+02  0.32137433570E+02  0.45533297023E+02  0.61120006077E+02  0.00000000000E+00 0.  1.
<mgrwt>
<rscale>  0 0.12303121E+04</rscale>
<asrwt>0</asrwt>
<pdfrwt beam="1">  1        2 0.61406422E-01 0.12303121E+04</pdfrwt>
<pdfrwt beam="2">  1       -2 0.14585793E+00 0.12303121E+04</pdfrwt>
<totfact> 0.25301867E+01</totfact>
</mgrwt>
</event>
<event>
12    1  0.1755460E-007  0.1550128E+04  0.7818608E-02  0.8851786E-01
         -1   -1    0    0    0  501 -0.00000000000E+00  0.00000000000E+00  0.42814069118E+03  0.42814069118E+03  0.00000000000E+00 0.  1.
          1   -1    0    0  501    0  0.00000000000E+00 -0.00000000000E+00 -0.14031001801E+04  0.14031001801E+04  0.00000000000E+00 0. -1.
         23    2    1    2    0    0 -0.10353922439E+03 -0.40745206361E+03  0.22008462214E+02  0.42535437166E+03  0.60863896931E+02 0.  0.
        254    2    1    2    0    0  0.10353922439E+03  0.40745206361E+03 -0.99696795111E+03  0.14058864996E+04  0.89768268287E+03 0.  0.
        -24    2    4    4    0    0 -0.36632959559E+03  0.12038768656E+03 -0.22535180303E+03  0.45380220901E+03  0.80389315805E+02 0.  0.
         24    2    4    4    0    0  0.46986881998E+03  0.28706437705E+03 -0.77161614808E+03  0.95208429060E+03  0.88827652544E+02 0.  0.
         11    1    3    3    0    0 -0.10522077818E+03 -0.37711829244E+03  0.33317884207E+02  0.39293727243E+03  0.00000000000E+00 0.  1.
        -11    1    3    3    0    0  0.16815537920E+01 -0.30333771173E+02 -0.11309421994E+02  0.32417099231E+02  0.00000000000E+00 0. -1.
          4    1    6    6  502    0  0.42350325192E+03  0.25983893054E+03 -0.73442106561E+03  0.88670489782E+03  0.00000000000E+00 0. -1.
          3    1    5    5  503    0 -0.16453284971E+03  0.80034052641E+02 -0.14269493258E+03  0.23203092897E+03  0.00000000000E+00 0. -1.
         -4    1    5    5    0  503 -0.20179674588E+03  0.40353633917E+02 -0.82656870450E+02  0.22177128004E+03  0.00000000000E+00 0.  1.
         -3    1    6    6    0  502  0.46365568062E+02  0.27225446510E+02 -0.37195082474E+02  0.65379392775E+02  0.00000000000E+00 0.  1.
<mgrwt>
<rscale>  0 0.15501281E+04</rscale>
<asrwt>0</asrwt>
<pdfrwt beam="1">  1        1 0.21586157E+00 0.15501281E+04</pdfrwt>
<pdfrwt beam="2">  1       -1 0.65867798E-01 0.15501281E+04</pdfrwt>
<totfact> 0.17204829E+01</totfact>
</mgrwt>
</event>
<event>
12    1  0.1755460E-007  0.2954103E+04  0.7818608E-02  0.8256960E-01
          2   -1    0    0  501    0  0.00000000000E+00  0.00000000000E+00  0.31552679104E+04  0.31552679104E+04  0.00000000000E+00 0. -1.
         -2   -1    0    0    0  501 -0.00000000000E+00 -0.00000000000E+00 -0.69144063226E+03  0.69144063226E+03  0.00000000000E+00 0.  1.
         23    2    1    2    0    0  0.52487699914E+03 -0.20218535798E+02 -0.48513764257E+03  0.72058456559E+03  0.89324859464E+02 0.  0.
        254    2    1    2    0    0 -0.52487699914E+03  0.20218535798E+02  0.29489649208E+04  0.31261239771E+04  0.89462414625E+03 0.  0.
        -24    2    4    4    0    0 -0.76518047439E+03  0.11340676902E+02  0.24199455099E+04  0.25392982462E+04  0.79180448064E+02 0.  0.
         24    2    4    4    0    0  0.24030347526E+03  0.88778588964E+01  0.52901941090E+03  0.58682573087E+03  0.81721017537E+02 0.  0.
         11    1    3    3    0    0  0.51732516365E+03 -0.31202152622E+02 -0.47968031961E+03  0.70618135652E+03  0.00000000000E+00 0.  1.
        -11    1    3    3    0    0  0.75518354857E+01  0.10983616824E+02 -0.54573229660E+01  0.14403209076E+02  0.00000000000E+00 0. -1.
          2    1    6    6  502    0  0.19544531471E+03 -0.10821429797E+02  0.34779555904E+03  0.39909613537E+03  0.00000000000E+00 0. -1.
          1    1    5    5  503    0 -0.72555904648E+03  0.21199852075E+02  0.22356976394E+04  0.23505806301E+04  0.00000000000E+00 0. -1.
         -2    1    5    5    0  503 -0.39621427912E+02 -0.98591751729E+01  0.18424787048E+03  0.18871761619E+03  0.00000000000E+00 0.  1.
         -1    1    6    6    0  502  0.44858160551E+02  0.19699288693E+02  0.18122385186E+03  0.18772959550E+03  0.00000000000E+00 0.  1.
<mgrwt>
<rscale>  0 0.29541025E+04</rscale>
<asrwt>0</asrwt>
<pdfrwt beam="1">  1        2 0.48542582E+00 0.29541025E+04</pdfrwt>
<pdfrwt beam="2">  1       -2 0.10637548E+00 0.29541025E+04</pdfrwt>
<totfact> 0.84823522E-01</totfact>
</mgrwt>
</event>
<event>
12    1  0.1755460E-007  0.1189663E+04  0.7818608E-02  0.9121953E-01
          2   -1    0    0  501    0  0.00000000000E+00  0.00000000000E+00  0.22969583689E+04  0.22969583689E+04  0.00000000000E+00 0. -1.
         -2   -1    0    0    0  501 -0.00000000000E+00 -0.00000000000E+00 -0.15404042985E+03  0.15404042985E+03  0.00000000000E+00 0.  1.
         23    2    1    2    0    0  0.48883303647E+02  0.18024465808E+03  0.18189783224E+03  0.27607548075E+03  0.90846769649E+02 0.  0.
        254    2    1    2    0    0 -0.48883303647E+02 -0.18024465808E+03  0.19610201068E+04  0.21749233180E+04  0.92185349473E+03 0.  0.
        -24    2    4    4    0    0 -0.16962269593E+03 -0.28554836908E+03  0.18243204154E+03  0.38731537485E+03  0.80137505300E+02 0.  0.
         24    2    4    4    0    0  0.12073939228E+03  0.10530371100E+03  0.17785880652E+04  0.17876079431E+04  0.80621213944E+02 0.  0.
         13    1    3    3    0    0 -0.64306868609E+01  0.70578196260E+00  0.40317943826E+02  0.40833668167E+02  0.00000000000E+00 0.  1.
        -13    1    3    3    0    0  0.55313990508E+02  0.17953887612E+03  0.14157988841E+03  0.23524181258E+03  0.00000000000E+00 0. -1.
          4    1    6    6  502    0  0.58831455974E+02  0.14999524362E+02  0.93101205602E+03  0.93298958965E+03  0.00000000000E+00 0. -1.
          3    1    5    5  503    0 -0.17206893393E+03 -0.24676686254E+03  0.17407509563E+03  0.34756832622E+03  0.00000000000E+00 0. -1.
         -4    1    5    5    0  503  0.24462380037E+01 -0.38781506536E+02  0.83569459099E+01  0.39747048627E+02  0.00000000000E+00 0.  1.
         -3    1    6    6    0  502  0.61907936309E+02  0.90304186633E+02  0.84757600922E+03  0.85461835348E+03  0.00000000000E+00 0.  1.
<mgrwt>
<rscale>  0 0.11896629E+04</rscale>
<asrwt>0</asrwt>
<pdfrwt beam="1">  1        2 0.35337818E+00 0.11896629E+04</pdfrwt>
<pdfrwt beam="2">  1       -2 0.23698529E-01 0.11896629E+04</pdfrwt>
<totfact> 0.71314853E+01</totfact>
</mgrwt>
</event>
<event>
12    1  0.1755460E-007  0.1788274E+04  0.7818608E-02  0.8712560E-01
         -1   -1    0    0    0  501 -0.00000000000E+00  0.00000000000E+00  0.46514821292E+03  0.46514821292E+03  0.00000000000E+00 0.  1.
          1   -1    0    0  501    0  0.00000000000E+00 -0.00000000000E+00 -0.17187657870E+04  0.17187657870E+04  0.00000000000E+00 0. -1.
         23    2    1    2    0    0 -0.64695066082E+03  0.82067239438E+02 -0.59649597106E+03  0.88844245555E+03  0.90787466210E+02 0.  0.
        254    2    1    2    0    0  0.64695066082E+03 -0.82067239438E+02 -0.65712160303E+03  0.12954715444E+04  0.90617742844E+03 0.  0.
        -24    2    4    4    0    0  0.25420125923E+03  0.31889190073E+03 -0.59285289842E+03  0.72419552121E+03  0.81696200859E+02 0.  0.
         24    2    4    4    0    0  0.39274940158E+03 -0.40095914016E+03 -0.64268704603E+02  0.57127602317E+03  0.84885238585E+02 0.  0.
         11    1    3    3    0    0 -0.55141444700E+02  0.14741519267E+02 -0.90032952844E+02  0.10660123785E+03  0.00000000000E+00 0.  1.
        -11    1    3    3    0    0 -0.59180921612E+03  0.67325720171E+02 -0.50646301822E+03  0.78184121770E+03  0.00000000000E+00 0. -1.
          2    1    6    6  502    0  0.54263629434E+02 -0.41668969062E+02  0.18240336277E+02  0.70806456835E+02  0.00000000000E+00 0. -1.
          3    1    5    5  503    0  0.17126589324E+03  0.14984027440E+03 -0.33017961028E+03  0.40100210606E+03  0.00000000000E+00 0. -1.
         -4    1    5    5    0  503  0.82935365989E+02  0.16905162632E+03 -0.26267328815E+03  0.32319341515E+03  0.00000000000E+00 0.  1.
         -1    1    6    6    0  502  0.33848577215E+03 -0.35929017110E+03 -0.82509040880E+02  0.50046956633E+03  0.00000000000E+00 0.  1.
<mgrwt>
<rscale>  0 0.17882738E+04</rscale>
<asrwt>0</asrwt>
<pdfrwt beam="1">  1        1 0.26442551E+00 0.17882738E+04</pdfrwt>
<pdfrwt beam="2">  1       -1 0.71561263E-01 0.17882738E+04</pdfrwt>
<totfact> 0.86164394E+00</totfact>
</mgrwt>
</event>
<event>
12    1  0.1755460E-007  0.1347749E+04  0.7818608E-02  0.8992534E-01
          2   -1    0    0  501    0  0.00000000000E+00  0.00000000000E+00  0.88287820174E+03  0.88287820174E+03  0.00000000000E+00 0. -1.
         -2   -1    0    0    0  501 -0.00000000000E+00 -0.00000000000E+00 -0.51434815834E+03  0.51434815834E+03  0.00000000000E+00 0.  1.
         23    2    1    2    0    0 -0.15023172272E+03 -0.99726916871E+02  0.44783048362E+03  0.49122533453E+03  0.90747775501E+02 0.  0.
        254    2    1    2    0    0  0.15023172272E+03  0.99726916871E+02 -0.79300440215E+02  0.90600102555E+03  0.88432701532E+03 0.  0.
        -24    2    4    4    0    0 -0.12153012835E+03 -0.33516441282E+03 -0.12114183738E+03  0.38526497744E+03  0.81541415005E+02 0.  0.
         24    2    4    4    0    0  0.27176185108E+03  0.43489132969E+03  0.41841397161E+02  0.52073604811E+03  0.80189506434E+02 0.  0.
         11    1    3    3    0    0 -0.12864203403E+03 -0.43345793903E+02  0.25117255376E+03  0.28550881340E+03  0.00000000000E+00 0. -1.
        -11    1    3    3    0    0 -0.21589688690E+02 -0.56381122968E+02  0.19665792987E+03  0.20571652113E+03  0.00000000000E+00 0.  1.
          2    1    6    6  502    0  0.17008473357E+03  0.33886661486E+03  0.27600214381E+02  0.38015940222E+03  0.00000000000E+00 0. -1.
          1    1    5    5  503    0 -0.73040210497E+02 -0.16472241269E+03 -0.10192817265E+03  0.20702100853E+03  0.00000000000E+00 0. -1.
         -2    1    5    5    0  503 -0.48489917856E+02 -0.17044200013E+03 -0.19213664728E+02  0.17824396892E+03  0.00000000000E+00 0.  1.
         -1    1    6    6    0  502  0.10167711751E+03  0.96024714829E+02  0.14241182780E+02  0.14057664589E+03  0.00000000000E+00 0.  1.
<mgrwt>
<rscale>  0 0.13477489E+04</rscale>
<asrwt>0</asrwt>
<pdfrwt beam="1">  1        2 0.13582742E+00 0.13477489E+04</pdfrwt>
<pdfrwt beam="2">  1       -2 0.79130486E-01 0.13477489E+04</pdfrwt>
<totfact> 0.41700248E+01</totfact>
</mgrwt>
</event>
<event>
12    1  0.1755460E-007  0.1226564E+04  0.7818608E-02  0.9089917E-01
         -2   -1    0    0    0  501 -0.00000000000E+00  0.00000000000E+00  0.12549836119E+04  0.12549836119E+04  0.00000000000E+00 0. -1.
          2   -1    0    0  501    0  0.00000000000E+00 -0.00000000000E+00 -0.29969718252E+03  0.29969718252E+03  0.00000000000E+00 0.  1.
         23    2    1    2    0    0 -0.67361055312E+01  0.25780805179E+03  0.11663565715E+03  0.29741549708E+03  0.91333097506E+02 0.  0.
        254    2    1    2    0    0  0.67361055312E+01 -0.25780805179E+03  0.83865077222E+03  0.12572652973E+04  0.90048350536E+03 0.  0.
        -24    2    4    4    0    0  0.42731080784E+03 -0.82844968698E+00  0.33645178209E+03  0.54891411052E+03  0.74240731589E+02 0.  0.
         24    2    4    4    0    0 -0.42057470231E+03 -0.25697960211E+03  0.50219899013E+03  0.70835118681E+03  0.81461537195E+02 0.  0.
         13    1    3    3    0    0  0.38889425849E+01  0.21993886297E+03  0.13043059688E+03  0.25573495640E+03  0.00000000000E+00 0. -1.
        -13    1    3    3    0    0 -0.10625048116E+02  0.37869188821E+02 -0.13794939739E+02  0.41680540685E+02  0.00000000000E+00 0.  1.
          4    1    6    6  502    0 -0.18179311944E+03 -0.65632330698E+02  0.20620475664E+03  0.28262473843E+03  0.00000000000E+00 0. -1.
          3    1    5    5  503    0  0.38110922199E+03  0.20135607012E+02  0.31009904776E+03  0.49174292184E+03  0.00000000000E+00 0. -1.
         -4    1    5    5    0  503  0.46201585848E+02 -0.20964056699E+02  0.26352734331E+02  0.57171188678E+02  0.00000000000E+00 0.  1.
         -3    1    6    6    0  502 -0.23878158287E+03 -0.19134727141E+03  0.29599423349E+03  0.42572644838E+03  0.00000000000E+00 0.  1.
<mgrwt>
<rscale>  0 0.12265644E+04</rscale>
<asrwt>0</asrwt>
<pdfrwt beam="1">  1        2 0.46107260E-01 0.12265644E+04</pdfrwt>
<pdfrwt beam="2">  1       -2 0.19307440E+00 0.12265644E+04</pdfrwt>
<totfact> 0.15990845E+01</totfact>
</mgrwt>
</event>
<event>
12    1  0.1755460E-007  0.2588836E+04  0.7818608E-02  0.8372003E-01
          1   -1    0    0  501    0  0.00000000000E+00  0.00000000000E+00  0.24699717690E+04  0.24699717690E+04  0.00000000000E+00 0. -1.
         -1   -1    0    0    0  501 -0.00000000000E+00 -0.00000000000E+00 -0.67835514844E+03  0.67835514844E+03  0.00000000000E+00 0.  1.
         23    2    1    2    0    0  0.70063284573E+01 -0.56462424468E+03  0.19891635467E+04  0.20697966966E+04  0.91853814738E+02 0.  0.
        254    2    1    2    0    0 -0.70063284573E+01  0.56462424468E+03 -0.19754692612E+03  0.10785302209E+04  0.89741463275E+03 0.  0.
        -24    2    4    4    0    0 -0.33573217458E+03  0.60832979146E+03 -0.31980398650E+02  0.69983088303E+03  0.77196442427E+02 0.  0.
         24    2    4    4    0    0  0.32872584613E+03 -0.43705546776E+02 -0.16556652747E+03  0.37869933787E+03  0.77653440081E+02 0.  0.
         11    1    3    3    0    0  0.13359337174E+02 -0.10724001267E+03  0.51827190565E+03  0.52941917268E+03  0.00000000000E+00 0.  1.
        -11    1    3    3    0    0 -0.63530087169E+01 -0.45738423200E+03  0.14708916411E+04  0.15403775239E+04  0.00000000000E+00 0. -1.
          4    1    6    6  502    0  0.17869524339E+03 -0.68028635909E+01 -0.12736204901E+03  0.21954352755E+03  0.00000000000E+00 0. -1.
          1    1    5    5  503    0 -0.29902769891E+03  0.49664313631E+03 -0.76040790713E+01  0.57976701490E+03  0.00000000000E+00 0. -1.
         -2    1    5    5    0  503 -0.36704475677E+02  0.11168665515E+03 -0.24376319579E+02  0.12006386813E+03  0.00000000000E+00 0.  1.
         -3    1    6    6    0  502  0.15003060274E+03 -0.36902683185E+02 -0.38204478461E+02  0.15915581032E+03  0.00000000000E+00 0.  1.
<mgrwt>
<rscale>  0 0.25888361E+04</rscale>
<asrwt>0</asrwt>
<pdfrwt beam="1">  1        1 0.37999565E+00 0.25888361E+04</pdfrwt>
<pdfrwt beam="2">  1       -1 0.10436233E+00 0.25888361E+04</pdfrwt>
<totfact> 0.10815950E+00</totfact>
</mgrwt>
</event>
<event>
12    1  0.1755460E-007  0.2112257E+04  0.7818608E-02  0.8555863E-01
          2   -1    0    0  501    0  0.00000000000E+00  0.00000000000E+00  0.99284945374E+03  0.99284945374E+03  0.00000000000E+00 0.  1.
         -2   -1    0    0    0  501 -0.00000000000E+00 -0.00000000000E+00 -0.11234408617E+04  0.11234408617E+04  0.00000000000E+00 0. -1.
         23    2    1    2    0    0 -0.16964625189E+03  0.42086499887E+03 -0.78903356290E+03  0.91486927386E+03  0.92220533524E+02 0.  0.
        254    2    1    2    0    0  0.16964625189E+03 -0.42086499887E+03  0.65844215493E+03  0.12014210416E+04  0.89663774724E+03 0.  0.
        -24    2    4    4    0    0  0.37692245389E+03  0.11023050212E+03  0.41410488302E+03  0.57613087125E+03  0.78883628294E+02 0.  0.
         24    2    4    4    0    0 -0.20727620200E+03 -0.53109550099E+03  0.24433727191E+03  0.62529017036E+03  0.79127995173E+02 0.  0.
         11    1    3    3    0    0 -0.11480828037E+03  0.33805252346E+03 -0.54644035365E+03  0.65273080972E+03  0.00000000000E+00 0. -1.
        -11    1    3    3    0    0 -0.54837971522E+02  0.82812475407E+02 -0.24259320925E+03  0.26213846413E+03  0.00000000000E+00 0.  1.
          2    1    6    6  502    0 -0.36773096549E+01 -0.50863565088E+02  0.45298038491E+01  0.51197109124E+02  0.00000000000E+00 0. -1.
          3    1    5    5  503    0  0.25639078852E+02  0.98799388352E+01  0.66059659098E+02  0.71546167723E+02  0.00000000000E+00 0. -1.
         -2    1    5    5    0  503  0.35128337504E+03  0.10035056328E+03  0.34804522392E+03  0.50458470352E+03  0.00000000000E+00 0.  1.
         -1    1    6    6    0  502 -0.20359889235E+03 -0.48023193590E+03  0.23980746806E+03  0.57409306124E+03  0.00000000000E+00 0.  1.
<mgrwt>
<rscale>  0 0.21122572E+04</rscale>
<asrwt>0</asrwt>
<pdfrwt beam="1">  1        2 0.15274607E+00 0.21122572E+04</pdfrwt>
<pdfrwt beam="2">  1       -2 0.17283705E+00 0.21122572E+04</pdfrwt>
<totfact> 0.47682338E+00</totfact>
</mgrwt>
</event>
<event>
12    1  0.1755460E-007  0.1308029E+04  0.7818608E-02  0.9023222E-01
         -2   -1    0    0    0  501 -0.00000000000E+00  0.00000000000E+00  0.14973523017E+04  0.14973523017E+04  0.00000000000E+00 0.  1.
          2   -1    0    0  501    0  0.00000000000E+00 -0.00000000000E+00 -0.28566082218E+03  0.28566082218E+03  0.00000000000E+00 0. -1.
         23    2    1    2    0    0 -0.14202255714E+03 -0.42931595125E+02 -0.69730056243E+02  0.18773043185E+03  0.91470791528E+02 0.  0.
        254    2    1    2    0    0  0.14202255714E+03  0.42931595125E+02  0.12814215358E+04  0.15952826920E+04  0.93854791382E+03 0.  0.
        -24    2    4    4    0    0 -0.95725841979E+02  0.17304818970E+03  0.12944998311E+04  0.13119678673E+04  0.80129640659E+02 0.  0.
         24    2    4    4    0    0  0.23774839912E+03 -0.13011659458E+03 -0.13078295298E+02  0.28331482476E+03  0.81496126622E+02 0.  0.
         11    1    3    3    0    0  0.97756717970E+01 -0.17212304131E+02 -0.33829387494E+01  0.20081619635E+02  0.00000000000E+00 0.  1.
        -11    1    3    3    0    0 -0.15179822894E+03 -0.25719290993E+02 -0.66347117494E+02  0.16764881222E+03  0.00000000000E+00 0. -1.
          2    1    6    6  502    0  0.15674260766E+03 -0.58727465281E+02  0.24121695217E+02  0.16911243719E+03  0.00000000000E+00 0. -1.
          3    1    5    5  503    0 -0.78083869966E+02  0.69568034553E+02  0.52242776294E+03  0.53279223875E+03  0.00000000000E+00 0. -1.
         -4    1    5    5    0  503 -0.17641972013E+02  0.10348015515E+03  0.77207206812E+03  0.77917562850E+03  0.00000000000E+00 0.  1.
         -1    1    6    6    0  502  0.81005791462E+02 -0.71389129299E+02 -0.37199990515E+02  0.11420238757E+03  0.00000000000E+00 0.  1.
<mgrwt>
<rscale>  0 0.13080289E+04</rscale>
<asrwt>0</asrwt>
<pdfrwt beam="1">  1        2 0.43947820E-01 0.13080289E+04</pdfrwt>
<pdfrwt beam="2">  1       -2 0.23036189E+00 0.13080289E+04</pdfrwt>
<totfact> 0.96662028E+00</totfact>
</mgrwt>
</event>
<event>
12    1  0.1755460E-007  0.2194787E+04  0.7818608E-02  0.8520601E-01
         -2   -1    0    0    0  501 -0.00000000000E+00  0.00000000000E+00  0.49805930111E+03  0.49805930111E+03  0.00000000000E+00 0.  1.
          2   -1    0    0  501    0  0.00000000000E+00 -0.00000000000E+00 -0.24179291338E+04  0.24179291338E+04  0.00000000000E+00 0. -1.
         23    2    1    2    0    0 -0.22914791096E+03 -0.87061408136E+03 -0.87425573890E+03  0.12595193022E+04  0.10764818515E+03 0.  0.
        254    2    1    2    0    0  0.22914791096E+03  0.87061408136E+03 -0.10456140938E+04  0.16564691328E+04  0.91657160708E+03 0.  0.
        -24    2    4    4    0    0 -0.13185704635E+03  0.82627142004E+03 -0.44773870631E+03  0.95228072308E+03  0.79106802419E+02 0.  0.
         24    2    4    4    0    0  0.36100495731E+03  0.44342661320E+02 -0.59787538753E+03  0.70418840970E+03  0.78329346562E+02 0.  0.
         11    1    3    3    0    0 -0.59187072257E+01 -0.17403973817E+03 -0.19285884134E+03  0.25984494269E+03  0.00000000000E+00 0.  1.
        -11    1    3    3    0    0 -0.22322920374E+03 -0.69657434319E+03 -0.68139689756E+03  0.99967435948E+03  0.00000000000E+00 0. -1.
          2    1    6    6  502    0  0.12531706645E+03 -0.96760469575E+01 -0.25904814284E+03  0.28793043142E+03  0.00000000000E+00 0. -1.
          1    1    5    5  503    0  0.37329124725E+01  0.20340565554E+01 -0.60041797646E+01  0.73567789312E+01  0.00000000000E+00 0. -1.
         -2    1    5    5    0  503 -0.13558995882E+03  0.82423736348E+03 -0.44173452654E+03  0.94492394415E+03  0.00000000000E+00 0.  1.
         -1    1    6    6    0  502  0.23568789086E+03  0.54018708278E+02 -0.33882724469E+03  0.41625797828E+03  0.00000000000E+00 0.  1.
<mgrwt>
<rscale>  0 0.21947866E+04</rscale>
<asrwt>0</asrwt>
<pdfrwt beam="1">  1        2 0.37198910E+00 0.21947866E+04</pdfrwt>
<pdfrwt beam="2">  1       -2 0.76624508E-01 0.21947866E+04</pdfrwt>
<totfact> 0.54051297E+00</totfact>
</mgrwt>
</event>
<event>
12    1  0.1755460E-007  0.1553603E+04  0.7818608E-02  0.8849569E-01
         -2   -1    0    0    0  501 -0.00000000000E+00  0.00000000000E+00  0.21668225914E+03  0.21668225914E+03  0.00000000000E+00 0. -1.
          2   -1    0    0  501    0  0.00000000000E+00 -0.00000000000E+00 -0.27848187735E+04  0.27848187735E+04  0.00000000000E+00 0.  1.
         23    2    1    2    0    0 -0.43569357788E+03 -0.21894180637E+03 -0.11592058569E+04  0.12608704171E+04  0.90948236140E+02 0.  0.
        254    2    1    2    0    0  0.43569357788E+03  0.21894180637E+03 -0.14089306575E+04  0.17406306156E+04  0.89830113761E+03 0.  0.
        -24    2    4    4    0    0  0.10083513949E+03  0.51788808799E+03 -0.53853241384E+03  0.75803206454E+03  0.78864777114E+02 0.  0.
         24    2    4    4    0    0  0.33485843839E+03 -0.29894628163E+03 -0.87039824364E+03  0.98259855102E+03  0.80048465745E+02 0.  0.
         13    1    3    3    0    0 -0.20607769084E+03 -0.11474684735E+03 -0.44818466102E+03  0.50646257908E+03  0.00000000000E+00 0. -1.
        -13    1    3    3    0    0 -0.22961588704E+03 -0.10419495901E+03 -0.71102119583E+03  0.75440783797E+03  0.00000000000E+00 0.  1.
          2    1    6    6  502    0 -0.32558870477E+01  0.14447639109E+01 -0.49792952443E+01  0.61222156410E+01  0.00000000000E+00 0. -1.
          1    1    5    5  503    0  0.12401572045E+02  0.50653360595E+02 -0.23992982959E+02  0.57404051774E+02  0.00000000000E+00 0. -1.
         -2    1    5    5    0  503  0.88433567447E+02  0.46723472740E+03 -0.51453943088E+03  0.70062801277E+03  0.00000000000E+00 0.  1.
         -1    1    6    6    0  502  0.33811432544E+03 -0.30039104554E+03 -0.86541894840E+03  0.97647633538E+03  0.00000000000E+00 0.  1.
<mgrwt>
<rscale>  0 0.15536033E+04</rscale>
<asrwt>0</asrwt>
<pdfrwt beam="1">  1        2 0.42843365E+00 0.15536033E+04</pdfrwt>
<pdfrwt beam="2">  1       -2 0.33335733E-01 0.15536033E+04</pdfrwt>
<totfact> 0.19194327E+01</totfact>
</mgrwt>
</event>
<event>
12    1  0.1755460E-007  0.2905893E+04  0.7818608E-02  0.8271126E-01
          1   -1    0    0  501    0  0.00000000000E+00  0.00000000000E+00  0.99374510077E+03  0.99374510077E+03  0.00000000000E+00 0. -1.
         -1   -1    0    0    0  501 -0.00000000000E+00 -0.00000000000E+00 -0.21243410993E+04  0.21243410993E+04  0.00000000000E+00 0.  1.
         23    2    1    2    0    0  0.10852291480E+03 -0.12990282310E+04 -0.37878448906E+03  0.13605053012E+04  0.90804280350E+02 0.  0.
        254    2    1    2    0    0 -0.10852291480E+03  0.12990282310E+04 -0.75181150950E+03  0.17575808989E+04  0.90808507435E+03 0.  0.
        -24    2    4    4    0    0 -0.17762139548E+03  0.77675614800E+03  0.41507742594E+02  0.80182142571E+03  0.79342500843E+02 0.  0.
         24    2    4    4    0    0  0.69098480680E+02  0.52227208304E+03 -0.79331925209E+03  0.95575947319E+03  0.81104907923E+02 0.  0.
         11    1    3    3    0    0  0.88013441780E+02 -0.61139968905E+03 -0.20677898680E+03  0.65139350249E+03  0.00000000000E+00 0. -1.
        -11    1    3    3    0    0  0.20509473021E+02 -0.68762854199E+03 -0.17200550225E+03  0.70911179870E+03  0.00000000000E+00 0.  1.
          2    1    6    6  502    0  0.65309910873E+02  0.25525152357E+03 -0.44031525170E+03  0.51312400609E+03  0.00000000000E+00 0. -1.
          1    1    5    5  503    0 -0.13924435215E+03  0.70825855736E+03  0.29742225331E+02  0.72242907863E+03  0.00000000000E+00 0. -1.
         -2    1    5    5    0  503 -0.38377043332E+02  0.68497590639E+02  0.11765517262E+02  0.79392347079E+02  0.00000000000E+00 0.  1.
         -1    1    6    6    0  502  0.37885698064E+01  0.26702055947E+03 -0.35300400039E+03  0.44263546710E+03  0.00000000000E+00 0.  1.
<mgrwt>
<rscale>  0 0.29058930E+04</rscale>
<asrwt>0</asrwt>
<pdfrwt beam="1">  1        1 0.15288386E+00 0.29058930E+04</pdfrwt>
<pdfrwt beam="2">  1       -1 0.32682170E+00 0.29058930E+04</pdfrwt>
<totfact> 0.28991612E-01</totfact>
</mgrwt>
</event>
<event>
12    1  0.1755460E-007  0.1784863E+04  0.7818608E-02  0.8714391E-01
          2   -1    0    0  501    0  0.00000000000E+00  0.00000000000E+00  0.13065027207E+04  0.13065027207E+04  0.00000000000E+00 0. -1.
         -2   -1    0    0    0  501 -0.00000000000E+00 -0.00000000000E+00 -0.60959245846E+03  0.60959245846E+03  0.00000000000E+00 0.  1.
         23    2    1    2    0    0 -0.30977618435E+02  0.40229368855E+02  0.95763406248E+03  0.96339701398E+03  0.92156356052E+02 0.  0.
        254    2    1    2    0    0  0.30977618435E+02 -0.40229368855E+02 -0.26072380023E+03  0.95269816519E+03  0.91492014897E+03 0.  0.
        -24    2    4    4    0    0  0.87340797414E+02 -0.43356991227E+03 -0.30950359889E+03  0.54566435523E+03  0.79660700024E+02 0.  0.
         24    2    4    4    0    0 -0.56363178979E+02  0.39334054341E+03  0.48779798659E+02  0.40703380996E+03  0.73508248893E+02 0.  0.
         11    1    3    3    0    0 -0.89890800411E+01 -0.16635981612E+02  0.62090994075E+03  0.62119780583E+03  0.00000000000E+00 0. -1.
        -11    1    3    3    0    0 -0.21988538394E+02  0.56865350466E+02  0.33672412173E+03  0.34219920815E+03  0.00000000000E+00 0.  1.
          2    1    6    6  502    0 -0.62158163270E+02  0.18848796688E+03  0.35914834618E+02  0.20169587567E+03  0.00000000000E+00 0. -1.
          3    1    5    5  503    0  0.95423951932E+02 -0.34053161450E+03 -0.22114441015E+03  0.41709994152E+03  0.00000000000E+00 0. -1.
         -4    1    5    5    0  503 -0.80831545178E+01 -0.93038297770E+02 -0.88359188731E+02  0.12856441371E+03  0.00000000000E+00 0.  1.
         -1    1    6    6    0  502  0.57949842903E+01  0.20485257654E+03  0.12864964041E+02  0.20533793429E+03  0.00000000000E+00 0.  1.
<mgrwt>
<rscale>  0 0.17848633E+04</rscale>
<asrwt>0</asrwt>
<pdfrwt beam="1">  1        2 0.20100042E+00 0.17848633E+04</pdfrwt>
<pdfrwt beam="2">  1       -2 0.93783456E-01 0.17848633E+04</pdfrwt>
<totfact> 0.14879691E+01</totfact>
</mgrwt>
</event>
<event>
12    1  0.1755460E-007  0.4784143E+04  0.7818608E-02  0.7862696E-01
          2   -1    0    0  501    0  0.00000000000E+00  0.00000000000E+00  0.23288105192E+04  0.23288105192E+04  0.00000000000E+00 0. -1.
         -2   -1    0    0    0  501 -0.00000000000E+00 -0.00000000000E+00 -0.24570507131E+04  0.24570507131E+04  0.00000000000E+00 0.  1.
         23    2    1    2    0    0 -0.52700835637E+02 -0.10749198208E+04  0.19792094403E+04  0.22546208127E+04  0.88402495260E+02 0.  0.
        254    2    1    2    0    0  0.52700835637E+02  0.10749198208E+04 -0.21074496343E+04  0.25312404196E+04  0.89866795938E+03 0.  0.
        -24    2    4    4    0    0  0.51762336155E+02  0.17085338635E+03 -0.13054877766E+04  0.13200364566E+04  0.79546796126E+02 0.  0.
         24    2    4    4    0    0  0.93849948220E+00  0.90406643449E+03 -0.80196185771E+03  0.12112039630E+04  0.80840707543E+02 0.  0.
         11    1    3    3    0    0 -0.34742587934E+02 -0.10109562766E+04  0.18223984845E+04  0.20843166450E+04  0.00000000000E+00 0. -1.
        -11    1    3    3    0    0 -0.17958247703E+02 -0.63963544273E+02  0.15681095587E+03  0.17030416771E+03  0.00000000000E+00 0.  1.
          2    1    6    6  502    0  0.21146490829E+02  0.14341263480E+03 -0.10149593546E+03  0.17696265937E+03  0.00000000000E+00 0. -1.
          1    1    5    5  503    0  0.38508581902E+02  0.15726935097E+03 -0.92416686929E+03  0.93824355150E+03  0.00000000000E+00 0. -1.
         -2    1    5    5    0  503  0.13253754253E+02  0.13584035389E+02 -0.38132090731E+03  0.38179290509E+03  0.00000000000E+00 0.  1.
         -1    1    6    6    0  502 -0.20207991347E+02  0.76065379969E+03 -0.70046592225E+03  0.10342413036E+04  0.00000000000E+00 0.  1.
<mgrwt>
<rscale>  0 0.47841428E+04</rscale>
<asrwt>0</asrwt>
<pdfrwt beam="1">  1        2 0.35827854E+00 0.47841428E+04</pdfrwt>
<pdfrwt beam="2">  1       -2 0.37800780E+00 0.47841428E+04</pdfrwt>
<totfact> 0.33351903E-02</totfact>
</mgrwt>
</event>
<event>
12    1  0.1755460E-007  0.1370712E+04  0.7818608E-02  0.8975296E-01
          1   -1    0    0  501    0  0.00000000000E+00  0.00000000000E+00  0.10803982952E+04  0.10803982952E+04  0.00000000000E+00 0. -1.
         -1   -1    0    0    0  501 -0.00000000000E+00 -0.00000000000E+00 -0.43475905189E+03  0.43475905189E+03  0.00000000000E+00 0.  1.
         23    2    1    2    0    0 -0.34567371006E+03  0.83514483704E+02  0.24875413340E+02  0.36815688586E+03  0.91955008564E+02 0.  0.
        254    2    1    2    0    0  0.34567371006E+03 -0.83514483704E+02  0.62076382992E+03  0.11470004612E+04  0.89654745697E+03 0.  0.
        -24    2    4    4    0    0  0.43488298811E+03  0.29155715574E+03  0.52042690917E+03  0.74243151769E+03  0.78940498209E+02 0.  0.
         24    2    4    4    0    0 -0.89209278049E+02 -0.37507163944E+03  0.10033692075E+03  0.40456894349E+03  0.70508881489E+02 0.  0.
         11    1    3    3    0    0 -0.33499149079E+03  0.69956273845E+02  0.40838503826E+02  0.34464614106E+03  0.00000000000E+00 0.  1.
        -11    1    3    3    0    0 -0.10682219270E+02  0.13558209859E+02 -0.15963090486E+02  0.23510744798E+02  0.00000000000E+00 0. -1.
          2    1    6    6  502    0 -0.99165771352E+02 -0.29485017462E+03  0.78319302210E+02  0.32078713936E+03  0.00000000000E+00 0. -1.
          3    1    5    5  503    0  0.12965579771E+03  0.45479887936E+02  0.13215129794E+03  0.19063843168E+03  0.00000000000E+00 0. -1.
         -4    1    5    5    0  503  0.30522719040E+03  0.24607726780E+03  0.38827561122E+03  0.55179308600E+03  0.00000000000E+00 0.  1.
         -1    1    6    6    0  502  0.99564933032E+01 -0.80221464826E+02  0.22017618542E+02  0.83781804135E+02  0.00000000000E+00 0.  1.
<mgrwt>
<rscale>  0 0.13707121E+04</rscale>
<asrwt>0</asrwt>
<pdfrwt beam="1">  1        1 0.16621512E+00 0.13707121E+04</pdfrwt>
<pdfrwt beam="2">  1       -1 0.66886008E-01 0.13707121E+04</pdfrwt>
<totfact> 0.29036052E+01</totfact>
</mgrwt>
</event>
<event>
12    1  0.1755460E-007  0.2484128E+04  0.7818608E-02  0.8408662E-01
          2   -1    0    0  501    0  0.00000000000E+00  0.00000000000E+00  0.56937131196E+03  0.56937131196E+03  0.00000000000E+00 0. -1.
         -2   -1    0    0    0  501 -0.00000000000E+00 -0.00000000000E+00 -0.27095199556E+04  0.27095199556E+04  0.00000000000E+00 0.  1.
         23    2    1    2    0    0  0.39757006355E+03  0.17070745625E+03  0.36490700450E+03  0.57311554420E+03  0.90007299816E+02 0.  0.
        254    2    1    2    0    0 -0.39757006355E+03 -0.17070745625E+03 -0.25050556481E+04  0.27057757234E+04  0.92666902065E+03 0.  0.
        -24    2    4    4    0    0 -0.28738017806E+03 -0.84154042354E+02 -0.14887794266E+03  0.34399432179E+03  0.80611302129E+02 0.  0.
         24    2    4    4    0    0 -0.11018988550E+03 -0.86553413894E+02 -0.23561777055E+04  0.23617814016E+04  0.82490633913E+02 0.  0.
         11    1    3    3    0    0  0.17618351241E+03  0.60021729543E+02  0.21229675922E+03  0.28233517676E+03  0.00000000000E+00 0.  1.
        -11    1    3    3    0    0  0.22138655114E+03  0.11068572671E+03  0.15261024528E+03  0.29078036744E+03  0.00000000000E+00 0. -1.
          4    1    6    6  502    0 -0.55456379055E+02  0.50232105410E+01 -0.74975158966E+03  0.75181652604E+03  0.00000000000E+00 0. -1.
          3    1    5    5  503    0 -0.14315441086E+03 -0.76090481677E+02 -0.52768505204E+02  0.17049182354E+03  0.00000000000E+00 0. -1.
         -4    1    5    5    0  503 -0.14422576720E+03 -0.80635606777E+01 -0.96109437452E+02  0.17350249826E+03  0.00000000000E+00 0.  1.
         -3    1    6    6    0  502 -0.54733506441E+02 -0.91576624435E+02 -0.16064261158E+04  0.16099648755E+04  0.00000000000E+00 0.  1.
<mgrwt>
<rscale>  0 0.24841280E+04</rscale>
<asrwt>0</asrwt>
<pdfrwt beam="1">  1        2 0.87595586E-01 0.24841280E+04</pdfrwt>
<pdfrwt beam="2">  1       -2 0.41684923E+00 0.24841280E+04</pdfrwt>
<totfact> 0.27139555E-01</totfact>
</mgrwt>
</event>
<event>
12    1  0.1755460E-007  0.2094504E+04  0.7818608E-02  0.8563668E-01
         -2   -1    0    0    0  501 -0.00000000000E+00  0.00000000000E+00  0.26859886110E+04  0.26859886110E+04  0.00000000000E+00 0.  1.
          2   -1    0    0  501    0  0.00000000000E+00 -0.00000000000E+00 -0.40831754727E+03  0.40831754727E+03  0.00000000000E+00 0. -1.
         23    2    1    2    0    0  0.17410463077E+03  0.56392056055E+03  0.30316214461E+02  0.59825877405E+03  0.93143259558E+02 0.  0.
        254    2    1    2    0    0 -0.17410463077E+03 -0.56392056055E+03  0.22473548493E+04  0.24960473842E+04  0.91177294582E+03 0.  0.
        -24    2    4    4    0    0  0.17295614090E+03 -0.28425806668E+03  0.18844203125E+04  0.19152494925E+04  0.80151288951E+02 0.  0.
         24    2    4    4    0    0 -0.34706077167E+03 -0.27966249387E+03  0.36293453672E+03  0.58079789171E+03  0.83321205955E+02 0.  0.
         13    1    3    3    0    0  0.14152049046E+02  0.31059195417E+02 -0.20130571009E+02  0.39625673512E+02  0.00000000000E+00 0.  1.
        -13    1    3    3    0    0  0.15995258172E+03  0.53286136513E+03  0.50446785469E+02  0.55863310053E+03  0.00000000000E+00 0. -1.
          2    1    6    6  502    0 -0.23877099195E+02 -0.12775366774E+02  0.11322593281E+01  0.27103650554E+02  0.00000000000E+00 0. -1.
          1    1    5    5  503    0  0.54047077051E+02 -0.16534021493E+03  0.98546061277E+03  0.10006953045E+04  0.00000000000E+00 0. -1.
         -2    1    5    5    0  503  0.11890906385E+03 -0.11891785175E+03  0.89895969977E+03  0.91455418798E+03  0.00000000000E+00 0.  1.
         -1    1    6    6    0  502 -0.32318367247E+03 -0.26688712709E+03  0.36180227739E+03  0.55369424115E+03  0.00000000000E+00 0.  1.
<mgrwt>
<rscale>  0 0.20945036E+04</rscale>
<asrwt>0</asrwt>
<pdfrwt beam="1">  1        2 0.62818086E-01 0.20945036E+04</pdfrwt>
<pdfrwt beam="2">  1       -2 0.41322901E+00 0.20945036E+04</pdfrwt>
<totfact> 0.43619649E-01</totfact>
</mgrwt>
</event>
<event>
12    1  0.1755460E-007  0.1696632E+04  0.7818608E-02  0.8763288E-01
         -1   -1    0    0    0  501 -0.00000000000E+00  0.00000000000E+00  0.34916558238E+03  0.34916558238E+03  0.00000000000E+00 0.  1.
          1   -1    0    0  501    0  0.00000000000E+00 -0.00000000000E+00 -0.20610278290E+04  0.20610278290E+04  0.00000000000E+00 0. -1.
         23    2    1    2    0    0  0.50362823012E+03 -0.32368039928E+03 -0.87999733453E+03  0.10681209347E+04  0.89870057721E+02 0.  0.
        254    2    1    2    0    0 -0.50362823012E+03  0.32368039928E+03 -0.83186491211E+03  0.13420724767E+04  0.86645767681E+03 0.  0.
        -24    2    4    4    0    0 -0.72863534363E+03  0.12648353544E+03 -0.58672516773E+03  0.94741689356E+03  0.80279505754E+02 0.  0.
         24    2    4    4    0    0  0.22500711351E+03  0.19719686384E+03 -0.24513974439E+03  0.39465558315E+03  0.78388333314E+02 0.  0.
         11    1    3    3    0    0  0.46953616810E+03 -0.28340641674E+03 -0.83373371396E+03  0.99794554761E+03  0.00000000000E+00 0. -1.
        -11    1    3    3    0    0  0.34092062023E+02 -0.40273982537E+02 -0.46263620569E+02  0.70175387071E+02  0.00000000000E+00 0.  1.
          4    1    6    6  502    0  0.14859783990E+03  0.17508483172E+03 -0.17762349218E+03  0.29032072144E+03  0.00000000000E+00 0. -1.
          3    1    5    5  503    0 -0.46182392292E+03  0.41732595162E+02 -0.35458070229E+03  0.58373831442E+03  0.00000000000E+00 0. -1.
         -4    1    5    5    0  503 -0.26681142070E+03  0.84750940273E+02 -0.23214446544E+03  0.36367857914E+03  0.00000000000E+00 0.  1.
         -3    1    6    6    0  502  0.76409273602E+02  0.22112032118E+02 -0.67516252203E+02  0.10433486171E+03  0.00000000000E+00 0.  1.
<mgrwt>
<rscale>  0 0.16966319E+04</rscale>
<asrwt>0</asrwt>
<pdfrwt beam="1">  1        1 0.31708120E+00 0.16966319E+04</pdfrwt>
<pdfrwt beam="2">  1       -1 0.53717782E-01 0.16966319E+04</pdfrwt>
<totfact> 0.90211659E+00</totfact>
</mgrwt>
</event>
<event>
12    1  0.1755460E-007  0.1960599E+04  0.7818608E-02  0.8625267E-01
         -1   -1    0    0    0  501 -0.00000000000E+00  0.00000000000E+00  0.37884921031E+03  0.37884921031E+03  0.00000000000E+00 0.  1.
          1   -1    0    0  501    0  0.00000000000E+00 -0.00000000000E+00 -0.25365942167E+04  0.25365942167E+04  0.00000000000E+00 0. -1.
         23    2    1    2    0    0  0.30545158331E+03 -0.68182093672E+03 -0.10741658529E+04  0.13115765204E+04  0.90665483237E+02 0.  0.
        254    2    1    2    0    0 -0.30545158331E+03  0.68182093672E+03 -0.10835791534E+04  0.16038669066E+04  0.91655049653E+03 0.  0.
        -24    2    4    4    0    0  0.16206736033E+03 -0.12337870622E+03 -0.81342037252E+02  0.23348833214E+03  0.80075837725E+02 0.  0.
         24    2    4    4    0    0 -0.46751894364E+03  0.80519964294E+03 -0.10022371162E+04  0.13703785744E+04  0.80856493254E+02 0.  0.
         13    1    3    3    0    0  0.92957560589E+02 -0.15849945877E+03 -0.32504117848E+03  0.37338311987E+03  0.00000000000E+00 0.  1.
        -13    1    3    3    0    0  0.21249402272E+03 -0.52332147796E+03 -0.74912467447E+03  0.93819340058E+03  0.00000000000E+00 0. -1.
          2    1    6    6  502    0 -0.28805629601E+03  0.41587710615E+03 -0.54267515201E+03  0.74190735116E+03  0.00000000000E+00 0. -1.
          3    1    5    5  503    0  0.11274702849E+03 -0.38018647514E+02 -0.31825069769E+02  0.12316714277E+03  0.00000000000E+00 0. -1.
         -2    1    5    5    0  503  0.49320331842E+02 -0.85360058705E+02 -0.49516967482E+02  0.11032118937E+03  0.00000000000E+00 0.  1.
         -1    1    6    6    0  502 -0.17946264764E+03  0.38932253680E+03 -0.45956196418E+03  0.62847122326E+03  0.00000000000E+00 0.  1.
<mgrwt>
<rscale>  0 0.19605986E+04</rscale>
<asrwt>0</asrwt>
<pdfrwt beam="1">  1        1 0.39024526E+00 0.19605986E+04</pdfrwt>
<pdfrwt beam="2">  1       -1 0.58284494E-01 0.19605986E+04</pdfrwt>
<totfact> 0.35494618E+00</totfact>
</mgrwt>
</event>
<event>
12    1  0.1755460E-007  0.1235527E+04  0.7818608E-02  0.9082316E-01
          1   -1    0    0  501    0  0.00000000000E+00  0.00000000000E+00  0.54763004980E+03  0.54763004980E+03  0.00000000000E+00 0. -1.
         -1   -1    0    0    0  501 -0.00000000000E+00 -0.00000000000E+00 -0.69687830502E+03  0.69687830502E+03  0.00000000000E+00 0.  1.
         23    2    1    2    0    0  0.17304969026E+03  0.21515658532E+02 -0.23904035137E+03  0.31029489910E+03  0.93453282239E+02 0.  0.
        254    2    1    2    0    0 -0.17304969026E+03 -0.21515658532E+02  0.89792096150E+02  0.93421345573E+03  0.91339095762E+03 0.  0.
        -24    2    4    4    0    0 -0.19114285601E+03 -0.21759633478E+03 -0.34076430163E+03  0.45384909758E+03  0.77297721804E+02 0.  0.
         24    2    4    4    0    0  0.18093165745E+02  0.19608067625E+03  0.43055639778E+03  0.48036435815E+03  0.81216443287E+02 0.  0.
         13    1    3    3    0    0  0.17957845740E+03  0.28762286954E+02 -0.20118463800E+03  0.27120278405E+03  0.00000000000E+00 0. -1.
        -13    1    3    3    0    0 -0.65287671348E+01 -0.72466284218E+01 -0.37855713370E+02  0.39092115043E+02  0.00000000000E+00 0.  1.
          2    1    6    6  502    0  0.41653619292E+01  0.61805687934E+02  0.61062825146E+02  0.86982537994E+02  0.00000000000E+00 0. -1.
          3    1    5    5  503    0 -0.29116344726E+02 -0.56591719449E+02 -0.36433932101E+02  0.73333591544E+02  0.00000000000E+00 0. -1.
         -4    1    5    5    0  503 -0.16202651128E+03 -0.16100461533E+03 -0.30433036953E+03  0.38051550604E+03  0.00000000000E+00 0.  1.
         -3    1    6    6    0  502  0.13927803815E+02  0.13427498831E+03  0.36949357264E+03  0.39338182015E+03  0.00000000000E+00 0.  1.
<mgrwt>
<rscale>  0 0.12355266E+04</rscale>
<asrwt>0</asrwt>
<pdfrwt beam="1">  1        1 0.84250777E-01 0.12355266E+04</pdfrwt>
<pdfrwt beam="2">  1       -1 0.10721205E+00 0.12355266E+04</pdfrwt>
<totfact> 0.31255831E+01</totfact>
</mgrwt>
</event>
<event>
12    1  0.1755460E-007  0.1421592E+04  0.7818608E-02  0.8938336E-01
          1   -1    0    0  501    0  0.00000000000E+00  0.00000000000E+00  0.99290145723E+03  0.99290145723E+03  0.00000000000E+00 0. -1.
         -1   -1    0    0    0  501 -0.00000000000E+00 -0.00000000000E+00 -0.50884264176E+03  0.50884264176E+03  0.00000000000E+00 0.  1.
         23    2    1    2    0    0  0.99586895059E+02  0.33184244406E+03 -0.12808633047E+03  0.38081836047E+03  0.92625904959E+02 0.  0.
        254    2    1    2    0    0 -0.99586895059E+02 -0.33184244406E+03  0.61214514593E+03  0.11209257385E+04  0.87276335524E+03 0.  0.
        -24    2    4    4    0    0  0.11958013796E+02  0.25443625870E+03  0.11050706303E+02  0.27017233816E+03  0.89387752864E+02 0.  0.
         24    2    4    4    0    0 -0.11154490885E+03 -0.58627870276E+03  0.60109443963E+03  0.85075340036E+03  0.79384122269E+02 0.  0.
         13    1    3    3    0    0  0.34655594002E+01  0.50818495035E+02  0.12152868082E+02  0.52366227114E+02  0.00000000000E+00 0. -1.
        -13    1    3    3    0    0  0.96121335659E+02  0.28102394903E+03 -0.14023919855E+03  0.32845213336E+03  0.00000000000E+00 0.  1.
          2    1    6    6  502    0 -0.54614677533E+01 -0.21146993707E+03  0.23500878821E+03  0.31619375776E+03  0.00000000000E+00 0. -1.
          3    1    5    5  503    0 -0.33374648054E+02  0.91833018636E+02  0.24803999640E+02  0.10080877364E+03  0.00000000000E+00 0. -1.
         -4    1    5    5    0  503  0.45332661850E+02  0.16260324006E+03 -0.13753293337E+02  0.16936356452E+03  0.00000000000E+00 0.  1.
         -1    1    6    6    0  502 -0.10608344110E+03 -0.37480876570E+03  0.36608565142E+03  0.53455964260E+03  0.00000000000E+00 0.  1.
<mgrwt>
<rscale>  0 0.14215915E+04</rscale>
<asrwt>0</asrwt>
<pdfrwt beam="1">  1        1 0.15275407E+00 0.14215915E+04</pdfrwt>
<pdfrwt beam="2">  1       -1 0.78283483E-01 0.14215915E+04</pdfrwt>
<totfact> 0.24375833E+01</totfact>
</mgrwt>
</event>
<event>
12    1  0.1755460E-007  0.1498249E+04  0.7818608E-02  0.8885618E-01
         -2   -1    0    0    0  501 -0.00000000000E+00  0.00000000000E+00  0.15667953525E+03  0.15667953525E+03  0.00000000000E+00 0.  1.
          2   -1    0    0  501    0  0.00000000000E+00 -0.00000000000E+00 -0.35817518832E+04  0.35817518832E+04  0.00000000000E+00 0. -1.
         23    2    1    2    0    0  0.25055563548E+03 -0.40041301934E+03 -0.85281592785E+03  0.97922335587E+03  0.92057923999E+02 0.  0.
        254    2    1    2    0    0 -0.25055563548E+03  0.40041301934E+03 -0.25722564201E+04  0.27592080626E+04  0.87955518835E+03 0.  0.
        -24    2    4    4    0    0 -0.11272918462E+03  0.19366732327E+03 -0.76343138553E+02  0.24966886630E+03  0.79318136827E+02 0.  0.
         24    2    4    4    0    0 -0.13782645086E+03  0.20674569607E+03 -0.24959132816E+04  0.25095391963E+04  0.80398726733E+02 0.  0.
         13    1    3    3    0    0  0.18720921029E+03 -0.24283233628E+03 -0.48043247996E+03  0.56993876843E+03  0.00000000000E+00 0.  1.
        -13    1    3    3    0    0  0.63346425194E+02 -0.15758068306E+03 -0.37238344789E+03  0.40928458744E+03  0.00000000000E+00 0. -1.
          2    1    6    6  502    0 -0.55840124963E+02  0.13018798508E+03 -0.16781529702E+04  0.16841212612E+04  0.00000000000E+00 0. -1.
          3    1    5    5  503    0 -0.10473811906E+03  0.13419520184E+03 -0.82830264358E+02  0.18931264742E+03  0.00000000000E+00 0. -1.
         -4    1    5    5    0  503 -0.79910655590E+01  0.59472121431E+02  0.64871258055E+01  0.60356218880E+02  0.00000000000E+00 0.  1.
         -1    1    6    6    0  502 -0.81986325901E+02  0.76557710985E+02 -0.81776031136E+03  0.82541793510E+03  0.00000000000E+00 0.  1.
<mgrwt>
<rscale>  0 0.14982486E+04</rscale>
<asrwt>0</asrwt>
<pdfrwt beam="1">  1        2 0.55103876E+00 0.14982486E+04</pdfrwt>
<pdfrwt beam="2">  1       -2 0.24104544E-01 0.14982486E+04</pdfrwt>
<totfact> 0.10703413E+01</totfact>
</mgrwt>
</event>
<event>
12    1  0.1755460E-007  0.1557784E+04  0.7818608E-02  0.8846911E-01
         -2   -1    0    0    0  501 -0.00000000000E+00  0.00000000000E+00  0.66622087855E+03  0.66622087855E+03  0.00000000000E+00 0. -1.
          2   -1    0    0  501    0  0.00000000000E+00 -0.00000000000E+00 -0.91061792813E+03  0.91061792813E+03  0.00000000000E+00 0.  1.
         23    2    1    2    0    0 -0.41505294526E+03  0.25142768469E+03  0.76433315042E+02  0.50268014655E+03  0.10658541220E+03 0.  0.
        254    2    1    2    0    0  0.41505294526E+03 -0.25142768469E+03 -0.32083036462E+03  0.10741586601E+04  0.90299494808E+03 0.  0.
        -24    2    4    4    0    0  0.18617248130E+03  0.17707671942E+03  0.21606891350E+03  0.34538666015E+03  0.81177658741E+02 0.  0.
         24    2    4    4    0    0  0.22888046396E+03 -0.42850440411E+03 -0.53689927812E+03  0.72877199997E+03  0.82737548742E+02 0.  0.
         13    1    3    3    0    0 -0.16677225834E+03  0.11144619455E+03  0.84231631866E+02  0.21755047285E+03  0.00000000000E+00 0.  1.
        -13    1    3    3    0    0 -0.24828068692E+03  0.13998149014E+03 -0.77983168243E+01  0.28512967370E+03  0.00000000000E+00 0. -1.
          2    1    6    6  502    0  0.98345447506E+02 -0.23194789277E+03 -0.32833667720E+03  0.41385580290E+03  0.00000000000E+00 0. -1.
          1    1    5    5  503    0  0.81293453620E+02  0.28530920642E+02  0.86670419090E+02  0.12220638518E+03  0.00000000000E+00 0. -1.
         -2    1    5    5    0  503  0.10487902768E+03  0.14854579878E+03  0.12939849441E+03  0.22318027497E+03  0.00000000000E+00 0.  1.
         -1    1    6    6    0  502  0.13053501645E+03 -0.19655651134E+03 -0.20856260093E+03  0.31491619707E+03  0.00000000000E+00 0.  1.
<mgrwt>
<rscale>  0 0.15577839E+04</rscale>
<asrwt>0</asrwt>
<pdfrwt beam="1">  1        2 0.14009507E+00 0.15577839E+04</pdfrwt>
<pdfrwt beam="2">  1       -2 0.10249552E+00 0.15577839E+04</pdfrwt>
<totfact> 0.21614148E+01</totfact>
</mgrwt>
</event>
<event>
12    1  0.1755460E-007  0.2274350E+04  0.7818608E-02  0.8488104E-01
         -2   -1    0    0    0  501 -0.00000000000E+00  0.00000000000E+00  0.73680086863E+03  0.73680086863E+03  0.00000000000E+00 0.  1.
          2   -1    0    0  501    0  0.00000000000E+00 -0.00000000000E+00 -0.17551098156E+04  0.17551098156E+04  0.00000000000E+00 0. -1.
         23    2    1    2    0    0 -0.73328947115E+03  0.21653715112E+03 -0.10538554598E+04  0.13052005245E+04  0.91297824682E+02 0.  0.
        254    2    1    2    0    0  0.73328947115E+03 -0.21653715112E+03  0.35546512837E+02  0.11867101597E+04  0.90687135924E+03 0.  0.
        -24    2    4    4    0    0 -0.41788996588E+02  0.19977768195E+03  0.18947479593E+03  0.28987406071E+03  0.80429039151E+02 0.  0.
         24    2    4    4    0    0  0.77507846774E+03 -0.41631483306E+03 -0.15392828310E+03  0.89683609897E+03  0.80971604293E+02 0.  0.
         11    1    3    3    0    0 -0.95478919583E+02  0.48090608192E+02 -0.10746483406E+03  0.15158371034E+03  0.00000000000E+00 0.  1.
        -11    1    3    3    0    0 -0.63781055157E+03  0.16844654292E+03 -0.94639062571E+03  0.11536168142E+04  0.00000000000E+00 0. -1.
          2    1    6    6  502    0  0.45231764008E+03 -0.21921038581E+03 -0.53065341980E+02  0.50543087687E+03  0.00000000000E+00 0. -1.
          1    1    5    5  503    0 -0.44707148076E+02  0.43955891066E+02  0.43248581760E+02  0.76166195079E+02  0.00000000000E+00 0. -1.
         -2    1    5    5    0  503  0.29181514880E+01  0.15582179088E+03  0.14622621418E+03  0.21370786563E+03  0.00000000000E+00 0.  1.
         -1    1    6    6    0  502  0.32276082766E+03 -0.19710444725E+03 -0.10086294112E+03  0.39140522210E+03  0.00000000000E+00 0.  1.
<mgrwt>
<rscale>  0 0.22743495E+04</rscale>
<asrwt>0</asrwt>
<pdfrwt beam="1">  1        2 0.27001689E+00 0.22743495E+04</pdfrwt>
<pdfrwt beam="2">  1       -2 0.11335398E+00 0.22743495E+04</pdfrwt>
<totfact> 0.50712900E+00</totfact>
</mgrwt>
</event>
<event>
12    1  0.1755460E-007  0.1567264E+04  0.7818608E-02  0.8840915E-01
          1   -1    0    0  501    0  0.00000000000E+00  0.00000000000E+00  0.25001397188E+04  0.25001397188E+04  0.00000000000E+00 0. -1.
         -1   -1    0    0    0  501 -0.00000000000E+00 -0.00000000000E+00 -0.24561782436E+03  0.24561782436E+03  0.00000000000E+00 0.  1.
         23    2    1    2    0    0 -0.35592129419E+03  0.22508654409E+03  0.21071726408E+03  0.47974985082E+03  0.91729133826E+02 0.  0.
        254    2    1    2    0    0  0.35592129419E+03 -0.22508654409E+03  0.20438046304E+04  0.22660076924E+04  0.88335133140E+03 0.  0.
        -24    2    4    4    0    0  0.26523565595E+03  0.27947439934E+03  0.49299666095E+03  0.63075191906E+03  0.79664186494E+02 0.  0.
         24    2    4    4    0    0  0.90685638236E+02 -0.50456094343E+03  0.15508079694E+04  0.16352557733E+04  0.79059822019E+02 0.  0.
         11    1    3    3    0    0 -0.10333663185E+03  0.50517591991E+02  0.15895455672E+02  0.11611697591E+03  0.00000000000E+00 0. -1.
        -11    1    3    3    0    0 -0.25258466234E+03  0.17456895210E+03  0.19482180841E+03  0.36363287491E+03  0.00000000000E+00 0.  1.
          2    1    6    6  502    0 -0.42987581353E+01 -0.20190584048E+02  0.11845684067E+03  0.12024209790E+03  0.00000000000E+00 0. -1.
          3    1    5    5  503    0  0.31646531275E+02  0.13106996240E+02  0.77408075672E+02  0.84648133302E+02  0.00000000000E+00 0. -1.
         -4    1    5    5    0  503  0.23358912468E+03  0.26636740310E+03  0.41558858528E+03  0.54610378576E+03  0.00000000000E+00 0.  1.
         -1    1    6    6    0  502  0.94984396371E+02 -0.48437035938E+03  0.14323511288E+04  0.15150136754E+04  0.00000000000E+00 0.  1.
<mgrwt>
<rscale>  0 0.15672637E+04</rscale>
<asrwt>0</asrwt>
<pdfrwt beam="1">  1        1 0.38463686E+00 0.15672637E+04</pdfrwt>
<pdfrwt beam="2">  1       -1 0.37787359E-01 0.15672637E+04</pdfrwt>
<totfact> 0.88247810E+00</totfact>
</mgrwt>
</event>
<event>
12    1  0.1755460E-007  0.2560567E+04  0.7818608E-02  0.8381720E-01
         -1   -1    0    0    0  501 -0.00000000000E+00  0.00000000000E+00  0.10037745978E+04  0.10037745978E+04  0.00000000000E+00 0.  1.
          1   -1    0    0  501    0  0.00000000000E+00 -0.00000000000E+00 -0.16329619367E+04  0.16329619367E+04  0.00000000000E+00 0. -1.
         23    2    1    2    0    0  0.10724860284E+04 -0.14912960229E+03 -0.55747611294E+03  0.12213639056E+04  0.92110010911E+02 0.  0.
        254    2    1    2    0    0 -0.10724860284E+04  0.14912960229E+03 -0.71711225979E+02  0.14153726289E+04  0.90866454717E+03 0.  0.
        -24    2    4    4    0    0 -0.10377243214E+04 -0.51577518381E+02 -0.31435965874E+03  0.10884166504E+04  0.79352392135E+02 0.  0.
         24    2    4    4    0    0 -0.34761706909E+02  0.20070712067E+03  0.24264843277E+03  0.32695597844E+03  0.80809809784E+02 0.  0.
         11    1    3    3    0    0  0.10147346188E+04 -0.13571377290E+03 -0.50222815484E+03  0.11403235042E+04  0.00000000000E+00 0. -1.
        -11    1    3    3    0    0  0.57751409579E+02 -0.13415829382E+02 -0.55247958096E+02  0.81040401407E+02  0.00000000000E+00 0.  1.
          4    1    6    6  502    0  0.11730286112E+02  0.14766947237E+03  0.17424999935E+03  0.22870709424E+03  0.00000000000E+00 0. -1.
          1    1    5    5  503    0 -0.39597619115E+03 -0.26567440023E+02 -0.80641523089E+02  0.40497657719E+03  0.00000000000E+00 0. -1.
         -2    1    5    5    0  503 -0.64174813029E+03 -0.25010078358E+02 -0.23371813566E+03  0.68344007322E+03  0.00000000000E+00 0.  1.
         -3    1    6    6    0  502 -0.46491993021E+02  0.53037648301E+02  0.68398433414E+02  0.98248884197E+02  0.00000000000E+00 0.  1.
<mgrwt>
<rscale>  0 0.25605669E+04</rscale>
<asrwt>0</asrwt>
<pdfrwt beam="1">  1        1 0.25122491E+00 0.25605669E+04</pdfrwt>
<pdfrwt beam="2">  1       -1 0.15442686E+00 0.25605669E+04</pdfrwt>
<totfact> 0.15091295E+00</totfact>
</mgrwt>
</event>
<event>
12    1  0.1755460E-007  0.2019788E+04  0.7818608E-02  0.8597425E-01
          1   -1    0    0  501    0  0.00000000000E+00  0.00000000000E+00  0.13916194165E+04  0.13916194165E+04  0.00000000000E+00 0.  1.
         -1   -1    0    0    0  501 -0.00000000000E+00 -0.00000000000E+00 -0.73287712159E+03  0.73287712159E+03  0.00000000000E+00 0. -1.
         23    2    1    2    0    0 -0.29330156587E+03  0.39974921870E+02  0.10600031233E+04  0.11044144414E+04  0.92199968175E+02 0.  0.
        254    2    1    2    0    0  0.29330156587E+03 -0.39974921870E+02 -0.40126082839E+03  0.10200820967E+04  0.88990641563E+03 0.  0.
        -24    2    4    4    0    0  0.18653255875E+03 -0.42064562891E+03 -0.40338042252E+03  0.61662175717E+03  0.75957129718E+02 0.  0.
         24    2    4    4    0    0  0.10676900713E+03  0.38067070704E+03  0.21195941249E+01  0.40346033948E+03  0.80411098588E+02 0.  0.
         11    1    3    3    0    0 -0.18355747924E+02 -0.18377450975E+02  0.14166238428E+03  0.14402394005E+03  0.00000000000E+00 0. -1.
        -11    1    3    3    0    0 -0.27494581795E+03  0.58352372845E+02  0.91834073899E+03  0.96039050136E+03  0.00000000000E+00 0.  1.
          4    1    6    6  502    0  0.97789673655E+02  0.26281402400E+03  0.30001846267E+02  0.28201798216E+03  0.00000000000E+00 0. -1.
          1    1    5    5  503    0  0.11552766699E+03 -0.28839163639E+03 -0.31500011869E+03  0.44242677649E+03  0.00000000000E+00 0. -1.
         -2    1    5    5    0  503  0.71004891761E+02 -0.13225399252E+03 -0.88380303831E+02  0.17419498068E+03  0.00000000000E+00 0.  1.
         -3    1    6    6    0  502  0.89793334701E+01  0.11785668304E+03 -0.27882252142E+02  0.12144235732E+03  0.00000000000E+00 0.  1.
<mgrwt>
<rscale>  0 0.20197881E+04</rscale>
<asrwt>0</asrwt>
<pdfrwt beam="1">  1        1 0.21409529E+00 0.20197881E+04</pdfrwt>
<pdfrwt beam="2">  1       -1 0.11275033E+00 0.20197881E+04</pdfrwt>
<totfact> 0.51904062E+00</totfact>
</mgrwt>
</event>
<event>
12    1  0.1755460E-007  0.2329138E+04  0.7818608E-02  0.8466520E-01
         -1   -1    0    0    0  501 -0.00000000000E+00  0.00000000000E+00  0.73314197221E+03  0.73314197221E+03  0.00000000000E+00 0.  1.
          1   -1    0    0  501    0  0.00000000000E+00 -0.00000000000E+00 -0.18498744631E+04  0.18498744631E+04  0.00000000000E+00 0. -1.
         23    2    1    2    0    0  0.36467872141E+03 -0.85460296002E+03 -0.86819864403E+02  0.93772349443E+03  0.91928635522E+02 0.  0.
        254    2    1    2    0    0 -0.36467872141E+03  0.85460296002E+03 -0.10299126264E+04  0.16452929408E+04  0.88483447825E+03 0.  0.
        -24    2    4    4    0    0 -0.18477491136E+02  0.86034416569E+03 -0.47455463265E+03  0.98587855468E+03  0.78872834850E+02 0.  0.
         24    2    4    4    0    0 -0.34620123027E+03 -0.57412056693E+01 -0.55535799379E+03  0.65941438615E+03  0.80725325102E+02 0.  0.
         13    1    3    3    0    0  0.35558380656E+03 -0.76538101364E+03 -0.75250308317E+02  0.84729602172E+03  0.00000000000E+00 0.  1.
        -13    1    3    3    0    0  0.90949148492E+01 -0.89221946386E+02 -0.11569556086E+02  0.90427472712E+02  0.00000000000E+00 0. -1.
          4    1    6    6  502    0 -0.13814805770E+03  0.12727176268E+02 -0.29200924595E+03  0.32328975638E+03  0.00000000000E+00 0. -1.
          1    1    5    5  503    0  0.11126973087E+02  0.19096778721E+02 -0.83170096554E+01  0.23615019314E+02  0.00000000000E+00 0. -1.
         -2    1    5    5    0  503 -0.29604464223E+02  0.84124738697E+03 -0.46623762300E+03  0.96226353536E+03  0.00000000000E+00 0.  1.
         -3    1    6    6    0  502 -0.20805317257E+03 -0.18468381938E+02 -0.26334874784E+03  0.33612462977E+03  0.00000000000E+00 0.  1.
<mgrwt>
<rscale>  0 0.23291377E+04</rscale>
<asrwt>0</asrwt>
<pdfrwt beam="1">  1        1 0.28459606E+00 0.23291377E+04</pdfrwt>
<pdfrwt beam="2">  1       -1 0.11279108E+00 0.23291377E+04</pdfrwt>
<totfact> 0.24425516E+00</totfact>
</mgrwt>
</event>
<event>
12    1  0.1755460E-007  0.1320228E+04  0.7818608E-02  0.9013676E-01
         -1   -1    0    0    0  501 -0.00000000000E+00  0.00000000000E+00  0.92304018716E+03  0.92304018716E+03  0.00000000000E+00 0.  1.
          1   -1    0    0  501    0  0.00000000000E+00 -0.00000000000E+00 -0.47208198029E+03  0.47208198029E+03  0.00000000000E+00 0. -1.
         23    2    1    2    0    0 -0.55514397572E+02  0.10785412475E+03 -0.20561562875E+03  0.25552412894E+03  0.91106712835E+02 0.  0.
        254    2    1    2    0    0  0.55514397572E+02 -0.10785412475E+03  0.65657383562E+03  0.11395980385E+04  0.92351509311E+03 0.  0.
        -24    2    4    4    0    0  0.99597931109E+02 -0.36373176067E+02 -0.21959202154E+03  0.25601004400E+03  0.77959803000E+02 0.  0.
         24    2    4    4    0    0 -0.44083533537E+02 -0.71480948681E+02  0.87616585716E+03  0.88358799452E+03  0.77512907569E+02 0.  0.
         13    1    3    3    0    0  0.14958131019E+02  0.27628299661E+02 -0.10546811279E+02  0.33140667675E+02  0.00000000000E+00 0.  1.
        -13    1    3    3    0    0 -0.70472528591E+02  0.80225825087E+02 -0.19506881747E+03  0.22238346127E+03  0.00000000000E+00 0. -1.
          2    1    6    6  502    0 -0.39141873056E+02 -0.87390527055E+02  0.79376926927E+03  0.79952413552E+03  0.00000000000E+00 0. -1.
          3    1    5    5  503    0  0.10978077690E+03 -0.21026728542E+02 -0.17365815856E+03  0.20652142340E+03  0.00000000000E+00 0. -1.
         -4    1    5    5    0  503 -0.10182845788E+02 -0.15346447525E+02 -0.45933862980E+02  0.49488620594E+02  0.00000000000E+00 0.  1.
         -1    1    6    6    0  502 -0.49416604812E+01  0.15909578374E+02  0.82396587893E+02  0.84063858992E+02  0.00000000000E+00 0.  1.
<mgrwt>
<rscale>  0 0.13202282E+04</rscale>
<asrwt>0</asrwt>
<pdfrwt beam="1">  1        1 0.72627997E-01 0.13202282E+04</pdfrwt>
<pdfrwt beam="2">  1       -1 0.14200618E+00 0.13202282E+04</pdfrwt>
<totfact> 0.19004240E+01</totfact>
</mgrwt>
</event>
<event>
12    1  0.1755460E-007  0.2701083E+04  0.7818608E-02  0.8334654E-01
         -2   -1    0    0    0  501 -0.00000000000E+00  0.00000000000E+00  0.73046403969E+03  0.73046403969E+03  0.00000000000E+00 0. -1.
          2   -1    0    0  501    0  0.00000000000E+00 -0.00000000000E+00 -0.24969913354E+04  0.24969913354E+04  0.00000000000E+00 0.  1.
         23    2    1    2    0    0  0.30351673805E+03 -0.57453571904E+02 -0.21695015253E+04  0.21932439948E+04  0.90327344563E+02 0.  0.
        254    2    1    2    0    0 -0.30351673805E+03  0.57453571904E+02  0.40297422962E+03  0.10342113803E+04  0.90098924864E+03 0.  0.
        -24    2    4    4    0    0 -0.10007892299E+03 -0.40550591395E+03  0.27459956798E+03  0.50617505567E+03  0.79733475913E+02 0.  0.
         24    2    4    4    0    0 -0.20343781506E+03  0.46295948585E+03  0.12837466164E+03  0.52803632461E+03  0.81387199354E+02 0.  0.
         11    1    3    3    0    0  0.21265589682E+03 -0.76761397571E+02 -0.16626263487E+04  0.16779276557E+04  0.00000000000E+00 0.  1.
        -11    1    3    3    0    0  0.90860841228E+02  0.19307825668E+02 -0.50687517667E+03  0.51531633909E+03  0.00000000000E+00 0. -1.
          4    1    6    6  502    0 -0.19900117325E+03  0.45003865518E+03  0.10845749593E+03  0.50388419953E+03  0.00000000000E+00 0. -1.
          3    1    5    5  503    0 -0.11063256144E+03 -0.39486193129E+03  0.26226396221E+03  0.48676266733E+03  0.00000000000E+00 0. -1.
         -4    1    5    5    0  503  0.10553638458E+02 -0.10643982657E+02  0.12335605768E+02  0.19412388343E+02  0.00000000000E+00 0.  1.
         -3    1    6    6    0  502 -0.44366418068E+01  0.12920830670E+02  0.19917165714E+02  0.24152125079E+02  0.00000000000E+00 0.  1.
<mgrwt>
<rscale>  0 0.27010830E+04</rscale>
<asrwt>0</asrwt>
<pdfrwt beam="1">  1        2 0.38415251E+00 0.27010830E+04</pdfrwt>
<pdfrwt beam="2">  1       -2 0.11237908E+00 0.27010830E+04</pdfrwt>
<totfact> 0.19119539E+00</totfact>
</mgrwt>
</event>
<event>
12    1  0.1755460E-007  0.1312005E+04  0.7818608E-02  0.9020099E-01
         -1   -1    0    0    0  501 -0.00000000000E+00  0.00000000000E+00  0.13907651876E+04  0.13907651876E+04  0.00000000000E+00 0.  1.
          1   -1    0    0  501    0  0.00000000000E+00 -0.00000000000E+00 -0.30942639579E+03  0.30942639579E+03  0.00000000000E+00 0. -1.
         23    2    1    2    0    0  0.30285801532E+03  0.34544147100E+02  0.48292613527E+03  0.57802015350E+03  0.89293729808E+02 0.  0.
        254    2    1    2    0    0 -0.30285801532E+03 -0.34544147100E+02  0.59841265657E+03  0.11221714299E+04  0.89902988552E+03 0.  0.
        -24    2    4    4    0    0 -0.23656464842E+03 -0.34505504154E+03  0.66298659063E+03  0.78855554175E+03  0.85104691409E+02 0.  0.
         24    2    4    4    0    0 -0.66293366893E+02  0.31051089444E+03 -0.64573934064E+02  0.33361588817E+03  0.79485481829E+02 0.  0.
         11    1    3    3    0    0  0.79555196777E+01  0.19938948575E+02  0.22892595270E+02  0.31383481034E+02  0.00000000000E+00 0. -1.
        -11    1    3    3    0    0  0.29490249564E+03  0.14605198526E+02  0.46003354000E+03  0.54663667246E+03  0.00000000000E+00 0.  1.
          2    1    6    6  502    0 -0.53923040767E+02  0.91811038867E+02 -0.49193377385E+01  0.10658874738E+03  0.00000000000E+00 0. -1.
          1    1    5    5  503    0 -0.41218671138E+02 -0.79795324197E+02  0.87139717759E+02  0.12513833555E+03  0.00000000000E+00 0. -1.
         -2    1    5    5    0  503 -0.19534597728E+03 -0.26525971734E+03  0.57584687287E+03  0.66341720620E+03  0.00000000000E+00 0.  1.
         -1    1    6    6    0  502 -0.12370326126E+02  0.21869985557E+03 -0.59654596325E+02  0.22702714079E+03  0.00000000000E+00 0.  1.
<mgrwt>
<rscale>  0 0.13120053E+04</rscale>
<asrwt>0</asrwt>
<pdfrwt beam="1">  1        1 0.47604062E-01 0.13120053E+04</pdfrwt>
<pdfrwt beam="2">  1       -1 0.21396387E+00 0.13120053E+04</pdfrwt>
<totfact> 0.99908864E+00</totfact>
</mgrwt>
</event>
<event>
12    1  0.1755460E-007  0.2032344E+04  0.7818608E-02  0.8591646E-01
          2   -1    0    0  501    0  0.00000000000E+00  0.00000000000E+00  0.30469589711E+04  0.30469589711E+04  0.00000000000E+00 0. -1.
         -2   -1    0    0    0  501 -0.00000000000E+00 -0.00000000000E+00 -0.33889703503E+03  0.33889703503E+03  0.00000000000E+00 0.  1.
         23    2    1    2    0    0  0.38818789595E+03  0.33624707461E+03  0.21311416181E+04  0.21940546472E+04  0.91428992142E+02 0.  0.
        254    2    1    2    0    0 -0.38818789595E+03 -0.33624707461E+03  0.57692031791E+03  0.11918013589E+04  0.90763510737E+03 0.  0.
        -24    2    4    4    0    0 -0.19234488008E+03 -0.58766354140E+02  0.76519273583E+03  0.79555749879E+03  0.83317306975E+02 0.  0.
         24    2    4    4    0    0 -0.19584301587E+03 -0.27748072047E+03 -0.18827241792E+03  0.39624386012E+03  0.78820404922E+02 0.  0.
         13    1    3    3    0    0  0.23156746776E+03  0.16442276143E+03  0.10168155864E+04  0.10557330502E+04  0.00000000000E+00 0. -1.
        -13    1    3    3    0    0  0.15662042819E+03  0.17182431318E+03  0.11143260317E+04  0.11383215970E+04  0.00000000000E+00 0.  1.
          4    1    6    6  502    0 -0.32968113043E+02 -0.11083940912E+03 -0.61894682987E+02  0.13116105700E+03  0.00000000000E+00 0. -1.
          1    1    5    5  503    0 -0.13959110670E+02 -0.34573869638E+02  0.15022171977E+03  0.15477976070E+03  0.00000000000E+00 0. -1.
         -2    1    5    5    0  503 -0.17838576941E+03 -0.24192484502E+02  0.61497101606E+03  0.64077773809E+03  0.00000000000E+00 0.  1.
         -3    1    6    6    0  502 -0.16287490283E+03 -0.16664131135E+03 -0.12637773493E+03  0.26508280311E+03  0.00000000000E+00 0.  1.
<mgrwt>
<rscale>  0 0.20323438E+04</rscale>
<asrwt>0</asrwt>
<pdfrwt beam="1">  1        2 0.46876290E+00 0.20323438E+04</pdfrwt>
<pdfrwt beam="2">  1       -2 0.52138007E-01 0.20323438E+04</pdfrwt>
<totfact> 0.52466101E+00</totfact>
</mgrwt>
</event>
<event>
12    1  0.1755460E-007  0.2549550E+04  0.7818608E-02  0.8385543E-01
          1   -1    0    0  501    0  0.00000000000E+00  0.00000000000E+00  0.16719015543E+04  0.16719015543E+04  0.00000000000E+00 0. -1.
         -1   -1    0    0    0  501 -0.00000000000E+00 -0.00000000000E+00 -0.97197757538E+03  0.97197757538E+03  0.00000000000E+00 0.  1.
         23    2    1    2    0    0  0.50147231579E+03 -0.33231721760E+03 -0.66508882997E+03  0.90112446436E+03  0.88164232564E+02 0.  0.
        254    2    1    2    0    0 -0.50147231579E+03  0.33231721760E+03  0.13650128089E+04  0.17427546654E+04  0.90112409715E+03 0.  0.
        -24    2    4    4    0    0  0.13120400432E+03  0.40305306775E+03  0.43165971390E+03  0.61022379590E+03  0.79854281705E+02 0.  0.
         24    2    4    4    0    0 -0.63267632011E+03 -0.70735850147E+02  0.93335309503E+03  0.11325308695E+04  0.78710124786E+02 0.  0.
         11    1    3    3    0    0  0.86415022330E+02 -0.81138037145E+02 -0.90616061633E+02  0.14920525387E+03  0.00000000000E+00 0. -1.
        -11    1    3    3    0    0  0.41505729345E+03 -0.25117918045E+03 -0.57447276834E+03  0.75191921049E+03  0.00000000000E+00 0.  1.
          4    1    6    6  502    0 -0.17572700064E+02  0.88963282666E+01  0.17068454046E+02  0.26062934748E+02  0.00000000000E+00 0. -1.
          1    1    5    5  503    0  0.12488051720E+03  0.29722457684E+03  0.35400992381E+03  0.47881167363E+03  0.00000000000E+00 0. -1.
         -2    1    5    5    0  503  0.63234871272E+01  0.10582849091E+03  0.77649790092E+02  0.13141212227E+03  0.00000000000E+00 0.  1.
         -3    1    6    6    0  502 -0.61510362005E+03 -0.79632178414E+02  0.91628464099E+03  0.11064679347E+04  0.00000000000E+00 0.  1.
<mgrwt>
<rscale>  0 0.25495496E+04</rscale>
<asrwt>0</asrwt>
<pdfrwt beam="1">  1        1 0.25721562E+00 0.25495496E+04</pdfrwt>
<pdfrwt beam="2">  1       -1 0.14953501E+00 0.25495496E+04</pdfrwt>
<totfact> 0.15503889E+00</totfact>
</mgrwt>
</event>
<event>
12    1  0.1755460E-007  0.1291238E+04  0.7818608E-02  0.9036543E-01
          1   -1    0    0  501    0  0.00000000000E+00  0.00000000000E+00  0.64309862438E+03  0.64309862438E+03  0.00000000000E+00 0. -1.
         -1   -1    0    0    0  501 -0.00000000000E+00 -0.00000000000E+00 -0.64814917438E+03  0.64814917438E+03  0.00000000000E+00 0.  1.
         23    2    1    2    0    0 -0.27747731078E+03  0.42651955933E+02 -0.15556891625E+03  0.33514009160E+03  0.96459037680E+02 0.  0.
        254    2    1    2    0    0  0.27747731078E+03 -0.42651955933E+02  0.15051836625E+03  0.95610770716E+03  0.90148395536E+03 0.  0.
        -24    2    4    4    0    0 -0.25069290898E+03 -0.20275725801E+03  0.21378173502E+03  0.39478308991E+03  0.78699539790E+02 0.  0.
         24    2    4    4    0    0  0.52817021976E+03  0.16010530208E+03 -0.63263368769E+02  0.56132461725E+03  0.80533119324E+02 0.  0.
         11    1    3    3    0    0 -0.87408168776E+01 -0.16644813759E+02  0.41980616882E+00  0.18804997792E+02  0.00000000000E+00 0. -1.
        -11    1    3    3    0    0 -0.26873649391E+03  0.59296769692E+02 -0.15598872241E+03  0.31633509381E+03  0.00000000000E+00 0.  1.
          4    1    6    6  502    0  0.32984524295E+03  0.59597125775E+02 -0.30257171085E+02  0.33654895350E+03  0.00000000000E+00 0. -1.
          1    1    5    5  503    0 -0.20439539958E+02 -0.44858546133E+02  0.13276757013E+02  0.51052289191E+02  0.00000000000E+00 0. -1.
         -2    1    5    5    0  503 -0.23025336902E+03 -0.15789871188E+03  0.20050497801E+03  0.34373080072E+03  0.00000000000E+00 0.  1.
         -3    1    6    6    0  502  0.19832497681E+03  0.10050817630E+03 -0.33006197684E+02  0.22477566376E+03  0.00000000000E+00 0.  1.
<mgrwt>
<rscale>  0 0.12912379E+04</rscale>
<asrwt>0</asrwt>
<pdfrwt beam="1">  1        1 0.98938250E-01 0.12912379E+04</pdfrwt>
<pdfrwt beam="2">  1       -1 0.99715258E-01 0.12912379E+04</pdfrwt>
<totfact> 0.29200223E+01</totfact>
</mgrwt>
</event>
<event>
12    1  0.1755460E-007  0.2090171E+04  0.7818608E-02  0.8565586E-01
         -1   -1    0    0    0  501 -0.00000000000E+00  0.00000000000E+00  0.54806389292E+03  0.54806389292E+03  0.00000000000E+00 0.  1.
          1   -1    0    0  501    0  0.00000000000E+00 -0.00000000000E+00 -0.19928392333E+04  0.19928392333E+04  0.00000000000E+00 0. -1.
         23    2    1    2    0    0  0.19723782525E+03 -0.51389660884E+03 -0.13467422073E+04  0.14577347240E+04  0.91013560675E+02 0.  0.
        254    2    1    2    0    0 -0.19723782525E+03  0.51389660884E+03 -0.98033133018E+02  0.10831684022E+04  0.92771267540E+03 0.  0.
        -24    2    4    4    0    0 -0.14489924355E+03 -0.20624130060E+03  0.16350846137E+03  0.31087466218E+03  0.79854704262E+02 0.  0.
         24    2    4    4    0    0 -0.52338581701E+02  0.72013790943E+03 -0.26154159439E+03  0.77229374003E+03  0.81827132175E+02 0.  0.
         11    1    3    3    0    0  0.16115301010E+03 -0.37159119928E+03 -0.10767602848E+04  0.11504186294E+04  0.00000000000E+00 0. -1.
        -11    1    3    3    0    0  0.36084815147E+02 -0.14230540956E+03 -0.26998192257E+03  0.30731609458E+03  0.00000000000E+00 0.  1.
          2    1    6    6  502    0 -0.54736998114E+02  0.56301801886E+03 -0.23672459311E+03  0.61320792682E+03  0.00000000000E+00 0. -1.
          3    1    5    5  503    0 -0.98889187120E+02 -0.18442455547E+03  0.10779141631E+03  0.23539430202E+03  0.00000000000E+00 0. -1.
         -4    1    5    5    0  503 -0.46010056428E+02 -0.21816745121E+02  0.55717045058E+02  0.75480360162E+02  0.00000000000E+00 0.  1.
         -1    1    6    6    0  502  0.23984164136E+01  0.15711989057E+03 -0.24817001278E+02  0.15908581321E+03  0.00000000000E+00 0.  1.
<mgrwt>
<rscale>  0 0.20901705E+04</rscale>
<asrwt>0</asrwt>
<pdfrwt beam="1">  1        1 0.30659065E+00 0.20901705E+04</pdfrwt>
<pdfrwt beam="2">  1       -1 0.84317523E-01 0.20901705E+04</pdfrwt>
<totfact> 0.38641616E+00</totfact>
</mgrwt>
</event>
<event>
12    1  0.1755460E-007  0.4547018E+04  0.7818608E-02  0.7902457E-01
         -1   -1    0    0    0  501 -0.00000000000E+00  0.00000000000E+00  0.14703277586E+04  0.14703277586E+04  0.00000000000E+00 0.  1.
          1   -1    0    0  501    0  0.00000000000E+00 -0.00000000000E+00 -0.35154358863E+04  0.35154358863E+04  0.00000000000E+00 0. -1.
         23    2    1    2    0    0 -0.55678397999E+03 -0.40642964162E+03 -0.32469953472E+04  0.33206348498E+04  0.91888885330E+02 0.  0.
        254    2    1    2    0    0  0.55678397999E+03  0.40642964162E+03  0.12018872196E+04  0.16651287951E+04  0.92354077426E+03 0.  0.
        -24    2    4    4    0    0  0.62979211774E+02  0.24640332361E+03 -0.81207460232E+02  0.27869145565E+03  0.79958094358E+02 0.  0.
         24    2    4    4    0    0  0.49380476822E+03  0.16002631801E+03  0.12830946798E+04  0.13864373394E+04  0.80155893670E+02 0.  0.
         13    1    3    3    0    0 -0.17536445092E+03 -0.11112605966E+03 -0.79640921826E+03  0.82302450432E+03  0.00000000000E+00 0.  1.
        -13    1    3    3    0    0 -0.38141952907E+03 -0.29530358196E+03 -0.24505861289E+04  0.24976103455E+04  0.00000000000E+00 0. -1.
          4    1    6    6  502    0  0.14208971927E+03  0.81930118643E+02  0.36380182752E+03  0.39906616290E+03  0.00000000000E+00 0. -1.
          1    1    5    5  503    0  0.10123823813E+02 -0.32182931198E+01 -0.78208712812E+01  0.13191483874E+02  0.00000000000E+00 0. -1.
         -2    1    5    5    0  503  0.52855387961E+02  0.24962161673E+03 -0.73386588951E+02  0.26549997178E+03  0.00000000000E+00 0.  1.
         -3    1    6    6    0  502  0.35171504895E+03  0.78096199365E+02  0.91929285227E+03  0.98737117653E+03  0.00000000000E+00 0.  1.
<mgrwt>
<rscale>  0 0.45470179E+04</rscale>
<asrwt>0</asrwt>
<pdfrwt beam="1">  1        1 0.54083628E+00 0.45470179E+04</pdfrwt>
<pdfrwt beam="2">  1       -1 0.22620427E+00 0.45470179E+04</pdfrwt>
<totfact> 0.18169766E-02</totfact>
</mgrwt>
</event>
<event>
12    1  0.1755460E-007  0.1512600E+04  0.7818608E-02  0.8876117E-01
         -2   -1    0    0    0  501 -0.00000000000E+00  0.00000000000E+00  0.11139953803E+04  0.11139953803E+04  0.00000000000E+00 0.  1.
          2   -1    0    0  501    0  0.00000000000E+00 -0.00000000000E+00 -0.51345783015E+03  0.51345783015E+03  0.00000000000E+00 0. -1.
         23    2    1    2    0    0 -0.14521772538E+03  0.42232980919E+03  0.38035720733E+03  0.59407115771E+03  0.93799145833E+02 0.  0.
        254    2    1    2    0    0  0.14521772538E+03 -0.42232980919E+03  0.22018034286E+03  0.10333820528E+04  0.90551003756E+03 0.  0.
        -24    2    4    4    0    0  0.17246944440E+03 -0.67067995435E+03  0.10547455736E+02  0.69613136092E+03  0.70216183395E+02 0.  0.
         24    2    4    4    0    0 -0.27251719026E+02  0.24835014516E+03  0.20963288712E+03  0.33725069186E+03  0.85858202914E+02 0.  0.
         13    1    3    3    0    0 -0.34761168468E+02  0.23384228951E+02  0.27291983169E+02  0.50000133422E+02  0.00000000000E+00 0. -1.
        -13    1    3    3    0    0 -0.11045655691E+03  0.39894558024E+03  0.35306522417E+03  0.54407102429E+03  0.00000000000E+00 0.  1.
          4    1    6    6  502    0 -0.10687575289E+01  0.24886706187E+02 -0.59885646154E+01  0.25619392921E+02  0.00000000000E+00 0. -1.
          1    1    5    5  503    0  0.57841143679E+02 -0.34535698245E+03  0.23560693887E+02  0.35095890006E+03  0.00000000000E+00 0. -1.
         -2    1    5    5    0  503  0.11462830072E+03 -0.32532297189E+03 -0.13013238151E+02  0.34517246086E+03  0.00000000000E+00 0.  1.
         -3    1    6    6    0  502 -0.26182961497E+02  0.22346343897E+03  0.21562145174E+03  0.31163129894E+03  0.00000000000E+00 0.  1.
<mgrwt>
<rscale>  0 0.15125999E+04</rscale>
<asrwt>0</asrwt>
<pdfrwt beam="1">  1        2 0.78993513E-01 0.15125999E+04</pdfrwt>
<pdfrwt beam="2">  1       -2 0.17138390E+00 0.15125999E+04</pdfrwt>
<totfact> 0.11994588E+01</totfact>
</mgrwt>
</event>
<event>
12    1  0.1755460E-007  0.1263622E+04  0.7818608E-02  0.9058921E-01
          4   -1    0    0  501    0  0.00000000000E+00  0.00000000000E+00  0.17577428980E+04  0.17577428980E+04  0.00000000000E+00 0. -1.
         -4   -1    0    0    0  501 -0.00000000000E+00 -0.00000000000E+00 -0.22710095221E+03  0.22710095221E+03  0.00000000000E+00 0.  1.
         23    2    1    2    0    0  0.28816031297E+03  0.69723604784E+02  0.41809089929E+03  0.52235114307E+03  0.10076194501E+03 0.  0.
        254    2    1    2    0    0 -0.28816031297E+03 -0.69723604784E+02  0.11125510465E+04  0.14624927072E+04  0.90178563991E+03 0.  0.
        -24    2    4    4    0    0 -0.79543215578E+02  0.46025986176E+02  0.11920980297E+04  0.11983548213E+04  0.80691081422E+02 0.  0.
         24    2    4    4    0    0 -0.20861709739E+03 -0.11574959096E+03 -0.79546983233E+02  0.26413788587E+03  0.80759142392E+02 0.  0.
         13    1    3    3    0    0  0.22513969287E+03  0.76171982381E+02  0.26118709531E+03  0.35314126205E+03  0.00000000000E+00 0. -1.
        -13    1    3    3    0    0  0.63020620098E+02 -0.64483775971E+01  0.15690380399E+03  0.16920988102E+03  0.00000000000E+00 0.  1.
          2    1    6    6  502    0 -0.16669956153E+03 -0.93644985400E+02 -0.96032576330E+02  0.21396350815E+03  0.00000000000E+00 0. -1.
          3    1    5    5  503    0 -0.32259945670E+02 -0.19820741524E+02  0.52197163274E+03  0.52334305314E+03  0.00000000000E+00 0. -1.
         -4    1    5    5    0  503 -0.47283269908E+02  0.65846727700E+02  0.67012639701E+03  0.67501176814E+03  0.00000000000E+00 0.  1.
         -1    1    6    6    0  502 -0.41917535859E+02 -0.22104605561E+02  0.16485593097E+02  0.50174377716E+02  0.00000000000E+00 0.  1.
<mgrwt>
<rscale>  0 0.12636219E+04</rscale>
<asrwt>0</asrwt>
<pdfrwt beam="1">  1        4 0.27042198E+00 0.12636219E+04</pdfrwt>
<pdfrwt beam="2">  1       -4 0.34938609E-01 0.12636219E+04</pdfrwt>
<totfact> 0.74482042E-01</totfact>
</mgrwt>
</event>
<event>
12    1  0.1755460E-007  0.2813611E+04  0.7818608E-02  0.8299055E-01
         -2   -1    0    0    0  501 -0.00000000000E+00  0.00000000000E+00  0.82882367410E+03  0.82882367410E+03  0.00000000000E+00 0.  1.
          2   -1    0    0  501    0  0.00000000000E+00 -0.00000000000E+00 -0.23878447846E+04  0.23878447846E+04  0.00000000000E+00 0. -1.
         23    2    1    2    0    0  0.23492731833E+03 -0.71537523502E+03  0.45502009478E+03  0.88445341279E+03  0.90895439740E+02 0.  0.
        254    2    1    2    0    0 -0.23492731833E+03  0.71537523502E+03 -0.20140412053E+04  0.23322150459E+04  0.90327873440E+03 0.  0.
        -24    2    4    4    0    0  0.76151164808E+02  0.70296910544E+03 -0.18245348163E+04  0.19583510136E+04  0.79036912614E+02 0.  0.
         24    2    4    4    0    0 -0.31107848314E+03  0.12406129578E+02 -0.18950638899E+03  0.37386403230E+03  0.83294108168E+02 0.  0.
         11    1    3    3    0    0  0.24104622388E+03 -0.66092386545E+03  0.42626522081E+03  0.82257259646E+03  0.00000000000E+00 0.  1.
        -11    1    3    3    0    0 -0.61189055505E+01 -0.54451369570E+02  0.28754873969E+02  0.61880816334E+02  0.00000000000E+00 0. -1.
          2    1    6    6  502    0 -0.99998734427E+02 -0.34872237127E+02 -0.58876021854E+02  0.12117015209E+03  0.00000000000E+00 0. -1.
          3    1    5    5  503    0  0.18555994466E+02  0.46800584101E+03 -0.12558619881E+04  0.13403593270E+04  0.00000000000E+00 0. -1.
         -4    1    5    5    0  503  0.57595170342E+02  0.23496326444E+03 -0.56867282818E+03  0.61799168667E+03  0.00000000000E+00 0.  1.
         -1    1    6    6    0  502 -0.21107974871E+03  0.47278366705E+02 -0.13063036714E+03  0.25269388020E+03  0.00000000000E+00 0.  1.
<mgrwt>
<rscale>  0 0.28136114E+04</rscale>
<asrwt>0</asrwt>
<pdfrwt beam="1">  1        2 0.36736073E+00 0.28136114E+04</pdfrwt>
<pdfrwt beam="2">  1       -2 0.12751134E+00 0.28136114E+04</pdfrwt>
<totfact> 0.16011094E+00</totfact>
</mgrwt>
</event>
<event>
12    1  0.1755460E-007  0.1123202E+04  0.7818608E-02  0.9182868E-01
         -2   -1    0    0    0  501 -0.00000000000E+00  0.00000000000E+00  0.13764549572E+03  0.13764549572E+03  0.00000000000E+00 0.  1.
          2   -1    0    0  501    0  0.00000000000E+00 -0.00000000000E+00 -0.22913614063E+04  0.22913614063E+04  0.00000000000E+00 0. -1.
         23    2    1    2    0    0 -0.10057733541E+02 -0.10675016893E+03 -0.73139184552E+03  0.74503187055E+03  0.92960743695E+02 0.  0.
        254    2    1    2    0    0  0.10057733541E+02  0.10675016893E+03 -0.14223240651E+04  0.16839750315E+04  0.89513652814E+03 0.  0.
        -24    2    4    4    0    0  0.15141679460E+03 -0.31107516806E+03 -0.26417395250E+03  0.44237198389E+03  0.78805387342E+02 0.  0.
         24    2    4    4    0    0 -0.14135906106E+03  0.41782533699E+03 -0.11581501126E+04  0.12416030476E+04  0.75538388735E+02 0.  0.
         13    1    3    3    0    0  0.34017296033E+02 -0.20867985847E+02 -0.31932881226E+03  0.32181289533E+03  0.00000000000E+00 0.  1.
        -13    1    3    3    0    0 -0.44075029575E+02 -0.85882183085E+02 -0.41206303326E+03  0.42321897522E+03  0.00000000000E+00 0. -1.
          2    1    6    6  502    0 -0.22860629596E+02  0.44212028234E+02 -0.77901976554E+02  0.92444739045E+02  0.00000000000E+00 0. -1.
          3    1    5    5  503    0 -0.58161979821E+01 -0.41070163142E+01  0.11730055909E+01  0.72160712364E+01  0.00000000000E+00 0. -1.
         -4    1    5    5    0  503  0.15723299259E+03 -0.30696815175E+03 -0.26534695809E+03  0.43515591265E+03  0.00000000000E+00 0.  1.
         -1    1    6    6    0  502 -0.11849843147E+03  0.37361330876E+03 -0.10802481361E+04  0.11491583086E+04  0.00000000000E+00 0.  1.
<mgrwt>
<rscale>  0 0.11232018E+04</rscale>
<asrwt>0</asrwt>
<pdfrwt beam="1">  1        2 0.35251716E+00 0.11232018E+04</pdfrwt>
<pdfrwt beam="2">  1       -2 0.21176229E-01 0.11232018E+04</pdfrwt>
<totfact> 0.88296638E+01</totfact>
</mgrwt>
</event>
<event>
12    1  0.1755460E-007  0.1137761E+04  0.7818608E-02  0.9169149E-01
          2   -1    0    0  501    0  0.00000000000E+00  0.00000000000E+00  0.22641197966E+04  0.22641197966E+04  0.00000000000E+00 0.  1.
         -2   -1    0    0    0  501 -0.00000000000E+00 -0.00000000000E+00 -0.14293640308E+03  0.14293640308E+03  0.00000000000E+00 0. -1.
         23    2    1    2    0    0  0.11482222221E+02  0.15523059502E+03  0.16219998617E+03  0.24357490962E+03  0.93763116543E+02 0.  0.
        254    2    1    2    0    0 -0.11482222221E+02 -0.15523059502E+03  0.19589834073E+04  0.21634812901E+04  0.90487950750E+03 0.  0.
        -24    2    4    4    0    0 -0.12611676984E+03 -0.51145286236E+03  0.10538509667E+04  0.11808284899E+04  0.79149178690E+02 0.  0.
         24    2    4    4    0    0  0.11463454762E+03  0.35622226733E+03  0.90513244065E+03  0.98265280016E+03  0.79412891263E+02 0.  0.
         11    1    3    3    0    0 -0.17460787525E+01  0.14645213732E+03  0.95115549350E+02  0.17463746747E+03  0.00000000000E+00 0. -1.
        -11    1    3    3    0    0  0.13228300974E+02  0.87784577036E+01  0.67084436823E+02  0.68937442150E+02  0.00000000000E+00 0.  1.
          2    1    6    6  502    0  0.27652608908E+02  0.24984826177E+02  0.13000001933E+03  0.13523650892E+03  0.00000000000E+00 0. -1.
          3    1    5    5  503    0  0.10546613192E+02 -0.23017740786E+02  0.44006438643E+02  0.50770208615E+02  0.00000000000E+00 0. -1.
         -4    1    5    5    0  503 -0.13666338303E+03 -0.48843512157E+03  0.10098445280E+04  0.11300582813E+04  0.00000000000E+00 0.  1.
         -1    1    6    6    0  502  0.86981938714E+02  0.33123744115E+03  0.77513242132E+03  0.84741629124E+03  0.00000000000E+00 0.  1.
<mgrwt>
<rscale>  0 0.11377612E+04</rscale>
<asrwt>0</asrwt>
<pdfrwt beam="1">  1        2 0.34832610E+00 0.11377612E+04</pdfrwt>
<pdfrwt beam="2">  1       -2 0.21990217E-01 0.11377612E+04</pdfrwt>
<totfact> 0.85430500E+01</totfact>
</mgrwt>
</event>
<event>
12    1  0.1755460E-007  0.2023633E+04  0.7818608E-02  0.8595650E-01
         -2   -1    0    0    0  501 -0.00000000000E+00  0.00000000000E+00  0.33095038628E+03  0.33095038628E+03  0.00000000000E+00 0.  1.
          2   -1    0    0  501    0  0.00000000000E+00 -0.00000000000E+00 -0.30934324373E+04  0.30934324373E+04  0.00000000000E+00 0. -1.
         23    2    1    2    0    0  0.15485997956E+03 -0.22974191825E+03  0.17809382748E+03  0.34153157197E+03  0.90351762541E+02 0.  0.
        254    2    1    2    0    0 -0.15485997956E+03  0.22974191825E+03 -0.29405758785E+04  0.30828512516E+04  0.88330197556E+03 0.  0.
        -24    2    4    4    0    0  0.10192870136E+03 -0.15064981237E+03 -0.21966502306E+04  0.22056410994E+04  0.80595271443E+02 0.  0.
         24    2    4    4    0    0 -0.25678868092E+03  0.38039173062E+03 -0.74392564797E+03  0.87721015224E+03  0.73715575765E+02 0.  0.
         13    1    3    3    0    0  0.15119087051E+03 -0.15505186385E+03  0.13580385262E+03  0.25562168569E+03  0.00000000000E+00 0.  1.
        -13    1    3    3    0    0  0.36691090586E+01 -0.74690054395E+02  0.42289974858E+02  0.85909886278E+02  0.00000000000E+00 0. -1.
          2    1    6    6  502    0 -0.24049709246E+03  0.31228630349E+03 -0.61435828615E+03  0.72992992170E+03  0.00000000000E+00 0. -1.
          1    1    5    5  503    0  0.26726648773E+02  0.35642831113E+01 -0.35034880749E+03  0.35138483857E+03  0.00000000000E+00 0. -1.
         -2    1    5    5    0  503  0.75202052587E+02 -0.15421409548E+03 -0.18463014231E+04  0.18542562608E+04  0.00000000000E+00 0.  1.
         -1    1    6    6    0  502 -0.16291588460E+02  0.68105427126E+02 -0.12956736182E+03  0.14728023054E+03  0.00000000000E+00 0.  1.
<mgrwt>
<rscale>  0 0.20236330E+04</rscale>
<asrwt>0</asrwt>
<pdfrwt beam="1">  1        2 0.47591267E+00 0.20236330E+04</pdfrwt>
<pdfrwt beam="2">  1       -2 0.50915445E-01 0.20236330E+04</pdfrwt>
<totfact> 0.51515759E+00</totfact>
</mgrwt>
</event>
<event>
12    1  0.1755460E-007  0.1175591E+04  0.7818608E-02  0.9134494E-01
         -1   -1    0    0    0  501 -0.00000000000E+00  0.00000000000E+00  0.17540082680E+03  0.17540082680E+03  0.00000000000E+00 0.  1.
          1   -1    0    0  501    0  0.00000000000E+00 -0.00000000000E+00 -0.19697955325E+04  0.19697955325E+04  0.00000000000E+00 0. -1.
         23    2    1    2    0    0 -0.53427620066E+02 -0.19049468998E+03 -0.61170659315E+03  0.64936492101E+03  0.91362503506E+02 0.  0.
        254    2    1    2    0    0  0.53427620066E+02  0.19049468998E+03 -0.11826881125E+04  0.14958314383E+04  0.89421349950E+03 0.  0.
        -24    2    4    4    0    0  0.39959615271E+03 -0.90763417454E+02 -0.33662573917E+03  0.53601517106E+03  0.77976227946E+02 0.  0.
         24    2    4    4    0    0 -0.34616853264E+03  0.28125810743E+03 -0.84606237336E+03  0.95981626721E+03  0.80541611562E+02 0.  0.
         11    1    3    3    0    0 -0.53714253287E+01 -0.26662921684E+02 -0.20668471202E+02  0.34160639698E+02  0.00000000000E+00 0.  1.
        -11    1    3    3    0    0 -0.48056194738E+02 -0.16383176829E+03 -0.59103812195E+03  0.61520428132E+03  0.00000000000E+00 0. -1.
          4    1    6    6  502    0 -0.45863847960E+02  0.60264706931E+02 -0.96767469569E+02  0.12287908943E+03  0.00000000000E+00 0. -1.
          1    1    5    5  503    0  0.10174227077E+03 -0.58526113101E+02 -0.88146942406E+02  0.14678787086E+03  0.00000000000E+00 0. -1.
         -2    1    5    5    0  503  0.29785388193E+03 -0.32237304353E+02 -0.24847879677E+03  0.38922730020E+03  0.00000000000E+00 0.  1.
         -3    1    6    6    0  502 -0.30030468468E+03  0.22099340050E+03 -0.74929490380E+03  0.83693717779E+03  0.00000000000E+00 0.  1.
<mgrwt>
<rscale>  0 0.11755914E+04</rscale>
<asrwt>0</asrwt>
<pdfrwt beam="1">  1        1 0.30304547E+00 0.11755914E+04</pdfrwt>
<pdfrwt beam="2">  1       -1 0.26984742E-01 0.11755914E+04</pdfrwt>
<totfact> 0.38096820E+01</totfact>
</mgrwt>
</event>
<event>
12    1  0.1755460E-007  0.1679368E+04  0.7818608E-02  0.8773220E-01
         -2   -1    0    0    0  501 -0.00000000000E+00  0.00000000000E+00  0.32376586938E+03  0.32376586938E+03  0.00000000000E+00 0.  1.
          2   -1    0    0  501    0  0.00000000000E+00 -0.00000000000E+00 -0.21777145328E+04  0.21777145328E+04  0.00000000000E+00 0. -1.
         23    2    1    2    0    0 -0.50900157299E+03 -0.97560318296E+02 -0.10956056500E+04  0.12153789045E+04  0.90518088534E+02 0.  0.
        254    2    1    2    0    0  0.50900157299E+03  0.97560318296E+02 -0.75834301345E+03  0.12861014976E+04  0.90020682020E+03 0.  0.
        -24    2    4    4    0    0  0.27190755020E+03  0.48661781941E+03 -0.51715385298E+03  0.76442127609E+03  0.78493067586E+02 0.  0.
         24    2    4    4    0    0  0.23709402279E+03 -0.38905750111E+03 -0.24118916047E+03  0.52168022154E+03  0.79992047134E+02 0.  0.
         13    1    3    3    0    0 -0.39952480528E+03 -0.10622422645E+03 -0.91410365346E+03  0.10032393262E+04  0.00000000000E+00 0. -1.
        -13    1    3    3    0    0 -0.10947676771E+03  0.86639081525E+01 -0.18150199650E+03  0.21213957836E+03  0.00000000000E+00 0.  1.
          2    1    6    6  502    0  0.12626066097E+03 -0.27791286073E+03 -0.16904547049E+03  0.34893220511E+03  0.00000000000E+00 0. -1.
          1    1    5    5  503    0  0.13530751745E+03  0.18291892196E+03 -0.17569052497E+03  0.28746237467E+03  0.00000000000E+00 0. -1.
         -2    1    5    5    0  503  0.13660003275E+03  0.30369889745E+03 -0.34146332801E+03  0.47695890141E+03  0.00000000000E+00 0.  1.
         -1    1    6    6    0  502  0.11083336182E+03 -0.11114464038E+03 -0.72143689983E+02  0.17274801643E+03  0.00000000000E+00 0.  1.
<mgrwt>
<rscale>  0 0.16793685E+04</rscale>
<asrwt>0</asrwt>
<pdfrwt beam="1">  1        2 0.33503300E+00 0.16793685E+04</pdfrwt>
<pdfrwt beam="2">  1       -2 0.49810135E-01 0.16793685E+04</pdfrwt>
<totfact> 0.19329069E+01</totfact>
</mgrwt>
</event>
<event>
12    1  0.1755460E-007  0.1243312E+04  0.7818608E-02  0.9075768E-01
         -1   -1    0    0    0  501 -0.00000000000E+00  0.00000000000E+00  0.10129555898E+04  0.10129555898E+04  0.00000000000E+00 0.  1.
          1   -1    0    0  501    0  0.00000000000E+00 -0.00000000000E+00 -0.38151348291E+03  0.38151348291E+03  0.00000000000E+00 0. -1.
         23    2    1    2    0    0 -0.15524621820E+03 -0.27414919757E+02  0.40704927240E+03  0.44601135852E+03  0.91564489167E+02 0.  0.
        254    2    1    2    0    0  0.15524621820E+03  0.27414919757E+02  0.22439283454E+03  0.94845771423E+03  0.90794654325E+03 0.  0.
        -24    2    4    4    0    0  0.17532978882E+03  0.38668524741E+03 -0.11532795702E+03  0.44701637256E+03  0.79101733539E+02 0.  0.
         24    2    4    4    0    0 -0.20083570623E+02 -0.35927032766E+03  0.33972079156E+03  0.50144134168E+03  0.80961007751E+02 0.  0.
         11    1    3    3    0    0 -0.16421027651E+03 -0.13253950364E+02  0.38023442623E+03  0.41438979356E+03  0.00000000000E+00 0.  1.
        -11    1    3    3    0    0  0.89640583144E+01 -0.14160969392E+02  0.26814846166E+02  0.31621564960E+02  0.00000000000E+00 0. -1.
          2    1    6    6  502    0  0.17857201638E+02 -0.41925989654E+02  0.21349640023E+02  0.50323706023E+02  0.00000000000E+00 0. -1.
          3    1    5    5  503    0  0.28995037175E+02  0.14269543384E+03 -0.20088498105E+02  0.14699063499E+03  0.00000000000E+00 0. -1.
         -4    1    5    5    0  503  0.14633475164E+03  0.24398981358E+03 -0.95239458920E+02  0.30002573757E+03  0.00000000000E+00 0.  1.
         -1    1    6    6    0  502 -0.37940772261E+02 -0.31734433800E+03  0.31837115154E+03  0.45111763565E+03  0.00000000000E+00 0.  1.
<mgrwt>
<rscale>  0 0.12433121E+04</rscale>
<asrwt>0</asrwt>
<pdfrwt beam="1">  1        1 0.58694382E-01 0.12433121E+04</pdfrwt>
<pdfrwt beam="2">  1       -1 0.15583932E+00 0.12433121E+04</pdfrwt>
<totfact> 0.19822570E+01</totfact>
</mgrwt>
</event>
<event>
12    1  0.1755460E-007  0.1461402E+04  0.7818608E-02  0.8910534E-01
         -2   -1    0    0    0  501 -0.00000000000E+00  0.00000000000E+00  0.14764958776E+04  0.14764958776E+04  0.00000000000E+00 0.  1.
          2   -1    0    0  501    0  0.00000000000E+00 -0.00000000000E+00 -0.36161560325E+03  0.36161560325E+03  0.00000000000E+00 0. -1.
         23    2    1    2    0    0 -0.43644137090E+03  0.99684990700E+02  0.34175547271E+03  0.57074874562E+03  0.92407574868E+02 0.  0.
        254    2    1    2    0    0  0.43644137090E+03 -0.99684990700E+02  0.77312480165E+03  0.12673627352E+04  0.89892612385E+03 0.  0.
        -24    2    4    4    0    0  0.33554066591E+03 -0.11142699886E+03 -0.10687264140E+03  0.37790218978E+03  0.79904874741E+02 0.  0.
         24    2    4    4    0    0  0.10090070500E+03  0.11742008158E+02  0.87999744304E+03  0.88946054546E+03  0.80160683249E+02 0.  0.
         13    1    3    3    0    0 -0.14642905092E+03  0.39748691468E+02  0.17217786320E+03  0.22949213930E+03  0.00000000000E+00 0. -1.
        -13    1    3    3    0    0 -0.29001231998E+03  0.59936299233E+02  0.16957760951E+03  0.34125660631E+03  0.00000000000E+00 0.  1.
          4    1    6    6  502    0  0.39241780431E+02 -0.33991512867E+02  0.31012090801E+03  0.31443650847E+03  0.00000000000E+00 0. -1.
          3    1    5    5  503    0  0.19886648227E+03 -0.25109640636E+02 -0.50544604216E+02  0.20671992850E+03  0.00000000000E+00 0. -1.
         -4    1    5    5    0  503  0.13667418363E+03 -0.86317358222E+02 -0.56328037182E+02  0.17118226127E+03  0.00000000000E+00 0.  1.
         -3    1    6    6    0  502  0.61658924565E+02  0.45733521025E+02  0.56987653504E+03  0.57502403699E+03  0.00000000000E+00 0.  1.
<mgrwt>
<rscale>  0 0.14614020E+04</rscale>
<asrwt>0</asrwt>
<pdfrwt beam="1">  1        2 0.55633170E-01 0.14614020E+04</pdfrwt>
<pdfrwt beam="2">  1       -2 0.22715321E+00 0.14614020E+04</pdfrwt>
<totfact> 0.76877983E+00</totfact>
</mgrwt>
</event>
<event>
12    1  0.1755460E-007  0.2288798E+04  0.7818608E-02  0.8482351E-01
         -2   -1    0    0    0  501 -0.00000000000E+00  0.00000000000E+00  0.12161576664E+04  0.12161576664E+04  0.00000000000E+00 0.  1.
          2   -1    0    0  501    0  0.00000000000E+00 -0.00000000000E+00 -0.10768741658E+04  0.10768741658E+04  0.00000000000E+00 0. -1.
         23    2    1    2    0    0 -0.58924616323E+03  0.37917387785E+03 -0.60680659973E+03  0.93111082573E+03  0.88143347892E+02 0.  0.
        254    2    1    2    0    0  0.58924616323E+03 -0.37917387785E+03  0.74609010037E+03  0.13619210065E+04  0.89844004778E+03 0.  0.
        -24    2    4    4    0    0  0.45921532170E+03 -0.37498452375E+03  0.94056827418E+03  0.11146705352E+04  0.79558902297E+02 0.  0.
         24    2    4    4    0    0  0.13003084154E+03 -0.41893540967E+01 -0.19447817380E+03  0.24725047126E+03  0.79909104701E+02 0.  0.
         13    1    3    3    0    0 -0.23039837826E+03  0.98153992907E+02 -0.21563584875E+03  0.33047910417E+03  0.00000000000E+00 0.  1.
        -13    1    3    3    0    0 -0.35884778498E+03  0.28101988494E+03 -0.39117075098E+03  0.60063172156E+03  0.00000000000E+00 0. -1.
          2    1    6    6  502    0  0.13145320786E+03  0.10427513352E+02 -0.14664775503E+03  0.19721623399E+03  0.00000000000E+00 0. -1.
          3    1    5    5  503    0  0.45342170026E+03 -0.37908487462E+03  0.93116195730E+03  0.11028867445E+04  0.00000000000E+00 0. -1.
         -4    1    5    5    0  503  0.57936214361E+01  0.41003508705E+01  0.94063168719E+01  0.11783790719E+02  0.00000000000E+00 0.  1.
         -1    1    6    6    0  502 -0.14223663221E+01 -0.14616867448E+02 -0.47830418770E+02  0.50034237275E+02  0.00000000000E+00 0.  1.
<mgrwt>
<rscale>  0 0.22887977E+04</rscale>
<asrwt>0</asrwt>
<pdfrwt beam="1">  1        2 0.16567295E+00 0.22887977E+04</pdfrwt>
<pdfrwt beam="2">  1       -2 0.18710118E+00 0.22887977E+04</pdfrwt>
<totfact> 0.33126619E+00</totfact>
</mgrwt>
</event>
<event>
12    1  0.1755460E-007  0.1432639E+04  0.7818608E-02  0.8930526E-01
         -2   -1    0    0    0  501 -0.00000000000E+00  0.00000000000E+00  0.31012228044E+03  0.31012228044E+03  0.00000000000E+00 0.  1.
          2   -1    0    0  501    0  0.00000000000E+00 -0.00000000000E+00 -0.16545519160E+04  0.16545519160E+04  0.00000000000E+00 0. -1.
         23    2    1    2    0    0 -0.64816802176E+02 -0.14360153506E+03 -0.92762357249E+03  0.94527435644E+03  0.90749644655E+02 0.  0.
        254    2    1    2    0    0  0.64816802176E+02  0.14360153506E+03 -0.41680606304E+03  0.10193998400E+04  0.91685665228E+03 0.  0.
        -24    2    4    4    0    0 -0.18191924887E+03  0.44388034591E+03 -0.68924768824E+02  0.49114126028E+03  0.79653871219E+02 0.  0.
         24    2    4    4    0    0  0.24673605104E+03 -0.30027881085E+03 -0.34788129422E+03  0.52825857969E+03  0.83604360009E+02 0.  0.
         13    1    3    3    0    0 -0.41784681591E+01  0.11423762176E+02 -0.30470313999E+02  0.32808565552E+02  0.00000000000E+00 0.  1.
        -13    1    3    3    0    0 -0.60638334017E+02 -0.15502529723E+03 -0.89715325849E+03  0.91246579089E+03  0.00000000000E+00 0. -1.
          4    1    6    6  502    0  0.11866132707E+03 -0.14225493929E+03 -0.22163276176E+03  0.28885646847E+03  0.00000000000E+00 0. -1.
          1    1    5    5  503    0 -0.18798736919E+03  0.42971909990E+03 -0.58811510719E+02  0.47271190971E+03  0.00000000000E+00 0. -1.
         -2    1    5    5    0  503  0.60681203237E+01  0.14161246014E+02 -0.10113258104E+02  0.18429350570E+02  0.00000000000E+00 0.  1.
         -3    1    6    6    0  502  0.12807472398E+03 -0.15802387156E+03 -0.12624853246E+03  0.23940211121E+03  0.00000000000E+00 0.  1.
<mgrwt>
<rscale>  0 0.14326387E+04</rscale>
<asrwt>0</asrwt>
<pdfrwt beam="1">  1        2 0.25454645E+00 0.14326387E+04</pdfrwt>
<pdfrwt beam="2">  1       -2 0.47711120E-01 0.14326387E+04</pdfrwt>
<totfact> 0.42013356E+01</totfact>
</mgrwt>
</event>
<event>
12    1  0.1755460E-007  0.1796475E+04  0.7818608E-02  0.8708176E-01
         -1   -1    0    0    0  501 -0.00000000000E+00  0.00000000000E+00  0.19710067136E+04  0.19710067136E+04  0.00000000000E+00 0. -1.
          1   -1    0    0  501    0  0.00000000000E+00 -0.00000000000E+00 -0.40934964750E+03  0.40934964750E+03  0.00000000000E+00 0.  1.
         23    2    1    2    0    0 -0.51882738576E+03 -0.25249584881E+03  0.10358904903E+04  0.11892472478E+04  0.91125729876E+02 0.  0.
        254    2    1    2    0    0  0.51882738576E+03  0.25249584881E+03  0.52576657577E+03  0.11911091133E+04  0.89965238709E+03 0.  0.
        -24    2    4    4    0    0 -0.20905303418E+01 -0.29314609873E+03  0.20731954622E+03  0.36834509097E+03  0.82205269177E+02 0.  0.
         24    2    4    4    0    0  0.52091791610E+03  0.54564194754E+03  0.31844702956E+03  0.82276402229E+03  0.80321326614E+02 0.  0.
         11    1    3    3    0    0 -0.28279770781E+03 -0.12608968281E+03  0.46457743411E+03  0.55830577996E+03  0.00000000000E+00 0.  1.
        -11    1    3    3    0    0 -0.23602967795E+03 -0.12640616601E+03  0.57131305618E+03  0.63094146784E+03  0.00000000000E+00 0. -1.
          4    1    6    6  502    0  0.13774560898E+03  0.11492859873E+03  0.10605067110E+03  0.20839669009E+03  0.00000000000E+00 0. -1.
          3    1    5    5  503    0  0.78585237430E+01  0.25905062084E-01  0.16847815803E+02  0.18590480462E+02  0.00000000000E+00 0. -1.
         -4    1    5    5    0  503 -0.99490540848E+01 -0.29317200379E+03  0.19047173041E+03  0.34975461050E+03  0.00000000000E+00 0.  1.
         -3    1    6    6    0  502  0.38317230712E+03  0.43071334881E+03  0.21239635845E+03  0.61436733220E+03  0.00000000000E+00 0.  1.
<mgrwt>
<rscale>  0 0.17964753E+04</rscale>
<asrwt>0</asrwt>
<pdfrwt beam="1">  1        1 0.62976870E-01 0.17964753E+04</pdfrwt>
<pdfrwt beam="2">  1       -1 0.30323180E+00 0.17964753E+04</pdfrwt>
<totfact> 0.17300254E+00</totfact>
</mgrwt>
</event>
<event>
12    1  0.1755460E-007  0.1735558E+04  0.7818608E-02  0.8741340E-01
         -2   -1    0    0    0  501 -0.00000000000E+00  0.00000000000E+00  0.71673441080E+03  0.71673441080E+03  0.00000000000E+00 0.  1.
          2   -1    0    0  501    0  0.00000000000E+00 -0.00000000000E+00 -0.10506541244E+04  0.10506541244E+04  0.00000000000E+00 0. -1.
         23    2    1    2    0    0 -0.46202650602E+03 -0.41505698845E+03 -0.28909230935E+03  0.69093358480E+03  0.89855769751E+02 0.  0.
        254    2    1    2    0    0  0.46202650602E+03  0.41505698845E+03 -0.44827404239E+02  0.10764549504E+04  0.87806888575E+03 0.  0.
        -24    2    4    4    0    0  0.50682733317E+03  0.41664412551E+02 -0.31763153395E+03  0.60493663550E+03  0.80303628084E+02 0.  0.
         24    2    4    4    0    0 -0.44800827153E+02  0.37339257590E+03  0.27280412971E+03  0.47151831489E+03  0.80487876328E+02 0.  0.
         11    1    3    3    0    0 -0.36496422360E+02 -0.51245699547E+02 -0.56947853874E+02  0.84859699669E+02  0.00000000000E+00 0.  1.
        -11    1    3    3    0    0 -0.42553008366E+03 -0.36381128890E+03 -0.23214445548E+03  0.60607388513E+03  0.00000000000E+00 0. -1.
          2    1    6    6  502    0 -0.28491150704E+01  0.66149574221E+02  0.14137961613E+02  0.67703512353E+02  0.00000000000E+00 0. -1.
          3    1    5    5  503    0  0.11787901032E+03  0.41412684835E+02 -0.61774034919E+02  0.13937899027E+03  0.00000000000E+00 0. -1.
         -4    1    5    5    0  503  0.38894832286E+03  0.25172771531E+00 -0.25585749903E+03  0.46555764523E+03  0.00000000000E+00 0.  1.
         -1    1    6    6    0  502 -0.41951712083E+02  0.30724300168E+03  0.25866616810E+03  0.40381480253E+03  0.00000000000E+00 0.  1.
<mgrwt>
<rscale>  0 0.17355575E+04</rscale>
<asrwt>0</asrwt>
<pdfrwt beam="1">  1        2 0.16163910E+00 0.17355575E+04</pdfrwt>
<pdfrwt beam="2">  1       -2 0.11026683E+00 0.17355575E+04</pdfrwt>
<totfact> 0.14496707E+01</totfact>
</mgrwt>
</event>
<event>
12    1  0.1755460E-007  0.1352942E+04  0.7818608E-02  0.8988604E-01
         -2   -1    0    0    0  501 -0.00000000000E+00  0.00000000000E+00  0.25724321468E+03  0.25724321468E+03  0.00000000000E+00 0. -1.
          2   -1    0    0  501    0  0.00000000000E+00 -0.00000000000E+00 -0.17789124531E+04  0.17789124531E+04  0.00000000000E+00 0.  1.
         23    2    1    2    0    0 -0.10047651676E+03  0.27386112274E+03 -0.92447912000E+02  0.32377690710E+03  0.10578007453E+03 0.  0.
        254    2    1    2    0    0  0.10047651676E+03 -0.27386112274E+03 -0.14292213264E+04  0.17123787607E+04  0.89692361725E+03 0.  0.
        -24    2    4    4    0    0  0.34967094708E+03 -0.19034101289E+03 -0.19908938531E+03  0.45202552625E+03  0.78683038979E+02 0.  0.
         24    2    4    4    0    0 -0.24919443031E+03 -0.83520109847E+02 -0.12301319411E+04  0.12603532344E+04  0.78690597610E+02 0.  0.
         13    1    3    3    0    0 -0.73687443193E+02  0.61176539834E+02 -0.33374272888E+02  0.10142115362E+03  0.00000000000E+00 0.  1.
        -13    1    3    3    0    0 -0.26789073570E+02  0.21268458290E+03 -0.59073639112E+02  0.22235575348E+03  0.00000000000E+00 0. -1.
          2    1    6    6  502    0 -0.21669655869E+03 -0.76803569365E+02 -0.91347392862E+03  0.94196114839E+03  0.00000000000E+00 0. -1.
          3    1    5    5  503    0  0.25332206045E+03 -0.97422083447E+02 -0.14437343611E+03  0.30741961178E+03  0.00000000000E+00 0. -1.
         -4    1    5    5    0  503  0.96348886629E+02 -0.92918929442E+02 -0.54715949195E+02  0.14460591447E+03  0.00000000000E+00 0.  1.
         -1    1    6    6    0  502 -0.32497871619E+02 -0.67165404819E+01 -0.31665801250E+03  0.31839208604E+03  0.00000000000E+00 0.  1.
<mgrwt>
<rscale>  0 0.13529422E+04</rscale>
<asrwt>0</asrwt>
<pdfrwt beam="1">  1        2 0.27367883E+00 0.13529422E+04</pdfrwt>
<pdfrwt beam="2">  1       -2 0.39575880E-01 0.13529422E+04</pdfrwt>
<totfact> 0.52280392E+01</totfact>
</mgrwt>
</event>
<event>
12    1  0.1755460E-007  0.1390504E+04  0.7818608E-02  0.8960721E-01
         -3   -1    0    0    0  501 -0.00000000000E+00  0.00000000000E+00  0.48061258511E+03  0.48061258511E+03  0.00000000000E+00 0.  1.
          3   -1    0    0  501    0  0.00000000000E+00 -0.00000000000E+00 -0.10057490754E+04  0.10057490754E+04  0.00000000000E+00 0. -1.
         23    2    1    2    0    0 -0.34007058291E+02  0.38251182533E+03 -0.26914785355E+03  0.47811600274E+03  0.93180300861E+02 0.  0.
        254    2    1    2    0    0  0.34007058291E+02 -0.38251182533E+03 -0.25598863677E+03  0.10082456578E+04  0.89641360309E+03 0.  0.
        -24    2    4    4    0    0  0.10212407606E+03 -0.55268959939E+03  0.12211437416E+03  0.58046727330E+03  0.78327612055E+02 0.  0.
         24    2    4    4    0    0 -0.68117017769E+02  0.17017777406E+03 -0.37810301094E+03  0.42777838451E+03  0.80200102748E+02 0.  0.
         13    1    3    3    0    0 -0.29326895331E+02  0.36238457500E+03 -0.22037063751E+03  0.42514217018E+03  0.00000000000E+00 0. -1.
        -13    1    3    3    0    0 -0.46801629595E+01  0.20127250335E+02 -0.48777216041E+02  0.52973832560E+02  0.00000000000E+00 0.  1.
          2    1    6    6  502    0 -0.79977065406E+02  0.13716051275E+03 -0.26068286084E+03  0.30522924366E+03  0.00000000000E+00 0. -1.
          1    1    5    5  503    0  0.94200482992E+02 -0.32620659066E+03  0.92566074436E+02  0.35192747680E+03  0.00000000000E+00 0. -1.
         -2    1    5    5    0  503  0.79235930676E+01 -0.22648300872E+03  0.29548299726E+02  0.22853979650E+03  0.00000000000E+00 0.  1.
         -1    1    6    6    0  502  0.11860047638E+02  0.33017261306E+02 -0.11742015010E+03  0.12254914085E+03  0.00000000000E+00 0.  1.
<mgrwt>
<rscale>  0 0.13905045E+04</rscale>
<asrwt>0</asrwt>
<pdfrwt beam="1">  1        3 0.15473063E+00 0.13905045E+04</pdfrwt>
<pdfrwt beam="2">  1       -3 0.73940398E-01 0.13905045E+04</pdfrwt>
<totfact> 0.13185831E+00</totfact>
</mgrwt>
</event>
<event>
12    1  0.1755460E-007  0.1529286E+04  0.7818608E-02  0.8865208E-01
          2   -1    0    0  501    0  0.00000000000E+00  0.00000000000E+00  0.73896770317E+03  0.73896770317E+03  0.00000000000E+00 0. -1.
         -2   -1    0    0    0  501 -0.00000000000E+00 -0.00000000000E+00 -0.79121039156E+03  0.79121039156E+03  0.00000000000E+00 0.  1.
         23    2    1    2    0    0 -0.20485932229E+02 -0.15133408368E+03 -0.47791911723E+03  0.51041897823E+03  0.93803904064E+02 0.  0.
        254    2    1    2    0    0  0.20485932229E+02  0.15133408368E+03  0.42567642884E+03  0.10197591165E+04  0.91399483331E+03 0.  0.
        -24    2    4    4    0    0 -0.27968503794E+03  0.16522125283E+03  0.58228695492E+03  0.67167148248E+03  0.81010491135E+02 0.  0.
         24    2    4    4    0    0  0.30017097017E+03 -0.13887169150E+02 -0.15661052607E+03  0.34808763402E+03  0.79640939731E+02 0.  0.
         11    1    3    3    0    0 -0.36442218862E+02 -0.62879969044E+02 -0.11118340545E+03  0.13282949774E+03  0.00000000000E+00 0. -1.
        -11    1    3    3    0    0  0.15956286633E+02 -0.88454114631E+02 -0.36673571178E+03  0.37758948049E+03  0.00000000000E+00 0.  1.
          2    1    6    6  502    0  0.76810725113E+02  0.31341458075E+02 -0.40315217900E+02  0.92236062801E+02  0.00000000000E+00 0. -1.
          1    1    5    5  503    0 -0.42343559350E+01  0.22844230228E+02  0.59103837600E+02  0.63506316567E+02  0.00000000000E+00 0. -1.
         -4    1    5    5    0  503 -0.27545068201E+03  0.14237702260E+03  0.52318311732E+03  0.60816516591E+03  0.00000000000E+00 0.  1.
         -1    1    6    6    0  502  0.22336024506E+03 -0.45228627225E+02 -0.11629530817E+03  0.25585157122E+03  0.00000000000E+00 0.  1.
<mgrwt>
<rscale>  0 0.15292860E+04</rscale>
<asrwt>0</asrwt>
<pdfrwt beam="1">  1        2 0.11368734E+00 0.15292860E+04</pdfrwt>
<pdfrwt beam="2">  1       -2 0.12172468E+00 0.15292860E+04</pdfrwt>
<totfact> 0.18883325E+01</totfact>
</mgrwt>
</event>
<event>
12    1  0.1755460E-007  0.1930469E+04  0.7818608E-02  0.8639837E-01
          1   -1    0    0  501    0  0.00000000000E+00  0.00000000000E+00  0.18124361009E+04  0.18124361009E+04  0.00000000000E+00 0. -1.
         -1   -1    0    0    0  501 -0.00000000000E+00 -0.00000000000E+00 -0.51404735758E+03  0.51404735758E+03  0.00000000000E+00 0.  1.
         23    2    1    2    0    0 -0.64295765943E+03  0.93342097014E+02  0.59263129530E+02  0.65926144483E+03  0.94901186593E+02 0.  0.
        254    2    1    2    0    0  0.64295765943E+03 -0.93342097014E+02  0.12391256138E+04  0.16672220137E+04  0.90669159983E+03 0.  0.
        -24    2    4    4    0    0  0.26244144037E+03  0.23228868048E+03  0.35655123210E+02  0.36123761442E+03  0.79923623256E+02 0.  0.
         24    2    4    4    0    0  0.38051621907E+03 -0.32563077750E+03  0.12034704906E+04  0.13059843993E+04  0.80162542064E+02 0.  0.
         13    1    3    3    0    0 -0.49109075871E+03  0.69905682132E+02  0.42908834542E+01  0.49605982439E+03  0.00000000000E+00 0.  1.
        -13    1    3    3    0    0 -0.15186690072E+03  0.23436414882E+02  0.54972246076E+02  0.16320162044E+03  0.00000000000E+00 0. -1.
          4    1    6    6  502    0  0.13099450347E+03 -0.16023374408E+03  0.53002588149E+03  0.56900074493E+03  0.00000000000E+00 0. -1.
          1    1    5    5  503    0  0.95605240117E+02  0.52940379237E+02 -0.17257846608E+02  0.11063850578E+03  0.00000000000E+00 0. -1.
         -2    1    5    5    0  503  0.16683620025E+03  0.17934830125E+03  0.52912969818E+02  0.25059910864E+03  0.00000000000E+00 0.  1.
         -3    1    6    6    0  502  0.24952171559E+03 -0.16539703342E+03  0.67344460913E+03  0.73698365435E+03  0.00000000000E+00 0.  1.
<mgrwt>
<rscale>  0 0.19304694E+04</rscale>
<asrwt>0</asrwt>
<pdfrwt beam="1">  1        1 0.27883632E+00 0.19304694E+04</pdfrwt>
<pdfrwt beam="2">  1       -1 0.79084210E-01 0.19304694E+04</pdfrwt>
<totfact> 0.59599478E+00</totfact>
</mgrwt>
</event>
<event>
12    1  0.1755460E-007  0.1292750E+04  0.7818608E-02  0.9035334E-01
         -2   -1    0    0    0  501 -0.00000000000E+00  0.00000000000E+00  0.97237200546E+03  0.97237200546E+03  0.00000000000E+00 0.  1.
          2   -1    0    0  501    0  0.00000000000E+00 -0.00000000000E+00 -0.42967189142E+03  0.42967189142E+03  0.00000000000E+00 0. -1.
         23    2    1    2    0    0 -0.45257351447E+02  0.30922289812E+03  0.64002805541E+02  0.32931767183E+03  0.81772497075E+02 0.  0.
        254    2    1    2    0    0  0.45257351447E+02 -0.30922289812E+03  0.47869730849E+03  0.10727262251E+04  0.90770227067E+03 0.  0.
        -24    2    4    4    0    0  0.32443379499E+03  0.17589655700E+03  0.29450309676E+03  0.47879896968E+03  0.79495240488E+02 0.  0.
         24    2    4    4    0    0 -0.27917644354E+03 -0.48511945512E+03  0.18419421173E+03  0.59392725538E+03  0.74442626782E+02 0.  0.
         13    1    3    3    0    0  0.81017215958E+01  0.27377655076E+02  0.28389975500E+02  0.40263688345E+02  0.00000000000E+00 0.  1.
        -13    1    3    3    0    0 -0.53359073043E+02  0.28184524304E+03  0.35612830042E+02  0.28905398348E+03  0.00000000000E+00 0. -1.
          2    1    6    6  502    0 -0.10959633241E+03 -0.16094368592E+03  0.30442961327E+02  0.19708120157E+03  0.00000000000E+00 0. -1.
          3    1    5    5  503    0  0.14164215933E+03  0.11060382161E+03  0.17510581362E+03  0.25091383504E+03  0.00000000000E+00 0. -1.
         -4    1    5    5    0  503  0.18279163566E+03  0.65292735398E+02  0.11939728314E+03  0.22788513463E+03  0.00000000000E+00 0.  1.
         -1    1    6    6    0  502 -0.16958011113E+03 -0.32417576920E+03  0.15375125040E+03  0.39684605382E+03  0.00000000000E+00 0.  1.
<mgrwt>
<rscale>  0 0.12927504E+04</rscale>
<asrwt>0</asrwt>
<pdfrwt beam="1">  1        2 0.66103368E-01 0.12927504E+04</pdfrwt>
<pdfrwt beam="2">  1       -2 0.14959569E+00 0.12927504E+04</pdfrwt>
<totfact> 0.21676180E+01</totfact>
</mgrwt>
</event>
<event>
12    1  0.1755460E-007  0.1388467E+04  0.7818608E-02  0.8962209E-01
          2   -1    0    0  501    0  0.00000000000E+00  0.00000000000E+00  0.45907440939E+03  0.45907440939E+03  0.00000000000E+00 0. -1.
         -2   -1    0    0    0  501 -0.00000000000E+00 -0.00000000000E+00 -0.10498524493E+04  0.10498524493E+04  0.00000000000E+00 0.  1.
         23    2    1    2    0    0  0.94753030129E+02 -0.36001564482E+03 -0.26903793056E+02  0.38631654543E+03  0.99635625956E+02 0.  0.
        254    2    1    2    0    0 -0.94753030129E+02  0.36001564482E+03 -0.56387424683E+03  0.11226103132E+04  0.89649893915E+03 0.  0.
        -24    2    4    4    0    0  0.37125187456E+03  0.34731791935E+02 -0.32517549102E+03  0.50125828433E+03  0.80538909310E+02 0.  0.
         24    2    4    4    0    0 -0.46600490469E+03  0.32528385289E+03 -0.23869875581E+03  0.62135202890E+03  0.78301287631E+02 0.  0.
         11    1    3    3    0    0  0.73659734068E+02 -0.30665435245E+03 -0.58584979793E+02  0.32077226838E+03  0.00000000000E+00 0. -1.
        -11    1    3    3    0    0  0.21093296061E+02 -0.53361292368E+02  0.31681186737E+02  0.65544277057E+02  0.00000000000E+00 0.  1.
          4    1    6    6  502    0 -0.24607990655E+03  0.12610958676E+03 -0.12745122541E+03  0.30447128459E+03  0.00000000000E+00 0. -1.
          3    1    5    5  503    0  0.78335661957E+02  0.33788385133E+02 -0.47500676990E+02  0.97644483810E+02  0.00000000000E+00 0. -1.
         -4    1    5    5    0  503  0.29291621261E+03  0.94340680163E+00 -0.27767481403E+03  0.40361380052E+03  0.00000000000E+00 0.  1.
         -3    1    6    6    0  502 -0.21992499814E+03  0.19917426612E+03 -0.11124753040E+03  0.31688074431E+03  0.00000000000E+00 0.  1.
<mgrwt>
<rscale>  0 0.13884673E+04</rscale>
<asrwt>0</asrwt>
<pdfrwt beam="1">  1        2 0.70626832E-01 0.13884673E+04</pdfrwt>
<pdfrwt beam="2">  1       -2 0.16151576E+00 0.13884673E+04</pdfrwt>
<totfact> 0.16237192E+01</totfact>
</mgrwt>
</event>
<event>
12    1  0.1755460E-007  0.1419888E+04  0.7818608E-02  0.8939547E-01
          2   -1    0    0  501    0  0.00000000000E+00  0.00000000000E+00  0.19182449832E+04  0.19182449832E+04  0.00000000000E+00 0. -1.
         -2   -1    0    0    0  501 -0.00000000000E+00 -0.00000000000E+00 -0.26275086916E+03  0.26275086916E+03  0.00000000000E+00 0.  1.
         23    2    1    2    0    0 -0.81073634498E+02 -0.39618000865E+03  0.66461914505E+03  0.78328104133E+03  0.90989275602E+02 0.  0.
        254    2    1    2    0    0  0.81073634498E+02  0.39618000865E+03  0.99087496903E+03  0.13977148111E+04  0.89902277800E+03 0.  0.
        -24    2    4    4    0    0  0.48021367755E+03  0.17283715001E+03  0.58906959296E+03  0.78362568511E+03  0.81168790072E+02 0.  0.
         24    2    4    4    0    0 -0.39914004305E+03  0.22334285864E+03  0.40180537607E+03  0.61408912597E+03  0.80393332558E+02 0.  0.
         11    1    3    3    0    0  0.43649290400E+01 -0.69665245977E+01 -0.15811461852E+00  0.82225343251E+01  0.00000000000E+00 0.  1.
        -11    1    3    3    0    0 -0.85438563538E+02 -0.38921348406E+03  0.66477725967E+03  0.77505850700E+03  0.00000000000E+00 0. -1.
          4    1    6    6  502    0 -0.10017372814E+03  0.96532421018E+02  0.10730681040E+03  0.17569301544E+03  0.00000000000E+00 0. -1.
          3    1    5    5  503    0  0.13329252519E+03  0.30357947929E+02  0.20845561100E+03  0.24928346121E+03  0.00000000000E+00 0. -1.
         -4    1    5    5    0  503  0.34692115236E+03  0.14247920208E+03  0.38061398196E+03  0.53434222390E+03  0.00000000000E+00 0.  1.
         -3    1    6    6    0  502 -0.29896631491E+03  0.12681043763E+03  0.29449856567E+03  0.43839611052E+03  0.00000000000E+00 0.  1.
<mgrwt>
<rscale>  0 0.14198881E+04</rscale>
<asrwt>0</asrwt>
<pdfrwt beam="1">  1        2 0.29511460E+00 0.14198881E+04</pdfrwt>
<pdfrwt beam="2">  1       -2 0.40423212E-01 0.14198881E+04</pdfrwt>
<totfact> 0.41782563E+01</totfact>
</mgrwt>
</event>
<event>
12    1  0.1755460E-007  0.2017426E+04  0.7818608E-02  0.8598516E-01
         -2   -1    0    0    0  501 -0.00000000000E+00  0.00000000000E+00  0.38108611330E+03  0.38108611330E+03  0.00000000000E+00 0.  1.
          2   -1    0    0  501    0  0.00000000000E+00 -0.00000000000E+00 -0.26700057189E+04  0.26700057189E+04  0.00000000000E+00 0. -1.
         23    2    1    2    0    0  0.19958463182E+03 -0.18465700512E+03 -0.20631696609E+04  0.20829466504E+04  0.89807928161E+02 0.  0.
        254    2    1    2    0    0 -0.19958463182E+03  0.18465700512E+03 -0.22574994471E+03  0.96814518181E+03  0.90133779502E+03 0.  0.
        -24    2    4    4    0    0 -0.55326895371E+03  0.81042218526E+02 -0.11999602000E+03  0.57650295180E+03  0.72678967391E+02 0.  0.
         24    2    4    4    0    0  0.35368432188E+03  0.10361478660E+03 -0.10575392471E+03  0.39164223001E+03  0.79819297104E+02 0.  0.
         11    1    3    3    0    0  0.14962149318E+03 -0.10921229913E+03 -0.16254792300E+04  0.16360001970E+04  0.00000000000E+00 0. -1.
        -11    1    3    3    0    0  0.49963138644E+02 -0.75444705993E+02 -0.43769043093E+03  0.44694645340E+03  0.00000000000E+00 0.  1.
          4    1    6    6  502    0  0.25888118908E+03  0.40043276050E+02 -0.60507486430E+02  0.26885700647E+03  0.00000000000E+00 0. -1.
          1    1    5    5  503    0 -0.39058044263E+03  0.28831614453E+02 -0.64939704148E+02  0.39699056580E+03  0.00000000000E+00 0. -1.
         -2    1    5    5    0  503 -0.16268851108E+03  0.52210604073E+02 -0.55056315851E+02  0.17951238601E+03  0.00000000000E+00 0.  1.
         -3    1    6    6    0  502  0.94803132806E+02  0.63571510546E+02 -0.45246438280E+02  0.12278522354E+03  0.00000000000E+00 0.  1.
<mgrwt>
<rscale>  0 0.20174262E+04</rscale>
<asrwt>0</asrwt>
<pdfrwt beam="1">  1        2 0.41077011E+00 0.20174262E+04</pdfrwt>
<pdfrwt beam="2">  1       -2 0.58628633E-01 0.20174262E+04</pdfrwt>
<totfact> 0.69878648E+00</totfact>
</mgrwt>
</event>
<event>
12    1  0.1755460E-007  0.1694657E+04  0.7818608E-02  0.8764418E-01
         -2   -1    0    0    0  501 -0.00000000000E+00  0.00000000000E+00  0.24464895416E+03  0.24464895416E+03  0.00000000000E+00 0.  1.
          2   -1    0    0  501    0  0.00000000000E+00 -0.00000000000E+00 -0.29346756328E+04  0.29346756328E+04  0.00000000000E+00 0. -1.
         23    2    1    2    0    0 -0.20974713044E+03 -0.51687662069E+03 -0.13899759841E+04  0.15006489494E+04  0.93588104105E+02 0.  0.
        254    2    1    2    0    0  0.20974713044E+03  0.51687662069E+03 -0.13000506946E+04  0.16786756376E+04  0.90369507469E+03 0.  0.
        -24    2    4    4    0    0 -0.53153025132E+02  0.53056834142E+03 -0.12957226133E+04  0.14034121125E+04  0.79626992201E+02 0.  0.
         24    2    4    4    0    0  0.26290015558E+03 -0.13691720732E+02 -0.43280812915E+01  0.27526352510E+03  0.80295211229E+02 0.  0.
         13    1    3    3    0    0 -0.18094704843E+03 -0.47100612955E+03 -0.13122596384E+04  0.14059210387E+04  0.00000000000E+00 0. -1.
        -13    1    3    3    0    0 -0.28800082010E+02 -0.45870491137E+02 -0.77716345629E+02  0.94727910665E+02  0.00000000000E+00 0.  1.
          4    1    6    6  502    0  0.10489444363E+03 -0.44071345773E+02 -0.10386551498E+02  0.11424976269E+03  0.00000000000E+00 0. -1.
          1    1    5    5  503    0 -0.28591610189E+02  0.22353674022E+03 -0.65074632429E+03  0.68866314913E+03  0.00000000000E+00 0. -1.
         -2    1    5    5    0  503 -0.24561414943E+02  0.30703160120E+03 -0.64497628899E+03  0.71474896334E+03  0.00000000000E+00 0.  1.
         -3    1    6    6    0  502  0.15800571195E+03  0.30379625041E+02  0.60584702065E+01  0.16101376242E+03  0.00000000000E+00 0.  1.
<mgrwt>
<rscale>  0 0.16946567E+04</rscale>
<asrwt>0</asrwt>
<pdfrwt beam="1">  1        2 0.45148857E+00 0.16946567E+04</pdfrwt>
<pdfrwt beam="2">  1       -2 0.37638300E-01 0.16946567E+04</pdfrwt>
<totfact> 0.12176434E+01</totfact>
</mgrwt>
</event>
<event>
12    1  0.1755460E-007  0.1508626E+04  0.7818608E-02  0.8878737E-01
         -2   -1    0    0    0  501 -0.00000000000E+00  0.00000000000E+00  0.21341040477E+03  0.21341040477E+03  0.00000000000E+00 0.  1.
          2   -1    0    0  501    0  0.00000000000E+00 -0.00000000000E+00 -0.26661687740E+04  0.26661687740E+04  0.00000000000E+00 0. -1.
         23    2    1    2    0    0  0.29146178516E+03 -0.22760994698E+03 -0.33425078940E+03  0.50703366383E+03  0.92753899492E+02 0.  0.
        254    2    1    2    0    0 -0.29146178516E+03  0.22760994698E+03 -0.21185075798E+04  0.23725455149E+04  0.10020686576E+04 0.  0.
        -24    2    4    4    0    0 -0.55488050406E+03 -0.14639821645E+03 -0.14197629687E+04  0.15335962288E+04  0.82859485503E+02 0.  0.
         24    2    4    4    0    0  0.26341871890E+03  0.37400816343E+03 -0.69874461117E+03  0.83894928611E+03  0.79500599014E+02 0.  0.
         13    1    3    3    0    0  0.20593869370E+01  0.78510293562E+01 -0.59226485042E+01  0.10047761035E+02  0.00000000000E+00 0. -1.
        -13    1    3    3    0    0  0.28940239822E+03 -0.23546097634E+03 -0.32832814090E+03  0.49698590280E+03  0.00000000000E+00 0.  1.
          4    1    6    6  502    0 -0.54123145594E+01  0.37956179864E+01 -0.73981881820E+01  0.99213433145E+01  0.00000000000E+00 0. -1.
          1    1    5    5  503    0  0.22243332001E+01 -0.17399220633E+01 -0.18694564728E+02  0.18906658545E+02  0.00000000000E+00 0. -1.
         -2    1    5    5    0  503 -0.55710483726E+03 -0.14465829439E+03 -0.14010684039E+04  0.15146895703E+04  0.00000000000E+00 0.  1.
         -3    1    6    6    0  502  0.26883103346E+03  0.37021254545E+03 -0.69134642299E+03  0.82902794280E+03  0.00000000000E+00 0.  1.
<mgrwt>
<rscale>  0 0.15086261E+04</rscale>
<asrwt>0</asrwt>
<pdfrwt beam="1">  1        2 0.41017981E+00 0.15086261E+04</pdfrwt>
<pdfrwt beam="2">  1       -2 0.32832370E-01 0.15086261E+04</pdfrwt>
<totfact> 0.23332537E+01</totfact>
</mgrwt>
</event>
<event>
12    1  0.1755460E-007  0.1138536E+04  0.7818608E-02  0.9168426E-01
         -2   -1    0    0    0  501 -0.00000000000E+00  0.00000000000E+00  0.28326445314E+03  0.28326445314E+03  0.00000000000E+00 0. -1.
          2   -1    0    0  501    0  0.00000000000E+00 -0.00000000000E+00 -0.11440399485E+04  0.11440399485E+04  0.00000000000E+00 0.  1.
         23    2    1    2    0    0 -0.11122703384E+03 -0.14390931329E+03 -0.15873366226E+03  0.25737091358E+03  0.89230421477E+02 0.  0.
        254    2    1    2    0    0  0.11122703384E+03  0.14390931329E+03 -0.70204183309E+03  0.11699334880E+04  0.91804155001E+03 0.  0.
        -24    2    4    4    0    0 -0.15981789200E+03 -0.33407802079E+03 -0.24923692114E+03  0.45349582254E+03  0.79934570898E+02 0.  0.
         24    2    4    4    0    0  0.27104492584E+03  0.47798733407E+03 -0.45280491195E+03  0.71643766551E+03  0.79456887155E+02 0.  0.
         11    1    3    3    0    0 -0.26509781171E+02 -0.98164733806E+02 -0.10878496081E+03  0.14890685397E+03  0.00000000000E+00 0.  1.
        -11    1    3    3    0    0 -0.84717252665E+02 -0.45744579479E+02 -0.49948701450E+02  0.10846405961E+03  0.00000000000E+00 0. -1.
          2    1    6    6  502    0  0.19688818969E+03  0.26943923794E+03 -0.28044189611E+03  0.43590150180E+03  0.00000000000E+00 0. -1.
          3    1    5    5  503    0 -0.15609258136E+03 -0.25535448587E+03 -0.18523530581E+03  0.35197006396E+03  0.00000000000E+00 0. -1.
         -4    1    5    5    0  503 -0.37253106435E+01 -0.78723534917E+02 -0.64001615331E+02  0.10152575857E+03  0.00000000000E+00 0.  1.
         -1    1    6    6    0  502  0.74156736148E+02  0.20854809613E+03 -0.17236301584E+03  0.28053616371E+03  0.00000000000E+00 0.  1.
<mgrwt>
<rscale>  0 0.11385356E+04</rscale>
<asrwt>0</asrwt>
<pdfrwt beam="1">  1        2 0.17600615E+00 0.11385356E+04</pdfrwt>
<pdfrwt beam="2">  1       -2 0.43579146E-01 0.11385356E+04</pdfrwt>
<totfact> 0.10119952E+02</totfact>
</mgrwt>
</event>
<event>
12    1  0.1755460E-007  0.2428128E+04  0.7818608E-02  0.8429047E-01
          1   -1    0    0  501    0  0.00000000000E+00  0.00000000000E+00  0.25058001212E+04  0.25058001212E+04  0.00000000000E+00 0. -1.
         -1   -1    0    0    0  501 -0.00000000000E+00 -0.00000000000E+00 -0.58821571818E+03  0.58821571818E+03  0.00000000000E+00 0.  1.
         23    2    1    2    0    0 -0.94599731245E+03 -0.44043011150E+03  0.78380047658E+03  0.13081345270E+04  0.89348504571E+02 0.  0.
        254    2    1    2    0    0  0.94599731245E+03  0.44043011150E+03  0.11337839264E+04  0.17858813124E+04  0.90278262712E+03 0.  0.
        -24    2    4    4    0    0  0.50163853977E+03  0.65972837897E+03  0.47750722682E+03  0.95968875538E+03  0.78144717978E+02 0.  0.
         24    2    4    4    0    0  0.44435877268E+03 -0.21929826746E+03  0.65627669959E+03  0.82619255699E+03  0.79678013537E+02 0.  0.
         11    1    3    3    0    0 -0.82184687784E+03 -0.39006871966E+03  0.64465303219E+03  0.11149723892E+04  0.00000000000E+00 0.  1.
        -11    1    3    3    0    0 -0.12415043461E+03 -0.50361391842E+02  0.13914744439E+03  0.19316213781E+03  0.00000000000E+00 0. -1.
          2    1    6    6  502    0  0.19171257062E+03 -0.87631942888E+02  0.21624890573E+03  0.30198784144E+03  0.00000000000E+00 0. -1.
          1    1    5    5  503    0  0.41804901834E+03  0.59247582601E+03  0.41976844781E+03  0.83785329021E+03  0.00000000000E+00 0. -1.
         -2    1    5    5    0  503  0.83589521432E+02  0.67252552956E+02  0.57738779012E+02  0.12183546517E+03  0.00000000000E+00 0.  1.
         -1    1    6    6    0  502  0.25264620206E+03 -0.13166632458E+03  0.44002779385E+03  0.52420471555E+03  0.00000000000E+00 0.  1.
<mgrwt>
<rscale>  0 0.24281277E+04</rscale>
<asrwt>0</asrwt>
<pdfrwt beam="1">  1        1 0.38550771E+00 0.24281277E+04</pdfrwt>
<pdfrwt beam="2">  1       -1 0.90494727E-01 0.24281277E+04</pdfrwt>
<totfact> 0.14315588E+00</totfact>
</mgrwt>
</event>
<event>
12    1  0.1755460E-007  0.1754605E+04  0.7818608E-02  0.8730820E-01
          2   -1    0    0  501    0  0.00000000000E+00  0.00000000000E+00  0.21629512818E+04  0.21629512818E+04  0.00000000000E+00 0. -1.
         -2   -1    0    0    0  501 -0.00000000000E+00 -0.00000000000E+00 -0.35583762937E+03  0.35583762937E+03  0.00000000000E+00 0.  1.
         23    2    1    2    0    0  0.27347923966E+03  0.22408368507E+03  0.14472742198E+04  0.14926950600E+04  0.92366024792E+02 0.  0.
        254    2    1    2    0    0 -0.27347923966E+03 -0.22408368507E+03  0.35983943264E+03  0.10260938511E+04  0.89352100234E+03 0.  0.
        -24    2    4    4    0    0 -0.23895668376E+03 -0.14920027815E+03  0.65025408438E+03  0.71347811065E+03  0.82822825425E+02 0.  0.
         24    2    4    4    0    0 -0.34522555901E+02 -0.74883406918E+02 -0.29041465174E+03  0.31261574049E+03  0.81170190082E+02 0.  0.
         13    1    3    3    0    0  0.40479571383E+02  0.28328796607E+02  0.36925670183E+03  0.37254748457E+03  0.00000000000E+00 0.  1.
        -13    1    3    3    0    0  0.23299966828E+03  0.19575488846E+03  0.10780175180E+04  0.11201475755E+04  0.00000000000E+00 0. -1.
          4    1    6    6  502    0 -0.15983181148E+02 -0.84521198968E+02 -0.27012631587E+03  0.28349166069E+03  0.00000000000E+00 0. -1.
          1    1    5    5  503    0 -0.19767274027E+03 -0.14527418336E+03  0.49043521274E+03  0.54836648192E+03  0.00000000000E+00 0. -1.
         -2    1    5    5    0  503 -0.41283943492E+02 -0.39260947915E+01  0.15981887164E+03  0.16511162873E+03  0.00000000000E+00 0.  1.
         -3    1    6    6    0  502 -0.18539374753E+02  0.96377920502E+01 -0.20288335873E+02  0.29124079802E+02  0.00000000000E+00 0.  1.
<mgrwt>
<rscale>  0 0.17546047E+04</rscale>
<asrwt>0</asrwt>
<pdfrwt beam="1">  1        2 0.33276173E+00 0.17546047E+04</pdfrwt>
<pdfrwt beam="2">  1       -2 0.54744252E-01 0.17546047E+04</pdfrwt>
<totfact> 0.16118743E+01</totfact>
</mgrwt>
</event>
<event>
12    1  0.1755460E-007  0.1698448E+04  0.7818608E-02  0.8762250E-01
         -1   -1    0    0    0  501 -0.00000000000E+00  0.00000000000E+00  0.61383564505E+03  0.61383564505E+03  0.00000000000E+00 0.  1.
          1   -1    0    0  501    0  0.00000000000E+00 -0.00000000000E+00 -0.11748763896E+04  0.11748763896E+04  0.00000000000E+00 0. -1.
         23    2    1    2    0    0  0.44718759842E+03 -0.12372242430E+03  0.20386836315E+03  0.51494849123E+03  0.91245014466E+02 0.  0.
        254    2    1    2    0    0 -0.44718759842E+03  0.12372242430E+03 -0.76490910771E+03  0.12737635434E+04  0.90669930795E+03 0.  0.
        -24    2    4    4    0    0 -0.54704312457E+03 -0.94060999051E+02 -0.10976227669E+03  0.57174787017E+03  0.82123187810E+02 0.  0.
         24    2    4    4    0    0  0.99855526147E+02  0.21778342335E+03 -0.65514683101E+03  0.70201567325E+03  0.78790162526E+02 0.  0.
         13    1    3    3    0    0  0.33800599548E+03 -0.80513155624E+02  0.19186321516E+03  0.39691550050E+03  0.00000000000E+00 0.  1.
        -13    1    3    3    0    0  0.10918160295E+03 -0.43209268675E+02  0.12005147993E+02  0.11803299073E+03  0.00000000000E+00 0. -1.
          2    1    6    6  502    0  0.70135351569E+02  0.20919045076E+03 -0.58974596571E+03  0.62966651198E+03  0.00000000000E+00 0. -1.
          1    1    5    5  503    0 -0.54464425436E+03 -0.90162292933E+02 -0.10010328360E+03  0.56105906130E+03  0.00000000000E+00 0. -1.
         -2    1    5    5    0  503 -0.23988702123E+01 -0.38987061176E+01 -0.96589930879E+01  0.10688808875E+02  0.00000000000E+00 0.  1.
         -1    1    6    6    0  502  0.29720174578E+02  0.85929725932E+01 -0.65400865299E+02  0.72349161272E+02  0.00000000000E+00 0.  1.
<mgrwt>
<rscale>  0 0.16984475E+04</rscale>
<asrwt>0</asrwt>
<pdfrwt beam="1">  1        1 0.18075021E+00 0.16984475E+04</pdfrwt>
<pdfrwt beam="2">  1       -1 0.94436253E-01 0.16984475E+04</pdfrwt>
<totfact> 0.11516802E+01</totfact>
</mgrwt>
</event>
<event>
12    1  0.1755460E-007  0.1108518E+04  0.7818608E-02  0.9196929E-01
         -1   -1    0    0    0  501 -0.00000000000E+00  0.00000000000E+00  0.48845751205E+03  0.48845751205E+03  0.00000000000E+00 0.  1.
          1   -1    0    0  501    0  0.00000000000E+00 -0.00000000000E+00 -0.62892476222E+03  0.62892476222E+03  0.00000000000E+00 0. -1.
         23    2    1    2    0    0  0.41906307124E+02 -0.13096674053E+03 -0.86757465167E+02  0.18627644198E+03  0.90904506885E+02 0.  0.
        254    2    1    2    0    0 -0.41906307124E+02  0.13096674053E+03 -0.53709785001E+02  0.93110583230E+03  0.91932850724E+03 0.  0.
        -24    2    4    4    0    0 -0.35812810158E+03 -0.13718328934E+03 -0.25114430226E+03  0.46530005936E+03  0.79722598210E+02 0.  0.
         24    2    4    4    0    0  0.31622179446E+03  0.26815002987E+03  0.19743451726E+03  0.46580577294E+03  0.78063869261E+02 0.  0.
         13    1    3    3    0    0 -0.12803727986E+02 -0.51351218044E+01  0.11131937791E+02  0.17726391772E+02  0.00000000000E+00 0.  1.
        -13    1    3    3    0    0  0.54710035110E+02 -0.12583161873E+03 -0.97889402957E+02  0.16855005021E+03  0.00000000000E+00 0. -1.
          2    1    6    6  502    0  0.27526715984E+03  0.25095357324E+03  0.19701752923E+03  0.42138534862E+03  0.00000000000E+00 0. -1.
          1    1    5    5  503    0 -0.34401931729E+03 -0.14506385382E+03 -0.22936266206E+03  0.43817809518E+03  0.00000000000E+00 0. -1.
         -2    1    5    5    0  503 -0.14108784292E+02  0.78805644813E+01 -0.21781640204E+02  0.27121964175E+02  0.00000000000E+00 0.  1.
         -1    1    6    6    0  502  0.40954634619E+02  0.17196456626E+02  0.41698803482E+00  0.44420424315E+02  0.00000000000E+00 0.  1.
<mgrwt>
<rscale>  0 0.11085180E+04</rscale>
<asrwt>0</asrwt>
<pdfrwt beam="1">  1        1 0.96757655E-01 0.11085180E+04</pdfrwt>
<pdfrwt beam="2">  1       -1 0.75147310E-01 0.11085180E+04</pdfrwt>
<totfact> 0.56730339E+01</totfact>
</mgrwt>
</event>
<event>
12    1  0.1755460E-007  0.1757238E+04  0.7818608E-02  0.8729377E-01
          4   -1    0    0  501    0  0.00000000000E+00  0.00000000000E+00  0.75804914678E+03  0.75804914678E+03  0.00000000000E+00 0. -1.
         -4   -1    0    0    0  501 -0.00000000000E+00 -0.00000000000E+00 -0.10183652907E+04  0.10183652907E+04  0.00000000000E+00 0.  1.
         23    2    1    2    0    0 -0.19582100943E+03 -0.39698807869E+03  0.37738141772E+03  0.58912981074E+03  0.93337008224E+02 0.  0.
        254    2    1    2    0    0  0.19582100943E+03  0.39698807869E+03 -0.63769756166E+03  0.11872846268E+04  0.89835471973E+03 0.  0.
        -24    2    4    4    0    0 -0.28612520189E+02 -0.98062725193E+02  0.16796400365E+03  0.21209487081E+03  0.79607495364E+02 0.  0.
         24    2    4    4    0    0  0.22443352962E+03  0.49505080389E+03 -0.80566156530E+03  0.97518975596E+03  0.80366626635E+02 0.  0.
         13    1    3    3    0    0 -0.11549733926E+03 -0.18982547261E+03  0.24384588698E+03  0.32990023041E+03  0.00000000000E+00 0. -1.
        -13    1    3    3    0    0 -0.80323670167E+02 -0.20716260608E+03  0.13353553074E+03  0.25922958033E+03  0.00000000000E+00 0.  1.
          2    1    6    6  502    0  0.20401008239E+03  0.48580015748E+03 -0.76824160774E+03  0.93156699952E+03  0.00000000000E+00 0. -1.
          3    1    5    5  503    0 -0.43542512710E+02 -0.98284513144E+02  0.11654334121E+03  0.15855013818E+03  0.00000000000E+00 0. -1.
         -4    1    5    5    0  503  0.14929992521E+02  0.22178795094E+00  0.51420662436E+02  0.53544732626E+02  0.00000000000E+00 0.  1.
         -1    1    6    6    0  502  0.20423447230E+02  0.92506464039E+01 -0.37419957560E+02  0.43622756440E+02  0.00000000000E+00 0.  1.
<mgrwt>
<rscale>  0 0.17572375E+04</rscale>
<asrwt>0</asrwt>
<pdfrwt beam="1">  1        4 0.11662295E+00 0.17572375E+04</pdfrwt>
<pdfrwt beam="2">  1       -4 0.15667158E+00 0.17572375E+04</pdfrwt>
<totfact> 0.28540718E-01</totfact>
</mgrwt>
</event>
<event>
12    1  0.1755460E-007  0.1740644E+04  0.7818608E-02  0.8738517E-01
          2   -1    0    0  501    0  0.00000000000E+00  0.00000000000E+00  0.27651688167E+04  0.27651688167E+04  0.00000000000E+00 0.  1.
         -2   -1    0    0    0  501 -0.00000000000E+00 -0.00000000000E+00 -0.27392906416E+03  0.27392906416E+03  0.00000000000E+00 0. -1.
         23    2    1    2    0    0  0.51961677473E+03 -0.35002880812E+03  0.11856681999E+04  0.13442077428E+04  0.92539810370E+02 0.  0.
        254    2    1    2    0    0 -0.51961677473E+03  0.35002880812E+03  0.13055715527E+04  0.16948901381E+04  0.88068935606E+03 0.  0.
        -24    2    4    4    0    0 -0.74564910200E+03  0.19181147485E+03  0.10809219092E+04  0.13300271554E+04  0.88294025683E+02 0.  0.
         24    2    4    4    0    0  0.22603232727E+03  0.15821733327E+03  0.22464964346E+03  0.36486298271E+03  0.80834375921E+02 0.  0.
         13    1    3    3    0    0  0.49486700867E+03 -0.31021804528E+03  0.11245931673E+04  0.12672167864E+04  0.00000000000E+00 0. -1.
        -13    1    3    3    0    0  0.24749766062E+02 -0.39810762840E+02  0.61075032624E+02  0.76990956404E+02  0.00000000000E+00 0.  1.
          4    1    6    6  502    0  0.23081623573E+03  0.15106328643E+03  0.20587673410E+03  0.34421138974E+03  0.00000000000E+00 0. -1.
          3    1    5    5  503    0 -0.62002157757E+03  0.12644316771E+03  0.90248937586E+03  0.11022257958E+04  0.00000000000E+00 0. -1.
         -4    1    5    5    0  503 -0.12562752443E+03  0.65368307137E+02  0.17843253337E+03  0.22780135960E+03  0.00000000000E+00 0.  1.
         -3    1    6    6    0  502 -0.47839084627E+01  0.71540468437E+01  0.18772909368E+02  0.20651592979E+02  0.00000000000E+00 0.  1.
<mgrwt>
<rscale>  0 0.17406437E+04</rscale>
<asrwt>0</asrwt>
<pdfrwt beam="1">  1        2 0.42541057E+00 0.17406437E+04</pdfrwt>
<pdfrwt beam="2">  1       -2 0.42142935E-01 0.17406437E+04</pdfrwt>
<totfact> 0.12320493E+01</totfact>
</mgrwt>
</event>
<event>
12    1  0.1755460E-007  0.1181019E+04  0.7818608E-02  0.9129635E-01
         -1   -1    0    0    0  501 -0.00000000000E+00  0.00000000000E+00  0.45358418932E+03  0.45358418932E+03  0.00000000000E+00 0.  1.
          1   -1    0    0  501    0  0.00000000000E+00 -0.00000000000E+00 -0.76876911056E+03  0.76876911056E+03  0.00000000000E+00 0. -1.
         23    2    1    2    0    0 -0.11463481534E+03 -0.18941831039E+03  0.52031388310E+01  0.24333606470E+03  0.10082128015E+03 0.  0.
        254    2    1    2    0    0  0.11463481534E+03  0.18941831039E+03 -0.32038806007E+03  0.97901723519E+03  0.89822369183E+03 0.  0.
        -24    2    4    4    0    0 -0.21877066678E+03  0.81977432299E+02 -0.51478190133E+03  0.57074063393E+03  0.78508351306E+02 0.  0.
         24    2    4    4    0    0  0.33340548213E+03  0.10744087809E+03  0.19439384126E+03  0.40827660126E+03  0.78727757635E+02 0.  0.
         11    1    3    3    0    0 -0.47359048617E+02 -0.31196383437E+02  0.38054016871E+02  0.68294963397E+02  0.00000000000E+00 0.  1.
        -11    1    3    3    0    0 -0.67275766727E+02 -0.15822192695E+03 -0.32850878040E+02  0.17504110130E+03  0.00000000000E+00 0. -1.
          2    1    6    6  502    0 -0.38081404385E+01  0.17761262113E+01  0.73023440640E+01  0.84250095992E+01  0.00000000000E+00 0. -1.
          1    1    5    5  503    0 -0.77298398350E+01  0.27267671847E+02 -0.64705729083E+02  0.70640694561E+02  0.00000000000E+00 0. -1.
         -2    1    5    5    0  503 -0.21104082695E+03  0.54709760452E+02 -0.45007617225E+03  0.50009993937E+03  0.00000000000E+00 0.  1.
         -1    1    6    6    0  502  0.33721362256E+03  0.10566475188E+03  0.18709149720E+03  0.39985159166E+03  0.00000000000E+00 0.  1.
<mgrwt>
<rscale>  0 0.11810191E+04</rscale>
<asrwt>0</asrwt>
<pdfrwt beam="1">  1        1 0.11827217E+00 0.11810191E+04</pdfrwt>
<pdfrwt beam="2">  1       -1 0.69782183E-01 0.11810191E+04</pdfrwt>
<totfact> 0.48498405E+01</totfact>
</mgrwt>
</event>
<event>
12    1  0.1755460E-007  0.1658968E+04  0.7818608E-02  0.8785119E-01
          2   -1    0    0  501    0  0.00000000000E+00  0.00000000000E+00  0.34441827593E+04  0.34441827593E+04  0.00000000000E+00 0. -1.
         -2   -1    0    0    0  501 -0.00000000000E+00 -0.00000000000E+00 -0.19976980749E+03  0.19976980749E+03  0.00000000000E+00 0.  1.
         23    2    1    2    0    0  0.55137554896E+03 -0.64380211083E+02  0.15616046890E+04  0.16598390494E+04  0.91085990856E+02 0.  0.
        254    2    1    2    0    0 -0.55137554896E+03  0.64380211083E+02  0.16828082628E+04  0.19841135174E+04  0.89258220511E+03 0.  0.
        -24    2    4    4    0    0 -0.21442468647E+03  0.45608665403E+03  0.64886904336E+03  0.82545173620E+03  0.79665244677E+02 0.  0.
         24    2    4    4    0    0 -0.33695086249E+03 -0.39170644295E+03  0.10339392195E+04  0.11586617812E+04  0.80603923353E+02 0.  0.
         13    1    3    3    0    0 -0.59382262445E+00 -0.74806934117E+01  0.16871654662E+02  0.18465268215E+02  0.00000000000E+00 0.  1.
        -13    1    3    3    0    0  0.55196937158E+03 -0.56899517671E+02  0.15447330343E+04  0.16413737812E+04  0.00000000000E+00 0. -1.
          2    1    6    6  502    0 -0.29796554282E+03 -0.35679344584E+03  0.86759452140E+03  0.98427906677E+03  0.00000000000E+00 0. -1.
          1    1    5    5  503    0 -0.20686837710E+03  0.41419921905E+03  0.62092737806E+03  0.77453620143E+03  0.00000000000E+00 0. -1.
         -2    1    5    5    0  503 -0.75563093679E+01  0.41887434984E+02  0.27941665298E+02  0.50915534766E+02  0.00000000000E+00 0.  1.
         -1    1    6    6    0  502 -0.38985319663E+02 -0.34912997111E+02  0.16634469805E+03  0.17438271441E+03  0.00000000000E+00 0.  1.
<mgrwt>
<rscale>  0 0.16589680E+04</rscale>
<asrwt>0</asrwt>
<pdfrwt beam="1">  1        2 0.52987423E+00 0.16589680E+04</pdfrwt>
<pdfrwt beam="2">  1       -2 0.30733819E-01 0.16589680E+04</pdfrwt>
<totfact> 0.84012575E+00</totfact>
</mgrwt>
</event>
<event>
12    1  0.1755460E-007  0.2073293E+04  0.7818608E-02  0.8573100E-01
         -2   -1    0    0    0  501 -0.00000000000E+00  0.00000000000E+00  0.23280801992E+04  0.23280801992E+04  0.00000000000E+00 0.  1.
          2   -1    0    0  501    0  0.00000000000E+00 -0.00000000000E+00 -0.46159741376E+03  0.46159741376E+03  0.00000000000E+00 0. -1.
         23    2    1    2    0    0 -0.56141028150E+03  0.22942139740E+03 -0.19389767969E+02  0.61334015145E+03  0.89411948440E+02 0.  0.
        254    2    1    2    0    0  0.56141028150E+03 -0.22942139740E+03  0.18858725534E+04  0.21763374615E+04  0.90117355539E+03 0.  0.
        -24    2    4    4    0    0  0.63681782918E+03  0.17645145926E+03  0.11932295469E+04  0.13661084270E+04  0.76048785431E+02 0.  0.
         24    2    4    4    0    0 -0.75407547685E+02 -0.40587285666E+03  0.69264300651E+03  0.81022903449E+03  0.79357922321E+02 0.  0.
         13    1    3    3    0    0 -0.51243016300E+03  0.19179106447E+03  0.43651965825E+01  0.54716317429E+03  0.00000000000E+00 0.  1.
        -13    1    3    3    0    0 -0.48980118493E+02  0.37630332936E+02 -0.23754964551E+02  0.66176977155E+02  0.00000000000E+00 0. -1.
          4    1    6    6  502    0 -0.35222867540E+02 -0.51126563032E+02  0.12656671031E+03  0.14097413949E+03  0.00000000000E+00 0. -1.
          1    1    5    5  503    0  0.18886021065E+03  0.47937536273E+02  0.42573259465E+03  0.46820340526E+03  0.00000000000E+00 0. -1.
         -2    1    5    5    0  503  0.44795761853E+03  0.12851392299E+03  0.76749695225E+03  0.89790502177E+03  0.00000000000E+00 0.  1.
         -3    1    6    6    0  502 -0.40184680145E+02 -0.35474629363E+03  0.56607629620E+03  0.66925489500E+03  0.00000000000E+00 0.  1.
<mgrwt>
<rscale>  0 0.20732928E+04</rscale>
<asrwt>0</asrwt>
<pdfrwt beam="1">  1        2 0.71014988E-01 0.20732928E+04</pdfrwt>
<pdfrwt beam="2">  1       -2 0.35816618E+00 0.20732928E+04</pdfrwt>
<totfact> 0.86355136E-01</totfact>
</mgrwt>
</event>
<event>
12    1  0.1755460E-007  0.1712102E+04  0.7818608E-02  0.8754492E-01
          1   -1    0    0  501    0  0.00000000000E+00  0.00000000000E+00  0.20904831727E+04  0.20904831727E+04  0.00000000000E+00 0. -1.
         -1   -1    0    0    0  501 -0.00000000000E+00 -0.00000000000E+00 -0.35055209880E+03  0.35055209880E+03  0.00000000000E+00 0.  1.
         23    2    1    2    0    0  0.10387166833E+03  0.11091930230E+02  0.14997382737E+04  0.15060472261E+04  0.89727381521E+02 0.  0.
        254    2    1    2    0    0 -0.10387166833E+03 -0.11091930230E+02  0.24019280019E+03  0.93498804547E+03  0.89755095093E+03 0.  0.
        -24    2    4    4    0    0 -0.42059196171E+03  0.13752147720E+03  0.33824838156E+03  0.56278741266E+03  0.80671861752E+02 0.  0.
         24    2    4    4    0    0  0.31672029338E+03 -0.14861340743E+03 -0.98055581367E+02  0.37220063281E+03  0.80751005698E+02 0.  0.
         13    1    3    3    0    0  0.96634776525E+00  0.18537214249E+02  0.64847417277E+02  0.67451832203E+02  0.00000000000E+00 0.  1.
        -13    1    3    3    0    0  0.10290532056E+03 -0.74452840186E+01  0.14348908565E+04  0.14385953939E+04  0.00000000000E+00 0. -1.
          2    1    6    6  502    0  0.10526714657E+03 -0.48836052777E+02  0.61764445522E+01  0.11620791998E+03  0.00000000000E+00 0. -1.
          3    1    5    5  503    0 -0.41410397901E+03  0.13796113513E+03  0.31402245786E+03  0.53770390019E+03  0.00000000000E+00 0. -1.
         -4    1    5    5    0  503 -0.64879826930E+01 -0.43965793646E+00  0.24225923704E+02  0.25083512470E+02  0.00000000000E+00 0.  1.
         -1    1    6    6    0  502  0.21145314681E+03 -0.99777354650E+02 -0.10423202592E+03  0.25599271283E+03  0.00000000000E+00 0.  1.
<mgrwt>
<rscale>  0 0.17121019E+04</rscale>
<asrwt>0</asrwt>
<pdfrwt beam="1">  1        1 0.32161279E+00 0.17121019E+04</pdfrwt>
<pdfrwt beam="2">  1       -1 0.53931093E-01 0.17121019E+04</pdfrwt>
<totfact> 0.85380443E+00</totfact>
</mgrwt>
</event>
<event>
12    1  0.1755460E-007  0.2082887E+04  0.7818608E-02  0.8568820E-01
         -1   -1    0    0    0  501 -0.00000000000E+00  0.00000000000E+00  0.15229909116E+04  0.15229909116E+04  0.00000000000E+00 0.  1.
          1   -1    0    0  501    0  0.00000000000E+00 -0.00000000000E+00 -0.71215401083E+03  0.71215401083E+03  0.00000000000E+00 0. -1.
         23    2    1    2    0    0  0.52347928170E+03 -0.50067861670E+03 -0.12969001112E+03  0.74317045322E+03  0.10379396884E+03 0.  0.
        254    2    1    2    0    0 -0.52347928170E+03  0.50067861670E+03  0.94052691188E+03  0.14919744692E+04  0.90370753523E+03 0.  0.
        -24    2    4    4    0    0 -0.61270892860E+03  0.27124438472E+03  0.10179390386E+04  0.12212694650E+04  0.79457361673E+02 0.  0.
         24    2    4    4    0    0  0.89229646898E+02  0.22943423198E+03 -0.77412126698E+02  0.27070500427E+03  0.81771420963E+02 0.  0.
         11    1    3    3    0    0  0.33349110958E+03 -0.36251724446E+03 -0.12507864073E+03  0.50821229724E+03  0.00000000000E+00 0. -1.
        -11    1    3    3    0    0  0.18998817212E+03 -0.13816137224E+03 -0.46113703883E+01  0.23495815598E+03  0.00000000000E+00 0.  1.
          4    1    6    6  502    0  0.13038848542E+02  0.59528854054E+02 -0.56895798081E+02  0.83371625122E+02  0.00000000000E+00 0. -1.
          1    1    5    5  503    0 -0.61842865683E+02  0.18059996679E+02  0.14263158764E+03  0.15650710307E+03  0.00000000000E+00 0. -1.
         -2    1    5    5    0  503 -0.55086606292E+03  0.25318438804E+03  0.87530745094E+03  0.10647623619E+04  0.00000000000E+00 0.  1.
         -3    1    6    6    0  502  0.76190798356E+02  0.16990537792E+03 -0.20516328616E+02  0.18733337914E+03  0.00000000000E+00 0.  1.
<mgrwt>
<rscale>  0 0.20828865E+04</rscale>
<asrwt>0</asrwt>
<pdfrwt beam="1">  1        1 0.10956216E+00 0.20828865E+04</pdfrwt>
<pdfrwt beam="2">  1       -1 0.23430629E+00 0.20828865E+04</pdfrwt>
<totfact> 0.21602225E+00</totfact>
</mgrwt>
</event>
<event>
12    1  0.1755460E-007  0.1642725E+04  0.7818608E-02  0.8794722E-01
         -1   -1    0    0    0  501 -0.00000000000E+00  0.00000000000E+00  0.40810422491E+03  0.40810422491E+03  0.00000000000E+00 0.  1.
          1   -1    0    0  501    0  0.00000000000E+00 -0.00000000000E+00 -0.16530975728E+04  0.16530975728E+04  0.00000000000E+00 0. -1.
         23    2    1    2    0    0 -0.14414475926E+03  0.52758426021E+02  0.25614436440E+03  0.31126176565E+03  0.87822481183E+02 0.  0.
        254    2    1    2    0    0  0.14414475926E+03 -0.52758426021E+02 -0.15011377123E+04  0.17499400321E+04  0.88617973426E+03 0.  0.
        -24    2    4    4    0    0  0.65858731825E+02  0.82876288920E+02 -0.15587230986E+04  0.15648386772E+04  0.88862453703E+02 0.  0.
         24    2    4    4    0    0  0.78286027431E+02 -0.13563471494E+03  0.57585386313E+02  0.18510135487E+03  0.80130873393E+02 0.  0.
         11    1    3    3    0    0 -0.91999683477E+01 -0.40529461381E+01 -0.54828673389E+01  0.11451097076E+02  0.00000000000E+00 0. -1.
        -11    1    3    3    0    0 -0.13494479091E+03  0.56811372159E+02  0.26162723174E+03  0.29981066857E+03  0.00000000000E+00 0.  1.
          2    1    6    6  502    0  0.32244089355E+02 -0.74075394658E+00  0.19011928665E+02  0.37439063107E+02  0.00000000000E+00 0. -1.
          1    1    5    5  503    0  0.44405878775E+02  0.87662874151E+01 -0.97351637045E+03  0.97456803426E+03  0.00000000000E+00 0. -1.
         -2    1    5    5    0  503  0.21452853051E+02  0.74110001505E+02 -0.58520672816E+03  0.59027064293E+03  0.00000000000E+00 0.  1.
         -1    1    6    6    0  502  0.46041938076E+02 -0.13489396099E+03  0.38573457648E+02  0.14766229177E+03  0.00000000000E+00 0.  1.
<mgrwt>
<rscale>  0 0.16427247E+04</rscale>
<asrwt>0</asrwt>
<pdfrwt beam="1">  1        1 0.25432271E+00 0.16427247E+04</pdfrwt>
<pdfrwt beam="2">  1       -1 0.62785265E-01 0.16427247E+04</pdfrwt>
<totfact> 0.12623604E+01</totfact>
</mgrwt>
</event>
<event>
12    1  0.1755460E-007  0.1401036E+04  0.7818608E-02  0.8953069E-01
          2   -1    0    0  501    0  0.00000000000E+00  0.00000000000E+00  0.27293371943E+04  0.27293371943E+04  0.00000000000E+00 0. -1.
         -2   -1    0    0    0  501 -0.00000000000E+00 -0.00000000000E+00 -0.17979657141E+03  0.17979657141E+03  0.00000000000E+00 0.  1.
         23    2    1    2    0    0  0.34645745818E+03 -0.15666117050E+03  0.10932974908E+04  0.11613404586E+04  0.94004067397E+02 0.  0.
        254    2    1    2    0    0 -0.34645745818E+03  0.15666117050E+03  0.14562431321E+04  0.17477933071E+04  0.88857295254E+03 0.  0.
        -24    2    4    4    0    0 -0.10475742043E+03  0.26219546884E+03  0.30782561874E+02  0.29581816142E+03  0.82705728312E+02 0.  0.
         24    2    4    4    0    0 -0.24170003774E+03 -0.10553429834E+03  0.14254605702E+04  0.14519751457E+04  0.82082824840E+02 0.  0.
         11    1    3    3    0    0  0.99986365125E+02 -0.72272452804E+02  0.46698090122E+03  0.48300283928E+03  0.00000000000E+00 0.  1.
        -11    1    3    3    0    0  0.24647109305E+03 -0.84388717691E+02  0.62631658957E+03  0.67833761929E+03  0.00000000000E+00 0. -1.
          4    1    6    6  502    0 -0.23525998926E+03 -0.11417594027E+03  0.14017027967E+04  0.14258871408E+04  0.00000000000E+00 0. -1.
          1    1    5    5  503    0 -0.11129444659E+03  0.18903652980E+03  0.10490660959E+02  0.21961629586E+03  0.00000000000E+00 0. -1.
         -2    1    5    5    0  503  0.65370261543E+01  0.73158939035E+02  0.20291900916E+02  0.76201865558E+02  0.00000000000E+00 0.  1.
         -3    1    6    6    0  502 -0.64400484882E+01  0.86416419309E+01  0.23757773440E+02  0.26088004880E+02  0.00000000000E+00 0.  1.
<mgrwt>
<rscale>  0 0.14010360E+04</rscale>
<asrwt>0</asrwt>
<pdfrwt beam="1">  1        2 0.41989800E+00 0.14010360E+04</pdfrwt>
<pdfrwt beam="2">  1       -2 0.27661013E-01 0.14010360E+04</pdfrwt>
<totfact> 0.29767463E+01</totfact>
</mgrwt>
</event>
<event>
12    1  0.1755460E-007  0.1159818E+04  0.7818608E-02  0.9148774E-01
          1   -1    0    0  501    0  0.00000000000E+00  0.00000000000E+00  0.36554735634E+03  0.36554735634E+03  0.00000000000E+00 0. -1.
         -1   -1    0    0    0  501 -0.00000000000E+00 -0.00000000000E+00 -0.91997465111E+03  0.91997465111E+03  0.00000000000E+00 0.  1.
         23    2    1    2    0    0 -0.10081962554E+03  0.18342735568E+03 -0.11153043475E+03  0.26394434360E+03  0.11583344482E+03 0.  0.
        254    2    1    2    0    0  0.10081962554E+03 -0.18342735568E+03 -0.44289686002E+03  0.10215776639E+04  0.89646701164E+03 0.  0.
        -24    2    4    4    0    0 -0.27857757261E+03  0.75333624072E+02 -0.46787069543E+03  0.55568411673E+03  0.81247960358E+02 0.  0.
         24    2    4    4    0    0  0.37939719815E+03 -0.25876097975E+03  0.24973835411E+02  0.46589354712E+03  0.74388347149E+02 0.  0.
         11    1    3    3    0    0 -0.34051051353E+02  0.50363634903E+02 -0.96845517149E+02  0.11434607125E+03  0.00000000000E+00 0.  1.
        -11    1    3    3    0    0 -0.66768574188E+02  0.13306372077E+03 -0.14684917603E+02  0.14959827235E+03  0.00000000000E+00 0. -1.
          2    1    6    6  502    0  0.33661109630E+03 -0.23524972015E+03 -0.83640304147E+00  0.41067037945E+03  0.00000000000E+00 0. -1.
          3    1    5    5  503    0 -0.72157857277E+02  0.69120755639E+01 -0.62698903335E+02  0.95841982632E+02  0.00000000000E+00 0. -1.
         -4    1    5    5    0  503 -0.20641971533E+03  0.68421548508E+02 -0.40517179210E+03  0.45984213410E+03  0.00000000000E+00 0.  1.
         -1    1    6    6    0  502  0.42786101846E+02 -0.23511259593E+02  0.25810238452E+02  0.55223167672E+02  0.00000000000E+00 0.  1.
<mgrwt>
<rscale>  0 0.11598177E+04</rscale>
<asrwt>0</asrwt>
<pdfrwt beam="1">  1        1 0.56238055E-01 0.11598177E+04</pdfrwt>
<pdfrwt beam="2">  1       -1 0.14153456E+00 0.11598177E+04</pdfrwt>
<totfact> 0.27342759E+01</totfact>
</mgrwt>
</event>
<event>
12    1  0.1755460E-007  0.2887131E+04  0.7818608E-02  0.8276717E-01
         -1   -1    0    0    0  501 -0.00000000000E+00  0.00000000000E+00  0.11999933387E+04  0.11999933387E+04  0.00000000000E+00 0.  1.
          1   -1    0    0  501    0  0.00000000000E+00 -0.00000000000E+00 -0.17365774793E+04  0.17365774793E+04  0.00000000000E+00 0. -1.
         23    2    1    2    0    0 -0.47931708751E+03 -0.71528179186E+03 -0.12394414652E+04  0.15122353114E+04  0.96268267150E+02 0.  0.
        254    2    1    2    0    0  0.47931708751E+03  0.71528179186E+03  0.70285732458E+03  0.14243355066E+04  0.89070214130E+03 0.  0.
        -24    2    4    4    0    0  0.55097198480E+03  0.87796567301E+03  0.55918710559E+03  0.11804915801E+04  0.80475465859E+02 0.  0.
         24    2    4    4    0    0 -0.71654897289E+02 -0.16268388115E+03  0.14367021899E+03  0.24384392651E+03  0.84960338859E+02 0.  0.
         11    1    3    3    0    0 -0.43448210397E+03 -0.68712023486E+03 -0.11508843025E+04  0.14090576970E+04  0.00000000000E+00 0. -1.
        -11    1    3    3    0    0 -0.44834983543E+02 -0.28161556998E+02 -0.88557162767E+02  0.10317761443E+03  0.00000000000E+00 0.  1.
          4    1    6    6  502    0  0.19047123862E+02 -0.36460875881E+02  0.37015771186E+02  0.55338555401E+02  0.00000000000E+00 0. -1.
          3    1    5    5  503    0  0.12553982616E+02  0.40785262503E+02  0.10659354245E+02  0.43984792257E+02  0.00000000000E+00 0. -1.
         -2    1    5    5    0  503  0.53841800218E+03  0.83718041051E+03  0.54852775134E+03  0.11365067878E+04  0.00000000000E+00 0.  1.
         -3    1    6    6    0  502 -0.90702021151E+02 -0.12622300527E+03  0.10665444780E+03  0.18850537111E+03  0.00000000000E+00 0.  1.
<mgrwt>
<rscale>  0 0.28871310E+04</rscale>
<asrwt>0</asrwt>
<pdfrwt beam="1">  1        1 0.26716577E+00 0.28871310E+04</pdfrwt>
<pdfrwt beam="2">  1       -1 0.18461436E+00 0.28871310E+04</pdfrwt>
<totfact> 0.74587394E-01</totfact>
</mgrwt>
</event>
<event>
12    1  0.1755460E-007  0.1897498E+04  0.7818608E-02  0.8656103E-01
         -1   -1    0    0    0  501 -0.00000000000E+00  0.00000000000E+00  0.15964707762E+04  0.15964707762E+04  0.00000000000E+00 0.  1.
          1   -1    0    0  501    0  0.00000000000E+00 -0.00000000000E+00 -0.56382185529E+03  0.56382185529E+03  0.00000000000E+00 0. -1.
         23    2    1    2    0    0  0.42002558847E+02 -0.66166809053E+03  0.52518424951E+02  0.67154801932E+03  0.93003657573E+02 0.  0.
        254    2    1    2    0    0 -0.42002558847E+02  0.66166809053E+03  0.98013049596E+03  0.14887446122E+04  0.90340237669E+03 0.  0.
        -24    2    4    4    0    0 -0.23312011702E+03  0.14411211997E+03  0.87635861215E+03  0.92171531331E+03  0.80258392917E+02 0.  0.
         24    2    4    4    0    0  0.19111755817E+03  0.51755597056E+03  0.10377188381E+03  0.56702929886E+03  0.79771662875E+02 0.  0.
         13    1    3    3    0    0  0.49176156116E+02 -0.15167900123E+03  0.12683057861E+02  0.15995522405E+03  0.00000000000E+00 0.  1.
        -13    1    3    3    0    0 -0.71735972695E+01 -0.50998908930E+03  0.39835367090E+02  0.51159279527E+03  0.00000000000E+00 0. -1.
          4    1    6    6  502    0  0.16114522460E+02  0.15926390661E+02  0.17856138412E+02  0.28847347063E+02  0.00000000000E+00 0. -1.
          3    1    5    5  503    0 -0.84960341457E+02  0.67305809082E+02  0.47173884117E+03  0.48403085214E+03  0.00000000000E+00 0. -1.
         -4    1    5    5    0  503 -0.14815977556E+03  0.76806310891E+02  0.40461977098E+03  0.43768446117E+03  0.00000000000E+00 0.  1.
         -3    1    6    6    0  502  0.17500303571E+03  0.50162957990E+03  0.85915745400E+02  0.53818195180E+03  0.00000000000E+00 0.  1.
<mgrwt>
<rscale>  0 0.18974985E+04</rscale>
<asrwt>0</asrwt>
<pdfrwt beam="1">  1        1 0.86741825E-01 0.18974985E+04</pdfrwt>
<pdfrwt beam="2">  1       -1 0.24561089E+00 0.18974985E+04</pdfrwt>
<totfact> 0.26102851E+00</totfact>
</mgrwt>
</event>
<event>
12    1  0.1755460E-007  0.1224486E+04  0.7818608E-02  0.9091690E-01
         -2   -1    0    0    0  501 -0.00000000000E+00  0.00000000000E+00  0.10561070591E+03  0.10561070591E+03  0.00000000000E+00 0.  1.
          2   -1    0    0  501    0  0.00000000000E+00 -0.00000000000E+00 -0.35492763968E+04  0.35492763968E+04  0.00000000000E+00 0. -1.
         23    2    1    2    0    0  0.21987803517E+03  0.63999505903E+02 -0.37913496306E+03  0.45223682693E+03  0.91282749256E+02 0.  0.
        254    2    1    2    0    0 -0.21987803517E+03 -0.63999505903E+02 -0.30645307278E+04  0.32026502758E+04  0.90176378284E+03 0.  0.
        -24    2    4    4    0    0  0.14693894309E+03  0.21437512385E+03 -0.22276197441E+04  0.22441913976E+04  0.80978751794E+02 0.  0.
         24    2    4    4    0    0 -0.36681697826E+03 -0.27837462976E+03 -0.83691098374E+03  0.95845887815E+03  0.78589416335E+02 0.  0.
         13    1    3    3    0    0 -0.58644850683E+01 -0.50614548682E+01 -0.33195130845E+01  0.84279106318E+01  0.00000000000E+00 0. -1.
        -13    1    3    3    0    0  0.22574252024E+03  0.69060960771E+02 -0.37581544997E+03  0.44380891630E+03  0.00000000000E+00 0.  1.
          4    1    6    6  502    0  0.33096063994E+01 -0.32783334491E+01 -0.18332992340E+02  0.18915590736E+02  0.00000000000E+00 0. -1.
          3    1    5    5  503    0  0.55327403569E+02  0.12132618717E+03 -0.13997148370E+04  0.14060522004E+04  0.00000000000E+00 0. -1.
         -4    1    5    5    0  503  0.91611539523E+02  0.93048936688E+02 -0.82790490706E+03  0.83813919723E+03  0.00000000000E+00 0.  1.
         -3    1    6    6    0  502 -0.37012658466E+03 -0.27509629631E+03 -0.81857799140E+03  0.93954328741E+03  0.00000000000E+00 0.  1.
<mgrwt>
<rscale>  0 0.12244862E+04</rscale>
<asrwt>0</asrwt>
<pdfrwt beam="1">  1        2 0.54604254E+00 0.12244862E+04</pdfrwt>
<pdfrwt beam="2">  1       -2 0.16247800E-01 0.12244862E+04</pdfrwt>
<totfact> 0.23248465E+01</totfact>
</mgrwt>
</event>
<event>
12    1  0.1755460E-007  0.1500173E+04  0.7818608E-02  0.8884338E-01
          2   -1    0    0  501    0  0.00000000000E+00  0.00000000000E+00  0.89472305206E+03  0.89472305206E+03  0.00000000000E+00 0. -1.
         -2   -1    0    0    0  501 -0.00000000000E+00 -0.00000000000E+00 -0.62883144535E+03  0.62883144535E+03  0.00000000000E+00 0.  1.
         23    2    1    2    0    0  0.45561980380E+03 -0.13357533048E+03  0.77665589960E+02  0.48900022630E+03  0.87507159324E+02 0.  0.
        254    2    1    2    0    0 -0.45561980380E+03  0.13357533048E+03  0.18822601675E+03  0.10345542711E+04  0.89968979762E+03 0.  0.
        -24    2    4    4    0    0 -0.45815897750E+03  0.35200211252E+03  0.41029375630E+03  0.71321788755E+03  0.80769132523E+02 0.  0.
         24    2    4    4    0    0  0.25391736990E+01 -0.21842678205E+03 -0.22206773956E+03  0.32133638356E+03  0.78906805323E+02 0.  0.
         13    1    3    3    0    0  0.94360472207E+02  0.80451531861E+01  0.12086814063E+02  0.95471012769E+02  0.00000000000E+00 0. -1.
        -13    1    3    3    0    0  0.36125933159E+03 -0.14162048366E+03  0.65578775897E+02  0.39352921353E+03  0.00000000000E+00 0.  1.
          2    1    6    6  502    0 -0.17297848841E+02 -0.48598798373E+02 -0.16947024652E+02  0.54297885985E+02  0.00000000000E+00 0. -1.
          1    1    5    5  503    0 -0.29390046302E+03  0.27288629775E+03  0.27988835317E+03  0.48906226996E+03  0.00000000000E+00 0. -1.
         -2    1    5    5    0  503 -0.16425851448E+03  0.79115814775E+02  0.13040540313E+03  0.22415561758E+03  0.00000000000E+00 0.  1.
         -3    1    6    6    0  502  0.19837022540E+02 -0.16982798367E+03 -0.20512071491E+03  0.26703849757E+03  0.00000000000E+00 0.  1.
<mgrwt>
<rscale>  0 0.15001733E+04</rscale>
<asrwt>0</asrwt>
<pdfrwt beam="1">  1        2 0.13764970E+00 0.15001733E+04</pdfrwt>
<pdfrwt beam="2">  1       -2 0.96743299E-01 0.15001733E+04</pdfrwt>
<totfact> 0.25517386E+01</totfact>
</mgrwt>
</event>
<event>
12    1  0.1755460E-007  0.1258252E+04  0.7818608E-02  0.9063343E-01
          1   -1    0    0  501    0  0.00000000000E+00  0.00000000000E+00  0.16636087661E+04  0.16636087661E+04  0.00000000000E+00 0. -1.
         -1   -1    0    0    0  501 -0.00000000000E+00 -0.00000000000E+00 -0.23791617071E+03  0.23791617071E+03  0.00000000000E+00 0.  1.
         23    2    1    2    0    0  0.83764331102E+02 -0.25961383377E+02 -0.87855017798E+02  0.15526125329E+03  0.93258222311E+02 0.  0.
        254    2    1    2    0    0 -0.83764331102E+02  0.25961383377E+02  0.15135476132E+04  0.17462636835E+04  0.86655641387E+03 0.  0.
        -24    2    4    4    0    0 -0.27927912242E+03  0.29818350852E+03  0.12351386853E+04  0.13033582944E+04  0.79151997257E+02 0.  0.
         24    2    4    4    0    0  0.19551479132E+03 -0.27222212515E+03  0.27840892788E+03  0.44290538912E+03  0.79515618255E+02 0.  0.
         13    1    3    3    0    0  0.35678205435E+02 -0.58773993025E+02 -0.57374613791E+02  0.89549778933E+02  0.00000000000E+00 0. -1.
        -13    1    3    3    0    0  0.48086125667E+02  0.32812609649E+02 -0.30480404007E+02  0.65711474356E+02  0.00000000000E+00 0.  1.
          4    1    6    6  502    0  0.23501662736E+02 -0.93284791875E+02  0.74267039358E+02  0.12153178054E+03  0.00000000000E+00 0. -1.
          3    1    5    5  503    0 -0.64763366947E+01  0.18065479789E+02  0.12295102550E+03  0.12443978130E+03  0.00000000000E+00 0. -1.
         -4    1    5    5    0  503 -0.27280278573E+03  0.28011802873E+03  0.11121876598E+04  0.11789185131E+04  0.00000000000E+00 0.  1.
         -3    1    6    6    0  502  0.17201312858E+03 -0.17893733327E+03  0.20414188852E+03  0.32137360858E+03  0.00000000000E+00 0.  1.
<mgrwt>
<rscale>  0 0.12582518E+04</rscale>
<asrwt>0</asrwt>
<pdfrwt beam="1">  1        1 0.25593980E+00 0.12582518E+04</pdfrwt>
<pdfrwt beam="2">  1       -1 0.36602489E-01 0.12582518E+04</pdfrwt>
<totfact> 0.35612112E+01</totfact>
</mgrwt>
</event>
<event>
12    1  0.1755460E-007  0.1355341E+04  0.7818608E-02  0.8986795E-01
          1   -1    0    0  501    0  0.00000000000E+00  0.00000000000E+00  0.14924160952E+04  0.14924160952E+04  0.00000000000E+00 0. -1.
         -1   -1    0    0    0  501 -0.00000000000E+00 -0.00000000000E+00 -0.30771390356E+03  0.30771390356E+03  0.00000000000E+00 0.  1.
         23    2    1    2    0    0  0.20276341653E+03 -0.18564624029E+03  0.67718726851E+01  0.28818315927E+03  0.86175085794E+02 0.  0.
        254    2    1    2    0    0 -0.20276341653E+03  0.18564624029E+03  0.11779303190E+04  0.15119468395E+04  0.90713057468E+03 0.  0.
        -24    2    4    4    0    0  0.29732430327E+03  0.29673161944E+03  0.57690246534E+03  0.71818955353E+03  0.80798421931E+02 0.  0.
         24    2    4    4    0    0 -0.50008771980E+03 -0.11108537915E+03  0.60102785361E+03  0.79375728596E+03  0.79927837732E+02 0.  0.
         13    1    3    3    0    0  0.13495837143E+03 -0.14270481137E+03 -0.32077573188E+02  0.19901606947E+03  0.00000000000E+00 0.  1.
        -13    1    3    3    0    0  0.67805045096E+02 -0.42941428926E+02  0.38849445873E+02  0.89167089800E+02  0.00000000000E+00 0. -1.
          2    1    6    6  502    0 -0.28768162208E+03 -0.74283031422E+02  0.40564618114E+03  0.50281955880E+03  0.00000000000E+00 0. -1.
          3    1    5    5  503    0  0.24349471482E+03  0.20052760523E+03  0.39508636731E+03  0.50556328411E+03  0.00000000000E+00 0. -1.
         -4    1    5    5    0  503  0.53829588448E+02  0.96204014211E+02  0.18181609803E+03  0.21262626941E+03  0.00000000000E+00 0.  1.
         -3    1    6    6    0  502 -0.21240609772E+03 -0.36802347728E+02  0.19538167247E+03  0.29093772716E+03  0.00000000000E+00 0.  1.
<mgrwt>
<rscale>  0 0.13553408E+04</rscale>
<asrwt>0</asrwt>
<pdfrwt beam="1">  1        1 0.22960247E+00 0.13553408E+04</pdfrwt>
<pdfrwt beam="2">  1       -1 0.47340601E-01 0.13553408E+04</pdfrwt>
<totfact> 0.28842265E+01</totfact>
</mgrwt>
</event>
<event>
12    1  0.1755460E-007  0.1137220E+04  0.7818608E-02  0.9169655E-01
          1   -1    0    0  501    0  0.00000000000E+00  0.00000000000E+00  0.30941211903E+03  0.30941211903E+03  0.00000000000E+00 0. -1.
         -1   -1    0    0    0  501 -0.00000000000E+00 -0.00000000000E+00 -0.10449414373E+04  0.10449414373E+04  0.00000000000E+00 0.  1.
         23    2    1    2    0    0  0.15698960643E+03  0.12886065686E+01 -0.75150733152E+01  0.18018746106E+03  0.88111564304E+02 0.  0.
        254    2    1    2    0    0 -0.15698960643E+03 -0.12886065686E+01 -0.72801424496E+03  0.11741660953E+04  0.90775210349E+03 0.  0.
        -24    2    4    4    0    0 -0.48270499726E+03 -0.19572201357E+03 -0.34908487249E+03  0.63213935518E+03  0.80179144367E+02 0.  0.
         24    2    4    4    0    0  0.32571539084E+03  0.19443340700E+03 -0.37892937247E+03  0.54202674009E+03  0.79439612685E+02 0.  0.
         11    1    3    3    0    0  0.11270738027E+03 -0.29993987205E+02  0.21651453489E+02  0.11862284044E+03  0.00000000000E+00 0. -1.
        -11    1    3    3    0    0  0.44282226160E+02  0.31282593773E+02 -0.29166526805E+02  0.61564620625E+02  0.00000000000E+00 0.  1.
          2    1    6    6  502    0  0.80890056076E+02  0.90356290872E+02 -0.10953780160E+03  0.16341967584E+03  0.00000000000E+00 0. -1.
          1    1    5    5  503    0 -0.40095188123E+01 -0.81956441555E+01 -0.19283321172E+02  0.21332868998E+02  0.00000000000E+00 0. -1.
         -2    1    5    5    0  503 -0.47869547845E+03 -0.18752636941E+03 -0.32980155132E+03  0.61080648619E+03  0.00000000000E+00 0.  1.
         -1    1    6    6    0  502  0.24482533476E+03  0.10407711613E+03 -0.26939157087E+03  0.37860706425E+03  0.00000000000E+00 0.  1.
<mgrwt>
<rscale>  0 0.11372204E+04</rscale>
<asrwt>0</asrwt>
<pdfrwt beam="1">  1        1 0.47601865E-01 0.11372204E+04</pdfrwt>
<pdfrwt beam="2">  1       -1 0.16076022E+00 0.11372204E+04</pdfrwt>
<totfact> 0.24139831E+01</totfact>
</mgrwt>
</event>
<event>
12    1  0.1755460E-007  0.1739773E+04  0.7818608E-02  0.8739000E-01
          1   -1    0    0  501    0  0.00000000000E+00  0.00000000000E+00  0.12269388647E+04  0.12269388647E+04  0.00000000000E+00 0.  1.
         -1   -1    0    0    0  501 -0.00000000000E+00 -0.00000000000E+00 -0.61674048890E+03  0.61674048890E+03  0.00000000000E+00 0. -1.
         23    2    1    2    0    0 -0.15761155732E+03  0.60284082203E+03  0.13423439873E+03  0.64421279251E+03  0.93449390154E+02 0.  0.
        254    2    1    2    0    0  0.15761155732E+03 -0.60284082203E+03  0.47596397708E+03  0.11994665611E+04  0.90770031619E+03 0.  0.
        -24    2    4    4    0    0  0.40270345499E+03 -0.56153194796E+03  0.46723953372E+02  0.69704216599E+03  0.78717546417E+02 0.  0.
         24    2    4    4    0    0 -0.24509189767E+03 -0.41308874072E+02  0.42924002371E+03  0.50242439511E+03  0.80042572821E+02 0.  0.
         11    1    3    3    0    0 -0.98899255247E+02  0.26692743566E+03  0.23280676802E+02  0.28561041387E+03  0.00000000000E+00 0. -1.
        -11    1    3    3    0    0 -0.58712302074E+02  0.33591338637E+03  0.11095372192E+03  0.35860237864E+03  0.00000000000E+00 0.  1.
          4    1    6    6  502    0 -0.10561340643E+03 -0.58254242230E+02  0.19752816453E+03  0.23144140541E+03  0.00000000000E+00 0. -1.
          1    1    5    5  503    0  0.96704092834E+02 -0.84537658520E+02  0.44315255714E+00  0.12844646224E+03  0.00000000000E+00 0. -1.
         -2    1    5    5    0  503  0.30599936216E+03 -0.47699428944E+03  0.46280800815E+02  0.56859570375E+03  0.00000000000E+00 0.  1.
         -3    1    6    6    0  502 -0.13947849124E+03  0.16945368158E+02  0.23171185918E+03  0.27098298969E+03  0.00000000000E+00 0.  1.
<mgrwt>
<rscale>  0 0.17397734E+04</rscale>
<asrwt>0</asrwt>
<pdfrwt beam="1">  1        1 0.18875983E+00 0.17397734E+04</pdfrwt>
<pdfrwt beam="2">  1       -1 0.94883152E-01 0.17397734E+04</pdfrwt>
<totfact> 0.10401219E+01</totfact>
</mgrwt>
</event>
<event>
12    1  0.1755460E-007  0.1626318E+04  0.7818608E-02  0.8804541E-01
          1   -1    0    0  501    0  0.00000000000E+00  0.00000000000E+00  0.83073906292E+03  0.83073906292E+03  0.00000000000E+00 0. -1.
         -1   -1    0    0    0  501 -0.00000000000E+00 -0.00000000000E+00 -0.79595090082E+03  0.79595090082E+03  0.00000000000E+00 0.  1.
         23    2    1    2    0    0  0.53453475140E+03  0.21691692827E+03 -0.12603975504E+03  0.59750271690E+03  0.91340695359E+02 0.  0.
        254    2    1    2    0    0 -0.53453475140E+03 -0.21691692827E+03  0.16082791714E+03  0.10291872468E+04  0.83700681952E+03 0.  0.
        -24    2    4    4    0    0  0.11963774874E+03 -0.21200772667E+01 -0.20102326660E+03  0.24728759736E+03  0.80144347569E+02 0.  0.
         24    2    4    4    0    0 -0.65417250013E+03 -0.21479685100E+03  0.36185118374E+03  0.78189964948E+03  0.79695894236E+02 0.  0.
         13    1    3    3    0    0  0.14576262476E+03  0.55247111001E+02  0.67053466733E+01  0.15602547140E+03  0.00000000000E+00 0.  1.
        -13    1    3    3    0    0  0.38877212664E+03  0.16166981727E+03 -0.13274510171E+03  0.44147724550E+03  0.00000000000E+00 0. -1.
          2    1    6    6  502    0 -0.57349416603E+03 -0.15944908503E+03  0.30764558269E+03  0.67004878459E+03  0.00000000000E+00 0. -1.
          1    1    5    5  503    0  0.94473889401E+02 -0.63526891552E+01 -0.81074094845E+02  0.12465424699E+03  0.00000000000E+00 0. -1.
         -4    1    5    5    0  503  0.25163859334E+02  0.42326118885E+01 -0.11994917175E+03  0.12263335037E+03  0.00000000000E+00 0.  1.
         -1    1    6    6    0  502 -0.80678334107E+02 -0.55347765968E+02  0.54205601044E+02  0.11185086489E+03  0.00000000000E+00 0.  1.
<mgrwt>
<rscale>  0 0.16263179E+04</rscale>
<asrwt>0</asrwt>
<pdfrwt beam="1">  1        1 0.12780601E+00 0.16263179E+04</pdfrwt>
<pdfrwt beam="2">  1       -1 0.12245398E+00 0.16263179E+04</pdfrwt>
<totfact> 0.11730681E+01</totfact>
</mgrwt>
</event>
<event>
12    1  0.1763506E-007  0.2918126E+04  0.7818608E-02  0.8267505E-01
         -2   -1    0    0    0  501 -0.00000000000E+00  0.00000000000E+00  0.93492239054E+03  0.93492239054E+03  0.00000000000E+00 0.  1.
          2   -1    0    0  501    0  0.00000000000E+00 -0.00000000000E+00 -0.22770492553E+04  0.22770492553E+04  0.00000000000E+00 0. -1.
         23    2    1    2    0    0  0.28726445403E+03  0.11674836748E+04 -0.12045962121E+04  0.17044270864E+04  0.92090505477E+02 0.  0.
        254    2    1    2    0    0 -0.28726445403E+03 -0.11674836748E+04 -0.13753065271E+03  0.15075445595E+04  0.89901997797E+03 0.  0.
        -24    2    4    4    0    0  0.24935963927E+03 -0.79503243498E+03 -0.14072909941E+03  0.84940722383E+03  0.86204118888E+02 0.  0.
         24    2    4    4    0    0 -0.53662409329E+03 -0.37245123985E+03  0.31984467079E+01  0.65813733563E+03  0.80306780018E+02 0.  0.
         13    1    3    3    0    0  0.27452375749E+03  0.11527247206E+04 -0.11733687858E+04  0.16676126296E+04  0.00000000000E+00 0.  1.
        -13    1    3    3    0    0  0.12740696537E+02  0.14758954248E+02 -0.31227426336E+02  0.36814456866E+02  0.00000000000E+00 0. -1.
          2    1    6    6  502    0 -0.96461351065E+02 -0.37810658100E+02  0.17245400345E+02  0.10503257565E+03  0.00000000000E+00 0. -1.
          3    1    5    5  503    0  0.23375990620E+01 -0.97176827397E+02 -0.10748060046E+02  0.97797346319E+02  0.00000000000E+00 0. -1.
         -4    1    5    5    0  503  0.24702204020E+03 -0.69785560758E+03 -0.12998103937E+03  0.75160987751E+03  0.00000000000E+00 0.  1.
         -1    1    6    6    0  502 -0.44016274223E+03 -0.33464058175E+03 -0.14046953637E+02  0.55310475997E+03  0.00000000000E+00 0.  1.
<mgrwt>
<rscale>  0 0.29181257E+04</rscale>
<asrwt>0</asrwt>
<pdfrwt beam="1">  1        2 0.35031526E+00 0.29181257E+04</pdfrwt>
<pdfrwt beam="2">  1       -2 0.14383422E+00 0.29181257E+04</pdfrwt>
<totfact> 0.13473243E+00</totfact>
</mgrwt>
</event>
<event>
12    1  0.1755460E-007  0.1215263E+04  0.7818608E-02  0.9099601E-01
         -2   -1    0    0    0  501 -0.00000000000E+00  0.00000000000E+00  0.42459722822E+03  0.42459722822E+03  0.00000000000E+00 0.  1.
          2   -1    0    0  501    0  0.00000000000E+00 -0.00000000000E+00 -0.86956792180E+03  0.86956792180E+03  0.00000000000E+00 0. -1.
         23    2    1    2    0    0 -0.13135381566E+02  0.21617391864E+03 -0.24713832259E+03  0.34752657643E+03  0.11310910431E+03 0.  0.
        254    2    1    2    0    0  0.13135381566E+02 -0.21617391864E+03 -0.19783237099E+03  0.94663857360E+03  0.90004624362E+03 0.  0.
        -24    2    4    4    0    0  0.19004344021E+03 -0.12605705657E+03  0.31176274134E+03  0.39428202519E+03  0.79091199362E+02 0.  0.
         24    2    4    4    0    0 -0.17690805865E+03 -0.90116862071E+02 -0.50959511233E+03  0.55235654841E+03  0.77414908221E+02 0.  0.
         11    1    3    3    0    0 -0.49895072718E+02  0.78283235471E+02 -0.54031581676E+02  0.10741133579E+03  0.00000000000E+00 0.  1.
        -11    1    3    3    0    0  0.36759691152E+02  0.13789068317E+03 -0.19310674092E+03  0.24011524064E+03  0.00000000000E+00 0. -1.
          2    1    6    6  502    0 -0.59250559550E+02 -0.48851563100E+02 -0.11300192129E+03  0.13662554022E+03  0.00000000000E+00 0. -1.
          3    1    5    5  503    0  0.80685951571E+02 -0.10050666041E+03  0.15885523426E+03  0.20456489684E+03  0.00000000000E+00 0. -1.
         -4    1    5    5    0  503  0.10935748864E+03 -0.25550396166E+02  0.15290750709E+03  0.18971712835E+03  0.00000000000E+00 0.  1.
         -1    1    6    6    0  502 -0.11765749910E+03 -0.41265298971E+02 -0.39659319104E+03  0.41573100819E+03  0.00000000000E+00 0.  1.
<mgrwt>
<rscale>  0 0.12152631E+04</rscale>
<asrwt>0</asrwt>
<pdfrwt beam="1">  1        2 0.13377968E+00 0.12152631E+04</pdfrwt>
<pdfrwt beam="2">  1       -2 0.65322651E-01 0.12152631E+04</pdfrwt>
<totfact> 0.65519090E+01</totfact>
</mgrwt>
</event>
<event>
12    1  0.1755460E-007  0.2147341E+04  0.7818608E-02  0.8540671E-01
         -2   -1    0    0    0  501 -0.00000000000E+00  0.00000000000E+00  0.81669411771E+03  0.81669411771E+03  0.00000000000E+00 0.  1.
          2   -1    0    0  501    0  0.00000000000E+00 -0.00000000000E+00 -0.14115060335E+04  0.14115060335E+04  0.00000000000E+00 0. -1.
         23    2    1    2    0    0  0.25413433178E+03 -0.60142674115E+03 -0.86532692834E+03  0.10880128242E+04  0.93181699920E+02 0.  0.
        254    2    1    2    0    0 -0.25413433178E+03  0.60142674115E+03  0.27051501256E+03  0.11401873270E+04  0.89473481269E+03 0.  0.
        -24    2    4    4    0    0  0.26187899764E+03  0.49864650193E+03  0.20094481773E+03  0.60327403513E+03  0.79572598227E+02 0.  0.
         24    2    4    4    0    0 -0.51601332942E+03  0.10278023921E+03  0.69570194827E+02  0.53691329186E+03  0.81254767559E+02 0.  0.
         11    1    3    3    0    0  0.26299119170E+02 -0.15771217193E+02 -0.49328535706E+02  0.58083383129E+02  0.00000000000E+00 0.  1.
        -11    1    3    3    0    0  0.22783521261E+03 -0.58565552396E+03 -0.81599839263E+03  0.10299294411E+04  0.00000000000E+00 0. -1.
          2    1    6    6  502    0 -0.42364397967E+03  0.10572242276E+03  0.80019290961E+02  0.44390825529E+03  0.00000000000E+00 0. -1.
          3    1    5    5  503    0  0.11542526197E+03  0.14083459011E+03  0.69847340022E+02  0.19502826406E+03  0.00000000000E+00 0. -1.
         -4    1    5    5    0  503  0.14645373567E+03  0.35781191183E+03  0.13109747771E+03  0.40824577107E+03  0.00000000000E+00 0.  1.
         -1    1    6    6    0  502 -0.92369349754E+02 -0.29421835477E+01 -0.10449096134E+02  0.93005036574E+02  0.00000000000E+00 0.  1.
<mgrwt>
<rscale>  0 0.21473413E+04</rscale>
<asrwt>0</asrwt>
<pdfrwt beam="1">  1        2 0.21715477E+00 0.21473413E+04</pdfrwt>
<pdfrwt beam="2">  1       -2 0.12564525E+00 0.21473413E+04</pdfrwt>
<totfact> 0.61939749E+00</totfact>
</mgrwt>
</event>
<event>
12    1  0.1755460E-007  0.2050591E+04  0.7818608E-02  0.8583327E-01
          1   -1    0    0  501    0  0.00000000000E+00  0.00000000000E+00  0.10868455246E+04  0.10868455246E+04  0.00000000000E+00 0. -1.
         -1   -1    0    0    0  501 -0.00000000000E+00 -0.00000000000E+00 -0.96723069761E+03  0.96723069761E+03  0.00000000000E+00 0.  1.
         23    2    1    2    0    0 -0.28780197849E+03  0.66086953510E+03  0.48336264253E+03  0.87254995911E+03  0.90141365080E+02 0.  0.
        254    2    1    2    0    0  0.28780197849E+03 -0.66086953510E+03 -0.36374781558E+03  0.11815262631E+04  0.86262002976E+03 0.  0.
        -24    2    4    4    0    0  0.54468907055E+03 -0.64168010195E+03 -0.20870115027E+03  0.87006652744E+03  0.70852348165E+02 0.  0.
         24    2    4    4    0    0 -0.25688709206E+03 -0.19189433154E+02 -0.15504666530E+03  0.31145973563E+03  0.81292595520E+02 0.  0.
         13    1    3    3    0    0 -0.28321367381E+03  0.65393863407E+03  0.48734110609E+03  0.86333485731E+03  0.00000000000E+00 0. -1.
        -13    1    3    3    0    0 -0.45883046836E+01  0.69309010315E+01 -0.39784635541E+01  0.92151018025E+01  0.00000000000E+00 0.  1.
          4    1    6    6  502    0 -0.12203740839E+03 -0.27763465583E+02 -0.11640451947E+03  0.17092089171E+03  0.00000000000E+00 0. -1.
          3    1    5    5  503    0  0.30534947155E+03 -0.30762864043E+03 -0.95957075606E+02  0.44393855492E+03  0.00000000000E+00 0. -1.
         -4    1    5    5    0  503  0.23933959900E+03 -0.33405146152E+03 -0.11274407467E+03  0.42612797252E+03  0.00000000000E+00 0.  1.
         -3    1    6    6    0  502 -0.13484968366E+03  0.85740324285E+01 -0.38642145829E+02  0.14053884392E+03  0.00000000000E+00 0.  1.
<mgrwt>
<rscale>  0 0.20505905E+04</rscale>
<asrwt>0</asrwt>
<pdfrwt beam="1">  1        1 0.16720700E+00 0.20505905E+04</pdfrwt>
<pdfrwt beam="2">  1       -1 0.14880472E+00 0.20505905E+04</pdfrwt>
<totfact> 0.42718158E+00</totfact>
</mgrwt>
</event>
<event>
12    1  0.1755460E-007  0.1259049E+04  0.7818608E-02  0.9062685E-01
          1   -1    0    0  501    0  0.00000000000E+00  0.00000000000E+00  0.14867931865E+04  0.14867931865E+04  0.00000000000E+00 0. -1.
         -1   -1    0    0    0  501 -0.00000000000E+00 -0.00000000000E+00 -0.26654755411E+03  0.26654755411E+03  0.00000000000E+00 0.  1.
         23    2    1    2    0    0  0.16407298283E+03  0.86598395995E+02 -0.15147625884E+02  0.20746848429E+03  0.91621479578E+02 0.  0.
        254    2    1    2    0    0 -0.16407298283E+03 -0.86598395995E+02  0.12353932582E+04  0.15458722563E+04  0.91055219752E+03 0.  0.
        -24    2    4    4    0    0 -0.27167758641E+03  0.20202793633E+03  0.93496752909E+02  0.36040651173E+03  0.80791168315E+02 0.  0.
         24    2    4    4    0    0  0.10760460358E+03 -0.28862633232E+03  0.11418965053E+04  0.11854657446E+04  0.80730986776E+02 0.  0.
         11    1    3    3    0    0  0.98687206965E+02  0.51089978278E+02  0.36416345223E+02  0.11694229730E+03  0.00000000000E+00 0. -1.
        -11    1    3    3    0    0  0.65385775863E+02  0.35508417717E+02 -0.51563971106E+02  0.90526186986E+02  0.00000000000E+00 0.  1.
          4    1    6    6  502    0  0.44424196889E+02 -0.15885820165E+03  0.74764524149E+03  0.76562578628E+03  0.00000000000E+00 0. -1.
          1    1    5    5  503    0 -0.34530316668E+02  0.63008860386E+02  0.68162317033E+01  0.72172849957E+02  0.00000000000E+00 0. -1.
         -2    1    5    5    0  503 -0.23714726974E+03  0.13901907594E+03  0.86680521205E+02  0.28823366177E+03  0.00000000000E+00 0.  1.
         -3    1    6    6    0  502  0.63180406694E+02 -0.12976813068E+03  0.39425126385E+03  0.41983995829E+03  0.00000000000E+00 0.  1.
<mgrwt>
<rscale>  0 0.12590490E+04</rscale>
<asrwt>0</asrwt>
<pdfrwt beam="1">  1        1 0.22873741E+00 0.12590490E+04</pdfrwt>
<pdfrwt beam="2">  1       -1 0.41007317E-01 0.12590490E+04</pdfrwt>
<totfact> 0.38306038E+01</totfact>
</mgrwt>
</event>
<event>
12    1  0.1755460E-007  0.1984435E+04  0.7818608E-02  0.8613932E-01
          2   -1    0    0  501    0  0.00000000000E+00  0.00000000000E+00  0.36673389830E+03  0.36673389830E+03  0.00000000000E+00 0. -1.
         -2   -1    0    0    0  501 -0.00000000000E+00 -0.00000000000E+00 -0.26844962170E+04  0.26844962170E+04  0.00000000000E+00 0.  1.
         23    2    1    2    0    0 -0.37759992595E+03 -0.55177719862E+03 -0.28244025346E+03  0.73166105968E+03  0.92280163007E+02 0.  0.
        254    2    1    2    0    0  0.37759992595E+03  0.55177719862E+03 -0.20353220652E+04  0.23195690556E+04  0.88928337075E+03 0.  0.
        -24    2    4    4    0    0  0.98736621935E+02  0.22444096963E+03 -0.21127411437E+02  0.25846123095E+03  0.78950434014E+02 0.  0.
         24    2    4    4    0    0  0.27886330401E+03  0.32733622898E+03 -0.20141946538E+04  0.20611078246E+04  0.79193511995E+02 0.  0.
         13    1    3    3    0    0 -0.26112197794E+03 -0.44993670342E+03 -0.21614968323E+03  0.56333685305E+03  0.00000000000E+00 0. -1.
        -13    1    3    3    0    0 -0.11647794801E+03 -0.10184049520E+03 -0.66290570237E+02  0.16832420663E+03  0.00000000000E+00 0.  1.
          2    1    6    6  502    0  0.90223041145E+02  0.65066569884E+02 -0.62695769375E+03  0.63674940552E+03  0.00000000000E+00 0. -1.
          1    1    5    5  503    0  0.79155895941E+02  0.16746218642E+03 -0.49700983101E+02  0.19177963256E+03  0.00000000000E+00 0. -1.
         -2    1    5    5    0  503  0.19580725995E+02  0.56978783207E+02  0.28573571665E+02  0.66681598391E+02  0.00000000000E+00 0.  1.
         -1    1    6    6    0  502  0.18864026287E+03  0.26226965910E+03 -0.13872369600E+04  0.14243584191E+04  0.00000000000E+00 0.  1.
<mgrwt>
<rscale>  0 0.19844352E+04</rscale>
<asrwt>0</asrwt>
<pdfrwt beam="1">  1        2 0.56420600E-01 0.19844352E+04</pdfrwt>
<pdfrwt beam="2">  1       -2 0.41299942E+00 0.19844352E+04</pdfrwt>
<totfact> 0.49891247E-01</totfact>
</mgrwt>
</event>
<event>
12    1  0.1755460E-007  0.4612578E+04  0.7818608E-02  0.7891219E-01
          2   -1    0    0  501    0  0.00000000000E+00  0.00000000000E+00  0.27339406004E+04  0.27339406004E+04  0.00000000000E+00 0. -1.
         -2   -1    0    0    0  501 -0.00000000000E+00 -0.00000000000E+00 -0.19455317506E+04  0.19455317506E+04  0.00000000000E+00 0.  1.
         23    2    1    2    0    0 -0.68036398177E+03  0.19582693897E+04 -0.43221418442E+03  0.21196100189E+04  0.90682856511E+02 0.  0.
        254    2    1    2    0    0  0.68036398177E+03 -0.19582693897E+04  0.12206230342E+04  0.25598623321E+04  0.87479164220E+03 0.  0.
        -24    2    4    4    0    0  0.73392389570E+03 -0.11181406565E+04  0.44375928010E+03  0.14115516522E+04  0.81688162941E+02 0.  0.
         24    2    4    4    0    0 -0.53559913924E+02 -0.84012873327E+03  0.77686375410E+03  0.11483106799E+04  0.80094770168E+02 0.  0.
         11    1    3    3    0    0 -0.29501136918E+03  0.79847428684E+03 -0.21979824275E+03  0.87914968134E+03  0.00000000000E+00 0. -1.
        -11    1    3    3    0    0 -0.38535261259E+03  0.11597951029E+04 -0.21241594167E+03  0.12404603375E+04  0.00000000000E+00 0.  1.
          2    1    6    6  502    0 -0.50179150761E+02 -0.72227020061E+03  0.62811177234E+03  0.95849704664E+03  0.00000000000E+00 0. -1.
          1    1    5    5  503    0  0.61596671811E+03 -0.88983258086E+03  0.33952515388E+03  0.11342373428E+04  0.00000000000E+00 0. -1.
         -2    1    5    5    0  503  0.11795717758E+03 -0.22830807560E+03  0.10423412622E+03  0.27731430939E+03  0.00000000000E+00 0.  1.
         -3    1    6    6    0  502 -0.33807631622E+01 -0.11785853265E+03  0.14875198177E+03  0.18981363323E+03  0.00000000000E+00 0.  1.
<mgrwt>
<rscale>  0 0.46125777E+04</rscale>
<asrwt>0</asrwt>
<pdfrwt beam="1">  1        2 0.42060625E+00 0.46125777E+04</pdfrwt>
<pdfrwt beam="2">  1       -2 0.29931258E+00 0.46125777E+04</pdfrwt>
<totfact> 0.61061841E-02</totfact>
</mgrwt>
</event>
<event>
12    1  0.1755460E-007  0.9950764E+03  0.7818608E-02  0.9313961E-01
          2   -1    0    0  501    0  0.00000000000E+00  0.00000000000E+00  0.21683320967E+04  0.21683320967E+04  0.00000000000E+00 0.  1.
         -2   -1    0    0    0  501 -0.00000000000E+00 -0.00000000000E+00 -0.11416344721E+03  0.11416344721E+03  0.00000000000E+00 0. -1.
         23    2    1    2    0    0  0.35581716928E+02  0.97278557725E+02  0.31906816793E+03  0.34877107213E+03  0.95433686894E+02 0.  0.
        254    2    1    2    0    0 -0.35581716928E+02 -0.97278557725E+02  0.17351004815E+04  0.19337244718E+04  0.84734141599E+03 0.  0.
        -24    2    4    4    0    0 -0.27866669858E+03  0.22011470649E+03  0.12412701043E+04  0.12934600397E+04  0.78624356996E+02 0.  0.
         24    2    4    4    0    0  0.24308498165E+03 -0.31739326421E+03  0.49383037722E+03  0.64026443206E+03  0.79001955760E+02 0.  0.
         11    1    3    3    0    0  0.57822962673E+02  0.83502622652E+02  0.29905423234E+03  0.31583162743E+03  0.00000000000E+00 0. -1.
        -11    1    3    3    0    0 -0.22241245745E+02  0.13775935073E+02  0.20013935588E+02  0.32939444700E+02  0.00000000000E+00 0.  1.
          2    1    6    6  502    0  0.21359276787E+03 -0.29792816784E+03  0.47566126097E+03  0.60053034800E+03  0.00000000000E+00 0. -1.
          3    1    5    5  503    0 -0.21724577178E+03  0.20388898130E+03  0.10730534525E+04  0.11136472305E+04  0.00000000000E+00 0. -1.
         -4    1    5    5    0  503 -0.61420926807E+02  0.16225725194E+02  0.16821665180E+03  0.17981280920E+03  0.00000000000E+00 0.  1.
         -1    1    6    6    0  502  0.29492213779E+02 -0.19465096370E+02  0.18169116255E+02  0.39734084056E+02  0.00000000000E+00 0.  1.
<mgrwt>
<rscale>  0 0.99507641E+03</rscale>
<asrwt>0</asrwt>
<pdfrwt beam="1">  1        2 0.33358952E+00 0.99507641E+03</pdfrwt>
<pdfrwt beam="2">  1       -2 0.17563609E-01 0.99507641E+03</pdfrwt>
<totfact> 0.14494036E+02</totfact>
</mgrwt>
</event>
<event>
12    1  0.1755460E-007  0.1558591E+04  0.7818608E-02  0.8846399E-01
          1   -1    0    0  501    0  0.00000000000E+00  0.00000000000E+00  0.90609513941E+03  0.90609513941E+03  0.00000000000E+00 0. -1.
         -1   -1    0    0    0  501 -0.00000000000E+00 -0.00000000000E+00 -0.67024037392E+03  0.67024037392E+03  0.00000000000E+00 0.  1.
         23    2    1    2    0    0 -0.16188771503E+00 -0.26936138672E+03  0.47430392023E+03  0.55317618468E+03  0.92109172640E+02 0.  0.
        254    2    1    2    0    0  0.16188771503E+00  0.26936138672E+03 -0.23844915474E+03  0.10231593286E+04  0.95783162901E+03 0.  0.
        -24    2    4    4    0    0  0.37009376090E+03 -0.13521882456E+03 -0.24167272999E+03  0.46913076944E+03  0.80152654568E+02 0.  0.
         24    2    4    4    0    0 -0.36993187319E+03  0.40458021129E+03  0.32235752501E+01  0.55402855921E+03  0.80015716098E+02 0.  0.
         13    1    3    3    0    0  0.30733841948E+02 -0.23088083887E+03  0.36134116918E+03  0.42990460726E+03  0.00000000000E+00 0. -1.
        -13    1    3    3    0    0 -0.30895729663E+02 -0.38480547850E+02  0.11296275105E+03  0.12327157741E+03  0.00000000000E+00 0.  1.
          4    1    6    6  502    0 -0.10806735115E+03  0.16613389407E+03 -0.19459415875E+02  0.19914239130E+03  0.00000000000E+00 0. -1.
          3    1    5    5  503    0  0.11800445331E+03 -0.68166294723E+02 -0.48940129184E+02  0.14479927825E+03  0.00000000000E+00 0. -1.
         -4    1    5    5    0  503  0.25208930759E+03 -0.67052529840E+02 -0.19273260081E+03  0.32433149119E+03  0.00000000000E+00 0.  1.
         -3    1    6    6    0  502 -0.26186452203E+03  0.23844631721E+03  0.22682991125E+02  0.35488616792E+03  0.00000000000E+00 0.  1.
<mgrwt>
<rscale>  0 0.15585911E+04</rscale>
<asrwt>0</asrwt>
<pdfrwt beam="1">  1        1 0.13939925E+00 0.15585911E+04</pdfrwt>
<pdfrwt beam="2">  1       -1 0.10311390E+00 0.15585911E+04</pdfrwt>
<totfact> 0.15384004E+01</totfact>
</mgrwt>
</event>
<event>
12    1  0.1755460E-007  0.1105462E+04  0.7818608E-02  0.9199884E-01
         -1   -1    0    0    0  501 -0.00000000000E+00  0.00000000000E+00  0.37076748284E+03  0.37076748284E+03  0.00000000000E+00 0.  1.
          1   -1    0    0  501    0  0.00000000000E+00 -0.00000000000E+00 -0.82399776817E+03  0.82399776817E+03  0.00000000000E+00 0. -1.
         23    2    1    2    0    0 -0.10549054597E+03 -0.10360488015E+03 -0.26414491159E+02  0.17639939858E+03  0.92502951287E+02 0.  0.
        254    2    1    2    0    0  0.10549054597E+03  0.10360488015E+03 -0.42681579418E+03  0.10183658524E+04  0.91270754393E+03 0.  0.
        -24    2    4    4    0    0 -0.20732155765E+03 -0.27037017687E+03 -0.38719103306E+03  0.52234772904E+03  0.82752602078E+02 0.  0.
         24    2    4    4    0    0  0.31281210362E+03  0.37397505702E+03 -0.39624761118E+02  0.49601812339E+03  0.82189425071E+02 0.  0.
         13    1    3    3    0    0 -0.55552038072E+02 -0.88600457571E+02 -0.53689712246E+02  0.11755277630E+03  0.00000000000E+00 0. -1.
        -13    1    3    3    0    0 -0.49938507902E+02 -0.15004422580E+02  0.27275221087E+02  0.58846622280E+02  0.00000000000E+00 0.  1.
          4    1    6    6  502    0 -0.20262775674E+01 -0.14816607249E+01 -0.40149776117E+01  0.47350992076E+01  0.00000000000E+00 0. -1.
          1    1    5    5  503    0 -0.62904402980E+02 -0.11579329208E+03 -0.98858865698E+02  0.16473653430E+03  0.00000000000E+00 0. -1.
         -2    1    5    5    0  503 -0.14441715466E+03 -0.15457688479E+03 -0.28833216736E+03  0.35761119474E+03  0.00000000000E+00 0.  1.
         -3    1    6    6    0  502  0.31483838119E+03  0.37545671774E+03 -0.35609783506E+02  0.49128302418E+03  0.00000000000E+00 0.  1.
<mgrwt>
<rscale>  0 0.11054620E+04</rscale>
<asrwt>0</asrwt>
<pdfrwt beam="1">  1        1 0.12676889E+00 0.11054620E+04</pdfrwt>
<pdfrwt beam="2">  1       -1 0.57041152E-01 0.11054620E+04</pdfrwt>
<totfact> 0.65328246E+01</totfact>
</mgrwt>
</event>
<event>
12    1  0.1755460E-007  0.1648448E+04  0.7818608E-02  0.8791325E-01
         -1   -1    0    0    0  501 -0.00000000000E+00  0.00000000000E+00  0.65705151414E+03  0.65705151414E+03  0.00000000000E+00 0.  1.
          1   -1    0    0  501    0  0.00000000000E+00 -0.00000000000E+00 -0.10339298421E+04  0.10339298421E+04  0.00000000000E+00 0. -1.
         23    2    1    2    0    0  0.35108317213E+03  0.17403429333E+03  0.29382399606E+03  0.50019796313E+03  0.10157820953E+03 0.  0.
        254    2    1    2    0    0 -0.35108317213E+03 -0.17403429333E+03 -0.67070232403E+03  0.11907833931E+04  0.90253872653E+03 0.  0.
        -24    2    4    4    0    0  0.11912919960E+03 -0.37006074350E+03 -0.51848913125E+03  0.65304712206E+03  0.80640215315E+02 0.  0.
         24    2    4    4    0    0 -0.47021237173E+03  0.19602645017E+03 -0.15221319278E+03  0.53773627107E+03  0.80407695397E+02 0.  0.
         13    1    3    3    0    0  0.17983646859E+03  0.55504670967E+02  0.19019537540E+03  0.26757467137E+03  0.00000000000E+00 0. -1.
        -13    1    3    3    0    0  0.17124670354E+03  0.11852962236E+03  0.10362862066E+03  0.23262329176E+03  0.00000000000E+00 0.  1.
          4    1    6    6  502    0 -0.18811411330E+02  0.14339890619E+02 -0.25776636365E+02  0.34984805866E+02  0.00000000000E+00 0. -1.
          1    1    5    5  503    0  0.31863711382E+02 -0.26356683004E+02 -0.70029093576E+02  0.81326777811E+02  0.00000000000E+00 0. -1.
         -2    1    5    5    0  503  0.87265488220E+02 -0.34370406049E+03 -0.44846003768E+03  0.57172034425E+03  0.00000000000E+00 0.  1.
         -3    1    6    6    0  502 -0.45140096040E+03  0.18168655955E+03 -0.12643655641E+03  0.50275146521E+03  0.00000000000E+00 0.  1.
<mgrwt>
<rscale>  0 0.16484480E+04</rscale>
<asrwt>0</asrwt>
<pdfrwt beam="1">  1        1 0.15906613E+00 0.16484480E+04</pdfrwt>
<pdfrwt beam="2">  1       -1 0.10108485E+00 0.16484480E+04</pdfrwt>
<totfact> 0.12655391E+01</totfact>
</mgrwt>
</event>
<event>
12    1  0.1755460E-007  0.3020026E+04  0.7818608E-02  0.8238035E-01
         -2   -1    0    0    0  501 -0.00000000000E+00  0.00000000000E+00  0.11475594715E+04  0.11475594715E+04  0.00000000000E+00 0.  1.
          2   -1    0    0  501    0  0.00000000000E+00 -0.00000000000E+00 -0.19869465399E+04  0.19869465399E+04  0.00000000000E+00 0. -1.
         23    2    1    2    0    0  0.11124634139E+04  0.40536356539E+03  0.32733981311E+03  0.12319477845E+04  0.93002811524E+02 0.  0.
        254    2    1    2    0    0 -0.11124634139E+04 -0.40536356539E+03 -0.11667268814E+04  0.19025582269E+04  0.92551700327E+03 0.  0.
        -24    2    4    4    0    0 -0.28279463568E+03 -0.96011898117E+02 -0.93345122737E+03  0.98340390575E+03  0.80999737087E+02 0.  0.
         24    2    4    4    0    0 -0.82966877827E+03 -0.30935166728E+03 -0.23327565408E+03  0.91915432116E+03  0.79864883607E+02 0.  0.
         11    1    3    3    0    0  0.54109683279E+02  0.35336457162E+02  0.25471587972E+01  0.64676201552E+02  0.00000000000E+00 0. -1.
        -11    1    3    3    0    0  0.10583537307E+04  0.37002710823E+03  0.32479265431E+03  0.11672715829E+04  0.00000000000E+00 0.  1.
          2    1    6    6  502    0 -0.40537440365E+03 -0.18721695644E+03 -0.95302551685E+02  0.45657548365E+03  0.00000000000E+00 0. -1.
          1    1    5    5  503    0 -0.23306921572E+03 -0.11002612753E+03 -0.77150340443E+03  0.81341533739E+03  0.00000000000E+00 0. -1.
         -2    1    5    5    0  503 -0.49725419962E+02  0.14014229415E+02 -0.16194782294E+03  0.16998856835E+03  0.00000000000E+00 0.  1.
         -1    1    6    6    0  502 -0.42429437462E+03 -0.12213471084E+03 -0.13797310239E+03  0.46257883751E+03  0.00000000000E+00 0.  1.
<mgrwt>
<rscale>  0 0.30200260E+04</rscale>
<asrwt>0</asrwt>
<pdfrwt beam="1">  1        2 0.30568408E+00 0.30200260E+04</pdfrwt>
<pdfrwt beam="2">  1       -2 0.17654761E+00 0.30200260E+04</pdfrwt>
<totfact> 0.11127450E+00</totfact>
</mgrwt>
</event>
<event>
12    1  0.1755460E-007  0.2116011E+04  0.7818608E-02  0.8554223E-01
          2   -1    0    0  501    0  0.00000000000E+00  0.00000000000E+00  0.20882175923E+04  0.20882175923E+04  0.00000000000E+00 0. -1.
         -2   -1    0    0    0  501 -0.00000000000E+00 -0.00000000000E+00 -0.53604348102E+03  0.53604348102E+03  0.00000000000E+00 0.  1.
         23    2    1    2    0    0  0.53880973900E+03 -0.55792465069E+03  0.11052493590E+04  0.13532637573E+04  0.90281784809E+02 0.  0.
        254    2    1    2    0    0 -0.53880973900E+03  0.55792465069E+03  0.44692475228E+03  0.12709973160E+04  0.90227301432E+03 0.  0.
        -24    2    4    4    0    0  0.25012895901E+02 -0.74552033170E+02  0.40347319311E+03  0.41877167522E+03  0.79971543667E+02 0.  0.
         24    2    4    4    0    0 -0.56382263490E+03  0.63247668386E+03  0.43451559170E+02  0.85222564077E+03  0.80484691362E+02 0.  0.
         11    1    3    3    0    0  0.50439079165E+03 -0.49757295503E+03  0.96987742598E+03  0.12011041327E+04  0.00000000000E+00 0.  1.
        -11    1    3    3    0    0  0.34418947344E+02 -0.60351695660E+02  0.13537193302E+03  0.15215962459E+03  0.00000000000E+00 0. -1.
          2    1    6    6  502    0 -0.30562486578E+03  0.35417139373E+03  0.63327046461E+02  0.47207441101E+03  0.00000000000E+00 0. -1.
          3    1    5    5  503    0  0.43303199371E+02 -0.58863269670E+02  0.37212418083E+03  0.37923140369E+03  0.00000000000E+00 0. -1.
         -4    1    5    5    0  503 -0.18290303470E+02 -0.15688763499E+02  0.31349012285E+02  0.39540271527E+02  0.00000000000E+00 0.  1.
         -1    1    6    6    0  502 -0.25819776911E+03  0.27830529013E+03 -0.19875487291E+02  0.38015122976E+03  0.00000000000E+00 0.  1.
<mgrwt>
<rscale>  0 0.21160108E+04</rscale>
<asrwt>0</asrwt>
<pdfrwt beam="1">  1        2 0.32126424E+00 0.21160108E+04</pdfrwt>
<pdfrwt beam="2">  1       -2 0.82468229E-01 0.21160108E+04</pdfrwt>
<totfact> 0.70853680E+00</totfact>
</mgrwt>
</event>
<event>
12    1  0.1755460E-007  0.1335159E+04  0.7818608E-02  0.9002139E-01
         -2   -1    0    0    0  501 -0.00000000000E+00  0.00000000000E+00  0.28763843199E+03  0.28763843199E+03  0.00000000000E+00 0. -1.
          2   -1    0    0  501    0  0.00000000000E+00 -0.00000000000E+00 -0.15493845541E+04  0.15493845541E+04  0.00000000000E+00 0.  1.
         23    2    1    2    0    0  0.28554004309E+03  0.11531396470E+03 -0.12204254644E+03  0.34446456657E+03  0.94504115324E+02 0.  0.
        254    2    1    2    0    0 -0.28554004309E+03 -0.11531396470E+03 -0.11397035756E+04  0.14925584195E+04  0.91322284717E+03 0.  0.
        -24    2    4    4    0    0 -0.38350424289E+03 -0.22226350107E+03 -0.13043230819E+03  0.46956267786E+03  0.83665722914E+02 0.  0.
         24    2    4    4    0    0  0.97964199798E+02  0.10694953637E+03 -0.10092712675E+04  0.10229957416E+04  0.82804639532E+02 0.  0.
         13    1    3    3    0    0  0.28564641945E+03  0.94178541271E+02 -0.11706853350E+03  0.32275147733E+03  0.00000000000E+00 0. -1.
        -13    1    3    3    0    0 -0.10637635622E+00  0.21135423433E+02 -0.49740129320E+01  0.21713089238E+02  0.00000000000E+00 0.  1.
          4    1    6    6  502    0  0.40205338148E+02  0.10994713808E+02 -0.49075310561E+03  0.49252001342E+03  0.00000000000E+00 0. -1.
          3    1    5    5  503    0 -0.15247418663E+03 -0.71749562686E+02 -0.10393444661E+02  0.16883246437E+03  0.00000000000E+00 0. -1.
         -4    1    5    5    0  503 -0.23103005626E+03 -0.15051393839E+03 -0.12003886353E+03  0.30073021348E+03  0.00000000000E+00 0.  1.
         -3    1    6    6    0  502  0.57758861649E+02  0.95954822562E+02 -0.51851816184E+03  0.53047572822E+03  0.00000000000E+00 0.  1.
<mgrwt>
<rscale>  0 0.13351592E+04</rscale>
<asrwt>0</asrwt>
<pdfrwt beam="1">  1        2 0.23836686E+00 0.13351592E+04</pdfrwt>
<pdfrwt beam="2">  1       -2 0.44252066E-01 0.13351592E+04</pdfrwt>
<totfact> 0.56359125E+01</totfact>
</mgrwt>
</event>
<event>
12    1  0.1755460E-007  0.3296836E+04  0.7818608E-02  0.8163701E-01
          1   -1    0    0  501    0  0.00000000000E+00  0.00000000000E+00  0.21364915438E+04  0.21364915438E+04  0.00000000000E+00 0. -1.
         -1   -1    0    0    0  501 -0.00000000000E+00 -0.00000000000E+00 -0.12718433142E+04  0.12718433142E+04  0.00000000000E+00 0.  1.
         23    2    1    2    0    0 -0.81717109085E+03 -0.56020998135E+03  0.15988910931E+04  0.18832831959E+04  0.93268716092E+02 0.  0.
        254    2    1    2    0    0  0.81717109085E+03  0.56020998135E+03 -0.73424286352E+03  0.15250516621E+04  0.89725479911E+03 0.  0.
        -24    2    4    4    0    0  0.75836161513E+03  0.39578987553E+03 -0.91952299845E+03  0.12583930719E+04  0.79174579051E+02 0.  0.
         24    2    4    4    0    0  0.58809475720E+02  0.16442010582E+03  0.18528013493E+03  0.26665859016E+03  0.79281458574E+02 0.  0.
         13    1    3    3    0    0 -0.81198632041E+03 -0.54306682125E+03  0.15626071876E+04  0.18428197361E+04  0.00000000000E+00 0. -1.
        -13    1    3    3    0    0 -0.51847704335E+01 -0.17143160101E+02  0.36283905530E+02  0.40463459852E+02  0.00000000000E+00 0.  1.
          4    1    6    6  502    0  0.21006896133E+02  0.14777065038E+03  0.15683233535E+03  0.21650366327E+03  0.00000000000E+00 0. -1.
          3    1    5    5  503    0  0.42402963828E+02  0.31966544965E+01 -0.47854724038E+02  0.64018001797E+02  0.00000000000E+00 0. -1.
         -4    1    5    5    0  503  0.71595865130E+03  0.39259322103E+03 -0.87166827441E+03  0.11943750701E+04  0.00000000000E+00 0.  1.
         -3    1    6    6    0  502  0.37802579587E+02  0.16649455432E+02  0.28447799584E+02  0.50154926884E+02  0.00000000000E+00 0.  1.
<mgrwt>
<rscale>  0 0.32968364E+04</rscale>
<asrwt>0</asrwt>
<pdfrwt beam="1">  1        1 0.32869101E+00 0.32968364E+04</pdfrwt>
<pdfrwt beam="2">  1       -1 0.19566820E+00 0.32968364E+04</pdfrwt>
<totfact> 0.32212541E-01</totfact>
</mgrwt>
</event>
<event>
12    1  0.1755460E-007  0.2076860E+04  0.7818608E-02  0.8571506E-01
         -1   -1    0    0    0  501 -0.00000000000E+00  0.00000000000E+00  0.70683908786E+03  0.70683908786E+03  0.00000000000E+00 0.  1.
          1   -1    0    0  501    0  0.00000000000E+00 -0.00000000000E+00 -0.15255765610E+04  0.15255765610E+04  0.00000000000E+00 0. -1.
         23    2    1    2    0    0 -0.56692059431E+03 -0.49843965359E+03 -0.72596490614E+03  0.10523378109E+04  0.10270722882E+03 0.  0.
        254    2    1    2    0    0  0.56692059431E+03  0.49843965359E+03 -0.92772567019E+02  0.11800778379E+04  0.90229479987E+03 0.  0.
        -24    2    4    4    0    0  0.44884203212E+03 -0.16659174028E+03 -0.11748033259E+03  0.49958821594E+03  0.81085012431E+02 0.  0.
         24    2    4    4    0    0  0.11807856220E+03  0.66503139387E+03  0.24707765576E+02  0.68048962200E+03  0.79033855318E+02 0.  0.
         13    1    3    3    0    0 -0.21497357031E+03 -0.12961593749E+03 -0.21442662344E+03  0.33014043076E+03  0.00000000000E+00 0.  1.
        -13    1    3    3    0    0 -0.35194702400E+03 -0.36882371610E+03 -0.51153828270E+03  0.72219738017E+03  0.00000000000E+00 0. -1.
          4    1    6    6  502    0  0.11948012215E+03  0.65708230614E+03  0.15216310016E+02  0.66803008370E+03  0.00000000000E+00 0. -1.
          1    1    5    5  503    0  0.36995471134E+03 -0.16797187301E+03 -0.91040106475E+02  0.41637643972E+03  0.00000000000E+00 0. -1.
         -2    1    5    5    0  503  0.78887320776E+02  0.13801327313E+01 -0.26440226120E+02  0.83211776227E+02  0.00000000000E+00 0.  1.
         -3    1    6    6    0  502 -0.14015599568E+01  0.79490877253E+01  0.94914555604E+01  0.12459538299E+02  0.00000000000E+00 0.  1.
<mgrwt>
<rscale>  0 0.20768603E+04</rscale>
<asrwt>0</asrwt>
<pdfrwt beam="1">  1        1 0.23470408E+00 0.20768603E+04</pdfrwt>
<pdfrwt beam="2">  1       -1 0.10874448E+00 0.20768603E+04</pdfrwt>
<totfact> 0.45380136E+00</totfact>
</mgrwt>
</event>
<event>
12    1  0.1755460E-007  0.2111756E+04  0.7818608E-02  0.8556082E-01
          2   -1    0    0  501    0  0.00000000000E+00  0.00000000000E+00  0.75699098763E+03  0.75699098763E+03  0.00000000000E+00 0. -1.
         -2   -1    0    0    0  501 -0.00000000000E+00 -0.00000000000E+00 -0.14727760012E+04  0.14727760012E+04  0.00000000000E+00 0.  1.
         23    2    1    2    0    0 -0.29756530586E+03 -0.76043426611E+03 -0.14775149117E+02  0.82172492726E+03  0.90598933399E+02 0.  0.
        254    2    1    2    0    0  0.29756530586E+03  0.76043426611E+03 -0.70100986443E+03  0.14080420615E+04  0.90794395902E+03 0.  0.
        -24    2    4    4    0    0 -0.18802222111E+03  0.22992903258E+03  0.10490626010E+03  0.32540866905E+03  0.81644123055E+02 0.  0.
         24    2    4    4    0    0  0.48558752696E+03  0.53050523353E+03 -0.80591612453E+03  0.10826333925E+04  0.73233964853E+02 0.  0.
         11    1    3    3    0    0 -0.56596540744E+02 -0.18172951411E+03 -0.39393453405E+02  0.19437239746E+03  0.00000000000E+00 0.  1.
        -11    1    3    3    0    0 -0.24096876511E+03 -0.57870475200E+03  0.24618304289E+02  0.62735252980E+03  0.00000000000E+00 0. -1.
          4    1    6    6  502    0  0.26853958075E+03  0.31369331153E+03 -0.41166457383E+03  0.58308208811E+03  0.00000000000E+00 0. -1.
          1    1    5    5  503    0 -0.18882410572E+03  0.21537781396E+03  0.81435596848E+02  0.29778163490E+03  0.00000000000E+00 0. -1.
         -2    1    5    5    0  503  0.80188461523E+00  0.14551218618E+02  0.23470663257E+02  0.27627034150E+02  0.00000000000E+00 0.  1.
         -3    1    6    6    0  502  0.21704794621E+03  0.21681192200E+03 -0.39425155070E+03  0.49955130438E+03  0.00000000000E+00 0.  1.
<mgrwt>
<rscale>  0 0.21117558E+04</rscale>
<asrwt>0</asrwt>
<pdfrwt beam="1">  1        2 0.11646015E+00 0.21117558E+04</pdfrwt>
<pdfrwt beam="2">  1       -2 0.22658092E+00 0.21117558E+04</pdfrwt>
<totfact> 0.30627015E+00</totfact>
</mgrwt>
</event>
<event>
12    1  0.1755460E-007  0.1219514E+04  0.7818608E-02  0.9095946E-01
         -1   -1    0    0    0  501 -0.00000000000E+00  0.00000000000E+00  0.57979643986E+03  0.57979643986E+03  0.00000000000E+00 0.  1.
          1   -1    0    0  501    0  0.00000000000E+00 -0.00000000000E+00 -0.64126554930E+03  0.64126554930E+03  0.00000000000E+00 0. -1.
         23    2    1    2    0    0 -0.13162632656E+03  0.88653365506E+02  0.19779334609E+03  0.26892137402E+03  0.89507477820E+02 0.  0.
        254    2    1    2    0    0  0.13162632656E+03 -0.88653365506E+02 -0.25926245553E+03  0.95214061514E+03  0.90231359354E+03 0.  0.
        -24    2    4    4    0    0  0.37748219599E+03 -0.29782869749E+03  0.60250306477E+02  0.49116524410E+03  0.80115268460E+02 0.  0.
         24    2    4    4    0    0 -0.24585586943E+03  0.20917533198E+03 -0.31951276200E+03  0.46097537104E+03  0.78806469156E+02 0.  0.
         13    1    3    3    0    0 -0.47664609510E+02  0.73515248352E+02  0.14241760973E+03  0.16720999462E+03  0.00000000000E+00 0.  1.
        -13    1    3    3    0    0 -0.83961717050E+02  0.15138117154E+02  0.55375736362E+02  0.10171137940E+03  0.00000000000E+00 0. -1.
          2    1    6    6  502    0 -0.96481220617E+02  0.11278583568E+03 -0.10217396443E+03  0.18019098110E+03  0.00000000000E+00 0. -1.
          1    1    5    5  503    0  0.16906933517E+03 -0.11259595706E+03 -0.10818386780E+02  0.20341909235E+03  0.00000000000E+00 0. -1.
         -2    1    5    5    0  503  0.20841286082E+03 -0.18523274043E+03  0.71068693257E+02  0.28774615174E+03  0.00000000000E+00 0.  1.
         -1    1    6    6    0  502 -0.14937464882E+03  0.96389496303E+02 -0.21733879758E+03  0.28078438995E+03  0.00000000000E+00 0.  1.
<mgrwt>
<rscale>  0 0.12195138E+04</rscale>
<asrwt>0</asrwt>
<pdfrwt beam="1">  1        1 0.98656237E-01 0.12195138E+04</pdfrwt>
<pdfrwt beam="2">  1       -1 0.89199453E-01 0.12195138E+04</pdfrwt>
<totfact> 0.37856533E+01</totfact>
</mgrwt>
</event>
<event>
12    1  0.1755460E-007  0.2309988E+04  0.7818608E-02  0.8473993E-01
         -2   -1    0    0    0  501 -0.00000000000E+00  0.00000000000E+00  0.11867090903E+04  0.11867090903E+04  0.00000000000E+00 0.  1.
          2   -1    0    0  501    0  0.00000000000E+00 -0.00000000000E+00 -0.11241263948E+04  0.11241263948E+04  0.00000000000E+00 0. -1.
         23    2    1    2    0    0 -0.27513221279E+03 -0.48565163007E+02 -0.91059915925E+03  0.95672574297E+03  0.89872180758E+02 0.  0.
        254    2    1    2    0    0  0.27513221279E+03  0.48565163007E+02  0.97318185479E+03  0.13541097422E+04  0.89915180131E+03 0.  0.
        -24    2    4    4    0    0 -0.96848414512E+02  0.15320290524E+03  0.93745269109E+03  0.95806045302E+03  0.78813311313E+02 0.  0.
         24    2    4    4    0    0  0.37198062730E+03 -0.10463774223E+03  0.35729163695E+02  0.39604928915E+03  0.79119037633E+02 0.  0.
         13    1    3    3    0    0 -0.25007606212E+03 -0.15654397249E+02 -0.74362622674E+03  0.78470571687E+03  0.00000000000E+00 0. -1.
        -13    1    3    3    0    0 -0.25056150666E+02 -0.32910765758E+02 -0.16697293251E+03  0.17202002610E+03  0.00000000000E+00 0.  1.
          4    1    6    6  502    0  0.47647193085E+01 -0.21968187260E+01 -0.10776823290E+02  0.11986178825E+02  0.00000000000E+00 0. -1.
          1    1    5    5  503    0 -0.30130772052E+02  0.14925383379E+02  0.77057627954E+02  0.84074422504E+02  0.00000000000E+00 0. -1.
         -2    1    5    5    0  503 -0.66717642460E+02  0.13827752186E+03  0.86039506314E+03  0.87398603052E+03  0.00000000000E+00 0.  1.
         -3    1    6    6    0  502  0.36721590799E+03 -0.10244092351E+03  0.46505986986E+02  0.38406311033E+03  0.00000000000E+00 0.  1.
<mgrwt>
<rscale>  0 0.23099879E+04</rscale>
<asrwt>0</asrwt>
<pdfrwt beam="1">  1        2 0.17294252E+00 0.23099879E+04</pdfrwt>
<pdfrwt beam="2">  1       -2 0.18257063E+00 0.23099879E+04</pdfrwt>
<totfact> 0.33199296E+00</totfact>
</mgrwt>
</event>
<event>
12    1  0.1755460E-007  0.1377799E+04  0.7818608E-02  0.8970047E-01
          2   -1    0    0  501    0  0.00000000000E+00  0.00000000000E+00  0.10198181378E+04  0.10198181378E+04  0.00000000000E+00 0. -1.
         -2   -1    0    0    0  501 -0.00000000000E+00 -0.00000000000E+00 -0.46535984592E+03  0.46535984592E+03  0.00000000000E+00 0.  1.
         23    2    1    2    0    0  0.10302175802E+03  0.43029248255E+02  0.57330087353E+03  0.59115503768E+03  0.91243564956E+02 0.  0.
        254    2    1    2    0    0 -0.10302175802E+03 -0.43029248255E+02 -0.18842581635E+02  0.89402294606E+03  0.88682410114E+03 0.  0.
        -24    2    4    4    0    0  0.14590213132E+03 -0.40044018294E+03  0.80436813110E+02  0.44075821565E+03  0.78472617668E+02 0.  0.
         24    2    4    4    0    0 -0.24892388934E+03  0.35741093468E+03 -0.99279394746E+02  0.45326473041E+03  0.76725736835E+02 0.  0.
         11    1    3    3    0    0  0.90117670095E+02  0.57500500661E+02  0.32566184431E+03  0.34275813467E+03  0.00000000000E+00 0. -1.
        -11    1    3    3    0    0  0.12904087925E+02 -0.14471252406E+02  0.24763902922E+03  0.24839690301E+03  0.00000000000E+00 0.  1.
          4    1    6    6  502    0 -0.22380856218E+03  0.26701546780E+03 -0.80430891214E+02  0.35757049768E+03  0.00000000000E+00 0. -1.
          1    1    5    5  503    0  0.13402501007E+03 -0.26099429394E+03  0.55886261276E+02  0.29867038519E+03  0.00000000000E+00 0. -1.
         -2    1    5    5    0  503  0.11877121251E+02 -0.13944588900E+03  0.24550551834E+02  0.14208783046E+03  0.00000000000E+00 0.  1.
         -3    1    6    6    0  502 -0.25115327161E+02  0.90395466889E+02 -0.18848503531E+02  0.95694232730E+02  0.00000000000E+00 0.  1.
<mgrwt>
<rscale>  0 0.13777988E+04</rscale>
<asrwt>0</asrwt>
<pdfrwt beam="1">  1        2 0.15689510E+00 0.13777988E+04</pdfrwt>
<pdfrwt beam="2">  1       -2 0.71593823E-01 0.13777988E+04</pdfrwt>
<totfact> 0.42205734E+01</totfact>
</mgrwt>
</event>
<event>
12    1  0.1755460E-007  0.2051962E+04  0.7818608E-02  0.8582705E-01
          1   -1    0    0  501    0  0.00000000000E+00  0.00000000000E+00  0.87413269930E+03  0.87413269930E+03  0.00000000000E+00 0. -1.
         -1   -1    0    0    0  501 -0.00000000000E+00 -0.00000000000E+00 -0.12042071601E+04  0.12042071601E+04  0.00000000000E+00 0.  1.
         23    2    1    2    0    0  0.77171283303E+01 -0.23765973734E+02 -0.96550556227E+03  0.97026347771E+03  0.92659860918E+02 0.  0.
        254    2    1    2    0    0 -0.77171283303E+01  0.23765973734E+02  0.63543110152E+03  0.11080763816E+04  0.90743385831E+03 0.  0.
        -24    2    4    4    0    0 -0.14715575550E+03  0.42644042509E+03  0.22051394602E+03  0.50799701469E+03  0.76995545444E+02 0.  0.
         24    2    4    4    0    0  0.13943862717E+03 -0.40267445135E+03  0.41491715550E+03  0.60007936695E+03  0.79681592597E+02 0.  0.
         13    1    3    3    0    0  0.22061505828E+02 -0.31849680571E+02 -0.16124695350E+03  0.16583634163E+03  0.00000000000E+00 0. -1.
        -13    1    3    3    0    0 -0.14344377498E+02  0.80837068376E+01 -0.80425860877E+03  0.80442713608E+03  0.00000000000E+00 0.  1.
          4    1    6    6  502    0  0.87048210208E+02 -0.33612917922E+03  0.35316695524E+03  0.49526469115E+03  0.00000000000E+00 0. -1.
          1    1    5    5  503    0 -0.15734313027E+02  0.11641209401E+03  0.30556954813E+02  0.12137986540E+03  0.00000000000E+00 0. -1.
         -2    1    5    5    0  503 -0.13142144247E+03  0.31002833108E+03  0.18995699121E+03  0.38661714929E+03  0.00000000000E+00 0.  1.
         -3    1    6    6    0  502  0.52390416962E+02 -0.66545272131E+02  0.61750200257E+02  0.10481467581E+03  0.00000000000E+00 0.  1.
<mgrwt>
<rscale>  0 0.20519618E+04</rscale>
<asrwt>0</asrwt>
<pdfrwt beam="1">  1        1 0.13448195E+00 0.20519618E+04</pdfrwt>
<pdfrwt beam="2">  1       -1 0.18526264E+00 0.20519618E+04</pdfrwt>
<totfact> 0.33689857E+00</totfact>
</mgrwt>
</event>
<event>
12    1  0.1755460E-007  0.1460800E+04  0.7818608E-02  0.8910947E-01
          2   -1    0    0  501    0  0.00000000000E+00  0.00000000000E+00  0.18412013130E+04  0.18412013130E+04  0.00000000000E+00 0. -1.
         -2   -1    0    0    0  501 -0.00000000000E+00 -0.00000000000E+00 -0.28974796465E+03  0.28974796465E+03  0.00000000000E+00 0.  1.
         23    2    1    2    0    0  0.29064041328E+03  0.17855607713E+03  0.65697075322E+02  0.35987403993E+03  0.94016468755E+02 0.  0.
        254    2    1    2    0    0 -0.29064041328E+03 -0.17855607713E+03  0.14857562730E+04  0.17710752377E+04  0.90159950773E+03 0.  0.
        -24    2    4    4    0    0 -0.59960129459E+03 -0.20926755833E+03  0.10523059411E+04  0.12318525751E+04  0.82452105238E+02 0.  0.
         24    2    4    4    0    0  0.30896088131E+03  0.30711481203E+02  0.43345033198E+03  0.53922266267E+03  0.80510051437E+02 0.  0.
         13    1    3    3    0    0  0.28600570796E+03  0.16628210949E+03  0.42939904466E+02  0.33360581577E+03  0.00000000000E+00 0.  1.
        -13    1    3    3    0    0  0.46347053224E+01  0.12273967645E+02  0.22757170856E+02  0.26268224160E+02  0.00000000000E+00 0. -1.
          2    1    6    6  502    0  0.20999627379E+03  0.50769438361E+02  0.25530764885E+03  0.33445174007E+03  0.00000000000E+00 0. -1.
          3    1    5    5  503    0 -0.55477054432E+03 -0.17423649282E+03  0.98382322493E+03  0.11428196928E+04  0.00000000000E+00 0. -1.
         -4    1    5    5    0  503 -0.44830750279E+02 -0.35031065513E+02  0.68482716127E+02  0.89032882295E+02  0.00000000000E+00 0.  1.
         -1    1    6    6    0  502  0.98964607524E+02 -0.20057957158E+02  0.17814268313E+03  0.20477092259E+03  0.00000000000E+00 0.  1.
<mgrwt>
<rscale>  0 0.14608002E+04</rscale>
<asrwt>0</asrwt>
<pdfrwt beam="1">  1        2 0.28326173E+00 0.14608002E+04</pdfrwt>
<pdfrwt beam="2">  1       -2 0.44576611E-01 0.14608002E+04</pdfrwt>
<totfact> 0.37861033E+01</totfact>
</mgrwt>
</event>
<event>
12    1  0.1755460E-007  0.2605776E+04  0.7818608E-02  0.8366242E-01
         -2   -1    0    0    0  501 -0.00000000000E+00  0.00000000000E+00  0.73312845627E+03  0.73312845627E+03  0.00000000000E+00 0. -1.
          2   -1    0    0  501    0  0.00000000000E+00 -0.00000000000E+00 -0.23154432377E+04  0.23154432377E+04  0.00000000000E+00 0.  1.
         23    2    1    2    0    0  0.99770280722E+03  0.55877272797E+03 -0.79317989113E+03  0.13947639527E+04  0.92705399418E+02 0.  0.
        254    2    1    2    0    0 -0.99770280722E+03 -0.55877272797E+03 -0.78913489030E+03  0.16538077412E+04  0.89705535885E+03 0.  0.
        -24    2    4    4    0    0 -0.34987941043E+02 -0.36741322418E+03  0.21728320324E+02  0.37819042143E+03  0.79619354684E+02 0.  0.
         24    2    4    4    0    0 -0.96271486618E+03 -0.19135950380E+03 -0.81086321063E+03  0.12756173198E+04  0.79132970404E+02 0.  0.
         13    1    3    3    0    0  0.94977341510E+03  0.51653581767E+03 -0.72740906282E+03  0.13030743400E+04  0.00000000000E+00 0. -1.
        -13    1    3    3    0    0  0.47929392121E+02  0.42236910302E+02 -0.65770828309E+02  0.91689612702E+02  0.00000000000E+00 0.  1.
          4    1    6    6  502    0 -0.12499090327E+02 -0.94985536079E+00 -0.83852314939E+00  0.12563144722E+02  0.00000000000E+00 0. -1.
          3    1    5    5  503    0  0.24874716281E+02 -0.91977312574E+02 -0.22328663306E+01  0.95307729122E+02  0.00000000000E+00 0. -1.
         -4    1    5    5    0  503 -0.59862657325E+02 -0.27543591160E+03  0.23961186654E+02  0.28288269231E+03  0.00000000000E+00 0.  1.
         -3    1    6    6    0  502 -0.95021577585E+03 -0.19040964844E+03 -0.81002468748E+03  0.12630541751E+04  0.00000000000E+00 0.  1.
<mgrwt>
<rscale>  0 0.26057761E+04</rscale>
<asrwt>0</asrwt>
<pdfrwt beam="1">  1        2 0.35622203E+00 0.26057761E+04</pdfrwt>
<pdfrwt beam="2">  1       -2 0.11278899E+00 0.26057761E+04</pdfrwt>
<totfact> 0.24281809E+00</totfact>
</mgrwt>
</event>
<event>
12    1  0.1755460E-007  0.1559215E+04  0.7818608E-02  0.8846003E-01
          2   -1    0    0  501    0  0.00000000000E+00  0.00000000000E+00  0.82999221274E+03  0.82999221274E+03  0.00000000000E+00 0. -1.
         -2   -1    0    0    0  501 -0.00000000000E+00 -0.00000000000E+00 -0.73228148299E+03  0.73228148299E+03  0.00000000000E+00 0.  1.
         23    2    1    2    0    0  0.28479246981E+03  0.38032397551E+02 -0.39418451335E+03  0.49608535071E+03  0.90366091501E+02 0.  0.
        254    2    1    2    0    0 -0.28479246981E+03 -0.38032397551E+02  0.49189524310E+03  0.10661883450E+04  0.90124549527E+03 0.  0.
        -24    2    4    4    0    0  0.22234540079E+03 -0.41418146544E+02 -0.11932775354E+03  0.26779124807E+03  0.79499054484E+02 0.  0.
         24    2    4    4    0    0 -0.50713787061E+03  0.33857489929E+01  0.61122299664E+03  0.79839709694E+03  0.81511285670E+02 0.  0.
         13    1    3    3    0    0  0.16390698275E+02  0.76061924267E+01 -0.78753618726E+02  0.80800009997E+02  0.00000000000E+00 0. -1.
        -13    1    3    3    0    0  0.26840177154E+03  0.30426205124E+02 -0.31543089463E+03  0.41528534071E+03  0.00000000000E+00 0.  1.
          2    1    6    6  502    0 -0.55496193946E+02  0.99551476595E+01  0.35481533209E+02  0.66617352892E+02  0.00000000000E+00 0. -1.
          3    1    5    5  503    0  0.15275641647E+03  0.93163441457E+01 -0.67376437517E+02  0.16721513500E+03  0.00000000000E+00 0. -1.
         -4    1    5    5    0  503  0.69588984324E+02 -0.50734490690E+02 -0.51951316024E+02  0.10057611308E+03  0.00000000000E+00 0.  1.
         -1    1    6    6    0  502 -0.45164167666E+03 -0.65693986666E+01  0.57574146343E+03  0.73177974405E+03  0.00000000000E+00 0.  1.
<mgrwt>
<rscale>  0 0.15592151E+04</rscale>
<asrwt>0</asrwt>
<pdfrwt beam="1">  1        2 0.12769111E+00 0.15592151E+04</pdfrwt>
<pdfrwt beam="2">  1       -2 0.11265869E+00 0.15592151E+04</pdfrwt>
<totfact> 0.19552840E+01</totfact>
</mgrwt>
</event>
<event>
12    1  0.1755460E-007  0.1294044E+04  0.7818608E-02  0.9034302E-01
          2   -1    0    0  501    0  0.00000000000E+00  0.00000000000E+00  0.21628123693E+04  0.21628123693E+04  0.00000000000E+00 0.  1.
         -2   -1    0    0    0  501 -0.00000000000E+00 -0.00000000000E+00 -0.19356168539E+03  0.19356168539E+03  0.00000000000E+00 0. -1.
         23    2    1    2    0    0  0.19318217817E+03 -0.14467782160E+03  0.86028323574E+03  0.89849059138E+03  0.94588958509E+02 0.  0.
        254    2    1    2    0    0 -0.19318217817E+03  0.14467782160E+03  0.11089674481E+04  0.14578834633E+04  0.91507615282E+03 0.  0.
        -24    2    4    4    0    0 -0.41827878070E+03 -0.14274576234E+03  0.23423432760E+03  0.50662895391E+03  0.80459217341E+02 0.  0.
         24    2    4    4    0    0  0.22509660254E+03  0.28742358394E+03  0.87473312052E+03  0.95125450937E+03  0.80288930560E+02 0.  0.
         11    1    3    3    0    0  0.11850636896E+03 -0.89000177073E+02  0.67538500245E+03  0.69145476536E+03  0.00000000000E+00 0.  1.
        -11    1    3    3    0    0  0.74675809205E+02 -0.55677644532E+02  0.18489823329E+03  0.20703582602E+03  0.00000000000E+00 0. -1.
          2    1    6    6  502    0  0.17883764722E+03  0.17039529616E+03  0.54682686029E+03  0.60003089600E+03  0.00000000000E+00 0. -1.
          1    1    5    5  503    0 -0.23930418410E+03 -0.83797860078E+02  0.17865343622E+03  0.31017031475E+03  0.00000000000E+00 0. -1.
         -2    1    5    5    0  503 -0.17897459660E+03 -0.58947902259E+02  0.55580891384E+02  0.19645863915E+03  0.00000000000E+00 0.  1.
         -1    1    6    6    0  502  0.46258955318E+02  0.11702828779E+03  0.32790626023E+03  0.35122361337E+03  0.00000000000E+00 0.  1.
<mgrwt>
<rscale>  0 0.12940442E+04</rscale>
<asrwt>0</asrwt>
<pdfrwt beam="1">  1        2 0.33274035E+00 0.12940442E+04</pdfrwt>
<pdfrwt beam="2">  1       -2 0.29778722E-01 0.12940442E+04</pdfrwt>
<totfact> 0.55347136E+01</totfact>
</mgrwt>
</event>
<event>
12    1  0.1755460E-007  0.1881433E+04  0.7818608E-02  0.8664154E-01
          2   -1    0    0  501    0  0.00000000000E+00  0.00000000000E+00  0.18014786139E+04  0.18014786139E+04  0.00000000000E+00 0. -1.
         -2   -1    0    0    0  501 -0.00000000000E+00 -0.00000000000E+00 -0.49123385757E+03  0.49123385757E+03  0.00000000000E+00 0.  1.
         23    2    1    2    0    0  0.59799500674E+03  0.16455533674E+03  0.61230373667E+02  0.63027155519E+03  0.93896686282E+02 0.  0.
        254    2    1    2    0    0 -0.59799500674E+03 -0.16455533674E+03  0.12490143827E+04  0.16624409163E+04  0.90498419051E+03 0.  0.
        -24    2    4    4    0    0  0.15659134179E+03 -0.20105695463E+03  0.10033820158E+03  0.28531981800E+03  0.79968096873E+02 0.  0.
         24    2    4    4    0    0 -0.75458634853E+03  0.36501617896E+02  0.11486761811E+04  0.13771210983E+04  0.79199904190E+02 0.  0.
         11    1    3    3    0    0  0.38253585784E+01 -0.69806100596E+01  0.47333361202E+01  0.92610342772E+01  0.00000000000E+00 0. -1.
        -11    1    3    3    0    0  0.59416964816E+03  0.17153594680E+03  0.56497037547E+02  0.62101052091E+03  0.00000000000E+00 0.  1.
          4    1    6    6  502    0 -0.12781766118E+03 -0.22443373659E+02  0.18201484056E+03  0.22354073838E+03  0.00000000000E+00 0. -1.
          1    1    5    5  503    0  0.20064966857E+01 -0.13940097138E+02  0.29164823780E+02  0.32387332142E+02  0.00000000000E+00 0. -1.
         -2    1    5    5    0  503  0.15458484511E+03 -0.18711685750E+03  0.71173377800E+02  0.25293248586E+03  0.00000000000E+00 0.  1.
         -3    1    6    6    0  502 -0.62676868735E+03  0.58944991555E+02  0.96666134054E+03  0.11535803599E+04  0.00000000000E+00 0.  1.
<mgrwt>
<rscale>  0 0.18814327E+04</rscale>
<asrwt>0</asrwt>
<pdfrwt beam="1">  1        2 0.27715055E+00 0.18814327E+04</pdfrwt>
<pdfrwt beam="2">  1       -2 0.75574440E-01 0.18814327E+04</pdfrwt>
<totfact> 0.12681218E+01</totfact>
</mgrwt>
</event>
<event>
12    1  0.1755460E-007  0.1502094E+04  0.7818608E-02  0.8883062E-01
         -2   -1    0    0    0  501 -0.00000000000E+00  0.00000000000E+00  0.20789181429E+03  0.20789181429E+03  0.00000000000E+00 0.  1.
          2   -1    0    0  501    0  0.00000000000E+00 -0.00000000000E+00 -0.27132937172E+04  0.27132937172E+04  0.00000000000E+00 0. -1.
         23    2    1    2    0    0  0.18999749993E+03  0.40399635331E+03 -0.11374094927E+04  0.12253068842E+04  0.91457655490E+02 0.  0.
        254    2    1    2    0    0 -0.18999749993E+03 -0.40399635331E+03 -0.13679924101E+04  0.16958786473E+04  0.89737898831E+03 0.  0.
        -24    2    4    4    0    0 -0.97531784359E+02 -0.40255232805E+03 -0.11525762030E+03  0.43727756692E+03  0.79790511423E+02 0.  0.
         24    2    4    4    0    0 -0.92465715568E+02 -0.14440252575E+01 -0.12527347898E+04  0.12586010804E+04  0.78614452092E+02 0.  0.
         11    1    3    3    0    0  0.15598485368E+03  0.38462091280E+03 -0.10645394235E+04  0.11425885985E+04  0.00000000000E+00 0. -1.
        -11    1    3    3    0    0  0.34012646251E+02  0.19375440514E+02 -0.72870069249E+02  0.82718285720E+02  0.00000000000E+00 0.  1.
          4    1    6    6  502    0  0.88566202391E+01 -0.12115768187E+02 -0.31298884293E+03  0.31334844401E+03  0.00000000000E+00 0. -1.
          3    1    5    5  503    0  0.89966170160E+01 -0.75256088211E+01 -0.83632002818E+01  0.14405451219E+02  0.00000000000E+00 0. -1.
         -4    1    5    5    0  503 -0.10652840138E+03 -0.39502671923E+03 -0.10689442002E+03  0.42287211570E+03  0.00000000000E+00 0.  1.
         -3    1    6    6    0  502 -0.10132233581E+03  0.10671742930E+02 -0.93974594689E+03  0.94525263635E+03  0.00000000000E+00 0.  1.
<mgrwt>
<rscale>  0 0.15020939E+04</rscale>
<asrwt>0</asrwt>
<pdfrwt beam="1">  1        2 0.41742975E+00 0.15020939E+04</pdfrwt>
<pdfrwt beam="2">  1       -2 0.31983360E-01 0.15020939E+04</pdfrwt>
<totfact> 0.23006340E+01</totfact>
</mgrwt>
</event>
<event>
12    1  0.1755460E-007  0.1378304E+04  0.7818608E-02  0.8969675E-01
         -2   -1    0    0    0  501 -0.00000000000E+00  0.00000000000E+00  0.91673549121E+03  0.91673549121E+03  0.00000000000E+00 0.  1.
          2   -1    0    0  501    0  0.00000000000E+00 -0.00000000000E+00 -0.51806674254E+03  0.51806674254E+03  0.00000000000E+00 0. -1.
         23    2    1    2    0    0 -0.27928449140E+03  0.19210954916E+03  0.29813614856E+03  0.46065703548E+03  0.91726960270E+02 0.  0.
        254    2    1    2    0    0  0.27928449140E+03 -0.19210954916E+03  0.10053260010E+03  0.97414519827E+03  0.90771479971E+03 0.  0.
        -24    2    4    4    0    0 -0.21114870079E+03  0.22624975773E+03  0.26069027361E+02  0.32043672753E+03  0.78913721537E+02 0.  0.
         24    2    4    4    0    0  0.49043319218E+03 -0.41835930690E+03  0.74463572743E+02  0.65370847074E+03  0.78998198613E+02 0.  0.
         11    1    3    3    0    0 -0.28426157551E+03  0.17774229697E+03  0.27863872295E+03  0.43593176688E+03  0.00000000000E+00 0.  1.
        -11    1    3    3    0    0  0.49770841152E+01  0.14367252189E+02  0.19497425615E+02  0.24725268601E+02  0.00000000000E+00 0. -1.
          2    1    6    6  502    0  0.44346227594E+03 -0.40342081819E+03  0.60924079737E+02  0.60259347011E+03  0.00000000000E+00 0. -1.
          1    1    5    5  503    0 -0.18482181728E+03  0.21373648766E+03  0.18992836618E+01  0.28257034095E+03  0.00000000000E+00 0. -1.
         -2    1    5    5    0  503 -0.26326883502E+02  0.12513270068E+02  0.24169743700E+02  0.37866386588E+02  0.00000000000E+00 0.  1.
         -1    1    6    6    0  502  0.46970916248E+02 -0.14938488702E+02  0.13539493006E+02  0.51115000623E+02  0.00000000000E+00 0.  1.
<mgrwt>
<rscale>  0 0.13783036E+04</rscale>
<asrwt>0</asrwt>
<pdfrwt beam="1">  1        2 0.79702576E-01 0.13783036E+04</pdfrwt>
<pdfrwt beam="2">  1       -2 0.14103623E+00 0.13783036E+04</pdfrwt>
<totfact> 0.20275769E+01</totfact>
</mgrwt>
</event>
<event>
12    1  0.1755460E-007  0.2205013E+04  0.7818608E-02  0.8516345E-01
         -2   -1    0    0    0  501 -0.00000000000E+00  0.00000000000E+00  0.84450751897E+03  0.84450751897E+03  0.00000000000E+00 0.  1.
          2   -1    0    0  501    0  0.00000000000E+00 -0.00000000000E+00 -0.14393242421E+04  0.14393242421E+04  0.00000000000E+00 0. -1.
         23    2    1    2    0    0  0.15691038591E+03  0.87132606694E+03 -0.29323255367E+02  0.89047372919E+03  0.90849463000E+02 0.  0.
        254    2    1    2    0    0 -0.15691038591E+03 -0.87132606694E+03 -0.56549346781E+03  0.13933580319E+04  0.91533259465E+03 0.  0.
        -24    2    4    4    0    0  0.18525874174E+03 -0.14109739524E+03  0.17084128583E+03  0.29827932502E+03  0.74528749200E+02 0.  0.
         24    2    4    4    0    0 -0.34216912765E+03 -0.73022867170E+03 -0.73633475363E+03  0.10950787069E+04  0.81822246317E+02 0.  0.
         11    1    3    3    0    0  0.22490917822E+02  0.59199443719E+02  0.18307944342E+02  0.65921137332E+02  0.00000000000E+00 0. -1.
        -11    1    3    3    0    0  0.13441946809E+03  0.81212662323E+03 -0.47631199709E+02  0.82455259186E+03  0.00000000000E+00 0.  1.
          4    1    6    6  502    0 -0.33753270455E+03 -0.73095116785E+03 -0.73510444366E+03  0.10902277191E+04  0.00000000000E+00 0. -1.
          1    1    5    5  503    0  0.75258838500E+02 -0.51772543641E+02  0.11281071562E+03  0.14515697229E+03  0.00000000000E+00 0. -1.
         -2    1    5    5    0  503  0.10999990324E+03 -0.89324851599E+02  0.58030570211E+02  0.15312235273E+03  0.00000000000E+00 0.  1.
         -3    1    6    6    0  502 -0.46364231034E+01  0.72249615031E+00 -0.12303099763E+01  0.48509877880E+01  0.00000000000E+00 0.  1.
<mgrwt>
<rscale>  0 0.22050126E+04</rscale>
<asrwt>0</asrwt>
<pdfrwt beam="1">  1        2 0.22143450E+00 0.22050126E+04</pdfrwt>
<pdfrwt beam="2">  1       -2 0.12992423E+00 0.22050126E+04</pdfrwt>
<totfact> 0.54615895E+00</totfact>
</mgrwt>
</event>
<event>
12    1  0.1755460E-007  0.1805466E+04  0.7818608E-02  0.8703398E-01
          2   -1    0    0  501    0  0.00000000000E+00  0.00000000000E+00  0.11084216434E+04  0.11084216434E+04  0.00000000000E+00 0. -1.
         -2   -1    0    0    0  501 -0.00000000000E+00 -0.00000000000E+00 -0.73521348837E+03  0.73521348837E+03  0.00000000000E+00 0.  1.
         23    2    1    2    0    0 -0.11204317830E+03 -0.12522865923E+03  0.79039698643E+03  0.81338048961E+03  0.92868368267E+02 0.  0.
        254    2    1    2    0    0  0.11204317830E+03  0.12522865923E+03 -0.41718883145E+03  0.10302546421E+04  0.92689924783E+03 0.  0.
        -24    2    4    4    0    0  0.19223150135E+03 -0.36454698424E+03 -0.87927856409E+02  0.42890765966E+03  0.79893796723E+02 0.  0.
         24    2    4    4    0    0 -0.80188323054E+02  0.48977564346E+03 -0.32926097504E+03  0.60134698246E+03  0.83036471153E+02 0.  0.
         13    1    3    3    0    0 -0.43194705814E+02 -0.48712817835E+02  0.13419043266E+03  0.14915023784E+03  0.00000000000E+00 0.  1.
        -13    1    3    3    0    0 -0.68848472482E+02 -0.76515841391E+02  0.65620655378E+03  0.66423025177E+03  0.00000000000E+00 0. -1.
          2    1    6    6  502    0 -0.43126210513E+02  0.41354155316E+03 -0.24917100148E+03  0.48472948559E+03  0.00000000000E+00 0. -1.
          3    1    5    5  503    0  0.18344441286E+03 -0.35565159930E+03 -0.68785588843E+02  0.40604355668E+03  0.00000000000E+00 0. -1.
         -4    1    5    5    0  503  0.87870884893E+01 -0.88953849417E+01 -0.19142267566E+02  0.22864102977E+02  0.00000000000E+00 0.  1.
         -1    1    6    6    0  502 -0.37062112541E+02  0.76234090308E+02 -0.80089973563E+02  0.11661749687E+03  0.00000000000E+00 0.  1.
<mgrwt>
<rscale>  0 0.18054656E+04</rscale>
<asrwt>0</asrwt>
<pdfrwt beam="1">  1        2 0.17052641E+00 0.18054656E+04</pdfrwt>
<pdfrwt beam="2">  1       -2 0.11310977E+00 0.18054656E+04</pdfrwt>
<totfact> 0.12474418E+01</totfact>
</mgrwt>
</event>
<event>
12    1  0.1755460E-007  0.1457875E+04  0.7818608E-02  0.8912959E-01
         -2   -1    0    0    0  501 -0.00000000000E+00  0.00000000000E+00  0.24850621166E+03  0.24850621166E+03  0.00000000000E+00 0.  1.
          2   -1    0    0  501    0  0.00000000000E+00 -0.00000000000E+00 -0.21381755640E+04  0.21381755640E+04  0.00000000000E+00 0. -1.
         23    2    1    2    0    0  0.40780906635E+03  0.16341054850E+03 -0.72593363415E+03  0.85395305326E+03  0.96150579896E+02 0.  0.
        254    2    1    2    0    0 -0.40780906635E+03 -0.16341054850E+03 -0.11637357182E+04  0.15327287224E+04  0.89552513794E+03 0.  0.
        -24    2    4    4    0    0  0.93424909888E+02 -0.17368847049E+03 -0.96374980747E+03  0.98701544181E+03  0.80559868416E+02 0.  0.
         24    2    4    4    0    0 -0.50123397624E+03  0.10277921990E+02 -0.19998591069E+03  0.54571328056E+03  0.80420678196E+02 0.  0.
         11    1    3    3    0    0  0.97612314457E+02  0.56151107549E+02 -0.26658139477E+03  0.28939030884E+03  0.00000000000E+00 0. -1.
        -11    1    3    3    0    0  0.31019675190E+03  0.10725944095E+03 -0.45935223938E+03  0.56456274442E+03  0.00000000000E+00 0.  1.
          2    1    6    6  502    0 -0.17591610695E+02 -0.73868527053E+01 -0.24190805198E+02  0.30809502039E+02  0.00000000000E+00 0. -1.
          1    1    5    5  503    0  0.60912978165E+02 -0.35071816182E+02 -0.29163457084E+03  0.29998524315E+03  0.00000000000E+00 0. -1.
         -2    1    5    5    0  503  0.32511931723E+02 -0.13861665431E+03 -0.67211523663E+03  0.68703019866E+03  0.00000000000E+00 0.  1.
         -1    1    6    6    0  502 -0.48364236555E+03  0.17664774695E+02 -0.17579510549E+03  0.51490377852E+03  0.00000000000E+00 0.  1.
<mgrwt>
<rscale>  0 0.14578750E+04</rscale>
<asrwt>0</asrwt>
<pdfrwt beam="1">  1        2 0.32895010E+00 0.14578750E+04</pdfrwt>
<pdfrwt beam="2">  1       -2 0.38231723E-01 0.14578750E+04</pdfrwt>
<totfact> 0.35058248E+01</totfact>
</mgrwt>
</event>
<event>
12    1  0.1755460E-007  0.2137649E+04  0.7818608E-02  0.8544838E-01
          2   -1    0    0  501    0  0.00000000000E+00  0.00000000000E+00  0.12440280600E+04  0.12440280600E+04  0.00000000000E+00 0. -1.
         -2   -1    0    0    0  501 -0.00000000000E+00 -0.00000000000E+00 -0.91829593809E+03  0.91829593809E+03  0.00000000000E+00 0.  1.
         23    2    1    2    0    0  0.67755343259E+03 -0.19934118804E+03  0.65114372432E+03  0.96497621185E+03  0.91517082836E+02 0.  0.
        254    2    1    2    0    0 -0.67755343259E+03  0.19934118804E+03 -0.32541160240E+03  0.11973477862E+04  0.91045782272E+03 0.  0.
        -24    2    4    4    0    0  0.18749151134E+03  0.15062298440E+02  0.82662123681E+02  0.21994561398E+03  0.78505456852E+02 0.  0.
         24    2    4    4    0    0 -0.86504494394E+03  0.18427888960E+03 -0.40807372609E+03  0.97740217226E+03  0.80804555771E+02 0.  0.
         11    1    3    3    0    0  0.28464860247E+03 -0.54342707554E+02  0.21938616419E+03  0.36346698033E+03  0.00000000000E+00 0. -1.
        -11    1    3    3    0    0  0.39290483013E+03 -0.14499848048E+03  0.43175756013E+03  0.60150923152E+03  0.00000000000E+00 0.  1.
          4    1    6    6  502    0 -0.64011683387E+01 -0.80297493410E+00 -0.12513449089E+02  0.14078569990E+02  0.00000000000E+00 0. -1.
          3    1    5    5  503    0  0.22899061042E+02  0.30887206808E+02  0.16801933773E+02  0.41960594842E+02  0.00000000000E+00 0. -1.
         -4    1    5    5    0  503  0.16459245030E+03 -0.15824908369E+02  0.65860189909E+02  0.17798501913E+03  0.00000000000E+00 0.  1.
         -3    1    6    6    0  502 -0.85864377560E+03  0.18508186453E+03 -0.39556027700E+03  0.96332360227E+03  0.00000000000E+00 0.  1.
<mgrwt>
<rscale>  0 0.21376491E+04</rscale>
<asrwt>0</asrwt>
<pdfrwt beam="1">  1        2 0.19138893E+00 0.21376491E+04</pdfrwt>
<pdfrwt beam="2">  1       -2 0.14127630E+00 0.21376491E+04</pdfrwt>
<totfact> 0.57473223E+00</totfact>
</mgrwt>
</event>
<event>
12    1  0.1755460E-007  0.2901244E+04  0.7818608E-02  0.8272508E-01
          1   -1    0    0  501    0  0.00000000000E+00  0.00000000000E+00  0.26135744847E+04  0.26135744847E+04  0.00000000000E+00 0. -1.
         -1   -1    0    0    0  501 -0.00000000000E+00 -0.00000000000E+00 -0.80514403534E+03  0.80514403534E+03  0.00000000000E+00 0.  1.
         23    2    1    2    0    0 -0.12656876240E+04  0.25966129675E+03  0.10754289462E+04  0.16847779583E+04  0.11198303327E+03 0.  0.
        254    2    1    2    0    0  0.12656876240E+04 -0.25966129675E+03  0.73300150319E+03  0.17339405618E+04  0.89435424612E+03 0.  0.
        -24    2    4    4    0    0  0.59121319978E+02 -0.14948434962E+03  0.45406264882E+03  0.48839690871E+03  0.80732584017E+02 0.  0.
         24    2    4    4    0    0  0.12065663040E+04 -0.11017694712E+03  0.27893885436E+03  0.12455436531E+04  0.75039333403E+02 0.  0.
         13    1    3    3    0    0 -0.13342094543E+03  0.78960864529E+01  0.76476777850E+02  0.15398764369E+03  0.00000000000E+00 0. -1.
        -13    1    3    3    0    0 -0.11322666786E+04  0.25176521029E+03  0.99895216836E+03  0.15307903146E+04  0.00000000000E+00 0.  1.
          4    1    6    6  502    0  0.82633884067E+03 -0.11033416956E+03  0.19366202237E+03  0.85587060207E+03  0.00000000000E+00 0. -1.
          1    1    5    5  503    0  0.33645054990E+02 -0.12414434209E+02  0.14457463275E+03  0.14895614233E+03  0.00000000000E+00 0. -1.
         -2    1    5    5    0  503  0.25476264989E+02 -0.13706991541E+03  0.30948801607E+03  0.33944076638E+03  0.00000000000E+00 0.  1.
         -3    1    6    6    0  502  0.38022746337E+03  0.15722243735E+00  0.85276831993E+02  0.38967305103E+03  0.00000000000E+00 0.  1.
<mgrwt>
<rscale>  0 0.29012438E+04</rscale>
<asrwt>0</asrwt>
<pdfrwt beam="1">  1        1 0.40208838E+00 0.29012438E+04</pdfrwt>
<pdfrwt beam="2">  1       -1 0.12386831E+00 0.29012438E+04</pdfrwt>
<totfact> 0.55433747E-01</totfact>
</mgrwt>
</event>
<event>
12    1  0.1755460E-007  0.1600509E+04  0.7818608E-02  0.8820236E-01
         -1   -1    0    0    0  501 -0.00000000000E+00  0.00000000000E+00  0.56602223076E+03  0.56602223076E+03  0.00000000000E+00 0.  1.
          1   -1    0    0  501    0  0.00000000000E+00 -0.00000000000E+00 -0.11314167509E+04  0.11314167509E+04  0.00000000000E+00 0. -1.
         23    2    1    2    0    0 -0.30150802357E+03 -0.76737138297E+02  0.27711263268E+03  0.42562403953E+03  0.86998477903E+02 0.  0.
        254    2    1    2    0    0  0.30150802357E+03  0.76737138297E+02 -0.84250715284E+03  0.12718149421E+04  0.90049945463E+03 0.  0.
        -24    2    4    4    0    0  0.14805950192E+03 -0.27880723659E+03 -0.81261046787E+03  0.87527635992E+03  0.78216638067E+02 0.  0.
         24    2    4    4    0    0  0.15344852166E+03  0.35554437488E+03 -0.29896684972E+02  0.39653858222E+03  0.79942379896E+02 0.  0.
         13    1    3    3    0    0 -0.29327896060E+03 -0.66831250782E+02  0.28154645967E+03  0.41200409435E+03  0.00000000000E+00 0.  1.
        -13    1    3    3    0    0 -0.82290629734E+01 -0.99058875152E+01 -0.44338269825E+01  0.13619945176E+02  0.00000000000E+00 0. -1.
          2    1    6    6  502    0  0.14683648110E+01  0.58713894457E+02  0.13462668014E+02  0.60255463881E+02  0.00000000000E+00 0. -1.
          3    1    5    5  503    0  0.34258151246E+01 -0.58148300858E+02 -0.19897710232E+03  0.20732787644E+03  0.00000000000E+00 0. -1.
         -4    1    5    5    0  503  0.14463368679E+03 -0.22065893573E+03 -0.61363336555E+03  0.66794848348E+03  0.00000000000E+00 0.  1.
         -1    1    6    6    0  502  0.15198015685E+03  0.29683048043E+03 -0.43359352986E+02  0.33628311834E+03  0.00000000000E+00 0.  1.
<mgrwt>
<rscale>  0 0.16005087E+04</rscale>
<asrwt>0</asrwt>
<pdfrwt beam="1">  1        1 0.17406411E+00 0.16005087E+04</pdfrwt>
<pdfrwt beam="2">  1       -1 0.87080344E-01 0.16005087E+04</pdfrwt>
<totfact> 0.14967521E+01</totfact>
</mgrwt>
</event>
<event>
12    1  0.1755460E-007  0.2174855E+04  0.7818608E-02  0.8528968E-01
         -1   -1    0    0    0  501 -0.00000000000E+00  0.00000000000E+00  0.85482571774E+03  0.85482571774E+03  0.00000000000E+00 0.  1.
          1   -1    0    0  501    0  0.00000000000E+00 -0.00000000000E+00 -0.13833206298E+04  0.13833206298E+04  0.00000000000E+00 0. -1.
         23    2    1    2    0    0  0.47977521964E+03  0.75125911551E+03 -0.93237138625E+02  0.90089423469E+03  0.91338590208E+02 0.  0.
        254    2    1    2    0    0 -0.47977521964E+03 -0.75125911551E+03 -0.43525777341E+03  0.13372521128E+04  0.89678278523E+03 0.  0.
        -24    2    4    4    0    0  0.19134495633E+03 -0.39671755179E+03  0.20313480490E+02  0.44827709684E+03  0.80882691966E+02 0.  0.
         24    2    4    4    0    0 -0.67112017597E+03 -0.35454156372E+03 -0.45557125390E+03  0.88897501597E+03  0.81421131404E+02 0.  0.
         13    1    3    3    0    0  0.45156643576E+03  0.66874502158E+03 -0.10156723644E+03  0.81329456737E+03  0.00000000000E+00 0. -1.
        -13    1    3    3    0    0  0.28208783877E+02  0.82514093934E+02  0.83300978135E+01  0.87599667323E+02  0.00000000000E+00 0.  1.
          2    1    6    6  502    0 -0.39807226978E+02 -0.90506996663E+01 -0.83468875378E+01  0.41667745508E+02  0.00000000000E+00 0. -1.
          1    1    5    5  503    0  0.39900702053E+02 -0.16848246513E+03  0.20626687500E+02  0.17436704768E+03  0.00000000000E+00 0. -1.
         -2    1    5    5    0  503  0.15144425427E+03 -0.22823508666E+03 -0.31320700910E+00  0.27391004916E+03  0.00000000000E+00 0.  1.
         -1    1    6    6    0  502 -0.63131294899E+03 -0.34549086406E+03 -0.44722436636E+03  0.84730727046E+03  0.00000000000E+00 0.  1.
<mgrwt>
<rscale>  0 0.21748545E+04</rscale>
<asrwt>0</asrwt>
<pdfrwt beam="1">  1        1 0.21281856E+00 0.21748545E+04</pdfrwt>
<pdfrwt beam="2">  1       -1 0.13151165E+00 0.21748545E+04</pdfrwt>
<totfact> 0.35522473E+00</totfact>
</mgrwt>
</event>
<event>
12    1  0.1755460E-007  0.1525093E+04  0.7818608E-02  0.8867936E-01
         -1   -1    0    0    0  501 -0.00000000000E+00  0.00000000000E+00  0.83616149510E+03  0.83616149510E+03  0.00000000000E+00 0.  1.
          1   -1    0    0  501    0  0.00000000000E+00 -0.00000000000E+00 -0.69541246538E+03  0.69541246538E+03  0.00000000000E+00 0. -1.
         23    2    1    2    0    0  0.22043322004E+03 -0.32998557508E+03  0.34847119748E+03  0.53617399338E+03  0.92569387203E+02 0.  0.
        254    2    1    2    0    0 -0.22043322004E+03  0.32998557508E+03 -0.20772216776E+03  0.99539996709E+03  0.88892705619E+03 0.  0.
        -24    2    4    4    0    0 -0.97631263800E+02  0.28223392181E+03  0.32019051128E+03  0.44556312805E+03  0.82563231986E+02 0.  0.
         24    2    4    4    0    0 -0.12280195624E+03  0.47751653275E+02 -0.52791267905E+03  0.54983683903E+03  0.79172040583E+02 0.  0.
         11    1    3    3    0    0  0.21678403444E+03 -0.33578049260E+03  0.34670596513E+03  0.52910195904E+03  0.00000000000E+00 0.  1.
        -11    1    3    3    0    0  0.36491856001E+01  0.57949175167E+01  0.17652323510E+01  0.70720343482E+01  0.00000000000E+00 0. -1.
          4    1    6    6  502    0 -0.14369738822E+02 -0.19746428373E+02 -0.11740749022E+03  0.11992051362E+03  0.00000000000E+00 0. -1.
          3    1    5    5  503    0 -0.17238585141E+02  0.11509706406E+02  0.31231312783E+01  0.20961777315E+02  0.00000000000E+00 0. -1.
         -4    1    5    5    0  503 -0.80392678659E+02  0.27072421540E+03  0.31706738001E+03  0.42460135074E+03  0.00000000000E+00 0.  1.
         -3    1    6    6    0  502 -0.10843221742E+03  0.67498081648E+02 -0.41050518883E+03  0.42991632541E+03  0.00000000000E+00 0.  1.
<mgrwt>
<rscale>  0 0.15250930E+04</rscale>
<asrwt>0</asrwt>
<pdfrwt beam="1">  1        1 0.10698653E+00 0.15250930E+04</pdfrwt>
<pdfrwt beam="2">  1       -1 0.12864023E+00 0.15250930E+04</pdfrwt>
<totfact> 0.13838490E+01</totfact>
</mgrwt>
</event>
<event>
12    1  0.1755460E-007  0.1236060E+04  0.7818608E-02  0.9081866E-01
          1   -1    0    0  501    0  0.00000000000E+00  0.00000000000E+00  0.21933639286E+04  0.21933639286E+04  0.00000000000E+00 0. -1.
         -1   -1    0    0    0  501 -0.00000000000E+00 -0.00000000000E+00 -0.17414392784E+03  0.17414392784E+03  0.00000000000E+00 0.  1.
         23    2    1    2    0    0 -0.37835480005E+02  0.10762756878E+03  0.94003410260E+03  0.95150433672E+03  0.93172805252E+02 0.  0.
        254    2    1    2    0    0  0.37835480005E+02 -0.10762756878E+03  0.10791858982E+04  0.14160035198E+04  0.90962000197E+03 0.  0.
        -24    2    4    4    0    0  0.24336067775E+03  0.31519543553E+03  0.31272646676E+03  0.51257713174E+03  0.79780266485E+02 0.  0.
         24    2    4    4    0    0 -0.20552519774E+03 -0.42282300431E+03  0.76645943143E+03  0.90342638801E+03  0.87745533430E+02 0.  0.
         11    1    3    3    0    0 -0.26049637529E+00  0.10544366430E+03  0.78049833793E+03  0.78758878212E+03  0.00000000000E+00 0. -1.
        -11    1    3    3    0    0 -0.37574983630E+02  0.21839044860E+01  0.15953576466E+03  0.16391555460E+03  0.00000000000E+00 0.  1.
          2    1    6    6  502    0 -0.13859170822E+03 -0.29860161548E+03  0.45607193807E+03  0.56246973167E+03  0.00000000000E+00 0. -1.
          3    1    5    5  503    0  0.15637272019E+03  0.25368716843E+03  0.24970302068E+03  0.38879455446E+03  0.00000000000E+00 0. -1.
         -4    1    5    5    0  503  0.86987957560E+02  0.61508267105E+02  0.63023446089E+02  0.12378257729E+03  0.00000000000E+00 0.  1.
         -1    1    6    6    0  502 -0.66933489523E+02 -0.12422138883E+03  0.31038749336E+03  0.34095665634E+03  0.00000000000E+00 0.  1.
<mgrwt>
<rscale>  0 0.12360599E+04</rscale>
<asrwt>0</asrwt>
<pdfrwt beam="1">  1        1 0.33744059E+00 0.12360599E+04</pdfrwt>
<pdfrwt beam="2">  1       -1 0.26791375E-01 0.12360599E+04</pdfrwt>
<totfact> 0.27092921E+01</totfact>
</mgrwt>
</event>
<event>
12    1  0.1755460E-007  0.1532106E+04  0.7818608E-02  0.8863379E-01
         -1   -1    0    0    0  501 -0.00000000000E+00  0.00000000000E+00  0.97159419123E+03  0.97159419123E+03  0.00000000000E+00 0.  1.
          1   -1    0    0  501    0  0.00000000000E+00 -0.00000000000E+00 -0.60399436965E+03  0.60399436965E+03  0.00000000000E+00 0. -1.
         23    2    1    2    0    0  0.48160445153E+02  0.44406530872E+03 -0.11639734517E+03  0.47005525714E+03  0.88826662226E+02 0.  0.
        254    2    1    2    0    0 -0.48160445153E+02 -0.44406530872E+03  0.48399716675E+03  0.11055333037E+04  0.88793986360E+03 0.  0.
        -24    2    4    4    0    0 -0.34212781551E+03 -0.13113382698E+02 -0.48800098799E+02  0.35546298302E+03  0.82152782716E+02 0.  0.
         24    2    4    4    0    0  0.29396737035E+03 -0.43095192602E+03  0.53279726555E+03  0.75007032072E+03  0.81216885392E+02 0.  0.
         13    1    3    3    0    0  0.36574415997E+02  0.94875134525E+02 -0.54049465725E+02  0.11515347933E+03  0.00000000000E+00 0.  1.
        -13    1    3    3    0    0  0.11586029156E+02  0.34919017419E+03 -0.62347879447E+02  0.35490177781E+03  0.00000000000E+00 0. -1.
          2    1    6    6  502    0 -0.26438013784E+01 -0.14457164268E+02  0.27618493239E+02  0.31285467124E+02  0.00000000000E+00 0. -1.
          1    1    5    5  503    0 -0.15576896164E+03  0.82307189434E+00 -0.63036226553E+02  0.16804229442E+03  0.00000000000E+00 0. -1.
         -2    1    5    5    0  503 -0.18635885387E+03 -0.13936454592E+02  0.14236127753E+02  0.18742068860E+03  0.00000000000E+00 0.  1.
         -1    1    6    6    0  502  0.29661117173E+03 -0.41649476175E+03  0.50517877231E+03  0.71878485359E+03  0.00000000000E+00 0.  1.
<mgrwt>
<rscale>  0 0.15321063E+04</rscale>
<asrwt>0</asrwt>
<pdfrwt beam="1">  1        1 0.92922211E-01 0.15321063E+04</pdfrwt>
<pdfrwt beam="2">  1       -1 0.14947603E+00 0.15321063E+04</pdfrwt>
<totfact> 0.11527990E+01</totfact>
</mgrwt>
</event>
<event>
12    1  0.1755460E-007  0.1579865E+04  0.7818608E-02  0.8833014E-01
          2   -1    0    0  501    0  0.00000000000E+00  0.00000000000E+00  0.89566515173E+03  0.89566515173E+03  0.00000000000E+00 0. -1.
         -2   -1    0    0    0  501 -0.00000000000E+00 -0.00000000000E+00 -0.69668112955E+03  0.69668112955E+03  0.00000000000E+00 0.  1.
         23    2    1    2    0    0 -0.31552851378E+03 -0.39062511860E+03 -0.84507541200E+01  0.51008960899E+03  0.89295955448E+02 0.  0.
        254    2    1    2    0    0  0.31552851378E+03  0.39062511860E+03  0.20743477630E+03  0.10822566723E+04  0.93600432264E+03 0.  0.
        -24    2    4    4    0    0  0.43716462194E+03  0.36412337259E+03 -0.23128522823E+03  0.61954132462E+03  0.81485329833E+02 0.  0.
         24    2    4    4    0    0 -0.12163610816E+03  0.26501746017E+02  0.43872000453E+03  0.46271534766E+03  0.78310696849E+02 0.  0.
         13    1    3    3    0    0 -0.29001195784E+03 -0.37541978662E+03  0.11114676513E+02  0.47452132503E+03  0.00000000000E+00 0. -1.
        -13    1    3    3    0    0 -0.25516555941E+02 -0.15205331987E+02 -0.19565430633E+02  0.35568283959E+02  0.00000000000E+00 0.  1.
          4    1    6    6  502    0 -0.10560474277E+03  0.45854639745E+01  0.40908665165E+03  0.42252251624E+03  0.00000000000E+00 0. -1.
          1    1    5    5  503    0  0.31576015608E+03  0.29955042989E+03 -0.19742861168E+03  0.47792571904E+03  0.00000000000E+00 0. -1.
         -2    1    5    5    0  503  0.12140446586E+03  0.64572942697E+02 -0.33856616556E+02  0.14161560558E+03  0.00000000000E+00 0.  1.
         -3    1    6    6    0  502 -0.16031365388E+02  0.21916282042E+02  0.29633352880E+02  0.40192831421E+02  0.00000000000E+00 0.  1.
<mgrwt>
<rscale>  0 0.15798646E+04</rscale>
<asrwt>0</asrwt>
<pdfrwt beam="1">  1        2 0.13779464E+00 0.15798646E+04</pdfrwt>
<pdfrwt beam="2">  1       -2 0.10718171E+00 0.15798646E+04</pdfrwt>
<totfact> 0.19837084E+01</totfact>
</mgrwt>
</event>
<event>
12    1  0.1755460E-007  0.2164806E+04  0.7818608E-02  0.8533221E-01
         -2   -1    0    0    0  501 -0.00000000000E+00  0.00000000000E+00  0.89262675409E+03  0.89262675409E+03  0.00000000000E+00 0.  1.
          2   -1    0    0  501    0  0.00000000000E+00 -0.00000000000E+00 -0.13125266248E+04  0.13125266248E+04  0.00000000000E+00 0. -1.
         23    2    1    2    0    0 -0.45038314332E+03 -0.13286937287E+03 -0.95671052609E+03  0.10694559604E+04  0.89116634510E+02 0.  0.
        254    2    1    2    0    0  0.45038314332E+03  0.13286937287E+03  0.53681065538E+03  0.11356974185E+04  0.88382334237E+03 0.  0.
        -24    2    4    4    0    0 -0.84945480080E+02  0.25281509836E+03  0.50827867926E+03  0.57937286033E+03  0.78705063041E+02 0.  0.
         24    2    4    4    0    0  0.53532862340E+03 -0.11994572550E+03  0.28531976122E+02  0.55632455812E+03  0.87859138479E+02 0.  0.
         11    1    3    3    0    0 -0.38798876690E+03 -0.90151422805E+02 -0.84963194587E+03  0.93836933332E+03  0.00000000000E+00 0. -1.
        -11    1    3    3    0    0 -0.62394376421E+02 -0.42717950061E+02 -0.10707858022E+03  0.13108662712E+03  0.00000000000E+00 0.  1.
          2    1    6    6  502    0  0.45493596602E+03 -0.71482491218E+02  0.37413304526E+02  0.46203488514E+03  0.00000000000E+00 0. -1.
          3    1    5    5  503    0 -0.44586904124E+02  0.73678073564E+02  0.23359501891E+03  0.24896402029E+03  0.00000000000E+00 0. -1.
         -4    1    5    5    0  503 -0.40358575956E+02  0.17913702480E+03  0.27468366036E+03  0.33040884003E+03  0.00000000000E+00 0.  1.
         -1    1    6    6    0  502  0.80392657373E+02 -0.48463234279E+02 -0.88813284034E+01  0.94289672979E+02  0.00000000000E+00 0.  1.
<mgrwt>
<rscale>  0 0.21648061E+04</rscale>
<asrwt>0</asrwt>
<pdfrwt beam="1">  1        2 0.20192717E+00 0.21648061E+04</pdfrwt>
<pdfrwt beam="2">  1       -2 0.13732719E+00 0.21648061E+04</pdfrwt>
<totfact> 0.56272631E+00</totfact>
</mgrwt>
</event>
<event>
12    1  0.1755460E-007  0.1703878E+04  0.7818608E-02  0.8759156E-01
         -1   -1    0    0    0  501 -0.00000000000E+00  0.00000000000E+00  0.72946916832E+03  0.72946916832E+03  0.00000000000E+00 0.  1.
          1   -1    0    0  501    0  0.00000000000E+00 -0.00000000000E+00 -0.99496989642E+03  0.99496989642E+03  0.00000000000E+00 0. -1.
         23    2    1    2    0    0  0.42241297958E+03 -0.34940056773E+03  0.17243132802E+03  0.58210529884E+03  0.92739064080E+02 0.  0.
        254    2    1    2    0    0 -0.42241297958E+03  0.34940056773E+03 -0.43793205612E+03  0.11423337659E+04  0.90145907556E+03 0.  0.
        -24    2    4    4    0    0  0.43650133565E+02 -0.25184325528E+03 -0.16001885377E+02  0.26852579044E+03  0.80744537943E+02 0.  0.
         24    2    4    4    0    0 -0.46606311314E+03  0.60124382301E+03 -0.42193017074E+03  0.87380797546E+03  0.82500599195E+02 0.  0.
         13    1    3    3    0    0  0.14074386544E+03 -0.14453697275E+03  0.10468973738E+03  0.22728773232E+03  0.00000000000E+00 0.  1.
        -13    1    3    3    0    0  0.28166911414E+03 -0.20486359498E+03  0.67741590644E+02  0.35481756652E+03  0.00000000000E+00 0. -1.
          2    1    6    6  502    0 -0.90081626414E+02  0.80913863031E+02 -0.91737456622E+02  0.15191284868E+03  0.00000000000E+00 0. -1.
          1    1    5    5  503    0  0.33119831928E+02 -0.30208807302E+02 -0.12796847279E+02  0.46618178920E+02  0.00000000000E+00 0. -1.
         -2    1    5    5    0  503  0.10530301637E+02 -0.22163444798E+03 -0.32050380982E+01  0.22190761152E+03  0.00000000000E+00 0.  1.
         -1    1    6    6    0  502 -0.37598148673E+03  0.52032995998E+03 -0.33019271412E+03  0.72189512678E+03  0.00000000000E+00 0.  1.
<mgrwt>
<rscale>  0 0.17038778E+04</rscale>
<asrwt>0</asrwt>
<pdfrwt beam="1">  1        1 0.15307229E+00 0.17038778E+04</pdfrwt>
<pdfrwt beam="2">  1       -1 0.11222603E+00 0.17038778E+04</pdfrwt>
<totfact> 0.10572432E+01</totfact>
</mgrwt>
</event>
<event>
12    1  0.1955988E-007  0.2740496E+04  0.7818608E-02  0.8321984E-01
         -1   -1    0    0    0  501 -0.00000000000E+00  0.00000000000E+00  0.11496699051E+04  0.11496699051E+04  0.00000000000E+00 0. -1.
          1   -1    0    0  501    0  0.00000000000E+00 -0.00000000000E+00 -0.16331467990E+04  0.16331467990E+04  0.00000000000E+00 0.  1.
         23    2    1    2    0    0  0.65746873144E+02  0.69282343073E+03 -0.12319698324E+04  0.14204756747E+04  0.12519791159E+03 0.  0.
        254    2    1    2    0    0 -0.65746873144E+02 -0.69282343073E+03  0.74849293855E+03  0.13623410293E+04  0.90077990857E+03 0.  0.
        -24    2    4    4    0    0  0.10329774527E+03 -0.81015413583E+03  0.32179129919E+03  0.88140994228E+03  0.79458782555E+02 0.  0.
         24    2    4    4    0    0 -0.16904461841E+03  0.11733070511E+03  0.42670163936E+03  0.48093108707E+03  0.82932768568E+02 0.  0.
         13    1    3    3    0    0  0.50902694338E+02  0.66284959183E+03 -0.12095547347E+04  0.13802113324E+04  0.00000000000E+00 0.  1.
        -13    1    3    3    0    0  0.14844178806E+02  0.29973838898E+02 -0.22415097672E+02  0.40264342368E+02  0.00000000000E+00 0. -1.
          4    1    6    6  502    0 -0.14972477221E+03  0.12847675018E+03  0.35886247052E+03  0.40951929808E+03  0.00000000000E+00 0. -1.
          1    1    5    5  503    0  0.39816301254E+02 -0.53737917916E+03  0.23806504606E+03  0.58909819741E+03  0.00000000000E+00 0. -1.
         -2    1    5    5    0  503  0.63481444012E+02 -0.27277495667E+03  0.83726253131E+02  0.29231174486E+03  0.00000000000E+00 0.  1.
         -3    1    6    6    0  502 -0.19319846199E+02 -0.11146045074E+02  0.67839168838E+02  0.71411788989E+02  0.00000000000E+00 0.  1.
<mgrwt>
<rscale>  0 0.27404961E+04</rscale>
<asrwt>0</asrwt>
<pdfrwt beam="1">  1        1 0.25125335E+00 0.27404961E+04</pdfrwt>
<pdfrwt beam="2">  1       -1 0.17687229E+00 0.27404961E+04</pdfrwt>
<totfact> 0.10101087E+00</totfact>
</mgrwt>
</event>
<event>
12    1  0.1755460E-007  0.1504558E+04  0.7818608E-02  0.8881428E-01
         -3   -1    0    0    0  501 -0.00000000000E+00  0.00000000000E+00  0.25178704985E+04  0.25178704985E+04  0.00000000000E+00 0.  1.
          3   -1    0    0  501    0  0.00000000000E+00 -0.00000000000E+00 -0.22476282260E+03  0.22476282260E+03  0.00000000000E+00 0. -1.
         23    2    1    2    0    0  0.90986178223E+02 -0.64053239358E+01  0.15348150158E+04  0.15398135172E+04  0.83958454140E+02 0.  0.
        254    2    1    2    0    0 -0.90986178223E+02  0.64053239358E+01  0.75829266006E+03  0.12028198039E+04  0.92921913972E+03 0.  0.
        -24    2    4    4    0    0 -0.12065568180E+03 -0.43106825494E+03  0.22365239975E+03  0.50671270929E+03  0.79747977235E+02 0.  0.
         24    2    4    4    0    0  0.29669503581E+02  0.43747357888E+03  0.53464026031E+03  0.69610709464E+03  0.80383254458E+02 0.  0.
         13    1    3    3    0    0  0.71415099357E+02 -0.18380266760E+02  0.14522154617E+04  0.14540865510E+04  0.00000000000E+00 0.  1.
        -13    1    3    3    0    0  0.19571078866E+02  0.11974942824E+02  0.82599554098E+02  0.85726966124E+02  0.00000000000E+00 0. -1.
          2    1    6    6  502    0  0.46966837644E+02  0.21069394128E+03  0.22375382689E+03  0.31090769655E+03  0.00000000000E+00 0. -1.
          1    1    5    5  503    0 -0.38397627742E+02 -0.42996008500E+02  0.21940701672E+02  0.61680053121E+02  0.00000000000E+00 0. -1.
         -2    1    5    5    0  503 -0.82258054063E+02 -0.38807224644E+03  0.20171169808E+03  0.44503265617E+03  0.00000000000E+00 0.  1.
         -1    1    6    6    0  502 -0.17297334062E+02  0.22677963760E+03  0.31088643343E+03  0.38519939808E+03  0.00000000000E+00 0.  1.
<mgrwt>
<rscale>  0 0.15045580E+04</rscale>
<asrwt>0</asrwt>
<pdfrwt beam="1">  1        3 0.34578898E-01 0.15045580E+04</pdfrwt>
<pdfrwt beam="2">  1       -3 0.38736467E+00 0.15045580E+04</pdfrwt>
<totfact> 0.26228205E-01</totfact>
</mgrwt>
</event>
<event>
12    1  0.1755460E-007  0.3353189E+04  0.7818608E-02  0.8149492E-01
          2   -1    0    0  501    0  0.00000000000E+00  0.00000000000E+00  0.34832765663E+04  0.34832765663E+04  0.00000000000E+00 0.  1.
         -2   -1    0    0    0  501 -0.00000000000E+00 -0.00000000000E+00 -0.80698971456E+03  0.80698971456E+03  0.00000000000E+00 0. -1.
         23    2    1    2    0    0  0.96240342516E+03  0.71697450997E+03 -0.11647418455E+02  0.12039924195E+04  0.95860749114E+02 0.  0.
        254    2    1    2    0    0 -0.96240342516E+03 -0.71697450997E+03  0.26879342702E+04  0.30862738614E+04  0.92726636168E+03 0.  0.
        -24    2    4    4    0    0 -0.27617662222E+03  0.21167388695E+03  0.57393521548E+03  0.67608630654E+03  0.81312368302E+02 0.  0.
         24    2    4    4    0    0 -0.68622680294E+03 -0.92864839692E+03  0.21139990548E+04  0.24101875548E+04  0.81957157983E+02 0.  0.
         13    1    3    3    0    0  0.52708893916E+03  0.37530369949E+03 -0.51987625269E+02  0.64913660336E+03  0.00000000000E+00 0. -1.
        -13    1    3    3    0    0  0.43531448600E+03  0.34167081047E+03  0.40340206814E+02  0.55485581617E+03  0.00000000000E+00 0.  1.
          2    1    6    6  502    0 -0.22058374547E+03 -0.35001618045E+03  0.70562346017E+03  0.81796881535E+03  0.00000000000E+00 0. -1.
          1    1    5    5  503    0 -0.10186071003E+03  0.61951234844E+02  0.26924432181E+03  0.29445893529E+03  0.00000000000E+00 0. -1.
         -2    1    5    5    0  503 -0.17431591219E+03  0.14972265211E+03  0.30469089367E+03  0.38162737125E+03  0.00000000000E+00 0.  1.
         -1    1    6    6    0  502 -0.46564305748E+03 -0.57863221647E+03  0.14083755946E+04  0.15922187395E+04  0.00000000000E+00 0.  1.
<mgrwt>
<rscale>  0 0.33531885E+04</rscale>
<asrwt>0</asrwt>
<pdfrwt beam="1">  1        2 0.53588870E+00 0.33531885E+04</pdfrwt>
<pdfrwt beam="2">  1       -2 0.12415227E+00 0.33531885E+04</pdfrwt>
<totfact> 0.33825541E-01</totfact>
</mgrwt>
</event>
<event>
12    1  0.1755460E-007  0.1209973E+04  0.7818608E-02  0.9104172E-01
         -1   -1    0    0    0  501 -0.00000000000E+00  0.00000000000E+00  0.74729241966E+03  0.74729241966E+03  0.00000000000E+00 0.  1.
          1   -1    0    0  501    0  0.00000000000E+00 -0.00000000000E+00 -0.48977972983E+03  0.48977972983E+03  0.00000000000E+00 0. -1.
         23    2    1    2    0    0 -0.71850023155E+02 -0.17332439165E+03 -0.12030055633E+03  0.24143445629E+03  0.92814881688E+02 0.  0.
        254    2    1    2    0    0  0.71850023155E+02  0.17332439165E+03  0.37781324616E+03  0.99563769319E+03  0.90185796917E+03 0.  0.
        -24    2    4    4    0    0  0.45039604037E+03  0.97736605634E+02  0.28267665993E+02  0.46873279115E+03  0.80637034284E+02 0.  0.
         24    2    4    4    0    0 -0.37854601721E+03  0.75587786019E+02  0.34954558016E+03  0.52690490204E+03  0.80225074883E+02 0.  0.
         13    1    3    3    0    0 -0.83059274767E+02 -0.17679607302E+03 -0.10384282834E+03  0.22122167064E+03  0.00000000000E+00 0. -1.
        -13    1    3    3    0    0  0.11209251613E+02  0.34716813723E+01 -0.16457727996E+02  0.20212785658E+02  0.00000000000E+00 0.  1.
          2    1    6    6  502    0 -0.37198198757E+03  0.62921667655E+02  0.32247874372E+03  0.49630864942E+03  0.00000000000E+00 0. -1.
          1    1    5    5  503    0  0.34496536278E+03  0.90855713539E+02  0.51850383669E+02  0.36047791123E+03  0.00000000000E+00 0. -1.
         -2    1    5    5    0  503  0.10543067759E+03  0.68808920944E+01 -0.23582717675E+02  0.10825487992E+03  0.00000000000E+00 0.  1.
         -3    1    6    6    0  502 -0.65640296470E+01  0.12666118363E+02  0.27066836445E+02  0.30596252626E+02  0.00000000000E+00 0.  1.
<mgrwt>
<rscale>  0 0.12099730E+04</rscale>
<asrwt>0</asrwt>
<pdfrwt beam="1">  1        1 0.75350728E-01 0.12099730E+04</pdfrwt>
<pdfrwt beam="2">  1       -1 0.11496806E+00 0.12099730E+04</pdfrwt>
<totfact> 0.30993856E+01</totfact>
</mgrwt>
</event>
<event>
12    1  0.1755460E-007  0.1239161E+04  0.7818608E-02  0.9079253E-01
          1   -1    0    0  501    0  0.00000000000E+00  0.00000000000E+00  0.17364544233E+04  0.17364544233E+04  0.00000000000E+00 0. -1.
         -1   -1    0    0    0  501 -0.00000000000E+00 -0.00000000000E+00 -0.22107131261E+03  0.22107131261E+03  0.00000000000E+00 0.  1.
         23    2    1    2    0    0  0.22299015424E+03 -0.16405018211E+03  0.46403931751E+03  0.55001523256E+03  0.10269954584E+03 0.  0.
        254    2    1    2    0    0 -0.22299015424E+03  0.16405018211E+03  0.10513437932E+04  0.14075105033E+04  0.89393790302E+03 0.  0.
        -24    2    4    4    0    0 -0.33456922268E+03  0.93965312920E+01  0.11341095904E+04  0.11854529302E+04  0.84078697089E+02 0.  0.
         24    2    4    4    0    0  0.11157906844E+03  0.15465365082E+03 -0.82765797197E+02  0.22205757310E+03  0.78049653168E+02 0.  0.
         13    1    3    3    0    0  0.15696829631E+03 -0.16432467359E+03  0.38461728340E+03  0.44673493157E+03  0.00000000000E+00 0. -1.
        -13    1    3    3    0    0  0.66021857933E+02  0.27449147868E+00  0.79422034114E+02  0.10328030099E+03  0.00000000000E+00 0.  1.
          2    1    6    6  502    0  0.49951884122E+02  0.11648615564E+03 -0.79253281354E+02  0.14948343650E+03  0.00000000000E+00 0. -1.
          3    1    5    5  503    0 -0.94071177274E+02 -0.31631010469E+02  0.38664655413E+03  0.39918099284E+03  0.00000000000E+00 0. -1.
         -4    1    5    5    0  503 -0.24049804541E+03  0.41027541761E+02  0.74746303623E+03  0.78627193741E+03  0.00000000000E+00 0.  1.
         -1    1    6    6    0  502  0.61627184320E+02  0.38167495178E+02 -0.35125158427E+01  0.72574136598E+02  0.00000000000E+00 0.  1.
<mgrwt>
<rscale>  0 0.12391614E+04</rscale>
<asrwt>0</asrwt>
<pdfrwt beam="1">  1        1 0.26714683E+00 0.12391614E+04</pdfrwt>
<pdfrwt beam="2">  1       -1 0.34010972E-01 0.12391614E+04</pdfrwt>
<totfact> 0.36299203E+01</totfact>
</mgrwt>
</event>
<event>
12    1  0.1755460E-007  0.1888510E+04  0.7818608E-02  0.8660597E-01
         -2   -1    0    0    0  501 -0.00000000000E+00  0.00000000000E+00  0.36343697506E+03  0.36343697506E+03  0.00000000000E+00 0.  1.
          2   -1    0    0  501    0  0.00000000000E+00 -0.00000000000E+00 -0.24532942226E+04  0.24532942226E+04  0.00000000000E+00 0. -1.
         23    2    1    2    0    0  0.37608229107E+03  0.47515996243E+03 -0.14693414660E+04  0.15926178248E+04  0.10125370388E+03 0.  0.
        254    2    1    2    0    0 -0.37608229107E+03 -0.47515996243E+03 -0.62051578151E+03  0.12241133729E+04  0.86382801236E+03 0.  0.
        -24    2    4    4    0    0 -0.41917728819E+03 -0.91243079533E+02  0.56667071876E+02  0.44015811341E+03  0.80579831672E+02 0.  0.
         24    2    4    4    0    0  0.43094997117E+02 -0.38391688290E+03 -0.67718285339E+03  0.78395525944E+03  0.82218490207E+02 0.  0.
         13    1    3    3    0    0  0.39607006782E+02  0.84504101411E+02 -0.31127454902E+03  0.32496384877E+03  0.00000000000E+00 0.  1.
        -13    1    3    3    0    0  0.33647528429E+03  0.39065586102E+03 -0.11580669170E+04  0.12676539760E+04  0.00000000000E+00 0. -1.
          2    1    6    6  502    0  0.65832831992E+02 -0.29672905514E+03 -0.49884622145E+03  0.58414865111E+03  0.00000000000E+00 0. -1.
          3    1    5    5  503    0 -0.37359170139E+03 -0.56257986935E+02  0.60275708056E+02  0.38258186238E+03  0.00000000000E+00 0. -1.
         -4    1    5    5    0  503 -0.45585586802E+02 -0.34985092598E+02 -0.36086361797E+01  0.57576251035E+02  0.00000000000E+00 0.  1.
         -1    1    6    6    0  502 -0.22737834875E+02 -0.87187827759E+02 -0.17833663194E+03  0.19980660834E+03  0.00000000000E+00 0.  1.
<mgrwt>
<rscale>  0 0.18885103E+04</rscale>
<asrwt>0</asrwt>
<pdfrwt beam="1">  1        2 0.37742987E+00 0.18885103E+04</pdfrwt>
<pdfrwt beam="2">  1       -2 0.55913382E-01 0.18885103E+04</pdfrwt>
<totfact> 0.10439753E+01</totfact>
</mgrwt>
</event>
<event>
12    1  0.1755460E-007  0.1286560E+04  0.7818608E-02  0.9040292E-01
         -1   -1    0    0    0  501 -0.00000000000E+00  0.00000000000E+00  0.75846064409E+03  0.75846064409E+03  0.00000000000E+00 0.  1.
          1   -1    0    0  501    0  0.00000000000E+00 -0.00000000000E+00 -0.54559075427E+03  0.54559075427E+03  0.00000000000E+00 0. -1.
         23    2    1    2    0    0 -0.76874069258E+02 -0.19921816084E+03  0.30102100506E+03  0.37988129422E+03  0.89992522320E+02 0.  0.
        254    2    1    2    0    0  0.76874069258E+02  0.19921816084E+03 -0.88151115244E+02  0.92417010414E+03  0.89483085783E+03 0.  0.
        -24    2    4    4    0    0 -0.28793685907E+03 -0.52616092061E+02  0.22344731052E+03  0.37646804343E+03  0.78252151362E+02 0.  0.
         24    2    4    4    0    0  0.36481092833E+03  0.25183425290E+03 -0.31159842576E+03  0.54770206071E+03  0.79852764559E+02 0.  0.
         13    1    3    3    0    0 -0.10363171772E+02 -0.14561814135E+03  0.18020348401E+03  0.23191665328E+03  0.00000000000E+00 0. -1.
        -13    1    3    3    0    0 -0.66510897486E+02 -0.53600019489E+02  0.12081752105E+03  0.14796464093E+03  0.00000000000E+00 0.  1.
          2    1    6    6  502    0  0.22003458496E+03  0.19371836314E+03 -0.18359057005E+03  0.34590102661E+03  0.00000000000E+00 0. -1.
          3    1    5    5  503    0 -0.60825355752E+02 -0.33919750878E+02  0.24087834811E+02  0.73691907207E+02  0.00000000000E+00 0. -1.
         -4    1    5    5    0  503 -0.22711150332E+03 -0.18696341184E+02  0.19935947570E+03  0.30277613622E+03  0.00000000000E+00 0.  1.
         -1    1    6    6    0  502  0.14477634336E+03  0.58115889763E+02 -0.12800785571E+03  0.20180103410E+03  0.00000000000E+00 0.  1.
<mgrwt>
<rscale>  0 0.12865599E+04</rscale>
<asrwt>0</asrwt>
<pdfrwt beam="1">  1        1 0.83937039E-01 0.12865599E+04</pdfrwt>
<pdfrwt beam="2">  1       -1 0.11668625E+00 0.12865599E+04</pdfrwt>
<totfact> 0.25584846E+01</totfact>
</mgrwt>
</event>
<event>
12    1  0.1755460E-007  0.1429236E+04  0.7818608E-02  0.8932924E-01
          1   -1    0    0  501    0  0.00000000000E+00  0.00000000000E+00  0.68724800388E+03  0.68724800388E+03  0.00000000000E+00 0. -1.
         -1   -1    0    0    0  501 -0.00000000000E+00 -0.00000000000E+00 -0.74307771097E+03  0.74307771097E+03  0.00000000000E+00 0.  1.
         23    2    1    2    0    0 -0.16431042774E+03 -0.34033552554E+03 -0.21643105241E+03  0.44489600369E+03  0.90905814128E+02 0.  0.
        254    2    1    2    0    0  0.16431042774E+03  0.34033552554E+03  0.16060134532E+03  0.98542971116E+03  0.89579726329E+03 0.  0.
        -24    2    4    4    0    0 -0.13187657931E+03  0.16604772113E+03  0.46622021255E+03  0.51831927617E+03  0.79563230178E+02 0.  0.
         24    2    4    4    0    0  0.29618700704E+03  0.17428780440E+03 -0.30561886723E+03  0.46711043499E+03  0.81769704479E+02 0.  0.
         13    1    3    3    0    0 -0.73209751386E+02 -0.62371333196E+02 -0.51891634391E+02  0.10928216974E+03  0.00000000000E+00 0. -1.
        -13    1    3    3    0    0 -0.91100676349E+02 -0.27796419234E+03 -0.16453941802E+03  0.33561383395E+03  0.00000000000E+00 0.  1.
          2    1    6    6  502    0  0.21582850849E+03  0.10315584637E+03 -0.25084846263E+03  0.34662375124E+03  0.00000000000E+00 0. -1.
          3    1    5    5  503    0 -0.11042536014E+03  0.16087083832E+03  0.45131671604E+03  0.49169092422E+03  0.00000000000E+00 0. -1.
         -4    1    5    5    0  503 -0.21451219165E+02  0.51768828140E+01  0.14903496510E+02  0.26628351950E+02  0.00000000000E+00 0.  1.
         -1    1    6    6    0  502  0.80358498550E+02  0.71131958029E+02 -0.54770404594E+02  0.12048668375E+03  0.00000000000E+00 0.  1.
<mgrwt>
<rscale>  0 0.14292357E+04</rscale>
<asrwt>0</asrwt>
<pdfrwt beam="1">  1        1 0.10573046E+00 0.14292357E+04</pdfrwt>
<pdfrwt beam="2">  1       -1 0.11431965E+00 0.14292357E+04</pdfrwt>
<totfact> 0.18983013E+01</totfact>
</mgrwt>
</event>
<event>
12    1  0.1755460E-007  0.3259528E+04  0.7818608E-02  0.8173270E-01
          2   -1    0    0  501    0  0.00000000000E+00  0.00000000000E+00  0.22554546293E+04  0.22554546293E+04  0.00000000000E+00 0. -1.
         -2   -1    0    0    0  501 -0.00000000000E+00 -0.00000000000E+00 -0.11776476358E+04  0.11776476358E+04  0.00000000000E+00 0.  1.
         23    2    1    2    0    0  0.12432564250E+03  0.92130453388E+03  0.17465247598E+04  0.19807043684E+04  0.92639888930E+02 0.  0.
        254    2    1    2    0    0 -0.12432564250E+03 -0.92130453388E+03 -0.66871776627E+03  0.14523978967E+04  0.89331813471E+03 0.  0.
        -24    2    4    4    0    0 -0.28213437000E+03 -0.16380310943E+03 -0.57841095108E+03  0.66907094725E+03  0.81642162763E+02 0.  0.
         24    2    4    4    0    0  0.15780872749E+03 -0.75750142445E+03 -0.90306815196E+02  0.78332694942E+03  0.82059650881E+02 0.  0.
         11    1    3    3    0    0  0.10408935930E+03  0.64752825086E+03  0.13106741699E+04  0.14656037016E+04  0.00000000000E+00 0. -1.
        -11    1    3    3    0    0  0.20236283200E+02  0.27377628301E+03  0.43585058989E+03  0.51510066687E+03  0.00000000000E+00 0.  1.
          2    1    6    6  502    0  0.13301388025E+03 -0.59695979673E+03 -0.10370905292E+03  0.62032995971E+03  0.00000000000E+00 0. -1.
          3    1    5    5  503    0 -0.17960999578E+03 -0.13143290032E+03 -0.44650353822E+03  0.49889855433E+03  0.00000000000E+00 0. -1.
         -4    1    5    5    0  503 -0.10252437421E+03 -0.32370209101E+02 -0.13190741286E+03  0.17017239292E+03  0.00000000000E+00 0.  1.
         -1    1    6    6    0  502  0.24794847241E+02 -0.16054162772E+03  0.13402237719E+02  0.16299698972E+03  0.00000000000E+00 0.  1.
<mgrwt>
<rscale>  0 0.32595281E+04</rscale>
<asrwt>0</asrwt>
<pdfrwt beam="1">  1        2 0.34699302E+00 0.32595281E+04</pdfrwt>
<pdfrwt beam="2">  1       -2 0.18117656E+00 0.32595281E+04</pdfrwt>
<totfact> 0.71654262E-01</totfact>
</mgrwt>
</event>
<event>
12    1  0.1755460E-007  0.1375527E+04  0.7818608E-02  0.8971727E-01
          2   -1    0    0  501    0  0.00000000000E+00  0.00000000000E+00  0.12750451015E+04  0.12750451015E+04  0.00000000000E+00 0. -1.
         -2   -1    0    0    0  501 -0.00000000000E+00 -0.00000000000E+00 -0.37098171014E+03  0.37098171014E+03  0.00000000000E+00 0.  1.
         23    2    1    2    0    0  0.45976447068E+02 -0.33201809663E+02 -0.19844061684E+03  0.22544990212E+03  0.90734701764E+02 0.  0.
        254    2    1    2    0    0 -0.45976447068E+02  0.33201809663E+02  0.11025040082E+04  0.14205769095E+04  0.89403997333E+03 0.  0.
        -24    2    4    4    0    0 -0.20795263581E+03  0.39417315966E+03  0.37152716453E+03  0.58572942662E+03  0.80185713722E+02 0.  0.
         24    2    4    4    0    0  0.16197618874E+03 -0.36097134999E+03  0.73097684365E+03  0.83484748288E+03  0.78144561495E+02 0.  0.
         11    1    3    3    0    0 -0.62752560538E+01  0.24859979892E+02 -0.28017184347E+02  0.37978415680E+02  0.00000000000E+00 0. -1.
        -11    1    3    3    0    0  0.52251703122E+02 -0.58061789556E+02 -0.17042343249E+03  0.18747148644E+03  0.00000000000E+00 0.  1.
          4    1    6    6  502    0  0.12139760623E+03 -0.17714904932E+03  0.40525385086E+03  0.45863912623E+03  0.00000000000E+00 0. -1.
          3    1    5    5  503    0 -0.11262302045E+03  0.18802949162E+03  0.13302720788E+03  0.25638890867E+03  0.00000000000E+00 0. -1.
         -4    1    5    5    0  503 -0.95329615360E+02  0.20614366804E+03  0.23849995665E+03  0.32934051795E+03  0.00000000000E+00 0.  1.
         -3    1    6    6    0  502  0.40578582507E+02 -0.18382230067E+03  0.32572299279E+03  0.37620835665E+03  0.00000000000E+00 0.  1.
<mgrwt>
<rscale>  0 0.13755267E+04</rscale>
<asrwt>0</asrwt>
<pdfrwt beam="1">  1        2 0.19616078E+00 0.13755267E+04</pdfrwt>
<pdfrwt beam="2">  1       -2 0.57074110E-01 0.13755267E+04</pdfrwt>
<totfact> 0.47964268E+01</totfact>
</mgrwt>
</event>
<event>
12    1  0.1755460E-007  0.1288850E+04  0.7818608E-02  0.9038454E-01
          1   -1    0    0  501    0  0.00000000000E+00  0.00000000000E+00  0.56582430367E+03  0.56582430367E+03  0.00000000000E+00 0. -1.
         -1   -1    0    0    0  501 -0.00000000000E+00 -0.00000000000E+00 -0.73394493796E+03  0.73394493796E+03  0.00000000000E+00 0.  1.
         23    2    1    2    0    0 -0.11177195743E+03  0.28868959445E+03  0.26798551631E+02  0.32683493012E+03  0.10133240730E+03 0.  0.
        254    2    1    2    0    0  0.11177195743E+03 -0.28868959445E+03 -0.19491918592E+03  0.97293431151E+03  0.90153925764E+03 0.  0.
        -24    2    4    4    0    0  0.20037970290E+03 -0.25431003773E+02  0.31785339636E+03  0.38467987656E+03  0.78415971364E+02 0.  0.
         24    2    4    4    0    0 -0.88607745472E+02 -0.26325859068E+03 -0.51277258229E+03  0.58825443495E+03  0.77143638584E+02 0.  0.
         13    1    3    3    0    0 -0.71536198479E+02  0.14807992054E+03  0.63099842535E+02  0.17614392038E+03  0.00000000000E+00 0. -1.
        -13    1    3    3    0    0 -0.40235758949E+02  0.14060967391E+03 -0.36301290904E+02  0.15069100974E+03  0.00000000000E+00 0.  1.
          4    1    6    6  502    0 -0.63730360517E+02 -0.22232022104E+03 -0.47090532235E+03  0.52463288321E+03  0.00000000000E+00 0. -1.
          1    1    5    5  503    0  0.11885128087E+03 -0.53574686631E+02  0.19559368731E+03  0.23505906604E+03  0.00000000000E+00 0. -1.
         -2    1    5    5    0  503  0.81528422028E+02  0.28143682858E+02  0.12225970905E+03  0.14962081052E+03  0.00000000000E+00 0.  1.
         -3    1    6    6    0  502 -0.24877384954E+02 -0.40938369638E+02 -0.41867259938E+02  0.63621551738E+02  0.00000000000E+00 0.  1.
<mgrwt>
<rscale>  0 0.12888505E+04</rscale>
<asrwt>0</asrwt>
<pdfrwt beam="1">  1        1 0.87049894E-01 0.12888505E+04</pdfrwt>
<pdfrwt beam="2">  1       -1 0.11291460E+00 0.12888505E+04</pdfrwt>
<totfact> 0.26287806E+01</totfact>
</mgrwt>
</event>
<event>
12    1  0.1755460E-007  0.1313729E+04  0.7818608E-02  0.9018748E-01
          2   -1    0    0  501    0  0.00000000000E+00  0.00000000000E+00  0.72593438059E+03  0.72593438059E+03  0.00000000000E+00 0. -1.
         -2   -1    0    0    0  501 -0.00000000000E+00 -0.00000000000E+00 -0.59436618565E+03  0.59436618565E+03  0.00000000000E+00 0.  1.
         23    2    1    2    0    0 -0.32604989072E+03  0.47903184240E+02 -0.67707343152E+02  0.34881368171E+03  0.92105667239E+02 0.  0.
        254    2    1    2    0    0  0.32604989072E+03 -0.47903184240E+02  0.19927553808E+03  0.97148688453E+03  0.89189280770E+03 0.  0.
        -24    2    4    4    0    0 -0.67876874304E+01  0.36968957791E+03  0.20744965053E+03  0.43140525043E+03  0.79741305968E+02 0.  0.
         24    2    4    4    0    0  0.33283757815E+03 -0.41759276215E+03 -0.81741124472E+01  0.54008163409E+03  0.80354134557E+02 0.  0.
         13    1    3    3    0    0 -0.27321084840E+03  0.17660595502E+02 -0.82915497502E+02  0.28606125925E+03  0.00000000000E+00 0.  1.
        -13    1    3    3    0    0 -0.52839042314E+02  0.30242588738E+02  0.15208154350E+02  0.62752422463E+02  0.00000000000E+00 0. -1.
          4    1    6    6  502    0  0.15849114907E+03 -0.25143396815E+03 -0.27365622558E+02  0.29847506088E+03  0.00000000000E+00 0. -1.
          1    1    5    5  503    0 -0.22295590129E+02  0.49948507404E+02  0.10932087958E+02  0.55780438132E+02  0.00000000000E+00 0. -1.
         -2    1    5    5    0  503  0.15507902698E+02  0.31974107051E+03  0.19651756257E+03  0.37562481230E+03  0.00000000000E+00 0.  1.
         -3    1    6    6    0  502  0.17434642908E+03 -0.16615879401E+03  0.19191510111E+02  0.24160657321E+03  0.00000000000E+00 0.  1.
<mgrwt>
<rscale>  0 0.13137288E+04</rscale>
<asrwt>0</asrwt>
<pdfrwt beam="1">  1        2 0.11168221E+00 0.13137288E+04</pdfrwt>
<pdfrwt beam="2">  1       -2 0.91440952E-01 0.13137288E+04</pdfrwt>
<totfact> 0.39031539E+01</totfact>
</mgrwt>
</event>
<event>
12    1  0.1755460E-007  0.3780385E+04  0.7818608E-02  0.8050377E-01
          2   -1    0    0  501    0  0.00000000000E+00  0.00000000000E+00  0.15599034019E+04  0.15599034019E+04  0.00000000000E+00 0. -1.
         -2   -1    0    0    0  501 -0.00000000000E+00 -0.00000000000E+00 -0.22904159389E+04  0.22904159389E+04  0.00000000000E+00 0.  1.
         23    2    1    2    0    0 -0.17108943303E+04  0.43570993250E+03 -0.12867815684E+03  0.17724919517E+04  0.90371987600E+02 0.  0.
        254    2    1    2    0    0  0.17108943303E+04 -0.43570993250E+03 -0.60183438014E+03  0.20778273891E+04  0.91551050424E+03 0.  0.
        -24    2    4    4    0    0  0.54513141196E+03 -0.51198635527E+03  0.19464981622E+02  0.75238496337E+03  0.80037261941E+02 0.  0.
         24    2    4    4    0    0  0.11657629183E+04  0.76276422773E+02 -0.62129936177E+03  0.13254424258E+04  0.77223395313E+02 0.  0.
         13    1    3    3    0    0 -0.16549801403E+04  0.40906069577E+03 -0.11259923694E+03  0.17084989042E+04  0.00000000000E+00 0. -1.
        -13    1    3    3    0    0 -0.55914189991E+02  0.26649236733E+02 -0.16078919895E+02  0.63993047480E+02  0.00000000000E+00 0.  1.
          2    1    6    6  502    0  0.16167791108E+02 -0.73789815730E+01 -0.53895575370E+01  0.18571326523E+02  0.00000000000E+00 0. -1.
          3    1    5    5  503    0  0.20898283242E+03 -0.15178857203E+03  0.26537160335E+02  0.25964940925E+03  0.00000000000E+00 0. -1.
         -4    1    5    5    0  503  0.33614857955E+03 -0.36019778324E+03 -0.70721787126E+01  0.49273555412E+03  0.00000000000E+00 0.  1.
         -1    1    6    6    0  502  0.11495951272E+04  0.83655404346E+02 -0.61590980423E+03  0.13068710993E+04  0.00000000000E+00 0.  1.
<mgrwt>
<rscale>  0 0.37803850E+04</rscale>
<asrwt>0</asrwt>
<pdfrwt beam="1">  1        2 0.23998514E+00 0.37803850E+04</pdfrwt>
<pdfrwt beam="2">  1       -2 0.35237168E+00 0.37803850E+04</pdfrwt>
<totfact> 0.14172056E-01</totfact>
</mgrwt>
</event>
<event>
12    1  0.1755460E-007  0.1711808E+04  0.7818608E-02  0.8754658E-01
          1   -1    0    0  501    0  0.00000000000E+00  0.00000000000E+00  0.12553226805E+04  0.12553226805E+04  0.00000000000E+00 0. -1.
         -1   -1    0    0    0  501 -0.00000000000E+00 -0.00000000000E+00 -0.58357247550E+03  0.58357247550E+03  0.00000000000E+00 0.  1.
         23    2    1    2    0    0 -0.11148560861E+03 -0.25087033961E+03 -0.34867055946E+03  0.45378641789E+03  0.94794439729E+02 0.  0.
        254    2    1    2    0    0  0.11148560861E+03  0.25087033961E+03  0.10204207644E+04  0.13851087381E+04  0.89549020742E+03 0.  0.
        -24    2    4    4    0    0  0.47586661635E+03  0.22755244374E+03  0.42357566121E+03  0.68092664841E+03  0.77560354180E+02 0.  0.
         24    2    4    4    0    0 -0.36438100773E+03  0.23317895876E+02  0.59684510320E+03  0.70418208965E+03  0.79568179008E+02 0.  0.
         11    1    3    3    0    0 -0.67675800664E+02 -0.13113452163E+03 -0.11309586500E+03  0.18592189607E+03  0.00000000000E+00 0.  1.
        -11    1    3    3    0    0 -0.43809807949E+02 -0.11973581799E+03 -0.23557469446E+03  0.26786452182E+03  0.00000000000E+00 0. -1.
          2    1    6    6  502    0 -0.79413041661E+02 -0.96593758965E+01  0.80445542915E+02  0.11345139974E+03  0.00000000000E+00 0. -1.
          1    1    5    5  503    0  0.56324865996E+02  0.56806243013E+02  0.57138056617E+02  0.98306649260E+02  0.00000000000E+00 0. -1.
         -2    1    5    5    0  503  0.41954175035E+03  0.17074620072E+03  0.36643760459E+03  0.58261999915E+03  0.00000000000E+00 0.  1.
         -1    1    6    6    0  502 -0.28496796607E+03  0.32977271773E+02  0.51639956028E+03  0.59073068991E+03  0.00000000000E+00 0.  1.
<mgrwt>
<rscale>  0 0.17118081E+04</rscale>
<asrwt>0</asrwt>
<pdfrwt beam="1">  1        1 0.19312657E+00 0.17118081E+04</pdfrwt>
<pdfrwt beam="2">  1       -1 0.89780381E-01 0.17118081E+04</pdfrwt>
<totfact> 0.11246522E+01</totfact>
</mgrwt>
</event>
<event>
12    1  0.1755460E-007  0.1669817E+04  0.7818608E-02  0.8778769E-01
         -2   -1    0    0    0  501 -0.00000000000E+00  0.00000000000E+00  0.13351231241E+04  0.13351231241E+04  0.00000000000E+00 0.  1.
          2   -1    0    0  501    0  0.00000000000E+00 -0.00000000000E+00 -0.52210315864E+03  0.52210315864E+03  0.00000000000E+00 0. -1.
         23    2    1    2    0    0 -0.23622402085E+03 -0.12684649658E+03 -0.30165279816E+03  0.41406922306E+03  0.92558571320E+02 0.  0.
        254    2    1    2    0    0  0.23622402085E+03  0.12684649658E+03  0.11146727637E+04  0.14431570597E+04  0.87653585620E+03 0.  0.
        -24    2    4    4    0    0  0.34985491070E+03  0.40700660979E+03  0.43708073994E+03  0.69677939090E+03  0.80056901042E+02 0.  0.
         24    2    4    4    0    0 -0.11363088985E+03 -0.28016011321E+03  0.67759202373E+03  0.74637766881E+03  0.80913569442E+02 0.  0.
         11    1    3    3    0    0 -0.44576856057E+02 -0.64828057959E+02 -0.56951033055E+02  0.97124627982E+02  0.00000000000E+00 0.  1.
        -11    1    3    3    0    0 -0.19164716480E+03 -0.62018438625E+02 -0.24470176511E+03  0.31694459508E+03  0.00000000000E+00 0. -1.
          2    1    6    6  502    0 -0.12466064647E+03 -0.25723681373E+03  0.59778782782E+03  0.66261704038E+03  0.00000000000E+00 0. -1.
          1    1    5    5  503    0  0.34243541364E+03  0.40735928294E+03  0.41929257273E+03  0.67750266380E+03  0.00000000000E+00 0. -1.
         -2    1    5    5    0  503  0.74194970614E+01 -0.35267315276E+00  0.17788167204E+02  0.19276727095E+02  0.00000000000E+00 0.  1.
         -1    1    6    6    0  502  0.11029756624E+02 -0.22923299480E+02  0.79804195908E+02  0.83760628429E+02  0.00000000000E+00 0.  1.
<mgrwt>
<rscale>  0 0.16698168E+04</rscale>
<asrwt>0</asrwt>
<pdfrwt beam="1">  1        2 0.80323563E-01 0.16698168E+04</pdfrwt>
<pdfrwt beam="2">  1       -2 0.20540356E+00 0.16698168E+04</pdfrwt>
<totfact> 0.68403356E+00</totfact>
</mgrwt>
</event>
<event>
12    1  0.1755460E-007  0.1300870E+04  0.7818608E-02  0.9028875E-01
         -1   -1    0    0    0  501 -0.00000000000E+00  0.00000000000E+00  0.39550739710E+03  0.39550739710E+03  0.00000000000E+00 0.  1.
          1   -1    0    0  501    0  0.00000000000E+00 -0.00000000000E+00 -0.10696786806E+04  0.10696786806E+04  0.00000000000E+00 0. -1.
         23    2    1    2    0    0 -0.29420157067E+03  0.15274911517E+03 -0.17085025120E+03  0.38394463239E+03  0.91306166498E+02 0.  0.
        254    2    1    2    0    0  0.29420157067E+03 -0.15274911517E+03 -0.50332103228E+03  0.10812414453E+04  0.89769936233E+03 0.  0.
        -24    2    4    4    0    0  0.26776193339E+03  0.72894114357E+01 -0.73586149689E+03  0.78725864644E+03  0.80835915923E+02 0.  0.
         24    2    4    4    0    0  0.26439637277E+02 -0.16003852660E+03  0.23254046461E+03  0.29398279885E+03  0.77713794922E+02 0.  0.
         11    1    3    3    0    0  0.19081456288E+00  0.16431659489E+01 -0.20354815668E+02  0.20421922667E+02  0.00000000000E+00 0. -1.
        -11    1    3    3    0    0 -0.29439238523E+03  0.15110594922E+03 -0.15049543554E+03  0.36352270973E+03  0.00000000000E+00 0.  1.
          4    1    6    6  502    0  0.70253478004E+01 -0.15996186791E+03  0.20148873233E+03  0.25736134898E+03  0.00000000000E+00 0. -1.
          1    1    5    5  503    0  0.19499925525E+03 -0.30516336645E+02 -0.49972909562E+03  0.53729426329E+03  0.00000000000E+00 0. -1.
         -2    1    5    5    0  503  0.72762678139E+02  0.37805748081E+02 -0.23613240127E+03  0.24996438315E+03  0.00000000000E+00 0.  1.
         -3    1    6    6    0  502  0.19414289477E+02 -0.76658696439E-01  0.31051732283E+02  0.36621449865E+02  0.00000000000E+00 0.  1.
<mgrwt>
<rscale>  0 0.13008702E+04</rscale>
<asrwt>0</asrwt>
<pdfrwt beam="1">  1        1 0.16456595E+00 0.13008702E+04</pdfrwt>
<pdfrwt beam="2">  1       -1 0.60847293E-01 0.13008702E+04</pdfrwt>
<totfact> 0.35974823E+01</totfact>
</mgrwt>
</event>
<event>
12    1  0.1755460E-007  0.1630832E+04  0.7818608E-02  0.8801827E-01
          2   -1    0    0  501    0  0.00000000000E+00  0.00000000000E+00  0.65465497138E+03  0.65465497138E+03  0.00000000000E+00 0. -1.
         -2   -1    0    0    0  501 -0.00000000000E+00 -0.00000000000E+00 -0.10156545622E+04  0.10156545622E+04  0.00000000000E+00 0.  1.
         23    2    1    2    0    0  0.28473270550E+03 -0.43968025840E+03 -0.33143181907E+03  0.62649757346E+03  0.90888479219E+02 0.  0.
        254    2    1    2    0    0 -0.28473270550E+03  0.43968025840E+03 -0.29567771749E+02  0.10438119601E+04  0.90237337713E+03 0.  0.
        -24    2    4    4    0    0 -0.42241527341E+03 -0.95136810979E+01 -0.27190771582E+03  0.50885737865E+03  0.80478895054E+02 0.  0.
         24    2    4    4    0    0  0.13768256791E+03  0.44919393950E+03  0.24233994408E+03  0.53495458146E+03  0.81951637835E+02 0.  0.
         13    1    3    3    0    0  0.12487121437E+02 -0.12071620070E+02  0.50263784683E+01  0.18080837741E+02  0.00000000000E+00 0.  1.
        -13    1    3    3    0    0  0.27224558406E+03 -0.42760863833E+03 -0.33645819753E+03  0.60841673572E+03  0.00000000000E+00 0. -1.
          4    1    6    6  502    0  0.13747382300E+03  0.40166596032E+03  0.23927715341E+03  0.48732756113E+03  0.00000000000E+00 0. -1.
          3    1    5    5  503    0 -0.41952468760E+03 -0.19201004222E+02 -0.26436792608E+03  0.49624594951E+03  0.00000000000E+00 0. -1.
         -4    1    5    5    0  503 -0.28905858122E+01  0.96873231244E+01 -0.75397897437E+01  0.12611429143E+02  0.00000000000E+00 0.  1.
         -3    1    6    6    0  502  0.20874490687E+00  0.47527979177E+02  0.30627906655E+01  0.47627020333E+02  0.00000000000E+00 0.  1.
<mgrwt>
<rscale>  0 0.16308321E+04</rscale>
<asrwt>0</asrwt>
<pdfrwt beam="1">  1        2 0.10071615E+00 0.16308321E+04</pdfrwt>
<pdfrwt beam="2">  1       -2 0.15625455E+00 0.16308321E+04</pdfrwt>
<totfact> 0.11444531E+01</totfact>
</mgrwt>
</event>
<event>
12    1  0.1755460E-007  0.3229167E+04  0.7818608E-02  0.8181156E-01
          2   -1    0    0  501    0  0.00000000000E+00  0.00000000000E+00  0.27884979413E+04  0.27884979413E+04  0.00000000000E+00 0. -1.
         -2   -1    0    0    0  501 -0.00000000000E+00 -0.00000000000E+00 -0.93486898297E+03  0.93486898297E+03  0.00000000000E+00 0.  1.
         23    2    1    2    0    0 -0.39200063584E+03 -0.13685536019E+04  0.35624055310E+03  0.14703527914E+04  0.91796184871E+02 0.  0.
        254    2    1    2    0    0  0.39200063584E+03  0.13685536019E+04  0.14973884052E+04  0.22530141329E+04  0.89849718254E+03 0.  0.
        -24    2    4    4    0    0 -0.21920928541E+03  0.27742177510E+03  0.10035111451E+03  0.37632152706E+03  0.80820748803E+02 0.  0.
         24    2    4    4    0    0  0.61120992125E+03  0.10911318268E+04  0.13970372907E+04  0.18766926058E+04  0.78203029208E+02 0.  0.
         13    1    3    3    0    0 -0.80143184518E+02 -0.43326531595E+03  0.11355960074E+03  0.45501378765E+03  0.00000000000E+00 0. -1.
        -13    1    3    3    0    0 -0.31185745132E+03 -0.93528828598E+03  0.24268095236E+03  0.10153390037E+04  0.00000000000E+00 0.  1.
          2    1    6    6  502    0  0.23668798124E+03  0.50191424921E+03  0.62164349140E+03  0.83329451242E+03  0.00000000000E+00 0. -1.
          3    1    5    5  503    0 -0.22136868693E+02  0.41922477929E+02  0.42853906725E+02  0.63906122029E+02  0.00000000000E+00 0. -1.
         -4    1    5    5    0  503 -0.19707241672E+03  0.23549929717E+03  0.57497207789E+02  0.31241540503E+03  0.00000000000E+00 0.  1.
         -1    1    6    6    0  502  0.37452194001E+03  0.58921757762E+03  0.77539379930E+03  0.10433980934E+04  0.00000000000E+00 0.  1.
<mgrwt>
<rscale>  0 0.32291672E+04</rscale>
<asrwt>0</asrwt>
<pdfrwt beam="1">  1        2 0.42899968E+00 0.32291672E+04</pdfrwt>
<pdfrwt beam="2">  1       -2 0.14382600E+00 0.32291672E+04</pdfrwt>
<totfact> 0.66043640E-01</totfact>
</mgrwt>
</event>
<event>
12    1  0.1755460E-007  0.1381866E+04  0.7818608E-02  0.8967051E-01
         -1   -1    0    0    0  501 -0.00000000000E+00  0.00000000000E+00  0.86186369287E+03  0.86186369287E+03  0.00000000000E+00 0.  1.
          1   -1    0    0  501    0  0.00000000000E+00 -0.00000000000E+00 -0.55390226980E+03  0.55390226980E+03  0.00000000000E+00 0. -1.
         23    2    1    2    0    0  0.33289546548E+03  0.48571972374E+02 -0.11277985173E+03  0.36656113876E+03  0.92027963478E+02 0.  0.
        254    2    1    2    0    0 -0.33289546548E+03 -0.48571972374E+02  0.42074127480E+03  0.10492048239E+04  0.90034932928E+03 0.  0.
        -24    2    4    4    0    0 -0.39288213120E+03 -0.41750264136E+03  0.23765196205E+03  0.62565983114E+03  0.79416274637E+02 0.  0.
         24    2    4    4    0    0  0.59986665724E+02  0.36893066898E+03  0.18308931275E+03  0.42354499276E+03  0.78488380474E+02 0.  0.
         13    1    3    3    0    0  0.28992012999E+03  0.28342028970E+02 -0.12580756934E+03  0.31730820487E+03  0.00000000000E+00 0. -1.
        -13    1    3    3    0    0  0.42975335490E+02  0.20229943404E+02  0.13027717613E+02  0.49252933890E+02  0.00000000000E+00 0.  1.
          2    1    6    6  502    0  0.10812735020E+02  0.35854583997E+02  0.47729120998E+02  0.60667416489E+02  0.00000000000E+00 0. -1.
          1    1    5    5  503    0 -0.23072475031E+03 -0.19180271950E+03  0.10675014356E+03  0.31846159386E+03  0.00000000000E+00 0. -1.
         -2    1    5    5    0  503 -0.16215738089E+03 -0.22569992186E+03  0.13090181848E+03  0.30719823728E+03  0.00000000000E+00 0.  1.
         -1    1    6    6    0  502  0.49173930704E+02  0.33307608499E+03  0.13536019175E+03  0.36287757627E+03  0.00000000000E+00 0.  1.
<mgrwt>
<rscale>  0 0.13818658E+04</rscale>
<asrwt>0</asrwt>
<pdfrwt beam="1">  1        1 0.85215734E-01 0.13818658E+04</pdfrwt>
<pdfrwt beam="2">  1       -1 0.13259441E+00 0.13818658E+04</pdfrwt>
<totfact> 0.18091338E+01</totfact>
</mgrwt>
</event>
<event>
12    1  0.1755460E-007  0.2258449E+04  0.7818608E-02  0.8494487E-01
          2   -1    0    0  501    0  0.00000000000E+00  0.00000000000E+00  0.16843728347E+04  0.16843728347E+04  0.00000000000E+00 0. -1.
         -2   -1    0    0    0  501 -0.00000000000E+00 -0.00000000000E+00 -0.75704629992E+03  0.75704629992E+03  0.00000000000E+00 0.  1.
         23    2    1    2    0    0 -0.85804104104E+03 -0.93598407240E+02  0.81816102643E+03  0.11927463706E+04  0.90891966423E+02 0.  0.
        254    2    1    2    0    0  0.85804104104E+03  0.93598407240E+02  0.10916550830E+03  0.12486727639E+04  0.89569608307E+03 0.  0.
        -24    2    4    4    0    0  0.88559096402E+03  0.72569277213E+01  0.36875207945E+03  0.96252011420E+03  0.78376371340E+02 0.  0.
         24    2    4    4    0    0 -0.27549922982E+02  0.86341479519E+02 -0.25958657115E+03  0.28615264973E+03  0.79273587545E+02 0.  0.
         13    1    3    3    0    0 -0.16941877622E+03  0.16622998494E+02  0.17280104755E+03  0.24256802727E+03  0.00000000000E+00 0. -1.
        -13    1    3    3    0    0 -0.68862226482E+03 -0.11022140573E+03  0.64535997888E+03  0.95017834338E+03  0.00000000000E+00 0.  1.
          4    1    6    6  502    0 -0.10083083179E+02 -0.80927436484E+01 -0.92774066794E+02  0.93670638599E+02  0.00000000000E+00 0. -1.
          1    1    5    5  503    0  0.18217064407E+03 -0.18613018170E+02  0.50046530181E+02  0.18983477866E+03  0.00000000000E+00 0. -1.
         -2    1    5    5    0  503  0.70342031995E+03  0.25869945891E+02  0.31870554927E+03  0.77268533554E+03  0.00000000000E+00 0.  1.
         -1    1    6    6    0  502 -0.17466839803E+02  0.94434223167E+02 -0.16681250436E+03  0.19248201113E+03  0.00000000000E+00 0.  1.
<mgrwt>
<rscale>  0 0.22584492E+04</rscale>
<asrwt>0</asrwt>
<pdfrwt beam="1">  1        2 0.25913428E+00 0.22584492E+04</pdfrwt>
<pdfrwt beam="2">  1       -2 0.11646866E+00 0.22584492E+04</pdfrwt>
<totfact> 0.52033497E+00</totfact>
</mgrwt>
</event>
<event>
12    1  0.1755460E-007  0.1501154E+04  0.7818608E-02  0.8883686E-01
          2   -1    0    0  501    0  0.00000000000E+00  0.00000000000E+00  0.86726031487E+03  0.86726031487E+03  0.00000000000E+00 0. -1.
         -2   -1    0    0    0  501 -0.00000000000E+00 -0.00000000000E+00 -0.64959218204E+03  0.64959218204E+03  0.00000000000E+00 0.  1.
         23    2    1    2    0    0 -0.46190897965E+03  0.89523024597E+02  0.99837552476E+01  0.47957416113E+03  0.92289886986E+02 0.  0.
        254    2    1    2    0    0  0.46190897965E+03 -0.89523024597E+02  0.20768437759E+03  0.10372783358E+04  0.90079923833E+03 0.  0.
        -24    2    4    4    0    0  0.60938956293E+03 -0.25409975524E+03  0.36154349860E+03  0.75687281534E+03  0.78869716645E+02 0.  0.
         24    2    4    4    0    0 -0.14748058327E+03  0.16457673064E+03 -0.15385912102E+03  0.28040552044E+03  0.78221506380E+02 0.  0.
         11    1    3    3    0    0 -0.40120946017E+03  0.67830943359E+02 -0.22237848314E+02  0.40751023264E+03  0.00000000000E+00 0.  1.
        -11    1    3    3    0    0 -0.60699519479E+02  0.21692081238E+02  0.32221603562E+02  0.72063928490E+02  0.00000000000E+00 0. -1.
          2    1    6    6  502    0  0.32590606113E+01  0.65145136262E+01 -0.26686115723E+02  0.27662413782E+02  0.00000000000E+00 0. -1.
          3    1    5    5  503    0  0.12509982292E+03 -0.39338027285E+02  0.10633633326E+03  0.16883382912E+03  0.00000000000E+00 0. -1.
         -2    1    5    5    0  503  0.48428974001E+03 -0.21476172796E+03  0.25520716535E+03  0.58803898622E+03  0.00000000000E+00 0.  1.
         -1    1    6    6    0  502 -0.15073964389E+03  0.15806221702E+03 -0.12717300529E+03  0.25274310666E+03  0.00000000000E+00 0.  1.
<mgrwt>
<rscale>  0 0.15011536E+04</rscale>
<asrwt>0</asrwt>
<pdfrwt beam="1">  1        2 0.13342466E+00 0.15011536E+04</pdfrwt>
<pdfrwt beam="2">  1       -2 0.99937259E-01 0.15011536E+04</pdfrwt>
<totfact> 0.24680089E+01</totfact>
</mgrwt>
</event>
<event>
12    1  0.1755460E-007  0.2169183E+04  0.7818608E-02  0.8531365E-01
         -2   -1    0    0    0  501 -0.00000000000E+00  0.00000000000E+00  0.74581066772E+03  0.74581066772E+03  0.00000000000E+00 0. -1.
          2   -1    0    0  501    0  0.00000000000E+00 -0.00000000000E+00 -0.15772621223E+04  0.15772621223E+04  0.00000000000E+00 0.  1.
         23    2    1    2    0    0 -0.18937769542E+03 -0.22172281741E+03 -0.11851375298E+04  0.12234435705E+04  0.85078119598E+02 0.  0.
        254    2    1    2    0    0  0.18937769542E+03  0.22172281741E+03  0.35368607516E+03  0.10996292196E+04  0.99953272156E+03 0.  0.
        -24    2    4    4    0    0  0.27785584860E+03 -0.25425061530E+03 -0.13422975563E+03  0.40775388869E+03  0.79989739719E+02 0.  0.
         24    2    4    4    0    0 -0.88478153179E+02  0.47597343271E+03  0.48791583079E+03  0.69187533087E+03  0.79060251035E+02 0.  0.
         13    1    3    3    0    0 -0.95906096311E+02 -0.57375487599E+02 -0.36134676842E+03  0.37823460039E+03  0.00000000000E+00 0. -1.
        -13    1    3    3    0    0 -0.93471599112E+02 -0.16434732981E+03 -0.82379076136E+03  0.84520897011E+03  0.00000000000E+00 0.  1.
          4    1    6    6  502    0 -0.99317427461E+02  0.39167120989E+03  0.42253532180E+03  0.58464210097E+03  0.00000000000E+00 0. -1.
          1    1    5    5  503    0  0.27193361858E+03 -0.25270788892E+03 -0.14235188171E+03  0.39758424046E+03  0.00000000000E+00 0. -1.
         -2    1    5    5    0  503  0.59222300209E+01 -0.15427263824E+01  0.81221260755E+01  0.10169648229E+02  0.00000000000E+00 0.  1.
         -3    1    6    6    0  502  0.10839274282E+02  0.84302222826E+02  0.65380508992E+02  0.10723322991E+03  0.00000000000E+00 0.  1.
<mgrwt>
<rscale>  0 0.21691832E+04</rscale>
<asrwt>0</asrwt>
<pdfrwt beam="1">  1        2 0.24265571E+00 0.21691832E+04</pdfrwt>
<pdfrwt beam="2">  1       -2 0.11474010E+00 0.21691832E+04</pdfrwt>
<totfact> 0.62403626E+00</totfact>
</mgrwt>
</event>
<event>
12    1  0.2942519E-007  0.3085515E+04  0.7818608E-02  0.8219724E-01
         -2   -1    0    0    0  501 -0.00000000000E+00  0.00000000000E+00  0.17002216592E+04  0.17002216592E+04  0.00000000000E+00 0.  1.
          2   -1    0    0  501    0  0.00000000000E+00 -0.00000000000E+00 -0.13998768119E+04  0.13998768119E+04  0.00000000000E+00 0. -1.
         23    2    1    2    0    0  0.11536188981E+04 -0.13021547792E+03 -0.66154222060E+03  0.13397085558E+04  0.96893096487E+02 0.  0.
        254    2    1    2    0    0 -0.11536188981E+04  0.13021547792E+03  0.96188706791E+03  0.17603899152E+04  0.90881972333E+03 0.  0.
        -24    2    4    4    0    0 -0.42512541181E+03 -0.38455211555E+03  0.37664298692E+03  0.69040610951E+03  0.78668361570E+02 0.  0.
         24    2    4    4    0    0 -0.72849348629E+03  0.51476759347E+03  0.58524408099E+03  0.10699838057E+04  0.81647261599E+02 0.  0.
         11    1    3    3    0    0  0.11305443623E+04 -0.12970827759E+03 -0.63027756213E+03  0.13008476458E+04  0.00000000000E+00 0. -1.
        -11    1    3    3    0    0  0.23074535834E+02 -0.50720032859E+00 -0.31264658464E+02  0.38860909987E+02  0.00000000000E+00 0.  1.
          2    1    6    6  502    0 -0.68821008917E+03  0.50602813690E+03  0.56392470964E+03  0.10235764164E+04  0.00000000000E+00 0. -1.
          1    1    5    5  503    0 -0.34106589014E+03 -0.28591525426E+03  0.25645246135E+03  0.51365488313E+03  0.00000000000E+00 0. -1.
         -2    1    5    5    0  503 -0.84059521671E+02 -0.98636861297E+02  0.12019052557E+03  0.17675122638E+03  0.00000000000E+00 0.  1.
         -1    1    6    6    0  502 -0.40283397123E+02  0.87394565732E+01  0.21319371356E+02  0.46407389282E+02  0.00000000000E+00 0.  1.
<mgrwt>
<rscale>  0 0.30855151E+04</rscale>
<asrwt>0</asrwt>
<pdfrwt beam="1">  1        2 0.21536566E+00 0.30855151E+04</pdfrwt>
<pdfrwt beam="2">  1       -2 0.26157256E+00 0.30855151E+04</pdfrwt>
<totfact> 0.67134670E-01</totfact>
</mgrwt>
</event>
<event>
12    1  0.1755460E-007  0.1816849E+04  0.7818608E-02  0.8697391E-01
          1   -1    0    0  501    0  0.00000000000E+00  0.00000000000E+00  0.19743012993E+04  0.19743012993E+04  0.00000000000E+00 0. -1.
         -1   -1    0    0    0  501 -0.00000000000E+00 -0.00000000000E+00 -0.41798819006E+03  0.41798819006E+03  0.00000000000E+00 0.  1.
         23    2    1    2    0    0  0.18937658277E+03  0.51440353569E+03  0.10612230182E+04  0.11971605139E+04  0.80774464910E+02 0.  0.
        254    2    1    2    0    0 -0.18937658277E+03 -0.51440353569E+03  0.49509009104E+03  0.11951289754E+04  0.93954488023E+03 0.  0.
        -24    2    4    4    0    0 -0.75700051970E+02  0.10885170355E+03 -0.19904919504E+03  0.25201522523E+03  0.79447469851E+02 0.  0.
         24    2    4    4    0    0 -0.11367653080E+03 -0.62325523923E+03  0.69413928608E+03  0.94311375017E+03  0.79150176250E+02 0.  0.
         11    1    3    3    0    0  0.16467181080E+03  0.49432246701E+03  0.10166232060E+04  0.11423634490E+04  0.00000000000E+00 0. -1.
        -11    1    3    3    0    0  0.24704771970E+02  0.20081068679E+02  0.44599812144E+02  0.54797064891E+02  0.00000000000E+00 0.  1.
          4    1    6    6  502    0 -0.10072851864E+02 -0.15246241274E+03  0.21199521581E+03  0.26132015071E+03  0.00000000000E+00 0. -1.
          1    1    5    5  503    0 -0.24559249719E+02 -0.18670162928E+01 -0.90469771495E+01  0.26239098539E+02  0.00000000000E+00 0. -1.
         -2    1    5    5    0  503 -0.51140802251E+02  0.11071871984E+03 -0.19000221789E+03  0.22577612669E+03  0.00000000000E+00 0.  1.
         -3    1    6    6    0  502 -0.10360367894E+03 -0.47079282650E+03  0.48214407027E+03  0.68179359947E+03  0.00000000000E+00 0.  1.
<mgrwt>
<rscale>  0 0.18168485E+04</rscale>
<asrwt>0</asrwt>
<pdfrwt beam="1">  1        1 0.30373866E+00 0.18168485E+04</pdfrwt>
<pdfrwt beam="2">  1       -1 0.64305877E-01 0.18168485E+04</pdfrwt>
<totfact> 0.71683168E+00</totfact>
</mgrwt>
</event>
<event>
12    1  0.1755460E-007  0.1386541E+04  0.7818608E-02  0.8963619E-01
         -1   -1    0    0    0  501 -0.00000000000E+00  0.00000000000E+00  0.10318230749E+04  0.10318230749E+04  0.00000000000E+00 0.  1.
          1   -1    0    0  501    0  0.00000000000E+00 -0.00000000000E+00 -0.46580104257E+03  0.46580104257E+03  0.00000000000E+00 0. -1.
         23    2    1    2    0    0  0.17031934770E+03  0.19898136343E+03  0.47283969494E+03  0.54885902067E+03  0.95218613046E+02 0.  0.
        254    2    1    2    0    0 -0.17031934770E+03 -0.19898136343E+03  0.93182337397E+02  0.94876509681E+03  0.90712182077E+03 0.  0.
        -24    2    4    4    0    0 -0.38321699257E+03 -0.29579106490E+03  0.34119899771E+03  0.59893013183E+03  0.89179197717E+02 0.  0.
         24    2    4    4    0    0  0.21289764486E+03  0.96809701471E+02 -0.24801666031E+03  0.34983496498E+03  0.78579344862E+02 0.  0.
         11    1    3    3    0    0  0.10249843383E+02  0.29903417429E+02  0.13438902132E+03  0.13805680974E+03  0.00000000000E+00 0. -1.
        -11    1    3    3    0    0  0.16006950432E+03  0.16907794600E+03  0.33845067361E+03  0.41080221093E+03  0.00000000000E+00 0.  1.
          2    1    6    6  502    0  0.62645852863E+02  0.40901213322E+02 -0.13275262702E+03  0.15238330654E+03  0.00000000000E+00 0. -1.
          1    1    5    5  503    0 -0.28339474201E+03 -0.23202306828E+03  0.30024844372E+03  0.47359942142E+03  0.00000000000E+00 0. -1.
         -2    1    5    5    0  503 -0.99822250558E+02 -0.63767996625E+02  0.40950553992E+02  0.12533071041E+03  0.00000000000E+00 0.  1.
         -1    1    6    6    0  502  0.15025179200E+03  0.55908488149E+02 -0.11526403329E+03  0.19745165843E+03  0.00000000000E+00 0.  1.
<mgrwt>
<rscale>  0 0.13865414E+04</rscale>
<asrwt>0</asrwt>
<pdfrwt beam="1">  1        1 0.71661699E-01 0.13865414E+04</pdfrwt>
<pdfrwt beam="2">  1       -1 0.15874201E+00 0.13865414E+04</pdfrwt>
<totfact> 0.14245783E+01</totfact>
</mgrwt>
</event>
<event>
12    1  0.1755460E-007  0.2893145E+04  0.7818608E-02  0.8274920E-01
         -2   -1    0    0    0  501 -0.00000000000E+00  0.00000000000E+00  0.82698570979E+03  0.82698570979E+03  0.00000000000E+00 0.  1.
          2   -1    0    0  501    0  0.00000000000E+00 -0.00000000000E+00 -0.25303599250E+04  0.25303599250E+04  0.00000000000E+00 0. -1.
         23    2    1    2    0    0 -0.26087594831E+03 -0.42281729668E+03 -0.21654536658E+04  0.22236456971E+04  0.92627644905E+02 0.  0.
        254    2    1    2    0    0  0.26087594831E+03  0.42281729668E+03  0.46207945056E+03  0.11336999377E+04  0.90825514226E+03 0.  0.
        -24    2    4    4    0    0  0.43092445879E+03 -0.12027818022E+03  0.26357198290E+03  0.52556664053E+03  0.81162636999E+02 0.  0.
         24    2    4    4    0    0 -0.17004851048E+03  0.54309547690E+03  0.19850746767E+03  0.60813329722E+03  0.80942569280E+02 0.  0.
         11    1    3    3    0    0 -0.11531575158E+03 -0.19564668244E+03 -0.79073594588E+03  0.82270206212E+03  0.00000000000E+00 0.  1.
        -11    1    3    3    0    0 -0.14556019674E+03 -0.22717061424E+03 -0.13747177199E+04  0.14009436350E+04  0.00000000000E+00 0. -1.
          2    1    6    6  502    0 -0.12843805071E+03  0.49420037957E+03  0.17601227193E+03  0.54010246056E+03  0.00000000000E+00 0. -1.
          3    1    5    5  503    0  0.31212516272E+03 -0.12309302390E+03  0.20353503855E+03  0.39242900206E+03  0.00000000000E+00 0. -1.
         -4    1    5    5    0  503  0.11879929607E+03  0.28148436737E+01  0.60036944342E+02  0.13313763847E+03  0.00000000000E+00 0.  1.
         -1    1    6    6    0  502 -0.41610459763E+02  0.48895097332E+02  0.22495195738E+02  0.68030836656E+02  0.00000000000E+00 0.  1.
<mgrwt>
<rscale>  0 0.28931447E+04</rscale>
<asrwt>0</asrwt>
<pdfrwt beam="1">  1        2 0.38928613E+00 0.28931447E+04</pdfrwt>
<pdfrwt beam="2">  1       -2 0.12722857E+00 0.28931447E+04</pdfrwt>
<totfact> 0.13234476E+00</totfact>
</mgrwt>
</event>
<event>
12    1  0.1755460E-007  0.1575186E+04  0.7818608E-02  0.8835939E-01
         -2   -1    0    0    0  501 -0.00000000000E+00  0.00000000000E+00  0.39329495312E+03  0.39329495312E+03  0.00000000000E+00 0.  1.
          2   -1    0    0  501    0  0.00000000000E+00 -0.00000000000E+00 -0.15771949872E+04  0.15771949872E+04  0.00000000000E+00 0. -1.
         23    2    1    2    0    0  0.28646124306E+02  0.41609750109E+03 -0.76692231863E+01  0.42697443329E+03  0.91052835457E+02 0.  0.
        254    2    1    2    0    0 -0.28646124306E+02 -0.41609750109E+03 -0.11762308109E+04  0.15435155071E+04  0.90827499642E+03 0.  0.
        -24    2    4    4    0    0 -0.45768262562E+03 -0.23911285823E+03 -0.53437276866E+03  0.74747920863E+03  0.80762408823E+02 0.  0.
         24    2    4    4    0    0  0.42903650131E+03 -0.17698464287E+03 -0.64185804226E+03  0.79603629843E+03  0.79348337955E+02 0.  0.
         13    1    3    3    0    0  0.28027011256E+02  0.41385368778E+03  0.42567153104E+01  0.41482346591E+03  0.00000000000E+00 0.  1.
        -13    1    3    3    0    0  0.61911304975E+00  0.22438133164E+01 -0.11925938497E+02  0.12150967377E+02  0.00000000000E+00 0. -1.
          4    1    6    6  502    0  0.42096702603E+03 -0.18382002997E+03 -0.61871548565E+03  0.77059191055E+03  0.00000000000E+00 0. -1.
          3    1    5    5  503    0 -0.36313254421E+03 -0.17696387354E+03 -0.45942071639E+03  0.61175881837E+03  0.00000000000E+00 0. -1.
         -4    1    5    5    0  503 -0.94550081410E+02 -0.62148984690E+02 -0.74952052272E+02  0.13572039026E+03  0.00000000000E+00 0.  1.
         -3    1    6    6    0  502  0.80694752830E+01  0.68353871019E+01 -0.23142556610E+02  0.25444387881E+02  0.00000000000E+00 0.  1.
<mgrwt>
<rscale>  0 0.15751861E+04</rscale>
<asrwt>0</asrwt>
<pdfrwt beam="1">  1        2 0.24264538E+00 0.15751861E+04</pdfrwt>
<pdfrwt beam="2">  1       -2 0.60506916E-01 0.15751861E+04</pdfrwt>
<totfact> 0.28069144E+01</totfact>
</mgrwt>
</event>
<event>
12    1  0.1755460E-007  0.1854297E+04  0.7818608E-02  0.8677946E-01
          1   -1    0    0  501    0  0.00000000000E+00  0.00000000000E+00  0.75440967268E+03  0.75440967268E+03  0.00000000000E+00 0. -1.
         -1   -1    0    0    0  501 -0.00000000000E+00 -0.00000000000E+00 -0.11394391639E+04  0.11394391639E+04  0.00000000000E+00 0.  1.
         23    2    1    2    0    0  0.46901920510E+03  0.39815320311E+02 -0.67732676737E+03  0.82949387313E+03  0.87887776637E+02 0.  0.
        254    2    1    2    0    0 -0.46901920510E+03 -0.39815320311E+02  0.29229727613E+03  0.10643549635E+04  0.90876262915E+03 0.  0.
        -24    2    4    4    0    0 -0.14015124436E+03  0.23921623424E+03 -0.24014261348E+03  0.37471268770E+03  0.76644278934E+02 0.  0.
         24    2    4    4    0    0 -0.32886796074E+03 -0.27903155455E+03  0.53243988961E+03  0.68964227577E+03  0.78112025007E+02 0.  0.
         13    1    3    3    0    0  0.12145111824E+03 -0.25975564625E+02 -0.15428180762E+03  0.19806054691E+03  0.00000000000E+00 0. -1.
        -13    1    3    3    0    0  0.34756808686E+03  0.65790884936E+02 -0.52304495975E+03  0.63143332622E+03  0.00000000000E+00 0.  1.
          4    1    6    6  502    0 -0.28019698152E+03 -0.22495397511E+03  0.48163265414E+03  0.60090319762E+03  0.00000000000E+00 0. -1.
          3    1    5    5  503    0 -0.14535058239E+03  0.23089972335E+03 -0.21388102984E+03  0.34667934604E+03  0.00000000000E+00 0. -1.
         -4    1    5    5    0  503  0.51993380281E+01  0.83165108883E+01 -0.26261583641E+02  0.28033341660E+02  0.00000000000E+00 0.  1.
         -3    1    6    6    0  502 -0.48670979221E+02 -0.54077579438E+02  0.50807235469E+02  0.88739078157E+02  0.00000000000E+00 0.  1.
<mgrwt>
<rscale>  0 0.18542966E+04</rscale>
<asrwt>0</asrwt>
<pdfrwt beam="1">  1        1 0.11606303E+00 0.18542966E+04</pdfrwt>
<pdfrwt beam="2">  1       -1 0.17529833E+00 0.18542966E+04</pdfrwt>
<totfact> 0.51298389E+00</totfact>
</mgrwt>
</event>
<event>
12    1  0.1755460E-007  0.1475273E+04  0.7818608E-02  0.8901064E-01
          1   -1    0    0  501    0  0.00000000000E+00  0.00000000000E+00  0.81429132430E+03  0.81429132430E+03  0.00000000000E+00 0. -1.
         -1   -1    0    0    0  501 -0.00000000000E+00 -0.00000000000E+00 -0.66819795365E+03  0.66819795365E+03  0.00000000000E+00 0.  1.
         23    2    1    2    0    0  0.18856052297E+03 -0.27043707400E+03  0.36391012656E+03  0.49957027479E+03  0.91916252251E+02 0.  0.
        254    2    1    2    0    0 -0.18856052297E+03  0.27043707400E+03 -0.21781675591E+03  0.98291900315E+03  0.89999685876E+03 0.  0.
        -24    2    4    4    0    0 -0.14260765892E+03  0.27015873670E+02 -0.54273874461E+03  0.56668569477E+03  0.74165557665E+02 0.  0.
         24    2    4    4    0    0 -0.45952864052E+02  0.24342120033E+03  0.32492198870E+03  0.41623330838E+03  0.79437533828E+02 0.  0.
         13    1    3    3    0    0  0.97055108022E+02 -0.15955854268E+03  0.13968911832E+03  0.23322022278E+03  0.00000000000E+00 0. -1.
        -13    1    3    3    0    0  0.91505414948E+02 -0.11087853132E+03  0.22422100824E+03  0.26635005201E+03  0.00000000000E+00 0.  1.
          4    1    6    6  502    0 -0.67275235722E+02  0.20941511440E+03  0.27773795494E+03  0.35428663409E+03  0.00000000000E+00 0. -1.
          1    1    5    5  503    0 -0.38752692670E+02  0.29481416683E+02 -0.27914138004E+03  0.28335637485E+03  0.00000000000E+00 0. -1.
         -2    1    5    5    0  503 -0.10385496625E+03 -0.24655430138E+01 -0.26359736457E+03  0.28332931992E+03  0.00000000000E+00 0.  1.
         -3    1    6    6    0  502  0.21322371670E+02  0.34006085931E+02  0.47184033759E+02  0.61946674291E+02  0.00000000000E+00 0.  1.
<mgrwt>
<rscale>  0 0.14752733E+04</rscale>
<asrwt>0</asrwt>
<pdfrwt beam="1">  1        1 0.12527559E+00 0.14752733E+04</pdfrwt>
<pdfrwt beam="2">  1       -1 0.10279968E+00 0.14752733E+04</pdfrwt>
<totfact> 0.18632106E+01</totfact>
</mgrwt>
</event>
<event>
12    1  0.1755460E-007  0.1239626E+04  0.7818608E-02  0.9078862E-01
         -1   -1    0    0    0  501 -0.00000000000E+00  0.00000000000E+00  0.20134556720E+03  0.20134556720E+03  0.00000000000E+00 0.  1.
          1   -1    0    0  501    0  0.00000000000E+00 -0.00000000000E+00 -0.19080050211E+04  0.19080050211E+04  0.00000000000E+00 0. -1.
         23    2    1    2    0    0  0.15925398060E+03  0.22540246620E+02 -0.70194297784E+03  0.72644026337E+03  0.95507167557E+02 0.  0.
        254    2    1    2    0    0 -0.15925398060E+03 -0.22540246620E+02 -0.10047164761E+04  0.13829103250E+04  0.93654464737E+03 0.  0.
        -24    2    4    4    0    0  0.11208223384E+03  0.27391228177E+03 -0.91258897234E+03  0.96289648428E+03  0.82223121727E+02 0.  0.
         24    2    4    4    0    0 -0.27133621444E+03 -0.29645252839E+03 -0.92127503751E+02  0.42001384069E+03  0.80104347995E+02 0.  0.
         13    1    3    3    0    0  0.73710438094E+02 -0.15964510203E+02 -0.16573936340E+03  0.18209236901E+03  0.00000000000E+00 0.  1.
        -13    1    3    3    0    0  0.85543542504E+02  0.38504756823E+02 -0.53620361444E+03  0.54434789436E+03  0.00000000000E+00 0. -1.
          2    1    6    6  502    0 -0.16677523665E+02 -0.47682598273E+02 -0.29641377402E+02  0.58569456442E+02  0.00000000000E+00 0. -1.
          3    1    5    5  503    0  0.11232983742E+02  0.53041842780E+01 -0.10457234341E+02  0.16237858377E+02  0.00000000000E+00 0. -1.
         -4    1    5    5    0  503  0.10084925010E+03  0.26860809749E+03 -0.90213173800E+03  0.94665862590E+03  0.00000000000E+00 0.  1.
         -1    1    6    6    0  502 -0.25465869077E+03 -0.24876993012E+03 -0.62486126349E+02  0.36144438425E+03  0.00000000000E+00 0.  1.
<mgrwt>
<rscale>  0 0.12396263E+04</rscale>
<asrwt>0</asrwt>
<pdfrwt beam="1">  1        1 0.29353922E+00 0.12396263E+04</pdfrwt>
<pdfrwt beam="2">  1       -1 0.30976242E-01 0.12396263E+04</pdfrwt>
<totfact> 0.32785492E+01</totfact>
</mgrwt>
</event>
<event>
12    1  0.1755460E-007  0.1535154E+04  0.7818608E-02  0.8861407E-01
         -2   -1    0    0    0  501 -0.00000000000E+00  0.00000000000E+00  0.46534527485E+03  0.46534527485E+03  0.00000000000E+00 0.  1.
          2   -1    0    0  501    0  0.00000000000E+00 -0.00000000000E+00 -0.12661011194E+04  0.12661011194E+04  0.00000000000E+00 0. -1.
         23    2    1    2    0    0 -0.55430117507E+02  0.13492590478E+03  0.27170778416E+03  0.32160462069E+03  0.91251928014E+02 0.  0.
        254    2    1    2    0    0  0.55430117507E+02 -0.13492590478E+03 -0.10724636287E+04  0.14098417736E+04  0.90343682338E+03 0.  0.
        -24    2    4    4    0    0  0.72823023875E+02 -0.40644754208E+03 -0.10438043265E+04  0.11253044836E+04  0.79245892872E+02 0.  0.
         24    2    4    4    0    0 -0.17392906368E+02  0.27152163729E+03 -0.28659302181E+02  0.28453728992E+03  0.78189520023E+02 0.  0.
         11    1    3    3    0    0  0.28480681002E+01  0.72469038935E+02  0.62909167467E+02  0.96007481206E+02  0.00000000000E+00 0. -1.
        -11    1    3    3    0    0 -0.58278185607E+02  0.62456865845E+02  0.20879861670E+03  0.22559713948E+03  0.00000000000E+00 0.  1.
          2    1    6    6  502    0 -0.34814492230E+02  0.19509332962E+03 -0.47772394044E+02  0.20385204871E+03  0.00000000000E+00 0. -1.
          3    1    5    5  503    0  0.87479965267E+02 -0.38186121041E+03 -0.96708994571E+03  0.10434240228E+04  0.00000000000E+00 0. -1.
         -4    1    5    5    0  503 -0.14656941391E+02 -0.24586331667E+02 -0.76714380833E+02  0.81880460810E+02  0.00000000000E+00 0.  1.
         -1    1    6    6    0  502  0.17421585862E+02  0.76428307676E+02  0.19113091863E+02  0.80685241207E+02  0.00000000000E+00 0.  1.
<mgrwt>
<rscale>  0 0.15351536E+04</rscale>
<asrwt>0</asrwt>
<pdfrwt beam="1">  1        2 0.19478479E+00 0.15351536E+04</pdfrwt>
<pdfrwt beam="2">  1       -2 0.71591581E-01 0.15351536E+04</pdfrwt>
<totfact> 0.29510732E+01</totfact>
</mgrwt>
</event>
<event>
12    1  0.1755460E-007  0.2109417E+04  0.7818608E-02  0.8557107E-01
         -2   -1    0    0    0  501 -0.00000000000E+00  0.00000000000E+00  0.90325551497E+03  0.90325551497E+03  0.00000000000E+00 0. -1.
          2   -1    0    0  501    0  0.00000000000E+00 -0.00000000000E+00 -0.12315559752E+04  0.12315559752E+04  0.00000000000E+00 0.  1.
         23    2    1    2    0    0  0.68173481901E+03 -0.17538813741E+03  0.36470895038E+03  0.79878461000E+03  0.97574958308E+02 0.  0.
        254    2    1    2    0    0 -0.68173481901E+03  0.17538813741E+03 -0.69300941061E+03  0.13360268802E+04  0.89954567375E+03 0.  0.
        -24    2    4    4    0    0 -0.29247001155E+03  0.14511837774E+03  0.17583497857E+03  0.38012904848E+03  0.83558976718E+02 0.  0.
         24    2    4    4    0    0 -0.38926480746E+03  0.30269759663E+02 -0.86884438918E+03  0.95589783170E+03  0.80042134869E+02 0.  0.
         13    1    3    3    0    0  0.53437887984E+03 -0.94885687754E+02  0.28074576424E+03  0.61105013305E+03  0.00000000000E+00 0. -1.
        -13    1    3    3    0    0  0.14735593917E+03 -0.80502449652E+02  0.83963186138E+02  0.18773447695E+03  0.00000000000E+00 0.  1.
          2    1    6    6  502    0 -0.21788201057E+03 -0.22680408696E+02 -0.46576978086E+03  0.51471201680E+03  0.00000000000E+00 0. -1.
          1    1    5    5  503    0 -0.64321652361E+02  0.30574140226E+01  0.12405691759E+02  0.65578380057E+02  0.00000000000E+00 0. -1.
         -2    1    5    5    0  503 -0.22814835919E+03  0.14206096372E+03  0.16342928681E+03  0.31455066842E+03  0.00000000000E+00 0.  1.
         -1    1    6    6    0  502 -0.17138279689E+03  0.52950168359E+02 -0.40307460832E+03  0.44118581490E+03  0.00000000000E+00 0.  1.
<mgrwt>
<rscale>  0 0.21094167E+04</rscale>
<asrwt>0</asrwt>
<pdfrwt beam="1">  1        2 0.18947015E+00 0.21094167E+04</pdfrwt>
<pdfrwt beam="2">  1       -2 0.13896239E+00 0.21094167E+04</pdfrwt>
<totfact> 0.61166894E+00</totfact>
</mgrwt>
</event>
<event>
12    1  0.1755460E-007  0.1623424E+04  0.7818608E-02  0.8806285E-01
         -2   -1    0    0    0  501 -0.00000000000E+00  0.00000000000E+00  0.71006613257E+03  0.71006613257E+03  0.00000000000E+00 0.  1.
          2   -1    0    0  501    0  0.00000000000E+00 -0.00000000000E+00 -0.92790874501E+03  0.92790874501E+03  0.00000000000E+00 0. -1.
         23    2    1    2    0    0 -0.24861561283E+02  0.36202185856E+03 -0.50318411454E+03  0.62708449447E+03  0.91448273769E+02 0.  0.
        254    2    1    2    0    0  0.24861561283E+02 -0.36202185856E+03  0.28534150210E+03  0.10108903831E+04  0.89933401500E+03 0.  0.
        -24    2    4    4    0    0 -0.28779662259E+03 -0.29774717843E+03  0.47184575414E+03  0.63281275736E+03  0.79581982489E+02 0.  0.
         24    2    4    4    0    0  0.31265818387E+03 -0.64274680133E+02 -0.18650425204E+03  0.37807762576E+03  0.79198993810E+02 0.  0.
         11    1    3    3    0    0 -0.12181720203E+02  0.83888059591E+02 -0.60575828274E+02  0.10418748399E+03  0.00000000000E+00 0. -1.
        -11    1    3    3    0    0 -0.12679841080E+02  0.27813379897E+03 -0.44260828627E+03  0.52289701048E+03  0.00000000000E+00 0.  1.
          2    1    6    6  502    0  0.57830774127E+02 -0.25891344669E+02 -0.72495995570E+02  0.96283069844E+02  0.00000000000E+00 0. -1.
          1    1    5    5  503    0 -0.12496131038E+01  0.44739298422E+01  0.23036289937E+01  0.51850060446E+01  0.00000000000E+00 0. -1.
         -2    1    5    5    0  503 -0.28654700949E+03 -0.30222110827E+03  0.46954212515E+03  0.62762775131E+03  0.00000000000E+00 0.  1.
         -1    1    6    6    0  502  0.25482740974E+03 -0.38383335464E+02 -0.11400825647E+03  0.28179455591E+03  0.00000000000E+00 0.  1.
<mgrwt>
<rscale>  0 0.16234243E+04</rscale>
<asrwt>0</asrwt>
<pdfrwt beam="1">  1        2 0.14275519E+00 0.16234243E+04</pdfrwt>
<pdfrwt beam="2">  1       -2 0.10924094E+00 0.16234243E+04</pdfrwt>
<totfact> 0.17961662E+01</totfact>
</mgrwt>
</event>
<event>
12    1  0.1755460E-007  0.1125798E+04  0.7818608E-02  0.9180406E-01
         -1   -1    0    0    0  501 -0.00000000000E+00  0.00000000000E+00  0.49762500026E+04  0.49762500026E+04  0.00000000000E+00 0.  1.
          1   -1    0    0  501    0  0.00000000000E+00 -0.00000000000E+00 -0.63673530196E+02  0.63673530196E+02  0.00000000000E+00 0. -1.
         23    2    1    2    0    0  0.45794606658E+02 -0.12210890427E+03  0.28224280637E+03  0.32167625533E+03  0.82503824105E+02 0.  0.
        254    2    1    2    0    0 -0.45794606658E+02  0.12210890427E+03  0.46303336660E+04  0.47182472774E+04  0.89713977842E+03 0.  0.
        -24    2    4    4    0    0 -0.33176973826E+03 -0.21447990744E+03  0.30074600108E+04  0.30343708541E+04  0.80733970684E+02 0.  0.
         24    2    4    4    0    0  0.28597513161E+03  0.33658881171E+03  0.16228736552E+04  0.16838764233E+04  0.81529774263E+02 0.  0.
         11    1    3    3    0    0  0.42772672939E+02 -0.11400293089E+03  0.28703004983E+03  0.31178906220E+03  0.00000000000E+00 0. -1.
        -11    1    3    3    0    0  0.30219337182E+01 -0.81059733849E+01 -0.47872434634E+01  0.98871931250E+01  0.00000000000E+00 0.  1.
          4    1    6    6  502    0  0.22644328097E+02  0.36221421475E+01  0.55967789694E+02  0.60483708484E+02  0.00000000000E+00 0. -1.
          1    1    5    5  503    0 -0.61184808267E+02 -0.70728711112E+02  0.88100179695E+03  0.88595163388E+03  0.00000000000E+00 0. -1.
         -2    1    5    5    0  503 -0.27058493000E+03 -0.14375119633E+03  0.21264582138E+04  0.21484192202E+04  0.00000000000E+00 0.  1.
         -3    1    6    6    0  502  0.26333080351E+03  0.33296666957E+03  0.15669058655E+04  0.16233927148E+04  0.00000000000E+00 0.  1.
<mgrwt>
<rscale>  0 0.11257982E+04</rscale>
<asrwt>0</asrwt>
<pdfrwt beam="1">  1        1 0.97959316E-02 0.11257982E+04</pdfrwt>
<pdfrwt beam="2">  1       -1 0.76557662E+00 0.11257982E+04</pdfrwt>
<totfact> 0.77403244E-02</totfact>
</mgrwt>
</event>
<event>
12    1  0.1755460E-007  0.2778090E+04  0.7818608E-02  0.8310103E-01
         -1   -1    0    0    0  501 -0.00000000000E+00  0.00000000000E+00  0.81817050856E+03  0.81817050856E+03  0.00000000000E+00 0.  1.
          1   -1    0    0  501    0  0.00000000000E+00 -0.00000000000E+00 -0.23582445310E+04  0.23582445310E+04  0.00000000000E+00 0. -1.
         23    2    1    2    0    0  0.27886947465E+03 -0.99049908586E+03  0.10320492820E+03  0.10385067489E+04  0.94807105795E+02 0.  0.
        254    2    1    2    0    0 -0.27886947465E+03  0.99049908586E+03 -0.16432789506E+04  0.21379082907E+04  0.90079383145E+03 0.  0.
        -24    2    4    4    0    0 -0.35595535383E+03  0.57411614387E+03 -0.33082495945E+03  0.75661067584E+03  0.81859638535E+02 0.  0.
         24    2    4    4    0    0  0.77085879186E+02  0.41638294198E+03 -0.13124539912E+04  0.13812976148E+04  0.78298369310E+02 0.  0.
         11    1    3    3    0    0  0.24995086090E+03 -0.74577514929E+03  0.66366575880E+02  0.78934183251E+03  0.00000000000E+00 0.  1.
        -11    1    3    3    0    0  0.28918613744E+02 -0.24472393657E+03  0.36838352319E+02  0.24916491637E+03  0.00000000000E+00 0. -1.
          2    1    6    6  502    0  0.10592149368E+02  0.26219419803E+03 -0.82579423518E+03  0.86648376209E+03  0.00000000000E+00 0. -1.
          1    1    5    5  503    0 -0.35954143786E+02  0.10361000007E+03 -0.33939935034E+02  0.11480266443E+03  0.00000000000E+00 0. -1.
         -2    1    5    5    0  503 -0.32000121005E+03  0.47050614380E+03 -0.29688502441E+03  0.64180801141E+03  0.00000000000E+00 0.  1.
         -1    1    6    6    0  502  0.66493729818E+02  0.15418874396E+03 -0.48665975600E+03  0.51481385274E+03  0.00000000000E+00 0.  1.
<mgrwt>
<rscale>  0 0.27780901E+04</rscale>
<asrwt>0</asrwt>
<pdfrwt beam="1">  1        1 0.36280686E+00 0.27780901E+04</pdfrwt>
<pdfrwt beam="2">  1       -1 0.12587238E+00 0.27780901E+04</pdfrwt>
<totfact> 0.80946435E-01</totfact>
</mgrwt>
</event>
<event>
12    1  0.1755460E-007  0.1946813E+04  0.7818608E-02  0.8631899E-01
          2   -1    0    0  501    0  0.00000000000E+00  0.00000000000E+00  0.41692600710E+03  0.41692600710E+03  0.00000000000E+00 0. -1.
         -2   -1    0    0    0  501 -0.00000000000E+00 -0.00000000000E+00 -0.22726334605E+04  0.22726334605E+04  0.00000000000E+00 0.  1.
         23    2    1    2    0    0  0.69144975537E+02 -0.56823342101E+03 -0.13936039342E+04  0.15093162070E+04  0.90737196057E+02 0.  0.
        254    2    1    2    0    0 -0.69144975537E+02  0.56823342101E+03 -0.46210351916E+03  0.11802432606E+04  0.92291074508E+03 0.  0.
        -24    2    4    4    0    0  0.33206450127E+01 -0.24266485977E+03 -0.38435496865E+02  0.25878589951E+03  0.81213259476E+02 0.  0.
         24    2    4    4    0    0 -0.72465620550E+02  0.81089828078E+03 -0.42366802230E+03  0.92145736110E+03  0.82351607561E+02 0.  0.
         13    1    3    3    0    0  0.47313160275E+02 -0.41353592700E+03 -0.90025865027E+03  0.99182464954E+03  0.00000000000E+00 0. -1.
        -13    1    3    3    0    0  0.21831815262E+02 -0.15469749402E+03 -0.49334528398E+03  0.51749155745E+03  0.00000000000E+00 0.  1.
          4    1    6    6  502    0 -0.12115121487E+02  0.16199996358E+03 -0.48747731599E+02  0.16960868405E+03  0.00000000000E+00 0. -1.
          1    1    5    5  503    0  0.14385951778E+02 -0.47701436991E+02 -0.39378742217E+02  0.63506440918E+02  0.00000000000E+00 0. -1.
         -2    1    5    5    0  503 -0.11065306765E+02 -0.19496342278E+03  0.94324535172E+00  0.19527945859E+03  0.00000000000E+00 0.  1.
         -3    1    6    6    0  502 -0.60350499063E+02  0.64889831721E+03 -0.37492029070E+03  0.75184867705E+03  0.00000000000E+00 0.  1.
<mgrwt>
<rscale>  0 0.19468128E+04</rscale>
<asrwt>0</asrwt>
<pdfrwt beam="1">  1        2 0.64142463E-01 0.19468128E+04</pdfrwt>
<pdfrwt beam="2">  1       -2 0.34963591E+00 0.19468128E+04</pdfrwt>
<totfact> 0.11102297E+00</totfact>
</mgrwt>
</event>
<event>
12    1  0.1755460E-007  0.1581235E+04  0.7818608E-02  0.8832160E-01
         -2   -1    0    0    0  501 -0.00000000000E+00  0.00000000000E+00  0.54657804424E+03  0.54657804424E+03  0.00000000000E+00 0.  1.
          2   -1    0    0  501    0  0.00000000000E+00 -0.00000000000E+00 -0.11436171462E+04  0.11436171462E+04  0.00000000000E+00 0. -1.
         23    2    1    2    0    0 -0.49072139658E+03  0.15462928067E+03 -0.60888300863E+02  0.52690657069E+03  0.95945013139E+02 0.  0.
        254    2    1    2    0    0  0.49072139658E+03 -0.15462928067E+03 -0.53615080108E+03  0.11632886197E+04  0.89502236163E+03 0.  0.
        -24    2    4    4    0    0  0.40034789525E+03 -0.38505673768E+03  0.70959261586E+01  0.56110730812E+03  0.79018545826E+02 0.  0.
         24    2    4    4    0    0  0.90373501329E+02  0.23042745702E+03 -0.54324672724E+03  0.60218131162E+03  0.79000903303E+02 0.  0.
         13    1    3    3    0    0 -0.10087396952E+03  0.96256722416E+01 -0.44416915132E+02  0.11063938559E+03  0.00000000000E+00 0. -1.
        -13    1    3    3    0    0 -0.38984742706E+03  0.14500360843E+03 -0.16471385731E+02  0.41626718510E+03  0.00000000000E+00 0.  1.
          2    1    6    6  502    0  0.72303992880E+02  0.10455005427E+03 -0.33338140824E+03  0.35679370033E+03  0.00000000000E+00 0. -1.
          1    1    5    5  503    0  0.86686961233E+02 -0.11879217630E+03  0.25529588993E+02  0.14925806616E+03  0.00000000000E+00 0. -1.
         -2    1    5    5    0  503  0.31366093402E+03 -0.26626456138E+03 -0.18433662834E+02  0.41184924196E+03  0.00000000000E+00 0.  1.
         -1    1    6    6    0  502  0.18069508449E+02  0.12587740275E+03 -0.20986531900E+03  0.24538761129E+03  0.00000000000E+00 0.  1.
<mgrwt>
<rscale>  0 0.15812350E+04</rscale>
<asrwt>0</asrwt>
<pdfrwt beam="1">  1        2 0.17594110E+00 0.15812350E+04</pdfrwt>
<pdfrwt beam="2">  1       -2 0.84088931E-01 0.15812350E+04</pdfrwt>
<totfact> 0.24295304E+01</totfact>
</mgrwt>
</event>
<event>
12    1  0.1755460E-007  0.1697703E+04  0.7818608E-02  0.8762675E-01
         -1   -1    0    0    0  501 -0.00000000000E+00  0.00000000000E+00  0.50863020063E+03  0.50863020063E+03  0.00000000000E+00 0.  1.
          1   -1    0    0  501    0  0.00000000000E+00 -0.00000000000E+00 -0.14166459143E+04  0.14166459143E+04  0.00000000000E+00 0. -1.
         23    2    1    2    0    0 -0.17754892817E+03  0.51047771836E+03  0.52515412534E-01  0.54835247588E+03  0.92624576692E+02 0.  0.
        254    2    1    2    0    0  0.17754892817E+03 -0.51047771836E+03 -0.90806822913E+03  0.13769236391E+04  0.88273420480E+03 0.  0.
        -24    2    4    4    0    0  0.50768346148E+03 -0.45419358523E+03 -0.53937241146E+03  0.87250579181E+03  0.79432037436E+02 0.  0.
         24    2    4    4    0    0 -0.33013453331E+03 -0.56284133128E+02 -0.36869581767E+03  0.50441784729E+03  0.79649513319E+02 0.  0.
         11    1    3    3    0    0 -0.53186500248E+01  0.10290954465E+03 -0.21880999165E+02  0.10534439018E+03  0.00000000000E+00 0. -1.
        -11    1    3    3    0    0 -0.17223027814E+03  0.40756817371E+03  0.21933514578E+02  0.44300808570E+03  0.00000000000E+00 0.  1.
          2    1    6    6  502    0 -0.24534045841E+03 -0.58756649257E+02 -0.22754199833E+03  0.33973466907E+03  0.00000000000E+00 0. -1.
          3    1    5    5  503    0  0.37137857179E+03 -0.28633578381E+03 -0.38649480863E+03  0.60769109075E+03  0.00000000000E+00 0. -1.
         -4    1    5    5    0  503  0.13630488969E+03 -0.16785780142E+03 -0.15287760282E+03  0.26481470106E+03  0.00000000000E+00 0.  1.
         -1    1    6    6    0  502 -0.84794074905E+02  0.24725161287E+01 -0.14115381934E+03  0.16468317823E+03  0.00000000000E+00 0.  1.
<mgrwt>
<rscale>  0 0.16977030E+04</rscale>
<asrwt>0</asrwt>
<pdfrwt beam="1">  1        1 0.21794552E+00 0.16977030E+04</pdfrwt>
<pdfrwt beam="2">  1       -1 0.78250802E-01 0.16977030E+04</pdfrwt>
<totfact> 0.11638071E+01</totfact>
</mgrwt>
</event>
<event>
12    1  0.1755460E-007  0.2731982E+04  0.7818608E-02  0.8324702E-01
          2   -1    0    0  501    0  0.00000000000E+00  0.00000000000E+00  0.24575164883E+04  0.24575164883E+04  0.00000000000E+00 0.  1.
         -2   -1    0    0    0  501 -0.00000000000E+00 -0.00000000000E+00 -0.75927503378E+03  0.75927503378E+03  0.00000000000E+00 0. -1.
         23    2    1    2    0    0  0.65554032695E+03 -0.81433843553E+03  0.14903739140E+04  0.18228116000E+04  0.92452787163E+02 0.  0.
        254    2    1    2    0    0 -0.65554032695E+03  0.81433843553E+03  0.20786754058E+03  0.13939799221E+04  0.89838238012E+03 0.  0.
        -24    2    4    4    0    0 -0.54913583550E+03  0.93328100668E+03 -0.42515764824E+02  0.10865581243E+04  0.78976983248E+02 0.  0.
         24    2    4    4    0    0 -0.10640449145E+03 -0.11894257114E+03  0.25038330540E+03  0.30742179783E+03  0.79668758777E+02 0.  0.
         11    1    3    3    0    0  0.48905049497E+02 -0.29297698662E+02  0.92333970309E+02  0.10851553385E+03  0.00000000000E+00 0. -1.
        -11    1    3    3    0    0  0.60663527745E+03 -0.78504073687E+03  0.13980399437E+04  0.17142960662E+04  0.00000000000E+00 0.  1.
          4    1    6    6  502    0 -0.21368545876E+02 -0.63441719274E+02  0.52757170372E+02  0.85233711189E+02  0.00000000000E+00 0. -1.
          3    1    5    5  503    0 -0.48151394533E+02  0.13073957933E+03 -0.14377335321E+02  0.14006463568E+03  0.00000000000E+00 0. -1.
         -4    1    5    5    0  503 -0.50098444096E+03  0.80254142735E+03 -0.28138429503E+02  0.94649348857E+03  0.00000000000E+00 0.  1.
         -3    1    6    6    0  502 -0.85035945574E+02 -0.55500851869E+02  0.19762613503E+03  0.22218808664E+03  0.00000000000E+00 0.  1.
<mgrwt>
<rscale>  0 0.27319816E+04</rscale>
<asrwt>0</asrwt>
<pdfrwt beam="1">  1        2 0.37807946E+00 0.27319816E+04</pdfrwt>
<pdfrwt beam="2">  1       -2 0.11681154E+00 0.27319816E+04</pdfrwt>
<totfact> 0.18289443E+00</totfact>
</mgrwt>
</event>
<event>
12    1  0.1755460E-007  0.1635640E+04  0.7818608E-02  0.8798947E-01
         -1   -1    0    0    0  501 -0.00000000000E+00  0.00000000000E+00  0.17235787957E+04  0.17235787957E+04  0.00000000000E+00 0.  1.
          1   -1    0    0  501    0  0.00000000000E+00 -0.00000000000E+00 -0.38804701741E+03  0.38804701741E+03  0.00000000000E+00 0. -1.
         23    2    1    2    0    0  0.49287082029E+03  0.20455733542E+03  0.12808193499E+03  0.55651145657E+03  0.92383279146E+02 0.  0.
        254    2    1    2    0    0 -0.49287082029E+03 -0.20455733542E+03  0.12074498433E+04  0.15551143565E+04  0.82199768177E+03 0.  0.
        -24    2    4    4    0    0 -0.44651535106E+03  0.24889894621E+03  0.63544059493E+03  0.81941202120E+03  0.79527772801E+02 0.  0.
         24    2    4    4    0    0 -0.46355469227E+02 -0.45345628163E+03  0.57200924838E+03  0.73570233534E+03  0.79321605580E+02 0.  0.
         13    1    3    3    0    0  0.15350319049E+03  0.55380444293E+02 -0.32712580874E+01  0.16322047736E+03  0.00000000000E+00 0. -1.
        -13    1    3    3    0    0  0.33936762979E+03  0.14917689113E+03  0.13135319308E+03  0.39329097921E+03  0.00000000000E+00 0.  1.
          2    1    6    6  502    0 -0.32801369340E+02 -0.13959259667E+03  0.13089897724E+03  0.19415603291E+03  0.00000000000E+00 0. -1.
          3    1    5    5  503    0 -0.16946356355E+03  0.54702319190E+02  0.24298090127E+03  0.30124734269E+03  0.00000000000E+00 0. -1.
         -4    1    5    5    0  503 -0.27705178751E+03  0.19419662702E+03  0.39245969366E+03  0.51816467851E+03  0.00000000000E+00 0.  1.
         -1    1    6    6    0  502 -0.13554099887E+02 -0.31386368497E+03  0.44111027114E+03  0.54154630242E+03  0.00000000000E+00 0.  1.
<mgrwt>
<rscale>  0 0.16356401E+04</rscale>
<asrwt>0</asrwt>
<pdfrwt beam="1">  1        1 0.59699542E-01 0.16356401E+04</pdfrwt>
<pdfrwt beam="2">  1       -1 0.26516596E+00 0.16356401E+04</pdfrwt>
<totfact> 0.33218538E+00</totfact>
</mgrwt>
</event>
<event>
12    1  0.1755460E-007  0.1808558E+04  0.7818608E-02  0.8701762E-01
         -1   -1    0    0    0  501 -0.00000000000E+00  0.00000000000E+00  0.89602870280E+03  0.89602870280E+03  0.00000000000E+00 0.  1.
          1   -1    0    0  501    0  0.00000000000E+00 -0.00000000000E+00 -0.91260539507E+03  0.91260539507E+03  0.00000000000E+00 0. -1.
         23    2    1    2    0    0  0.65706273550E+03  0.84460641665E+02 -0.10388961656E+03  0.67701880784E+03  0.93254358372E+02 0.  0.
        254    2    1    2    0    0 -0.65706273550E+03 -0.84460641665E+02  0.87312924291E+02  0.11316152900E+04  0.91327136139E+03 0.  0.
        -24    2    4    4    0    0 -0.15584977391E+02  0.30238459636E+03 -0.14182775075E+03  0.34418925901E+03  0.81681084068E+02 0.  0.
         24    2    4    4    0    0 -0.64147775811E+03 -0.38684523803E+03  0.22914067504E+03  0.78742603104E+03  0.79945938348E+02 0.  0.
         11    1    3    3    0    0  0.48334910755E+03  0.10181538969E+03 -0.87822486039E+02  0.50170262347E+03  0.00000000000E+00 0. -1.
        -11    1    3    3    0    0  0.17371362796E+03 -0.17354748022E+02 -0.16067130521E+02  0.17531618436E+03  0.00000000000E+00 0.  1.
          4    1    6    6  502    0 -0.46530728723E+03 -0.23934539237E+03  0.16986603251E+03  0.55013776220E+03  0.00000000000E+00 0. -1.
          1    1    5    5  503    0  0.10753605837E+02  0.30566781358E+02 -0.42834119628E+02  0.53709682231E+02  0.00000000000E+00 0. -1.
         -2    1    5    5    0  503 -0.26338583228E+02  0.27181781501E+03 -0.98993631120E+02  0.29047957678E+03  0.00000000000E+00 0.  1.
         -3    1    6    6    0  502 -0.17617047089E+03 -0.14749984566E+03  0.59274642526E+02  0.23728826884E+03  0.00000000000E+00 0.  1.
<mgrwt>
<rscale>  0 0.18085581E+04</rscale>
<asrwt>0</asrwt>
<pdfrwt beam="1">  1        1 0.14040083E+00 0.18085581E+04</pdfrwt>
<pdfrwt beam="2">  1       -1 0.13785057E+00 0.18085581E+04</pdfrwt>
<totfact> 0.73135089E+00</totfact>
</mgrwt>
</event>
<event>
12    1  0.1755460E-007  0.2210566E+04  0.7818608E-02  0.8514043E-01
          1   -1    0    0  501    0  0.00000000000E+00  0.00000000000E+00  0.14341521273E+04  0.14341521273E+04  0.00000000000E+00 0.  1.
         -1   -1    0    0    0  501 -0.00000000000E+00 -0.00000000000E+00 -0.85182765497E+03  0.85182765497E+03  0.00000000000E+00 0. -1.
         23    2    1    2    0    0 -0.51880661471E+03 -0.23438546367E+03  0.99430235452E+03  0.11490490606E+04  0.87061600676E+02 0.  0.
        254    2    1    2    0    0  0.51880661471E+03  0.23438546367E+03 -0.41197788216E+03  0.11369307218E+04  0.89374987644E+03 0.  0.
        -24    2    4    4    0    0  0.12637973483E+03  0.53525998868E+03 -0.17215433677E+03  0.58196287874E+03  0.81046799523E+02 0.  0.
         24    2    4    4    0    0  0.39242687988E+03 -0.30087452501E+03 -0.23982354539E+03  0.55496784301E+03  0.77133896575E+02 0.  0.
         11    1    3    3    0    0 -0.47330702558E+03 -0.22454584721E+03  0.94955135329E+03  0.10844759797E+04  0.00000000000E+00 0.  1.
        -11    1    3    3    0    0 -0.45499589126E+02 -0.98396164604E+01  0.44751001230E+02  0.64573080876E+02  0.00000000000E+00 0. -1.
          2    1    6    6  502    0  0.20520445992E+03 -0.20499904989E+03 -0.13434107818E+03  0.31965763891E+03  0.00000000000E+00 0. -1.
          3    1    5    5  503    0  0.48573021577E+02  0.31922386054E+03 -0.68761480449E+02  0.33013838426E+03  0.00000000000E+00 0. -1.
         -4    1    5    5    0  503  0.77806713250E+02  0.21603612813E+03 -0.10339285632E+03  0.25182449449E+03  0.00000000000E+00 0.  1.
         -1    1    6    6    0  502  0.18722241996E+03 -0.95875475114E+02 -0.10548246721E+03  0.23531020410E+03  0.00000000000E+00 0.  1.
<mgrwt>
<rscale>  0 0.22105659E+04</rscale>
<asrwt>0</asrwt>
<pdfrwt beam="1">  1        1 0.22063879E+00 0.22105659E+04</pdfrwt>
<pdfrwt beam="2">  1       -1 0.13105041E+00 0.22105659E+04</pdfrwt>
<totfact> 0.32909454E+00</totfact>
</mgrwt>
</event>
<event>
12    1  0.1755460E-007  0.3239547E+04  0.7818608E-02  0.8178450E-01
         -1   -1    0    0    0  501 -0.00000000000E+00  0.00000000000E+00  0.12019693693E+04  0.12019693693E+04  0.00000000000E+00 0.  1.
          1   -1    0    0  501    0  0.00000000000E+00 -0.00000000000E+00 -0.21828068332E+04  0.21828068332E+04  0.00000000000E+00 0. -1.
         23    2    1    2    0    0  0.20999943422E+03  0.13180169211E+04  0.24526352239E+03  0.13597908356E+04  0.87227029179E+02 0.  0.
        254    2    1    2    0    0 -0.20999943422E+03 -0.13180169211E+04 -0.12261009864E+04  0.20249853668E+04  0.90331264826E+03 0.  0.
        -24    2    4    4    0    0 -0.22767922099E+03 -0.59251764678E+03 -0.11164321519E+04  0.12867227791E+04  0.79496988151E+02 0.  0.
         24    2    4    4    0    0  0.17679786770E+02 -0.72549927431E+03 -0.10966883446E+03  0.73826258771E+03  0.79640588086E+02 0.  0.
         13    1    3    3    0    0  0.63259639207E+02  0.24308038858E+03  0.21898217828E+02  0.25212970711E+03  0.00000000000E+00 0. -1.
        -13    1    3    3    0    0  0.14673979501E+03  0.10749365325E+04  0.22336530456E+03  0.11076611285E+04  0.00000000000E+00 0.  1.
          2    1    6    6  502    0 -0.82911400106E+01 -0.65203329022E+03 -0.94933302152E+02  0.65896015540E+03  0.00000000000E+00 0. -1.
          3    1    5    5  503    0 -0.97545678310E+02 -0.30410800429E+03 -0.63203917592E+03  0.70814571772E+03  0.00000000000E+00 0. -1.
         -4    1    5    5    0  503 -0.13013354268E+03 -0.28840964249E+03 -0.48439297598E+03  0.57857706141E+03  0.00000000000E+00 0.  1.
         -1    1    6    6    0  502  0.25970926780E+02 -0.73465984097E+02 -0.14735532306E+02  0.79302432305E+02  0.00000000000E+00 0.  1.
<mgrwt>
<rscale>  0 0.32395475E+04</rscale>
<asrwt>0</asrwt>
<pdfrwt beam="1">  1        1 0.33581643E+00 0.32395475E+04</pdfrwt>
<pdfrwt beam="2">  1       -1 0.18491837E+00 0.32395475E+04</pdfrwt>
<totfact> 0.35817404E-01</totfact>
</mgrwt>
</event>
<event>
12    1  0.1755460E-007  0.2272245E+04  0.7818608E-02  0.8488945E-01
         -2   -1    0    0    0  501 -0.00000000000E+00  0.00000000000E+00  0.49877637691E+03  0.49877637691E+03  0.00000000000E+00 0.  1.
          2   -1    0    0  501    0  0.00000000000E+00 -0.00000000000E+00 -0.25878823835E+04  0.25878823835E+04  0.00000000000E+00 0. -1.
         23    2    1    2    0    0  0.63210361710E+03 -0.12990025628E+03  0.94253930003E+02  0.65868443395E+03  0.92478759084E+02 0.  0.
        254    2    1    2    0    0 -0.63210361710E+03  0.12990025628E+03 -0.21833599366E+04  0.24279743265E+04  0.84354588372E+03 0.  0.
        -24    2    4    4    0    0  0.13934688500E+02 -0.57928574804E+02  0.37694188129E+02  0.10598760705E+03  0.79136753206E+02 0.  0.
         24    2    4    4    0    0 -0.64603830560E+03  0.18782883109E+03 -0.22210541247E+04  0.23219867194E+04  0.76783709840E+02 0.  0.
         13    1    3    3    0    0  0.95212022230E+01 -0.10490744960E+00  0.15041495492E+02  0.17801991012E+02  0.00000000000E+00 0. -1.
        -13    1    3    3    0    0  0.62258241487E+03 -0.12979534883E+03  0.79212434510E+02  0.64088244294E+03  0.00000000000E+00 0.  1.
          4    1    6    6  502    0 -0.40742860692E+03  0.10478886395E+03 -0.15038764194E+04  0.15616091255E+04  0.00000000000E+00 0. -1.
          3    1    5    5  503    0 -0.10515413146E+02 -0.32043126975E+02  0.56439535693E+02  0.65747677443E+02  0.00000000000E+00 0. -1.
         -4    1    5    5    0  503  0.24450101646E+02 -0.25885447829E+02 -0.18745347564E+02  0.40239929611E+02  0.00000000000E+00 0.  1.
         -3    1    6    6    0  502 -0.23860969868E+03  0.83039967138E+02 -0.71717770530E+03  0.76037759398E+03  0.00000000000E+00 0.  1.
<mgrwt>
<rscale>  0 0.22722452E+04</rscale>
<asrwt>0</asrwt>
<pdfrwt beam="1">  1        2 0.39813575E+00 0.22722452E+04</pdfrwt>
<pdfrwt beam="2">  1       -2 0.76734827E-01 0.22722452E+04</pdfrwt>
<totfact> 0.42663123E+00</totfact>
</mgrwt>
</event>
<event>
12    1  0.1755460E-007  0.1691609E+04  0.7818608E-02  0.8766165E-01
         -2   -1    0    0    0  501 -0.00000000000E+00  0.00000000000E+00  0.74559336791E+03  0.74559336791E+03  0.00000000000E+00 0.  1.
          2   -1    0    0  501    0  0.00000000000E+00 -0.00000000000E+00 -0.95948426359E+03  0.95948426359E+03  0.00000000000E+00 0. -1.
         23    2    1    2    0    0  0.28460814808E+03 -0.26018083705E+03 -0.54650072916E+03  0.67656268775E+03  0.10187324259E+03 0.  0.
        254    2    1    2    0    0 -0.28460814808E+03  0.26018083705E+03  0.33260983348E+03  0.10285149437E+04  0.89359824432E+03 0.  0.
        -24    2    4    4    0    0  0.31130958833E+03  0.84041656062E+02  0.20065189832E+03  0.38812454460E+03  0.80017611098E+02 0.  0.
         24    2    4    4    0    0 -0.59591773640E+03  0.17613918099E+03  0.13195793516E+03  0.64039039914E+03  0.80895037055E+02 0.  0.
         11    1    3    3    0    0  0.54463095939E+02 -0.78821678554E+02 -0.76046478358E+02  0.12231987860E+03  0.00000000000E+00 0.  1.
        -11    1    3    3    0    0  0.23014505214E+03 -0.18135915850E+03 -0.47045425080E+03  0.55424280915E+03  0.00000000000E+00 0. -1.
          4    1    6    6  502    0 -0.55690054611E+03  0.14691956657E+03  0.10768130074E+03  0.58593415997E+03  0.00000000000E+00 0. -1.
          1    1    5    5  503    0  0.27886679513E+03  0.87239878963E+02  0.20244762427E+03  0.35547507153E+03  0.00000000000E+00 0. -1.
         -2    1    5    5    0  503  0.32442793195E+02 -0.31982229016E+01 -0.17957259507E+01  0.32649473069E+02  0.00000000000E+00 0.  1.
         -3    1    6    6    0  502 -0.39017190299E+02  0.29219614419E+02  0.24276634422E+02  0.54456239169E+02  0.00000000000E+00 0.  1.
<mgrwt>
<rscale>  0 0.16916088E+04</rscale>
<asrwt>0</asrwt>
<pdfrwt beam="1">  1        2 0.14761296E+00 0.16916088E+04</pdfrwt>
<pdfrwt beam="2">  1       -2 0.11470667E+00 0.16916088E+04</pdfrwt>
<totfact> 0.15121179E+01</totfact>
</mgrwt>
</event>
<event>
12    1  0.1755460E-007  0.1083883E+04  0.7818608E-02  0.9221045E-01
          1   -1    0    0  501    0  0.00000000000E+00  0.00000000000E+00  0.11067030734E+04  0.11067030734E+04  0.00000000000E+00 0.  1.
         -1   -1    0    0    0  501 -0.00000000000E+00 -0.00000000000E+00 -0.26538316391E+03  0.26538316391E+03  0.00000000000E+00 0. -1.
         23    2    1    2    0    0  0.97965445814E+02 -0.97300075535E+02  0.27715818229E+03  0.32228008927E+03  0.89349116704E+02 0.  0.
        254    2    1    2    0    0 -0.97965445814E+02  0.97300075535E+02  0.56416172720E+03  0.10498061480E+04  0.87449983462E+03 0.  0.
        -24    2    4    4    0    0  0.91283353364E+01  0.44678252058E+03  0.12120683715E+03  0.47004249852E+03  0.80937666398E+02 0.  0.
         24    2    4    4    0    0 -0.10709378115E+03 -0.34948244505E+03  0.44295489005E+03  0.57976364951E+03  0.79434232676E+02 0.  0.
         11    1    3    3    0    0  0.46551553379E+02 -0.68127683078E+01  0.34794396911E+02  0.58515903739E+02  0.00000000000E+00 0. -1.
        -11    1    3    3    0    0  0.51413892435E+02 -0.90487307227E+02  0.24236378538E+03  0.26376418553E+03  0.00000000000E+00 0.  1.
          2    1    6    6  502    0  0.10076635836E+02 -0.71970307314E+02  0.92662292686E+02  0.11776062249E+03  0.00000000000E+00 0. -1.
          3    1    5    5  503    0 -0.35095916809E+02  0.22994785569E+03  0.54522499422E+02  0.23891513693E+03  0.00000000000E+00 0. -1.
         -4    1    5    5    0  503  0.44224252145E+02  0.21683466489E+03  0.66684337728E+02  0.23112736159E+03  0.00000000000E+00 0.  1.
         -1    1    6    6    0  502 -0.11717041699E+03 -0.27751213773E+03  0.35029259736E+03  0.46200302702E+03  0.00000000000E+00 0.  1.
<mgrwt>
<rscale>  0 0.10838826E+04</rscale>
<asrwt>0</asrwt>
<pdfrwt beam="1">  1        1 0.17026201E+00 0.10838826E+04</pdfrwt>
<pdfrwt beam="2">  1       -1 0.40828180E-01 0.10838826E+04</pdfrwt>
<totfact> 0.73276293E+01</totfact>
</mgrwt>
</event>
<event>
12    1  0.1755460E-007  0.2928407E+04  0.7818608E-02  0.8264475E-01
         -1   -1    0    0    0  501 -0.00000000000E+00  0.00000000000E+00  0.19599194201E+04  0.19599194201E+04  0.00000000000E+00 0.  1.
          1   -1    0    0  501    0  0.00000000000E+00 -0.00000000000E+00 -0.10938673905E+04  0.10938673905E+04  0.00000000000E+00 0. -1.
         23    2    1    2    0    0  0.15544586128E+03 -0.10745557185E+03 -0.97249500582E+03  0.99592226558E+03  0.10200248533E+03 0.  0.
        254    2    1    2    0    0 -0.15544586128E+03  0.10745557185E+03  0.18385470355E+04  0.20578645450E+04  0.90489842974E+03 0.  0.
        -24    2    4    4    0    0 -0.69563668935E+02 -0.23771863471E+03  0.16019366574E+04  0.16232077378E+04  0.85164854854E+02 0.  0.
         24    2    4    4    0    0 -0.85882192347E+02  0.34517420656E+03  0.23661037809E+03  0.43465680717E+03  0.80131673913E+02 0.  0.
         11    1    3    3    0    0  0.15134204401E+03 -0.82732339435E+02 -0.93530944589E+03  0.95107981465E+03  0.00000000000E+00 0. -1.
        -11    1    3    3    0    0  0.41038172684E+01 -0.24723232417E+02 -0.37185559937E+02  0.44842450927E+02  0.00000000000E+00 0.  1.
          2    1    6    6  502    0  0.41890100454E+01  0.41878062978E+02  0.56960469776E+02  0.70822419339E+02  0.00000000000E+00 0. -1.
          1    1    5    5  503    0 -0.81411260807E+01 -0.83719851137E+00  0.19325328687E+03  0.19342650212E+03  0.00000000000E+00 0. -1.
         -4    1    5    5    0  503 -0.61422542854E+02 -0.23688143620E+03  0.14086833705E+04  0.14297812357E+04  0.00000000000E+00 0.  1.
         -1    1    6    6    0  502 -0.90071202392E+02  0.30329614359E+03  0.17964990831E+03  0.36383438783E+03  0.00000000000E+00 0.  1.
<mgrwt>
<rscale>  0 0.29284070E+04</rscale>
<asrwt>0</asrwt>
<pdfrwt beam="1">  1        1 0.16828729E+00 0.29284070E+04</pdfrwt>
<pdfrwt beam="2">  1       -1 0.30152607E+00 0.29284070E+04</pdfrwt>
<totfact> 0.35417711E-01</totfact>
</mgrwt>
</event>
<event>
12    1  0.1755460E-007  0.1143462E+04  0.7818608E-02  0.9163837E-01
          1   -1    0    0  501    0  0.00000000000E+00  0.00000000000E+00  0.13871188601E+04  0.13871188601E+04  0.00000000000E+00 0. -1.
         -1   -1    0    0    0  501 -0.00000000000E+00 -0.00000000000E+00 -0.23565110592E+03  0.23565110592E+03  0.00000000000E+00 0.  1.
         23    2    1    2    0    0 -0.14763443638E+03  0.13056112004E+03  0.30543379398E+03  0.37431340835E+03  0.89322966195E+02 0.  0.
        254    2    1    2    0    0  0.14763443638E+03 -0.13056112004E+03  0.84603396023E+03  0.12484565577E+04  0.89667618556E+03 0.  0.
        -24    2    4    4    0    0  0.25022526506E+03  0.19063237160E+03  0.84208370311E+03  0.90171088154E+03  0.70881354797E+02 0.  0.
         24    2    4    4    0    0 -0.10259082868E+03 -0.32119349164E+03  0.39502571195E+01  0.34674567617E+03  0.80788750541E+02 0.  0.
         11    1    3    3    0    0 -0.93362099129E+02  0.10858439118E+03  0.27067071429E+03  0.30621836512E+03  0.00000000000E+00 0.  1.
        -11    1    3    3    0    0 -0.54272337256E+02  0.21976728857E+02  0.34763079691E+02  0.68095043227E+02  0.00000000000E+00 0. -1.
          2    1    6    6  502    0 -0.25843464608E+02 -0.22890061981E+02  0.16937257400E+02  0.38454002245E+02  0.00000000000E+00 0. -1.
          1    1    5    5  503    0  0.42828644565E+01  0.26231057321E+02  0.73756345295E+02  0.78399041878E+02  0.00000000000E+00 0. -1.
         -4    1    5    5    0  503  0.24594240060E+03  0.16440131428E+03  0.76832735782E+03  0.82331183966E+03  0.00000000000E+00 0.  1.
         -1    1    6    6    0  502 -0.76747364069E+02 -0.29830342966E+03 -0.12987000281E+02  0.30829167393E+03  0.00000000000E+00 0.  1.
<mgrwt>
<rscale>  0 0.11434616E+04</rscale>
<asrwt>0</asrwt>
<pdfrwt beam="1">  1        1 0.21340290E+00 0.11434616E+04</pdfrwt>
<pdfrwt beam="2">  1       -1 0.36254017E-01 0.11434616E+04</pdfrwt>
<totfact> 0.56745562E+01</totfact>
</mgrwt>
</event>
<event>
12    1  0.1775937E-007  0.2236572E+04  0.7818608E-02  0.8503359E-01
          1   -1    0    0  501    0  0.00000000000E+00  0.00000000000E+00  0.11679980324E+04  0.11679980324E+04  0.00000000000E+00 0. -1.
         -1   -1    0    0    0  501 -0.00000000000E+00 -0.00000000000E+00 -0.10706893643E+04  0.10706893643E+04  0.00000000000E+00 0.  1.
         23    2    1    2    0    0 -0.39949537298E+03  0.83139083429E+03 -0.13020191325E+03  0.93648090457E+03  0.96107616977E+02 0.  0.
        254    2    1    2    0    0  0.39949537298E+03 -0.83139083429E+03  0.22751058128E+03  0.13022064921E+04  0.89060283584E+03 0.  0.
        -24    2    4    4    0    0  0.59594589641E+03 -0.26547905513E+03  0.23158386062E+01  0.65754500313E+03  0.82033090074E+02 0.  0.
         24    2    4    4    0    0 -0.19645052343E+03 -0.56591177916E+03  0.22519474268E+03  0.64466148902E+03  0.77632553377E+02 0.  0.
         11    1    3    3    0    0 -0.27214142631E+03  0.60631699973E+03 -0.53507315533E+02  0.66674154880E+03  0.00000000000E+00 0.  1.
        -11    1    3    3    0    0 -0.12735394667E+03  0.22507383456E+03 -0.76694597712E+02  0.26973935578E+03  0.00000000000E+00 0. -1.
          4    1    6    6  502    0 -0.95890459844E+01 -0.83307042439E+02  0.11026912162E+02  0.84578992159E+02  0.00000000000E+00 0. -1.
          1    1    5    5  503    0  0.94981631225E+02 -0.10923722459E+02  0.12149060724E+01  0.95615448435E+02  0.00000000000E+00 0. -1.
         -2    1    5    5    0  503  0.50096426518E+03 -0.25455533267E+03  0.11009325338E+01  0.56192955469E+03  0.00000000000E+00 0.  1.
         -3    1    6    6    0  502 -0.18686147745E+03 -0.48260473672E+03  0.21416783051E+03  0.56008249686E+03  0.00000000000E+00 0.  1.
<mgrwt>
<rscale>  0 0.22365715E+04</rscale>
<asrwt>0</asrwt>
<pdfrwt beam="1">  1        1 0.17969200E+00 0.22365715E+04</pdfrwt>
<pdfrwt beam="2">  1       -1 0.16472144E+00 0.22365715E+04</pdfrwt>
<totfact> 0.27608708E+00</totfact>
</mgrwt>
</event>
<event>
12    1  0.1755460E-007  0.1974501E+04  0.7818608E-02  0.8618636E-01
          2   -1    0    0  501    0  0.00000000000E+00  0.00000000000E+00  0.15610904630E+04  0.15610904630E+04  0.00000000000E+00 0. -1.
         -2   -1    0    0    0  501 -0.00000000000E+00 -0.00000000000E+00 -0.62434762746E+03  0.62434762746E+03  0.00000000000E+00 0.  1.
         23    2    1    2    0    0 -0.54725976058E+03 -0.15082925634E+03  0.96678900588E+03  0.11244413003E+04  0.86281781998E+02 0.  0.
        254    2    1    2    0    0  0.54725976058E+03  0.15082925634E+03 -0.30046170318E+02  0.10609967901E+04  0.89586199061E+03 0.  0.
        -24    2    4    4    0    0  0.65074912809E+01  0.10236816909E+03 -0.38514534951E+03  0.40736492972E+03  0.84188219037E+02 0.  0.
         24    2    4    4    0    0  0.54075226930E+03  0.48461087249E+02  0.35509917920E+03  0.65363186042E+03  0.79860429294E+02 0.  0.
         13    1    3    3    0    0 -0.56969552926E+02 -0.43351884488E+02  0.13940074919E+03  0.15670827906E+03  0.00000000000E+00 0.  1.
        -13    1    3    3    0    0 -0.49029020765E+03 -0.10747737185E+03  0.82738825669E+03  0.96773302128E+03  0.00000000000E+00 0. -1.
          2    1    6    6  502    0  0.45549048133E+03  0.11133619451E+02  0.29120508854E+03  0.54073647894E+03  0.00000000000E+00 0. -1.
          3    1    5    5  503    0 -0.28867316361E+01  0.11416543886E+03 -0.30217757877E+03  0.32303772189E+03  0.00000000000E+00 0. -1.
         -4    1    5    5    0  503  0.93942229171E+01 -0.11797269771E+02 -0.82967770740E+02  0.84327207827E+02  0.00000000000E+00 0.  1.
         -1    1    6    6    0  502  0.85261787969E+02  0.37327467798E+02  0.63894090660E+02  0.11289538149E+03  0.00000000000E+00 0.  1.
<mgrwt>
<rscale>  0 0.19745006E+04</rscale>
<asrwt>0</asrwt>
<pdfrwt beam="1">  1        2 0.24016776E+00 0.19745006E+04</pdfrwt>
<pdfrwt beam="2">  1       -2 0.96053482E-01 0.19745006E+04</pdfrwt>
<totfact> 0.99161042E+00</totfact>
</mgrwt>
</event>
<event>
12    1  0.1755460E-007  0.2379970E+04  0.7818608E-02  0.8447041E-01
          2   -1    0    0  501    0  0.00000000000E+00  0.00000000000E+00  0.10784416427E+04  0.10784416427E+04  0.00000000000E+00 0.  1.
         -2   -1    0    0    0  501 -0.00000000000E+00 -0.00000000000E+00 -0.13130653003E+04  0.13130653003E+04  0.00000000000E+00 0. -1.
         23    2    1    2    0    0 -0.49229847593E+02  0.98349307841E+03  0.14024656608E+03  0.99882677886E+03  0.91124210347E+02 0.  0.
        254    2    1    2    0    0  0.49229847593E+02 -0.98349307841E+03 -0.37487022373E+03  0.13926801641E+04  0.91068553390E+03 0.  0.
        -24    2    4    4    0    0  0.65914296239E+02 -0.25021235576E+03  0.29202110320E+03  0.39810143736E+03  0.79104439130E+02 0.  0.
         24    2    4    4    0    0 -0.16684448646E+02 -0.73328072265E+03 -0.66689132693E+03  0.99457872674E+03  0.80397840241E+02 0.  0.
         11    1    3    3    0    0 -0.27725616389E+02  0.15083348224E+03  0.48526539046E+02  0.16085482324E+03  0.00000000000E+00 0. -1.
        -11    1    3    3    0    0 -0.21504231205E+02  0.83265959617E+03  0.91720027029E+02  0.83797195562E+03  0.00000000000E+00 0.  1.
          4    1    6    6  502    0 -0.46414401721E+02 -0.56644145347E+03 -0.50851423660E+03  0.76262503612E+03  0.00000000000E+00 0. -1.
          3    1    5    5  503    0  0.50954639002E+01 -0.15297974686E+03  0.13813634305E+03  0.20618054218E+03  0.00000000000E+00 0. -1.
         -4    1    5    5    0  503  0.60818832339E+02 -0.97232608893E+02  0.15388476015E+03  0.19192089517E+03  0.00000000000E+00 0.  1.
         -3    1    6    6    0  502  0.29729953075E+02 -0.16683926918E+03 -0.15837709032E+03  0.23195369062E+03  0.00000000000E+00 0.  1.
<mgrwt>
<rscale>  0 0.23799700E+04</rscale>
<asrwt>0</asrwt>
<pdfrwt beam="1">  1        2 0.16591410E+00 0.23799700E+04</pdfrwt>
<pdfrwt beam="2">  1       -2 0.20201005E+00 0.23799700E+04</pdfrwt>
<totfact> 0.26106567E+00</totfact>
</mgrwt>
</event>
<event>
12    1  0.1755460E-007  0.1132722E+04  0.7818608E-02  0.9173873E-01
         -2   -1    0    0    0  501 -0.00000000000E+00  0.00000000000E+00  0.14533384532E+03  0.14533384532E+03  0.00000000000E+00 0.  1.
          2   -1    0    0  501    0  0.00000000000E+00 -0.00000000000E+00 -0.22070876035E+04  0.22070876035E+04  0.00000000000E+00 0. -1.
         23    2    1    2    0    0 -0.43332134387E+02 -0.46930475483E+02 -0.13598712875E+02  0.11382572606E+03  0.93226753247E+02 0.  0.
        254    2    1    2    0    0  0.43332134387E+02  0.46930475483E+02 -0.20481550453E+04  0.22385957228E+04  0.90127219915E+03 0.  0.
        -24    2    4    4    0    0 -0.20576687669E+03  0.37009839383E+03 -0.64942998333E+03  0.77947115038E+03  0.80642063285E+02 0.  0.
         24    2    4    4    0    0  0.24909901108E+03 -0.32316791834E+03 -0.13987250620E+04  0.14591245724E+04  0.78261727273E+02 0.  0.
         11    1    3    3    0    0  0.19856940623E+02 -0.42637849251E+02 -0.17945363334E+02  0.50342033579E+02  0.00000000000E+00 0. -1.
        -11    1    3    3    0    0 -0.63189075009E+02 -0.42926262318E+01  0.43466504588E+01  0.63483692478E+02  0.00000000000E+00 0.  1.
          4    1    6    6  502    0  0.13269068759E+02 -0.45772528926E+02 -0.10837222976E+03  0.11838806010E+03  0.00000000000E+00 0. -1.
          3    1    5    5  503    0 -0.53799532900E+02  0.79338633811E+02 -0.21213680949E+03  0.23278967867E+03  0.00000000000E+00 0. -1.
         -4    1    5    5    0  503 -0.15196734379E+03  0.29075976002E+03 -0.43729317384E+03  0.54668147171E+03  0.00000000000E+00 0.  1.
         -3    1    6    6    0  502  0.23582994232E+03 -0.27739538942E+03 -0.12903528322E+04  0.13407365123E+04  0.00000000000E+00 0.  1.
<mgrwt>
<rscale>  0 0.11327216E+04</rscale>
<asrwt>0</asrwt>
<pdfrwt beam="1">  1        2 0.33955191E+00 0.11327216E+04</pdfrwt>
<pdfrwt beam="2">  1       -2 0.22359055E-01 0.11327216E+04</pdfrwt>
<totfact> 0.89288232E+01</totfact>
</mgrwt>
</event>
<event>
12    1  0.1755460E-007  0.2105872E+04  0.7818608E-02  0.8558661E-01
          1   -1    0    0  501    0  0.00000000000E+00  0.00000000000E+00  0.32494233523E+04  0.32494233523E+04  0.00000000000E+00 0. -1.
         -1   -1    0    0    0  501 -0.00000000000E+00 -0.00000000000E+00 -0.34119104894E+03  0.34119104894E+03  0.00000000000E+00 0.  1.
         23    2    1    2    0    0  0.82866785976E+03 -0.13987731788E+03  0.90363634508E+03  0.12373496076E+04  0.90660473604E+02 0.  0.
        254    2    1    2    0    0 -0.82866785976E+03  0.13987731788E+03  0.20045959583E+04  0.23532647936E+04  0.90177278022E+03 0.  0.
        -24    2    4    4    0    0 -0.11575776256E+03 -0.33932555556E+03  0.52947926783E+03  0.64440458246E+03  0.79795229057E+02 0.  0.
         24    2    4    4    0    0 -0.71291009720E+03  0.47920287344E+03  0.14751166905E+04  0.17088602112E+04  0.79735627411E+02 0.  0.
         11    1    3    3    0    0  0.82010231188E+03 -0.14149936241E+03  0.87564937982E+03  0.12080363024E+04  0.00000000000E+00 0.  1.
        -11    1    3    3    0    0  0.85655478765E+01  0.16220445273E+01  0.27986965268E+02  0.29313305235E+02  0.00000000000E+00 0. -1.
          2    1    6    6  502    0 -0.57354976447E+02  0.57115623674E+02  0.10697675602E+03  0.13414847788E+03  0.00000000000E+00 0. -1.
          3    1    5    5  503    0 -0.62451610020E+02 -0.94822840256E+02  0.20840711459E+03  0.23732909649E+03  0.00000000000E+00 0. -1.
         -4    1    5    5    0  503 -0.53306152542E+02 -0.24450271531E+03  0.32107215324E+03  0.40707548597E+03  0.00000000000E+00 0.  1.
         -1    1    6    6    0  502 -0.65555512075E+03  0.42208724977E+03  0.13681399345E+04  0.15747117333E+04  0.00000000000E+00 0.  1.
<mgrwt>
<rscale>  0 0.21058719E+04</rscale>
<asrwt>0</asrwt>
<pdfrwt beam="1">  1        1 0.49991126E+00 0.21058719E+04</pdfrwt>
<pdfrwt beam="2">  1       -1 0.52490933E-01 0.21058719E+04</pdfrwt>
<totfact> 0.13144466E+00</totfact>
</mgrwt>
</event>
<event>
12    1  0.1755460E-007  0.1390206E+04  0.7818608E-02  0.8960938E-01
         -2   -1    0    0    0  501 -0.00000000000E+00  0.00000000000E+00  0.13243628612E+03  0.13243628612E+03  0.00000000000E+00 0.  1.
          2   -1    0    0  501    0  0.00000000000E+00 -0.00000000000E+00 -0.36483089865E+04  0.36483089865E+04  0.00000000000E+00 0. -1.
         23    2    1    2    0    0 -0.51641075252E+02 -0.14020265054E+02  0.45722519421E+02  0.10915616911E+03  0.83433518365E+02 0.  0.
        254    2    1    2    0    0  0.51641075252E+02  0.14020265054E+02 -0.35615952198E+04  0.36715891035E+04  0.89036097562E+03 0.  0.
        -24    2    4    4    0    0  0.22758144946E+03  0.25189054821E+03 -0.30857736963E+04  0.31054299934E+04  0.80336631766E+02 0.  0.
         24    2    4    4    0    0 -0.17594037421E+03 -0.23787028315E+03 -0.47582152343E+03  0.56615911011E+03  0.81195621241E+02 0.  0.
         13    1    3    3    0    0 -0.39988332683E+02  0.15407159890E+01  0.68424664630E+02  0.79267744299E+02  0.00000000000E+00 0.  1.
        -13    1    3    3    0    0 -0.11652742569E+02 -0.15560981043E+02 -0.22702145210E+02  0.29888424808E+02  0.00000000000E+00 0. -1.
          4    1    6    6  502    0 -0.62108495087E+02 -0.69326089600E+02 -0.22327287174E+03  0.24189738964E+03  0.00000000000E+00 0. -1.
          3    1    5    5  503    0  0.21099731214E+02  0.13153026978E+01 -0.31246022449E+03  0.31317458480E+03  0.00000000000E+00 0. -1.
         -4    1    5    5    0  503  0.20648171825E+03  0.25057524551E+03 -0.27733134718E+04  0.27922554086E+04  0.00000000000E+00 0.  1.
         -3    1    6    6    0  502 -0.11383187912E+03 -0.16854419355E+03 -0.25254865169E+03  0.32426172046E+03  0.00000000000E+00 0.  1.
<mgrwt>
<rscale>  0 0.13902064E+04</rscale>
<asrwt>0</asrwt>
<pdfrwt beam="1">  1        2 0.56127831E+00 0.13902064E+04</pdfrwt>
<pdfrwt beam="2">  1       -2 0.20374813E-01 0.13902064E+04</pdfrwt>
<totfact> 0.13101038E+01</totfact>
</mgrwt>
</event>
<event>
12    1  0.1804517E-007  0.2092060E+04  0.7818608E-02  0.8564749E-01
         -2   -1    0    0    0  501 -0.00000000000E+00  0.00000000000E+00  0.62283259975E+03  0.62283259975E+03  0.00000000000E+00 0.  1.
          2   -1    0    0  501    0  0.00000000000E+00 -0.00000000000E+00 -0.17567779997E+04  0.17567779997E+04  0.00000000000E+00 0. -1.
         23    2    1    2    0    0  0.24663862564E+03 -0.47183699343E+03 -0.12124480640E+04  0.13274393860E+04  0.92759126436E+02 0.  0.
        254    2    1    2    0    0 -0.24663862564E+03  0.47183699343E+03  0.78502664069E+02  0.10521712135E+04  0.90412434661E+03 0.  0.
        -24    2    4    4    0    0  0.15471296175E+03  0.50029553418E+03  0.27572936832E+03  0.59695305789E+03  0.78067577869E+02 0.  0.
         24    2    4    4    0    0 -0.40135158739E+03 -0.28458540754E+02 -0.19722670425E+03  0.45521815557E+03  0.80201066374E+02 0.  0.
         13    1    3    3    0    0  0.21720399741E+03 -0.35734899399E+03 -0.10075593683E+04  0.10908949356E+04  0.00000000000E+00 0. -1.
        -13    1    3    3    0    0  0.29434628235E+02 -0.11448799944E+03 -0.20488869572E+03  0.23654445035E+03  0.00000000000E+00 0.  1.
          4    1    6    6  502    0 -0.39140819526E+03 -0.41267051452E+02 -0.19353712434E+03  0.43858860376E+03  0.00000000000E+00 0. -1.
          3    1    5    5  503    0  0.78656480319E+02  0.36444540510E+03  0.17817867282E+03  0.41322504116E+03  0.00000000000E+00 0. -1.
         -4    1    5    5    0  503  0.76056481428E+02  0.13585012909E+03  0.97550695493E+02  0.18372801673E+03  0.00000000000E+00 0.  1.
         -3    1    6    6    0  502 -0.99433921318E+01  0.12808510698E+02 -0.36895799065E+01  0.16629551806E+02  0.00000000000E+00 0.  1.
<mgrwt>
<rscale>  0 0.20920599E+04</rscale>
<asrwt>0</asrwt>
<pdfrwt beam="1">  1        2 0.27027353E+00 0.20920599E+04</pdfrwt>
<pdfrwt beam="2">  1       -2 0.95820401E-01 0.20920599E+04</pdfrwt>
<totfact> 0.76812662E+00</totfact>
</mgrwt>
</event>
<event>
12    1  0.1755460E-007  0.1389384E+04  0.7818608E-02  0.8961539E-01
         -1   -1    0    0    0  501 -0.00000000000E+00  0.00000000000E+00  0.32726180080E+03  0.32726180080E+03  0.00000000000E+00 0.  1.
          1   -1    0    0  501    0  0.00000000000E+00 -0.00000000000E+00 -0.14746502077E+04  0.14746502077E+04  0.00000000000E+00 0. -1.
         23    2    1    2    0    0  0.25543646812E+03  0.71761600160E+01  0.56809811025E+02  0.27741104082E+03  0.91816362477E+02 0.  0.
        254    2    1    2    0    0 -0.25543646812E+03 -0.71761600160E+01 -0.12041982180E+04  0.15245009677E+04  0.89928336241E+03 0.  0.
        -24    2    4    4    0    0  0.26798172969E+03 -0.19712575309E+03 -0.27757970578E+03  0.44065631697E+03  0.80341313466E+02 0.  0.
         24    2    4    4    0    0 -0.52341819781E+03  0.18994959307E+03 -0.92661851219E+03  0.10838446508E+04  0.77781116780E+02 0.  0.
         13    1    3    3    0    0  0.41981157989E+02  0.31573127082E+02 -0.76996896215E+01  0.53090161048E+02  0.00000000000E+00 0. -1.
        -13    1    3    3    0    0  0.21345531013E+03 -0.24396967066E+02  0.64509500647E+02  0.22432087977E+03  0.00000000000E+00 0.  1.
          2    1    6    6  502    0 -0.68739927915E+02 -0.14935877607E+01 -0.12116930255E+03  0.13931765278E+03  0.00000000000E+00 0. -1.
          1    1    5    5  503    0  0.54669612564E+02 -0.59031504377E+02 -0.29974737385E+02  0.85860176614E+02  0.00000000000E+00 0. -1.
         -2    1    5    5    0  503  0.21331211712E+03 -0.13809424871E+03 -0.24760496839E+03  0.35479614036E+03  0.00000000000E+00 0.  1.
         -1    1    6    6    0  502 -0.45467826990E+03  0.19144318083E+03 -0.80544920964E+03  0.94452699798E+03  0.00000000000E+00 0.  1.
<mgrwt>
<rscale>  0 0.13893836E+04</rscale>
<asrwt>0</asrwt>
<pdfrwt beam="1">  1        1 0.22686926E+00 0.13893836E+04</pdfrwt>
<pdfrwt beam="2">  1       -1 0.50347970E-01 0.13893836E+04</pdfrwt>
<totfact> 0.26331235E+01</totfact>
</mgrwt>
</event>
<event>
12    1  0.1755460E-007  0.1719648E+04  0.7818608E-02  0.8750237E-01
          1   -1    0    0  501    0  0.00000000000E+00  0.00000000000E+00  0.11380362766E+04  0.11380362766E+04  0.00000000000E+00 0. -1.
         -1   -1    0    0    0  501 -0.00000000000E+00 -0.00000000000E+00 -0.64962559894E+03  0.64962559894E+03  0.00000000000E+00 0.  1.
         23    2    1    2    0    0  0.33671133687E+03 -0.19601771081E+03  0.67899898185E+03  0.78830873851E+03  0.92701577772E+02 0.  0.
        254    2    1    2    0    0 -0.33671133687E+03  0.19601771081E+03 -0.19058830423E+03  0.99935313700E+03  0.90032512094E+03 0.  0.
        -24    2    4    4    0    0 -0.14518854615E+03 -0.28822383435E+03 -0.31523514556E+03  0.45786608004E+03  0.78201391540E+02 0.  0.
         24    2    4    4    0    0 -0.19152279072E+03  0.48424154516E+03  0.12464684133E+03  0.54148705695E+03  0.80625953427E+02 0.  0.
         13    1    3    3    0    0  0.27136542113E+03 -0.11354957171E+03  0.52502628960E+03  0.60181832956E+03  0.00000000000E+00 0. -1.
        -13    1    3    3    0    0  0.65345915738E+02 -0.82468139098E+02  0.15397269225E+03  0.18649040894E+03  0.00000000000E+00 0.  1.
          2    1    6    6  502    0 -0.53562193392E+01  0.37558603437E+01 -0.70658920204E+01  0.96292472486E+01  0.00000000000E+00 0. -1.
          1    1    5    5  503    0 -0.19666316001E+02 -0.85651940327E+02 -0.49252094468E+02  0.10074119156E+03  0.00000000000E+00 0. -1.
         -2    1    5    5    0  503 -0.12552223014E+03 -0.20257189403E+03 -0.26598305109E+03  0.35712488849E+03  0.00000000000E+00 0.  1.
         -3    1    6    6    0  502 -0.18616657138E+03  0.48048568482E+03  0.13171273335E+03  0.53185780971E+03  0.00000000000E+00 0.  1.
<mgrwt>
<rscale>  0 0.17196482E+04</rscale>
<asrwt>0</asrwt>
<pdfrwt beam="1">  1        1 0.17508250E+00 0.17196482E+04</pdfrwt>
<pdfrwt beam="2">  1       -1 0.99942400E-01 0.17196482E+04</pdfrwt>
<totfact> 0.10767060E+01</totfact>
</mgrwt>
</event>
<event>
12    1  0.1755460E-007  0.1063300E+04  0.7818608E-02  0.9241719E-01
         -3   -1    0    0    0  501 -0.00000000000E+00  0.00000000000E+00  0.37710764742E+03  0.37710764742E+03  0.00000000000E+00 0.  1.
          3   -1    0    0  501    0  0.00000000000E+00 -0.00000000000E+00 -0.74952587738E+03  0.74952587738E+03  0.00000000000E+00 0. -1.
         23    2    1    2    0    0  0.53265055344E+02  0.82407549720E+02 -0.12157756550E+03  0.18439959511E+03  0.97948638949E+02 0.  0.
        254    2    1    2    0    0 -0.53265055344E+02 -0.82407549720E+02 -0.25084066445E+03  0.94223392969E+03  0.90291503971E+03 0.  0.
        -24    2    4    4    0    0  0.13999474767E+02 -0.31304322033E+03  0.23158534096E+03  0.39750383943E+03  0.78647880610E+02 0.  0.
         24    2    4    4    0    0 -0.67264530111E+02  0.23063567061E+03 -0.48242600541E+03  0.54473009026E+03  0.79238191310E+02 0.  0.
         11    1    3    3    0    0  0.21344423299E+02  0.84041164938E+02 -0.37535811841E+02  0.94485125711E+02  0.00000000000E+00 0.  1.
        -11    1    3    3    0    0  0.31920632045E+02 -0.16336152183E+01 -0.84041753663E+02  0.89914469401E+02  0.00000000000E+00 0. -1.
          2    1    6    6  502    0 -0.60980092245E+02  0.23148855399E+03 -0.48223764987E+03  0.53838524612E+03  0.00000000000E+00 0. -1.
          3    1    5    5  503    0  0.10734844558E+02 -0.31597149067E+03  0.23317333092E+03  0.39283969002E+03  0.00000000000E+00 0. -1.
         -4    1    5    5    0  503  0.32646302087E+01  0.29282703404E+01 -0.15879899585E+01  0.46641494074E+01  0.00000000000E+00 0.  1.
         -1    1    6    6    0  502 -0.62844378661E+01 -0.85288337936E+00 -0.18835553862E+00  0.63448441400E+01  0.00000000000E+00 0.  1.
<mgrwt>
<rscale>  0 0.10633004E+04</rscale>
<asrwt>0</asrwt>
<pdfrwt beam="1">  1        3 0.11531167E+00 0.10633004E+04</pdfrwt>
<pdfrwt beam="2">  1       -3 0.58016561E-01 0.10633004E+04</pdfrwt>
<totfact> 0.47421586E+00</totfact>
</mgrwt>
</event>
<event>
12    1  0.1960727E-007  0.2082293E+04  0.7818608E-02  0.8569084E-01
          2   -1    0    0  501    0  0.00000000000E+00  0.00000000000E+00  0.13541670302E+04  0.13541670302E+04  0.00000000000E+00 0. -1.
         -2   -1    0    0    0  501 -0.00000000000E+00 -0.00000000000E+00 -0.80048203571E+03  0.80048203571E+03  0.00000000000E+00 0.  1.
         23    2    1    2    0    0 -0.46395821069E+03 -0.19383033029E+03 -0.46808158760E+03  0.69301574823E+03  0.91340223583E+02 0.  0.
        254    2    1    2    0    0  0.46395821069E+03  0.19383033029E+03  0.10217665821E+04  0.14616333176E+04  0.91626283828E+03 0.  0.
        -24    2    4    4    0    0 -0.10888803452E+03 -0.27128598454E+03  0.28730536194E+03  0.41752873908E+03  0.79581326242E+02 0.  0.
         24    2    4    4    0    0  0.57284624521E+03  0.46511631483E+03  0.73446122011E+03  0.10441045786E+04  0.78962523731E+02 0.  0.
         13    1    3    3    0    0 -0.36192683874E+03 -0.11703730846E+03 -0.31667522430E+03  0.49494642726E+03  0.00000000000E+00 0.  1.
        -13    1    3    3    0    0 -0.10203137195E+03 -0.76793021831E+02 -0.15140636330E+03  0.19806932098E+03  0.00000000000E+00 0. -1.
          4    1    6    6  502    0  0.71253454235E+02  0.38293930465E+02  0.54942703071E+02  0.97786402284E+02  0.00000000000E+00 0. -1.
          1    1    5    5  503    0 -0.19221241279E+01  0.46816386657E+01  0.13157945021E+02  0.14097652958E+02  0.00000000000E+00 0. -1.
         -2    1    5    5    0  503 -0.10696591039E+03 -0.27596762320E+03  0.27414741692E+03  0.40343108612E+03  0.00000000000E+00 0.  1.
         -1    1    6    6    0  502  0.50159279097E+03  0.42682238436E+03  0.67951851704E+03  0.94631817628E+03  0.00000000000E+00 0.  1.
<mgrwt>
<rscale>  0 0.20822933E+04</rscale>
<asrwt>0</asrwt>
<pdfrwt beam="1">  1        2 0.20833339E+00 0.20822933E+04</pdfrwt>
<pdfrwt beam="2">  1       -2 0.12315108E+00 0.20822933E+04</pdfrwt>
<totfact> 0.70644720E+00</totfact>
</mgrwt>
</event>
<event>
12    1  0.1755460E-007  0.1756277E+04  0.7818608E-02  0.8729903E-01
         -2   -1    0    0    0  501 -0.00000000000E+00  0.00000000000E+00  0.71781287061E+03  0.71781287061E+03  0.00000000000E+00 0.  1.
          2   -1    0    0  501    0  0.00000000000E+00 -0.00000000000E+00 -0.10742729804E+04  0.10742729804E+04  0.00000000000E+00 0. -1.
         23    2    1    2    0    0  0.25759535117E+02 -0.10439341812E+03  0.51038280367E+03  0.52937943401E+03  0.90501046819E+02 0.  0.
        254    2    1    2    0    0 -0.25759535117E+02  0.10439341812E+03 -0.86684291347E+03  0.12627064170E+04  0.91183842843E+03 0.  0.
        -24    2    4    4    0    0 -0.87812729349E+02  0.10338303616E+03 -0.10451934478E+04  0.10570626345E+04  0.80950245785E+02 0.  0.
         24    2    4    4    0    0  0.62053194232E+02  0.10103819672E+01  0.17835053433E+03  0.20564378254E+03  0.81417641919E+02 0.  0.
         11    1    3    3    0    0  0.46432843081E+02 -0.10397831718E+03  0.47442584312E+03  0.48790099403E+03  0.00000000000E+00 0.  1.
        -11    1    3    3    0    0 -0.20673307964E+02 -0.41510094739E+00  0.35956960551E+02  0.41478439978E+02  0.00000000000E+00 0. -1.
          2    1    6    6  502    0  0.57165215384E+02  0.18945674563E+02  0.57142315945E+02  0.83018339577E+02  0.00000000000E+00 0. -1.
          1    1    5    5  503    0 -0.94121198413E+02  0.98264332212E+02 -0.10355591246E+04  0.10444603293E+04  0.00000000000E+00 0. -1.
         -2    1    5    5    0  503  0.63084690641E+01  0.51187039442E+01 -0.96343232130E+01  0.12602305177E+02  0.00000000000E+00 0.  1.
         -1    1    6    6    0  502  0.48879788472E+01 -0.17935292596E+02  0.12120821839E+03  0.12262544296E+03  0.00000000000E+00 0.  1.
<mgrwt>
<rscale>  0 0.17562767E+04</rscale>
<asrwt>0</asrwt>
<pdfrwt beam="1">  1        2 0.16527276E+00 0.17562767E+04</pdfrwt>
<pdfrwt beam="2">  1       -2 0.11043275E+00 0.17562767E+04</pdfrwt>
<totfact> 0.13937153E+01</totfact>
</mgrwt>
</event>
<event>
12    1  0.1755460E-007  0.1871221E+04  0.7818608E-02  0.8669316E-01
         -1   -1    0    0    0  501 -0.00000000000E+00  0.00000000000E+00  0.19193298849E+04  0.19193298849E+04  0.00000000000E+00 0.  1.
          1   -1    0    0  501    0  0.00000000000E+00 -0.00000000000E+00 -0.45607934833E+03  0.45607934833E+03  0.00000000000E+00 0. -1.
         23    2    1    2    0    0  0.37661849432E+03 -0.33875037087E+02 -0.20882702366E+03  0.44153269337E+03  0.91396855019E+02 0.  0.
        254    2    1    2    0    0 -0.37661849432E+03  0.33875037087E+02  0.16720775603E+04  0.19338765399E+04  0.89501178518E+03 0.  0.
        -24    2    4    4    0    0 -0.12361693966E+02 -0.24738566037E+03  0.13293425304E+04  0.13551902942E+04  0.89647608689E+02 0.  0.
         24    2    4    4    0    0 -0.36425680035E+03  0.28126069746E+03  0.34273502982E+03  0.57868624572E+03  0.74965817421E+02 0.  0.
         13    1    3    3    0    0  0.24440526585E+03 -0.28272475920E+02 -0.18318111628E+03  0.30673863178E+03  0.00000000000E+00 0. -1.
        -13    1    3    3    0    0  0.13221322847E+03 -0.56025611669E+01 -0.25645907384E+02  0.13479406159E+03  0.00000000000E+00 0.  1.
          4    1    6    6  502    0 -0.34208502986E+03  0.27497333056E+03  0.30499672742E+03  0.53446749565E+03  0.00000000000E+00 0. -1.
          1    1    5    5  503    0 -0.36655300008E+02 -0.12660217022E+03  0.85547629397E+03  0.86556999143E+03  0.00000000000E+00 0. -1.
         -2    1    5    5    0  503  0.24293606042E+02 -0.12078349015E+03  0.47386623646E+03  0.48962030273E+03  0.00000000000E+00 0.  1.
         -3    1    6    6    0  502 -0.22171770494E+02  0.62873668976E+01  0.37738302402E+02  0.44218750067E+02  0.00000000000E+00 0.  1.
<mgrwt>
<rscale>  0 0.18712207E+04</rscale>
<asrwt>0</asrwt>
<pdfrwt beam="1">  1        1 0.70166054E-01 0.18712207E+04</pdfrwt>
<pdfrwt beam="2">  1       -1 0.29528152E+00 0.18712207E+04</pdfrwt>
<totfact> 0.16724155E+00</totfact>
</mgrwt>
</event>
<event>
12    1  0.1755460E-007  0.1758152E+04  0.7818608E-02  0.8728876E-01
         -1   -1    0    0    0  501 -0.00000000000E+00  0.00000000000E+00  0.52539988140E+03  0.52539988140E+03  0.00000000000E+00 0.  1.
          1   -1    0    0  501    0  0.00000000000E+00 -0.00000000000E+00 -0.14708317250E+04  0.14708317250E+04  0.00000000000E+00 0. -1.
         23    2    1    2    0    0  0.38848841358E+03  0.14179877967E+03 -0.90930703804E+03  0.10030621663E+04  0.90908078229E+02 0.  0.
        254    2    1    2    0    0 -0.38848841358E+03 -0.14179877967E+03 -0.36124805572E+02  0.99316944008E+03  0.90224741270E+03 0.  0.
        -24    2    4    4    0    0 -0.15359454713E+03 -0.37129927619E+03 -0.34560272885E+03  0.53483546934E+03  0.71786458813E+02 0.  0.
         24    2    4    4    0    0 -0.23489386645E+03  0.22950049652E+03  0.30947792328E+03  0.45833397074E+03  0.80298426708E+02 0.  0.
         13    1    3    3    0    0  0.36390353354E+03  0.13295587360E+03 -0.77740537843E+03  0.86859781744E+03  0.00000000000E+00 0. -1.
        -13    1    3    3    0    0  0.24584880043E+02  0.88429060684E+01 -0.13190165961E+03  0.13446434889E+03  0.00000000000E+00 0.  1.
          4    1    6    6  502    0 -0.15181693804E+03  0.93442333475E+02  0.17431232342E+03  0.24932837476E+03  0.00000000000E+00 0. -1.
          1    1    5    5  503    0 -0.15744936125E+03 -0.36233067109E+03 -0.34586791270E+03  0.52506992830E+03  0.00000000000E+00 0. -1.
         -2    1    5    5    0  503  0.38548141190E+01 -0.89686051031E+01  0.26518384860E+00  0.97655410430E+01  0.00000000000E+00 0.  1.
         -3    1    6    6    0  502 -0.83076928410E+02  0.13605816305E+03  0.13516559986E+03  0.20900559598E+03  0.00000000000E+00 0.  1.
<mgrwt>
<rscale>  0 0.17581522E+04</rscale>
<asrwt>0</asrwt>
<pdfrwt beam="1">  1        1 0.22628180E+00 0.17581522E+04</pdfrwt>
<pdfrwt beam="2">  1       -1 0.80830753E-01 0.17581522E+04</pdfrwt>
<totfact> 0.99036780E+00</totfact>
</mgrwt>
</event>
<event>
12    1  0.1755460E-007  0.1215971E+04  0.7818608E-02  0.9098991E-01
          1   -1    0    0  501    0  0.00000000000E+00  0.00000000000E+00  0.14552243826E+04  0.14552243826E+04  0.00000000000E+00 0. -1.
         -1   -1    0    0    0  501 -0.00000000000E+00 -0.00000000000E+00 -0.25401336483E+03  0.25401336483E+03  0.00000000000E+00 0.  1.
         23    2    1    2    0    0 -0.26480496931E+02  0.20208117967E+03  0.46995434533E+03  0.52010606984E+03  0.90084500837E+02 0.  0.
        254    2    1    2    0    0  0.26480496931E+02 -0.20208117967E+03  0.73125667248E+03  0.11891316776E+04  0.91529219696E+03 0.  0.
        -24    2    4    4    0    0  0.39367398815E+03 -0.21769918562E+03  0.12215701704E+03  0.47321522313E+03  0.81474942301E+02 0.  0.
         24    2    4    4    0    0 -0.36719349122E+03  0.15618005946E+02  0.60909965544E+03  0.71591645451E+03  0.80367888394E+02 0.  0.
         13    1    3    3    0    0 -0.30281683112E+02  0.12826648075E+03  0.38786639247E+03  0.40964571134E+03  0.00000000000E+00 0. -1.
        -13    1    3    3    0    0  0.38011861814E+01  0.73814698925E+02  0.82087952868E+02  0.11046035850E+03  0.00000000000E+00 0.  1.
          2    1    6    6  502    0 -0.34465417482E+02  0.17585876934E+02  0.34049726918E+02  0.51541361768E+02  0.00000000000E+00 0. -1.
          1    1    5    5  503    0  0.26503843948E+01 -0.14059127898E+02  0.12285966718E+02  0.18858117427E+02  0.00000000000E+00 0. -1.
         -2    1    5    5    0  503  0.39102360375E+03 -0.20364005772E+03  0.10987105032E+03  0.45435710570E+03  0.00000000000E+00 0.  1.
         -1    1    6    6    0  502 -0.33272807374E+03 -0.19678709876E+01  0.57504992852E+03  0.66437509275E+03  0.00000000000E+00 0.  1.
<mgrwt>
<rscale>  0 0.12159711E+04</rscale>
<asrwt>0</asrwt>
<pdfrwt beam="1">  1        1 0.22388067E+00 0.12159711E+04</pdfrwt>
<pdfrwt beam="2">  1       -1 0.39078980E-01 0.12159711E+04</pdfrwt>
<totfact> 0.44150147E+01</totfact>
</mgrwt>
</event>
<event>
12    1  0.1755460E-007  0.1011977E+04  0.7818608E-02  0.9295506E-01
          1   -1    0    0  501    0  0.00000000000E+00  0.00000000000E+00  0.14739699654E+03  0.14739699654E+03  0.00000000000E+00 0. -1.
         -1   -1    0    0    0  501 -0.00000000000E+00 -0.00000000000E+00 -0.17369705023E+04  0.17369705023E+04  0.00000000000E+00 0.  1.
         23    2    1    2    0    0  0.30171395606E+02  0.50107681069E+02 -0.14621187305E+03  0.18362462074E+03  0.94440440008E+02 0.  0.
        254    2    1    2    0    0 -0.30171395606E+02 -0.50107681069E+02 -0.14433616327E+04  0.17007428781E+04  0.89767056420E+03 0.  0.
        -24    2    4    4    0    0  0.54241661774E+02  0.24648562316E+03 -0.13406626972E+04  0.13662274535E+04  0.74186703492E+02 0.  0.
         24    2    4    4    0    0 -0.84413057381E+02 -0.29659330423E+03 -0.10269893558E+03  0.33451542458E+03  0.79122345423E+02 0.  0.
         13    1    3    3    0    0  0.57119601048E+02  0.23430972051E+02 -0.47551332136E+02  0.77928098033E+02  0.00000000000E+00 0.  1.
        -13    1    3    3    0    0 -0.26948205442E+02  0.26676709017E+02 -0.98660540909E+02  0.10569652271E+03  0.00000000000E+00 0. -1.
          2    1    6    6  502    0 -0.59327542085E+02 -0.26875852749E+03 -0.10989921580E+03  0.29635914189E+03  0.00000000000E+00 0. -1.
          3    1    5    5  503    0  0.57423915792E+02  0.20993298530E+03 -0.12427819385E+04  0.12616958077E+04  0.00000000000E+00 0. -1.
         -4    1    5    5    0  503 -0.31822540174E+01  0.36552637853E+02 -0.97880758672E+02  0.10453164589E+03  0.00000000000E+00 0.  1.
         -1    1    6    6    0  502 -0.25085515295E+02 -0.27834776740E+02  0.72002802198E+01  0.38156282694E+02  0.00000000000E+00 0.  1.
<mgrwt>
<rscale>  0 0.10119767E+04</rscale>
<asrwt>0</asrwt>
<pdfrwt beam="1">  1        1 0.22676459E-01 0.10119767E+04</pdfrwt>
<pdfrwt beam="2">  1       -1 0.26722625E+00 0.10119767E+04</pdfrwt>
<totfact> 0.12081002E+01</totfact>
</mgrwt>
</event>
<event>
12    1  0.1755460E-007  0.2210473E+04  0.7818608E-02  0.8514082E-01
         -2   -1    0    0    0  501 -0.00000000000E+00  0.00000000000E+00  0.11754774769E+04  0.11754774769E+04  0.00000000000E+00 0. -1.
          2   -1    0    0  501    0  0.00000000000E+00 -0.00000000000E+00 -0.10391928890E+04  0.10391928890E+04  0.00000000000E+00 0.  1.
         23    2    1    2    0    0  0.28927505848E+03 -0.56309196412E+03 -0.58214719217E+03  0.86621963827E+03  0.10338514813E+03 0.  0.
        254    2    1    2    0    0 -0.28927505848E+03  0.56309196412E+03  0.71843178002E+03  0.13484507276E+04  0.94943273735E+03 0.  0.
        -24    2    4    4    0    0 -0.34251621697E+03  0.35718369399E+03 -0.89551869682E+02  0.50923168704E+03  0.79998897339E+02 0.  0.
         24    2    4    4    0    0  0.53241158497E+02  0.20590827012E+03  0.80798364970E+03  0.83921904057E+03  0.78855457729E+02 0.  0.
         11    1    3    3    0    0  0.28725876422E+03 -0.54368479703E+03 -0.58206823497E+03  0.84670785180E+03  0.00000000000E+00 0.  1.
        -11    1    3    3    0    0  0.20162942590E+01 -0.19407167086E+02 -0.78957204104E-01  0.19511786465E+02  0.00000000000E+00 0. -1.
          2    1    6    6  502    0  0.43215032448E+02  0.34959792922E+02  0.19715345129E+03  0.20483947253E+03  0.00000000000E+00 0. -1.
          1    1    5    5  503    0 -0.15560814138E+03  0.19915848770E+03 -0.14210834947E+02  0.25314016812E+03  0.00000000000E+00 0. -1.
         -2    1    5    5    0  503 -0.18690807559E+03  0.15802520629E+03 -0.75341034735E+02  0.25609151892E+03  0.00000000000E+00 0.  1.
         -1    1    6    6    0  502  0.10026126050E+02  0.17094847720E+03  0.61083019841E+03  0.63437956804E+03  0.00000000000E+00 0.  1.
<mgrwt>
<rscale>  0 0.22104731E+04</rscale>
<asrwt>0</asrwt>
<pdfrwt beam="1">  1        2 0.15987583E+00 0.22104731E+04</pdfrwt>
<pdfrwt beam="2">  1       -2 0.18084269E+00 0.22104731E+04</pdfrwt>
<totfact> 0.38847357E+00</totfact>
</mgrwt>
</event>
<event>
12    1  0.1755460E-007  0.1535215E+04  0.7818608E-02  0.8861367E-01
          1   -1    0    0  501    0  0.00000000000E+00  0.00000000000E+00  0.54498559737E+03  0.54498559737E+03  0.00000000000E+00 0. -1.
         -1   -1    0    0    0  501 -0.00000000000E+00 -0.00000000000E+00 -0.10811686724E+04  0.10811686724E+04  0.00000000000E+00 0.  1.
         23    2    1    2    0    0 -0.27132787119E+03 -0.39954391170E+03 -0.14632204539E+02  0.49203785851E+03  0.92913948012E+02 0.  0.
        254    2    1    2    0    0  0.27132787119E+03  0.39954391170E+03 -0.52155087048E+03  0.11341164112E+04  0.88371407859E+03 0.  0.
        -24    2    4    4    0    0  0.19324898707E+03  0.36990068816E+03 -0.75945269563E+03  0.87023696187E+03  0.79826579431E+02 0.  0.
         24    2    4    4    0    0  0.78078884123E+02  0.29643223535E+02  0.23790182516E+03  0.26387944938E+03  0.77846339312E+02 0.  0.
         11    1    3    3    0    0 -0.20292807277E+03 -0.21987265945E+03 -0.18147831512E+02  0.29975512153E+03  0.00000000000E+00 0. -1.
        -11    1    3    3    0    0 -0.68399798418E+02 -0.17967125225E+03  0.35156269735E+01  0.19228273698E+03  0.00000000000E+00 0.  1.
          4    1    6    6  502    0  0.36077156272E+01 -0.17193408408E+02  0.11529941981E+02  0.21013530565E+02  0.00000000000E+00 0. -1.
          1    1    5    5  503    0  0.49758595091E+01  0.53267378619E+02 -0.65525354681E+02  0.84591636164E+02  0.00000000000E+00 0. -1.
         -2    1    5    5    0  503  0.18827312756E+03  0.31663330954E+03 -0.69392734095E+03  0.78564532570E+03  0.00000000000E+00 0.  1.
         -3    1    6    6    0  502  0.74471168495E+02  0.46836631943E+02  0.22637188317E+03  0.24286591881E+03  0.00000000000E+00 0.  1.
<mgrwt>
<rscale>  0 0.15352151E+04</rscale>
<asrwt>0</asrwt>
<pdfrwt beam="1">  1        1 0.83843940E-01 0.15352151E+04</pdfrwt>
<pdfrwt beam="2">  1       -1 0.16633364E+00 0.15352151E+04</pdfrwt>
<totfact> 0.99276101E+00</totfact>
</mgrwt>
</event>
<event>
12    1  0.1755460E-007  0.3948747E+04  0.7818608E-02  0.8014966E-01
          2   -1    0    0  501    0  0.00000000000E+00  0.00000000000E+00  0.19506901446E+04  0.19506901446E+04  0.00000000000E+00 0. -1.
         -2   -1    0    0    0  501 -0.00000000000E+00 -0.00000000000E+00 -0.19983446591E+04  0.19983446591E+04  0.00000000000E+00 0.  1.
         23    2    1    2    0    0  0.42634383103E+03  0.16532925174E+04 -0.78611777262E+03  0.18820588642E+04  0.94969498275E+02 0.  0.
        254    2    1    2    0    0 -0.42634383103E+03 -0.16532925174E+04  0.73846325806E+03  0.20669759395E+04  0.90106400482E+03 0.  0.
        -24    2    4    4    0    0 -0.13216970608E+03 -0.16152141984E+04  0.64536850537E+03  0.17462034794E+04  0.79626288669E+02 0.  0.
         24    2    4    4    0    0 -0.29417412495E+03 -0.38078318992E+02  0.93094752688E+02  0.32077246013E+03  0.78993442952E+02 0.  0.
         11    1    3    3    0    0  0.28236282706E+03  0.11413389833E+04 -0.58756450733E+03  0.13143878770E+04  0.00000000000E+00 0.  1.
        -11    1    3    3    0    0  0.14398100397E+03  0.51195353411E+03 -0.19855326529E+03  0.56767098724E+03  0.00000000000E+00 0. -1.
          2    1    6    6  502    0 -0.10693885388E+03  0.18619917445E+02  0.12784916851E+02  0.10929809648E+03  0.00000000000E+00 0. -1.
          1    1    5    5  503    0 -0.19058850858E+01 -0.18759081902E+03  0.98451928918E+02  0.21186488640E+03  0.00000000000E+00 0. -1.
         -2    1    5    5    0  503 -0.13026382099E+03 -0.14276233793E+04  0.54691657645E+03  0.15343385930E+04  0.00000000000E+00 0.  1.
         -1    1    6    6    0  502 -0.18723527107E+03 -0.56698236437E+02  0.80309835837E+02  0.21147436365E+03  0.00000000000E+00 0.  1.
<mgrwt>
<rscale>  0 0.39487473E+04</rscale>
<asrwt>0</asrwt>
<pdfrwt beam="1">  1        2 0.30010618E+00 0.39487473E+04</pdfrwt>
<pdfrwt beam="2">  1       -2 0.30743764E+00 0.39487473E+04</pdfrwt>
<totfact> 0.16131121E-01</totfact>
</mgrwt>
</event>
<event>
12    1  0.1755460E-007  0.2844702E+04  0.7818608E-02  0.8289523E-01
         -1   -1    0    0    0  501 -0.00000000000E+00  0.00000000000E+00  0.79377971817E+03  0.79377971817E+03  0.00000000000E+00 0.  1.
          1   -1    0    0  501    0  0.00000000000E+00 -0.00000000000E+00 -0.25486695581E+04  0.25486695581E+04  0.00000000000E+00 0. -1.
         23    2    1    2    0    0  0.13090469519E+03  0.12658003415E+04 -0.86077883698E+03  0.15388803730E+04  0.88464979173E+02 0.  0.
        254    2    1    2    0    0 -0.13090469519E+03 -0.12658003415E+04 -0.89411100299E+03  0.18035689033E+04  0.91325777277E+03 0.  0.
        -24    2    4    4    0    0 -0.42096564855E+03 -0.11769914172E+04 -0.69201229864E+03  0.14313412140E+04  0.85649145488E+02 0.  0.
         24    2    4    4    0    0  0.29006095336E+03 -0.88808924304E+02 -0.20209870435E+03  0.37222768927E+03  0.75413424910E+02 0.  0.
         11    1    3    3    0    0  0.78181214897E+02  0.81088351834E+03 -0.49967031824E+03  0.95567505440E+03  0.00000000000E+00 0.  1.
        -11    1    3    3    0    0  0.52723480292E+02  0.45491682315E+03 -0.36110851874E+03  0.58320531862E+03  0.00000000000E+00 0. -1.
          4    1    6    6  502    0  0.24770573653E+03 -0.89758035230E+02 -0.19817882990E+03  0.32968088422E+03  0.00000000000E+00 0. -1.
          1    1    5    5  503    0 -0.32710812413E+03 -0.84031347404E+03 -0.46496213143E+03  0.10145522378E+04  0.00000000000E+00 0. -1.
         -2    1    5    5    0  503 -0.93857524416E+02 -0.33667794314E+03 -0.22705016721E+03  0.41678897624E+03  0.00000000000E+00 0.  1.
         -3    1    6    6    0  502  0.42355216824E+02  0.94911092600E+00 -0.39198744507E+01  0.42546805044E+02  0.00000000000E+00 0.  1.
<mgrwt>
<rscale>  0 0.28447019E+04</rscale>
<asrwt>0</asrwt>
<pdfrwt beam="1">  1        1 0.39210301E+00 0.28447019E+04</pdfrwt>
<pdfrwt beam="2">  1       -1 0.12211996E+00 0.28447019E+04</pdfrwt>
<totfact> 0.64053450E-01</totfact>
</mgrwt>
</event>
<event>
12    1  0.1755460E-007  0.2364558E+04  0.7818608E-02  0.8452893E-01
         -1   -1    0    0    0  501 -0.00000000000E+00  0.00000000000E+00  0.59266756541E+03  0.59266756541E+03  0.00000000000E+00 0.  1.
          1   -1    0    0  501    0  0.00000000000E+00 -0.00000000000E+00 -0.23584605712E+04  0.23584605712E+04  0.00000000000E+00 0. -1.
         23    2    1    2    0    0 -0.82775605645E+03  0.25523081812E+03 -0.10900775045E+03  0.87764303672E+03  0.89731548142E+02 0.  0.
        254    2    1    2    0    0  0.82775605645E+03 -0.25523081812E+03 -0.16567852553E+04  0.20734850998E+04  0.89670520104E+03 0.  0.
        -24    2    4    4    0    0  0.65491327169E+03 -0.57392983152E+03 -0.11398827909E+04  0.14370495722E+04  0.86439869314E+02 0.  0.
         24    2    4    4    0    0  0.17284278476E+03  0.31869901340E+03 -0.51690246437E+03  0.63643552762E+03  0.80114504055E+02 0.  0.
         11    1    3    3    0    0 -0.43519901659E+02  0.23705715239E+02 -0.25383435737E+02  0.55679992683E+02  0.00000000000E+00 0. -1.
        -11    1    3    3    0    0 -0.78423615479E+03  0.23152510288E+03 -0.83624314709E+02  0.82196304403E+03  0.00000000000E+00 0.  1.
          4    1    6    6  502    0  0.14687008228E+03  0.19077061319E+03 -0.33423443374E+03  0.41191856552E+03  0.00000000000E+00 0. -1.
          1    1    5    5  503    0  0.22756634090E+03 -0.25199690089E+03 -0.41884846406E+03  0.53918727119E+03  0.00000000000E+00 0. -1.
         -2    1    5    5    0  503  0.42734693079E+03 -0.32193293063E+03 -0.72103432687E+03  0.89786230103E+03  0.00000000000E+00 0.  1.
         -3    1    6    6    0  502  0.25972702479E+02  0.12792840022E+03 -0.18266803063E+03  0.22451696210E+03  0.00000000000E+00 0.  1.
<mgrwt>
<rscale>  0 0.23645575E+04</rscale>
<asrwt>0</asrwt>
<pdfrwt beam="1">  1        1 0.36284009E+00 0.23645575E+04</pdfrwt>
<pdfrwt beam="2">  1       -1 0.91179626E-01 0.23645575E+04</pdfrwt>
<totfact> 0.17896211E+00</totfact>
</mgrwt>
</event>
<event>
12    1  0.1755460E-007  0.1444869E+04  0.7818608E-02  0.8921965E-01
         -2   -1    0    0    0  501 -0.00000000000E+00  0.00000000000E+00  0.25732066639E+03  0.25732066639E+03  0.00000000000E+00 0.  1.
          2   -1    0    0  501    0  0.00000000000E+00 -0.00000000000E+00 -0.20282537662E+04  0.20282537662E+04  0.00000000000E+00 0. -1.
         23    2    1    2    0    0  0.22530440425E+03  0.30874938726E+03 -0.93895279211E+03  0.10179679100E+04  0.92401630724E+02 0.  0.
        254    2    1    2    0    0 -0.22530440425E+03 -0.30874938726E+03 -0.83198030767E+03  0.12676065225E+04  0.87666801291E+03 0.  0.
        -24    2    4    4    0    0 -0.47401164634E+03 -0.45025331946E+03 -0.57552763181E+03  0.87511634505E+03  0.84743553424E+02 0.  0.
         24    2    4    4    0    0  0.24870724209E+03  0.14150393219E+03 -0.25645267586E+03  0.39249017746E+03  0.80011932578E+02 0.  0.
         11    1    3    3    0    0  0.15291611252E+03  0.26560204863E+03 -0.68603598864E+03  0.75138083780E+03  0.00000000000E+00 0.  1.
        -11    1    3    3    0    0  0.72388291730E+02  0.43147338636E+02 -0.25291680347E+03  0.26658707225E+03  0.00000000000E+00 0. -1.
          2    1    6    6  502    0  0.18315214358E+02  0.14704562306E+02 -0.59397838873E+02  0.63873112437E+02  0.00000000000E+00 0. -1.
          3    1    5    5  503    0 -0.24543199888E+03 -0.20320341218E+03 -0.23169338672E+03  0.39396740759E+03  0.00000000000E+00 0. -1.
         -4    1    5    5    0  503 -0.22857964747E+03 -0.24704990728E+03 -0.34383424510E+03  0.48114893747E+03  0.00000000000E+00 0.  1.
         -1    1    6    6    0  502  0.23039202773E+03  0.12679936989E+03 -0.19705483699E+03  0.32861706503E+03  0.00000000000E+00 0.  1.
<mgrwt>
<rscale>  0 0.14448690E+04</rscale>
<asrwt>0</asrwt>
<pdfrwt beam="1">  1        2 0.31203903E+00 0.14448690E+04</pdfrwt>
<pdfrwt beam="2">  1       -2 0.39587796E-01 0.14448690E+04</pdfrwt>
<totfact> 0.37750967E+01</totfact>
</mgrwt>
</event>
<event>
12    1  0.1755460E-007  0.1224855E+04  0.7818608E-02  0.9091375E-01
          1   -1    0    0  501    0  0.00000000000E+00  0.00000000000E+00  0.10955412777E+04  0.10955412777E+04  0.00000000000E+00 0. -1.
         -1   -1    0    0    0  501 -0.00000000000E+00 -0.00000000000E+00 -0.34235827446E+03  0.34235827446E+03  0.00000000000E+00 0.  1.
         23    2    1    2    0    0 -0.33541278388E+03  0.19630390211E+03  0.21407701588E+03  0.45337715153E+03  0.93192892566E+02 0.  0.
        254    2    1    2    0    0  0.33541278388E+03 -0.19630390211E+03  0.53910598733E+03  0.98452240061E+03  0.72636914455E+03 0.  0.
        -24    2    4    4    0    0 -0.16750016358E+03  0.12182613754E+03  0.12344875476E+03  0.25410200435E+03  0.80189282161E+02 0.  0.
         24    2    4    4    0    0  0.50291294747E+03 -0.31813003965E+03  0.41565723257E+03  0.73042039626E+03  0.81331822983E+02 0.  0.
         13    1    3    3    0    0 -0.29763043793E+03  0.15220971976E+03  0.14851702905E+03  0.36579910373E+03  0.00000000000E+00 0.  1.
        -13    1    3    3    0    0 -0.37782345948E+02  0.44094182354E+02  0.65559986830E+02  0.87578047797E+02  0.00000000000E+00 0. -1.
          4    1    6    6  502    0  0.88365723336E+02 -0.83687002462E+02  0.11343384489E+03  0.16637082860E+03  0.00000000000E+00 0. -1.
          3    1    5    5  503    0  0.36384160861E+01  0.25486199466E+01  0.21434401690E+02  0.21889886045E+02  0.00000000000E+00 0. -1.
         -4    1    5    5    0  503 -0.17113857967E+03  0.11927751759E+03  0.10201435307E+03  0.23221211830E+03  0.00000000000E+00 0.  1.
         -3    1    6    6    0  502  0.41454722413E+03 -0.23444303719E+03  0.30222338768E+03  0.56404956766E+03  0.00000000000E+00 0.  1.
<mgrwt>
<rscale>  0 0.12248553E+04</rscale>
<asrwt>0</asrwt>
<pdfrwt beam="1">  1        1 0.16854481E+00 0.12248553E+04</pdfrwt>
<pdfrwt beam="2">  1       -1 0.52670504E-01 0.12248553E+04</pdfrwt>
<totfact> 0.45850859E+01</totfact>
</mgrwt>
</event>
<event>
12    1  0.1755460E-007  0.1535484E+04  0.7818608E-02  0.8861193E-01
          1   -1    0    0  501    0  0.00000000000E+00  0.00000000000E+00  0.13415457064E+04  0.13415457064E+04  0.00000000000E+00 0. -1.
         -1   -1    0    0    0  501 -0.00000000000E+00 -0.00000000000E+00 -0.43936492068E+03  0.43936492068E+03  0.00000000000E+00 0.  1.
         23    2    1    2    0    0  0.77269746635E+02 -0.51343054382E+03  0.15516856892E+03  0.54992093650E+03  0.93563959629E+02 0.  0.
        254    2    1    2    0    0 -0.77269746635E+02  0.51343054382E+03  0.74701221679E+03  0.12309896906E+04  0.82929296946E+03 0.  0.
        -24    2    4    4    0    0  0.62403469771E+01  0.75025896530E+02 -0.17312442647E+03  0.20513830747E+03  0.80261018366E+02 0.  0.
         24    2    4    4    0    0 -0.83510093612E+02  0.43840464729E+03  0.92013664326E+03  0.10258513831E+04  0.80913827346E+02 0.  0.
         13    1    3    3    0    0  0.28597328388E+02 -0.24254788510E+03  0.12108906815E+03  0.27259832388E+03  0.00000000000E+00 0. -1.
        -13    1    3    3    0    0  0.48672418247E+02 -0.27088265873E+03  0.34079500771E+02  0.27732261262E+03  0.00000000000E+00 0.  1.
          2    1    6    6  502    0 -0.82146366101E+02  0.44103507849E+03  0.91904397544E+03  0.10226934021E+04  0.00000000000E+00 0. -1.
          3    1    5    5  503    0  0.35389919817E+02  0.64719698773E+02 -0.14775504353E+03  0.16514429667E+03  0.00000000000E+00 0. -1.
         -4    1    5    5    0  503 -0.29149572840E+02  0.10306197756E+02 -0.25369382942E+02  0.39994010799E+02  0.00000000000E+00 0.  1.
         -1    1    6    6    0  502 -0.13637275107E+01 -0.26304311992E+01  0.10926678137E+01  0.31579809956E+01  0.00000000000E+00 0.  1.
<mgrwt>
<rscale>  0 0.15354844E+04</rscale>
<asrwt>0</asrwt>
<pdfrwt beam="1">  1        1 0.20639164E+00 0.15354844E+04</pdfrwt>
<pdfrwt beam="2">  1       -1 0.67594604E-01 0.15354844E+04</pdfrwt>
<totfact> 0.18063641E+01</totfact>
</mgrwt>
</event>
<event>
12    1  0.1755460E-007  0.3268695E+04  0.7818608E-02  0.8170907E-01
          1   -1    0    0  501    0  0.00000000000E+00  0.00000000000E+00  0.96423541228E+03  0.96423541228E+03  0.00000000000E+00 0. -1.
         -1   -1    0    0    0  501 -0.00000000000E+00 -0.00000000000E+00 -0.27701657084E+04  0.27701657084E+04  0.00000000000E+00 0.  1.
         23    2    1    2    0    0  0.95921444959E+03  0.26108640760E+02 -0.21622571803E+04  0.23673522849E+04  0.90701188757E+02 0.  0.
        254    2    1    2    0    0 -0.95921444959E+03 -0.26108640760E+02  0.35632688412E+03  0.13670488358E+04  0.90613445459E+03 0.  0.
        -24    2    4    4    0    0 -0.37236833420E+03  0.47143379436E+02  0.60821591519E+03  0.71915957397E+03  0.79895048655E+02 0.  0.
         24    2    4    4    0    0 -0.58684611538E+03 -0.73252020196E+02 -0.25188903106E+03  0.64788926187E+03  0.80982652901E+02 0.  0.
         13    1    3    3    0    0  0.11318226783E+03 -0.15541659729E+02 -0.31716351167E+03  0.33711194295E+03  0.00000000000E+00 0. -1.
        -13    1    3    3    0    0  0.84603218176E+03  0.41650300488E+02 -0.18450936686E+04  0.20302403419E+04  0.00000000000E+00 0.  1.
          2    1    6    6  502    0 -0.18837565876E+03 -0.17000108326E+01 -0.11408149104E+03  0.22023366102E+03  0.00000000000E+00 0. -1.
          3    1    5    5  503    0 -0.10267853540E+03 -0.14470767594E+02  0.12552890292E+03  0.16281827359E+03  0.00000000000E+00 0. -1.
         -2    1    5    5    0  503 -0.26968979880E+03  0.61614147030E+02  0.48268701227E+03  0.55634130038E+03  0.00000000000E+00 0.  1.
         -1    1    6    6    0  502 -0.39847045663E+03 -0.71552009363E+02 -0.13780754002E+03  0.42765560085E+03  0.00000000000E+00 0.  1.
<mgrwt>
<rscale>  0 0.32686951E+04</rscale>
<asrwt>0</asrwt>
<pdfrwt beam="1">  1        1 0.14834391E+00 0.32686951E+04</pdfrwt>
<pdfrwt beam="2">  1       -1 0.42617934E+00 0.32686951E+04</pdfrwt>
<totfact> 0.63414616E-02</totfact>
</mgrwt>
</event>
<event>
12    1  0.1755460E-007  0.1377472E+04  0.7818608E-02  0.8970289E-01
          2   -1    0    0  501    0  0.00000000000E+00  0.00000000000E+00  0.72690358312E+03  0.72690358312E+03  0.00000000000E+00 0. -1.
         -2   -1    0    0    0  501 -0.00000000000E+00 -0.00000000000E+00 -0.65257265520E+03  0.65257265520E+03  0.00000000000E+00 0.  1.
         23    2    1    2    0    0 -0.14673704316E+03  0.30285214333E+03  0.21951127513E+03  0.41196952621E+03  0.91008296669E+02 0.  0.
        254    2    1    2    0    0  0.14673704316E+03 -0.30285214333E+03 -0.14518034721E+03  0.96750671211E+03  0.89539975665E+03 0.  0.
        -24    2    4    4    0    0  0.15732559388E+03 -0.54191345615E+03  0.14008957433E+03  0.58684606966E+03  0.79634692159E+02 0.  0.
         24    2    4    4    0    0 -0.10588550719E+02  0.23906131282E+03 -0.28526992154E+03  0.38066064245E+03  0.79127541874E+02 0.  0.
         11    1    3    3    0    0 -0.93599124222E+02  0.16308730462E+03  0.70352838520E+02  0.20076799264E+03  0.00000000000E+00 0. -1.
        -11    1    3    3    0    0 -0.53137918942E+02  0.13976483871E+03  0.14915843661E+03  0.21120153357E+03  0.00000000000E+00 0.  1.
          4    1    6    6  502    0 -0.20678903180E+02  0.17932068509E+02 -0.53917400808E+02  0.60467034223E+02  0.00000000000E+00 0. -1.
          1    1    5    5  503    0  0.14576895963E+03 -0.41052600596E+03  0.12973643174E+03  0.45454563344E+03  0.00000000000E+00 0. -1.
         -2    1    5    5    0  503  0.11556634257E+02 -0.13138745019E+03  0.10353142589E+02  0.13230043622E+03  0.00000000000E+00 0.  1.
         -3    1    6    6    0  502  0.10090352461E+02  0.22112924431E+03 -0.23135252074E+03  0.32019360823E+03  0.00000000000E+00 0.  1.
<mgrwt>
<rscale>  0 0.13774722E+04</rscale>
<asrwt>0</asrwt>
<pdfrwt beam="1">  1        2 0.11183132E+00 0.13774722E+04</pdfrwt>
<pdfrwt beam="2">  1       -2 0.10039579E+00 0.13774722E+04</pdfrwt>
<totfact> 0.31156097E+01</totfact>
</mgrwt>
</event>
<event>
12    1  0.1755460E-007  0.1417628E+04  0.7818608E-02  0.8941157E-01
          2   -1    0    0  501    0  0.00000000000E+00  0.00000000000E+00  0.12254213286E+04  0.12254213286E+04  0.00000000000E+00 0. -1.
         -2   -1    0    0    0  501 -0.00000000000E+00 -0.00000000000E+00 -0.40999529337E+03  0.40999529337E+03  0.00000000000E+00 0.  1.
         23    2    1    2    0    0 -0.34991161072E+03  0.16700652749E+03  0.67313726545E+02  0.40392734866E+03  0.91087044516E+02 0.  0.
        254    2    1    2    0    0  0.34991161072E+03 -0.16700652749E+03  0.74811230873E+03  0.12314892733E+04  0.89808935434E+03 0.  0.
        -24    2    4    4    0    0  0.43502849615E+02  0.13667497027E+03  0.77538610639E+03  0.79263888657E+03  0.80499969559E+02 0.  0.
         24    2    4    4    0    0  0.30640876110E+03 -0.30368149776E+03 -0.27273797667E+02  0.43885038678E+03  0.75743124937E+02 0.  0.
         13    1    3    3    0    0 -0.33143891355E+03  0.17701490707E+03  0.71539247161E+02  0.38249692107E+03  0.00000000000E+00 0.  1.
        -13    1    3    3    0    0 -0.18472697164E+02 -0.10008379584E+02 -0.42255206155E+01  0.21430427594E+02  0.00000000000E+00 0. -1.
          4    1    6    6  502    0  0.90168041638E+02 -0.12641971573E+03 -0.34825280455E+02  0.15913836878E+03  0.00000000000E+00 0. -1.
          1    1    5    5  503    0  0.24477991030E+02  0.13872512034E+03  0.72856728772E+03  0.74206072783E+03  0.00000000000E+00 0. -1.
         -2    1    5    5    0  503  0.19024858585E+02 -0.20501500733E+01  0.46818818673E+02  0.50578158739E+02  0.00000000000E+00 0.  1.
         -3    1    6    6    0  502  0.21624071946E+03 -0.17726178203E+03  0.75514827878E+01  0.27971201800E+03  0.00000000000E+00 0.  1.
<mgrwt>
<rscale>  0 0.14176276E+04</rscale>
<asrwt>0</asrwt>
<pdfrwt beam="1">  1        2 0.18852636E+00 0.14176276E+04</pdfrwt>
<pdfrwt beam="2">  1       -2 0.63076200E-01 0.14176276E+04</pdfrwt>
<totfact> 0.41401796E+01</totfact>
</mgrwt>
</event>
<event>
12    1  0.1755460E-007  0.1626021E+04  0.7818608E-02  0.8804720E-01
          1   -1    0    0  501    0  0.00000000000E+00  0.00000000000E+00  0.47856902494E+03  0.47856902494E+03  0.00000000000E+00 0. -1.
         -1   -1    0    0    0  501 -0.00000000000E+00 -0.00000000000E+00 -0.13811716674E+04  0.13811716674E+04  0.00000000000E+00 0.  1.
         23    2    1    2    0    0 -0.20841527256E+02  0.38477630116E+03  0.14617225903E+03  0.43071305317E+03  0.12514085530E+03 0.  0.
        254    2    1    2    0    0  0.20841527256E+02 -0.38477630116E+03 -0.10487749015E+04  0.14290276391E+04  0.89090068374E+03 0.  0.
        -24    2    4    4    0    0  0.83763497825E+02  0.27683423711E+03 -0.35003169520E+03  0.46135091003E+03  0.81663676985E+02 0.  0.
         24    2    4    4    0    0 -0.62921970569E+02 -0.66161053827E+03 -0.69874320626E+03  0.96767672911E+03  0.80427016817E+02 0.  0.
         13    1    3    3    0    0 -0.73424928684E+02  0.24429065806E+03  0.95631891034E+02  0.27242357525E+03  0.00000000000E+00 0. -1.
        -13    1    3    3    0    0  0.52583401428E+02  0.14048564309E+03  0.50540367996E+02  0.15828947791E+03  0.00000000000E+00 0.  1.
          4    1    6    6  502    0 -0.64223769127E+01 -0.75350031920E+02 -0.46106496105E+02  0.88570216318E+02  0.00000000000E+00 0. -1.
          3    1    5    5  503    0  0.39290918638E+02  0.74101550590E+02 -0.15654583766E+03  0.17759902977E+03  0.00000000000E+00 0. -1.
         -4    1    5    5    0  503  0.44472579188E+02  0.20273268652E+03 -0.19348585754E+03  0.28375188026E+03  0.00000000000E+00 0.  1.
         -3    1    6    6    0  502 -0.56499593657E+02 -0.58626050635E+03 -0.65263671015E+03  0.87910651279E+03  0.00000000000E+00 0.  1.
<mgrwt>
<rscale>  0 0.16260209E+04</rscale>
<asrwt>0</asrwt>
<pdfrwt beam="1">  1        1 0.73626004E-01 0.16260209E+04</pdfrwt>
<pdfrwt beam="2">  1       -1 0.21248795E+00 0.16260209E+04</pdfrwt>
<totfact> 0.55733844E+00</totfact>
</mgrwt>
</event>
<event>
12    1  0.1755460E-007  0.3166980E+04  0.7818608E-02  0.8197592E-01
         -2   -1    0    0    0  501 -0.00000000000E+00  0.00000000000E+00  0.91092644543E+03  0.91092644543E+03  0.00000000000E+00 0. -1.
          2   -1    0    0  501    0  0.00000000000E+00 -0.00000000000E+00 -0.27526272254E+04  0.27526272254E+04  0.00000000000E+00 0.  1.
         23    2    1    2    0    0 -0.98533854191E+03  0.10504172052E+04 -0.11582606790E+04  0.18504850943E+04  0.91972477383E+02 0.  0.
        254    2    1    2    0    0  0.98533854191E+03 -0.10504172052E+04 -0.68344010103E+03  0.18130685765E+04  0.86363125482E+03 0.  0.
        -24    2    4    4    0    0  0.50521307885E+03  0.21007684801E+01 -0.29512071971E+03  0.59048918323E+03  0.79602563009E+02 0.  0.
         24    2    4    4    0    0  0.48012546306E+03 -0.10525179737E+04 -0.38831938132E+03  0.12225793933E+04  0.74792284040E+02 0.  0.
         11    1    3    3    0    0 -0.85849585575E+03  0.89763800321E+03 -0.95946112793E+03  0.15695014416E+04  0.00000000000E+00 0. -1.
        -11    1    3    3    0    0 -0.12684268616E+03  0.15277920203E+03 -0.19879955102E+03  0.28098365271E+03  0.00000000000E+00 0.  1.
          4    1    6    6  502    0  0.59505931884E+02 -0.16812319245E+03 -0.36958209023E+02  0.18213256981E+03  0.00000000000E+00 0. -1.
          3    1    5    5  503    0  0.19905723677E+03 -0.27995611917E+02 -0.14715512331E+03  0.24912279726E+03  0.00000000000E+00 0. -1.
         -4    1    5    5    0  503  0.30615584208E+03  0.30096380398E+02 -0.14796559640E+03  0.34136638597E+03  0.00000000000E+00 0.  1.
         -3    1    6    6    0  502  0.42061953117E+03 -0.88439478127E+03 -0.35136117230E+03  0.10404468235E+04  0.00000000000E+00 0.  1.
<mgrwt>
<rscale>  0 0.31669802E+04</rscale>
<asrwt>0</asrwt>
<pdfrwt beam="1">  1        2 0.42348111E+00 0.31669802E+04</pdfrwt>
<pdfrwt beam="2">  1       -2 0.14014253E+00 0.31669802E+04</pdfrwt>
<totfact> 0.74665905E-01</totfact>
</mgrwt>
</event>
<event>
12    1  0.1755460E-007  0.1803776E+04  0.7818608E-02  0.8704294E-01
          1   -1    0    0  501    0  0.00000000000E+00  0.00000000000E+00  0.11900368618E+04  0.11900368618E+04  0.00000000000E+00 0. -1.
         -1   -1    0    0    0  501 -0.00000000000E+00 -0.00000000000E+00 -0.68350972468E+03  0.68350972468E+03  0.00000000000E+00 0.  1.
         23    2    1    2    0    0  0.29661664784E+03 -0.54918192015E+03  0.45720726345E+03  0.77910318700E+03  0.91548222554E+02 0.  0.
        254    2    1    2    0    0 -0.29661664784E+03  0.54918192015E+03  0.49319873658E+02  0.10944433995E+04  0.89765900403E+03 0.  0.
        -24    2    4    4    0    0  0.33846231640E+02  0.15958671361E+03  0.42035602239E+03  0.45797991533E+03  0.80205552993E+02 0.  0.
         24    2    4    4    0    0 -0.33046287948E+03  0.38959520653E+03 -0.37103614873E+03  0.63646348414E+03  0.80173582343E+02 0.  0.
         11    1    3    3    0    0  0.26490643764E+03 -0.41910865756E+03  0.34025677752E+03  0.60133365297E+03  0.00000000000E+00 0. -1.
        -11    1    3    3    0    0  0.31710210198E+02 -0.13007326258E+03  0.11695048593E+03  0.17776953403E+03  0.00000000000E+00 0.  1.
          2    1    6    6  502    0 -0.80480985282E+02  0.14563677671E+03 -0.97923152987E+02  0.19307046282E+03  0.00000000000E+00 0. -1.
          3    1    5    5  503    0  0.15634076570E+02  0.57888392448E+01  0.10165695097E+02  0.19526299363E+02  0.00000000000E+00 0. -1.
         -4    1    5    5    0  503  0.18212155069E+02  0.15379787437E+03  0.41019032729E+03  0.43845361597E+03  0.00000000000E+00 0.  1.
         -1    1    6    6    0  502 -0.24998189420E+03  0.24395842983E+03 -0.27311299575E+03  0.44339302132E+03  0.00000000000E+00 0.  1.
<mgrwt>
<rscale>  0 0.18037758E+04</rscale>
<asrwt>0</asrwt>
<pdfrwt beam="1">  1        1 0.18308259E+00 0.18037758E+04</pdfrwt>
<pdfrwt beam="2">  1       -1 0.10515534E+00 0.18037758E+04</pdfrwt>
<totfact> 0.86980872E+00</totfact>
</mgrwt>
</event>
<event>
12    1  0.1755460E-007  0.2958874E+04  0.7818608E-02  0.8255573E-01
          2   -1    0    0  501    0  0.00000000000E+00  0.00000000000E+00  0.24663630283E+04  0.24663630283E+04  0.00000000000E+00 0. -1.
         -2   -1    0    0    0  501 -0.00000000000E+00 -0.00000000000E+00 -0.88743375380E+03  0.88743375380E+03  0.00000000000E+00 0.  1.
         23    2    1    2    0    0  0.92127816975E+02 -0.13254965636E+03  0.22303688522E+04  0.22381794552E+04  0.94048448174E+02 0.  0.
        254    2    1    2    0    0 -0.92127816975E+02  0.13254965636E+03 -0.65143957774E+03  0.11156173269E+04  0.89116303252E+03 0.  0.
        -24    2    4    4    0    0  0.32954175479E+03  0.27368516147E+03 -0.21054762319E+03  0.48414407147E+03  0.81017557034E+02 0.  0.
         24    2    4    4    0    0 -0.42166957176E+03 -0.14113550511E+03 -0.44089195455E+03  0.63147325542E+03  0.81537096900E+02 0.  0.
         11    1    3    3    0    0  0.50817812503E+02 -0.47340204977E+02  0.45332426229E+03  0.45861359755E+03  0.00000000000E+00 0.  1.
        -11    1    3    3    0    0  0.41310004472E+02 -0.85209451384E+02  0.17770445899E+04  0.17795658576E+04  0.00000000000E+00 0. -1.
          4    1    6    6  502    0 -0.11654249082E+03 -0.12225257122E+02 -0.81623921469E+02  0.14280782063E+03  0.00000000000E+00 0. -1.
          1    1    5    5  503    0  0.17046983535E+03  0.12366358499E+03 -0.61063981539E+02  0.21927484320E+03  0.00000000000E+00 0. -1.
         -2    1    5    5    0  503  0.15907191943E+03  0.15002157649E+03 -0.14948364166E+03  0.26486922827E+03  0.00000000000E+00 0.  1.
         -3    1    6    6    0  502 -0.30512708094E+03 -0.12891024799E+03 -0.35926803308E+03  0.48866543478E+03  0.00000000000E+00 0.  1.
<mgrwt>
<rscale>  0 0.29588740E+04</rscale>
<asrwt>0</asrwt>
<pdfrwt beam="1">  1        2 0.37944046E+00 0.29588740E+04</pdfrwt>
<pdfrwt beam="2">  1       -2 0.13652827E+00 0.29588740E+04</pdfrwt>
<totfact> 0.11983871E+00</totfact>
</mgrwt>
</event>
<event>
12    1  0.1755460E-007  0.2365961E+04  0.7818608E-02  0.8452358E-01
          2   -1    0    0  501    0  0.00000000000E+00  0.00000000000E+00  0.16649175281E+04  0.16649175281E+04  0.00000000000E+00 0. -1.
         -2   -1    0    0    0  501 -0.00000000000E+00 -0.00000000000E+00 -0.84054782222E+03  0.84054782222E+03  0.00000000000E+00 0.  1.
         23    2    1    2    0    0  0.91105528838E+03  0.40458159646E+03  0.19734390631E+03  0.10203441724E+04  0.91921739406E+02 0.  0.
        254    2    1    2    0    0 -0.91105528838E+03 -0.40458159646E+03  0.62702579958E+03  0.14851211779E+04  0.90482901868E+03 0.  0.
        -24    2    4    4    0    0 -0.33990306202E+02 -0.23840436596E+02  0.51055446378E+03  0.51836435865E+03  0.79448351164E+02 0.  0.
         24    2    4    4    0    0 -0.87706498218E+03 -0.38074115986E+03  0.11647133580E+03  0.96675681925E+03  0.82742744278E+02 0.  0.
         13    1    3    3    0    0  0.37174262779E+03  0.16040935361E+03  0.12611699550E+03  0.42406277672E+03  0.00000000000E+00 0. -1.
        -13    1    3    3    0    0  0.53931266059E+03  0.24417224284E+03  0.71226910803E+02  0.59628139571E+03  0.00000000000E+00 0.  1.
          2    1    6    6  502    0 -0.39303929145E+03 -0.17300550340E+03  0.93755671640E+02  0.43954626013E+03  0.00000000000E+00 0. -1.
          3    1    5    5  503    0 -0.41687300565E+02  0.11277707695E+02  0.39481013866E+03  0.39716503284E+03  0.00000000000E+00 0. -1.
         -4    1    5    5    0  503  0.76969943635E+01 -0.35118144292E+02  0.11574432512E+03  0.12119932581E+03  0.00000000000E+00 0.  1.
         -1    1    6    6    0  502 -0.48402569073E+03 -0.20773565646E+03  0.22715664160E+02  0.52721055912E+03  0.00000000000E+00 0.  1.
<mgrwt>
<rscale>  0 0.23659609E+04</rscale>
<asrwt>0</asrwt>
<pdfrwt beam="1">  1        2 0.25614116E+00 0.23659609E+04</pdfrwt>
<pdfrwt beam="2">  1       -2 0.12931505E+00 0.23659609E+04</pdfrwt>
<totfact> 0.40721660E+00</totfact>
</mgrwt>
</event>
<event>
12    1  0.1755460E-007  0.1780708E+04  0.7818608E-02  0.8716626E-01
         -2   -1    0    0    0  501 -0.00000000000E+00  0.00000000000E+00  0.33475674610E+03  0.33475674610E+03  0.00000000000E+00 0. -1.
          2   -1    0    0  501    0  0.00000000000E+00 -0.00000000000E+00 -0.23680792835E+04  0.23680792835E+04  0.00000000000E+00 0.  1.
         23    2    1    2    0    0  0.42275219696E+03 -0.50519243441E+03 -0.69798696405E+03  0.96410713914E+03  0.91531185514E+02 0.  0.
        254    2    1    2    0    0 -0.42275219696E+03  0.50519243441E+03 -0.13353355734E+04  0.17387288905E+04  0.89784087970E+03 0.  0.
        -24    2    4    4    0    0 -0.36080602328E+03 -0.13133795519E+02 -0.10984907750E+04  0.11596019279E+04  0.87413759446E+02 0.  0.
         24    2    4    4    0    0 -0.61946173684E+02  0.51832622993E+03 -0.23684479836E+03  0.57912696260E+03  0.82420696581E+02 0.  0.
         11    1    3    3    0    0  0.11139068368E+03 -0.16604931155E+03 -0.26606234342E+03  0.33282041533E+03  0.00000000000E+00 0.  1.
        -11    1    3    3    0    0  0.31136151329E+03 -0.33914312287E+03 -0.43192462063E+03  0.63128672380E+03  0.00000000000E+00 0. -1.
          2    1    6    6  502    0 -0.27176419704E+02  0.34856628447E+03 -0.11798187909E+03  0.36899422252E+03  0.00000000000E+00 0. -1.
          3    1    5    5  503    0 -0.30899965220E+03 -0.39139300460E+02 -0.96636212786E+03  0.10153169121E+04  0.00000000000E+00 0. -1.
         -4    1    5    5    0  503 -0.51806371078E+02  0.26005504941E+02 -0.13212864718E+03  0.14428501577E+03  0.00000000000E+00 0.  1.
         -1    1    6    6    0  502 -0.34769753980E+02  0.16975994546E+03 -0.11886291927E+03  0.21013274008E+03  0.00000000000E+00 0.  1.
<mgrwt>
<rscale>  0 0.17807083E+04</rscale>
<asrwt>0</asrwt>
<pdfrwt beam="1">  1        2 0.36431988E+00 0.17807083E+04</pdfrwt>
<pdfrwt beam="2">  1       -2 0.51501039E-01 0.17807083E+04</pdfrwt>
<totfact> 0.13974484E+01</totfact>
</mgrwt>
</event>
<event>
12    1  0.1755460E-007  0.1298941E+04  0.7818608E-02  0.9030405E-01
         -2   -1    0    0    0  501 -0.00000000000E+00  0.00000000000E+00  0.17373988821E+03  0.17373988821E+03  0.00000000000E+00 0. -1.
          2   -1    0    0  501    0  0.00000000000E+00 -0.00000000000E+00 -0.24278373432E+04  0.24278373432E+04  0.00000000000E+00 0.  1.
         23    2    1    2    0    0  0.59568959564E+02  0.31368120890E+03 -0.55564255641E+03  0.64782142283E+03  0.94813414758E+02 0.  0.
        254    2    1    2    0    0 -0.59568959564E+02 -0.31368120890E+03 -0.16984548986E+04  0.19537558086E+04  0.91130036503E+03 0.  0.
        -24    2    4    4    0    0 -0.12990898312E+01 -0.50937999744E+02 -0.16685547004E+04  0.16716646912E+04  0.88270517187E+02 0.  0.
         24    2    4    4    0    0 -0.58269869733E+02 -0.26274320915E+03 -0.29900198200E+02  0.28209111738E+03  0.79069621067E+02 0.  0.
         13    1    3    3    0    0 -0.33648936548E+01  0.19684341069E+03 -0.28491523248E+03  0.34631682105E+03  0.00000000000E+00 0. -1.
        -13    1    3    3    0    0  0.62933853219E+02  0.11683779821E+03 -0.27072732393E+03  0.30150460178E+03  0.00000000000E+00 0.  1.
          4    1    6    6  502    0 -0.27766589131E+02 -0.19756068604E+03 -0.53151814207E+02  0.20646143343E+03  0.00000000000E+00 0. -1.
          1    1    5    5  503    0  0.19167046469E+02  0.14844986865E+02 -0.80546897303E+03  0.80583373957E+03  0.00000000000E+00 0. -1.
         -2    1    5    5    0  503 -0.20466136300E+02 -0.65782986609E+02 -0.86308572735E+03  0.86583095164E+03  0.00000000000E+00 0.  1.
         -3    1    6    6    0  502 -0.30503280602E+02 -0.65182523112E+02  0.23251616007E+02  0.75629683945E+02  0.00000000000E+00 0.  1.
<mgrwt>
<rscale>  0 0.12989414E+04</rscale>
<asrwt>0</asrwt>
<pdfrwt beam="1">  1        2 0.37351342E+00 0.12989414E+04</pdfrwt>
<pdfrwt beam="2">  1       -2 0.26729215E-01 0.12989414E+04</pdfrwt>
<totfact> 0.47888411E+01</totfact>
</mgrwt>
</event>
<event>
12    1  0.1755460E-007  0.1631278E+04  0.7818608E-02  0.8801560E-01
          2   -1    0    0  501    0  0.00000000000E+00  0.00000000000E+00  0.12680263953E+04  0.12680263953E+04  0.00000000000E+00 0. -1.
         -2   -1    0    0    0  501 -0.00000000000E+00 -0.00000000000E+00 -0.52464771575E+03  0.52464771575E+03  0.00000000000E+00 0.  1.
         23    2    1    2    0    0 -0.68324721790E+02 -0.31585155324E+03 -0.24106781633E+03  0.41570528890E+03  0.10132484322E+03 0.  0.
        254    2    1    2    0    0  0.68324721790E+02  0.31585155324E+03  0.98444649593E+03  0.13769688222E+04  0.90690559743E+03 0.  0.
        -24    2    4    4    0    0  0.10388709261E+03  0.20201845693E+03  0.11402454089E+04  0.11653180969E+04  0.78757154653E+02 0.  0.
         24    2    4    4    0    0 -0.35562370823E+02  0.11383309632E+03 -0.15579891296E+03  0.21165072534E+03  0.79372994269E+02 0.  0.
         11    1    3    3    0    0 -0.62566343588E+02 -0.85087799884E+02 -0.54186257533E+02  0.11870396600E+03  0.00000000000E+00 0. -1.
        -11    1    3    3    0    0 -0.57583782027E+01 -0.23076375336E+03 -0.18688155880E+03  0.29700132290E+03  0.00000000000E+00 0.  1.
          2    1    6    6  502    0 -0.17413171722E+02  0.11650861886E+03 -0.15299380375E+03  0.19309215625E+03  0.00000000000E+00 0. -1.
          1    1    5    5  503    0  0.10486227578E+03  0.12432728911E+03  0.75673799978E+03  0.77401923233E+03  0.00000000000E+00 0. -1.
         -2    1    5    5    0  503 -0.97518316263E+00  0.77691167815E+02  0.38350740912E+03  0.39129886454E+03  0.00000000000E+00 0.  1.
         -1    1    6    6    0  502 -0.18149199101E+02 -0.26755225431E+01 -0.28051092100E+01  0.18558569087E+02  0.00000000000E+00 0.  1.
<mgrwt>
<rscale>  0 0.16312782E+04</rscale>
<asrwt>0</asrwt>
<pdfrwt beam="1">  1        2 0.19508098E+00 0.16312782E+04</pdfrwt>
<pdfrwt beam="2">  1       -2 0.80715033E-01 0.16312782E+04</pdfrwt>
<totfact> 0.22373264E+01</totfact>
</mgrwt>
</event>
<event>
12    1  0.1755460E-007  0.1571877E+04  0.7818608E-02  0.8838013E-01
          2   -1    0    0  501    0  0.00000000000E+00  0.00000000000E+00  0.22802038880E+04  0.22802038880E+04  0.00000000000E+00 0. -1.
         -2   -1    0    0    0  501 -0.00000000000E+00 -0.00000000000E+00 -0.27089668497E+03  0.27089668497E+03  0.00000000000E+00 0.  1.
         23    2    1    2    0    0 -0.41890160463E+03  0.70264995010E+02  0.17513730396E+03  0.46803924432E+03  0.89285693717E+02 0.  0.
        254    2    1    2    0    0  0.41890160463E+03 -0.70264995010E+02  0.18341698990E+04  0.20830613286E+04  0.89137509297E+03 0.  0.
        -24    2    4    4    0    0  0.19992447327E+03 -0.41122684167E+03  0.48259938997E+03  0.66949371867E+03  0.79008593305E+02 0.  0.
         24    2    4    4    0    0  0.21897713136E+03  0.34096184666E+03  0.13515705091E+04  0.14135676100E+04  0.84997541057E+02 0.  0.
         13    1    3    3    0    0 -0.22572718626E+03  0.79397951028E+02  0.78375580701E+02  0.25179263074E+03  0.00000000000E+00 0.  1.
        -13    1    3    3    0    0 -0.19317441837E+03 -0.91329560179E+01  0.96761723262E+02  0.21624661359E+03  0.00000000000E+00 0. -1.
          4    1    6    6  502    0  0.40582877291E+02  0.21928008921E+02  0.20574923176E+03  0.21085671409E+03  0.00000000000E+00 0. -1.
          3    1    5    5  503    0  0.64489303471E+01 -0.33315957259E+02  0.68412209724E+02  0.76366040554E+02  0.00000000000E+00 0. -1.
         -4    1    5    5    0  503  0.19347554292E+03 -0.37791088441E+03  0.41418718025E+03  0.59312767812E+03  0.00000000000E+00 0.  1.
         -3    1    6    6    0  502  0.17839425407E+03  0.31903383774E+03  0.11458212773E+04  0.12027108959E+04  0.00000000000E+00 0.  1.
<mgrwt>
<rscale>  0 0.15718774E+04</rscale>
<asrwt>0</asrwt>
<pdfrwt beam="1">  1        2 0.35080059E+00 0.15718774E+04</pdfrwt>
<pdfrwt beam="2">  1       -2 0.41676415E-01 0.15718774E+04</pdfrwt>
<totfact> 0.24418119E+01</totfact>
</mgrwt>
</event>
<event>
12    1  0.1755460E-007  0.1877655E+04  0.7818608E-02  0.8666059E-01
          2   -1    0    0  501    0  0.00000000000E+00  0.00000000000E+00  0.14777915841E+04  0.14777915841E+04  0.00000000000E+00 0. -1.
         -2   -1    0    0    0  501 -0.00000000000E+00 -0.00000000000E+00 -0.59642858363E+03  0.59642858363E+03  0.00000000000E+00 0.  1.
         23    2    1    2    0    0 -0.48932662749E+03  0.41810792142E+03  0.70822194952E+03  0.96118221248E+03  0.89655638321E+02 0.  0.
        254    2    1    2    0    0  0.48932662749E+03 -0.41810792142E+03  0.17314105091E+03  0.11130379552E+04  0.89141510192E+03 0.  0.
        -24    2    4    4    0    0  0.69291979336E+03 -0.20750519127E+03  0.29647892195E+03  0.78549986456E+03  0.76902806361E+02 0.  0.
         24    2    4    4    0    0 -0.20359316588E+03 -0.21060273014E+03 -0.12333787105E+03  0.32753809066E+03  0.79153542312E+02 0.  0.
         11    1    3    3    0    0 -0.22120835749E+03  0.20213473289E+03  0.39449253206E+03  0.49539473707E+03  0.00000000000E+00 0. -1.
        -11    1    3    3    0    0 -0.26811827000E+03  0.21597318852E+03  0.31372941746E+03  0.46578747541E+03  0.00000000000E+00 0.  1.
          4    1    6    6  502    0 -0.68079265558E+02 -0.11415424438E+03 -0.81906088378E+02  0.15612362160E+03  0.00000000000E+00 0. -1.
          3    1    5    5  503    0  0.21901058086E+03 -0.81944949066E+02  0.13119122998E+03  0.26812636578E+03  0.00000000000E+00 0. -1.
         -2    1    5    5    0  503  0.47390921250E+03 -0.12556024221E+03  0.16528769197E+03  0.51737349878E+03  0.00000000000E+00 0.  1.
         -3    1    6    6    0  502 -0.13551390032E+03 -0.96448485761E+02 -0.41431782670E+02  0.17141446905E+03  0.00000000000E+00 0.  1.
<mgrwt>
<rscale>  0 0.18776551E+04</rscale>
<asrwt>0</asrwt>
<pdfrwt beam="1">  1        2 0.22735255E+00 0.18776551E+04</pdfrwt>
<pdfrwt beam="2">  1       -2 0.91758244E-01 0.18776551E+04</pdfrwt>
<totfact> 0.12389436E+01</totfact>
</mgrwt>
</event>
<event>
12    1  0.1755460E-007  0.1804856E+04  0.7818608E-02  0.8703721E-01
         -1   -1    0    0    0  501 -0.00000000000E+00  0.00000000000E+00  0.67858442771E+03  0.67858442771E+03  0.00000000000E+00 0.  1.
          1   -1    0    0  501    0  0.00000000000E+00 -0.00000000000E+00 -0.12001106148E+04  0.12001106148E+04  0.00000000000E+00 0. -1.
         23    2    1    2    0    0  0.40813518338E+03  0.43932484581E+03  0.12849864593E+03  0.61916237897E+03  0.85261371478E+02 0.  0.
        254    2    1    2    0    0 -0.40813518338E+03 -0.43932484581E+03 -0.65002483303E+03  0.12595326635E+04  0.89683309424E+03 0.  0.
        -24    2    4    4    0    0  0.26356684741E+03 -0.44219162937E+02 -0.79089394371E+02  0.29027161522E+03  0.81115108803E+02 0.  0.
         24    2    4    4    0    0 -0.67170203080E+03 -0.39510568288E+03 -0.57093543866E+03  0.96926104832E+03  0.78788234271E+02 0.  0.
         11    1    3    3    0    0  0.35841689341E+03  0.34275938059E+03  0.90671986023E+02  0.50415084203E+03  0.00000000000E+00 0.  1.
        -11    1    3    3    0    0  0.49718289969E+02  0.96565465222E+02  0.37826659907E+02  0.11501153695E+03  0.00000000000E+00 0. -1.
          4    1    6    6  502    0 -0.19515909426E+01  0.29460574212E+01 -0.33212621099E+00  0.35494040847E+01  0.00000000000E+00 0. -1.
          1    1    5    5  503    0  0.13819747796E+03  0.12824448751E+02 -0.19335015824E+02  0.14013155332E+03  0.00000000000E+00 0. -1.
         -2    1    5    5    0  503  0.12536936946E+03 -0.57043611689E+02 -0.59754378547E+02  0.15014006190E+03  0.00000000000E+00 0.  1.
         -3    1    6    6    0  502 -0.66975043985E+03 -0.39805174030E+03 -0.57060331245E+03  0.96571164424E+03  0.00000000000E+00 0.  1.
<mgrwt>
<rscale>  0 0.18048561E+04</rscale>
<asrwt>0</asrwt>
<pdfrwt beam="1">  1        1 0.18463240E+00 0.18048561E+04</pdfrwt>
<pdfrwt beam="2">  1       -1 0.10439760E+00 0.18048561E+04</pdfrwt>
<totfact> 0.86959463E+00</totfact>
</mgrwt>
</event>
<event>
12    1  0.1755460E-007  0.1726506E+04  0.7818608E-02  0.8746390E-01
          2   -1    0    0  501    0  0.00000000000E+00  0.00000000000E+00  0.53838709056E+03  0.53838709056E+03  0.00000000000E+00 0. -1.
         -2   -1    0    0    0  501 -0.00000000000E+00 -0.00000000000E+00 -0.13841455706E+04  0.13841455706E+04  0.00000000000E+00 0.  1.
         23    2    1    2    0    0 -0.46625734868E+03  0.39576749769E+03 -0.16981708090E+03  0.64089358952E+03  0.88763307142E+02 0.  0.
        254    2    1    2    0    0  0.46625734868E+03 -0.39576749769E+03 -0.67594139917E+03  0.12816390717E+04  0.90092957966E+03 0.  0.
        -24    2    4    4    0    0 -0.24697984640E+03 -0.23808430849E+03 -0.24626062406E+03  0.42951020606E+03  0.78431751664E+02 0.  0.
         24    2    4    4    0    0  0.71323719509E+03 -0.15768318920E+03 -0.42968077511E+03  0.85212886562E+03  0.89032300374E+02 0.  0.
         13    1    3    3    0    0 -0.18805147241E+02  0.24059369750E+02  0.98309701365E+01  0.32080131068E+02  0.00000000000E+00 0.  1.
        -13    1    3    3    0    0 -0.44745220144E+03  0.37170812794E+03 -0.17964805104E+03  0.60881345845E+03  0.00000000000E+00 0. -1.
          2    1    6    6  502    0  0.64749961095E+03 -0.14577778771E+03 -0.41783831574E+03  0.78428041392E+03  0.00000000000E+00 0. -1.
          3    1    5    5  503    0 -0.13381389106E+03 -0.13957784415E+03 -0.91343435157E+02  0.21384984256E+03  0.00000000000E+00 0. -1.
         -4    1    5    5    0  503 -0.11316595534E+03 -0.98506464335E+02 -0.15491718891E+03  0.21566036350E+03  0.00000000000E+00 0.  1.
         -1    1    6    6    0  502  0.65737584139E+02 -0.11905401497E+02 -0.11842459367E+02  0.67848451693E+02  0.00000000000E+00 0.  1.
<mgrwt>
<rscale>  0 0.17265064E+04</rscale>
<asrwt>0</asrwt>
<pdfrwt beam="1">  1        2 0.82828784E-01 0.17265064E+04</pdfrwt>
<pdfrwt beam="2">  1       -2 0.21294547E+00 0.17265064E+04</pdfrwt>
<totfact> 0.58726073E+00</totfact>
</mgrwt>
</event>
<event>
12    1  0.1755460E-007  0.1444526E+04  0.7818608E-02  0.8922204E-01
         -1   -1    0    0    0  501 -0.00000000000E+00  0.00000000000E+00  0.43005445810E+03  0.43005445810E+03  0.00000000000E+00 0.  1.
          1   -1    0    0  501    0  0.00000000000E+00 -0.00000000000E+00 -0.12130185926E+04  0.12130185926E+04  0.00000000000E+00 0. -1.
         23    2    1    2    0    0  0.21514806938E+03 -0.32902797932E+03 -0.14571420916E+02  0.40334063083E+03  0.89012556669E+02 0.  0.
        254    2    1    2    0    0 -0.21514806938E+03  0.32902797932E+03 -0.76839271354E+03  0.12397324198E+04  0.88992191097E+03 0.  0.
        -24    2    4    4    0    0 -0.30798987319E+02 -0.17618705772E+03  0.96892610644E+02  0.21838890366E+03  0.79467467047E+02 0.  0.
         24    2    4    4    0    0 -0.18434908206E+03  0.50521503703E+03 -0.86528532418E+03  0.10213435162E+04  0.72090693339E+02 0.  0.
         11    1    3    3    0    0  0.96093277985E+02 -0.74568222995E+02  0.49201282687E+01  0.12173144876E+03  0.00000000000E+00 0. -1.
        -11    1    3    3    0    0  0.11905479139E+03 -0.25445975632E+03 -0.19491549185E+02  0.28160918208E+03  0.00000000000E+00 0.  1.
          2    1    6    6  502    0 -0.14545713961E+02  0.12367317199E+02 -0.16337840853E+02  0.25128736002E+02  0.00000000000E+00 0. -1.
          1    1    5    5  503    0  0.24892467809E+02 -0.82048584949E+02  0.34144285035E+02  0.92289963953E+02  0.00000000000E+00 0. -1.
         -2    1    5    5    0  503 -0.55691455128E+02 -0.94138472767E+02  0.62748325609E+02  0.12609893971E+03  0.00000000000E+00 0.  1.
         -1    1    6    6    0  502 -0.16980336810E+03  0.49284771983E+03 -0.84894748333E+03  0.99621478016E+03  0.00000000000E+00 0.  1.
<mgrwt>
<rscale>  0 0.14445263E+04</rscale>
<asrwt>0</asrwt>
<pdfrwt beam="1">  1        1 0.18661824E+00 0.14445263E+04</pdfrwt>
<pdfrwt beam="2">  1       -1 0.66162225E-01 0.14445263E+04</pdfrwt>
<totfact> 0.23516777E+01</totfact>
</mgrwt>
</event>
<event>
12    1  0.1755460E-007  0.1868725E+04  0.7818608E-02  0.8670582E-01
          1   -1    0    0  501    0  0.00000000000E+00  0.00000000000E+00  0.13980869006E+04  0.13980869006E+04  0.00000000000E+00 0. -1.
         -1   -1    0    0    0  501 -0.00000000000E+00 -0.00000000000E+00 -0.62444861048E+03  0.62444861048E+03  0.00000000000E+00 0.  1.
         23    2    1    2    0    0  0.87608762635E+02 -0.57962021105E+03  0.74000078706E+03  0.94833514648E+03  0.90019447057E+02 0.  0.
        254    2    1    2    0    0 -0.87608762635E+02  0.57962021105E+03  0.33637503041E+02  0.10742003646E+04  0.89952212721E+03 0.  0.
        -24    2    4    4    0    0 -0.37196730921E+03 -0.15017322459E+02  0.13193803244E+03  0.40298396443E+03  0.80020197993E+02 0.  0.
         24    2    4    4    0    0  0.28435854657E+03  0.59463753351E+03 -0.98300529397E+02  0.67121640017E+03  0.80092961663E+02 0.  0.
         13    1    3    3    0    0  0.10724655218E+02 -0.23651997848E+03  0.24045015363E+03  0.33745072949E+03  0.00000000000E+00 0.  1.
        -13    1    3    3    0    0  0.76884107417E+02 -0.34310023256E+03  0.49955063344E+03  0.61088441699E+03  0.00000000000E+00 0. -1.
          2    1    6    6  502    0  0.25832222680E+03  0.52333732504E+03 -0.61472068949E+02  0.58684848462E+03  0.00000000000E+00 0. -1.
          3    1    5    5  503    0 -0.21822434143E+03 -0.35962010378E+02  0.10749610537E+03  0.24590758844E+03  0.00000000000E+00 0. -1.
         -4    1    5    5    0  503 -0.15374296778E+03  0.20944687919E+02  0.24441927065E+02  0.15707637599E+03  0.00000000000E+00 0.  1.
         -1    1    6    6    0  502  0.26036319774E+02  0.71300208465E+02 -0.36828460449E+02  0.84367915546E+02  0.00000000000E+00 0.  1.
<mgrwt>
<rscale>  0 0.18687252E+04</rscale>
<asrwt>0</asrwt>
<pdfrwt beam="1">  1        1 0.21509029E+00 0.18687252E+04</pdfrwt>
<pdfrwt beam="2">  1       -1 0.96069018E-01 0.18687252E+04</pdfrwt>
<totfact> 0.75485186E+00</totfact>
</mgrwt>
</event>
<event>
12    1  0.1755460E-007  0.1403323E+04  0.7818608E-02  0.8951417E-01
         -2   -1    0    0    0  501 -0.00000000000E+00  0.00000000000E+00  0.23327944660E+03  0.23327944660E+03  0.00000000000E+00 0.  1.
          2   -1    0    0  501    0  0.00000000000E+00 -0.00000000000E+00 -0.21104687934E+04  0.21104687934E+04  0.00000000000E+00 0. -1.
         23    2    1    2    0    0 -0.67062674558E+02  0.75255241186E+02  0.98879608798E+02  0.16801921234E+03  0.91063302343E+02 0.  0.
        254    2    1    2    0    0  0.67062674558E+02 -0.75255241186E+02 -0.19760689556E+04  0.21757290277E+04  0.90486879208E+03 0.  0.
        -24    2    4    4    0    0 -0.26876784894E+02 -0.38525893224E+03 -0.38842819108E+03  0.55340071841E+03  0.78924578384E+02 0.  0.
         24    2    4    4    0    0  0.93939459452E+02  0.31000369105E+03 -0.15876407645E+04  0.16223283093E+04  0.80118882474E+02 0.  0.
         13    1    3    3    0    0  0.71031796353E+01  0.59405257112E+02  0.47838676634E+02  0.76602733081E+02  0.00000000000E+00 0. -1.
        -13    1    3    3    0    0 -0.74165854193E+02  0.15849984074E+02  0.51040932164E+02  0.91416479256E+02  0.00000000000E+00 0.  1.
          2    1    6    6  502    0  0.87069791137E+01  0.49172780148E+01 -0.14381268530E+03  0.14415990969E+03  0.00000000000E+00 0. -1.
          1    1    5    5  503    0 -0.13814143686E+02 -0.12552169300E+03 -0.77978918808E+02  0.14841575980E+03  0.00000000000E+00 0. -1.
         -2    1    5    5    0  503 -0.13062641208E+02 -0.25973723924E+03 -0.31044927227E+03  0.40498495860E+03  0.00000000000E+00 0.  1.
         -1    1    6    6    0  502  0.85232480338E+02  0.30508641304E+03 -0.14438280792E+04  0.14781683996E+04  0.00000000000E+00 0.  1.
<mgrwt>
<rscale>  0 0.14033232E+04</rscale>
<asrwt>0</asrwt>
<pdfrwt beam="1">  1        2 0.32468750E+00 0.14033232E+04</pdfrwt>
<pdfrwt beam="2">  1       -2 0.35889147E-01 0.14033232E+04</pdfrwt>
<totfact> 0.41227189E+01</totfact>
</mgrwt>
</event>
<event>
12    1  0.1755460E-007  0.1176727E+04  0.7818608E-02  0.9133475E-01
         -2   -1    0    0    0  501 -0.00000000000E+00  0.00000000000E+00  0.17126157025E+03  0.17126157025E+03  0.00000000000E+00 0.  1.
          2   -1    0    0  501    0  0.00000000000E+00 -0.00000000000E+00 -0.20213038786E+04  0.20213038786E+04  0.00000000000E+00 0. -1.
         23    2    1    2    0    0  0.93160695422E+02 -0.67804104542E+02 -0.10445933422E+04  0.10547499099E+04  0.89698440187E+02 0.  0.
        254    2    1    2    0    0 -0.93160695422E+02  0.67804104542E+02 -0.80544896614E+03  0.11378155389E+04  0.79536145980E+03 0.  0.
        -24    2    4    4    0    0 -0.34797227358E+03  0.27875203462E+03 -0.36778744325E+03  0.58313837408E+03  0.77429709589E+02 0.  0.
         24    2    4    4    0    0  0.25481157816E+03 -0.21094793008E+03 -0.43766152289E+03  0.55467716482E+03  0.81799627065E+02 0.  0.
         13    1    3    3    0    0  0.25370091189E+02 -0.57193402611E+02 -0.27143760816E+03  0.27855538400E+03  0.00000000000E+00 0. -1.
        -13    1    3    3    0    0  0.67790604233E+02 -0.10610701931E+02 -0.77315573401E+03  0.77619452591E+03  0.00000000000E+00 0.  1.
          4    1    6    6  502    0  0.14292211426E+03 -0.83664822743E+02 -0.26682686813E+03  0.31404316720E+03  0.00000000000E+00 0. -1.
          3    1    5    5  503    0 -0.11235518330E+03  0.57875883425E+02 -0.73466366540E+02  0.14618690813E+03  0.00000000000E+00 0. -1.
         -4    1    5    5    0  503 -0.23561709028E+03  0.22087615119E+03 -0.29432107671E+03  0.43695146594E+03  0.00000000000E+00 0.  1.
         -3    1    6    6    0  502  0.11188946389E+03 -0.12728310733E+03 -0.17083465476E+03  0.24063399762E+03  0.00000000000E+00 0.  1.
<mgrwt>
<rscale>  0 0.11767271E+04</rscale>
<asrwt>0</asrwt>
<pdfrwt beam="1">  1        2 0.31096983E+00 0.11767271E+04</pdfrwt>
<pdfrwt beam="2">  1       -2 0.26347934E-01 0.11767271E+04</pdfrwt>
<totfact> 0.83894188E+01</totfact>
</mgrwt>
</event>
<event>
12    1  0.1755460E-007  0.1955353E+04  0.7818608E-02  0.8627784E-01
         -1   -1    0    0    0  501 -0.00000000000E+00  0.00000000000E+00  0.40137714875E+03  0.40137714875E+03  0.00000000000E+00 0.  1.
          1   -1    0    0  501    0  0.00000000000E+00 -0.00000000000E+00 -0.23814294366E+04  0.23814294366E+04  0.00000000000E+00 0. -1.
         23    2    1    2    0    0  0.26208818083E+03  0.27050575129E+03 -0.17329621619E+04  0.17757690626E+04  0.91292569146E+02 0.  0.
        254    2    1    2    0    0 -0.26208818083E+03 -0.27050575129E+03 -0.24709012596E+03  0.10070375227E+04  0.90067056454E+03 0.  0.
        -24    2    4    4    0    0 -0.30154664952E+03 -0.55491311019E+03 -0.30191823058E+03  0.70475049612E+03  0.81606998028E+02 0.  0.
         24    2    4    4    0    0  0.39458468689E+02  0.28440735890E+03  0.54828104620E+02  0.30228702661E+03  0.76985770458E+02 0.  0.
         11    1    3    3    0    0  0.20535809087E+03  0.21665237797E+03 -0.15166589766E+04  0.15457569827E+04  0.00000000000E+00 0. -1.
        -11    1    3    3    0    0  0.56730089957E+02  0.53853373314E+02 -0.21630318528E+03  0.23001207987E+03  0.00000000000E+00 0.  1.
          4    1    6    6  502    0 -0.98537379085E+01  0.28726481638E+02 -0.13262114047E+02  0.33138958449E+02  0.00000000000E+00 0. -1.
          3    1    5    5  503    0 -0.14929433658E+03 -0.22917027158E+03 -0.92967675961E+02  0.28887852306E+03  0.00000000000E+00 0. -1.
         -4    1    5    5    0  503 -0.15225231293E+03 -0.32574283861E+03 -0.20895055462E+03  0.41587197306E+03  0.00000000000E+00 0.  1.
         -3    1    6    6    0  502  0.49312206598E+02  0.25568087726E+03  0.68090218668E+02  0.26914806816E+03  0.00000000000E+00 0.  1.
<mgrwt>
<rscale>  0 0.19553530E+04</rscale>
<asrwt>0</asrwt>
<pdfrwt beam="1">  1        1 0.36637376E+00 0.19553530E+04</pdfrwt>
<pdfrwt beam="2">  1       -1 0.61750331E-01 0.19553530E+04</pdfrwt>
<totfact> 0.40543600E+00</totfact>
</mgrwt>
</event>
<event>
12    1  0.1755460E-007  0.1921653E+04  0.7818608E-02  0.8644153E-01
          1   -1    0    0  501    0  0.00000000000E+00  0.00000000000E+00  0.33703770481E+04  0.33703770481E+04  0.00000000000E+00 0. -1.
         -1   -1    0    0    0  501 -0.00000000000E+00 -0.00000000000E+00 -0.27391220116E+03  0.27391220116E+03  0.00000000000E+00 0.  1.
         23    2    1    2    0    0  0.31465290493E+03 -0.47450087168E+03  0.29473561626E+03  0.64745631353E+03  0.90405014388E+02 0.  0.
        254    2    1    2    0    0 -0.31465290493E+03  0.47450087168E+03  0.28017292306E+04  0.29968329357E+04  0.89842274838E+03 0.  0.
        -24    2    4    4    0    0 -0.61073709385E+03  0.39209154112E+03  0.16994021518E+04  0.18496316844E+04  0.80212964817E+02 0.  0.
         24    2    4    4    0    0  0.29608418891E+03  0.82409330553E+02  0.11023270788E+04  0.11472012513E+04  0.80551708147E+02 0.  0.
         11    1    3    3    0    0  0.65250471183E+02 -0.10817294007E+03  0.25383023485E+02  0.12885381963E+03  0.00000000000E+00 0. -1.
        -11    1    3    3    0    0  0.24940243375E+03 -0.36632793161E+03  0.26935259277E+03  0.51860249389E+03  0.00000000000E+00 0.  1.
          2    1    6    6  502    0  0.25970239344E+03  0.41860771284E+02  0.92763672649E+03  0.96421343781E+03  0.00000000000E+00 0. -1.
          3    1    5    5  503    0 -0.35613898716E+03  0.27297204533E+03  0.10736743137E+04  0.11636688737E+04  0.00000000000E+00 0. -1.
         -4    1    5    5    0  503 -0.25459810669E+03  0.11911949579E+03  0.62572783820E+03  0.68596281073E+03  0.00000000000E+00 0.  1.
         -1    1    6    6    0  502  0.36381795477E+02  0.40548559269E+02  0.17469035230E+03  0.18298781350E+03  0.00000000000E+00 0.  1.
<mgrwt>
<rscale>  0 0.19216528E+04</rscale>
<asrwt>0</asrwt>
<pdfrwt beam="1">  1        1 0.51851952E+00 0.19216528E+04</pdfrwt>
<pdfrwt beam="2">  1       -1 0.42140341E-01 0.19216528E+04</pdfrwt>
<totfact> 0.16369252E+00</totfact>
</mgrwt>
</event>
<event>
12    1  0.1755460E-007  0.1687981E+04  0.7818608E-02  0.8768249E-01
          1   -1    0    0  501    0  0.00000000000E+00  0.00000000000E+00  0.62694023865E+03  0.62694023865E+03  0.00000000000E+00 0. -1.
         -1   -1    0    0    0  501 -0.00000000000E+00 -0.00000000000E+00 -0.11361841603E+04  0.11361841603E+04  0.00000000000E+00 0.  1.
         23    2    1    2    0    0  0.19352214351E+03  0.31544979992E+03  0.30930234337E+03  0.49093073744E+03  0.91573211426E+02 0.  0.
        254    2    1    2    0    0 -0.19352214351E+03 -0.31544979992E+03 -0.81854626501E+03  0.12721936615E+04  0.90083257496E+03 0.  0.
        -24    2    4    4    0    0 -0.15199997962E+03 -0.16188814240E+03  0.15508013412E+03  0.28249131443E+03  0.80247930026E+02 0.  0.
         24    2    4    4    0    0 -0.41522163888E+02 -0.15356165752E+03 -0.97362639913E+03  0.98970234707E+03  0.79101820241E+02 0.  0.
         13    1    3    3    0    0  0.12515161004E+03  0.12101431486E+03  0.12359925476E+03  0.21350448631E+03  0.00000000000E+00 0.  1.
        -13    1    3    3    0    0  0.68370533471E+02  0.19443548505E+03  0.18570308862E+03  0.27742625113E+03  0.00000000000E+00 0. -1.
          4    1    6    6  502    0  0.13957131912E+02 -0.13532490938E+01 -0.12206282888E+03  0.12286564617E+03  0.00000000000E+00 0. -1.
          1    1    5    5  503    0 -0.76693919986E+01 -0.50032545472E+02  0.53028830221E+02  0.73308471643E+02  0.00000000000E+00 0. -1.
         -2    1    5    5    0  503 -0.14433058762E+03 -0.11185559693E+03  0.10205130390E+03  0.20918284279E+03  0.00000000000E+00 0.  1.
         -3    1    6    6    0  502 -0.55479295800E+02 -0.15220840842E+03 -0.85156357024E+03  0.86683670090E+03  0.00000000000E+00 0.  1.
<mgrwt>
<rscale>  0 0.16879805E+04</rscale>
<asrwt>0</asrwt>
<pdfrwt beam="1">  1        1 0.96452346E-01 0.16879805E+04</pdfrwt>
<pdfrwt beam="2">  1       -1 0.17479756E+00 0.16879805E+04</pdfrwt>
<totfact> 0.69443424E+00</totfact>
</mgrwt>
</event>
<event>
12    1  0.1755460E-007  0.1567870E+04  0.7818608E-02  0.8840533E-01
          2   -1    0    0  501    0  0.00000000000E+00  0.00000000000E+00  0.19399327586E+04  0.19399327586E+04  0.00000000000E+00 0. -1.
         -2   -1    0    0    0  501 -0.00000000000E+00 -0.00000000000E+00 -0.31679162487E+03  0.31679162487E+03  0.00000000000E+00 0.  1.
         23    2    1    2    0    0 -0.49056089776E+02  0.31898203735E+01  0.12898650096E+04  0.12940381925E+04  0.91468167353E+02 0.  0.
        254    2    1    2    0    0  0.49056089776E+02 -0.31898203735E+01  0.33327612406E+03  0.96268619095E+03  0.90181763815E+03 0.  0.
        -24    2    4    4    0    0  0.15167351869E+03 -0.13091798138E+03  0.60111331794E+03  0.63865293940E+03  0.79974882815E+02 0.  0.
         24    2    4    4    0    0 -0.10261742891E+03  0.12772816101E+03 -0.26783719388E+03  0.32403325155E+03  0.80099724425E+02 0.  0.
         13    1    3    3    0    0  0.72964655052E+01 -0.19301496346E+02  0.82153704243E+03  0.82179614155E+03  0.00000000000E+00 0. -1.
        -13    1    3    3    0    0 -0.56352555281E+02  0.22491316720E+02  0.46832796719E+03  0.47224205093E+03  0.00000000000E+00 0.  1.
          2    1    6    6  502    0 -0.31644309304E+02 -0.45102485557E+01 -0.39912027423E+02  0.51133888825E+02  0.00000000000E+00 0. -1.
          3    1    5    5  503    0  0.12657005303E+02 -0.51933030710E+02  0.19515306380E+03  0.20234119149E+03  0.00000000000E+00 0. -1.
         -4    1    5    5    0  503  0.13901651339E+03 -0.78984950671E+02  0.40596025413E+03  0.43631174791E+03  0.00000000000E+00 0.  1.
         -1    1    6    6    0  502 -0.70973119611E+02  0.13223840956E+03 -0.22792516646E+03  0.27289936273E+03  0.00000000000E+00 0.  1.
<mgrwt>
<rscale>  0 0.15678705E+04</rscale>
<asrwt>0</asrwt>
<pdfrwt beam="1">  1        2 0.29845119E+00 0.15678705E+04</pdfrwt>
<pdfrwt beam="2">  1       -2 0.48737174E-01 0.15678705E+04</pdfrwt>
<totfact> 0.27656284E+01</totfact>
</mgrwt>
</event>
<event>
12    1  0.1755460E-007  0.1827351E+04  0.7818608E-02  0.8691888E-01
          1   -1    0    0  501    0  0.00000000000E+00  0.00000000000E+00  0.92958290777E+03  0.92958290777E+03  0.00000000000E+00 0. -1.
         -1   -1    0    0    0  501 -0.00000000000E+00 -0.00000000000E+00 -0.89803995534E+03  0.89803995534E+03  0.00000000000E+00 0.  1.
         23    2    1    2    0    0 -0.27398294293E+03 -0.16870489013E+02  0.64002816655E+03  0.70459822873E+03  0.10710435813E+03 0.  0.
        254    2    1    2    0    0  0.27398294293E+03  0.16870489013E+02 -0.60848521412E+03  0.11230246344E+04  0.90309401902E+03 0.  0.
        -24    2    4    4    0    0 -0.29325857073E+03  0.17184267600E+03 -0.22875475371E+03  0.41833115539E+03  0.84508719183E+02 0.  0.
         24    2    4    4    0    0  0.56724151366E+03 -0.15497218699E+03 -0.37973046042E+03  0.70469347899E+03  0.81353323232E+02 0.  0.
         11    1    3    3    0    0 -0.10012918327E-01  0.11421194011E+02  0.76653231822E+02  0.77499430460E+02  0.00000000000E+00 0.  1.
        -11    1    3    3    0    0 -0.27397293001E+03 -0.28291683024E+02  0.56337493473E+03  0.62709879827E+03  0.00000000000E+00 0. -1.
          2    1    6    6  502    0  0.51556405047E+03 -0.16185836228E+03 -0.33340881131E+03  0.63495342746E+03  0.00000000000E+00 0. -1.
          3    1    5    5  503    0 -0.28079845096E+03  0.13717972326E+03 -0.21339612594E+03  0.37842298173E+03  0.00000000000E+00 0. -1.
         -4    1    5    5    0  503 -0.12460119780E+02  0.34662952747E+02 -0.15358627766E+02  0.39908173661E+02  0.00000000000E+00 0.  1.
         -1    1    6    6    0  502  0.51677463192E+02  0.68861752942E+01 -0.46321649104E+02  0.69740051533E+02  0.00000000000E+00 0.  1.
<mgrwt>
<rscale>  0 0.18273506E+04</rscale>
<asrwt>0</asrwt>
<pdfrwt beam="1">  1        1 0.14301276E+00 0.18273506E+04</pdfrwt>
<pdfrwt beam="2">  1       -1 0.13815999E+00 0.18273506E+04</pdfrwt>
<totfact> 0.70323517E+00</totfact>
</mgrwt>
</event>
<event>
12    1  0.1755460E-007  0.2041670E+04  0.7818608E-02  0.8587383E-01
          2   -1    0    0  501    0  0.00000000000E+00  0.00000000000E+00  0.26548063608E+04  0.26548063608E+04  0.00000000000E+00 0. -1.
         -2   -1    0    0    0  501 -0.00000000000E+00 -0.00000000000E+00 -0.39253493543E+03  0.39253493543E+03  0.00000000000E+00 0.  1.
         23    2    1    2    0    0  0.47350868094E+03 -0.62820702416E+03  0.55356197583E+03  0.96621332623E+03  0.91009859823E+02 0.  0.
        254    2    1    2    0    0 -0.47350868094E+03  0.62820702416E+03  0.17087094495E+04  0.20811279700E+04  0.89025339561E+03 0.  0.
        -24    2    4    4    0    0 -0.52889334939E+03  0.79393626366E+03  0.15848973869E+04  0.18515257159E+04  0.78643396479E+02 0.  0.
         24    2    4    4    0    0  0.55384668452E+02 -0.16572923950E+03  0.12381206261E+03  0.22960225408E+03  0.82789648521E+02 0.  0.
         13    1    3    3    0    0  0.14748813733E+03 -0.14583007952E+03  0.17851907991E+03  0.27365712970E+03  0.00000000000E+00 0. -1.
        -13    1    3    3    0    0  0.32602054360E+03 -0.48237694464E+03  0.37504289592E+03  0.69255619653E+03  0.00000000000E+00 0.  1.
          4    1    6    6  502    0  0.60463833054E+02 -0.15683778824E+03  0.82885114472E+02  0.18741373783E+03  0.00000000000E+00 0. -1.
          3    1    5    5  503    0 -0.31897224464E+03  0.41413459011E+03  0.89629441095E+03  0.10375906817E+04  0.00000000000E+00 0. -1.
         -2    1    5    5    0  503 -0.20992110475E+03  0.37980167355E+03  0.68860297598E+03  0.81393503425E+03  0.00000000000E+00 0.  1.
         -3    1    6    6    0  502 -0.50791646022E+01 -0.88914512651E+01  0.40926948143E+02  0.42188516245E+02  0.00000000000E+00 0.  1.
<mgrwt>
<rscale>  0 0.20416701E+04</rscale>
<asrwt>0</asrwt>
<pdfrwt beam="1">  1        2 0.40843174E+00 0.20416701E+04</pdfrwt>
<pdfrwt beam="2">  1       -2 0.60389992E-01 0.20416701E+04</pdfrwt>
<totfact> 0.66876635E+00</totfact>
</mgrwt>
</event>
<event>
12    1  0.1755460E-007  0.1469944E+04  0.7818608E-02  0.8904689E-01
         -2   -1    0    0    0  501 -0.00000000000E+00  0.00000000000E+00  0.16622813217E+03  0.16622813217E+03  0.00000000000E+00 0. -1.
          2   -1    0    0  501    0  0.00000000000E+00 -0.00000000000E+00 -0.32496555236E+04  0.32496555236E+04  0.00000000000E+00 0.  1.
         23    2    1    2    0    0  0.32654410632E+03 -0.28580784536E+03 -0.66012433980E+03  0.79473517382E+03  0.86733353852E+02 0.  0.
        254    2    1    2    0    0 -0.32654410632E+03  0.28580784536E+03 -0.24233030517E+04  0.26211484820E+04  0.89983582199E+03 0.  0.
        -24    2    4    4    0    0 -0.33710511785E+03 -0.23618154708E+03 -0.67487895670E+03  0.79455101673E+03  0.80175609359E+02 0.  0.
         24    2    4    4    0    0  0.10561011539E+02  0.52198939244E+03 -0.17484240950E+04  0.18265974653E+04  0.82988091873E+02 0.  0.
         13    1    3    3    0    0  0.26551741858E+03 -0.24856580314E+03 -0.59850618822E+03  0.70035285064E+03  0.00000000000E+00 0. -1.
        -13    1    3    3    0    0  0.61026687737E+02 -0.37242042224E+02 -0.61618151579E+02  0.94382323182E+02  0.00000000000E+00 0.  1.
          4    1    6    6  502    0  0.35170105290E+02  0.18969575640E+03 -0.72919853661E+03  0.75428901761E+03  0.00000000000E+00 0. -1.
          3    1    5    5  503    0 -0.25962000973E+03 -0.13728986805E+03 -0.46855639409E+03  0.55298838303E+03  0.00000000000E+00 0. -1.
         -2    1    5    5    0  503 -0.77485108122E+02 -0.98891679025E+02 -0.20632256261E+03  0.24156263370E+03  0.00000000000E+00 0.  1.
         -3    1    6    6    0  502 -0.24609093751E+02  0.33229363604E+03 -0.10192255584E+04  0.10723084476E+04  0.00000000000E+00 0.  1.
<mgrwt>
<rscale>  0 0.14699444E+04</rscale>
<asrwt>0</asrwt>
<pdfrwt beam="1">  1        2 0.49994702E+00 0.14699444E+04</pdfrwt>
<pdfrwt beam="2">  1       -2 0.25573558E-01 0.14699444E+04</pdfrwt>
<totfact> 0.16215862E+01</totfact>
</mgrwt>
</event>
<event>
12    1  0.1755460E-007  0.1792756E+04  0.7818608E-02  0.8710161E-01
         -1   -1    0    0    0  501 -0.00000000000E+00  0.00000000000E+00  0.37138828485E+03  0.37138828485E+03  0.00000000000E+00 0. -1.
          1   -1    0    0  501    0  0.00000000000E+00 -0.00000000000E+00 -0.21634861428E+04  0.21634861428E+04  0.00000000000E+00 0.  1.
         23    2    1    2    0    0  0.65586452418E+03 -0.42215584025E+02 -0.84041011342E+03  0.10704523314E+04  0.87399116413E+02 0.  0.
        254    2    1    2    0    0 -0.65586452418E+03  0.42215584025E+02 -0.95168774458E+03  0.14644220962E+04  0.89826615387E+03 0.  0.
        -24    2    4    4    0    0 -0.70173489080E+03 -0.25494065307E+03 -0.85626399159E+03  0.11388785448E+04  0.80185553177E+02 0.  0.
         24    2    4    4    0    0  0.45870366622E+02  0.29715623710E+03 -0.95423752983E+02  0.32554355146E+03  0.80417606789E+02 0.  0.
         11    1    3    3    0    0  0.39509022963E+03  0.73563386595E+01 -0.54678171446E+03  0.67462630288E+03  0.00000000000E+00 0. -1.
        -11    1    3    3    0    0  0.26077429455E+03 -0.49571922684E+02 -0.29362839896E+03  0.39582602856E+03  0.00000000000E+00 0.  1.
          4    1    6    6  502    0  0.35331132021E+01  0.15061687686E+03 -0.10645343168E+02  0.15103393597E+03  0.00000000000E+00 0. -1.
          3    1    5    5  503    0 -0.24224284481E+03 -0.95810212219E+02 -0.35703592758E+03  0.44196815067E+03  0.00000000000E+00 0. -1.
         -4    1    5    5    0  503 -0.45949204599E+03 -0.15913044085E+03 -0.49922806401E+03  0.69691039412E+03  0.00000000000E+00 0.  1.
         -3    1    6    6    0  502  0.42337253420E+02  0.14653936024E+03 -0.84778409815E+02  0.17450961548E+03  0.00000000000E+00 0.  1.
<mgrwt>
<rscale>  0 0.17927559E+04</rscale>
<asrwt>0</asrwt>
<pdfrwt beam="1">  1        1 0.33284402E+00 0.17927559E+04</pdfrwt>
<pdfrwt beam="2">  1       -1 0.57136659E-01 0.17927559E+04</pdfrwt>
<totfact> 0.67586660E+00</totfact>
</mgrwt>
</event>
<event>
12    1  0.1755460E-007  0.4293014E+04  0.7818608E-02  0.7947911E-01
         -1   -1    0    0    0  501 -0.00000000000E+00  0.00000000000E+00  0.18401972735E+04  0.18401972735E+04  0.00000000000E+00 0.  1.
          1   -1    0    0  501    0  0.00000000000E+00 -0.00000000000E+00 -0.25038031740E+04  0.25038031740E+04  0.00000000000E+00 0. -1.
         23    2    1    2    0    0  0.74852035960E+03 -0.18895159376E+04 -0.53371970486E+02  0.20352900599E+04  0.94888636876E+02 0.  0.
        254    2    1    2    0    0 -0.74852035960E+03  0.18895159376E+04 -0.61023392993E+03  0.23087103876E+04  0.90950810724E+03 0.  0.
        -24    2    4    4    0    0  0.59660749413E+02  0.18401447061E+03  0.16523228982E+03  0.26668665328E+03  0.79995818808E+02 0.  0.
         24    2    4    4    0    0 -0.80818110901E+03  0.17055014670E+04 -0.77546621975E+03  0.20420237343E+04  0.81370230617E+02 0.  0.
         13    1    3    3    0    0  0.19505907890E+03 -0.58198885453E+03  0.12323452872E+02  0.61393072781E+03  0.00000000000E+00 0.  1.
        -13    1    3    3    0    0  0.55346128071E+03 -0.13075270831E+04 -0.65695423358E+02  0.14213593321E+04  0.00000000000E+00 0. -1.
          4    1    6    6  502    0 -0.59526718539E+03  0.12130506972E+04 -0.52055682771E+03  0.14480381303E+04  0.00000000000E+00 0. -1.
          3    1    5    5  503    0  0.72678508456E+02  0.12241889796E+03  0.13738587557E+03  0.19784698880E+03  0.00000000000E+00 0. -1.
         -4    1    5    5    0  503 -0.13017759043E+02  0.61595572643E+02  0.27846414246E+02  0.68839664482E+02  0.00000000000E+00 0.  1.
         -1    1    6    6    0  502 -0.21291392363E+03  0.49245076988E+03 -0.25490939204E+03  0.59398560401E+03  0.00000000000E+00 0.  1.
<mgrwt>
<rscale>  0 0.42930138E+04</rscale>
<asrwt>0</asrwt>
<pdfrwt beam="1">  1        1 0.38520049E+00 0.42930138E+04</pdfrwt>
<pdfrwt beam="2">  1       -1 0.28310727E+00 0.42930138E+04</pdfrwt>
<totfact> 0.43726642E-02</totfact>
</mgrwt>
</event>
<event>
12    1  0.1755460E-007  0.1170566E+04  0.7818608E-02  0.9139018E-01
          2   -1    0    0  501    0  0.00000000000E+00  0.00000000000E+00  0.19512348861E+04  0.19512348861E+04  0.00000000000E+00 0. -1.
         -2   -1    0    0    0  501 -0.00000000000E+00 -0.00000000000E+00 -0.17555853431E+03  0.17555853431E+03  0.00000000000E+00 0.  1.
         23    2    1    2    0    0  0.13852692972E+03  0.14718853475E+03  0.53492067782E+03  0.57929204224E+03  0.92655078776E+02 0.  0.
        254    2    1    2    0    0 -0.13852692972E+03 -0.14718853475E+03  0.12407556739E+04  0.15475013781E+04  0.90245869596E+03 0.  0.
        -24    2    4    4    0    0 -0.39074084822E+03 -0.36915648443E+03  0.95849218154E+03  0.11018601005E+04  0.80209092720E+02 0.  0.
         24    2    4    4    0    0  0.25221391850E+03  0.22196794968E+03  0.28226349240E+03  0.44564127763E+03  0.77729259757E+02 0.  0.
         11    1    3    3    0    0  0.88082717231E+01 -0.13065464230E+02  0.29689005345E+02  0.33611442168E+02  0.00000000000E+00 0.  1.
        -11    1    3    3    0    0  0.12971865800E+03  0.16025399898E+03  0.50523167247E+03  0.54568060007E+03  0.00000000000E+00 0. -1.
          4    1    6    6  502    0  0.18213744303E+03  0.11057176084E+03  0.16756141872E+03  0.27106639683E+03  0.00000000000E+00 0. -1.
          1    1    5    5  503    0 -0.37673451495E+03 -0.37156147100E+03  0.93728100443E+03  0.10763282505E+04  0.00000000000E+00 0. -1.
         -2    1    5    5    0  503 -0.14006333273E+02  0.24049865743E+01  0.21211177111E+02  0.25531850043E+02  0.00000000000E+00 0.  1.
         -3    1    6    6    0  502  0.70076475474E+02  0.11139618883E+03  0.11470207367E+03  0.17457488080E+03  0.00000000000E+00 0.  1.
<mgrwt>
<rscale>  0 0.11705656E+04</rscale>
<asrwt>0</asrwt>
<pdfrwt beam="1">  1        2 0.30018997E+00 0.11705656E+04</pdfrwt>
<pdfrwt beam="2">  1       -2 0.27009007E-01 0.11705656E+04</pdfrwt>
<totfact> 0.87689808E+01</totfact>
</mgrwt>
</event>
<event>
12    1  0.1755460E-007  0.1773789E+04  0.7818608E-02  0.8720363E-01
          2   -1    0    0  501    0  0.00000000000E+00  0.00000000000E+00  0.25261124155E+04  0.25261124155E+04  0.00000000000E+00 0. -1.
         -2   -1    0    0    0  501 -0.00000000000E+00 -0.00000000000E+00 -0.31138053612E+03  0.31138053612E+03  0.00000000000E+00 0.  1.
         23    2    1    2    0    0 -0.41235758064E+03 -0.19342258239E+03  0.72379100544E+02  0.46994861693E+03  0.90343227030E+02 0.  0.
        254    2    1    2    0    0  0.41235758064E+03  0.19342258239E+03  0.21423527788E+04  0.23675443346E+04  0.89896589371E+03 0.  0.
        -24    2    4    4    0    0  0.51718353151E+03 -0.16858750836E+03  0.16706149184E+04  0.17586980640E+04  0.78511917989E+02 0.  0.
         24    2    4    4    0    0 -0.10482595088E+03  0.36201009075E+03  0.47173786035E+03  0.60884627067E+03  0.78213724125E+02 0.  0.
         13    1    3    3    0    0 -0.38427825058E+03 -0.20307413298E+03  0.66882744479E+02  0.43975240632E+03  0.00000000000E+00 0. -1.
        -13    1    3    3    0    0 -0.28079330059E+02  0.96515505881E+01  0.54963560654E+01  0.30196210612E+02  0.00000000000E+00 0.  1.
          4    1    6    6  502    0 -0.82437814934E+02  0.34755289133E+03  0.42626394966E+03  0.55613843635E+03  0.00000000000E+00 0. -1.
          1    1    5    5  503    0  0.39890407969E+03 -0.16207609004E+03  0.13422048671E+04  0.14095768971E+04  0.00000000000E+00 0. -1.
         -2    1    5    5    0  503  0.11827945182E+03 -0.65114183183E+01  0.32841005136E+03  0.34912116683E+03  0.00000000000E+00 0.  1.
         -3    1    6    6    0  502 -0.22388135942E+02  0.14457199427E+02  0.45473910688E+02  0.52707834327E+02  0.00000000000E+00 0.  1.
<mgrwt>
<rscale>  0 0.17737894E+04</rscale>
<asrwt>0</asrwt>
<pdfrwt beam="1">  1        2 0.38863267E+00 0.17737894E+04</pdfrwt>
<pdfrwt beam="2">  1       -2 0.47904700E-01 0.17737894E+04</pdfrwt>
<totfact> 0.13148448E+01</totfact>
</mgrwt>
</event>
<event>
12    1  0.1755460E-007  0.2143912E+04  0.7818608E-02  0.8542143E-01
         -2   -1    0    0    0  501 -0.00000000000E+00  0.00000000000E+00  0.61046804763E+03  0.61046804763E+03  0.00000000000E+00 0.  1.
          2   -1    0    0  501    0  0.00000000000E+00 -0.00000000000E+00 -0.18823093600E+04  0.18823093600E+04  0.00000000000E+00 0. -1.
         23    2    1    2    0    0  0.64273116233E+03  0.35561510991E+03  0.17351709472E+02  0.74019813357E+03  0.89592085001E+02 0.  0.
        254    2    1    2    0    0 -0.64273116233E+03 -0.35561510991E+03 -0.12891930219E+04  0.17525792741E+04  0.93271110797E+03 0.  0.
        -24    2    4    4    0    0 -0.51100421604E+03 -0.61892191587E+03 -0.62093265253E+03  0.10180116639E+04  0.81244951860E+02 0.  0.
         24    2    4    4    0    0 -0.13172694629E+03  0.26330680597E+03 -0.66826036936E+03  0.73456761016E+03  0.79593908012E+02 0.  0.
         11    1    3    3    0    0  0.32121813067E+03  0.20542640108E+03 -0.28664584532E+02  0.38236468474E+03  0.00000000000E+00 0.  1.
        -11    1    3    3    0    0  0.32151303166E+03  0.15018870883E+03  0.46016294004E+02  0.35783344883E+03  0.00000000000E+00 0. -1.
          4    1    6    6  502    0 -0.70957850059E+02  0.95228794076E+02 -0.19066090674E+03  0.22462217403E+03  0.00000000000E+00 0. -1.
          1    1    5    5  503    0  0.28189952885E+00 -0.63234509462E+01 -0.14394816037E+02  0.15725019172E+02  0.00000000000E+00 0. -1.
         -2    1    5    5    0  503 -0.51128611557E+03 -0.61259846493E+03 -0.60653783649E+03  0.10022866448E+04  0.00000000000E+00 0.  1.
         -3    1    6    6    0  502 -0.60769096230E+02  0.16807801189E+03 -0.47759946261E+03  0.50994543613E+03  0.00000000000E+00 0.  1.
<mgrwt>
<rscale>  0 0.21439121E+04</rscale>
<asrwt>0</asrwt>
<pdfrwt beam="1">  1        2 0.28958605E+00 0.21439121E+04</pdfrwt>
<pdfrwt beam="2">  1       -2 0.93918163E-01 0.21439121E+04</pdfrwt>
<totfact> 0.68271828E+00</totfact>
</mgrwt>
</event>
<event>
12    1  0.1755460E-007  0.1323087E+04  0.7818608E-02  0.9011455E-01
         -2   -1    0    0    0  501 -0.00000000000E+00  0.00000000000E+00  0.39906013172E+03  0.39906013172E+03  0.00000000000E+00 0.  1.
          2   -1    0    0  501    0  0.00000000000E+00 -0.00000000000E+00 -0.10966765316E+04  0.10966765316E+04  0.00000000000E+00 0. -1.
         23    2    1    2    0    0  0.21682603893E+03  0.24607801447E+03 -0.98977881878E+02  0.35440086881E+03  0.90749293910E+02 0.  0.
        254    2    1    2    0    0 -0.21682603893E+03 -0.24607801447E+03 -0.59863851802E+03  0.11413357945E+04  0.91471930134E+03 0.  0.
        -24    2    4    4    0    0 -0.43149507306E+03  0.18446030089E+03 -0.36969524100E+03  0.60264985805E+03  0.79364220562E+02 0.  0.
         24    2    4    4    0    0  0.21466903413E+03 -0.43053831537E+03 -0.22894327702E+03  0.53868593648E+03  0.79507728294E+02 0.  0.
         11    1    3    3    0    0  0.79288973269E+02  0.41733903688E+02 -0.18406469012E+01  0.89620577883E+02  0.00000000000E+00 0. -1.
        -11    1    3    3    0    0  0.13753706566E+03  0.20434411078E+03 -0.97137234977E+02  0.26478029092E+03  0.00000000000E+00 0.  1.
          2    1    6    6  502    0  0.14125430026E+03 -0.32978496717E+03 -0.13805765070E+03  0.38440969919E+03  0.00000000000E+00 0. -1.
          3    1    5    5  503    0 -0.39353813549E+03  0.14065878271E+03 -0.32759365643E+03  0.53101295744E+03  0.00000000000E+00 0. -1.
         -4    1    5    5    0  503 -0.37956937572E+02  0.43801518186E+02 -0.42101584568E+02  0.71636900605E+02  0.00000000000E+00 0.  1.
         -1    1    6    6    0  502  0.73414733864E+02 -0.10075334819E+03 -0.90885626321E+02  0.15427623729E+03  0.00000000000E+00 0.  1.
<mgrwt>
<rscale>  0 0.13230871E+04</rscale>
<asrwt>0</asrwt>
<pdfrwt beam="1">  1        2 0.16871946E+00 0.13230871E+04</pdfrwt>
<pdfrwt beam="2">  1       -2 0.61393867E-01 0.13230871E+04</pdfrwt>
<totfact> 0.52844919E+01</totfact>
</mgrwt>
</event>
<event>
12    1  0.1755460E-007  0.1939444E+04  0.7818608E-02  0.8635468E-01
          2   -1    0    0  501    0  0.00000000000E+00  0.00000000000E+00  0.26942480870E+04  0.26942480870E+04  0.00000000000E+00 0. -1.
         -2   -1    0    0    0  501 -0.00000000000E+00 -0.00000000000E+00 -0.34902523681E+03  0.34902523681E+03  0.00000000000E+00 0.  1.
         23    2    1    2    0    0  0.40741697931E+03 -0.34216675138E+03  0.72525021388E+02  0.54489126236E+03  0.92627902324E+02 0.  0.
        254    2    1    2    0    0 -0.40741697931E+03  0.34216675138E+03  0.22726978288E+04  0.24983820614E+04  0.89089327261E+03 0.  0.
        -24    2    4    4    0    0 -0.39424380738E+02 -0.10875962200E+03  0.15966680163E+04  0.16028696871E+04  0.80371279091E+02 0.  0.
         24    2    4    4    0    0 -0.36799259857E+03  0.45092637338E+03  0.67602981252E+03  0.89551237434E+03  0.78568176525E+02 0.  0.
         11    1    3    3    0    0  0.34749528409E+03 -0.26894079603E+03  0.90362381185E+02  0.44860615708E+03  0.00000000000E+00 0.  1.
        -11    1    3    3    0    0  0.59921695219E+02 -0.73225955346E+02 -0.17837359796E+02  0.96285105280E+02  0.00000000000E+00 0. -1.
          2    1    6    6  502    0  0.35342795770E+01  0.87852206209E+01  0.74999688028E+01  0.12079766783E+02  0.00000000000E+00 0. -1.
          1    1    5    5  503    0  0.64968259738E+01 -0.98335169370E+01  0.62313713161E+03  0.62324857930E+03  0.00000000000E+00 0. -1.
         -2    1    5    5    0  503 -0.45921206712E+02 -0.98926105058E+02  0.97353088466E+03  0.97962110781E+03  0.00000000000E+00 0.  1.
         -3    1    6    6    0  502 -0.37152687815E+03  0.44214115275E+03  0.66852984372E+03  0.88343260755E+03  0.00000000000E+00 0.  1.
<mgrwt>
<rscale>  0 0.19394438E+04</rscale>
<asrwt>0</asrwt>
<pdfrwt beam="1">  1        2 0.41449969E+00 0.19394438E+04</pdfrwt>
<pdfrwt beam="2">  1       -2 0.53696192E-01 0.19394438E+04</pdfrwt>
<totfact> 0.81768691E+00</totfact>
</mgrwt>
</event>
<event>
12    1  0.1755460E-007  0.1236844E+04  0.7818608E-02  0.9081205E-01
         -1   -1    0    0    0  501 -0.00000000000E+00  0.00000000000E+00  0.97455464683E+02  0.97455464683E+02  0.00000000000E+00 0.  1.
          1   -1    0    0  501    0  0.00000000000E+00 -0.00000000000E+00 -0.39243100655E+04  0.39243100655E+04  0.00000000000E+00 0. -1.
         23    2    1    2    0    0  0.16468417064E+03  0.17014697157E+01 -0.17618832153E+03  0.25768039643E+03  0.90736381908E+02 0.  0.
        254    2    1    2    0    0 -0.16468417064E+03 -0.17014697157E+01 -0.36506662792E+04  0.37640851337E+04  0.90213571060E+03 0.  0.
        -24    2    4    4    0    0  0.21081871206E+03 -0.31500817351E+03 -0.21406244520E+04  0.21752314887E+04  0.75394339908E+02 0.  0.
         24    2    4    4    0    0 -0.37550288270E+03  0.31330670379E+03 -0.15100418273E+04  0.15888536450E+04  0.71176396852E+02 0.  0.
         13    1    3    3    0    0  0.13243692427E+02 -0.22557933684E+02 -0.59401951985E+02  0.64906453152E+02  0.00000000000E+00 0. -1.
        -13    1    3    3    0    0  0.15144047822E+03  0.24259403400E+02 -0.11678636955E+03  0.19277394328E+03  0.00000000000E+00 0.  1.
          4    1    6    6  502    0 -0.34570100888E+03  0.30971131245E+03 -0.14138217676E+04  0.14880599031E+04  0.00000000000E+00 0. -1.
          3    1    5    5  503    0  0.19574817276E+03 -0.31099763720E+03 -0.20957863205E+04  0.21277587219E+04  0.00000000000E+00 0. -1.
         -4    1    5    5    0  503  0.15070539292E+02 -0.40105363050E+01 -0.44838131452E+02  0.47472766805E+02  0.00000000000E+00 0.  1.
         -3    1    6    6    0  502 -0.29801873822E+02  0.35953913433E+01 -0.96220059665E+02  0.10079374189E+03  0.00000000000E+00 0.  1.
<mgrwt>
<rscale>  0 0.12368435E+04</rscale>
<asrwt>0</asrwt>
<pdfrwt beam="1">  1        1 0.60374006E+00 0.12368435E+04</pdfrwt>
<pdfrwt beam="2">  1       -1 0.14993147E-01 0.12368435E+04</pdfrwt>
<totfact> 0.37419495E+00</totfact>
</mgrwt>
</event>
<event>
12    1  0.2631866E-007  0.1733677E+04  0.7818608E-02  0.8742387E-01
          2   -1    0    0  501    0  0.00000000000E+00  0.00000000000E+00  0.12688013168E+04  0.12688013168E+04  0.00000000000E+00 0. -1.
         -2   -1    0    0    0  501 -0.00000000000E+00 -0.00000000000E+00 -0.59221984455E+03  0.59221984455E+03  0.00000000000E+00 0.  1.
         23    2    1    2    0    0  0.34224259605E+02  0.58159908755E+03  0.47264506999E+03  0.75556607307E+03  0.89765973564E+02 0.  0.
        254    2    1    2    0    0 -0.34224259605E+02 -0.58159908755E+03  0.20393640228E+03  0.11054550883E+04  0.91706711723E+03 0.  0.
        -24    2    4    4    0    0 -0.34629677530E+03 -0.61875877158E+03 -0.14853217191E+02  0.71378698736E+03  0.80544219408E+02 0.  0.
         24    2    4    4    0    0  0.31207251569E+03  0.37159684028E+02  0.21878961948E+03  0.39166810095E+03  0.82249051945E+02 0.  0.
         13    1    3    3    0    0  0.28844098017E+02  0.44885329707E+03  0.31349571082E+03  0.54825251936E+03  0.00000000000E+00 0.  1.
        -13    1    3    3    0    0  0.53801615881E+01  0.13274579048E+03  0.15914935918E+03  0.20731355372E+03  0.00000000000E+00 0. -1.
          2    1    6    6  502    0  0.92110730496E+02  0.95345428450E+01  0.21873500451E+02  0.95151165005E+02  0.00000000000E+00 0. -1.
          3    1    5    5  503    0 -0.10398163879E+03 -0.17626929546E+03  0.31928890588E+02  0.20712918622E+03  0.00000000000E+00 0. -1.
         -4    1    5    5    0  503 -0.24231513650E+03 -0.44248947611E+03 -0.46782107779E+02  0.50665780114E+03  0.00000000000E+00 0.  1.
         -3    1    6    6    0  502  0.21996178519E+03  0.27625141183E+02  0.19691611902E+03  0.29651693595E+03  0.00000000000E+00 0.  1.
<mgrwt>
<rscale>  0 0.17336774E+04</rscale>
<asrwt>0</asrwt>
<pdfrwt beam="1">  1        2 0.19520020E+00 0.17336774E+04</pdfrwt>
<pdfrwt beam="2">  1       -2 0.91110746E-01 0.17336774E+04</pdfrwt>
<totfact> 0.16811678E+01</totfact>
</mgrwt>
</event>
<event>
12    1  0.1755460E-007  0.1392790E+04  0.7818608E-02  0.8959054E-01
         -2   -1    0    0    0  501 -0.00000000000E+00  0.00000000000E+00  0.40781205223E+03  0.40781205223E+03  0.00000000000E+00 0.  1.
          2   -1    0    0  501    0  0.00000000000E+00 -0.00000000000E+00 -0.11891895485E+04  0.11891895485E+04  0.00000000000E+00 0. -1.
         23    2    1    2    0    0  0.74996146774E+02  0.16584635751E+03 -0.54179020375E+03  0.57882195168E+03  0.91481093884E+02 0.  0.
        254    2    1    2    0    0 -0.74996146774E+02 -0.16584635751E+03 -0.23958729250E+03  0.10181796490E+04  0.97270668273E+03 0.  0.
        -24    2    4    4    0    0 -0.37392101264E+03 -0.43369682452E+03 -0.16532976481E+03  0.60149501309E+03  0.80947268938E+02 0.  0.
         24    2    4    4    0    0  0.29892486587E+03  0.26785046701E+03 -0.74257527699E+02  0.41668463594E+03  0.83737430661E+02 0.  0.
         11    1    3    3    0    0  0.50146917298E+02  0.16051970038E+03 -0.51558168337E+03  0.54231518488E+03  0.00000000000E+00 0. -1.
        -11    1    3    3    0    0  0.24849229476E+02  0.53266571282E+01 -0.26208520379E+02  0.36506766800E+02  0.00000000000E+00 0.  1.
          2    1    6    6  502    0  0.12341190111E+03  0.86109610491E+02  0.87645163034E+01  0.15073877769E+03  0.00000000000E+00 0. -1.
          3    1    5    5  503    0 -0.10040024067E+03 -0.13823137229E+03 -0.85416111244E+02  0.19100793877E+03  0.00000000000E+00 0. -1.
         -4    1    5    5    0  503 -0.27352077197E+03 -0.29546545222E+03 -0.79913653562E+02  0.41048707432E+03  0.00000000000E+00 0.  1.
         -1    1    6    6    0  502  0.17551296476E+03  0.18174085652E+03 -0.83022044002E+02  0.26594585825E+03  0.00000000000E+00 0.  1.
<mgrwt>
<rscale>  0 0.13927898E+04</rscale>
<asrwt>0</asrwt>
<pdfrwt beam="1">  1        2 0.18295224E+00 0.13927898E+04</pdfrwt>
<pdfrwt beam="2">  1       -2 0.62740316E-01 0.13927898E+04</pdfrwt>
<totfact> 0.44096700E+01</totfact>
</mgrwt>
</event>
<event>
12    1  0.1755460E-007  0.1414737E+04  0.7818608E-02  0.8943220E-01
         -1   -1    0    0    0  501 -0.00000000000E+00  0.00000000000E+00  0.59814606340E+03  0.59814606340E+03  0.00000000000E+00 0.  1.
          1   -1    0    0  501    0  0.00000000000E+00 -0.00000000000E+00 -0.83653524438E+03  0.83653524438E+03  0.00000000000E+00 0. -1.
         23    2    1    2    0    0  0.10435610312E+03 -0.33797526803E+03  0.15993722993E+03  0.39863750582E+03  0.90633688355E+02 0.  0.
        254    2    1    2    0    0 -0.10435610312E+03  0.33797526803E+03 -0.39832641092E+03  0.10360438020E+04  0.88859740710E+03 0.  0.
        -24    2    4    4    0    0 -0.16425952736E+03 -0.26324635019E+03 -0.25671474018E+03  0.41045581011E+03  0.79320117336E+02 0.  0.
         24    2    4    4    0    0  0.59903424238E+02  0.60122161822E+03 -0.14161167074E+03  0.62558799186E+03  0.79060836210E+02 0.  0.
         13    1    3    3    0    0  0.12056771336E+03 -0.30779095181E+03  0.13991794115E+03  0.35895525316E+03  0.00000000000E+00 0.  1.
        -13    1    3    3    0    0 -0.16211610231E+02 -0.30184316225E+02  0.20019288785E+02  0.39682252654E+02  0.00000000000E+00 0. -1.
          2    1    6    6  502    0  0.24083165819E+02  0.27713210829E+03 -0.10558551183E+03  0.29754076129E+03  0.00000000000E+00 0. -1.
          3    1    5    5  503    0 -0.13960895049E+02  0.14606767576E+01 -0.34053073859E+01  0.14444247490E+02  0.00000000000E+00 0. -1.
         -4    1    5    5    0  503 -0.15029863231E+03 -0.26470702694E+03 -0.25330943279E+03  0.39601156262E+03  0.00000000000E+00 0.  1.
         -1    1    6    6    0  502  0.35820258419E+02  0.32408950993E+03 -0.36026158910E+02  0.32804723057E+03  0.00000000000E+00 0.  1.
<mgrwt>
<rscale>  0 0.14147371E+04</rscale>
<asrwt>0</asrwt>
<pdfrwt beam="1">  1        1 0.12869773E+00 0.14147371E+04</pdfrwt>
<pdfrwt beam="2">  1       -1 0.92022471E-01 0.14147371E+04</pdfrwt>
<totfact> 0.23035464E+01</totfact>
</mgrwt>
</event>
<event>
12    1  0.1755460E-007  0.3521860E+04  0.7818608E-02  0.8108629E-01
         -1   -1    0    0    0  501 -0.00000000000E+00  0.00000000000E+00  0.10499072403E+04  0.10499072403E+04  0.00000000000E+00 0.  1.
          1   -1    0    0  501    0  0.00000000000E+00 -0.00000000000E+00 -0.29534739153E+04  0.29534739153E+04  0.00000000000E+00 0. -1.
         23    2    1    2    0    0 -0.61324915672E+03 -0.58027690221E+03  0.71468834891E+03  0.11097770824E+04  0.89609849559E+02 0.  0.
        254    2    1    2    0    0  0.61324915672E+03  0.58027690221E+03 -0.26182550239E+04  0.28936040732E+04  0.89715625790E+03 0.  0.
        -24    2    4    4    0    0  0.81188686366E+03  0.59065975771E+03 -0.22820741919E+04  0.24944371704E+04  0.79466665454E+02 0.  0.
         24    2    4    4    0    0 -0.19863770694E+03 -0.10382855501E+02 -0.33618083196E+03  0.39916690283E+03  0.82170081079E+02 0.  0.
         11    1    3    3    0    0 -0.13441816740E+03 -0.82864022534E+02  0.11617306701E+03  0.19603793372E+03  0.00000000000E+00 0. -1.
        -11    1    3    3    0    0 -0.47883098932E+03 -0.49741287968E+03  0.59851528190E+03  0.91373914870E+03  0.00000000000E+00 0.  1.
          2    1    6    6  502    0 -0.19137317891E+03 -0.27448044453E+02 -0.32290830819E+03  0.37636001946E+03  0.00000000000E+00 0. -1.
          3    1    5    5  503    0  0.66313635770E+03  0.50971514076E+03 -0.18463299601E+04  0.20269419516E+04  0.00000000000E+00 0. -1.
         -4    1    5    5    0  503  0.14875050596E+03  0.80944616950E+02 -0.43574423178E+03  0.46749521876E+03  0.00000000000E+00 0.  1.
         -1    1    6    6    0  502 -0.72645280341E+01  0.17065188952E+02 -0.13272523771E+02  0.22806883364E+02  0.00000000000E+00 0.  1.
<mgrwt>
<rscale>  0 0.35218595E+04</rscale>
<asrwt>0</asrwt>
<pdfrwt beam="1">  1        1 0.45438060E+00 0.35218595E+04</pdfrwt>
<pdfrwt beam="2">  1       -1 0.16152419E+00 0.35218595E+04</pdfrwt>
<totfact> 0.14966425E-01</totfact>
</mgrwt>
</event>
<event>
12    1  0.1755460E-007  0.1403833E+04  0.7818608E-02  0.8951049E-01
          2   -1    0    0  501    0  0.00000000000E+00  0.00000000000E+00  0.24899526561E+04  0.24899526561E+04  0.00000000000E+00 0. -1.
         -2   -1    0    0    0  501 -0.00000000000E+00 -0.00000000000E+00 -0.19786989248E+03  0.19786989248E+03  0.00000000000E+00 0.  1.
         23    2    1    2    0    0 -0.15368569317E+03 -0.37625882318E+03  0.68837405580E+03  0.80540629751E+03  0.98134953307E+02 0.  0.
        254    2    1    2    0    0  0.15368569317E+03  0.37625882318E+03  0.16037087078E+04  0.18824162511E+04  0.89800853471E+03 0.  0.
        -24    2    4    4    0    0  0.31611205262E+03  0.17225258190E+03  0.15640683303E+04  0.16068874245E+04  0.78610885048E+02 0.  0.
         24    2    4    4    0    0 -0.16242635945E+03  0.20400624129E+03  0.39640377516E+02  0.27552882660E+03  0.79648641103E+02 0.  0.
         11    1    3    3    0    0 -0.15580439524E+03 -0.37267144489E+03  0.69105823832E+03  0.80045018843E+03  0.00000000000E+00 0.  1.
        -11    1    3    3    0    0  0.21187020668E+01 -0.35873782905E+01 -0.26841825143E+01  0.49561090804E+01  0.00000000000E+00 0. -1.
          2    1    6    6  502    0 -0.34583405329E+02  0.62702438446E+02 -0.22565912233E+02  0.75078812632E+02  0.00000000000E+00 0. -1.
          3    1    5    5  503    0  0.49434674906E+02  0.49590459722E+01  0.14356110034E+03  0.15191500502E+03  0.00000000000E+00 0. -1.
         -4    1    5    5    0  503  0.26667737771E+03  0.16729353592E+03  0.14205072300E+04  0.14549724194E+04  0.00000000000E+00 0.  1.
         -1    1    6    6    0  502 -0.12784295412E+03  0.14130380284E+03  0.62206289748E+02  0.20045001397E+03  0.00000000000E+00 0.  1.
<mgrwt>
<rscale>  0 0.14038328E+04</rscale>
<asrwt>0</asrwt>
<pdfrwt beam="1">  1        2 0.38306962E+00 0.14038328E+04</pdfrwt>
<pdfrwt beam="2">  1       -2 0.30441524E-01 0.14038328E+04</pdfrwt>
<totfact> 0.34376629E+01</totfact>
</mgrwt>
</event>
<event>
12    1  0.1755460E-007  0.2599682E+04  0.7818608E-02  0.8368309E-01
         -1   -1    0    0    0  501 -0.00000000000E+00  0.00000000000E+00  0.16111279551E+04  0.16111279551E+04  0.00000000000E+00 0.  1.
          1   -1    0    0  501    0  0.00000000000E+00 -0.00000000000E+00 -0.10486977020E+04  0.10486977020E+04  0.00000000000E+00 0. -1.
         23    2    1    2    0    0  0.52165520214E+03  0.20965464096E+03  0.12634467234E+04  0.13857894348E+04  0.89641041973E+02 0.  0.
        254    2    1    2    0    0 -0.52165520214E+03 -0.20965464096E+03 -0.70101647036E+03  0.12740362222E+04  0.90314173051E+03 0.  0.
        -24    2    4    4    0    0 -0.45488078908E+03 -0.15864092708E+03  0.70496173231E+02  0.49382724831E+03  0.82535838977E+02 0.  0.
         24    2    4    4    0    0 -0.66774413062E+02 -0.51013713875E+02 -0.77151264359E+03  0.78020897390E+03  0.80206374357E+02 0.  0.
         11    1    3    3    0    0  0.19224676156E+03  0.72319836361E+02  0.36112702130E+03  0.41545360941E+03  0.00000000000E+00 0. -1.
        -11    1    3    3    0    0  0.32940844059E+03  0.13733480460E+03  0.90231970211E+03  0.97033582543E+03  0.00000000000E+00 0.  1.
          2    1    6    6  502    0 -0.66877658677E+02 -0.86667837180E+01 -0.33999404214E+03  0.34661748810E+03  0.00000000000E+00 0. -1.
          1    1    5    5  503    0 -0.96409662926E+02 -0.69856164109E+02  0.85361590610E+01  0.11936319693E+03  0.00000000000E+00 0. -1.
         -2    1    5    5    0  503 -0.35847112616E+03 -0.88784762973E+02  0.61960014170E+02  0.37446405139E+03  0.00000000000E+00 0.  1.
         -1    1    6    6    0  502  0.10324561531E+00 -0.42346930157E+02 -0.43151860145E+03  0.43359148579E+03  0.00000000000E+00 0.  1.
<mgrwt>
<rscale>  0 0.25996817E+04</rscale>
<asrwt>0</asrwt>
<pdfrwt beam="1">  1        1 0.16133811E+00 0.25996817E+04</pdfrwt>
<pdfrwt beam="2">  1       -1 0.24786584E+00 0.25996817E+04</pdfrwt>
<totfact> 0.87955639E-01</totfact>
</mgrwt>
</event>
<event>
12    1  0.1755460E-007  0.4130775E+04  0.7818608E-02  0.7978672E-01
         -1   -1    0    0    0  501 -0.00000000000E+00  0.00000000000E+00  0.11126747887E+04  0.11126747887E+04  0.00000000000E+00 0.  1.
          1   -1    0    0  501    0  0.00000000000E+00 -0.00000000000E+00 -0.38338478013E+04  0.38338478013E+04  0.00000000000E+00 0. -1.
         23    2    1    2    0    0  0.94774794107E+03 -0.13185021330E+04 -0.26235930496E+04  0.30867949377E+04  0.91588552751E+02 0.  0.
        254    2    1    2    0    0 -0.94774794107E+03  0.13185021330E+04 -0.97579962956E+02  0.18597276524E+04  0.90132738633E+03 0.  0.
        -24    2    4    4    0    0 -0.81019963314E+03  0.13126993960E+04  0.16446450886E+03  0.15533817048E+04  0.79642929864E+02 0.  0.
         24    2    4    4    0    0 -0.13754830793E+03  0.58027369337E+01 -0.26204447181E+03  0.30634594755E+03  0.78913405722E+02 0.  0.
         11    1    3    3    0    0  0.78784858421E+03 -0.11361407525E+04 -0.21874518788E+04  0.25877532577E+04  0.00000000000E+00 0. -1.
        -11    1    3    3    0    0  0.15989935686E+03 -0.18236138049E+03 -0.43614117088E+03  0.49904167998E+03  0.00000000000E+00 0.  1.
          4    1    6    6  502    0  0.12169787384E+01 -0.88503265868E+01 -0.60833965666E+02  0.61486426929E+02  0.00000000000E+00 0. -1.
          1    1    5    5  503    0 -0.75347979391E+03  0.12155188344E+04  0.13157259281E+03  0.14361508221E+04  0.00000000000E+00 0. -1.
         -2    1    5    5    0  503 -0.56719839227E+02  0.97180561611E+02  0.32891916051E+02  0.11723088270E+03  0.00000000000E+00 0.  1.
         -3    1    6    6    0  502 -0.13876528667E+03  0.14653063520E+02 -0.20121050615E+03  0.24485952062E+03  0.00000000000E+00 0.  1.
<mgrwt>
<rscale>  0 0.41307751E+04</rscale>
<asrwt>0</asrwt>
<pdfrwt beam="1">  1        1 0.58982274E+00 0.41307751E+04</pdfrwt>
<pdfrwt beam="2">  1       -1 0.17118074E+00 0.41307751E+04</pdfrwt>
<totfact> 0.24861859E-02</totfact>
</mgrwt>
</event>
<event>
12    1  0.1755460E-007  0.1326963E+04  0.7818608E-02  0.9008452E-01
          2   -1    0    0  501    0  0.00000000000E+00  0.00000000000E+00  0.10008549016E+04  0.10008549016E+04  0.00000000000E+00 0. -1.
         -2   -1    0    0    0  501 -0.00000000000E+00 -0.00000000000E+00 -0.43983183158E+03  0.43983183158E+03  0.00000000000E+00 0.  1.
         23    2    1    2    0    0  0.60398866014E+00  0.31678312504E+03  0.33452265484E+03  0.46880526452E+03  0.86724023940E+02 0.  0.
        254    2    1    2    0    0 -0.60398866014E+00 -0.31678312504E+03  0.22650041523E+03  0.97188146871E+03  0.89044889692E+03 0.  0.
        -24    2    4    4    0    0 -0.10426321429E+03  0.25573791254E+03  0.25465661211E+03  0.38418502110E+03  0.80470134693E+02 0.  0.
         24    2    4    4    0    0  0.10365922563E+03 -0.57252103758E+03 -0.28156196889E+02  0.58769644762E+03  0.77902307986E+02 0.  0.
         11    1    3    3    0    0 -0.26324694125E+02  0.13239050305E+03  0.93759283199E+02  0.16435035139E+03  0.00000000000E+00 0.  1.
        -11    1    3    3    0    0  0.26928682785E+02  0.18439262199E+03  0.24076337164E+03  0.30445491312E+03  0.00000000000E+00 0. -1.
          2    1    6    6  502    0 -0.10881359659E+02 -0.72377505484E+02  0.62182965289E+01  0.73454574397E+02  0.00000000000E+00 0. -1.
          3    1    5    5  503    0 -0.21691021659E+02  0.12797283936E+03  0.15569827569E+03  0.20270545402E+03  0.00000000000E+00 0. -1.
         -4    1    5    5    0  503 -0.82572192632E+02  0.12776507318E+03  0.98958336424E+02  0.18147956708E+03  0.00000000000E+00 0.  1.
         -1    1    6    6    0  502  0.11454058529E+03 -0.50014353209E+03 -0.34374493418E+02  0.51424187322E+03  0.00000000000E+00 0.  1.
<mgrwt>
<rscale>  0 0.13269632E+04</rscale>
<asrwt>0</asrwt>
<pdfrwt beam="1">  1        2 0.15397768E+00 0.13269632E+04</pdfrwt>
<pdfrwt beam="2">  1       -2 0.67666436E-01 0.13269632E+04</pdfrwt>
<totfact> 0.49270130E+01</totfact>
</mgrwt>
</event>
<event>
12    1  0.1755460E-007  0.1799354E+04  0.7818608E-02  0.8706643E-01
         -2   -1    0    0    0  501 -0.00000000000E+00  0.00000000000E+00  0.18018051773E+04  0.18018051773E+04  0.00000000000E+00 0.  1.
          2   -1    0    0  501    0  0.00000000000E+00 -0.00000000000E+00 -0.44922654931E+03  0.44922654931E+03  0.00000000000E+00 0. -1.
         23    2    1    2    0    0 -0.16188543133E+03  0.63078730113E+02 -0.27803713937E+03  0.34221793639E+03  0.98095086783E+02 0.  0.
        254    2    1    2    0    0  0.16188543133E+03 -0.63078730113E+02  0.16306157674E+04  0.19088137902E+04  0.97697312447E+03 0.  0.
        -24    2    4    4    0    0  0.55046620288E+03 -0.85769661390E+01  0.68830602617E+03  0.88495831326E+03  0.79368921393E+02 0.  0.
         24    2    4    4    0    0 -0.38858077155E+03 -0.54501763974E+02  0.94230974121E+03  0.10238554770E+04  0.79793051580E+02 0.  0.
         13    1    3    3    0    0 -0.10321777839E+03  0.37176514721E+02 -0.84932806287E+02  0.13874287227E+03  0.00000000000E+00 0.  1.
        -13    1    3    3    0    0 -0.58667652941E+02  0.25902215392E+02 -0.19310433308E+03  0.20347506412E+03  0.00000000000E+00 0. -1.
          4    1    6    6  502    0 -0.37508426143E+03 -0.67445288736E+02  0.88485656905E+03  0.96343563248E+03  0.00000000000E+00 0. -1.
          3    1    5    5  503    0  0.48676312090E+03  0.16327445594E+02  0.58729010093E+03  0.76296433993E+03  0.00000000000E+00 0. -1.
         -4    1    5    5    0  503  0.63703081981E+02 -0.24904411733E+02  0.10101592525E+03  0.12199397334E+03  0.00000000000E+00 0.  1.
         -3    1    6    6    0  502 -0.13496510122E+02  0.12943524762E+02  0.57453172159E+02  0.60419844504E+02  0.00000000000E+00 0.  1.
<mgrwt>
<rscale>  0 0.17993540E+04</rscale>
<asrwt>0</asrwt>
<pdfrwt beam="1">  1        2 0.69111778E-01 0.17993540E+04</pdfrwt>
<pdfrwt beam="2">  1       -2 0.27720079E+00 0.17993540E+04</pdfrwt>
<totfact> 0.28841021E+00</totfact>
</mgrwt>
</event>
<event>
12    1  0.1755460E-007  0.1074073E+04  0.7818608E-02  0.9230837E-01
         -2   -1    0    0    0  501 -0.00000000000E+00  0.00000000000E+00  0.46961987447E+03  0.46961987447E+03  0.00000000000E+00 0.  1.
          2   -1    0    0  501    0  0.00000000000E+00 -0.00000000000E+00 -0.61413084962E+03  0.61413084962E+03  0.00000000000E+00 0. -1.
         23    2    1    2    0    0 -0.71031984374E+02 -0.12129098445E+03  0.71807550626E+00  0.16813360166E+03  0.92256959961E+02 0.  0.
        254    2    1    2    0    0  0.71031984374E+02  0.12129098445E+03 -0.14522905066E+03  0.91561712243E+03  0.89303202183E+03 0.  0.
        -24    2    4    4    0    0  0.40865660730E+03  0.28210505368E+03  0.81541942408E+01  0.50287315969E+03  0.78939469573E+02 0.  0.
         24    2    4    4    0    0 -0.33762462292E+03 -0.16081406923E+03 -0.15338324490E+03  0.41274396274E+03  0.83544048824E+02 0.  0.
         13    1    3    3    0    0 -0.60873879086E+02 -0.11842360139E+03 -0.29278494334E+02  0.13633418042E+03  0.00000000000E+00 0. -1.
        -13    1    3    3    0    0 -0.10158105288E+02 -0.28673830579E+01  0.29996569840E+02  0.31799421234E+02  0.00000000000E+00 0.  1.
          2    1    6    6  502    0 -0.73851949105E+02 -0.31652422227E+02  0.22042254638E+01  0.80379380623E+02  0.00000000000E+00 0. -1.
          1    1    5    5  503    0  0.10239685571E+03  0.43831758461E+02 -0.22493393905E+02  0.11363226601E+03  0.00000000000E+00 0. -1.
         -2    1    5    5    0  503  0.30625975159E+03  0.23827329522E+03  0.30647588146E+02  0.38924089368E+03  0.00000000000E+00 0.  1.
         -1    1    6    6    0  502 -0.26377267382E+03 -0.12916164700E+03 -0.15558747037E+03  0.33236458212E+03  0.00000000000E+00 0.  1.
<mgrwt>
<rscale>  0 0.10740727E+04</rscale>
<asrwt>0</asrwt>
<pdfrwt beam="1">  1        2 0.94481669E-01 0.10740727E+04</pdfrwt>
<pdfrwt beam="2">  1       -2 0.72249212E-01 0.10740727E+04</pdfrwt>
<totfact> 0.83199534E+01</totfact>
</mgrwt>
</event>
<event>
12    1  0.1755460E-007  0.1744305E+04  0.7818608E-02  0.8736491E-01
          1   -1    0    0  501    0  0.00000000000E+00  0.00000000000E+00  0.90525336003E+03  0.90525336003E+03  0.00000000000E+00 0. -1.
         -1   -1    0    0    0  501 -0.00000000000E+00 -0.00000000000E+00 -0.84026210367E+03  0.84026210367E+03  0.00000000000E+00 0.  1.
         23    2    1    2    0    0 -0.43143294168E+03  0.11700653610E+03 -0.41983799996E+03  0.62002016488E+03  0.91302497165E+02 0.  0.
        254    2    1    2    0    0  0.43143294168E+03 -0.11700653610E+03  0.48482925632E+03  0.11254952988E+04  0.91206104360E+03 0.  0.
        -24    2    4    4    0    0  0.35413923157E+02 -0.36945165562E+03 -0.78187559488E+02  0.38783111460E+03  0.80938292544E+02 0.  0.
         24    2    4    4    0    0  0.39601901852E+03  0.25244511952E+03  0.56301681581E+03  0.73766418423E+03  0.81245999390E+02 0.  0.
         13    1    3    3    0    0 -0.27438956656E+03  0.29465271264E+02 -0.24015117355E+03  0.36582840596E+03  0.00000000000E+00 0. -1.
        -13    1    3    3    0    0 -0.15704337512E+03  0.87541264835E+02 -0.17968682641E+03  0.25419175892E+03  0.00000000000E+00 0.  1.
          2    1    6    6  502    0  0.19717087533E+03  0.10418305402E+03  0.32305895421E+03  0.39255260886E+03  0.00000000000E+00 0. -1.
          1    1    5    5  503    0  0.59416628133E+02 -0.23218840278E+03 -0.61912884243E+02  0.24753786643E+03  0.00000000000E+00 0. -1.
         -2    1    5    5    0  503 -0.24002704976E+02 -0.13726325284E+03 -0.16274675245E+02  0.14029324816E+03  0.00000000000E+00 0.  1.
         -1    1    6    6    0  502  0.19884814319E+03  0.14826206550E+03  0.23995786160E+03  0.34511157537E+03  0.00000000000E+00 0.  1.
<mgrwt>
<rscale>  0 0.17443051E+04</rscale>
<asrwt>0</asrwt>
<pdfrwt beam="1">  1        1 0.13926975E+00 0.17443051E+04</pdfrwt>
<pdfrwt beam="2">  1       -1 0.12927109E+00 0.17443051E+04</pdfrwt>
<totfact> 0.87882560E+00</totfact>
</mgrwt>
</event>
<event>
12    1  0.1755460E-007  0.1391561E+04  0.7818608E-02  0.8959950E-01
          1   -1    0    0  501    0  0.00000000000E+00  0.00000000000E+00  0.36269800550E+04  0.36269800550E+04  0.00000000000E+00 0. -1.
         -1   -1    0    0    0  501 -0.00000000000E+00 -0.00000000000E+00 -0.13347479647E+03  0.13347479647E+03  0.00000000000E+00 0.  1.
         23    2    1    2    0    0  0.35775588447E+03  0.28467020090E+02  0.60134164513E+03  0.70585122956E+03  0.88399886858E+02 0.  0.
        254    2    1    2    0    0 -0.35775588447E+03 -0.28467020090E+02  0.28921636134E+04  0.30546036219E+04  0.91498266444E+03 0.  0.
        -24    2    4    4    0    0  0.29214716416E+03  0.91748260692E+02  0.87411883540E+03  0.92967618853E+03  0.80289278495E+02 0.  0.
         24    2    4    4    0    0 -0.64990304864E+03 -0.12021528078E+03  0.20180447780E+04  0.21249274334E+04  0.77370438780E+02 0.  0.
         11    1    3    3    0    0  0.10313905739E+02 -0.89911471177E+01  0.48201586087E+01  0.14506939963E+02  0.00000000000E+00 0. -1.
        -11    1    3    3    0    0  0.34744197874E+03  0.37458167208E+02  0.59652148652E+03  0.69134428960E+03  0.00000000000E+00 0.  1.
          2    1    6    6  502    0 -0.37250615705E+02 -0.23076581010E+02  0.10325157552E+03  0.11216516754E+03  0.00000000000E+00 0. -1.
          1    1    5    5  503    0  0.39281972521E+02  0.20605379613E+02  0.22665463518E+03  0.23095449483E+03  0.00000000000E+00 0. -1.
         -2    1    5    5    0  503  0.25286519164E+03  0.71142881078E+02  0.64746420022E+03  0.69872169370E+03  0.00000000000E+00 0.  1.
         -1    1    6    6    0  502 -0.61265243293E+03 -0.97138699772E+02  0.19147932025E+04  0.20127622659E+04  0.00000000000E+00 0.  1.
<mgrwt>
<rscale>  0 0.13915609E+04</rscale>
<asrwt>0</asrwt>
<pdfrwt beam="1">  1        1 0.55799686E+00 0.13915609E+04</pdfrwt>
<pdfrwt beam="2">  1       -1 0.20534587E-01 0.13915609E+04</pdfrwt>
<totfact> 0.38417192E+00</totfact>
</mgrwt>
</event>
<event>
12    1  0.1755460E-007  0.1206113E+04  0.7818608E-02  0.9107523E-01
          1   -1    0    0  501    0  0.00000000000E+00  0.00000000000E+00  0.59541324702E+03  0.59541324702E+03  0.00000000000E+00 0. -1.
         -1   -1    0    0    0  501 -0.00000000000E+00 -0.00000000000E+00 -0.61079760927E+03  0.61079760927E+03  0.00000000000E+00 0.  1.
         23    2    1    2    0    0  0.18302065243E+02  0.22568441943E+03  0.12144030901E+03  0.27273972929E+03  0.91492013400E+02 0.  0.
        254    2    1    2    0    0 -0.18302065243E+02 -0.22568441943E+03 -0.13682467126E+03  0.93347112700E+03  0.89519770527E+03 0.  0.
        -24    2    4    4    0    0  0.14913054814E+03  0.31085260087E+03 -0.80540728252E+02  0.36318597359E+03  0.80919606092E+02 0.  0.
         24    2    4    4    0    0 -0.16743261339E+03 -0.53653702030E+03 -0.56283943005E+02  0.57028515341E+03  0.78432262378E+02 0.  0.
         13    1    3    3    0    0  0.11411471465E+02  0.17808322642E+03  0.13384821283E+03  0.22306770562E+03  0.00000000000E+00 0. -1.
        -13    1    3    3    0    0  0.68905937773E+01  0.47601193008E+02 -0.12407903817E+02  0.49672023671E+02  0.00000000000E+00 0.  1.
          4    1    6    6  502    0  0.54576150859E+01 -0.34421102319E+02 -0.13996609126E+02  0.37556662715E+02  0.00000000000E+00 0. -1.
          1    1    5    5  503    0  0.89423964512E+02  0.96293847134E+02 -0.28047761802E+02  0.13437197389E+03  0.00000000000E+00 0. -1.
         -2    1    5    5    0  503  0.59706583633E+02  0.21455875373E+03 -0.52492966451E+02  0.22881399970E+03  0.00000000000E+00 0.  1.
         -1    1    6    6    0  502 -0.17289022847E+03 -0.50211591798E+03 -0.42287333879E+02  0.53272849069E+03  0.00000000000E+00 0.  1.
<mgrwt>
<rscale>  0 0.12061127E+04</rscale>
<asrwt>0</asrwt>
<pdfrwt beam="1">  1        1 0.91602038E-01 0.12061127E+04</pdfrwt>
<pdfrwt beam="2">  1       -1 0.93968863E-01 0.12061127E+04</pdfrwt>
<totfact> 0.37615397E+01</totfact>
</mgrwt>
</event>
<event>
12    1  0.1755460E-007  0.1776318E+04  0.7818608E-02  0.8718996E-01
          1   -1    0    0  501    0  0.00000000000E+00  0.00000000000E+00  0.98516457381E+03  0.98516457381E+03  0.00000000000E+00 0. -1.
         -1   -1    0    0    0  501 -0.00000000000E+00 -0.00000000000E+00 -0.80070519408E+03  0.80070519408E+03  0.00000000000E+00 0.  1.
         23    2    1    2    0    0  0.57936151626E+03 -0.37444719782E+02 -0.26700148894E+03  0.64522098618E+03  0.89210158315E+02 0.  0.
        254    2    1    2    0    0 -0.57936151626E+03  0.37444719782E+02  0.45146086867E+03  0.11406487817E+04  0.87189497860E+03 0.  0.
        -24    2    4    4    0    0 -0.60479799704E+03  0.30325415877E+03  0.51573493567E+03  0.85449535407E+03  0.80225209303E+02 0.  0.
         24    2    4    4    0    0  0.25436480782E+02 -0.26580943899E+03 -0.64274067001E+02  0.28615342764E+03  0.80317843934E+02 0.  0.
         13    1    3    3    0    0  0.17991780932E+03 -0.41681206837E+02 -0.11642566410E+03  0.21831783339E+03  0.00000000000E+00 0. -1.
        -13    1    3    3    0    0  0.39944370694E+03  0.42364870546E+01 -0.15057582484E+03  0.42690315279E+03  0.00000000000E+00 0.  1.
          2    1    6    6  502    0  0.39148734906E+02 -0.10373387069E+03 -0.53593089836E+02  0.12314852273E+03  0.00000000000E+00 0. -1.
          3    1    5    5  503    0 -0.29560025239E+03  0.11254943184E+03  0.27045826107E+03  0.41616649889E+03  0.00000000000E+00 0. -1.
         -4    1    5    5    0  503 -0.30919774465E+03  0.19070472693E+03  0.24527667461E+03  0.43832885518E+03  0.00000000000E+00 0.  1.
         -1    1    6    6    0  502 -0.13712254124E+02 -0.16207556829E+03 -0.10680977165E+02  0.16300490491E+03  0.00000000000E+00 0.  1.
<mgrwt>
<rscale>  0 0.17763180E+04</rscale>
<asrwt>0</asrwt>
<pdfrwt beam="1">  1        1 0.15156378E+00 0.17763180E+04</pdfrwt>
<pdfrwt beam="2">  1       -1 0.12318541E+00 0.17763180E+04</pdfrwt>
<totfact> 0.85299403E+00</totfact>
</mgrwt>
</event>
<event>
12    1  0.1755460E-007  0.1653815E+04  0.7818608E-02  0.8788153E-01
          1   -1    0    0  501    0  0.00000000000E+00  0.00000000000E+00  0.14906014679E+04  0.14906014679E+04  0.00000000000E+00 0. -1.
         -1   -1    0    0    0  501 -0.00000000000E+00 -0.00000000000E+00 -0.45872514022E+03  0.45872514022E+03  0.00000000000E+00 0.  1.
         23    2    1    2    0    0  0.33802447178E+03 -0.16742083430E+02 -0.18592807922E+03  0.39668598835E+03  0.90827759124E+02 0.  0.
        254    2    1    2    0    0 -0.33802447178E+03  0.16742083430E+02  0.12178044069E+04  0.15526406198E+04  0.90172306163E+03 0.  0.
        -24    2    4    4    0    0 -0.44029312969E+02  0.93693485581E+02 -0.12048895693E+03  0.17787226772E+03  0.80024404017E+02 0.  0.
         24    2    4    4    0    0 -0.29399515882E+03 -0.76951402151E+02  0.13382933639E+04  0.13747683521E+04  0.81266367369E+02 0.  0.
         13    1    3    3    0    0  0.93611551272E+02 -0.35458014039E+02 -0.24113932085E+02  0.10296540687E+03  0.00000000000E+00 0. -1.
        -13    1    3    3    0    0  0.24441292051E+03  0.18715930610E+02 -0.16181414713E+03  0.29372058148E+03  0.00000000000E+00 0.  1.
          2    1    6    6  502    0 -0.22573325084E+03 -0.28082929787E+02  0.10577582921E+04  0.10819411980E+04  0.00000000000E+00 0. -1.
          3    1    5    5  503    0 -0.36164892367E+02  0.62610378353E+02 -0.12606503788E+03  0.14532843043E+03  0.00000000000E+00 0. -1.
         -4    1    5    5    0  503 -0.78644206025E+01  0.31083107227E+02  0.55760809426E+01  0.32543837281E+02  0.00000000000E+00 0.  1.
         -1    1    6    6    0  502 -0.68261907975E+02 -0.48868472364E+02  0.28053507177E+03  0.29282715408E+03  0.00000000000E+00 0.  1.
<mgrwt>
<rscale>  0 0.16538154E+04</rscale>
<asrwt>0</asrwt>
<pdfrwt beam="1">  1        1 0.22932330E+00 0.16538154E+04</pdfrwt>
<pdfrwt beam="2">  1       -1 0.70573099E-01 0.16538154E+04</pdfrwt>
<totfact> 0.12870130E+01</totfact>
</mgrwt>
</event>
<event>
12    1  0.1755460E-007  0.1785390E+04  0.7818608E-02  0.8714108E-01
          2   -1    0    0  501    0  0.00000000000E+00  0.00000000000E+00  0.12941589979E+04  0.12941589979E+04  0.00000000000E+00 0.  1.
         -2   -1    0    0    0  501 -0.00000000000E+00 -0.00000000000E+00 -0.61577009565E+03  0.61577009565E+03  0.00000000000E+00 0. -1.
         23    2    1    2    0    0  0.16610525114E+03 -0.60058684564E+02  0.93864470938E+03  0.95945464883E+03  0.91111649473E+02 0.  0.
        254    2    1    2    0    0 -0.16610525114E+03  0.60058684564E+02 -0.26025580717E+03  0.95047444467E+03  0.89692284214E+03 0.  0.
        -24    2    4    4    0    0 -0.30496706480E+02 -0.31858951044E+03  0.15682780191E+03  0.36567626679E+03  0.81822047009E+02 0.  0.
         24    2    4    4    0    0 -0.13560854466E+03  0.37864819500E+03 -0.41708360908E+03  0.58479817788E+03  0.79158315575E+02 0.  0.
         11    1    3    3    0    0  0.18318565470E+02  0.13601051654E+02  0.42631184685E+02  0.48352625106E+02  0.00000000000E+00 0. -1.
        -11    1    3    3    0    0  0.14778668567E+03 -0.73659736218E+02  0.89601352469E+03  0.91110202372E+03  0.00000000000E+00 0.  1.
          4    1    6    6  502    0 -0.96427015419E+02  0.24732459336E+03 -0.22011841720E+03  0.34484741752E+03  0.00000000000E+00 0. -1.
          1    1    5    5  503    0  0.13568314536E+00 -0.27385989873E+03  0.11422528751E+03  0.29672660623E+03  0.00000000000E+00 0. -1.
         -2    1    5    5    0  503 -0.30632389626E+02 -0.44729611710E+02  0.42602514398E+02  0.68949660557E+02  0.00000000000E+00 0.  1.
         -3    1    6    6    0  502 -0.39181529238E+02  0.13132360164E+03 -0.19696519189E+03  0.23995076036E+03  0.00000000000E+00 0.  1.
<mgrwt>
<rscale>  0 0.17853901E+04</rscale>
<asrwt>0</asrwt>
<pdfrwt beam="1">  1        2 0.19910138E+00 0.17853901E+04</pdfrwt>
<pdfrwt beam="2">  1       -2 0.94733861E-01 0.17853901E+04</pdfrwt>
<totfact> 0.14776173E+01</totfact>
</mgrwt>
</event>
<event>
12    1  0.1755460E-007  0.2026034E+04  0.7818608E-02  0.8594545E-01
         -1   -1    0    0    0  501 -0.00000000000E+00  0.00000000000E+00  0.53647297577E+03  0.53647297577E+03  0.00000000000E+00 0.  1.
          1   -1    0    0  501    0  0.00000000000E+00 -0.00000000000E+00 -0.19128709122E+04  0.19128709122E+04  0.00000000000E+00 0. -1.
         23    2    1    2    0    0 -0.78530342964E+03  0.21112211859E+03 -0.63118714868E+03  0.10335872525E+04  0.92905147243E+02 0.  0.
        254    2    1    2    0    0  0.78530342964E+03 -0.21112211859E+03 -0.74521078778E+03  0.14157566355E+04  0.88755490371E+03 0.  0.
        -24    2    4    4    0    0  0.62689780972E+03  0.65760745097E+02 -0.38900961261E+02  0.63660206168E+03  0.80147119216E+02 0.  0.
         24    2    4    4    0    0  0.15840561991E+03 -0.27688286368E+03 -0.70630982652E+03  0.77915457379E+03  0.80323210815E+02 0.  0.
         11    1    3    3    0    0 -0.11663085400E+03  0.66131511537E+02 -0.11178298681E+03  0.17456107545E+03  0.00000000000E+00 0.  1.
        -11    1    3    3    0    0 -0.66867257564E+03  0.14499060705E+03 -0.51940416188E+03  0.85902617709E+03  0.00000000000E+00 0. -1.
          2    1    6    6  502    0  0.50995609674E+02 -0.37526545061E+02 -0.97889647874E+02  0.11658120325E+03  0.00000000000E+00 0. -1.
          3    1    5    5  503    0  0.20375290184E+03  0.58432414269E+02 -0.47708475139E+01  0.21201969963E+03  0.00000000000E+00 0. -1.
         -4    1    5    5    0  503  0.42314490788E+03  0.73283308278E+01 -0.34130113747E+02  0.42458236205E+03  0.00000000000E+00 0.  1.
         -1    1    6    6    0  502  0.10741001024E+03 -0.23935631862E+03 -0.60842017865E+03  0.66257337054E+03  0.00000000000E+00 0.  1.
<mgrwt>
<rscale>  0 0.20260341E+04</rscale>
<asrwt>0</asrwt>
<pdfrwt beam="1">  1        1 0.29428783E+00 0.20260341E+04</pdfrwt>
<pdfrwt beam="2">  1       -1 0.82534305E-01 0.20260341E+04</pdfrwt>
<totfact> 0.46109739E+00</totfact>
</mgrwt>
</event>
<event>
12    1  0.1755460E-007  0.2275488E+04  0.7818608E-02  0.8487649E-01
         -1   -1    0    0    0  501 -0.00000000000E+00  0.00000000000E+00  0.12859768762E+04  0.12859768762E+04  0.00000000000E+00 0.  1.
          1   -1    0    0  501    0  0.00000000000E+00 -0.00000000000E+00 -0.10065981544E+04  0.10065981544E+04  0.00000000000E+00 0. -1.
         23    2    1    2    0    0 -0.89677869754E+02 -0.73006615295E+03  0.73578955226E+03  0.10444585832E+04  0.92025859774E+02 0.  0.
        254    2    1    2    0    0  0.89677869754E+02  0.73006615295E+03 -0.45641083049E+03  0.12481164473E+04  0.89913575829E+03 0.  0.
        -24    2    4    4    0    0  0.47002187949E+03  0.50002378513E+03 -0.16392382856E+03  0.70980731287E+03  0.77530941798E+02 0.  0.
         24    2    4    4    0    0 -0.38034400974E+03  0.23004236782E+03 -0.29248700193E+03  0.53830913443E+03  0.81529265811E+02 0.  0.
         11    1    3    3    0    0  0.54795313662E+01 -0.10939917126E+03  0.14986549183E+03  0.18562831029E+03  0.00000000000E+00 0.  1.
        -11    1    3    3    0    0 -0.95157401120E+02 -0.62066698169E+03  0.58592406043E+03  0.85883027295E+03  0.00000000000E+00 0. -1.
          4    1    6    6  502    0 -0.30656206096E+02 -0.69153280755E+00 -0.73509822507E+01  0.31532810371E+02  0.00000000000E+00 0. -1.
          1    1    5    5  503    0  0.17487287566E+03  0.20879234282E+03 -0.10070590328E+03  0.29037293954E+03  0.00000000000E+00 0. -1.
         -2    1    5    5    0  503  0.29514900383E+03  0.29123144231E+03 -0.63217925275E+02  0.41943437333E+03  0.00000000000E+00 0.  1.
         -3    1    6    6    0  502 -0.34968780364E+03  0.23073390062E+03 -0.28513601968E+03  0.50677632406E+03  0.00000000000E+00 0.  1.
<mgrwt>
<rscale>  0 0.22754885E+04</rscale>
<asrwt>0</asrwt>
<pdfrwt beam="1">  1        1 0.15486125E+00 0.22754885E+04</pdfrwt>
<pdfrwt beam="2">  1       -1 0.19784260E+00 0.22754885E+04</pdfrwt>
<totfact> 0.21096308E+00</totfact>
</mgrwt>
</event>
<event>
12    1  0.1755460E-007  0.1834393E+04  0.7818608E-02  0.8688220E-01
         -2   -1    0    0    0  501 -0.00000000000E+00  0.00000000000E+00  0.34128337986E+03  0.34128337986E+03  0.00000000000E+00 0.  1.
          2   -1    0    0  501    0  0.00000000000E+00 -0.00000000000E+00 -0.24649593295E+04  0.24649593295E+04  0.00000000000E+00 0. -1.
         23    2    1    2    0    0 -0.46892409690E+03 -0.49105523124E+03 -0.10050807777E+04  0.12163972297E+04  0.91704971770E+02 0.  0.
        254    2    1    2    0    0  0.46892409690E+03  0.49105523124E+03 -0.11185951719E+04  0.15898454797E+04  0.90295539304E+03 0.  0.
        -24    2    4    4    0    0  0.50934302485E+03  0.22537194233E+03 -0.11763023427E+04  0.13038344050E+04  0.77936672276E+02 0.  0.
         24    2    4    4    0    0 -0.40418927949E+02  0.26568328891E+03  0.57707170785E+02  0.28601107466E+03  0.79062744241E+02 0.  0.
         11    1    3    3    0    0 -0.40270292325E+03 -0.43669631750E+03 -0.82112579558E+03  0.10134697283E+04  0.00000000000E+00 0. -1.
        -11    1    3    3    0    0 -0.66221173657E+02 -0.54358913746E+02 -0.18395498215E+03  0.20292750134E+03  0.00000000000E+00 0.  1.
          4    1    6    6  502    0  0.47426170942E+01  0.15869468418E+03  0.60356384884E+02  0.16985107712E+03  0.00000000000E+00 0. -1.
          3    1    5    5  503    0  0.50577890701E+03  0.23001124240E+03 -0.11542514866E+04  0.12810206746E+04  0.00000000000E+00 0. -1.
         -4    1    5    5    0  503  0.35641178457E+01 -0.46393000637E+01 -0.22050856062E+02  0.22813730387E+02  0.00000000000E+00 0.  1.
         -3    1    6    6    0  502 -0.45161545043E+02  0.10698860473E+03 -0.26492140994E+01  0.11615999754E+03  0.00000000000E+00 0.  1.
<mgrwt>
<rscale>  0 0.18343933E+04</rscale>
<asrwt>0</asrwt>
<pdfrwt beam="1">  1        2 0.37922451E+00 0.18343933E+04</pdfrwt>
<pdfrwt beam="2">  1       -2 0.52505135E-01 0.18343933E+04</pdfrwt>
<totfact> 0.11765363E+01</totfact>
</mgrwt>
</event>
<event>
12    1  0.1755460E-007  0.3330386E+04  0.7818608E-02  0.8155206E-01
         -2   -1    0    0    0  501 -0.00000000000E+00  0.00000000000E+00  0.79920837771E+03  0.79920837771E+03  0.00000000000E+00 0.  1.
          2   -1    0    0  501    0  0.00000000000E+00 -0.00000000000E+00 -0.34695174771E+04  0.34695174771E+04  0.00000000000E+00 0. -1.
         23    2    1    2    0    0  0.11830191704E+04  0.13647937694E+03  0.17290120283E+02  0.11947246414E+04  0.94377129983E+02 0.  0.
        254    2    1    2    0    0 -0.11830191704E+04 -0.13647937694E+03 -0.26875992197E+04  0.30740012134E+04  0.89896213283E+03 0.  0.
        -24    2    4    4    0    0 -0.48913585252E+03  0.22894753041E+03 -0.18293928459E+04  0.19090998277E+04  0.79455104002E+02 0.  0.
         24    2    4    4    0    0 -0.69388331792E+03 -0.36542690734E+03 -0.85820637380E+03  0.11649013857E+04  0.73933584358E+02 0.  0.
         11    1    3    3    0    0  0.26979089982E+03  0.70934139267E+02 -0.11074642618E+01  0.27896237778E+03  0.00000000000E+00 0. -1.
        -11    1    3    3    0    0  0.91322827062E+03  0.65545237670E+02  0.18397584545E+02  0.91576226367E+03  0.00000000000E+00 0.  1.
          4    1    6    6  502    0 -0.18046896978E+03 -0.60218381234E+02 -0.21779149180E+03  0.28918581638E+03  0.00000000000E+00 0. -1.
          1    1    5    5  503    0 -0.20249890269E+03  0.57004092886E+02 -0.64455264003E+03  0.67801429038E+03  0.00000000000E+00 0. -1.
         -2    1    5    5    0  503 -0.28663694984E+03  0.17194343752E+03 -0.11848402059E+04  0.12310855373E+04  0.00000000000E+00 0.  1.
         -3    1    6    6    0  502 -0.51341434814E+03 -0.30520852611E+03 -0.64041488200E+03  0.87571556933E+03  0.00000000000E+00 0.  1.
<mgrwt>
<rscale>  0 0.33303858E+04</rscale>
<asrwt>0</asrwt>
<pdfrwt beam="1">  1        2 0.53377192E+00 0.33303858E+04</pdfrwt>
<pdfrwt beam="2">  1       -2 0.12295513E+00 0.33303858E+04</pdfrwt>
<totfact> 0.35497316E-01</totfact>
</mgrwt>
</event>
<event>
12    1  0.1755460E-007  0.2369405E+04  0.7818608E-02  0.8451048E-01
         -1   -1    0    0    0  501 -0.00000000000E+00  0.00000000000E+00  0.91253006479E+03  0.91253006479E+03  0.00000000000E+00 0.  1.
          1   -1    0    0  501    0  0.00000000000E+00 -0.00000000000E+00 -0.15380529173E+04  0.15380529173E+04  0.00000000000E+00 0. -1.
         23    2    1    2    0    0 -0.21427434202E+03 -0.21780484728E+03  0.74608457688E+03  0.81114723682E+03  0.89247962399E+02 0.  0.
        254    2    1    2    0    0  0.21427434202E+03  0.21780484728E+03 -0.13716074294E+04  0.16394357452E+04  0.84444666932E+03 0.  0.
        -24    2    4    4    0    0  0.52271727174E+03  0.23599190492E+03 -0.89789913135E+03  0.10684158569E+04  0.79775107423E+02 0.  0.
         24    2    4    4    0    0 -0.30844292971E+03 -0.18187057638E+02 -0.47370829800E+03  0.57101988836E+03  0.78716906398E+02 0.  0.
         11    1    3    3    0    0 -0.79433582076E+02 -0.58765786804E+02  0.34808856666E+03  0.36184079634E+03  0.00000000000E+00 0.  1.
        -11    1    3    3    0    0 -0.13484075995E+03 -0.15903906048E+03  0.39799601023E+03  0.44930644048E+03  0.00000000000E+00 0. -1.
          4    1    6    6  502    0 -0.25298642687E+02 -0.24423843003E+02 -0.62608790138E+02  0.71808119537E+02  0.00000000000E+00 0. -1.
          3    1    5    5  503    0  0.18986238957E+03  0.48706830282E+02 -0.33631488229E+03  0.38926569633E+03  0.00000000000E+00 0. -1.
         -4    1    5    5    0  503  0.33285488217E+03  0.18728507464E+03 -0.56158424906E+03  0.67915016054E+03  0.00000000000E+00 0.  1.
         -3    1    6    6    0  502 -0.28314428703E+03  0.62367853652E+01 -0.41109950787E+03  0.49921176883E+03  0.00000000000E+00 0.  1.
<mgrwt>
<rscale>  0 0.23694046E+04</rscale>
<asrwt>0</asrwt>
<pdfrwt beam="1">  1        1 0.23662353E+00 0.23694046E+04</pdfrwt>
<pdfrwt beam="2">  1       -1 0.14038924E+00 0.23694046E+04</pdfrwt>
<totfact> 0.23018525E+00</totfact>
</mgrwt>
</event>
<event>
12    1  0.1755460E-007  0.1196246E+04  0.7818608E-02  0.9116149E-01
          2   -1    0    0  501    0  0.00000000000E+00  0.00000000000E+00  0.36821672918E+03  0.36821672918E+03  0.00000000000E+00 0. -1.
         -2   -1    0    0    0  501 -0.00000000000E+00 -0.00000000000E+00 -0.97157770045E+03  0.97157770045E+03  0.00000000000E+00 0.  1.
         23    2    1    2    0    0  0.13612857812E+03 -0.54779031897E+02 -0.35822259778E+03  0.39731028632E+03  0.89444406990E+02 0.  0.
        254    2    1    2    0    0 -0.13612857812E+03  0.54779031897E+02 -0.24513837349E+03  0.94248414330E+03  0.89813796607E+03 0.  0.
        -24    2    4    4    0    0  0.59864990928E+02  0.40076360924E+03 -0.32881299109E+03  0.52796030545E+03  0.80179881431E+02 0.  0.
         24    2    4    4    0    0 -0.19599356904E+03 -0.34598457734E+03  0.83674617600E+02  0.41452383786E+03  0.81913147024E+02 0.  0.
         11    1    3    3    0    0  0.13345092466E+03 -0.17666448568E+02 -0.28338923405E+03  0.31373669004E+03  0.00000000000E+00 0.  1.
        -11    1    3    3    0    0  0.26776534535E+01 -0.37112583329E+02 -0.74833363732E+02  0.83573596289E+02  0.00000000000E+00 0. -1.
          4    1    6    6  502    0 -0.32731864512E+01 -0.59856314181E+02  0.18528915743E+01  0.59974372060E+02  0.00000000000E+00 0. -1.
          1    1    5    5  503    0 -0.69505077843E+01  0.65078930947E+02 -0.87080679959E+02  0.10893402422E+03  0.00000000000E+00 0. -1.
         -2    1    5    5    0  503  0.66815498712E+02  0.33568467829E+03 -0.24173231113E+03  0.41902628122E+03  0.00000000000E+00 0.  1.
         -3    1    6    6    0  502 -0.19272038259E+03 -0.28612826316E+03  0.81821726025E+02  0.35454946580E+03  0.00000000000E+00 0.  1.
<mgrwt>
<rscale>  0 0.11962461E+04</rscale>
<asrwt>0</asrwt>
<pdfrwt beam="1">  1        2 0.56648729E-01 0.11962461E+04</pdfrwt>
<pdfrwt beam="2">  1       -2 0.14947349E+00 0.11962461E+04</pdfrwt>
<totfact> 0.26028089E+01</totfact>
</mgrwt>
</event>
<event>
12    1  0.1755460E-007  0.1173284E+04  0.7818608E-02  0.9136568E-01
         -1   -1    0    0    0  501 -0.00000000000E+00  0.00000000000E+00  0.21827118538E+03  0.21827118538E+03  0.00000000000E+00 0.  1.
          1   -1    0    0  501    0  0.00000000000E+00 -0.00000000000E+00 -0.15767027801E+04  0.15767027801E+04  0.00000000000E+00 0. -1.
         23    2    1    2    0    0 -0.16593852938E+03 -0.16177863711E+03 -0.25306375484E+03  0.35511621583E+03  0.91423956235E+02 0.  0.
        254    2    1    2    0    0  0.16593852938E+03  0.16177863711E+03 -0.11053678399E+04  0.14398577497E+04  0.89310937452E+03 0.  0.
        -24    2    4    4    0    0  0.80306703753E+02 -0.25052408257E+03 -0.93953334433E+03  0.97892927463E+03  0.79800607727E+02 0.  0.
         24    2    4    4    0    0  0.85631825626E+02  0.41230271968E+03 -0.16583449558E+03  0.46092847505E+03  0.87336343960E+02 0.  0.
         11    1    3    3    0    0 -0.17152181660E+01 -0.12837556704E+02  0.58837055677E+01  0.14225428876E+02  0.00000000000E+00 0.  1.
        -11    1    3    3    0    0 -0.16422331121E+03 -0.14894108040E+03 -0.25894746041E+03  0.34089078695E+03  0.00000000000E+00 0. -1.
          2    1    6    6  502    0  0.10286707338E+03  0.36980404650E+03 -0.15383775194E+03  0.41352475320E+03  0.00000000000E+00 0. -1.
          1    1    5    5  503    0  0.34598302583E+01 -0.13938188548E+03 -0.50250441569E+03  0.52148822443E+03  0.00000000000E+00 0. -1.
         -2    1    5    5    0  503  0.76846873494E+02 -0.11114219709E+03 -0.43702892864E+03  0.45744105020E+03  0.00000000000E+00 0.  1.
         -1    1    6    6    0  502 -0.17235247750E+02  0.42498673184E+02 -0.11996743639E+02  0.47403721851E+02  0.00000000000E+00 0.  1.
<mgrwt>
<rscale>  0 0.11732839E+04</rscale>
<asrwt>0</asrwt>
<pdfrwt beam="1">  1        1 0.24256965E+00 0.11732839E+04</pdfrwt>
<pdfrwt beam="2">  1       -1 0.33580183E-01 0.11732839E+04</pdfrwt>
<totfact> 0.47976220E+01</totfact>
</mgrwt>
</event>
<event>
12    1  0.1755460E-007  0.2575219E+04  0.7818608E-02  0.8376668E-01
         -1   -1    0    0    0  501 -0.00000000000E+00  0.00000000000E+00  0.89278295740E+03  0.89278295740E+03  0.00000000000E+00 0.  1.
          1   -1    0    0  501    0  0.00000000000E+00 -0.00000000000E+00 -0.18570450454E+04  0.18570450454E+04  0.00000000000E+00 0. -1.
         23    2    1    2    0    0  0.87572792642E+03  0.73395341840E+03 -0.50074446067E+03  0.12507899624E+04  0.90241307661E+02 0.  0.
        254    2    1    2    0    0 -0.87572792642E+03 -0.73395341840E+03 -0.46351762732E+03  0.14990380404E+04  0.85245494561E+03 0.  0.
        -24    2    4    4    0    0 -0.53195954609E+03 -0.63861544322E+03  0.85593928361E+02  0.83918049084E+03  0.78018796729E+02 0.  0.
         24    2    4    4    0    0 -0.34376838033E+03 -0.95337975177E+02 -0.54911155568E+03  0.65985754957E+03  0.81378475769E+02 0.  0.
         13    1    3    3    0    0  0.34872323246E+03  0.31504305721E+03 -0.25064521014E+03  0.53261904033E+03  0.00000000000E+00 0. -1.
        -13    1    3    3    0    0  0.52700469395E+03  0.41891036119E+03 -0.25009925053E+03  0.71817092205E+03  0.00000000000E+00 0.  1.
          2    1    6    6  502    0 -0.21528906914E+02  0.25108363728E+01 -0.92437054529E+01  0.23563620747E+02  0.00000000000E+00 0. -1.
          1    1    5    5  503    0 -0.51153915071E+00 -0.30452145109E+01 -0.48755055072E+01  0.57710967477E+01  0.00000000000E+00 0. -1.
         -2    1    5    5    0  503 -0.53144800694E+03 -0.63557022871E+03  0.90469433868E+02  0.83340939409E+03  0.00000000000E+00 0.  1.
         -1    1    6    6    0  502 -0.32223947341E+03 -0.97848811550E+02 -0.53986785023E+03  0.63629392883E+03  0.00000000000E+00 0.  1.
<mgrwt>
<rscale>  0 0.25752190E+04</rscale>
<asrwt>0</asrwt>
<pdfrwt beam="1">  1        1 0.28569924E+00 0.25752190E+04</pdfrwt>
<pdfrwt beam="2">  1       -1 0.13735122E+00 0.25752190E+04</pdfrwt>
<totfact> 0.14488427E+00</totfact>
</mgrwt>
</event>
<event>
12    1  0.3023614E-007  0.2123287E+04  0.7818608E-02  0.8551054E-01
         -1   -1    0    0    0  501 -0.00000000000E+00  0.00000000000E+00  0.99394149799E+03  0.99394149799E+03  0.00000000000E+00 0.  1.
          1   -1    0    0  501    0  0.00000000000E+00 -0.00000000000E+00 -0.11339573691E+04  0.11339573691E+04  0.00000000000E+00 0. -1.
         23    2    1    2    0    0 -0.81058191554E+03  0.14762848470E+03  0.20587510271E+03  0.85410061609E+03  0.90918057575E+02 0.  0.
        254    2    1    2    0    0  0.81058191554E+03 -0.14762848470E+03 -0.34589097385E+03  0.12737982510E+04  0.90779083894E+03 0.  0.
        -24    2    4    4    0    0  0.84740322118E+03  0.17864691796E+03 -0.14651237940E+03  0.88190238625E+03  0.79240147580E+02 0.  0.
         24    2    4    4    0    0 -0.36821305642E+02 -0.32627540267E+03 -0.19937859446E+03  0.39189586479E+03  0.77582845897E+02 0.  0.
         13    1    3    3    0    0 -0.63898335619E+03  0.98671592484E+02  0.19500510110E+03  0.67532421999E+03  0.00000000000E+00 0.  1.
        -13    1    3    3    0    0 -0.17159855935E+03  0.48956892219E+02  0.10870001603E+02  0.17877639610E+03  0.00000000000E+00 0. -1.
          4    1    6    6  502    0 -0.59078899122E+01 -0.69827219252E+01  0.60533926886E+01  0.10968369603E+02  0.00000000000E+00 0. -1.
          3    1    5    5  503    0  0.44130800472E+02  0.28262537432E+02 -0.10005357992E+02  0.53351717507E+02  0.00000000000E+00 0. -1.
         -4    1    5    5    0  503  0.80327242071E+03  0.15038438053E+03 -0.13650702140E+03  0.82855066874E+03  0.00000000000E+00 0.  1.
         -3    1    6    6    0  502 -0.30913415730E+02 -0.31929268074E+03 -0.20543198715E+03  0.38092749519E+03  0.00000000000E+00 0.  1.
<mgrwt>
<rscale>  0 0.21232873E+04</rscale>
<asrwt>0</asrwt>
<pdfrwt beam="1">  1        1 0.17445498E+00 0.21232873E+04</pdfrwt>
<pdfrwt beam="2">  1       -1 0.15291408E+00 0.21232873E+04</pdfrwt>
<totfact> 0.36344817E+00</totfact>
</mgrwt>
</event>
<event>
12    1  0.1755460E-007  0.1468385E+04  0.7818608E-02  0.8905753E-01
          2   -1    0    0  501    0  0.00000000000E+00  0.00000000000E+00  0.67660186556E+03  0.67660186556E+03  0.00000000000E+00 0. -1.
         -2   -1    0    0    0  501 -0.00000000000E+00 -0.00000000000E+00 -0.79668514546E+03  0.79668514546E+03  0.00000000000E+00 0.  1.
         23    2    1    2    0    0 -0.36350243971E+02  0.32169469026E+03 -0.35089946534E+03  0.48614922119E+03  0.91661423220E+02 0.  0.
        254    2    1    2    0    0  0.36350243971E+02 -0.32169469026E+03  0.23081618545E+03  0.98713778984E+03  0.90352426126E+03 0.  0.
        -24    2    4    4    0    0 -0.35857268211E+03 -0.66886812610E+02  0.33236232040E+03  0.49981074585E+03  0.79359029637E+02 0.  0.
         24    2    4    4    0    0  0.39492292608E+03 -0.25480787765E+03 -0.10154613495E+03  0.48732704399E+03  0.79277097709E+02 0.  0.
         13    1    3    3    0    0  0.18994055260E+02  0.71214587965E+02 -0.42763648345E+02  0.85211626519E+02  0.00000000000E+00 0. -1.
        -13    1    3    3    0    0 -0.55344299230E+02  0.25048010229E+03 -0.30813581700E+03  0.40093759467E+03  0.00000000000E+00 0.  1.
          2    1    6    6  502    0  0.10411348015E+03 -0.28042796870E+02 -0.20534696932E+02  0.10976196510E+03  0.00000000000E+00 0. -1.
          3    1    5    5  503    0 -0.25188832069E+03 -0.76220239210E+02  0.26397031495E+03  0.37274331401E+03  0.00000000000E+00 0. -1.
         -4    1    5    5    0  503 -0.10668436142E+03  0.93334265996E+01  0.68392005450E+02  0.12706743184E+03  0.00000000000E+00 0.  1.
         -1    1    6    6    0  502  0.29080944594E+03 -0.22676508078E+03 -0.81011438020E+02  0.37756507889E+03  0.00000000000E+00 0.  1.
<mgrwt>
<rscale>  0 0.14683850E+04</rscale>
<asrwt>0</asrwt>
<pdfrwt beam="1">  1        2 0.10409259E+00 0.14683850E+04</pdfrwt>
<pdfrwt beam="2">  1       -2 0.12256695E+00 0.14683850E+04</pdfrwt>
<totfact> 0.20859035E+01</totfact>
</mgrwt>
</event>
<event>
12    1  0.1755460E-007  0.3231930E+04  0.7818608E-02  0.8180435E-01
         -2   -1    0    0    0  501 -0.00000000000E+00  0.00000000000E+00  0.98879482643E+03  0.98879482643E+03  0.00000000000E+00 0. -1.
          2   -1    0    0  501    0  0.00000000000E+00 -0.00000000000E+00 -0.26409352885E+04  0.26409352885E+04  0.00000000000E+00 0.  1.
         23    2    1    2    0    0  0.57071300065E+02  0.67982238422E+03 -0.22602477683E+04  0.23628008753E+04  0.93233013656E+02 0.  0.
        254    2    1    2    0    0 -0.57071300065E+02 -0.67982238422E+03  0.60810730629E+03  0.12669292396E+04  0.87743922567E+03 0.  0.
        -24    2    4    4    0    0 -0.38870721636E+03 -0.11190102965E+03  0.39364078119E+03  0.57007401844E+03  0.80101069838E+02 0.  0.
         24    2    4    4    0    0  0.33163591630E+03 -0.56792135457E+03  0.21446652510E+03  0.69685522113E+03  0.84227447292E+02 0.  0.
         13    1    3    3    0    0  0.46095442152E+01  0.21189065372E+01 -0.53457446336E+02  0.53697637113E+02  0.00000000000E+00 0. -1.
        -13    1    3    3    0    0  0.52461755849E+02  0.67770347769E+03 -0.22067903220E+04  0.23091032382E+04  0.00000000000E+00 0.  1.
          2    1    6    6  502    0  0.17263020161E+03 -0.35559894089E+03  0.98639711940E+02  0.40740837748E+03  0.00000000000E+00 0. -1.
          3    1    5    5  503    0 -0.22251709841E+03 -0.25899231482E+02  0.23606805483E+03  0.32544240010E+03  0.00000000000E+00 0. -1.
         -4    1    5    5    0  503 -0.16619011795E+03 -0.86001798169E+02  0.15757272637E+03  0.24463161833E+03  0.00000000000E+00 0.  1.
         -1    1    6    6    0  502  0.15900571469E+03 -0.21232241368E+03  0.11582681316E+03  0.28944684365E+03  0.00000000000E+00 0.  1.
<mgrwt>
<rscale>  0 0.32319302E+04</rscale>
<asrwt>0</asrwt>
<pdfrwt beam="1">  1        2 0.40629773E+00 0.32319302E+04</pdfrwt>
<pdfrwt beam="2">  1       -2 0.15212228E+00 0.32319302E+04</pdfrwt>
<totfact> 0.69761106E-01</totfact>
</mgrwt>
</event>
<event>
12    1  0.1755460E-007  0.1191615E+04  0.7818608E-02  0.9120228E-01
          1   -1    0    0  501    0  0.00000000000E+00  0.00000000000E+00  0.18219304120E+03  0.18219304120E+03  0.00000000000E+00 0. -1.
         -1   -1    0    0    0  501 -0.00000000000E+00 -0.00000000000E+00 -0.19484089398E+04  0.19484089398E+04  0.00000000000E+00 0.  1.
         23    2    1    2    0    0  0.68263989958E+02  0.30662858009E+02  0.31682040355E+02  0.12285322034E+03  0.92135654777E+02 0.  0.
        254    2    1    2    0    0 -0.68263989958E+02 -0.30662858009E+02 -0.17978979389E+04  0.20077487606E+04  0.89051552699E+03 0.  0.
        -24    2    4    4    0    0 -0.44494312852E+03  0.84766529046E+02 -0.12193748157E+04  0.13034541397E+04  0.83414632457E+02 0.  0.
         24    2    4    4    0    0  0.37667913856E+03 -0.11542938706E+03 -0.57852312319E+03  0.70429462095E+03  0.78299375633E+02 0.  0.
         13    1    3    3    0    0 -0.62325942205E+01 -0.16386369349E+02 -0.15060595717E+02  0.23112331655E+02  0.00000000000E+00 0.  1.
        -13    1    3    3    0    0  0.74496584179E+02  0.47049227359E+02  0.46742636071E+02  0.99740888688E+02  0.00000000000E+00 0. -1.
          2    1    6    6  502    0  0.36679450419E+03 -0.11284814483E+03 -0.52789136342E+03  0.65264247768E+03  0.00000000000E+00 0. -1.
          1    1    5    5  503    0 -0.16632966887E+03 -0.18897147039E+01 -0.50902374531E+03  0.53551312127E+03  0.00000000000E+00 0. -1.
         -2    1    5    5    0  503 -0.27861345964E+03  0.86656243750E+02 -0.71035107044E+03  0.76794101841E+03  0.00000000000E+00 0.  1.
         -1    1    6    6    0  502  0.98846343647E+01 -0.25812422214E+01 -0.50631759764E+02  0.51652143274E+02  0.00000000000E+00 0.  1.
<mgrwt>
<rscale>  0 0.11916150E+04</rscale>
<asrwt>0</asrwt>
<pdfrwt beam="1">  1        1 0.28029699E-01 0.11916150E+04</pdfrwt>
<pdfrwt beam="2">  1       -1 0.29975521E+00 0.11916150E+04</pdfrwt>
<totfact> 0.55542504E+00</totfact>
</mgrwt>
</event>
<event>
12    1  0.1755460E-007  0.1789853E+04  0.7818608E-02  0.8711714E-01
          2   -1    0    0  501    0  0.00000000000E+00  0.00000000000E+00  0.12637308135E+04  0.12637308135E+04  0.00000000000E+00 0. -1.
         -2   -1    0    0    0  501 -0.00000000000E+00 -0.00000000000E+00 -0.63375291843E+03  0.63375291843E+03  0.00000000000E+00 0.  1.
         23    2    1    2    0    0 -0.15363605390E+03  0.72147226090E+02  0.91378975931E+03  0.93386491046E+03  0.91009271372E+02 0.  0.
        254    2    1    2    0    0  0.15363605390E+03 -0.72147226090E+02 -0.28381186425E+03  0.96361882145E+03  0.90509822642E+03 0.  0.
        -24    2    4    4    0    0 -0.31065470758E+03  0.18978587459E+03 -0.51464846986E+02  0.37693741459E+03  0.83115332584E+02 0.  0.
         24    2    4    4    0    0  0.46429076148E+03 -0.26193310068E+03 -0.23234701727E+03  0.58668140686E+03  0.77685753514E+02 0.  0.
         11    1    3    3    0    0 -0.21591610331E+02  0.43128413988E+02  0.13340831426E+03  0.14185921205E+03  0.00000000000E+00 0.  1.
        -11    1    3    3    0    0 -0.13204444357E+03  0.29018812102E+02  0.78038144505E+03  0.79200569840E+03  0.00000000000E+00 0. -1.
          2    1    6    6  502    0  0.40317077816E+03 -0.25510620928E+03 -0.20201220893E+03  0.51810692615E+03  0.00000000000E+00 0. -1.
          3    1    5    5  503    0 -0.15240617697E+03  0.11268614141E+03 -0.65024921667E+02  0.20038475411E+03  0.00000000000E+00 0. -1.
         -4    1    5    5    0  503 -0.15824853061E+03  0.77099733181E+02  0.13560074681E+02  0.17655266048E+03  0.00000000000E+00 0.  1.
         -1    1    6    6    0  502  0.61119983318E+02 -0.68268913983E+01 -0.30334808339E+02  0.68574480705E+02  0.00000000000E+00 0.  1.
<mgrwt>
<rscale>  0 0.17898526E+04</rscale>
<asrwt>0</asrwt>
<pdfrwt beam="1">  1        2 0.19442012E+00 0.17898526E+04</pdfrwt>
<pdfrwt beam="2">  1       -2 0.97500449E-01 0.17898526E+04</pdfrwt>
<totfact> 0.14386070E+01</totfact>
</mgrwt>
</event>
<event>
12    1  0.1755460E-007  0.1816648E+04  0.7818608E-02  0.8697496E-01
         -2   -1    0    0    0  501 -0.00000000000E+00  0.00000000000E+00  0.30700984269E+03  0.30700984269E+03  0.00000000000E+00 0. -1.
          2   -1    0    0  501    0  0.00000000000E+00 -0.00000000000E+00 -0.26873816556E+04  0.26873816556E+04  0.00000000000E+00 0.  1.
         23    2    1    2    0    0 -0.49820534462E+03  0.44322774952E+03 -0.10547881865E+04  0.12504525285E+04  0.79962518314E+02 0.  0.
        254    2    1    2    0    0  0.49820534462E+03 -0.44322774952E+03 -0.13255836264E+04  0.17439389698E+04  0.91623783830E+03 0.  0.
        -24    2    4    4    0    0  0.26611847703E+03 -0.65371183402E+03 -0.12066398164E+04  0.13997387068E+04  0.71628172281E+02 0.  0.
         24    2    4    4    0    0  0.23208686760E+03  0.21048408449E+03 -0.11894381005E+03  0.34420026299E+03  0.78475009775E+02 0.  0.
         11    1    3    3    0    0 -0.29157730332E+03  0.29814685519E+03 -0.60823460628E+03  0.73746742799E+03  0.00000000000E+00 0. -1.
        -11    1    3    3    0    0 -0.20662804130E+03  0.14508089433E+03 -0.44655358022E+03  0.51298510053E+03  0.00000000000E+00 0.  1.
          2    1    6    6  502    0 -0.36418118619E+00 -0.84604824698E+00  0.60294086788E+01  0.60993601787E+01  0.00000000000E+00 0. -1.
          3    1    5    5  503    0  0.10295328893E+03 -0.22955525587E+03 -0.36616953575E+03  0.44426920230E+03  0.00000000000E+00 0. -1.
         -4    1    5    5    0  503  0.16316518810E+03 -0.42415657814E+03 -0.84047028065E+03  0.95546950451E+03  0.00000000000E+00 0.  1.
         -1    1    6    6    0  502  0.23245104878E+03  0.21133013274E+03 -0.12497321873E+03  0.33810090281E+03  0.00000000000E+00 0.  1.
<mgrwt>
<rscale>  0 0.18166481E+04</rscale>
<asrwt>0</asrwt>
<pdfrwt beam="1">  1        2 0.41344333E+00 0.18166481E+04</pdfrwt>
<pdfrwt beam="2">  1       -2 0.47232284E-01 0.18166481E+04</pdfrwt>
<totfact> 0.10843115E+01</totfact>
</mgrwt>
</event>
<event>
12    1  0.1755460E-007  0.1585925E+04  0.7818608E-02  0.8829242E-01
          2   -1    0    0  501    0  0.00000000000E+00  0.00000000000E+00  0.50581512094E+03  0.50581512094E+03  0.00000000000E+00 0.  1.
         -2   -1    0    0    0  501 -0.00000000000E+00 -0.00000000000E+00 -0.12431215469E+04  0.12431215469E+04  0.00000000000E+00 0. -1.
         23    2    1    2    0    0  0.10429063279E+03 -0.38271300061E+03  0.12522663986E+03  0.42595453461E+03  0.91704837902E+02 0.  0.
        254    2    1    2    0    0 -0.10429063279E+03  0.38271300061E+03 -0.86253306584E+03  0.13229821332E+04  0.92139712301E+03 0.  0.
        -24    2    4    4    0    0 -0.10035525804E+03 -0.11118547455E+03  0.12894425566E+03  0.21245479929E+03  0.77955327631E+02 0.  0.
         24    2    4    4    0    0 -0.39353747470E+01  0.49389847516E+03 -0.99147732150E+03  0.11105273340E+04  0.79325213409E+02 0.  0.
         13    1    3    3    0    0  0.84035336518E+02 -0.24957638814E+03  0.39435951128E+02  0.26628087716E+03  0.00000000000E+00 0. -1.
        -13    1    3    3    0    0  0.20255296267E+02 -0.13313661247E+03  0.85790688736E+02  0.15967365744E+03  0.00000000000E+00 0.  1.
          4    1    6    6  502    0  0.10387241040E+02  0.24750387093E+03 -0.58029734435E+03  0.63096043359E+03  0.00000000000E+00 0. -1.
          3    1    5    5  503    0  0.41216997576E+01  0.24642142571E+01 -0.58110647617E+01  0.75385167282E+01  0.00000000000E+00 0. -1.
         -4    1    5    5    0  503 -0.10447695780E+03 -0.11364968880E+03  0.13475532042E+03  0.20491628256E+03  0.00000000000E+00 0.  1.
         -3    1    6    6    0  502 -0.14322615787E+02  0.24639460423E+03 -0.41117997715E+03  0.47956690036E+03  0.00000000000E+00 0.  1.
<mgrwt>
<rscale>  0 0.15859252E+04</rscale>
<asrwt>0</asrwt>
<pdfrwt beam="1">  1        2 0.77817710E-01 0.15859252E+04</pdfrwt>
<pdfrwt beam="2">  1       -2 0.19124947E+00 0.15859252E+04</pdfrwt>
<totfact> 0.88580404E+00</totfact>
</mgrwt>
</event>
<event>
12    1  0.1755460E-007  0.1678077E+04  0.7818608E-02  0.8773968E-01
         -1   -1    0    0    0  501 -0.00000000000E+00  0.00000000000E+00  0.47780358346E+03  0.47780358346E+03  0.00000000000E+00 0.  1.
          1   -1    0    0  501    0  0.00000000000E+00 -0.00000000000E+00 -0.14733785982E+04  0.14733785982E+04  0.00000000000E+00 0. -1.
         23    2    1    2    0    0  0.37620010884E+03 -0.35225833945E+03 -0.71213789605E+03  0.88383267327E+03  0.91691612111E+02 0.  0.
        254    2    1    2    0    0 -0.37620010884E+03  0.35225833945E+03 -0.28343711871E+03  0.10673495084E+04  0.89066599420E+03 0.  0.
        -24    2    4    4    0    0  0.78508473765E+02 -0.10860646845E+03 -0.37719108015E+03  0.40855790744E+03  0.81777181066E+02 0.  0.
         24    2    4    4    0    0 -0.45470858261E+03  0.46086480790E+03  0.93753961447E+02  0.65879160097E+03  0.77847941272E+02 0.  0.
         11    1    3    3    0    0  0.22009780135E+03 -0.19890974780E+03 -0.48424019834E+03  0.56788792874E+03  0.00000000000E+00 0. -1.
        -11    1    3    3    0    0  0.15610230750E+03 -0.15334859165E+03 -0.22789769772E+03  0.31594474452E+03  0.00000000000E+00 0.  1.
          4    1    6    6  502    0 -0.23984604728E+03  0.25081197564E+03  0.11360614802E+02  0.34722015652E+03  0.00000000000E+00 0. -1.
          3    1    5    5  503    0  0.52941462854E+02 -0.73220097827E+02 -0.13489042970E+03  0.16235581061E+03  0.00000000000E+00 0. -1.
         -4    1    5    5    0  503  0.25567010911E+02 -0.35386370620E+02 -0.24230065045E+03  0.24620209682E+03  0.00000000000E+00 0.  1.
         -3    1    6    6    0  502 -0.21486253532E+03  0.21005283226E+03  0.82393346645E+02  0.31157144445E+03  0.00000000000E+00 0.  1.
<mgrwt>
<rscale>  0 0.16780770E+04</rscale>
<asrwt>0</asrwt>
<pdfrwt beam="1">  1        1 0.22667363E+00 0.16780770E+04</pdfrwt>
<pdfrwt beam="2">  1       -1 0.73508243E-01 0.16780770E+04</pdfrwt>
<totfact> 0.12134060E+01</totfact>
</mgrwt>
</event>
<event>
12    1  0.1755460E-007  0.2072518E+04  0.7818608E-02  0.8573447E-01
          2   -1    0    0  501    0  0.00000000000E+00  0.00000000000E+00  0.88219371807E+03  0.88219371807E+03  0.00000000000E+00 0. -1.
         -2   -1    0    0    0  501 -0.00000000000E+00 -0.00000000000E+00 -0.12172296436E+04  0.12172296436E+04  0.00000000000E+00 0.  1.
         23    2    1    2    0    0 -0.64290411829E+03 -0.36546361394E+03 -0.54651784023E+03  0.92400880882E+03  0.90670671410E+02 0.  0.
        254    2    1    2    0    0  0.64290411829E+03  0.36546361394E+03  0.21148191467E+03  0.11754145529E+04  0.88881123555E+03 0.  0.
        -24    2    4    4    0    0 -0.14304999989E+03  0.30279342283E+03  0.16512519708E+03  0.38169055782E+03  0.79209796378E+02 0.  0.
         24    2    4    4    0    0  0.78595411818E+03  0.62670191115E+02  0.46356717591E+02  0.79372399506E+03  0.78723607181E+02 0.  0.
         13    1    3    3    0    0 -0.19869824193E+02  0.14687052315E+01 -0.27495037712E+02  0.33955030662E+02  0.00000000000E+00 0. -1.
        -13    1    3    3    0    0 -0.62303429410E+03 -0.36693231917E+03 -0.51902280252E+03  0.89005377815E+03  0.00000000000E+00 0.  1.
          2    1    6    6  502    0  0.67503485549E+03  0.28036010839E+02  0.29045622557E+02  0.67624087589E+03  0.00000000000E+00 0. -1.
          3    1    5    5  503    0 -0.56753206115E+02  0.19517167771E+03  0.73738188783E+02  0.21621801652E+03  0.00000000000E+00 0. -1.
         -4    1    5    5    0  503 -0.86296793773E+02  0.10762174512E+03  0.91387008297E+02  0.16547254130E+03  0.00000000000E+00 0.  1.
         -1    1    6    6    0  502  0.11091926269E+03  0.34634180276E+02  0.17311095034E+02  0.11748311917E+03  0.00000000000E+00 0.  1.
<mgrwt>
<rscale>  0 0.20725176E+04</rscale>
<asrwt>0</asrwt>
<pdfrwt beam="1">  1        2 0.13572211E+00 0.20725176E+04</pdfrwt>
<pdfrwt beam="2">  1       -2 0.18726610E+00 0.20725176E+04</pdfrwt>
<totfact> 0.45019869E+00</totfact>
</mgrwt>
</event>
<event>
12    1  0.1755460E-007  0.1917009E+04  0.7818608E-02  0.8646436E-01
          2   -1    0    0  501    0  0.00000000000E+00  0.00000000000E+00  0.10683366713E+04  0.10683366713E+04  0.00000000000E+00 0. -1.
         -2   -1    0    0    0  501 -0.00000000000E+00 -0.00000000000E+00 -0.85996399120E+03  0.85996399120E+03  0.00000000000E+00 0.  1.
         23    2    1    2    0    0 -0.36982536557E+03 -0.64261083232E+03 -0.11603866905E+02  0.74680210919E+03  0.88652454695E+02 0.  0.
        254    2    1    2    0    0  0.36982536557E+03  0.64261083232E+03  0.21997654696E+03  0.11814985533E+04  0.89321311417E+03 0.  0.
        -24    2    4    4    0    0 -0.23207214322E+03  0.42527341361E+03  0.21527682054E+03  0.53607214507E+03  0.79462439354E+02 0.  0.
         24    2    4    4    0    0  0.60189750879E+03  0.21733741871E+03  0.46997264210E+01  0.64542640820E+03  0.83886806583E+02 0.  0.
         11    1    3    3    0    0 -0.16730136975E+03 -0.36636814009E+03 -0.29238993626E+02  0.40381961461E+03  0.00000000000E+00 0. -1.
        -11    1    3    3    0    0 -0.20252399582E+03 -0.27624269223E+03  0.17635126720E+02  0.34298249458E+03  0.00000000000E+00 0.  1.
          4    1    6    6  502    0  0.51678194465E+03  0.19450357062E+03  0.32196640134E+02  0.55311105660E+03  0.00000000000E+00 0. -1.
          1    1    5    5  503    0 -0.15294233761E+03  0.32505261214E+03  0.12781347151E+03  0.38129626643E+03  0.00000000000E+00 0. -1.
         -2    1    5    5    0  503 -0.79129805607E+02  0.10022080147E+03  0.87463349035E+02  0.15477587863E+03  0.00000000000E+00 0.  1.
         -3    1    6    6    0  502  0.85115564140E+02  0.22833848091E+02 -0.27496913713E+02  0.92315351602E+02  0.00000000000E+00 0.  1.
<mgrwt>
<rscale>  0 0.19170092E+04</rscale>
<asrwt>0</asrwt>
<pdfrwt beam="1">  1        2 0.16435949E+00 0.19170092E+04</pdfrwt>
<pdfrwt beam="2">  1       -2 0.13230215E+00 0.19170092E+04</pdfrwt>
<totfact> 0.88564497E+00</totfact>
</mgrwt>
</event>
<event>
12    1  0.1755460E-007  0.1839973E+04  0.7818608E-02  0.8685327E-01
          2   -1    0    0  501    0  0.00000000000E+00  0.00000000000E+00  0.82889265223E+03  0.82889265223E+03  0.00000000000E+00 0.  1.
         -2   -1    0    0    0  501 -0.00000000000E+00 -0.00000000000E+00 -0.10210911486E+04  0.10210911486E+04  0.00000000000E+00 0. -1.
         23    2    1    2    0    0 -0.84850830890E+02  0.58712466563E+03  0.27062253777E+03  0.65847297476E+03  0.91842604711E+02 0.  0.
        254    2    1    2    0    0  0.84850830890E+02 -0.58712466563E+03 -0.46282103410E+03  0.11915108260E+04  0.92389377228E+03 0.  0.
        -24    2    4    4    0    0  0.46612233555E+03 -0.14537928016E+03 -0.30747308918E+03  0.58247913182E+03  0.79605726164E+02 0.  0.
         24    2    4    4    0    0 -0.38127150466E+03 -0.44174538548E+03 -0.15534794493E+03  0.60903169422E+03  0.79244398619E+02 0.  0.
         13    1    3    3    0    0 -0.65340738633E+02  0.20613293457E+03  0.12741955285E+03  0.25098992268E+03  0.00000000000E+00 0. -1.
        -13    1    3    3    0    0 -0.19510092257E+02  0.38099173107E+03  0.14320298492E+03  0.40748305208E+03  0.00000000000E+00 0.  1.
          2    1    6    6  502    0 -0.10419402371E+03 -0.83917274759E+02 -0.12062471246E+02  0.13432798216E+03  0.00000000000E+00 0. -1.
          3    1    5    5  503    0  0.14450241404E+03 -0.84068253606E+02 -0.11014389154E+03  0.20020013929E+03  0.00000000000E+00 0. -1.
         -4    1    5    5    0  503  0.32161992151E+03 -0.61311026552E+02 -0.19732919763E+03  0.38227899253E+03  0.00000000000E+00 0.  1.
         -1    1    6    6    0  502 -0.27707748096E+03 -0.35782811072E+03 -0.14328547368E+03  0.47470371206E+03  0.00000000000E+00 0.  1.
<mgrwt>
<rscale>  0 0.18399728E+04</rscale>
<asrwt>0</asrwt>
<pdfrwt beam="1">  1        2 0.12752195E+00 0.18399728E+04</pdfrwt>
<pdfrwt beam="2">  1       -2 0.15709095E+00 0.18399728E+04</pdfrwt>
<totfact> 0.81801006E+00</totfact>
</mgrwt>
</event>
<event>
12    1  0.1755460E-007  0.1333265E+04  0.7818608E-02  0.9003594E-01
         -2   -1    0    0    0  501 -0.00000000000E+00  0.00000000000E+00  0.20047050183E+03  0.20047050183E+03  0.00000000000E+00 0.  1.
          2   -1    0    0  501    0  0.00000000000E+00 -0.00000000000E+00 -0.22167785278E+04  0.22167785278E+04  0.00000000000E+00 0. -1.
         23    2    1    2    0    0  0.18484915079E+03 -0.15420556669E+03 -0.10254442797E+04  0.10570717805E+04  0.88973102880E+02 0.  0.
        254    2    1    2    0    0 -0.18484915079E+03  0.15420556669E+03 -0.99086374625E+03  0.13601772491E+04  0.90017921548E+03 0.  0.
        -24    2    4    4    0    0 -0.37563262500E+03 -0.26385089545E+03 -0.49769742716E+03  0.68168034821E+03  0.79171990819E+02 0.  0.
         24    2    4    4    0    0  0.19078347421E+03  0.41805646214E+03 -0.49316631909E+03  0.67849690089E+03  0.77301272095E+02 0.  0.
         11    1    3    3    0    0  0.17559598969E+03 -0.15252483806E+03 -0.10200474403E+04  0.10462287314E+04  0.00000000000E+00 0. -1.
        -11    1    3    3    0    0  0.92531610994E+01 -0.16807286284E+01 -0.53968393297E+01  0.10843049101E+02  0.00000000000E+00 0.  1.
          4    1    6    6  502    0  0.58115079645E+02  0.65191618742E+02 -0.71364834513E+02  0.11278408239E+03  0.00000000000E+00 0. -1.
          1    1    5    5  503    0 -0.23023517244E+01  0.50788068311E+01 -0.78828411829E+01  0.96557903563E+01  0.00000000000E+00 0. -1.
         -2    1    5    5    0  503 -0.37333027328E+03 -0.26892970228E+03 -0.48981458598E+03  0.67202455785E+03  0.00000000000E+00 0.  1.
         -3    1    6    6    0  502  0.13266839456E+03  0.35286484340E+03 -0.42180148457E+03  0.56571281850E+03  0.00000000000E+00 0.  1.
<mgrwt>
<rscale>  0 0.13332647E+04</rscale>
<asrwt>0</asrwt>
<pdfrwt beam="1">  1        2 0.34104283E+00 0.13332647E+04</pdfrwt>
<pdfrwt beam="2">  1       -2 0.30841617E-01 0.13332647E+04</pdfrwt>
<totfact> 0.48207629E+01</totfact>
</mgrwt>
</event>
<event>
12    1  0.1755460E-007  0.1399764E+04  0.7818608E-02  0.8953989E-01
          2   -1    0    0  501    0  0.00000000000E+00  0.00000000000E+00  0.15398554030E+04  0.15398554030E+04  0.00000000000E+00 0. -1.
         -2   -1    0    0    0  501 -0.00000000000E+00 -0.00000000000E+00 -0.31810436833E+03  0.31810436833E+03  0.00000000000E+00 0.  1.
         23    2    1    2    0    0 -0.12306692755E+03 -0.32555234851E+03  0.86132012883E+02  0.36971811887E+03  0.90238370425E+02 0.  0.
        254    2    1    2    0    0  0.12306692755E+03  0.32555234851E+03  0.11356190218E+04  0.14882416524E+04  0.89671782249E+03 0.  0.
        -24    2    4    4    0    0  0.12044401689E+03  0.37393581963E+03  0.56288666969E+02  0.40488257691E+03  0.80166879992E+02 0.  0.
         24    2    4    4    0    0  0.26229106682E+01 -0.48383471120E+02  0.10793303548E+04  0.10833590755E+04  0.79781149439E+02 0.  0.
         13    1    3    3    0    0 -0.13064246509E+01 -0.10969985909E+03  0.44641962252E+02  0.11844268919E+03  0.00000000000E+00 0. -1.
        -13    1    3    3    0    0 -0.12176050290E+03 -0.21585248942E+03  0.41490050631E+02  0.25127542968E+03  0.00000000000E+00 0.  1.
          2    1    6    6  502    0  0.22252629198E+02 -0.33799668347E+02  0.98748768516E+03  0.98831651075E+03  0.00000000000E+00 0. -1.
          3    1    5    5  503    0  0.98646453195E+02  0.34080922850E+03  0.27467016985E+02  0.35586021129E+03  0.00000000000E+00 0. -1.
         -4    1    5    5    0  503  0.21797563690E+02  0.33126591133E+02  0.28821649985E+02  0.49022365618E+02  0.00000000000E+00 0.  1.
         -1    1    6    6    0  502 -0.19629718530E+02 -0.14583802774E+02  0.91842669649E+02  0.95042564787E+02  0.00000000000E+00 0.  1.
<mgrwt>
<rscale>  0 0.13997639E+04</rscale>
<asrwt>0</asrwt>
<pdfrwt beam="1">  1        2 0.23690083E+00 0.13997639E+04</pdfrwt>
<pdfrwt beam="2">  1       -2 0.48939134E-01 0.13997639E+04</pdfrwt>
<totfact> 0.46370415E+01</totfact>
</mgrwt>
</event>
<event>
12    1  0.1755460E-007  0.2017661E+04  0.7818608E-02  0.8598408E-01
          1   -1    0    0  501    0  0.00000000000E+00  0.00000000000E+00  0.14098156093E+04  0.14098156093E+04  0.00000000000E+00 0. -1.
         -1   -1    0    0    0  501 -0.00000000000E+00 -0.00000000000E+00 -0.72189496453E+03  0.72189496453E+03  0.00000000000E+00 0.  1.
         23    2    1    2    0    0  0.61498011035E+03 -0.18808631325E+03 -0.25110491681E+03  0.69428109043E+03  0.73454447992E+02 0.  0.
        254    2    1    2    0    0 -0.61498011035E+03  0.18808631325E+03  0.93902556159E+03  0.14374294834E+04  0.87798491850E+03 0.  0.
        -24    2    4    4    0    0 -0.56656249074E+03  0.11062419922E+02  0.10712930415E+03  0.58194095480E+03  0.77866257267E+02 0.  0.
         24    2    4    4    0    0 -0.48417619613E+02  0.17702389333E+03  0.83189625744E+03  0.85548852861E+03  0.78278443724E+02 0.  0.
         11    1    3    3    0    0  0.19559682762E+02 -0.16228061543E+02 -0.21828459377E+02  0.33502429911E+02  0.00000000000E+00 0. -1.
        -11    1    3    3    0    0  0.59542042759E+03 -0.17185825171E+03 -0.22927645743E+03  0.66077866052E+03  0.00000000000E+00 0.  1.
          4    1    6    6  502    0 -0.71271456182E+01  0.13464804861E+03  0.66178950197E+03  0.67538599195E+03  0.00000000000E+00 0. -1.
          1    1    5    5  503    0 -0.42799027819E+03 -0.22339778153E+02  0.66327075830E+02  0.43367502223E+03  0.00000000000E+00 0. -1.
         -2    1    5    5    0  503 -0.13857221254E+03  0.33402198075E+02  0.40802228323E+02  0.14826593257E+03  0.00000000000E+00 0.  1.
         -3    1    6    6    0  502 -0.41290473995E+02  0.42375844713E+02  0.17010675547E+03  0.18010253667E+03  0.00000000000E+00 0.  1.
<mgrwt>
<rscale>  0 0.20176608E+04</rscale>
<asrwt>0</asrwt>
<pdfrwt beam="1">  1        1 0.21689471E+00 0.20176608E+04</pdfrwt>
<pdfrwt beam="2">  1       -1 0.11106076E+00 0.20176608E+04</pdfrwt>
<totfact> 0.52251215E+00</totfact>
</mgrwt>
</event>
<event>
12    1  0.1755460E-007  0.2048549E+04  0.7818608E-02  0.8584253E-01
          2   -1    0    0  501    0  0.00000000000E+00  0.00000000000E+00  0.16783547033E+04  0.16783547033E+04  0.00000000000E+00 0. -1.
         -2   -1    0    0    0  501 -0.00000000000E+00 -0.00000000000E+00 -0.62509905791E+03  0.62509905791E+03  0.00000000000E+00 0.  1.
         23    2    1    2    0    0  0.68636072970E+03 -0.41547116544E+03  0.27619088392E+03  0.85378387008E+03  0.94647513720E+02 0.  0.
        254    2    1    2    0    0 -0.68636072970E+03  0.41547116544E+03  0.77706476147E+03  0.14496698911E+04  0.92412434724E+03 0.  0.
        -24    2    4    4    0    0 -0.62682056107E+03 -0.14223653124E+03  0.31987933675E+03  0.72255330354E+03  0.81395575958E+02 0.  0.
         24    2    4    4    0    0 -0.59540168633E+02  0.55770769669E+03  0.45718542472E+03  0.72711658759E+03  0.71394066627E+02 0.  0.
         13    1    3    3    0    0  0.39678456046E+03 -0.23537822926E+03  0.20778849051E+03  0.50598118050E+03  0.00000000000E+00 0. -1.
        -13    1    3    3    0    0  0.28957616924E+03 -0.18009293618E+03  0.68402393414E+02  0.34780268958E+03  0.00000000000E+00 0.  1.
          2    1    6    6  502    0 -0.63448166130E+02  0.55216615380E+03  0.44078336613E+03  0.70936810405E+03  0.00000000000E+00 0. -1.
          3    1    5    5  503    0 -0.62842702335E+03 -0.14098629317E+03  0.32160910816E+03  0.71988198824E+03  0.00000000000E+00 0. -1.
         -4    1    5    5    0  503  0.16064622816E+01 -0.12502380790E+01 -0.17297714144E+01  0.26713153057E+01  0.00000000000E+00 0.  1.
         -1    1    6    6    0  502  0.39079974971E+01  0.55415428831E+01  0.16402058584E+02  0.17748483534E+02  0.00000000000E+00 0.  1.
<mgrwt>
<rscale>  0 0.20485487E+04</rscale>
<asrwt>0</asrwt>
<pdfrwt beam="1">  1        2 0.25820841E+00 0.20485487E+04</pdfrwt>
<pdfrwt beam="2">  1       -2 0.96169087E-01 0.20485487E+04</pdfrwt>
<totfact> 0.84511256E+00</totfact>
</mgrwt>
</event>
<event>
12    1  0.1755460E-007  0.1395921E+04  0.7818608E-02  0.8956776E-01
         -2   -1    0    0    0  501 -0.00000000000E+00  0.00000000000E+00  0.54219378537E+03  0.54219378537E+03  0.00000000000E+00 0.  1.
          2   -1    0    0  501    0  0.00000000000E+00 -0.00000000000E+00 -0.89847785476E+03  0.89847785476E+03  0.00000000000E+00 0. -1.
         23    2    1    2    0    0  0.99076765370E+02  0.20405415244E+03 -0.44513869969E+03  0.50721640820E+03  0.87554098808E+02 0.  0.
        254    2    1    2    0    0 -0.99076765370E+02 -0.20405415244E+03  0.88854630294E+02  0.93345523193E+03  0.90110444574E+03 0.  0.
        -24    2    4    4    0    0  0.32931816321E+03 -0.27289121043E+02 -0.18688075220E+03  0.38838422767E+03  0.81992341183E+02 0.  0.
         24    2    4    4    0    0 -0.42839492858E+03 -0.17676503140E+03  0.27573538250E+03  0.54507100426E+03  0.79399668528E+02 0.  0.
         13    1    3    3    0    0  0.87066933258E+02  0.20972882160E+03 -0.43425035579E+03  0.49004101969E+03  0.00000000000E+00 0. -1.
        -13    1    3    3    0    0  0.12009832112E+02 -0.56746691600E+01 -0.10888343902E+02  0.17175388507E+02  0.00000000000E+00 0.  1.
          4    1    6    6  502    0 -0.42828584100E+03 -0.18170873381E+03  0.27283684516E+03  0.53933919718E+03  0.00000000000E+00 0. -1.
          3    1    5    5  503    0  0.30494652462E+03 -0.37335855996E+02 -0.14700597161E+03  0.34058347686E+03  0.00000000000E+00 0. -1.
         -4    1    5    5    0  503  0.24371638591E+02  0.10046734953E+02 -0.39874780595E+02  0.47800750814E+02  0.00000000000E+00 0.  1.
         -3    1    6    6    0  502 -0.10908758488E+00  0.49437024128E+01  0.28985373365E+01  0.57318070744E+01  0.00000000000E+00 0.  1.
<mgrwt>
<rscale>  0 0.13959214E+04</rscale>
<asrwt>0</asrwt>
<pdfrwt beam="1">  1        2 0.13822736E+00 0.13959214E+04</pdfrwt>
<pdfrwt beam="2">  1       -2 0.83414428E-01 0.13959214E+04</pdfrwt>
<totfact> 0.35999107E+01</totfact>
</mgrwt>
</event>
<event>
12    1  0.1755460E-007  0.1365265E+04  0.7818608E-02  0.8979353E-01
          2   -1    0    0  501    0  0.00000000000E+00  0.00000000000E+00  0.53425378299E+03  0.53425378299E+03  0.00000000000E+00 0. -1.
         -2   -1    0    0    0  501 -0.00000000000E+00 -0.00000000000E+00 -0.87222008873E+03  0.87222008873E+03  0.00000000000E+00 0.  1.
         23    2    1    2    0    0  0.31343319598E+03  0.21654748092E+03 -0.56709372528E+02  0.39545617034E+03  0.89646248616E+02 0.  0.
        254    2    1    2    0    0 -0.31343319598E+03 -0.21654748092E+03 -0.28125693320E+03  0.10110177014E+04  0.89326264345E+03 0.  0.
        -24    2    4    4    0    0 -0.57458106875E+03  0.59191473273E+02 -0.18428963932E+03  0.61106579215E+03  0.76103193769E+02 0.  0.
         24    2    4    4    0    0  0.26114787277E+03 -0.27573895419E+03 -0.96967293881E+02  0.39995190922E+03  0.79553072205E+02 0.  0.
         11    1    3    3    0    0  0.22528731986E+01 -0.67457975198E+01  0.31909163621E+01  0.77950733837E+01  0.00000000000E+00 0. -1.
        -11    1    3    3    0    0  0.31118032278E+03  0.22329327844E+03 -0.59900288890E+02  0.38766109696E+03  0.00000000000E+00 0.  1.
          4    1    6    6  502    0  0.52059572903E+02 -0.10586612067E+03 -0.18955158933E+02  0.11948695614E+03  0.00000000000E+00 0. -1.
          1    1    5    5  503    0 -0.88025064077E+02  0.22714876108E+02 -0.55205311535E+02  0.10635790485E+03  0.00000000000E+00 0. -1.
         -2    1    5    5    0  503 -0.48655600468E+03  0.36476597165E+02 -0.12908432779E+03  0.50470788730E+03  0.00000000000E+00 0.  1.
         -3    1    6    6    0  502  0.20908829987E+03 -0.16987283352E+03 -0.78012134948E+02  0.28046495308E+03  0.00000000000E+00 0.  1.
<mgrwt>
<rscale>  0 0.13652646E+04</rscale>
<asrwt>0</asrwt>
<pdfrwt beam="1">  1        2 0.82192890E-01 0.13652646E+04</pdfrwt>
<pdfrwt beam="2">  1       -2 0.13418771E+00 0.13652646E+04</pdfrwt>
<totfact> 0.22260671E+01</totfact>
</mgrwt>
</event>
<event>
12    1  0.1755460E-007  0.2671829E+04  0.7818608E-02  0.8344204E-01
         -1   -1    0    0    0  501 -0.00000000000E+00  0.00000000000E+00  0.72211848416E+03  0.72211848416E+03  0.00000000000E+00 0.  1.
          1   -1    0    0  501    0  0.00000000000E+00 -0.00000000000E+00 -0.24714331668E+04  0.24714331668E+04  0.00000000000E+00 0. -1.
         23    2    1    2    0    0 -0.11694919170E+04 -0.71136691808E+02 -0.73757556387E+03  0.13875576673E+04  0.92340645355E+02 0.  0.
        254    2    1    2    0    0  0.11694919170E+04  0.71136691808E+02 -0.10117391188E+04  0.18059939837E+04  0.93017549504E+03 0.  0.
        -24    2    4    4    0    0  0.54419732714E+03 -0.35808770378E+03 -0.18642546607E+03  0.68231410360E+03  0.80128316500E+02 0.  0.
         24    2    4    4    0    0  0.62529458990E+03  0.42922439559E+03 -0.82531365275E+03  0.11236798801E+04  0.79290236144E+02 0.  0.
         13    1    3    3    0    0 -0.12945865140E+03 -0.26691231216E+02 -0.57707490027E+02  0.14422939593E+03  0.00000000000E+00 0. -1.
        -13    1    3    3    0    0 -0.10400332656E+04 -0.44445460592E+02 -0.67986807384E+03  0.12433282714E+04  0.00000000000E+00 0.  1.
          2    1    6    6  502    0  0.29880149407E+03  0.17530497787E+03 -0.33086954496E+03  0.47904991797E+03  0.00000000000E+00 0. -1.
          3    1    5    5  503    0  0.26261233996E+03 -0.17493324487E+03 -0.13192940111E+03  0.34201205847E+03  0.00000000000E+00 0. -1.
         -4    1    5    5    0  503  0.28158498718E+03 -0.18315445891E+03 -0.54496064959E+02  0.34030204513E+03  0.00000000000E+00 0.  1.
         -1    1    6    6    0  502  0.32649309583E+03  0.25391941772E+03 -0.49444410778E+03  0.64462996210E+03  0.00000000000E+00 0.  1.
<mgrwt>
<rscale>  0 0.26718290E+04</rscale>
<asrwt>0</asrwt>
<pdfrwt beam="1">  1        1 0.38022049E+00 0.26718290E+04</pdfrwt>
<pdfrwt beam="2">  1       -1 0.11109515E+00 0.26718290E+04</pdfrwt>
<totfact> 0.92480847E-01</totfact>
</mgrwt>
</event>
<event>
12    1  0.1755460E-007  0.1188777E+04  0.7818608E-02  0.9122737E-01
          2   -1    0    0  501    0  0.00000000000E+00  0.00000000000E+00  0.17108181137E+04  0.17108181137E+04  0.00000000000E+00 0. -1.
         -2   -1    0    0    0  501 -0.00000000000E+00 -0.00000000000E+00 -0.20650815576E+03  0.20650815576E+03  0.00000000000E+00 0.  1.
         23    2    1    2    0    0 -0.95058081787E+02 -0.76015430774E+02  0.69570770404E+03  0.71156084456E+03  0.86575062348E+02 0.  0.
        254    2    1    2    0    0  0.95058081787E+02  0.76015430774E+02  0.80860225393E+03  0.12057654249E+04  0.88612542581E+03 0.  0.
        -24    2    4    4    0    0  0.33261456795E+03  0.37283229465E+03  0.46198125428E+03  0.68532585856E+03  0.81292572571E+02 0.  0.
         24    2    4    4    0    0 -0.23755648616E+03 -0.29681686388E+03  0.34662099966E+03  0.52043956637E+03  0.78599554972E+02 0.  0.
         13    1    3    3    0    0 -0.10863041684E+03 -0.79441440986E+02  0.60566981899E+03  0.62044132651E+03  0.00000000000E+00 0. -1.
        -13    1    3    3    0    0  0.13572335054E+02  0.34260102120E+01  0.90037885053E+02  0.91119518050E+02  0.00000000000E+00 0.  1.
          2    1    6    6  502    0 -0.18734270320E+02 -0.72275431249E+02  0.64600390476E+02  0.98731561804E+02  0.00000000000E+00 0. -1.
          1    1    5    5  503    0  0.10881402054E+03  0.17731140054E+03  0.21147634861E+03  0.29665142819E+03  0.00000000000E+00 0. -1.
         -2    1    5    5    0  503  0.22380054741E+03  0.19552089411E+03  0.25050490567E+03  0.38867443036E+03  0.00000000000E+00 0.  1.
         -1    1    6    6    0  502 -0.21882221584E+03 -0.22454143263E+03  0.28202060918E+03  0.42170800457E+03  0.00000000000E+00 0.  1.
<mgrwt>
<rscale>  0 0.11887773E+04</rscale>
<asrwt>0</asrwt>
<pdfrwt beam="1">  1        2 0.26320278E+00 0.11887773E+04</pdfrwt>
<pdfrwt beam="2">  1       -2 0.31770487E-01 0.11887773E+04</pdfrwt>
<totfact> 0.87934323E+01</totfact>
</mgrwt>
</event>
<event>
12    1  0.1755460E-007  0.1253140E+04  0.7818608E-02  0.9067574E-01
          2   -1    0    0  501    0  0.00000000000E+00  0.00000000000E+00  0.25943348378E+04  0.25943348378E+04  0.00000000000E+00 0. -1.
         -2   -1    0    0    0  501 -0.00000000000E+00 -0.00000000000E+00 -0.15132592296E+03  0.15132592296E+03  0.00000000000E+00 0.  1.
         23    2    1    2    0    0  0.24311871346E+03  0.12748321287E+03  0.78098765507E+03  0.83296262472E+03  0.92338174191E+02 0.  0.
        254    2    1    2    0    0 -0.24311871346E+03 -0.12748321287E+03  0.16620212598E+04  0.19126981360E+04  0.90594746719E+03 0.  0.
        -24    2    4    4    0    0 -0.54240987071E+03 -0.25499750134E+03  0.11710473064E+04  0.13178142275E+04  0.77784001189E+02 0.  0.
         24    2    4    4    0    0  0.29929115726E+03  0.12751428847E+03  0.49097395333E+03  0.59488390851E+03  0.83644193943E+02 0.  0.
         11    1    3    3    0    0  0.13401992492E+02 -0.84940455448E-01  0.13377182612E+03  0.13444151918E+03  0.00000000000E+00 0. -1.
        -11    1    3    3    0    0  0.22971672096E+03  0.12756815332E+03  0.64721582895E+03  0.69852110553E+03  0.00000000000E+00 0.  1.
          2    1    6    6  502    0  0.57649999884E+02  0.62803880562E+02  0.11106496136E+03  0.14001169788E+03  0.00000000000E+00 0. -1.
          3    1    5    5  503    0 -0.10663648530E+02 -0.25167704418E+01  0.59716344415E+01  0.12478299217E+02  0.00000000000E+00 0. -1.
         -4    1    5    5    0  503 -0.53174622218E+03 -0.25248073090E+03  0.11650756720E+04  0.13053359283E+04  0.00000000000E+00 0.  1.
         -1    1    6    6    0  502  0.24164115737E+03  0.64710407909E+02  0.37990899197E+03  0.45487221063E+03  0.00000000000E+00 0.  1.
<mgrwt>
<rscale>  0 0.12531402E+04</rscale>
<asrwt>0</asrwt>
<pdfrwt beam="1">  1        2 0.39912840E+00 0.12531402E+04</pdfrwt>
<pdfrwt beam="2">  1       -2 0.23280913E-01 0.12531402E+04</pdfrwt>
<totfact> 0.49526237E+01</totfact>
</mgrwt>
</event>
<event>
12    1  0.1755460E-007  0.1297615E+04  0.7818608E-02  0.9031459E-01
         -2   -1    0    0    0  501 -0.00000000000E+00  0.00000000000E+00  0.12902891573E+03  0.12902891573E+03  0.00000000000E+00 0.  1.
          2   -1    0    0  501    0  0.00000000000E+00 -0.00000000000E+00 -0.32624546486E+04  0.32624546486E+04  0.00000000000E+00 0. -1.
         23    2    1    2    0    0  0.10633316097E+03  0.29043867867E+03 -0.53682757751E+03  0.62688716736E+03  0.95615403749E+02 0.  0.
        254    2    1    2    0    0 -0.10633316097E+03 -0.29043867867E+03 -0.25965981554E+04  0.27645963970E+04  0.89722343398E+03 0.  0.
        -24    2    4    4    0    0  0.38582744791E+03 -0.62104618151E+02 -0.10182854104E+04  0.10933980524E+04  0.76774480092E+02 0.  0.
         24    2    4    4    0    0 -0.49216060888E+03 -0.22833406052E+03 -0.15783127450E+04  0.16711983446E+04  0.86453905867E+02 0.  0.
         13    1    3    3    0    0  0.71345555018E+02  0.27673224244E+03 -0.46426809782E+03  0.54517500757E+03  0.00000000000E+00 0.  1.
        -13    1    3    3    0    0  0.34987605952E+02  0.13706436233E+02 -0.72559479690E+02  0.81712159789E+02  0.00000000000E+00 0. -1.
          2    1    6    6  502    0 -0.12858299250E+03 -0.31320762390E+02 -0.46904809779E+03  0.48736094853E+03  0.00000000000E+00 0. -1.
          1    1    5    5  503    0  0.24273167089E+01 -0.11838219406E+01  0.84703923507E+00  0.28303314749E+01  0.00000000000E+00 0. -1.
         -2    1    5    5    0  503  0.38340013120E+03 -0.60920796210E+02 -0.10191324496E+04  0.10905677209E+04  0.00000000000E+00 0.  1.
         -1    1    6    6    0  502 -0.36357761638E+03 -0.19701329813E+03 -0.11092646472E+04  0.11838373960E+04  0.00000000000E+00 0.  1.
<mgrwt>
<rscale>  0 0.12976147E+04</rscale>
<asrwt>0</asrwt>
<pdfrwt beam="1">  1        2 0.50191604E+00 0.12976147E+04</pdfrwt>
<pdfrwt beam="2">  1       -2 0.19850605E-01 0.12976147E+04</pdfrwt>
<totfact> 0.25456431E+01</totfact>
</mgrwt>
</event>
<event>
12    1  0.1755460E-007  0.1169445E+04  0.7818608E-02  0.9140030E-01
          1   -1    0    0  501    0  0.00000000000E+00  0.00000000000E+00  0.25814994587E+04  0.25814994587E+04  0.00000000000E+00 0. -1.
         -1   -1    0    0    0  501 -0.00000000000E+00 -0.00000000000E+00 -0.13244256868E+03  0.13244256868E+03  0.00000000000E+00 0.  1.
         23    2    1    2    0    0 -0.13497459989E+03 -0.88361351949E+02  0.83654588186E+03  0.85783259039E+03  0.10020912904E+03 0.  0.
        254    2    1    2    0    0  0.13497459989E+03  0.88361351949E+02  0.16125110081E+04  0.18561094370E+04  0.90494453948E+03 0.  0.
        -24    2    4    4    0    0 -0.35981382967E+03  0.30269969070E+02  0.96974090854E+03  0.10380153956E+04  0.81830732068E+02 0.  0.
         24    2    4    4    0    0  0.49478842956E+03  0.58091382879E+02  0.64277009958E+03  0.81809404138E+03  0.89074467931E+02 0.  0.
         11    1    3    3    0    0 -0.88035202602E+02 -0.38907948848E+02  0.25954201339E+03  0.27681416527E+03  0.00000000000E+00 0.  1.
        -11    1    3    3    0    0 -0.46939397286E+02 -0.49453403101E+02  0.57700386847E+03  0.58101842512E+03  0.00000000000E+00 0. -1.
          4    1    6    6  502    0  0.27820785485E+03  0.69184199785E+02  0.32494504188E+03  0.43333052540E+03  0.00000000000E+00 0. -1.
          1    1    5    5  503    0 -0.73748346303E+02 -0.17059821018E+02  0.27420478610E+03  0.28446110595E+03  0.00000000000E+00 0. -1.
         -4    1    5    5    0  503 -0.28606548337E+03  0.47329790087E+02  0.69553612244E+03  0.75355428963E+03  0.00000000000E+00 0.  1.
         -3    1    6    6    0  502  0.21658057471E+03 -0.11092816906E+02  0.31782505770E+03  0.38476351598E+03  0.00000000000E+00 0.  1.
<mgrwt>
<rscale>  0 0.11694450E+04</rscale>
<asrwt>0</asrwt>
<pdfrwt beam="1">  1        1 0.39715373E+00 0.11694450E+04</pdfrwt>
<pdfrwt beam="2">  1       -1 0.20375782E-01 0.11694450E+04</pdfrwt>
<totfact> 0.23564274E+01</totfact>
</mgrwt>
</event>
<event>
12    1  0.1755460E-007  0.3062626E+04  0.7818608E-02  0.8226070E-01
         -1   -1    0    0    0  501 -0.00000000000E+00  0.00000000000E+00  0.18794790123E+04  0.18794790123E+04  0.00000000000E+00 0.  1.
          1   -1    0    0  501    0  0.00000000000E+00 -0.00000000000E+00 -0.12476433823E+04  0.12476433823E+04  0.00000000000E+00 0. -1.
         23    2    1    2    0    0  0.65917383902E+03  0.11204349427E+04  0.82493080636E+03  0.15421312467E+04  0.88166524009E+02 0.  0.
        254    2    1    2    0    0 -0.65917383902E+03 -0.11204349427E+04 -0.19309517634E+03  0.15849911480E+04  0.88601725782E+03 0.  0.
        -24    2    4    4    0    0  0.40717523239E+02 -0.76961520570E+03 -0.18463039227E+03  0.79749708539E+03  0.89150086457E+02 0.  0.
         24    2    4    4    0    0 -0.69989136225E+03 -0.35081973697E+03 -0.84647840701E+01  0.78749406256E+03  0.84574459456E+02 0.  0.
         11    1    3    3    0    0  0.22944091369E+03  0.33317499507E+03  0.22257283223E+03  0.46172218471E+03  0.00000000000E+00 0. -1.
        -11    1    3    3    0    0  0.42973292533E+03  0.78725994760E+03  0.60235797413E+03  0.10804090620E+04  0.00000000000E+00 0.  1.
          4    1    6    6  502    0 -0.13455087113E+03 -0.10238581651E+03 -0.16891084321E+02  0.16991792452E+03  0.00000000000E+00 0. -1.
          1    1    5    5  503    0 -0.21397526450E+02 -0.89691033596E+02 -0.99028605606E+01  0.92738353948E+02  0.00000000000E+00 0. -1.
         -2    1    5    5    0  503  0.62115049689E+02 -0.67992417210E+03 -0.17472753170E+03  0.70475873144E+03  0.00000000000E+00 0.  1.
         -3    1    6    6    0  502 -0.56534049112E+03 -0.24843392046E+03  0.84263002507E+01  0.61757613804E+03  0.00000000000E+00 0.  1.
<mgrwt>
<rscale>  0 0.30626260E+04</rscale>
<asrwt>0</asrwt>
<pdfrwt beam="1">  1        1 0.19194514E+00 0.30626260E+04</pdfrwt>
<pdfrwt beam="2">  1       -1 0.28915062E+00 0.30626260E+04</pdfrwt>
<totfact> 0.32424345E-01</totfact>
</mgrwt>
</event>
<event>
12    1  0.1755460E-007  0.3494794E+04  0.7818608E-02  0.8115025E-01
          1   -1    0    0  501    0  0.00000000000E+00  0.00000000000E+00  0.21010941112E+04  0.21010941112E+04  0.00000000000E+00 0. -1.
         -1   -1    0    0    0  501 -0.00000000000E+00 -0.00000000000E+00 -0.14532407066E+04  0.14532407066E+04  0.00000000000E+00 0.  1.
         23    2    1    2    0    0 -0.77830382854E+03 -0.85253920820E+03  0.14730065100E+04  0.18737002926E+04  0.91785931234E+02 0.  0.
        254    2    1    2    0    0  0.77830382854E+03  0.85253920820E+03 -0.82515310542E+03  0.16806345252E+04  0.90059691803E+03 0.  0.
        -24    2    4    4    0    0  0.72312767974E+03  0.61497347427E+03 -0.15710380214E+03  0.96515589455E+03  0.75751441413E+02 0.  0.
         24    2    4    4    0    0  0.55176148799E+02  0.23756573393E+03 -0.66804930329E+03  0.71547863062E+03  0.78344839744E+02 0.  0.
         11    1    3    3    0    0 -0.65194003684E+03 -0.73840744753E+03  0.12990572065E+04  0.16302824896E+04  0.00000000000E+00 0. -1.
        -11    1    3    3    0    0 -0.12636379171E+03 -0.11413176067E+03  0.17394930345E+03  0.24341780301E+03  0.00000000000E+00 0.  1.
          4    1    6    6  502    0  0.43489488256E+02  0.15523041724E+03 -0.53331235286E+03  0.55714440115E+03  0.00000000000E+00 0. -1.
          3    1    5    5  503    0  0.32495189278E+03  0.27800001618E+03 -0.32644750748E+02  0.42888625692E+03  0.00000000000E+00 0. -1.
         -4    1    5    5    0  503  0.39817578696E+03  0.33697345810E+03 -0.12445905139E+03  0.53626963764E+03  0.00000000000E+00 0.  1.
         -3    1    6    6    0  502  0.11686660542E+02  0.82335316692E+02 -0.13473695043E+03  0.15833422946E+03  0.00000000000E+00 0.  1.
<mgrwt>
<rscale>  0 0.34947936E+04</rscale>
<asrwt>0</asrwt>
<pdfrwt beam="1">  1        1 0.32324525E+00 0.34947936E+04</pdfrwt>
<pdfrwt beam="2">  1       -1 0.22357549E+00 0.34947936E+04</pdfrwt>
<totfact> 0.21628709E-01</totfact>
</mgrwt>
</event>
<event>
12    1  0.1755460E-007  0.2775044E+04  0.7818608E-02  0.8311058E-01
         -1   -1    0    0    0  501 -0.00000000000E+00  0.00000000000E+00  0.22295466651E+04  0.22295466651E+04  0.00000000000E+00 0.  1.
          1   -1    0    0  501    0  0.00000000000E+00 -0.00000000000E+00 -0.86350173381E+03  0.86350173381E+03  0.00000000000E+00 0. -1.
         23    2    1    2    0    0 -0.82669057353E+03 -0.28579236317E+02  0.16384004745E+04  0.18376418887E+04  0.91310017251E+02 0.  0.
        254    2    1    2    0    0  0.82669057353E+03  0.28579236317E+02 -0.27235554320E+03  0.12554065102E+04  0.90423110256E+03 0.  0.
        -24    2    4    4    0    0  0.87063289962E+03 -0.26456367377E+03 -0.15064252182E+03  0.92575100727E+03  0.79537253485E+02 0.  0.
         24    2    4    4    0    0 -0.43942326096E+02  0.29314291009E+03 -0.12171302138E+03  0.32965550293E+03  0.77427367798E+02 0.  0.
         11    1    3    3    0    0 -0.66765579654E+03  0.63114900273E+01  0.13619050757E+04  0.15167694396E+04  0.00000000000E+00 0. -1.
        -11    1    3    3    0    0 -0.15903477698E+03 -0.34890726344E+02  0.27649539875E+03  0.32087244912E+03  0.00000000000E+00 0.  1.
          4    1    6    6  502    0 -0.35504224697E+02  0.25845340342E+03 -0.76141872708E+02  0.27176514951E+03  0.00000000000E+00 0. -1.
          3    1    5    5  503    0  0.81850647368E+03 -0.23862315457E+03 -0.15788996513E+03  0.86707733129E+03  0.00000000000E+00 0. -1.
         -4    1    5    5    0  503  0.52126425943E+02 -0.25940519198E+02  0.72474433084E+01  0.58673675975E+02  0.00000000000E+00 0.  1.
         -3    1    6    6    0  502 -0.84381013987E+01  0.34689506667E+02 -0.45571148668E+02  0.57890353419E+02  0.00000000000E+00 0.  1.
<mgrwt>
<rscale>  0 0.27750441E+04</rscale>
<asrwt>0</asrwt>
<pdfrwt beam="1">  1        1 0.13284642E+00 0.27750441E+04</pdfrwt>
<pdfrwt beam="2">  1       -1 0.34300718E+00 0.27750441E+04</pdfrwt>
<totfact> 0.29256187E-01</totfact>
</mgrwt>
</event>
<event>
12    1  0.1755460E-007  0.1792150E+04  0.7818608E-02  0.8710485E-01
          1   -1    0    0  501    0  0.00000000000E+00  0.00000000000E+00  0.31628085312E+03  0.31628085312E+03  0.00000000000E+00 0. -1.
         -1   -1    0    0    0  501 -0.00000000000E+00 -0.00000000000E+00 -0.25387268853E+04  0.25387268853E+04  0.00000000000E+00 0.  1.
         23    2    1    2    0    0 -0.30769088052E+03 -0.34317954404E+03 -0.67653222407E+02  0.47458128926E+03  0.90579049511E+02 0.  0.
        254    2    1    2    0    0  0.30769088052E+03  0.34317954404E+03 -0.21547928098E+04  0.23804264492E+04  0.90047329190E+03 0.  0.
        -24    2    4    4    0    0 -0.13262795105E+03 -0.23423883121E+03 -0.58080302909E+03  0.64512478588E+03  0.79973916445E+02 0.  0.
         24    2    4    4    0    0  0.44031883157E+03  0.57741837525E+03 -0.15739897807E+04  0.17353016633E+04  0.80841693309E+02 0.  0.
         11    1    3    3    0    0 -0.24029937991E+03 -0.29176351462E+03 -0.86484526672E+02  0.38774903456E+03  0.00000000000E+00 0. -1.
        -11    1    3    3    0    0 -0.67391500612E+02 -0.51416029418E+02  0.18831304265E+02  0.86832254699E+02  0.00000000000E+00 0.  1.
          4    1    6    6  502    0  0.40705039575E+03  0.51783722353E+03 -0.14712739046E+04  0.16119839693E+04  0.00000000000E+00 0. -1.
          1    1    5    5  503    0 -0.93319068147E+02 -0.20410103864E+03 -0.41143600833E+03  0.46866328147E+03  0.00000000000E+00 0. -1.
         -4    1    5    5    0  503 -0.39308882899E+02 -0.30137792577E+02 -0.16936702076E+03  0.17646150441E+03  0.00000000000E+00 0.  1.
         -3    1    6    6    0  502  0.33268435823E+02  0.59581151719E+02 -0.10271587609E+03  0.12331769404E+03  0.00000000000E+00 0.  1.
<mgrwt>
<rscale>  0 0.17921503E+04</rscale>
<asrwt>0</asrwt>
<pdfrwt beam="1">  1        1 0.48658592E-01 0.17921503E+04</pdfrwt>
<pdfrwt beam="2">  1       -1 0.39057337E+00 0.17921503E+04</pdfrwt>
<totfact> 0.64288274E-01</totfact>
</mgrwt>
</event>
<event>
12    1  0.1755460E-007  0.1560216E+04  0.7818608E-02  0.8845369E-01
         -1   -1    0    0    0  501 -0.00000000000E+00  0.00000000000E+00  0.79667408040E+03  0.79667408040E+03  0.00000000000E+00 0.  1.
          1   -1    0    0  501    0  0.00000000000E+00 -0.00000000000E+00 -0.76388608537E+03  0.76388608537E+03  0.00000000000E+00 0. -1.
         23    2    1    2    0    0  0.19247346304E+03  0.32407360410E+03 -0.33824042902E+03  0.51569662263E+03  0.97296885481E+02 0.  0.
        254    2    1    2    0    0 -0.19247346304E+03 -0.32407360410E+03  0.37102842404E+03  0.10448635431E+04  0.90111486364E+03 0.  0.
        -24    2    4    4    0    0 -0.39740109221E+03  0.11166394884E+03 -0.17005456405E+02  0.42139037226E+03  0.82971047540E+02 0.  0.
         24    2    4    4    0    0  0.20492762917E+03 -0.43573755293E+03  0.38803388045E+03  0.62347317087E+03  0.79284009705E+02 0.  0.
         11    1    3    3    0    0  0.27884724186E+02  0.89399177742E+02 -0.39361612007E+02  0.10158300706E+03  0.00000000000E+00 0.  1.
        -11    1    3    3    0    0  0.16458873886E+03  0.23467442636E+03 -0.29887881701E+03  0.41411361557E+03  0.00000000000E+00 0. -1.
          4    1    6    6  502    0  0.17634637750E+03 -0.39810001631E+03  0.37451037151E+03  0.57431671246E+03  0.00000000000E+00 0. -1.
          3    1    5    5  503    0 -0.36194234835E+03  0.12510209091E+03 -0.11989956966E+02  0.38314038648E+03  0.00000000000E+00 0. -1.
         -4    1    5    5    0  503 -0.35458743855E+02 -0.13438142070E+02 -0.50154994385E+01  0.38249985787E+02  0.00000000000E+00 0.  1.
         -1    1    6    6    0  502  0.28581251661E+02 -0.37637536628E+02  0.13523508933E+02  0.49156458414E+02  0.00000000000E+00 0.  1.
<mgrwt>
<rscale>  0 0.15602157E+04</rscale>
<asrwt>0</asrwt>
<pdfrwt beam="1">  1        1 0.11752094E+00 0.15602157E+04</pdfrwt>
<pdfrwt beam="2">  1       -1 0.12256524E+00 0.15602157E+04</pdfrwt>
<totfact> 0.13465678E+01</totfact>
</mgrwt>
</event>
<event>
12    1  0.1755460E-007  0.1125563E+04  0.7818608E-02  0.9180629E-01
         -1   -1    0    0    0  501 -0.00000000000E+00  0.00000000000E+00  0.73593891668E+02  0.73593891668E+02  0.00000000000E+00 0.  1.
          1   -1    0    0  501    0  0.00000000000E+00 -0.00000000000E+00 -0.43036560000E+04  0.43036560000E+04  0.00000000000E+00 0. -1.
         23    2    1    2    0    0  0.97846082246E+02 -0.12035158316E+03 -0.36690212908E+03  0.40887478720E+03  0.92212037723E+02 0.  0.
        254    2    1    2    0    0 -0.97846082246E+02  0.12035158316E+03 -0.38631599792E+04  0.39683751044E+04  0.89439229934E+03 0.  0.
        -24    2    4    4    0    0 -0.32311124099E+03 -0.76946293997E+01 -0.54088445971E+03  0.63506929956E+03  0.79353229968E+02 0.  0.
         24    2    4    4    0    0  0.22526515875E+03  0.12804621256E+03 -0.33222755195E+04  0.33333058049E+04  0.79200612593E+02 0.  0.
         13    1    3    3    0    0  0.33787151537E+02 -0.61644261459E+02 -0.68779034101E+02  0.98347049329E+02  0.00000000000E+00 0.  1.
        -13    1    3    3    0    0  0.64058930708E+02 -0.58707321698E+02 -0.29812309498E+03  0.31052773787E+03  0.00000000000E+00 0. -1.
          2    1    6    6  502    0  0.50030315005E+02  0.20518073121E+02 -0.11653447156E+04  0.11665986156E+04  0.00000000000E+00 0. -1.
          1    1    5    5  503    0 -0.52084035753E+02  0.78479527681E+01 -0.15148323720E+03  0.16037926392E+03  0.00000000000E+00 0. -1.
         -2    1    5    5    0  503 -0.27102720524E+03 -0.15542582168E+02 -0.38940122251E+03  0.47469003564E+03  0.00000000000E+00 0.  1.
         -1    1    6    6    0  502  0.17523484374E+03  0.10752813944E+03 -0.21569308039E+04  0.21667071892E+04  0.00000000000E+00 0.  1.
<mgrwt>
<rscale>  0 0.11255626E+04</rscale>
<asrwt>0</asrwt>
<pdfrwt beam="1">  1        1 0.66210134E+00 0.11255626E+04</pdfrwt>
<pdfrwt beam="2">  1       -1 0.11322130E-01 0.11255626E+04</pdfrwt>
<totfact> 0.27321294E+00</totfact>
</mgrwt>
</event>
<event>
12    1  0.1755460E-007  0.4871824E+04  0.7818608E-02  0.7848590E-01
         -2   -1    0    0    0  501 -0.00000000000E+00  0.00000000000E+00  0.15712465863E+04  0.15712465863E+04  0.00000000000E+00 0.  1.
          2   -1    0    0  501    0  0.00000000000E+00 -0.00000000000E+00 -0.37764072903E+04  0.37764072903E+04  0.00000000000E+00 0. -1.
         23    2    1    2    0    0  0.16961478604E+04 -0.46245852602E+03  0.64849723916E+03  0.18760742978E+04  0.91217590520E+02 0.  0.
        254    2    1    2    0    0 -0.16961478604E+04  0.46245852602E+03 -0.28536579431E+04  0.34715795788E+04  0.90427631990E+03 0.  0.
        -24    2    4    4    0    0 -0.19007210315E+03 -0.10571418909E+03 -0.94720896944E+03  0.97520570809E+03  0.80736900733E+02 0.  0.
         24    2    4    4    0    0 -0.15060757573E+04  0.56817271512E+03 -0.19064489737E+04  0.24963738707E+04  0.79059421533E+02 0.  0.
         13    1    3    3    0    0  0.15001131190E+04 -0.42286721358E+03  0.54680240565E+03  0.16517109072E+04  0.00000000000E+00 0. -1.
        -13    1    3    3    0    0  0.19603474145E+03 -0.39591312440E+02  0.10169483351E+03  0.22436339059E+03  0.00000000000E+00 0.  1.
          4    1    6    6  502    0 -0.99344176245E+02  0.26174788701E+02 -0.14813365124E+03  0.18027191558E+03  0.00000000000E+00 0. -1.
          3    1    5    5  503    0 -0.34149382787E+02 -0.23566583039E+02 -0.35246918391E+03  0.35490293009E+03  0.00000000000E+00 0. -1.
         -4    1    5    5    0  503 -0.15592272037E+03 -0.82147606055E+02 -0.59473978552E+03  0.62030277800E+03  0.00000000000E+00 0.  1.
         -3    1    6    6    0  502 -0.14067315810E+04  0.54199792641E+03 -0.17583153224E+04  0.23161019551E+04  0.00000000000E+00 0.  1.
<mgrwt>
<rscale>  0 0.48718239E+04</rscale>
<asrwt>0</asrwt>
<pdfrwt beam="1">  1        2 0.58098573E+00 0.48718239E+04</pdfrwt>
<pdfrwt beam="2">  1       -2 0.24173025E+00 0.48718239E+04</pdfrwt>
<totfact> 0.27114514E-02</totfact>
</mgrwt>
</event>
<event>
12    1  0.1755460E-007  0.1125857E+04  0.7818608E-02  0.9180350E-01
          1   -1    0    0  501    0  0.00000000000E+00  0.00000000000E+00  0.23250067059E+04  0.23250067059E+04  0.00000000000E+00 0. -1.
         -1   -1    0    0    0  501 -0.00000000000E+00 -0.00000000000E+00 -0.13629563187E+03  0.13629563187E+03  0.00000000000E+00 0.  1.
         23    2    1    2    0    0 -0.10642667566E+03  0.13468469152E+03  0.25277135103E+03  0.31954165154E+03  0.93524904410E+02 0.  0.
        254    2    1    2    0    0  0.10642667566E+03 -0.13468469152E+03  0.19359397230E+04  0.21417606862E+04  0.89989422857E+03 0.  0.
        -24    2    4    4    0    0  0.16620564376E+03 -0.28697183166E+03  0.19291691614E+04  0.19591010605E+04  0.80038515641E+02 0.  0.
         24    2    4    4    0    0 -0.59778968105E+02  0.15228714014E+03  0.67705616124E+01  0.18265962570E+03  0.80955545050E+02 0.  0.
         13    1    3    3    0    0 -0.61771760401E+02  0.12780406040E+03  0.14613279533E+03  0.20372634122E+03  0.00000000000E+00 0.  1.
        -13    1    3    3    0    0 -0.44654915258E+02  0.68806311202E+01  0.10663855570E+03  0.11581531032E+03  0.00000000000E+00 0. -1.
          2    1    6    6  502    0 -0.13059704427E+02  0.58874313268E+01  0.24075151355E+02  0.28014828932E+02  0.00000000000E+00 0. -1.
          3    1    5    5  503    0  0.57576066639E+02 -0.17357823814E+03  0.95414530963E+03  0.97151308797E+03  0.00000000000E+00 0. -1.
         -4    1    5    5    0  503  0.10862957713E+03 -0.11339359353E+03  0.97502385176E+03  0.98758797258E+03  0.00000000000E+00 0.  1.
         -1    1    6    6    0  502 -0.46719263678E+02  0.14639970881E+03 -0.17304589743E+02  0.15464479676E+03  0.00000000000E+00 0.  1.
<mgrwt>
<rscale>  0 0.11258566E+04</rscale>
<asrwt>0</asrwt>
<pdfrwt beam="1">  1        1 0.35769331E+00 0.11258566E+04</pdfrwt>
<pdfrwt beam="2">  1       -1 0.20968560E-01 0.11258566E+04</pdfrwt>
<totfact> 0.33822208E+01</totfact>
</mgrwt>
</event>
<event>
12    1  0.1755460E-007  0.1131110E+04  0.7818608E-02  0.9175389E-01
          2   -1    0    0  501    0  0.00000000000E+00  0.00000000000E+00  0.10195135636E+04  0.10195135636E+04  0.00000000000E+00 0. -1.
         -2   -1    0    0    0  501 -0.00000000000E+00 -0.00000000000E+00 -0.31373070188E+03  0.31373070188E+03  0.00000000000E+00 0.  1.
         23    2    1    2    0    0 -0.15656681183E+03 -0.11661351421E+03  0.12684550694E+03  0.24954404860E+03  0.89836358427E+02 0.  0.
        254    2    1    2    0    0  0.15656681183E+03  0.11661351421E+03  0.57893735481E+03  0.10837002169E+04  0.89505632286E+03 0.  0.
        -24    2    4    4    0    0 -0.60743768467E+02 -0.36665230574E+03  0.22773700452E+03  0.44317843225E+03  0.80120290020E+02 0.  0.
         24    2    4    4    0    0  0.21731058030E+03  0.48326581995E+03  0.35120035029E+03  0.64052178466E+03  0.78464830010E+02 0.  0.
         11    1    3    3    0    0 -0.11283924204E+03 -0.11707165660E+03  0.12616980231E+03  0.20580885875E+03  0.00000000000E+00 0. -1.
        -11    1    3    3    0    0 -0.43727569789E+02  0.45814239394E+00  0.67570462794E+00  0.43735189846E+02  0.00000000000E+00 0.  1.
          4    1    6    6  502    0  0.94556365168E+02  0.12551697827E+03  0.93664280531E+02  0.18294374948E+03  0.00000000000E+00 0. -1.
          1    1    5    5  503    0 -0.51102035138E+01 -0.98226496733E+02  0.10162992659E+03  0.14143267239E+03  0.00000000000E+00 0. -1.
         -2    1    5    5    0  503 -0.55633564953E+02 -0.26842580901E+03  0.12610707793E+03  0.30174575986E+03  0.00000000000E+00 0.  1.
         -3    1    6    6    0  502  0.12275421513E+03  0.35774884168E+03  0.25753606976E+03  0.45757803518E+03  0.00000000000E+00 0.  1.
<mgrwt>
<rscale>  0 0.11311104E+04</rscale>
<asrwt>0</asrwt>
<pdfrwt beam="1">  1        2 0.15684824E+00 0.11311104E+04</pdfrwt>
<pdfrwt beam="2">  1       -2 0.48266262E-01 0.11311104E+04</pdfrwt>
<totfact> 0.98592252E+01</totfact>
</mgrwt>
</event>
<event>
12    1  0.1755460E-007  0.1562428E+04  0.7818608E-02  0.8843968E-01
          2   -1    0    0  501    0  0.00000000000E+00  0.00000000000E+00  0.18901014342E+04  0.18901014342E+04  0.00000000000E+00 0. -1.
         -2   -1    0    0    0  501 -0.00000000000E+00 -0.00000000000E+00 -0.32289037593E+03  0.32289037593E+03  0.00000000000E+00 0.  1.
         23    2    1    2    0    0 -0.38824374134E+03 -0.26707941072E+03  0.81016911762E+03  0.94160871989E+03  0.90489601056E+02 0.  0.
        254    2    1    2    0    0  0.38824374134E+03  0.26707941072E+03  0.75704194061E+03  0.12713830902E+04  0.90622174324E+03 0.  0.
        -24    2    4    4    0    0 -0.20474759288E+03  0.16935063672E+03  0.57520480069E+03  0.63852473906E+03  0.79069998718E+02 0.  0.
         24    2    4    4    0    0  0.59299133421E+03  0.97728773996E+02  0.18183713992E+03  0.63285835116E+03  0.79090526961E+02 0.  0.
         11    1    3    3    0    0 -0.36558977810E+03 -0.21965669741E+03  0.73715001665E+03  0.85164258795E+03  0.00000000000E+00 0. -1.
        -11    1    3    3    0    0 -0.22653963237E+02 -0.47422713314E+02  0.73019100971E+02  0.89966131933E+02  0.00000000000E+00 0.  1.
          4    1    6    6  502    0  0.27853205411E+03  0.84128146667E+02  0.99657896359E+02  0.30755381080E+03  0.00000000000E+00 0. -1.
          3    1    5    5  503    0 -0.14889837348E+03  0.75698305585E+02  0.31914130740E+03  0.36021123411E+03  0.00000000000E+00 0. -1.
         -4    1    5    5    0  503 -0.55849219399E+02  0.93652331138E+02  0.25606349330E+03  0.27831350494E+03  0.00000000000E+00 0.  1.
         -3    1    6    6    0  502  0.31445928010E+03  0.13600627329E+02  0.82179243557E+02  0.32530454036E+03  0.00000000000E+00 0.  1.
<mgrwt>
<rscale>  0 0.15624283E+04</rscale>
<asrwt>0</asrwt>
<pdfrwt beam="1">  1        2 0.29078483E+00 0.15624283E+04</pdfrwt>
<pdfrwt beam="2">  1       -2 0.49675444E-01 0.15624283E+04</pdfrwt>
<totfact> 0.28362537E+01</totfact>
</mgrwt>
</event>
<event>
12    1  0.1755460E-007  0.3124240E+04  0.7818608E-02  0.8209117E-01
         -1   -1    0    0    0  501 -0.00000000000E+00  0.00000000000E+00  0.68555996566E+03  0.68555996566E+03  0.00000000000E+00 0.  1.
          1   -1    0    0  501    0  0.00000000000E+00 -0.00000000000E+00 -0.35594544558E+04  0.35594544558E+04  0.00000000000E+00 0. -1.
         23    2    1    2    0    0  0.59183917350E+03 -0.65788668926E+03 -0.28488322402E+04  0.29844881212E+04  0.90750810565E+02 0.  0.
        254    2    1    2    0    0 -0.59183917350E+03  0.65788668926E+03 -0.25062249964E+02  0.12605263003E+04  0.89733490634E+03 0.  0.
        -24    2    4    4    0    0 -0.31055509094E+03  0.78182747304E+03 -0.23722849203E+03  0.87825200457E+03  0.85735430155E+02 0.  0.
         24    2    4    4    0    0 -0.28128408255E+03 -0.12394078378E+03  0.21216624206E+03  0.38227429571E+03  0.81468214113E+02 0.  0.
         13    1    3    3    0    0  0.50922175686E+03 -0.54196070742E+03 -0.22852364854E+04  0.24031924601E+04  0.00000000000E+00 0. -1.
        -13    1    3    3    0    0  0.82617416633E+02 -0.11592598184E+03 -0.56359575482E+03  0.58129566113E+03  0.00000000000E+00 0.  1.
          2    1    6    6  502    0 -0.91722177083E+01 -0.27992921733E+02  0.20118309432E+02  0.35671832295E+02  0.00000000000E+00 0. -1.
          1    1    5    5  503    0 -0.29571808379E+02  0.71232068558E+02 -0.48671297000E+02  0.91199751061E+02  0.00000000000E+00 0. -1.
         -2    1    5    5    0  503 -0.28098328256E+03  0.71059540448E+03 -0.18855719503E+03  0.78705225350E+03  0.00000000000E+00 0.  1.
         -3    1    6    6    0  502 -0.27211186485E+03 -0.95947862048E+02  0.19204793263E+03  0.34660246342E+03  0.00000000000E+00 0.  1.
<mgrwt>
<rscale>  0 0.31242404E+04</rscale>
<asrwt>0</asrwt>
<pdfrwt beam="1">  1        1 0.54760838E+00 0.31242404E+04</pdfrwt>
<pdfrwt beam="2">  1       -1 0.10547076E+00 0.31242404E+04</pdfrwt>
<totfact> 0.15885685E-01</totfact>
</mgrwt>
</event>
<event>
12    1  0.1755460E-007  0.1344275E+04  0.7818608E-02  0.8995173E-01
         -1   -1    0    0    0  501 -0.00000000000E+00  0.00000000000E+00  0.15563387015E+04  0.15563387015E+04  0.00000000000E+00 0.  1.
          1   -1    0    0  501    0  0.00000000000E+00 -0.00000000000E+00 -0.29027653264E+03  0.29027653264E+03  0.00000000000E+00 0. -1.
         23    2    1    2    0    0 -0.23339033755E+03 -0.11948569680E+03  0.11488861813E+02  0.27879309013E+03  0.94051644103E+02 0.  0.
        254    2    1    2    0    0  0.23339033755E+03  0.11948569680E+03  0.12545733070E+04  0.15678221440E+04  0.90297519958E+03 0.  0.
        -24    2    4    4    0    0 -0.30522868793E+03  0.16514656684E+03  0.72141150913E+03  0.80444861589E+03  0.79152192841E+02 0.  0.
         24    2    4    4    0    0  0.53861902548E+03 -0.45660870047E+02  0.53316179790E+03  0.76337352810E+03  0.79260778420E+02 0.  0.
         11    1    3    3    0    0 -0.72296865704E+02 -0.58007186656E+02 -0.36805918440E+02  0.99731369822E+02  0.00000000000E+00 0. -1.
        -11    1    3    3    0    0 -0.16109347185E+03 -0.61478510142E+02  0.48294780252E+02  0.17906172031E+03  0.00000000000E+00 0.  1.
          4    1    6    6  502    0  0.59178933429E+00 -0.50699234342E+01  0.12779531337E+02  0.13761204869E+02  0.00000000000E+00 0. -1.
          3    1    5    5  503    0 -0.95209077991E+02  0.94550271954E+02  0.25895900546E+03  0.29165782857E+03  0.00000000000E+00 0. -1.
         -4    1    5    5    0  503 -0.21001960993E+03  0.70596294891E+02  0.46245250367E+03  0.51279078732E+03  0.00000000000E+00 0.  1.
         -3    1    6    6    0  502  0.53802723614E+03 -0.40590946613E+02  0.52038226657E+03  0.74961232323E+03  0.00000000000E+00 0.  1.
<mgrwt>
<rscale>  0 0.13442747E+04</rscale>
<asrwt>0</asrwt>
<pdfrwt beam="1">  1        1 0.44657929E-01 0.13442747E+04</pdfrwt>
<pdfrwt beam="2">  1       -1 0.23943672E+00 0.13442747E+04</pdfrwt>
<totfact> 0.73355929E+00</totfact>
</mgrwt>
</event>
<event>
12    1  0.1755460E-007  0.2182456E+04  0.7818608E-02  0.8525766E-01
          2   -1    0    0  501    0  0.00000000000E+00  0.00000000000E+00  0.26436698159E+04  0.26436698159E+04  0.00000000000E+00 0. -1.
         -2   -1    0    0    0  501 -0.00000000000E+00 -0.00000000000E+00 -0.45042618807E+03  0.45042618807E+03  0.00000000000E+00 0.  1.
         23    2    1    2    0    0  0.62151346664E+03 -0.65764842834E+03  0.91961404814E+03  0.12933023045E+04  0.90334980954E+02 0.  0.
        254    2    1    2    0    0 -0.62151346664E+03  0.65764842834E+03  0.12736295797E+04  0.18007936995E+04  0.89551392916E+03 0.  0.
        -24    2    4    4    0    0 -0.11544286093E+03 -0.21336126659E+03  0.18580837993E+03  0.31604328482E+03  0.80675396564E+02 0.  0.
         24    2    4    4    0    0 -0.50607060570E+03  0.87100969493E+03  0.10878211998E+04  0.14847504147E+04  0.79771452012E+02 0.  0.
         13    1    3    3    0    0  0.41888212847E+03 -0.44312580012E+03  0.55786520668E+03  0.82646010255E+03  0.00000000000E+00 0. -1.
        -13    1    3    3    0    0  0.20263133817E+03 -0.21452262822E+03  0.36174884145E+03  0.46684220195E+03  0.00000000000E+00 0.  1.
          4    1    6    6  502    0 -0.47728129941E+03  0.77409895216E+03  0.97999459175E+03  0.13369427910E+04  0.00000000000E+00 0. -1.
          3    1    5    5  503    0 -0.53491674491E+02 -0.17251016670E+03  0.14303246063E+03  0.23038967349E+03  0.00000000000E+00 0. -1.
         -4    1    5    5    0  503 -0.61951186441E+02 -0.40851099885E+02  0.42775919297E+02  0.85653611336E+02  0.00000000000E+00 0.  1.
         -3    1    6    6    0  502 -0.28789306290E+02  0.96910742764E+02  0.10782660805E+03  0.14780762370E+03  0.00000000000E+00 0.  1.
<mgrwt>
<rscale>  0 0.21824556E+04</rscale>
<asrwt>0</asrwt>
<pdfrwt beam="1">  1        2 0.40671842E+00 0.21824556E+04</pdfrwt>
<pdfrwt beam="2">  1       -2 0.69296338E-01 0.21824556E+04</pdfrwt>
<totfact> 0.49910084E+00</totfact>
</mgrwt>
</event>
<event>
12    1  0.1755460E-007  0.1697428E+04  0.7818608E-02  0.8762833E-01
          1   -1    0    0  501    0  0.00000000000E+00  0.00000000000E+00  0.10514018701E+04  0.10514018701E+04  0.00000000000E+00 0. -1.
         -1   -1    0    0    0  501 -0.00000000000E+00 -0.00000000000E+00 -0.68509967790E+03  0.68509967790E+03  0.00000000000E+00 0.  1.
         23    2    1    2    0    0  0.64283806616E+02 -0.25919100612E+03 -0.44248157965E+03  0.52440665244E+03  0.88881962966E+02 0.  0.
        254    2    1    2    0    0 -0.64283806616E+02  0.25919100612E+03  0.80878377183E+03  0.12120948955E+04  0.86239808716E+03 0.  0.
        -24    2    4    4    0    0  0.69922257852E+02 -0.25383311539E+03  0.55376403363E+03  0.61825846320E+03  0.79174173588E+02 0.  0.
         24    2    4    4    0    0 -0.13420606447E+03  0.51302412151E+03  0.25501973820E+03  0.59383643233E+03  0.80010152506E+02 0.  0.
         13    1    3    3    0    0  0.73285045684E+01 -0.81910958855E+01  0.16225886836E+01  0.11110077635E+02  0.00000000000E+00 0. -1.
        -13    1    3    3    0    0  0.56955302048E+02 -0.25099991024E+03 -0.44410416834E+03  0.51329657480E+03  0.00000000000E+00 0.  1.
          2    1    6    6  502    0 -0.11413441697E+03  0.48194744507E+03  0.25449604226E+03  0.55683771467E+03  0.00000000000E+00 0. -1.
          3    1    5    5  503    0  0.77197204931E+02 -0.20669024678E+03  0.39453275819E+03  0.45203579930E+03  0.00000000000E+00 0. -1.
         -4    1    5    5    0  503 -0.72749470790E+01 -0.47142868611E+02  0.15923127544E+03  0.16622266390E+03  0.00000000000E+00 0.  1.
         -1    1    6    6    0  502 -0.20071647502E+02  0.31076676433E+02  0.52369594663E+00  0.36998717667E+02  0.00000000000E+00 0.  1.
<mgrwt>
<rscale>  0 0.16974276E+04</rscale>
<asrwt>0</asrwt>
<pdfrwt beam="1">  1        1 0.16175413E+00 0.16974276E+04</pdfrwt>
<pdfrwt beam="2">  1       -1 0.10539995E+00 0.16974276E+04</pdfrwt>
<totfact> 0.11090001E+01</totfact>
</mgrwt>
</event>
<event>
12    1  0.1755460E-007  0.1701702E+04  0.7818608E-02  0.8760394E-01
          1   -1    0    0  501    0  0.00000000000E+00  0.00000000000E+00  0.19289068889E+04  0.19289068889E+04  0.00000000000E+00 0. -1.
         -1   -1    0    0    0  501 -0.00000000000E+00 -0.00000000000E+00 -0.37531506431E+03  0.37531506431E+03  0.00000000000E+00 0.  1.
         23    2    1    2    0    0 -0.32856214166E+03  0.15739809865E+03  0.12384148889E+04  0.12942606404E+04  0.93337696953E+02 0.  0.
        254    2    1    2    0    0  0.32856214166E+03 -0.15739809865E+03  0.31517693562E+03  0.10099613128E+04  0.88767004582E+03 0.  0.
        -24    2    4    4    0    0  0.31916160061E+03 -0.43738833896E+03 -0.41184211947E+02  0.54965105335E+03  0.85131984458E+02 0.  0.
         24    2    4    4    0    0  0.94005410581E+01  0.27999024031E+03  0.35636114757E+03  0.46031025947E+03  0.80058495078E+02 0.  0.
         11    1    3    3    0    0 -0.20289355546E+03  0.46901553249E+02  0.71968738603E+03  0.74920990661E+03  0.00000000000E+00 0. -1.
        -11    1    3    3    0    0 -0.12566858621E+03  0.11049654540E+03  0.51872750289E+03  0.54505073375E+03  0.00000000000E+00 0.  1.
          2    1    6    6  502    0 -0.39418675286E+01  0.36379970548E+02  0.12459355462E+02  0.38655867798E+02  0.00000000000E+00 0. -1.
          3    1    5    5  503    0  0.83970489011E+02 -0.15317377281E+03 -0.46284185139E+02  0.18070825520E+03  0.00000000000E+00 0. -1.
         -4    1    5    5    0  503  0.23519111160E+03 -0.28421456614E+03  0.50999731919E+01  0.36894279815E+03  0.00000000000E+00 0.  1.
         -1    1    6    6    0  502  0.13342408587E+02  0.24361026976E+03  0.34390179211E+03  0.42165439167E+03  0.00000000000E+00 0.  1.
<mgrwt>
<rscale>  0 0.17017025E+04</rscale>
<asrwt>0</asrwt>
<pdfrwt beam="1">  1        1 0.29675490E+00 0.17017025E+04</pdfrwt>
<pdfrwt beam="2">  1       -1 0.57740780E-01 0.17017025E+04</pdfrwt>
<totfact> 0.96285234E+00</totfact>
</mgrwt>
</event>
<event>
12    1  0.1755460E-007  0.1662292E+04  0.7818608E-02  0.8783168E-01
          2   -1    0    0  501    0  0.00000000000E+00  0.00000000000E+00  0.16697862244E+04  0.16697862244E+04  0.00000000000E+00 0. -1.
         -2   -1    0    0    0  501 -0.00000000000E+00 -0.00000000000E+00 -0.41370779458E+03  0.41370779458E+03  0.00000000000E+00 0.  1.
         23    2    1    2    0    0  0.18591075103E+02 -0.36970314914E+03  0.10014103395E+04  0.10713725658E+04  0.89389373284E+02 0.  0.
        254    2    1    2    0    0 -0.18591075103E+02  0.36970314914E+03  0.25466809036E+03  0.10121214533E+04  0.90692224217E+03 0.  0.
        -24    2    4    4    0    0 -0.17229776901E+03 -0.87160482186E+02 -0.23896178750E+03  0.31750505181E+03  0.80145188105E+02 0.  0.
         24    2    4    4    0    0  0.15370669391E+03  0.45686363132E+03  0.49362987787E+03  0.69461640145E+03  0.80444785220E+02 0.  0.
         11    1    3    3    0    0 -0.85025905251E+01 -0.32080458409E+03  0.78996383959E+03  0.85266097781E+03  0.00000000000E+00 0. -1.
        -11    1    3    3    0    0  0.27093665628E+02 -0.48898565047E+02  0.21144649992E+03  0.21871158796E+03  0.00000000000E+00 0.  1.
          2    1    6    6  502    0  0.89137289835E+02  0.22526739059E+03  0.30199816611E+03  0.38716113705E+03  0.00000000000E+00 0. -1.
          1    1    5    5  503    0 -0.18109338268E+03 -0.81563581139E+02 -0.22600900704E+03  0.30087788599E+03  0.00000000000E+00 0. -1.
         -2    1    5    5    0  503  0.87956136708E+01 -0.55969010464E+01 -0.12952780468E+02  0.16627165814E+02  0.00000000000E+00 0.  1.
         -1    1    6    6    0  502  0.64569404072E+02  0.23159624073E+03  0.19163171175E+03  0.30745526441E+03  0.00000000000E+00 0.  1.
<mgrwt>
<rscale>  0 0.16622919E+04</rscale>
<asrwt>0</asrwt>
<pdfrwt beam="1">  1        2 0.25689018E+00 0.16622919E+04</pdfrwt>
<pdfrwt beam="2">  1       -2 0.63647354E-01 0.16622919E+04</pdfrwt>
<totfact> 0.22218759E+01</totfact>
</mgrwt>
</event>
<event>
12    1  0.1755460E-007  0.2186244E+04  0.7818608E-02  0.8524175E-01
         -2   -1    0    0    0  501 -0.00000000000E+00  0.00000000000E+00  0.11148525485E+04  0.11148525485E+04  0.00000000000E+00 0.  1.
          2   -1    0    0  501    0  0.00000000000E+00 -0.00000000000E+00 -0.10718151607E+04  0.10718151607E+04  0.00000000000E+00 0. -1.
         23    2    1    2    0    0  0.76258762428E+03  0.44407318940E+03  0.22749633292E+03  0.91592093127E+03  0.91737062338E+02 0.  0.
        254    2    1    2    0    0 -0.76258762428E+03 -0.44407318940E+03 -0.18445894508E+03  0.12707467779E+04  0.89556205197E+03 0.  0.
        -24    2    4    4    0    0 -0.30701787250E+03 -0.14418383992E+03  0.35595607392E+03  0.49888356175E+03  0.84446005819E+02 0.  0.
         24    2    4    4    0    0 -0.45556975178E+03 -0.29988934947E+03 -0.54041501899E+03  0.77186321617E+03  0.79038035532E+02 0.  0.
         13    1    3    3    0    0  0.74551702764E+02  0.72082599195E+02  0.43232124369E+02  0.11235156461E+03  0.00000000000E+00 0. -1.
        -13    1    3    3    0    0  0.68803592151E+03  0.37199059020E+03  0.18426420855E+03  0.80356936666E+03  0.00000000000E+00 0.  1.
          4    1    6    6  502    0 -0.19897993916E+03 -0.84836265557E+02 -0.21425176594E+03  0.30445693841E+03  0.00000000000E+00 0. -1.
          1    1    5    5  503    0  0.20125085927E+01  0.31657350924E+01 -0.13912596531E+01  0.40009590017E+01  0.00000000000E+00 0. -1.
         -2    1    5    5    0  503 -0.30903038109E+03 -0.14734957502E+03  0.35734733357E+03  0.49488260275E+03  0.00000000000E+00 0.  1.
         -3    1    6    6    0  502 -0.25658981262E+03 -0.21505308391E+03 -0.32616325306E+03  0.46740627776E+03  0.00000000000E+00 0.  1.
<mgrwt>
<rscale>  0 0.21862441E+04</rscale>
<asrwt>0</asrwt>
<pdfrwt beam="1">  1        2 0.16489464E+00 0.21862441E+04</pdfrwt>
<pdfrwt beam="2">  1       -2 0.17151578E+00 0.21862441E+04</pdfrwt>
<totfact> 0.43150839E+00</totfact>
</mgrwt>
</event>
<event>
12    1  0.1755460E-007  0.1643035E+04  0.7818608E-02  0.8794538E-01
          2   -1    0    0  501    0  0.00000000000E+00  0.00000000000E+00  0.13106325848E+04  0.13106325848E+04  0.00000000000E+00 0. -1.
         -2   -1    0    0    0  501 -0.00000000000E+00 -0.00000000000E+00 -0.51493527155E+03  0.51493527155E+03  0.00000000000E+00 0.  1.
         23    2    1    2    0    0  0.12593683437E+03 -0.54434858956E+03  0.40430951873E+03  0.69564480824E+03  0.90994720126E+02 0.  0.
        254    2    1    2    0    0 -0.12593683437E+03  0.54434858956E+03  0.39138779456E+03  0.11299230481E+04  0.90075868898E+03 0.  0.
        -24    2    4    4    0    0 -0.89710525484E+02  0.17145523092E+03  0.63922903587E+03  0.67296744180E+03  0.82622895320E+02 0.  0.
         24    2    4    4    0    0 -0.36226308888E+02  0.37289335864E+03 -0.24784124131E+03  0.45695560634E+03  0.83793453783E+02 0.  0.
         13    1    3    3    0    0  0.90338073371E+02 -0.44238201621E+03  0.28138901314E+03  0.53201747385E+03  0.00000000000E+00 0.  1.
        -13    1    3    3    0    0  0.35598761001E+02 -0.10196657335E+03  0.12292050559E+03  0.16362733440E+03  0.00000000000E+00 0. -1.
          4    1    6    6  502    0 -0.14526886141E+02  0.31492530219E+03 -0.17222211740E+03  0.35923451129E+03  0.00000000000E+00 0. -1.
          1    1    5    5  503    0 -0.92018641450E+02  0.10550194029E+03  0.36542963538E+03  0.39132711150E+03  0.00000000000E+00 0. -1.
         -2    1    5    5    0  503  0.23081159653E+01  0.65953290636E+02  0.27379940049E+03  0.28164033030E+03  0.00000000000E+00 0.  1.
         -3    1    6    6    0  502 -0.21699422747E+02  0.57968056448E+02 -0.75619123915E+02  0.97721095050E+02  0.00000000000E+00 0.  1.
<mgrwt>
<rscale>  0 0.16430349E+04</rscale>
<asrwt>0</asrwt>
<pdfrwt beam="1">  1        2 0.20163578E+00 0.16430349E+04</pdfrwt>
<pdfrwt beam="2">  1       -2 0.79220811E-01 0.16430349E+04</pdfrwt>
<totfact> 0.22011616E+01</totfact>
</mgrwt>
</event>
<event>
12    1  0.1755460E-007  0.2143629E+04  0.7818608E-02  0.8542264E-01
          1   -1    0    0  501    0  0.00000000000E+00  0.00000000000E+00  0.10731020885E+04  0.10731020885E+04  0.00000000000E+00 0. -1.
         -1   -1    0    0    0  501 -0.00000000000E+00 -0.00000000000E+00 -0.10705285499E+04  0.10705285499E+04  0.00000000000E+00 0.  1.
         23    2    1    2    0    0 -0.70120711218E+03  0.55840991475E+02  0.53005906353E+03  0.88531844826E+03  0.89534984841E+02 0.  0.
        254    2    1    2    0    0  0.70120711218E+03 -0.55840991475E+02 -0.52748552498E+03  0.12583121901E+04  0.90016607259E+03 0.  0.
        -24    2    4    4    0    0  0.70843927781E+03 -0.37598561856E+03 -0.43326210165E+03  0.91525408098E+03  0.81991391771E+02 0.  0.
         24    2    4    4    0    0 -0.72321656294E+01  0.32014462709E+03 -0.94223423329E+02  0.34305810914E+03  0.79157603992E+02 0.  0.
         11    1    3    3    0    0 -0.43852880454E+03  0.98348265394E+01  0.28463663868E+03  0.52289793679E+03  0.00000000000E+00 0. -1.
        -11    1    3    3    0    0 -0.26267830764E+03  0.46006164935E+02  0.24542242485E+03  0.36242051147E+03  0.00000000000E+00 0.  1.
          2    1    6    6  502    0 -0.12045391122E+02  0.22951333926E+03 -0.29787752251E+02  0.23175153620E+03  0.00000000000E+00 0. -1.
          1    1    5    5  503    0  0.10210557769E+03 -0.36006045712E+02 -0.85593322086E+02  0.13801522057E+03  0.00000000000E+00 0. -1.
         -2    1    5    5    0  503  0.60633370012E+03 -0.33997957285E+03 -0.34766877956E+03  0.77723886041E+03  0.00000000000E+00 0.  1.
         -3    1    6    6    0  502  0.48132254923E+01  0.90631287828E+02 -0.64435671078E+02  0.11130657294E+03  0.00000000000E+00 0.  1.
<mgrwt>
<rscale>  0 0.21436291E+04</rscale>
<asrwt>0</asrwt>
<pdfrwt beam="1">  1        1 0.16509263E+00 0.21436291E+04</pdfrwt>
<pdfrwt beam="2">  1       -1 0.16469670E+00 0.21436291E+04</pdfrwt>
<totfact> 0.32798154E+00</totfact>
</mgrwt>
</event>
<event>
12    1  0.1755460E-007  0.1159998E+04  0.7818608E-02  0.9148609E-01
          2   -1    0    0  501    0  0.00000000000E+00  0.00000000000E+00  0.17617895013E+04  0.17617895013E+04  0.00000000000E+00 0.  1.
         -2   -1    0    0    0  501 -0.00000000000E+00 -0.00000000000E+00 -0.19094151692E+03  0.19094151692E+03  0.00000000000E+00 0. -1.
         23    2    1    2    0    0 -0.20571124065E+03  0.86270708634E+02  0.30444161445E+03  0.39184498747E+03  0.10534727287E+03 0.  0.
        254    2    1    2    0    0  0.20571124065E+03 -0.86270708634E+02  0.12664063699E+04  0.15608860307E+04  0.88477135889E+03 0.  0.
        -24    2    4    4    0    0 -0.18333739652E+02  0.35409729581E+03  0.29400004875E+03  0.46745110829E+03  0.79708776582E+02 0.  0.
         24    2    4    4    0    0  0.22404498030E+03 -0.44036800444E+03  0.97240632116E+03  0.10934349225E+04  0.76848836503E+02 0.  0.
         13    1    3    3    0    0 -0.44376774310E+02  0.61952583294E+02  0.14452651946E+03  0.16338707263E+03  0.00000000000E+00 0.  1.
        -13    1    3    3    0    0 -0.16133446634E+03  0.24318125340E+02  0.15991509499E+03  0.22845791484E+03  0.00000000000E+00 0. -1.
          4    1    6    6  502    0  0.18246276996E+03 -0.28889469303E+03  0.62924948182E+03  0.71603611393E+03  0.00000000000E+00 0. -1.
          3    1    5    5  503    0 -0.21219423692E+02  0.32016508138E+03  0.29115980906E+03  0.43327817587E+03  0.00000000000E+00 0. -1.
         -4    1    5    5    0  503  0.28856840396E+01  0.33932214429E+02  0.28402396973E+01  0.34172932417E+02  0.00000000000E+00 0.  1.
         -3    1    6    6    0  502  0.41582210334E+02 -0.15147331142E+03  0.34315683934E+03  0.37739880852E+03  0.00000000000E+00 0.  1.
<mgrwt>
<rscale>  0 0.11599979E+04</rscale>
<asrwt>0</asrwt>
<pdfrwt beam="1">  1        2 0.27104453E+00 0.11599979E+04</pdfrwt>
<pdfrwt beam="2">  1       -2 0.29375619E-01 0.11599979E+04</pdfrwt>
<totfact> 0.95607474E+01</totfact>
</mgrwt>
</event>
<event>
12    1  0.1755460E-007  0.1258332E+04  0.7818608E-02  0.9063277E-01
          1   -1    0    0  501    0  0.00000000000E+00  0.00000000000E+00  0.43347538150E+03  0.43347538150E+03  0.00000000000E+00 0. -1.
         -1   -1    0    0    0  501 -0.00000000000E+00 -0.00000000000E+00 -0.91320029313E+03  0.91320029313E+03  0.00000000000E+00 0.  1.
         23    2    1    2    0    0  0.17611824080E+03  0.15404546362E+03  0.75565896784E+02  0.26218461675E+03  0.91010597716E+02 0.  0.
        254    2    1    2    0    0 -0.17611824080E+03 -0.15404546362E+03 -0.55529080841E+03  0.10844910579E+04  0.90167917416E+03 0.  0.
        -24    2    4    4    0    0 -0.30823845666E+03 -0.47480999482E+03 -0.39029944576E+03  0.69211786171E+03  0.78981009089E+02 0.  0.
         24    2    4    4    0    0  0.13212021586E+03  0.32076453120E+03 -0.16499136264E+03  0.39237319616E+03  0.79930841416E+02 0.  0.
         13    1    3    3    0    0 -0.54494728575E+00 -0.69943703622E+01  0.13495419504E+02  0.15210014198E+02  0.00000000000E+00 0.  1.
        -13    1    3    3    0    0  0.17666318809E+03  0.16103983398E+03  0.62070477280E+02  0.24697460255E+03  0.00000000000E+00 0. -1.
          2    1    6    6  502    0  0.36273043327E+02  0.25479443619E+02 -0.10262535357E+02  0.45500058805E+02  0.00000000000E+00 0. -1.
          3    1    5    5  503    0 -0.17372305214E+03 -0.21278150986E+03 -0.21966370607E+03  0.35172121566E+03  0.00000000000E+00 0. -1.
         -4    1    5    5    0  503 -0.13451540452E+03 -0.26202848495E+03 -0.17063573970E+03  0.34039664605E+03  0.00000000000E+00 0.  1.
         -1    1    6    6    0  502  0.95847172529E+02  0.29528508758E+03 -0.15472882729E+03  0.34687313736E+03  0.00000000000E+00 0.  1.
<mgrwt>
<rscale>  0 0.12583320E+04</rscale>
<asrwt>0</asrwt>
<pdfrwt beam="1">  1        1 0.66688520E-01 0.12583320E+04</pdfrwt>
<pdfrwt beam="2">  1       -1 0.14049235E+00 0.12583320E+04</pdfrwt>
<totfact> 0.22050795E+01</totfact>
</mgrwt>
</event>
<event>
12    1  0.1755460E-007  0.1367601E+04  0.7818608E-02  0.8977610E-01
          2   -1    0    0  501    0  0.00000000000E+00  0.00000000000E+00  0.21062920070E+04  0.21062920070E+04  0.00000000000E+00 0. -1.
         -2   -1    0    0    0  501 -0.00000000000E+00 -0.00000000000E+00 -0.22199346782E+03  0.22199346782E+03  0.00000000000E+00 0.  1.
         23    2    1    2    0    0  0.22926713484E+03 -0.53925183068E+02  0.10452128436E+04  0.10754119966E+04  0.92572833213E+02 0.  0.
        254    2    1    2    0    0 -0.22926713484E+03  0.53925183068E+02  0.83908569564E+03  0.12528734783E+04  0.90008655336E+03 0.  0.
        -24    2    4    4    0    0  0.33088790098E+03  0.11182365537E+03  0.26832178687E+03  0.44734380150E+03  0.78285136015E+02 0.  0.
         24    2    4    4    0    0 -0.56015503582E+03 -0.57898472298E+02  0.57076390877E+03  0.80552967680E+03  0.77335136941E+02 0.  0.
         11    1    3    3    0    0  0.33937077715E+02  0.36094858185E+01  0.33050373448E+03  0.33226115051E+03  0.00000000000E+00 0.  1.
        -11    1    3    3    0    0  0.19533005713E+03 -0.57534668886E+02  0.71470910911E+03  0.74315084605E+03  0.00000000000E+00 0. -1.
          2    1    6    6  502    0 -0.55082969853E+02 -0.49862463009E+01  0.27152399299E+02  0.61613707953E+02  0.00000000000E+00 0. -1.
          3    1    5    5  503    0  0.74301305081E+02 -0.33165279156E+01  0.36351321048E+02  0.82783463543E+02  0.00000000000E+00 0. -1.
         -4    1    5    5    0  503  0.25658659590E+03  0.11514018328E+03  0.23197046582E+03  0.36456033796E+03  0.00000000000E+00 0.  1.
         -1    1    6    6    0  502 -0.50507206597E+03 -0.52912225997E+02  0.54361150947E+03  0.74391596885E+03  0.00000000000E+00 0.  1.
<mgrwt>
<rscale>  0 0.13676009E+04</rscale>
<asrwt>0</asrwt>
<pdfrwt beam="1">  1        2 0.32404491E+00 0.13676009E+04</pdfrwt>
<pdfrwt beam="2">  1       -2 0.34152843E-01 0.13676009E+04</pdfrwt>
<totfact> 0.45702632E+01</totfact>
</mgrwt>
</event>
<event>
12    1  0.1755460E-007  0.1792638E+04  0.7818608E-02  0.8710225E-01
          1   -1    0    0  501    0  0.00000000000E+00  0.00000000000E+00  0.17921191823E+04  0.17921191823E+04  0.00000000000E+00 0. -1.
         -1   -1    0    0    0  501 -0.00000000000E+00 -0.00000000000E+00 -0.44828901043E+03  0.44828901043E+03  0.00000000000E+00 0.  1.
         23    2    1    2    0    0  0.36274776742E+03 -0.47684222882E+03  0.87088248100E+03  0.10610213874E+04  0.91463845018E+02 0.  0.
        254    2    1    2    0    0 -0.36274776742E+03  0.47684222882E+03  0.47294769087E+03  0.11793868053E+04  0.89906021169E+03 0.  0.
        -24    2    4    4    0    0 -0.57063582239E+03  0.69516049736E+02  0.11121399932E+03  0.59097203557E+03  0.80135324409E+02 0.  0.
         24    2    4    4    0    0  0.20788805496E+03  0.40732617908E+03  0.36173369155E+03  0.58841476973E+03  0.79048200914E+02 0.  0.
         13    1    3    3    0    0  0.13896782332E+03 -0.25809272910E+03  0.42481804613E+03  0.51613397974E+03  0.00000000000E+00 0. -1.
        -13    1    3    3    0    0  0.22377994410E+03 -0.21874949972E+03  0.44606443487E+03  0.54488740770E+03  0.00000000000E+00 0.  1.
          2    1    6    6  502    0  0.20650680991E+03  0.38515830845E+03  0.32180769358E+03  0.54272661327E+03  0.00000000000E+00 0. -1.
          3    1    5    5  503    0 -0.34409574500E+03  0.63687223616E+02  0.10058046180E+03  0.36410763996E+03  0.00000000000E+00 0. -1.
         -4    1    5    5    0  503 -0.22654007738E+03  0.58288261192E+01  0.10633537519E+02  0.22686439561E+03  0.00000000000E+00 0.  1.
         -1    1    6    6    0  502  0.13812450579E+01  0.22167870630E+02  0.39925997973E+02  0.45688156456E+02  0.00000000000E+00 0.  1.
<mgrwt>
<rscale>  0 0.17926375E+04</rscale>
<asrwt>0</asrwt>
<pdfrwt beam="1">  1        1 0.27571064E+00 0.17926375E+04</pdfrwt>
<pdfrwt beam="2">  1       -1 0.68967541E-01 0.17926375E+04</pdfrwt>
<totfact> 0.82838484E+00</totfact>
</mgrwt>
</event>
<event>
12    1  0.1755460E-007  0.2055270E+04  0.7818608E-02  0.8581207E-01
         -2   -1    0    0    0  501 -0.00000000000E+00  0.00000000000E+00  0.42829552382E+03  0.42829552382E+03  0.00000000000E+00 0.  1.
          2   -1    0    0  501    0  0.00000000000E+00 -0.00000000000E+00 -0.24656666734E+04  0.24656666734E+04  0.00000000000E+00 0. -1.
         23    2    1    2    0    0 -0.15288447018E+03 -0.43786030791E+03  0.13782045447E+03  0.49243578734E+03  0.91669059801E+02 0.  0.
        254    2    1    2    0    0  0.15288447018E+03  0.43786030791E+03 -0.21751916040E+04  0.24015264099E+04  0.90596648532E+03 0.  0.
        -24    2    4    4    0    0  0.46073138145E+03  0.47913988686E+03 -0.17108117724E+04  0.18371346003E+04  0.79612701362E+02 0.  0.
         24    2    4    4    0    0 -0.30784691127E+03 -0.41279578953E+02 -0.46437983166E+03  0.56439180952E+03  0.80098453115E+02 0.  0.
         13    1    3    3    0    0 -0.10199144374E+03 -0.16054885466E+03  0.43311010019E+02  0.19507442917E+03  0.00000000000E+00 0. -1.
        -13    1    3    3    0    0 -0.50893026439E+02 -0.27731145325E+03  0.94509444450E+02  0.29736135817E+03  0.00000000000E+00 0.  1.
          2    1    6    6  502    0 -0.27734030155E+03 -0.11385536724E+02 -0.39145497831E+03  0.47987943627E+03  0.00000000000E+00 0. -1.
          3    1    5    5  503    0  0.19727890607E+03  0.17668427717E+03 -0.77440871866E+03  0.81844069065E+03  0.00000000000E+00 0. -1.
         -4    1    5    5    0  503  0.26345247538E+03  0.30245560969E+03 -0.93640305372E+03  0.10186939097E+04  0.00000000000E+00 0.  1.
         -1    1    6    6    0  502 -0.30506609717E+02 -0.29894042229E+02 -0.72924853351E+02  0.84512373256E+02  0.00000000000E+00 0.  1.
<mgrwt>
<rscale>  0 0.20552703E+04</rscale>
<asrwt>0</asrwt>
<pdfrwt beam="1">  1        2 0.37933334E+00 0.20552703E+04</pdfrwt>
<pdfrwt beam="2">  1       -2 0.65891618E-01 0.20552703E+04</pdfrwt>
<totfact> 0.71477850E+00</totfact>
</mgrwt>
</event>
<event>
12    1  0.1755460E-007  0.1814062E+04  0.7818608E-02  0.8698857E-01
         -2   -1    0    0    0  501 -0.00000000000E+00  0.00000000000E+00  0.54845962397E+03  0.54845962397E+03  0.00000000000E+00 0.  1.
          2   -1    0    0  501    0  0.00000000000E+00 -0.00000000000E+00 -0.15000286145E+04  0.15000286145E+04  0.00000000000E+00 0. -1.
         23    2    1    2    0    0  0.23752489156E+03 -0.48049762869E+02  0.35057412599E+03  0.43585138830E+03  0.91309150959E+02 0.  0.
        254    2    1    2    0    0 -0.23752489156E+03  0.48049762869E+02 -0.13021431165E+04  0.16126368501E+04  0.91994242253E+03 0.  0.
        -24    2    4    4    0    0  0.24569598890E+03 -0.20926670611E+03 -0.22319572589E+03  0.40023338879E+03  0.78812183073E+02 0.  0.
         24    2    4    4    0    0 -0.48322088045E+03  0.25731646898E+03 -0.10789473906E+04  0.12124034613E+04  0.77977540865E+02 0.  0.
         13    1    3    3    0    0  0.18475692865E+03 -0.74693697410E+02  0.28210806750E+03  0.34539721027E+03  0.00000000000E+00 0.  1.
        -13    1    3    3    0    0  0.52767962910E+02  0.26643934541E+02  0.68466058497E+02  0.90454178033E+02  0.00000000000E+00 0. -1.
          4    1    6    6  502    0 -0.35624530071E+03  0.21477497349E+03 -0.86819526311E+03  0.96270557202E+03  0.00000000000E+00 0. -1.
          1    1    5    5  503    0  0.69010865221E+02 -0.63637640097E+02 -0.24360684844E+02  0.96982945520E+02  0.00000000000E+00 0. -1.
         -2    1    5    5    0  503  0.17668512368E+03 -0.14562906602E+03 -0.19883504104E+03  0.30325044327E+03  0.00000000000E+00 0.  1.
         -3    1    6    6    0  502 -0.12697557975E+03  0.42541495497E+02 -0.21075212749E+03  0.24969788932E+03  0.00000000000E+00 0.  1.
<mgrwt>
<rscale>  0 0.18140619E+04</rscale>
<asrwt>0</asrwt>
<pdfrwt beam="1">  1        2 0.23077363E+00 0.18140619E+04</pdfrwt>
<pdfrwt beam="2">  1       -2 0.84378404E-01 0.18140619E+04</pdfrwt>
<totfact> 0.14666066E+01</totfact>
</mgrwt>
</event>
<event>
12    1  0.1755460E-007  0.1979219E+04  0.7818608E-02  0.8616399E-01
          1   -1    0    0  501    0  0.00000000000E+00  0.00000000000E+00  0.18852460133E+04  0.18852460133E+04  0.00000000000E+00 0. -1.
         -1   -1    0    0    0  501 -0.00000000000E+00 -0.00000000000E+00 -0.51946888615E+03  0.51946888615E+03  0.00000000000E+00 0.  1.
         23    2    1    2    0    0  0.14129041002E+03 -0.44852013441E+03 -0.21946278899E+03  0.52714043339E+03  0.92627370835E+02 0.  0.
        254    2    1    2    0    0 -0.14129041002E+03  0.44852013441E+03  0.15852399161E+04  0.18775744661E+04  0.88947568428E+03 0.  0.
        -24    2    4    4    0    0  0.16655444375E+03 -0.14888768456E+03  0.12766844211E+03  0.27061849518E+03  0.83828476525E+02 0.  0.
         24    2    4    4    0    0 -0.30784485378E+03  0.59740781897E+03  0.14575714740E+04  0.16069559709E+04  0.78283678161E+02 0.  0.
         13    1    3    3    0    0  0.44193406766E+02 -0.73055681827E+02 -0.73847873934E+02  0.11288799021E+03  0.00000000000E+00 0. -1.
        -13    1    3    3    0    0  0.97097003256E+02 -0.37546445258E+03 -0.14561491506E+03  0.41425244318E+03  0.00000000000E+00 0.  1.
          2    1    6    6  502    0 -0.11924795597E+03  0.31642226311E+03  0.73795459588E+03  0.81173894152E+03  0.00000000000E+00 0. -1.
          3    1    5    5  503    0  0.47027969866E+02 -0.87407682954E+02  0.81726062443E+02  0.12857247867E+03  0.00000000000E+00 0. -1.
         -4    1    5    5    0  503  0.11952647389E+03 -0.61480001605E+02  0.45942379671E+02  0.14204601651E+03  0.00000000000E+00 0.  1.
         -1    1    6    6    0  502 -0.18859689781E+03  0.28098555585E+03  0.71961687815E+03  0.79521702936E+03  0.00000000000E+00 0.  1.
<mgrwt>
<rscale>  0 0.19792187E+04</rscale>
<asrwt>0</asrwt>
<pdfrwt beam="1">  1        1 0.29003785E+00 0.19792187E+04</pdfrwt>
<pdfrwt beam="2">  1       -1 0.79918291E-01 0.19792187E+04</pdfrwt>
<totfact> 0.51792496E+00</totfact>
</mgrwt>
</event>
<event>
12    1  0.1755460E-007  0.1597938E+04  0.7818608E-02  0.8821816E-01
         -2   -1    0    0    0  501 -0.00000000000E+00  0.00000000000E+00  0.42931957619E+03  0.42931957619E+03  0.00000000000E+00 0. -1.
          2   -1    0    0  501    0  0.00000000000E+00 -0.00000000000E+00 -0.14868908453E+04  0.14868908453E+04  0.00000000000E+00 0.  1.
         23    2    1    2    0    0 -0.15272714382E+03 -0.48664301505E+03 -0.54997285342E+03  0.75583753016E+03  0.93130166623E+02 0.  0.
        254    2    1    2    0    0  0.15272714382E+03  0.48664301505E+03 -0.50759841572E+03  0.11603728914E+04  0.91030878871E+03 0.  0.
        -24    2    4    4    0    0 -0.60111555613E+01 -0.12520682468E+03 -0.50155386919E+03  0.52314872298E+03  0.80096315259E+02 0.  0.
         24    2    4    4    0    0  0.15873829938E+03  0.61184983973E+03 -0.60445465289E+01  0.63722416839E+03  0.80374312809E+02 0.  0.
         11    1    3    3    0    0 -0.13059754435E+03 -0.35651014338E+03 -0.45821940464E+03  0.59508001454E+03  0.00000000000E+00 0. -1.
        -11    1    3    3    0    0 -0.22129599472E+02 -0.13013287168E+03 -0.91753448789E+02  0.16075751562E+03  0.00000000000E+00 0.  1.
          2    1    6    6  502    0  0.96678772369E+02  0.48091117313E+03  0.15233213224E+02  0.49076918429E+03  0.00000000000E+00 0. -1.
          1    1    5    5  503    0  0.18578920142E+02 -0.10588117362E+03 -0.28975839721E+03  0.30905651256E+03  0.00000000000E+00 0. -1.
         -2    1    5    5    0  503 -0.24590075703E+02 -0.19325651059E+02 -0.21179547198E+03  0.21409221042E+03  0.00000000000E+00 0.  1.
         -1    1    6    6    0  502  0.62059527014E+02  0.13093866660E+03 -0.21277759753E+02  0.14645498409E+03  0.00000000000E+00 0.  1.
<mgrwt>
<rscale>  0 0.15979379E+04</rscale>
<asrwt>0</asrwt>
<pdfrwt beam="1">  1        2 0.22875244E+00 0.15979379E+04</pdfrwt>
<pdfrwt beam="2">  1       -2 0.66049165E-01 0.15979379E+04</pdfrwt>
<totfact> 0.26116595E+01</totfact>
</mgrwt>
</event>
<event>
12    1  0.1755460E-007  0.1421737E+04  0.7818608E-02  0.8938233E-01
         -2   -1    0    0    0  501 -0.00000000000E+00  0.00000000000E+00  0.13980026640E+03  0.13980026640E+03  0.00000000000E+00 0.  1.
          2   -1    0    0  501    0  0.00000000000E+00 -0.00000000000E+00 -0.36146844241E+04  0.36146844241E+04  0.00000000000E+00 0. -1.
         23    2    1    2    0    0  0.11576748198E+03 -0.36620236081E+03 -0.13835813699E+04  0.14387257899E+04  0.90156599902E+02 0.  0.
        254    2    1    2    0    0 -0.11576748198E+03  0.36620236081E+03 -0.20913027879E+04  0.23157589007E+04  0.91743427908E+03 0.  0.
        -24    2    4    4    0    0 -0.18850873653E+03  0.68161637953E+02 -0.16041329877E+02  0.21643722701E+03  0.80038717744E+02 0.  0.
         24    2    4    4    0    0  0.72741254541E+02  0.29804072285E+03 -0.20752614580E+04  0.20993216737E+04  0.79509796588E+02 0.  0.
         13    1    3    3    0    0  0.38913604292E+02 -0.18408589640E+03 -0.52542292820E+03  0.55809599473E+03  0.00000000000E+00 0.  1.
        -13    1    3    3    0    0  0.76853877692E+02 -0.18211646441E+03 -0.85815844165E+03  0.88062979515E+03  0.00000000000E+00 0. -1.
          4    1    6    6  502    0  0.72284385651E+02  0.23790763049E+03 -0.18290192963E+04  0.18458430755E+04  0.00000000000E+00 0. -1.
          1    1    5    5  503    0 -0.19013754552E+03  0.70959188687E+02 -0.27251972522E+02  0.20476855882E+03  0.00000000000E+00 0. -1.
         -2    1    5    5    0  503  0.16288089941E+01 -0.27975507343E+01  0.11210642646E+02  0.11668668192E+02  0.00000000000E+00 0.  1.
         -3    1    6    6    0  502  0.45686888959E+00  0.60133092361E+02 -0.24624216172E+03  0.25347859818E+03  0.00000000000E+00 0.  1.
<mgrwt>
<rscale>  0 0.14217367E+04</rscale>
<asrwt>0</asrwt>
<pdfrwt beam="1">  1        2 0.55610525E+00 0.14217367E+04</pdfrwt>
<pdfrwt beam="2">  1       -2 0.21507735E-01 0.14217367E+04</pdfrwt>
<totfact> 0.12540309E+01</totfact>
</mgrwt>
</event>
<event>
12    1  0.1755460E-007  0.1832058E+04  0.7818608E-02  0.8689435E-01
          2   -1    0    0  501    0  0.00000000000E+00  0.00000000000E+00  0.18380091730E+04  0.18380091730E+04  0.00000000000E+00 0. -1.
         -2   -1    0    0    0  501 -0.00000000000E+00 -0.00000000000E+00 -0.45653169709E+03  0.45653169709E+03  0.00000000000E+00 0.  1.
         23    2    1    2    0    0 -0.21852530283E+03 -0.14684703114E+02 -0.29702292480E+03  0.38000296114E+03  0.90612825477E+02 0.  0.
        254    2    1    2    0    0  0.21852530283E+03  0.14684703114E+02  0.16785004007E+04  0.19145379090E+04  0.89449586984E+03 0.  0.
        -24    2    4    4    0    0  0.48878738776E+03 -0.22938002846E+03  0.95032504347E+03  0.10958841482E+04  0.79473707570E+02 0.  0.
         24    2    4    4    0    0 -0.27026208492E+03  0.24406473158E+03  0.72817535724E+03  0.81865376073E+03  0.85705550121E+02 0.  0.
         11    1    3    3    0    0 -0.16258615223E+03 -0.49881840157E+02 -0.19884444716E+03  0.26165161769E+03  0.00000000000E+00 0.  1.
        -11    1    3    3    0    0 -0.55939150601E+02  0.35197137043E+02 -0.98178477637E+02  0.11835134345E+03  0.00000000000E+00 0. -1.
          2    1    6    6  502    0 -0.22780639942E+03  0.19819855450E+03  0.66208499375E+03  0.72769152913E+03  0.00000000000E+00 0. -1.
          3    1    5    5  503    0  0.34758093332E+03 -0.13633694998E+03  0.70758555570E+03  0.80004849089E+03  0.00000000000E+00 0. -1.
         -2    1    5    5    0  503  0.14120645444E+03 -0.93043078484E+02  0.24273948777E+03  0.29583565733E+03  0.00000000000E+00 0.  1.
         -1    1    6    6    0  502 -0.42455685505E+02  0.45866177076E+02  0.66090363490E+02  0.90962231599E+02  0.00000000000E+00 0.  1.
<mgrwt>
<rscale>  0 0.18320583E+04</rscale>
<asrwt>0</asrwt>
<pdfrwt beam="1">  1        2 0.28277064E+00 0.18320583E+04</pdfrwt>
<pdfrwt beam="2">  1       -2 0.70235647E-01 0.18320583E+04</pdfrwt>
<totfact> 0.14281162E+01</totfact>
</mgrwt>
</event>
<event>
12    1  0.1755460E-007  0.1350705E+04  0.7818608E-02  0.8990295E-01
         -2   -1    0    0    0  501 -0.00000000000E+00  0.00000000000E+00  0.26729061213E+03  0.26729061213E+03  0.00000000000E+00 0.  1.
          2   -1    0    0  501    0  0.00000000000E+00 -0.00000000000E+00 -0.17063863080E+04  0.17063863080E+04  0.00000000000E+00 0. -1.
         23    2    1    2    0    0 -0.23659806808E+03  0.18844116071E+03 -0.66449805229E+03  0.73581566061E+03  0.91533097970E+02 0.  0.
        254    2    1    2    0    0  0.23659806808E+03 -0.18844116071E+03 -0.77459764360E+03  0.12378612595E+04  0.91695707181E+03 0.  0.
        -24    2    4    4    0    0 -0.17503344831E+03 -0.39209791721E+03 -0.15725372431E+03  0.46406943021E+03  0.79083611073E+02 0.  0.
         24    2    4    4    0    0  0.41163151639E+03  0.20365675650E+03 -0.61734391929E+03  0.77379182934E+03  0.81998175014E+02 0.  0.
         11    1    3    3    0    0 -0.18237679067E+03  0.18664225434E+03 -0.56895866300E+03  0.62594774948E+03  0.00000000000E+00 0. -1.
        -11    1    3    3    0    0 -0.54221277413E+02  0.17989063717E+01 -0.95539389288E+02  0.10986791112E+03  0.00000000000E+00 0.  1.
          2    1    6    6  502    0  0.65418889018E+02  0.37208635795E+02 -0.56976137120E+02  0.94394882378E+02  0.00000000000E+00 0. -1.
          3    1    5    5  503    0 -0.79607941611E+02 -0.10374296376E+03 -0.26697039757E+02  0.13346444781E+03  0.00000000000E+00 0. -1.
         -4    1    5    5    0  503 -0.95425506696E+02 -0.28835495345E+03 -0.13055668455E+03  0.33060498240E+03  0.00000000000E+00 0.  1.
         -1    1    6    6    0  502  0.34621262737E+03  0.16644812071E+03 -0.56036778217E+03  0.67939694696E+03  0.00000000000E+00 0.  1.
<mgrwt>
<rscale>  0 0.13507051E+04</rscale>
<asrwt>0</asrwt>
<pdfrwt beam="1">  1        2 0.26252097E+00 0.13507051E+04</pdfrwt>
<pdfrwt beam="2">  1       -2 0.41121633E-01 0.13507051E+04</pdfrwt>
<totfact> 0.53209626E+01</totfact>
</mgrwt>
</event>
<event>
12    1  0.1755460E-007  0.2389961E+04  0.7818608E-02  0.8443272E-01
         -2   -1    0    0    0  501 -0.00000000000E+00  0.00000000000E+00  0.55326834218E+03  0.55326834218E+03  0.00000000000E+00 0.  1.
          2   -1    0    0  501    0  0.00000000000E+00 -0.00000000000E+00 -0.25809861174E+04  0.25809861174E+04  0.00000000000E+00 0. -1.
         23    2    1    2    0    0 -0.23612732220E+03 -0.84973333485E+03 -0.18447367537E+03  0.90560835454E+03  0.91066471673E+02 0.  0.
        254    2    1    2    0    0  0.23612732220E+03  0.84973333485E+03 -0.18432440999E+04  0.22286461051E+04  0.88966948766E+03 0.  0.
        -24    2    4    4    0    0 -0.30596054681E+03  0.47237974734E+03 -0.65931808389E+03  0.87061180880E+03  0.80685215344E+02 0.  0.
         24    2    4    4    0    0  0.54208786901E+03  0.37735358751E+03 -0.11839260160E+04  0.13580342963E+04  0.79506922883E+02 0.  0.
         13    1    3    3    0    0 -0.32482139232E+02 -0.12368824431E+03  0.54354397733E+01  0.12799771542E+03  0.00000000000E+00 0. -1.
        -13    1    3    3    0    0 -0.20364518297E+03 -0.72604509054E+03 -0.18990911515E+03  0.77761063911E+03  0.00000000000E+00 0.  1.
          4    1    6    6  502    0  0.10683842387E+03  0.10877332257E+03 -0.30960056932E+03  0.34510664589E+03  0.00000000000E+00 0. -1.
          3    1    5    5  503    0 -0.30355331046E+03  0.43296371521E+03 -0.60600112615E+03  0.80426336226E+03  0.00000000000E+00 0. -1.
         -4    1    5    5    0  503 -0.24072363548E+01  0.39416032126E+02 -0.53316957737E+02  0.66348446536E+02  0.00000000000E+00 0.  1.
         -3    1    6    6    0  502  0.43524944514E+03  0.26858026494E+03 -0.87432544669E+03  0.10129276504E+04  0.00000000000E+00 0.  1.
<mgrwt>
<rscale>  0 0.23899606E+04</rscale>
<asrwt>0</asrwt>
<pdfrwt beam="1">  1        2 0.39707478E+00 0.23899606E+04</pdfrwt>
<pdfrwt beam="2">  1       -2 0.85118207E-01 0.23899606E+04</pdfrwt>
<totfact> 0.33750210E+00</totfact>
</mgrwt>
</event>
<event>
12    1  0.1755460E-007  0.1282240E+04  0.7818608E-02  0.9043769E-01
         -2   -1    0    0    0  501 -0.00000000000E+00  0.00000000000E+00  0.48223100893E+03  0.48223100893E+03  0.00000000000E+00 0. -1.
          2   -1    0    0  501    0  0.00000000000E+00 -0.00000000000E+00 -0.85236131866E+03  0.85236131866E+03  0.00000000000E+00 0.  1.
         23    2    1    2    0    0 -0.77319626403E+02  0.13529745114E+03 -0.37864333914E+03  0.41988722739E+03  0.93009572282E+02 0.  0.
        254    2    1    2    0    0  0.77319626403E+02 -0.13529745114E+03  0.85130294168E+01  0.91470510020E+03  0.90129308426E+03 0.  0.
        -24    2    4    4    0    0  0.45110664102E+03 -0.20262160378E+03  0.11108061018E+03  0.51310509408E+03  0.79907569843E+02 0.  0.
         24    2    4    4    0    0 -0.37378701462E+03  0.67324152638E+02 -0.10256758077E+03  0.40160000612E+03  0.80704290276E+02 0.  0.
         11    1    3    3    0    0  0.75671635839E+01  0.21331727352E+02 -0.98910931203E+01  0.24700977301E+02  0.00000000000E+00 0. -1.
        -11    1    3    3    0    0 -0.84886789987E+02  0.11396572379E+03 -0.36875224602E+03  0.39518625009E+03  0.00000000000E+00 0.  1.
          4    1    6    6  502    0 -0.11219088047E+03 -0.12744424441E+02 -0.47711877437E+02  0.12257910614E+03  0.00000000000E+00 0. -1.
          3    1    5    5  503    0  0.61628554474E+02 -0.38075612090E+02  0.44680245970E+02  0.85112603899E+02  0.00000000000E+00 0. -1.
         -4    1    5    5    0  503  0.38947808654E+03 -0.16454599169E+03  0.66400364215E+02  0.42799249018E+03  0.00000000000E+00 0.  1.
         -3    1    6    6    0  502 -0.26159613415E+03  0.80068577080E+02 -0.54855703331E+02  0.27902089998E+03  0.00000000000E+00 0.  1.
<mgrwt>
<rscale>  0 0.12822403E+04</rscale>
<asrwt>0</asrwt>
<pdfrwt beam="1">  1        2 0.13113251E+00 0.12822403E+04</pdfrwt>
<pdfrwt beam="2">  1       -2 0.74189387E-01 0.12822403E+04</pdfrwt>
<totfact> 0.50775705E+01</totfact>
</mgrwt>
</event>
<event>
12    1  0.1755460E-007  0.3136840E+04  0.7818608E-02  0.8205700E-01
          1   -1    0    0  501    0  0.00000000000E+00  0.00000000000E+00  0.69735936288E+03  0.69735936288E+03  0.00000000000E+00 0. -1.
         -1   -1    0    0    0  501 -0.00000000000E+00 -0.00000000000E+00 -0.35275087791E+04  0.35275087791E+04  0.00000000000E+00 0.  1.
         23    2    1    2    0    0  0.49927537233E+02 -0.74739901132E+02 -0.32293746529E+04  0.32319243088E+04  0.91625744096E+02 0.  0.
        254    2    1    2    0    0 -0.49927537233E+02  0.74739901132E+02  0.39922523671E+03  0.99294383319E+03  0.90469765914E+03 0.  0.
        -24    2    4    4    0    0 -0.20817061319E+03  0.41769405314E+03  0.37868950598E+03  0.60631391709E+03  0.80046848105E+02 0.  0.
         24    2    4    4    0    0  0.15824307596E+03 -0.34295415201E+03  0.20535730735E+02  0.38662991611E+03  0.80015962928E+02 0.  0.
         13    1    3    3    0    0 -0.21408709122E+02 -0.24134522875E+02 -0.14927401174E+04  0.14930887000E+04  0.00000000000E+00 0.  1.
        -13    1    3    3    0    0  0.71336246354E+02 -0.50605378257E+02 -0.17366345355E+04  0.17388356087E+04  0.00000000000E+00 0. -1.
          4    1    6    6  502    0  0.10876366111E+03 -0.27196574591E+03 -0.14521266496E+02  0.29326740035E+03  0.00000000000E+00 0. -1.
          3    1    5    5  503    0 -0.19932324987E+03  0.39221783420E+03  0.37683177527E+03  0.57928125661E+03  0.00000000000E+00 0. -1.
         -4    1    5    5    0  503 -0.88473633183E+01  0.25476218941E+02  0.18577307067E+01  0.27032660480E+02  0.00000000000E+00 0.  1.
         -3    1    6    6    0  502  0.49479414842E+02 -0.70988406102E+02  0.35056997231E+02  0.93362515760E+02  0.00000000000E+00 0.  1.
<mgrwt>
<rscale>  0 0.31368400E+04</rscale>
<asrwt>0</asrwt>
<pdfrwt beam="1">  1        1 0.10728606E+00 0.31368400E+04</pdfrwt>
<pdfrwt beam="2">  1       -1 0.54269366E+00 0.31368400E+04</pdfrwt>
<totfact> 0.18870413E-02</totfact>
</mgrwt>
</event>
<event>
12    1  0.1755460E-007  0.2033461E+04  0.7818608E-02  0.8591134E-01
          2   -1    0    0  501    0  0.00000000000E+00  0.00000000000E+00  0.30332025378E+04  0.30332025378E+04  0.00000000000E+00 0. -1.
         -2   -1    0    0    0  501 -0.00000000000E+00 -0.00000000000E+00 -0.34080837204E+03  0.34080837204E+03  0.00000000000E+00 0.  1.
         23    2    1    2    0    0 -0.29826420117E+03  0.53075783832E+03  0.19896389231E+04  0.20828086260E+04  0.93612561059E+02 0.  0.
        254    2    1    2    0    0  0.29826420117E+03 -0.53075783832E+03  0.70275524269E+03  0.12912022839E+04  0.89592019183E+03 0.  0.
        -24    2    4    4    0    0  0.35970803555E+03  0.14159461221E+03  0.18121971075E+03  0.43437864235E+03  0.80033220087E+02 0.  0.
         24    2    4    4    0    0 -0.61443834386E+02 -0.67235245053E+03  0.52153553194E+03  0.85682364153E+03  0.79462438165E+02 0.  0.
         13    1    3    3    0    0 -0.32767198294E+02  0.11642283408E+03  0.31725399971E+03  0.33952623744E+03  0.00000000000E+00 0.  1.
        -13    1    3    3    0    0 -0.26549700288E+03  0.41433500423E+03  0.16723849234E+04  0.17432823886E+04  0.00000000000E+00 0. -1.
          2    1    6    6  502    0 -0.42575946441E+02 -0.62083962518E+03  0.49841760266E+03  0.79729207826E+03  0.00000000000E+00 0. -1.
          1    1    5    5  503    0  0.10918692084E+03  0.71028721228E+02  0.31098746140E+02  0.13391786637E+03  0.00000000000E+00 0. -1.
         -2    1    5    5    0  503  0.25052111472E+03  0.70565890986E+02  0.15012096461E+03  0.30046077598E+03  0.00000000000E+00 0.  1.
         -1    1    6    6    0  502 -0.18867887945E+02 -0.51512825347E+02  0.23117929288E+02  0.59531563270E+02  0.00000000000E+00 0.  1.
<mgrwt>
<rscale>  0 0.20334609E+04</rscale>
<asrwt>0</asrwt>
<pdfrwt beam="1">  1        2 0.46664653E+00 0.20334609E+04</pdfrwt>
<pdfrwt beam="2">  1       -2 0.52432059E-01 0.20334609E+04</pdfrwt>
<totfact> 0.52901637E+00</totfact>
</mgrwt>
</event>
<event>
12    1  0.1755460E-007  0.1111154E+04  0.7818608E-02  0.9194388E-01
          1   -1    0    0  501    0  0.00000000000E+00  0.00000000000E+00  0.14711681119E+04  0.14711681119E+04  0.00000000000E+00 0. -1.
         -1   -1    0    0    0  501 -0.00000000000E+00 -0.00000000000E+00 -0.20981009211E+03  0.20981009211E+03  0.00000000000E+00 0.  1.
         23    2    1    2    0    0 -0.10580357251E+03 -0.10784661155E+03  0.10030398351E+03  0.20365828980E+03  0.92685070627E+02 0.  0.
        254    2    1    2    0    0  0.10580357251E+03  0.10784661155E+03  0.11610540363E+04  0.14773199142E+04  0.90088976362E+03 0.  0.
        -24    2    4    4    0    0 -0.32496069109E+03  0.15507870644E+03  0.19846775557E+03  0.41857755952E+03  0.78542137683E+02 0.  0.
         24    2    4    4    0    0  0.43076426360E+03 -0.47232094887E+02  0.96258628072E+03  0.10587423547E+04  0.81082083232E+02 0.  0.
         13    1    3    3    0    0 -0.36449754831E+02 -0.49120812758E+02  0.94535193689E+02  0.11259814261E+03  0.00000000000E+00 0.  1.
        -13    1    3    3    0    0 -0.69353817679E+02 -0.58725798793E+02  0.57687898234E+01  0.91060147191E+02  0.00000000000E+00 0. -1.
          4    1    6    6  502    0  0.12069338973E+03 -0.48430801325E+02  0.25700745277E+03  0.28803692058E+03  0.00000000000E+00 0. -1.
          1    1    5    5  503    0 -0.30555304825E+03  0.14816028354E+03  0.16098733655E+03  0.37580720781E+03  0.00000000000E+00 0. -1.
         -2    1    5    5    0  503 -0.19407642844E+02  0.69184229012E+01  0.37480419017E+02  0.42770351716E+02  0.00000000000E+00 0.  1.
         -3    1    6    6    0  502  0.31007087387E+03  0.11987064378E+01  0.70557882795E+03  0.77070543411E+03  0.00000000000E+00 0.  1.
<mgrwt>
<rscale>  0 0.11111542E+04</rscale>
<asrwt>0</asrwt>
<pdfrwt beam="1">  1        1 0.22633355E+00 0.11111542E+04</pdfrwt>
<pdfrwt beam="2">  1       -1 0.32278477E-01 0.11111542E+04</pdfrwt>
<totfact> 0.61142413E+01</totfact>
</mgrwt>
</event>
<event>
12    1  0.1755460E-007  0.1516324E+04  0.7818608E-02  0.8873670E-01
         -2   -1    0    0    0  501 -0.00000000000E+00  0.00000000000E+00  0.45327398543E+03  0.45327398543E+03  0.00000000000E+00 0.  1.
          2   -1    0    0  501    0  0.00000000000E+00 -0.00000000000E+00 -0.12681277649E+04  0.12681277649E+04  0.00000000000E+00 0. -1.
         23    2    1    2    0    0  0.36602208164E+03  0.35947134402E+02 -0.62819921769E+03  0.73367838292E+03  0.91571566260E+02 0.  0.
        254    2    1    2    0    0 -0.36602208164E+03 -0.35947134402E+02 -0.18665456180E+03  0.98772336742E+03  0.89749270994E+03 0.  0.
        -24    2    4    4    0    0 -0.15359444885E+03 -0.26266401718E+03  0.27998170029E+03  0.42145802255E+03  0.81568815317E+02 0.  0.
         24    2    4    4    0    0 -0.21242763278E+03  0.22671688278E+03 -0.46663626209E+03  0.56626534487E+03  0.79881134203E+02 0.  0.
         13    1    3    3    0    0  0.23243138684E+03  0.20078880063E+02 -0.47893958118E+03  0.53273880414E+03  0.00000000000E+00 0. -1.
        -13    1    3    3    0    0  0.13359069480E+03  0.15868254340E+02 -0.14925963651E+03  0.20093957879E+03  0.00000000000E+00 0.  1.
          2    1    6    6  502    0 -0.17981677834E+03  0.15004886201E+03 -0.37756398131E+03  0.44430090563E+03  0.00000000000E+00 0. -1.
          3    1    5    5  503    0 -0.11022416563E+03 -0.18319730643E+03  0.14282734511E+03  0.25711917525E+03  0.00000000000E+00 0. -1.
         -4    1    5    5    0  503 -0.43370283221E+02 -0.79466710748E+02  0.13715435518E+03  0.16433884729E+03  0.00000000000E+00 0.  1.
         -1    1    6    6    0  502 -0.32610854445E+02  0.76668020770E+02 -0.89072280778E+02  0.12196443924E+03  0.00000000000E+00 0.  1.
<mgrwt>
<rscale>  0 0.15163236E+04</rscale>
<asrwt>0</asrwt>
<pdfrwt beam="1">  1        2 0.19509658E+00 0.15163236E+04</pdfrwt>
<pdfrwt beam="2">  1       -2 0.69734460E-01 0.15163236E+04</pdfrwt>
<totfact> 0.31218023E+01</totfact>
</mgrwt>
</event>
<event>
12    1  0.1755460E-007  0.1717221E+04  0.7818608E-02  0.8751603E-01
         -2   -1    0    0    0  501 -0.00000000000E+00  0.00000000000E+00  0.29260113099E+03  0.29260113099E+03  0.00000000000E+00 0. -1.
          2   -1    0    0  501    0  0.00000000000E+00 -0.00000000000E+00 -0.25195122135E+04  0.25195122135E+04  0.00000000000E+00 0.  1.
         23    2    1    2    0    0  0.65090644444E+01  0.21111626360E+03  0.13937551473E+03  0.26856407216E+03  0.89937100658E+02 0.  0.
        254    2    1    2    0    0 -0.65090644444E+01 -0.21111626360E+03 -0.23662865973E+04  0.25435492724E+04  0.90869037404E+03 0.  0.
        -24    2    4    4    0    0 -0.55594047174E+02 -0.27611173679E+03 -0.24049074173E+04  0.24228477239E+04  0.85340599699E+02 0.  0.
         24    2    4    4    0    0  0.49084982729E+02  0.64995473191E+02  0.38620820042E+02  0.12070154849E+03  0.80271719823E+02 0.  0.
         11    1    3    3    0    0 -0.17571561285E+02  0.16054454226E+03  0.13816435405E+03  0.21253869893E+03  0.00000000000E+00 0. -1.
        -11    1    3    3    0    0  0.24080625730E+02  0.50571721346E+02  0.12111606765E+01  0.56025373231E+02  0.00000000000E+00 0.  1.
          2    1    6    6  502    0  0.23424081658E+01 -0.99145561152E+01 -0.14451876878E+02  0.17681686692E+02  0.00000000000E+00 0. -1.
          1    1    5    5  503    0  0.11203599362E+02 -0.77538103252E+01 -0.52435503256E+02  0.54176786680E+02  0.00000000000E+00 0. -1.
         -2    1    5    5    0  503 -0.66797646536E+02 -0.26835792647E+03 -0.23524719141E+04  0.23686709372E+04  0.00000000000E+00 0.  1.
         -1    1    6    6    0  502  0.46742574563E+02  0.74910029306E+02  0.53072696920E+02  0.10301986180E+03  0.00000000000E+00 0.  1.
<mgrwt>
<rscale>  0 0.17172212E+04</rscale>
<asrwt>0</asrwt>
<pdfrwt beam="1">  1        2 0.38761725E+00 0.17172212E+04</pdfrwt>
<pdfrwt beam="2">  1       -2 0.45015561E-01 0.17172212E+04</pdfrwt>
<totfact> 0.15107236E+01</totfact>
</mgrwt>
</event>
<event>
12    1  0.1755460E-007  0.1575070E+04  0.7818608E-02  0.8836012E-01
          1   -1    0    0  501    0  0.00000000000E+00  0.00000000000E+00  0.56515133888E+03  0.56515133888E+03  0.00000000000E+00 0. -1.
         -1   -1    0    0    0  501 -0.00000000000E+00 -0.00000000000E+00 -0.10974248072E+04  0.10974248072E+04  0.00000000000E+00 0.  1.
         23    2    1    2    0    0 -0.76353679398E+02 -0.20868743529E+03  0.33160377646E+03  0.40943413305E+03  0.91076422514E+02 0.  0.
        254    2    1    2    0    0  0.76353679398E+02  0.20868743529E+03 -0.86387724475E+03  0.12531420130E+04  0.88017082476E+03 0.  0.
        -24    2    4    4    0    0 -0.22735160292E+03 -0.23900197900E+02  0.60639063938E+02  0.24906272939E+03  0.78071609965E+02 0.  0.
         24    2    4    4    0    0  0.30370528232E+03  0.23258763319E+03 -0.92451630869E+03  0.10040792836E+04  0.84326135546E+02 0.  0.
         11    1    3    3    0    0  0.20641738402E+02 -0.34905781671E+02  0.67408029200E+02  0.78665986036E+02  0.00000000000E+00 0.  1.
        -11    1    3    3    0    0 -0.96995417801E+02 -0.17378165362E+03  0.26419574726E+03  0.33076814701E+03  0.00000000000E+00 0. -1.
          2    1    6    6  502    0  0.97058245662E+02  0.30387852173E+02 -0.21172832152E+03  0.23488849853E+03  0.00000000000E+00 0. -1.
          3    1    5    5  503    0 -0.32563326596E+01 -0.59287281861E+01  0.19336517115E+02  0.20485468373E+02  0.00000000000E+00 0. -1.
         -4    1    5    5    0  503 -0.22409527026E+03 -0.17971469714E+02  0.41302546822E+02  0.22857726101E+03  0.00000000000E+00 0.  1.
         -1    1    6    6    0  502  0.20664703666E+03  0.20219978101E+03 -0.71278798717E+03  0.76919078509E+03  0.00000000000E+00 0.  1.
<mgrwt>
<rscale>  0 0.15750696E+04</rscale>
<asrwt>0</asrwt>
<pdfrwt beam="1">  1        1 0.86946360E-01 0.15750696E+04</pdfrwt>
<pdfrwt beam="2">  1       -1 0.16883459E+00 0.15750696E+04</pdfrwt>
<totfact> 0.90057293E+00</totfact>
</mgrwt>
</event>
<event>
12    1  0.1755460E-007  0.1105441E+04  0.7818608E-02  0.9199905E-01
          2   -1    0    0  501    0  0.00000000000E+00  0.00000000000E+00  0.12651274312E+04  0.12651274312E+04  0.00000000000E+00 0. -1.
         -2   -1    0    0    0  501 -0.00000000000E+00 -0.00000000000E+00 -0.24147742004E+03  0.24147742004E+03  0.00000000000E+00 0.  1.
         23    2    1    2    0    0 -0.73074780974E+02  0.22188480345E+03  0.90458278897E+02  0.26643590777E+03  0.90733693357E+02 0.  0.
        254    2    1    2    0    0  0.73074780974E+02 -0.22188480345E+03  0.93319173225E+03  0.12401689435E+04  0.78268730000E+03 0.  0.
        -24    2    4    4    0    0  0.31052393527E+03 -0.29493324185E+03  0.87103078970E+03  0.97398922396E+03  0.80929847800E+02 0.  0.
         24    2    4    4    0    0 -0.23744915430E+03  0.73048438401E+02  0.62160942554E+02  0.26617971950E+03  0.72591218928E+02 0.  0.
         13    1    3    3    0    0  0.73478763640E+00  0.75762110537E+02  0.66840131062E+02  0.10103484758E+03  0.00000000000E+00 0. -1.
        -13    1    3    3    0    0 -0.73809568611E+02  0.14612269291E+03  0.23618147835E+02  0.16540106018E+03  0.00000000000E+00 0.  1.
          4    1    6    6  502    0 -0.21380418445E+03  0.84027622906E+02  0.67774488894E+02  0.23951253004E+03  0.00000000000E+00 0. -1.
          1    1    5    5  503    0  0.21799069982E+03 -0.15600524113E+03  0.56609646720E+03  0.62635675988E+03  0.00000000000E+00 0. -1.
         -2    1    5    5    0  503  0.92533235454E+02 -0.13892800072E+03  0.30493432250E+03  0.34763246408E+03  0.00000000000E+00 0.  1.
         -3    1    6    6    0  502 -0.23644969844E+02 -0.10979184505E+02 -0.56135463393E+01  0.26667189463E+02  0.00000000000E+00 0.  1.
<mgrwt>
<rscale>  0 0.11054406E+04</rscale>
<asrwt>0</asrwt>
<pdfrwt beam="1">  1        2 0.19463499E+00 0.11054406E+04</pdfrwt>
<pdfrwt beam="2">  1       -2 0.37150373E-01 0.11054406E+04</pdfrwt>
<totfact> 0.11736188E+02</totfact>
</mgrwt>
</event>
<event>
12    1  0.1755460E-007  0.2150936E+04  0.7818608E-02  0.8539132E-01
          1   -1    0    0  501    0  0.00000000000E+00  0.00000000000E+00  0.42074974187E+04  0.42074974187E+04  0.00000000000E+00 0. -1.
         -1   -1    0    0    0  501 -0.00000000000E+00 -0.00000000000E+00 -0.27489760356E+03  0.27489760356E+03  0.00000000000E+00 0.  1.
         23    2    1    2    0    0  0.59137205510E+03 -0.19867899451E+03  0.29281744806E+04  0.29952832548E+04  0.91223555554E+02 0.  0.
        254    2    1    2    0    0 -0.59137205510E+03  0.19867899451E+03  0.10044253345E+04  0.14871117675E+04  0.90190737104E+03 0.  0.
        -24    2    4    4    0    0 -0.59024395786E+02 -0.15337590317E+03  0.78802334936E+03  0.80883990217E+03  0.78950245283E+02 0.  0.
         24    2    4    4    0    0 -0.53234765931E+03  0.35205489768E+03  0.21640198518E+03  0.67827186533E+03  0.76721722795E+02 0.  0.
         13    1    3    3    0    0  0.78459937560E+02 -0.26887759525E+01  0.28086719096E+03  0.29163259467E+03  0.00000000000E+00 0.  1.
        -13    1    3    3    0    0  0.51291211754E+03 -0.19599021856E+03  0.26473072897E+04  0.27036506601E+04  0.00000000000E+00 0. -1.
          2    1    6    6  502    0 -0.35838162423E+03  0.25450527655E+03  0.11414135205E+03  0.45413497182E+03  0.00000000000E+00 0. -1.
          3    1    5    5  503    0 -0.10812888289E+02 -0.11931106202E+03  0.59706768757E+03  0.60896787404E+03  0.00000000000E+00 0. -1.
         -4    1    5    5    0  503 -0.48211507497E+02 -0.34064841145E+02  0.19095566179E+03  0.19987202813E+03  0.00000000000E+00 0.  1.
         -1    1    6    6    0  502 -0.17396603508E+03  0.97549621127E+02  0.10226063313E+03  0.22413689351E+03  0.00000000000E+00 0.  1.
<mgrwt>
<rscale>  0 0.21509356E+04</rscale>
<asrwt>0</asrwt>
<pdfrwt beam="1">  1        1 0.64730725E+00 0.21509356E+04</pdfrwt>
<pdfrwt beam="2">  1       -1 0.42291942E-01 0.21509356E+04</pdfrwt>
<totfact> 0.31571222E-01</totfact>
</mgrwt>
</event>
<event>
12    1  0.1755460E-007  0.3145481E+04  0.7818608E-02  0.8203366E-01
         -2   -1    0    0    0  501 -0.00000000000E+00  0.00000000000E+00  0.12009368397E+04  0.12009368397E+04  0.00000000000E+00 0. -1.
          2   -1    0    0  501    0  0.00000000000E+00 -0.00000000000E+00 -0.20596526575E+04  0.20596526575E+04  0.00000000000E+00 0.  1.
         23    2    1    2    0    0  0.12747433634E+04 -0.65898998002E+02 -0.11013781423E+04  0.16883065885E+04  0.89621447512E+02 0.  0.
        254    2    1    2    0    0 -0.12747433634E+04  0.65898998002E+02  0.24266232453E+03  0.15722829088E+04  0.88536728036E+03 0.  0.
        -24    2    4    4    0    0 -0.35989043117E+03  0.42842478325E+03  0.68042283337E+02  0.56973101023E+03  0.83034657484E+02 0.  0.
         24    2    4    4    0    0 -0.91485293219E+03 -0.36252578525E+03  0.17462004120E+03  0.10025518986E+04  0.78976692796E+02 0.  0.
         11    1    3    3    0    0  0.10079799029E+04 -0.81456230826E+02 -0.84208440766E+03  0.13159653308E+04  0.00000000000E+00 0.  1.
        -11    1    3    3    0    0  0.26676346049E+03  0.15557232824E+02 -0.25929373467E+03  0.37234125770E+03  0.00000000000E+00 0. -1.
          4    1    6    6  502    0 -0.72134676103E+03 -0.26484108689E+03  0.16267359042E+03  0.78545824076E+03  0.00000000000E+00 0. -1.
          1    1    5    5  503    0 -0.45679675497E+02  0.93764182168E+02 -0.72377812985E+01  0.10455017977E+03  0.00000000000E+00 0. -1.
         -4    1    5    5    0  503 -0.31421075567E+03  0.33466060108E+03  0.75280064635E+02  0.46518083046E+03  0.00000000000E+00 0.  1.
         -3    1    6    6    0  502 -0.19350617116E+03 -0.97684698357E+02  0.11946450776E+02  0.21709365780E+03  0.00000000000E+00 0.  1.
<mgrwt>
<rscale>  0 0.31454810E+04</rscale>
<asrwt>0</asrwt>
<pdfrwt beam="1">  1        2 0.31686964E+00 0.31454810E+04</pdfrwt>
<pdfrwt beam="2">  1       -2 0.18475952E+00 0.31454810E+04</pdfrwt>
<totfact> 0.88047706E-01</totfact>
</mgrwt>
</event>
<event>
12    1  0.1884401E-007  0.1647461E+04  0.7818608E-02  0.8791910E-01
         -2   -1    0    0    0  501 -0.00000000000E+00  0.00000000000E+00  0.73328769070E+03  0.73328769070E+03  0.00000000000E+00 0.  1.
          2   -1    0    0  501    0  0.00000000000E+00 -0.00000000000E+00 -0.92532794984E+03  0.92532794984E+03  0.00000000000E+00 0. -1.
         23    2    1    2    0    0  0.25477391478E+03 -0.28290669578E+03 -0.49237160993E+03  0.62911379916E+03  0.91697458288E+02 0.  0.
        254    2    1    2    0    0 -0.25477391478E+03  0.28290669578E+03  0.30033135079E+03  0.10295018414E+04  0.90814600972E+03 0.  0.
        -24    2    4    4    0    0 -0.63045856175E+02 -0.60869103247E+02 -0.29135339686E+03  0.31409718726E+03  0.78041101171E+02 0.  0.
         24    2    4    4    0    0 -0.19172805860E+03  0.34377579903E+03  0.59168474765E+03  0.71540465412E+03  0.82289307229E+02 0.  0.
         11    1    3    3    0    0 -0.73705504108E+01 -0.64352664788E+01 -0.68080460488E+01  0.11920031838E+02  0.00000000000E+00 0.  1.
        -11    1    3    3    0    0  0.26214446519E+03 -0.27647142930E+03 -0.48556356388E+03  0.61719376732E+03  0.00000000000E+00 0. -1.
          4    1    6    6  502    0 -0.18338889968E+03  0.32769999517E+03  0.51969607760E+03  0.64117297856E+03  0.00000000000E+00 0. -1.
          3    1    5    5  503    0 -0.49863643768E+02 -0.79419213028E+02 -0.24793332769E+03  0.26507495043E+03  0.00000000000E+00 0. -1.
         -4    1    5    5    0  503 -0.13182212407E+02  0.18550109780E+02 -0.43420069173E+02  0.49022236830E+02  0.00000000000E+00 0.  1.
         -3    1    6    6    0  502 -0.83391589184E+01  0.16075803859E+02  0.71988670055E+02  0.74231675567E+02  0.00000000000E+00 0.  1.
<mgrwt>
<rscale>  0 0.16474606E+04</rscale>
<asrwt>0</asrwt>
<pdfrwt beam="1">  1        2 0.14235815E+00 0.16474606E+04</pdfrwt>
<pdfrwt beam="2">  1       -2 0.11281349E+00 0.16474606E+04</pdfrwt>
<totfact> 0.16646336E+01</totfact>
</mgrwt>
</event>
<event>
12    1  0.1755460E-007  0.1569708E+04  0.7818608E-02  0.8839377E-01
          1   -1    0    0  501    0  0.00000000000E+00  0.00000000000E+00  0.11559830695E+04  0.11559830695E+04  0.00000000000E+00 0. -1.
         -1   -1    0    0    0  501 -0.00000000000E+00 -0.00000000000E+00 -0.53287600160E+03  0.53287600160E+03  0.00000000000E+00 0.  1.
         23    2    1    2    0    0  0.42928353077E+03  0.21437521828E+03 -0.10114139175E+02  0.48863024303E+03  0.91739493080E+02 0.  0.
        254    2    1    2    0    0 -0.42928353077E+03 -0.21437521828E+03  0.63322120710E+03  0.12002288281E+04  0.89963273544E+03 0.  0.
        -24    2    4    4    0    0  0.26023380120E+02 -0.46108623850E+03  0.43409993358E+03  0.63893373114E+03  0.80720659078E+02 0.  0.
         24    2    4    4    0    0 -0.45530691089E+03  0.24671102023E+03  0.19912127352E+03  0.56129509696E+03  0.85042305356E+02 0.  0.
         13    1    3    3    0    0  0.15810799559E+03  0.85782604308E+02 -0.47879673974E+02  0.18614310799E+03  0.00000000000E+00 0. -1.
        -13    1    3    3    0    0  0.27117553518E+03  0.12859261397E+03  0.37765534799E+02  0.30248713504E+03  0.00000000000E+00 0.  1.
          4    1    6    6  502    0 -0.17072480354E+03  0.13933981439E+03  0.92317679722E+02  0.23892487608E+03  0.00000000000E+00 0. -1.
          3    1    5    5  503    0 -0.24463004389E+02 -0.10061001375E+03  0.11645723278E+03  0.15583035813E+03  0.00000000000E+00 0. -1.
         -4    1    5    5    0  503  0.50486384509E+02 -0.36047622475E+03  0.31764270080E+03  0.48310337300E+03  0.00000000000E+00 0.  1.
         -3    1    6    6    0  502 -0.28458210735E+03  0.10737120583E+03  0.10680359380E+03  0.32237022088E+03  0.00000000000E+00 0.  1.
<mgrwt>
<rscale>  0 0.15697078E+04</rscale>
<asrwt>0</asrwt>
<pdfrwt beam="1">  1        1 0.17784355E+00 0.15697078E+04</pdfrwt>
<pdfrwt beam="2">  1       -1 0.81980924E-01 0.15697078E+04</pdfrwt>
<totfact> 0.16397284E+01</totfact>
</mgrwt>
</event>
<event>
12    1  0.1755460E-007  0.1812603E+04  0.7818608E-02  0.8699626E-01
         -2   -1    0    0    0  501 -0.00000000000E+00  0.00000000000E+00  0.34262540350E+03  0.34262540350E+03  0.00000000000E+00 0.  1.
          2   -1    0    0  501    0  0.00000000000E+00 -0.00000000000E+00 -0.23973178977E+04  0.23973178977E+04  0.00000000000E+00 0. -1.
         23    2    1    2    0    0 -0.19233220448E+03 -0.57180560771E+03 -0.13132171254E+04  0.14475249589E+04  0.82679854235E+02 0.  0.
        254    2    1    2    0    0  0.19233220448E+03  0.57180560771E+03 -0.74147536876E+03  0.12924183423E+04  0.86983108651E+03 0.  0.
        -24    2    4    4    0    0 -0.97242170260E+02  0.26588516367E+03  0.12973514754E+03  0.32167745223E+03  0.80586691404E+02 0.  0.
         24    2    4    4    0    0  0.28957437474E+03  0.30592044404E+03 -0.87121051630E+03  0.97074089003E+03  0.76742916849E+02 0.  0.
         11    1    3    3    0    0 -0.15757253870E+03 -0.51884770228E+03 -0.12168792397E+04  0.13322263799E+04  0.00000000000E+00 0. -1.
        -11    1    3    3    0    0 -0.34759665778E+02 -0.52957905429E+02 -0.96337885698E+02  0.11529857906E+03  0.00000000000E+00 0.  1.
          4    1    6    6  502    0  0.74980801271E+02  0.87822856117E+02 -0.16811225698E+03  0.20395270423E+03  0.00000000000E+00 0. -1.
          3    1    5    5  503    0 -0.28491181430E+02  0.11388116203E+02  0.15406422864E+02  0.34333576502E+02  0.00000000000E+00 0. -1.
         -4    1    5    5    0  503 -0.68750988830E+02  0.25449704746E+03  0.11432872468E+03  0.28734387573E+03  0.00000000000E+00 0.  1.
         -3    1    6    6    0  502  0.21459357347E+03  0.21809758792E+03 -0.70309825931E+03  0.76678818580E+03  0.00000000000E+00 0.  1.
<mgrwt>
<rscale>  0 0.18126026E+04</rscale>
<asrwt>0</asrwt>
<pdfrwt beam="1">  1        2 0.36881813E+00 0.18126026E+04</pdfrwt>
<pdfrwt beam="2">  1       -2 0.52711602E-01 0.18126026E+04</pdfrwt>
<totfact> 0.12785238E+01</totfact>
</mgrwt>
</event>
<event>
12    1  0.1755460E-007  0.2092025E+04  0.7818608E-02  0.8564764E-01
         -4   -1    0    0    0  501 -0.00000000000E+00  0.00000000000E+00  0.18167447045E+04  0.18167447045E+04  0.00000000000E+00 0.  1.
          4   -1    0    0  501    0  0.00000000000E+00 -0.00000000000E+00 -0.60225436496E+03  0.60225436496E+03  0.00000000000E+00 0. -1.
         23    2    1    2    0    0 -0.66927554421E+03  0.51817583052E+03  0.43569850880E+03  0.95612524865E+03  0.88917687295E+02 0.  0.
        254    2    1    2    0    0  0.66927554421E+03 -0.51817583052E+03  0.77879183079E+03  0.14628738209E+04  0.90390660725E+03 0.  0.
        -24    2    4    4    0    0  0.43909376043E+03 -0.69400751238E+03  0.81554263500E+03  0.11601220698E+04  0.79521504215E+02 0.  0.
         24    2    4    4    0    0  0.23018178378E+03  0.17583168186E+03 -0.36750804219E+02  0.30275175106E+03  0.80047281215E+02 0.  0.
         11    1    3    3    0    0 -0.44230928407E+02  0.63196039907E+02  0.27633070438E+02  0.81937177578E+02  0.00000000000E+00 0. -1.
        -11    1    3    3    0    0 -0.62504461580E+03  0.45497979062E+03  0.40806543837E+03  0.87418807107E+03  0.00000000000E+00 0.  1.
          4    1    6    6  502    0  0.21710857304E+03  0.18375077897E+03 -0.29884816816E+02  0.28599577538E+03  0.00000000000E+00 0. -1.
          3    1    5    5  503    0  0.41172217168E+03 -0.60681091413E+03  0.73612732994E+03  0.10390467160E+04  0.00000000000E+00 0. -1.
         -4    1    5    5    0  503  0.27371588750E+02 -0.87196598247E+02  0.79415305060E+02  0.12107535379E+03  0.00000000000E+00 0.  1.
         -3    1    6    6    0  502  0.13073210738E+02 -0.79190971072E+01 -0.68659874031E+01  0.16755975680E+02  0.00000000000E+00 0.  1.
<mgrwt>
<rscale>  0 0.20920253E+04</rscale>
<asrwt>0</asrwt>
<pdfrwt beam="1">  1        4 0.92654519E-01 0.20920253E+04</pdfrwt>
<pdfrwt beam="2">  1       -4 0.27949918E+00 0.20920253E+04</pdfrwt>
<totfact> 0.75608162E-02</totfact>
</mgrwt>
</event>
<event>
12    1  0.1755460E-007  0.1233330E+04  0.7818608E-02  0.9084173E-01
          2   -1    0    0  501    0  0.00000000000E+00  0.00000000000E+00  0.96712443533E+03  0.96712443533E+03  0.00000000000E+00 0. -1.
         -2   -1    0    0    0  501 -0.00000000000E+00 -0.00000000000E+00 -0.39320234781E+03  0.39320234781E+03  0.00000000000E+00 0.  1.
         23    2    1    2    0    0 -0.21518677474E+03  0.63157121867E+02 -0.42378916133E+02  0.24617244129E+03  0.92253608345E+02 0.  0.
        254    2    1    2    0    0  0.21518677474E+03 -0.63157121867E+02  0.61630100365E+03  0.11141543419E+04  0.90067685676E+03 0.  0.
        -24    2    4    4    0    0  0.10486315389E+03  0.38433326963E+03  0.10257410022E+03  0.41917625945E+03  0.80491908071E+02 0.  0.
         24    2    4    4    0    0  0.11032362085E+03 -0.44749039149E+03  0.51372690343E+03  0.69497808240E+03  0.81610366459E+02 0.  0.
         13    1    3    3    0    0 -0.65719883196E+02 -0.77040424765E+01  0.20404880678E+02  0.69244598874E+02  0.00000000000E+00 0. -1.
        -13    1    3    3    0    0 -0.14946689154E+03  0.70861164343E+02 -0.62783796811E+02  0.17692784242E+03  0.00000000000E+00 0.  1.
          2    1    6    6  502    0  0.15906510399E+02 -0.94050629501E+02  0.62309444429E+02  0.11393421281E+03  0.00000000000E+00 0. -1.
          3    1    5    5  503    0  0.57599516132E+02  0.23756211889E+03  0.10228527614E+03  0.26498253208E+03  0.00000000000E+00 0. -1.
         -4    1    5    5    0  503  0.47263637754E+02  0.14677115073E+03  0.28882408171E+00  0.15419372737E+03  0.00000000000E+00 0.  1.
         -1    1    6    6    0  502  0.94417110455E+02 -0.35343976199E+03  0.45141745900E+03  0.58104386960E+03  0.00000000000E+00 0.  1.
<mgrwt>
<rscale>  0 0.12333298E+04</rscale>
<asrwt>0</asrwt>
<pdfrwt beam="1">  1        2 0.14878837E+00 0.12333298E+04</pdfrwt>
<pdfrwt beam="2">  1       -2 0.60492669E-01 0.12333298E+04</pdfrwt>
<totfact> 0.66315582E+01</totfact>
</mgrwt>
</event>
<event>
12    1  0.1755460E-007  0.1396622E+04  0.7818608E-02  0.8956267E-01
         -2   -1    0    0    0  501 -0.00000000000E+00  0.00000000000E+00  0.21172407711E+03  0.21172407711E+03  0.00000000000E+00 0. -1.
          2   -1    0    0  501    0  0.00000000000E+00 -0.00000000000E+00 -0.23031781641E+04  0.23031781641E+04  0.00000000000E+00 0.  1.
         23    2    1    2    0    0 -0.42155985999E+02  0.25232645425E+03 -0.13454831263E+04  0.13724403728E+04  0.88441885850E+02 0.  0.
        254    2    1    2    0    0  0.42155985999E+02 -0.25232645425E+03 -0.74597096072E+03  0.11424618684E+04  0.82662003353E+03 0.  0.
        -24    2    4    4    0    0  0.25063733872E+02  0.24769492542E+03 -0.27138007126E+02  0.26303446010E+03  0.80434376584E+02 0.  0.
         24    2    4    4    0    0  0.17092252127E+02 -0.50002137967E+03 -0.71883295359E+03  0.87942740829E+03  0.79738485529E+02 0.  0.
         11    1    3    3    0    0 -0.64712562794E+02  0.22879333211E+03 -0.11605436473E+04  0.11846500166E+04  0.00000000000E+00 0.  1.
        -11    1    3    3    0    0  0.22556576795E+02  0.23533122137E+02 -0.18493947902E+03  0.18779035623E+03  0.00000000000E+00 0. -1.
          2    1    6    6  502    0  0.52435198452E+01 -0.87485722085E+02 -0.78729116012E+02  0.11781137372E+03  0.00000000000E+00 0. -1.
          1    1    5    5  503    0  0.20677405896E+02  0.16752404248E+03  0.19924731763E+02  0.16996721701E+03  0.00000000000E+00 0. -1.
         -2    1    5    5    0  503  0.43863279760E+01  0.80170882939E+02 -0.47062738889E+02  0.93067243089E+02  0.00000000000E+00 0.  1.
         -1    1    6    6    0  502  0.11848732282E+02 -0.41253565758E+03 -0.64010383758E+03  0.76161603457E+03  0.00000000000E+00 0.  1.
<mgrwt>
<rscale>  0 0.13966220E+04</rscale>
<asrwt>0</asrwt>
<pdfrwt beam="1">  1        2 0.35433511E+00 0.13966220E+04</pdfrwt>
<pdfrwt beam="2">  1       -2 0.32572934E-01 0.13966220E+04</pdfrwt>
<totfact> 0.38695494E+01</totfact>
</mgrwt>
</event>
<event>
12    1  0.1839428E-007  0.2692213E+04  0.7818608E-02  0.8337536E-01
          2   -1    0    0  501    0  0.00000000000E+00  0.00000000000E+00  0.26050272894E+04  0.26050272894E+04  0.00000000000E+00 0. -1.
         -2   -1    0    0    0  501 -0.00000000000E+00 -0.00000000000E+00 -0.69557917953E+03  0.69557917953E+03  0.00000000000E+00 0.  1.
         23    2    1    2    0    0 -0.62177652690E+03  0.40764091838E+03  0.19975615744E+04  0.21334534876E+04  0.92705838038E+02 0.  0.
        254    2    1    2    0    0  0.62177652690E+03 -0.40764091838E+03 -0.88113464540E+02  0.11671529813E+04  0.89537976941E+03 0.  0.
        -24    2    4    4    0    0  0.84578683719E+03 -0.34200078949E+03 -0.86482128728E+02  0.92004652226E+03  0.81771208676E+02 0.  0.
         24    2    4    4    0    0 -0.22401031028E+03 -0.65640128890E+02 -0.16313358120E+01  0.24710645908E+03  0.81053656480E+02 0.  0.
         13    1    3    3    0    0 -0.52571906307E+03  0.33984442842E+03  0.15751447505E+04  0.16949795733E+04  0.00000000000E+00 0. -1.
        -13    1    3    3    0    0 -0.96057463837E+02  0.67796489957E+02  0.42241682395E+03  0.43847391435E+03  0.00000000000E+00 0.  1.
          2    1    6    6  502    0 -0.48711120158E+02 -0.46034467776E+02 -0.19527491386E+02  0.69808798660E+02  0.00000000000E+00 0. -1.
          3    1    5    5  503    0  0.32179293290E+03 -0.10550146812E+03  0.26273222973E+00  0.33864630585E+03  0.00000000000E+00 0. -1.
         -4    1    5    5    0  503  0.52399390428E+03 -0.23649932137E+03 -0.86744860958E+02  0.58140021641E+03  0.00000000000E+00 0.  1.
         -1    1    6    6    0  502 -0.17529919012E+03 -0.19605661114E+02  0.17896155574E+02  0.17729766042E+03  0.00000000000E+00 0.  1.
<mgrwt>
<rscale>  0 0.26922130E+04</rscale>
<asrwt>0</asrwt>
<pdfrwt beam="1">  1        2 0.40077342E+00 0.26922130E+04</pdfrwt>
<pdfrwt beam="2">  1       -2 0.10701218E+00 0.26922130E+04</pdfrwt>
<totfact> 0.18628277E+00</totfact>
</mgrwt>
</event>
<event>
12    1  0.3421830E-007  0.2270113E+04  0.7818608E-02  0.8489799E-01
         -1   -1    0    0    0  501 -0.00000000000E+00  0.00000000000E+00  0.92597042335E+03  0.92597042335E+03  0.00000000000E+00 0.  1.
          1   -1    0    0  501    0  0.00000000000E+00 -0.00000000000E+00 -0.13913551722E+04  0.13913551722E+04  0.00000000000E+00 0. -1.
         23    2    1    2    0    0  0.15534105094E+03  0.36062127642E+03  0.70330547678E+03  0.81078799161E+03  0.92520411546E+02 0.  0.
        254    2    1    2    0    0 -0.15534105094E+03 -0.36062127642E+03 -0.11686902256E+04  0.15065376039E+04  0.86581762598E+03 0.  0.
        -24    2    4    4    0    0 -0.42541631449E+03 -0.28503701860E+03 -0.31929169004E+03  0.60849878350E+03  0.78092532200E+02 0.  0.
         24    2    4    4    0    0  0.27007526355E+03 -0.75584257823E+02 -0.84939853558E+03  0.89803882042E+03  0.79638073322E+02 0.  0.
         13    1    3    3    0    0  0.10490213543E+02  0.89020959520E+01  0.75466456835E+02  0.76710351321E+02  0.00000000000E+00 0. -1.
        -13    1    3    3    0    0  0.14485083740E+03  0.35171918047E+03  0.62783901995E+03  0.73407764029E+03  0.00000000000E+00 0.  1.
          4    1    6    6  502    0  0.11447423476E+02  0.88906271059E+01 -0.17193737952E+02  0.22488027467E+02  0.00000000000E+00 0. -1.
          1    1    5    5  503    0 -0.89088791121E+01 -0.23275387602E+02 -0.24780031776E+02  0.35144868329E+02  0.00000000000E+00 0. -1.
         -2    1    5    5    0  503 -0.41650743538E+03 -0.26176163100E+03 -0.29451165827E+03  0.57335391517E+03  0.00000000000E+00 0.  1.
         -3    1    6    6    0  502  0.25862784008E+03 -0.84474884929E+02 -0.83220479763E+03  0.87555079295E+03  0.00000000000E+00 0.  1.
<mgrwt>
<rscale>  0 0.22701134E+04</rscale>
<asrwt>0</asrwt>
<pdfrwt beam="1">  1        1 0.21405464E+00 0.22701134E+04</pdfrwt>
<pdfrwt beam="2">  1       -1 0.14245699E+00 0.22701134E+04</pdfrwt>
<totfact> 0.28273257E+00</totfact>
</mgrwt>
</event>
<event>
12    1  0.1755460E-007  0.1588303E+04  0.7818608E-02  0.8827766E-01
         -1   -1    0    0    0  501 -0.00000000000E+00  0.00000000000E+00  0.15574967775E+03  0.15574967775E+03  0.00000000000E+00 0.  1.
          1   -1    0    0  501    0  0.00000000000E+00 -0.00000000000E+00 -0.40492973518E+04  0.40492973518E+04  0.00000000000E+00 0. -1.
         23    2    1    2    0    0 -0.21724384196E+03 -0.15964130233E+03 -0.25700148542E+04  0.25859364887E+04  0.97010000952E+02 0.  0.
        254    2    1    2    0    0  0.21724384196E+03  0.15964130233E+03 -0.13235328198E+04  0.16191105409E+04  0.89280433810E+03 0.  0.
        -24    2    4    4    0    0  0.37873596066E+03  0.41954407575E+03 -0.59293220720E+03  0.82304011626E+03  0.79801448881E+02 0.  0.
         24    2    4    4    0    0 -0.16149211870E+03 -0.25990277342E+03 -0.73060061261E+03  0.79607042461E+03  0.79509180248E+02 0.  0.
         13    1    3    3    0    0 -0.22330371138E+03 -0.16167207325E+03 -0.23966482649E+04  0.24124521368E+04  0.00000000000E+00 0. -1.
        -13    1    3    3    0    0  0.60598694216E+01  0.20307709249E+01 -0.17336658931E+03  0.17348435185E+03  0.00000000000E+00 0.  1.
          2    1    6    6  502    0 -0.16872724642E+03 -0.23135865839E+03 -0.67278944527E+03  0.73119173283E+03  0.00000000000E+00 0. -1.
          3    1    5    5  503    0  0.31073649042E+03  0.31767811784E+03 -0.42257956606E+03  0.61322919263E+03  0.00000000000E+00 0. -1.
         -4    1    5    5    0  503  0.67999470237E+02  0.10186595791E+03 -0.17035264114E+03  0.20981092364E+03  0.00000000000E+00 0.  1.
         -1    1    6    6    0  502  0.72351277240E+01 -0.28544115038E+02 -0.57811167347E+02  0.64878691776E+02  0.00000000000E+00 0.  1.
<mgrwt>
<rscale>  0 0.15883032E+04</rscale>
<asrwt>0</asrwt>
<pdfrwt beam="1">  1        1 0.62296882E+00 0.15883032E+04</pdfrwt>
<pdfrwt beam="2">  1       -1 0.23961489E-01 0.15883032E+04</pdfrwt>
<totfact> 0.12775121E+00</totfact>
</mgrwt>
</event>
<event>
12    1  0.1755460E-007  0.2240893E+04  0.7818608E-02  0.8501598E-01
         -3   -1    0    0    0  501 -0.00000000000E+00  0.00000000000E+00  0.22081298376E+04  0.22081298376E+04  0.00000000000E+00 0.  1.
          3   -1    0    0  501    0  0.00000000000E+00 -0.00000000000E+00 -0.56853577984E+03  0.56853577984E+03  0.00000000000E+00 0. -1.
         23    2    1    2    0    0 -0.13926582799E+03 -0.90762179293E+03  0.10286548470E+04  0.13820115150E+04  0.93020124427E+02 0.  0.
        254    2    1    2    0    0  0.13926582799E+03  0.90762179293E+03  0.61093921075E+03  0.13946541024E+04  0.85360474243E+03 0.  0.
        -24    2    4    4    0    0  0.42225408902E+03  0.82304658982E+03  0.34730850855E+03  0.99061286756E+03  0.70614789896E+02 0.  0.
         24    2    4    4    0    0 -0.28298826103E+03  0.84575203109E+02  0.26363070220E+03  0.40404123485E+03  0.80702239492E+02 0.  0.
         11    1    3    3    0    0 -0.93638060608E+02 -0.35406080345E+03  0.44452676646E+03  0.57596109680E+03  0.00000000000E+00 0. -1.
        -11    1    3    3    0    0 -0.45627767385E+02 -0.55356098948E+03  0.58412808052E+03  0.80605041821E+03  0.00000000000E+00 0.  1.
          2    1    6    6  502    0  0.10790346620E+00  0.11111518892E+02  0.13555168974E+01  0.11194414737E+02  0.00000000000E+00 0. -1.
          3    1    5    5  503    0  0.66973430075E+02  0.17220869023E+03  0.47346613704E+02  0.19074321785E+03  0.00000000000E+00 0. -1.
         -4    1    5    5    0  503  0.35528065895E+03  0.65083789958E+03  0.29996189485E+03  0.79986964970E+03  0.00000000000E+00 0.  1.
         -1    1    6    6    0  502 -0.28309616449E+03  0.73463684217E+02  0.26227518530E+03  0.39284682011E+03  0.00000000000E+00 0.  1.
<mgrwt>
<rscale>  0 0.22408934E+04</rscale>
<asrwt>0</asrwt>
<pdfrwt beam="1">  1        3 0.87467044E-01 0.22408934E+04</pdfrwt>
<pdfrwt beam="2">  1       -3 0.33971228E+00 0.22408934E+04</pdfrwt>
<totfact> 0.64655692E-02</totfact>
</mgrwt>
</event>
<event>
12    1  0.1755460E-007  0.1383092E+04  0.7818608E-02  0.8966149E-01
          1   -1    0    0  501    0  0.00000000000E+00  0.00000000000E+00  0.28134152504E+03  0.28134152504E+03  0.00000000000E+00 0. -1.
         -1   -1    0    0    0  501 -0.00000000000E+00 -0.00000000000E+00 -0.16998404181E+04  0.16998404181E+04  0.00000000000E+00 0.  1.
         23    2    1    2    0    0  0.60168162166E+02  0.33921900064E+03 -0.14597317681E+03  0.38587126457E+03  0.94333060696E+02 0.  0.
        254    2    1    2    0    0 -0.60168162166E+02 -0.33921900064E+03 -0.12725257162E+04  0.15953106785E+04  0.89833441684E+03 0.  0.
        -24    2    4    4    0    0 -0.30173915327E+03 -0.26031412309E+03 -0.13692606268E+03  0.42893729309E+03  0.80177898853E+02 0.  0.
         24    2    4    4    0    0  0.24157099111E+03 -0.78904877551E+02 -0.11355996535E+04  0.11663733854E+04  0.79106116840E+02 0.  0.
         13    1    3    3    0    0  0.17973478646E+02  0.28461577078E+03 -0.96902599876E+02  0.30119644217E+03  0.00000000000E+00 0. -1.
        -13    1    3    3    0    0  0.42194683520E+02  0.54603229859E+02 -0.49070576934E+02  0.84674822404E+02  0.00000000000E+00 0.  1.
          2    1    6    6  502    0  0.81364856780E+02 -0.53375868581E+02 -0.30738936949E+03  0.32242432870E+03  0.00000000000E+00 0. -1.
          1    1    5    5  503    0 -0.10657540023E+03 -0.99350264048E+02 -0.10372625867E+02  0.14606978561E+03  0.00000000000E+00 0. -1.
         -2    1    5    5    0  503 -0.19516375304E+03 -0.16096385904E+03 -0.12655343681E+03  0.28286750748E+03  0.00000000000E+00 0.  1.
         -1    1    6    6    0  502  0.16020613433E+03 -0.25529008970E+02 -0.82821028404E+03  0.84394905673E+03  0.00000000000E+00 0.  1.
<mgrwt>
<rscale>  0 0.13830917E+04</rscale>
<asrwt>0</asrwt>
<pdfrwt beam="1">  1        1 0.43283310E-01 0.13830917E+04</pdfrwt>
<pdfrwt beam="2">  1       -1 0.26151392E+00 0.13830917E+04</pdfrwt>
<totfact> 0.54688588E+00</totfact>
</mgrwt>
</event>
<event>
12    1  0.1755460E-007  0.2121751E+04  0.7818608E-02  0.8551722E-01
         -1   -1    0    0    0  501 -0.00000000000E+00  0.00000000000E+00  0.14692419842E+04  0.14692419842E+04  0.00000000000E+00 0.  1.
          1   -1    0    0  501    0  0.00000000000E+00 -0.00000000000E+00 -0.76601188730E+03  0.76601188730E+03  0.00000000000E+00 0. -1.
         23    2    1    2    0    0 -0.59994298819E+03 -0.10628853401E+03 -0.36182642108E+03  0.71461807478E+03  0.92367701447E+02 0.  0.
        254    2    1    2    0    0  0.59994298819E+03  0.10628853401E+03  0.10650565180E+04  0.15206357967E+04  0.89819763875E+03 0.  0.
        -24    2    4    4    0    0  0.71135229182E+03 -0.20309960385E+03  0.68328478332E+03  0.10102840907E+04  0.80773242024E+02 0.  0.
         24    2    4    4    0    0 -0.11140930363E+03  0.30938813786E+03  0.38177173465E+03  0.51035170603E+03  0.81093487318E+02 0.  0.
         11    1    3    3    0    0 -0.56989046199E+03 -0.11810407463E+03 -0.32892414195E+03  0.66851686761E+03  0.00000000000E+00 0. -1.
        -11    1    3    3    0    0 -0.30052526192E+02  0.11815540620E+02 -0.32902279129E+02  0.46101207170E+02  0.00000000000E+00 0.  1.
          2    1    6    6  502    0 -0.16397605759E+02  0.12070074105E+02  0.54125101522E+02  0.57828148667E+02  0.00000000000E+00 0. -1.
          1    1    5    5  503    0  0.28942648305E+03 -0.79921349101E+02  0.22433349965E+03  0.37480745750E+03  0.00000000000E+00 0. -1.
         -2    1    5    5    0  503  0.42192580876E+03 -0.12317825474E+03  0.45895128367E+03  0.63547663319E+03  0.00000000000E+00 0.  1.
         -1    1    6    6    0  502 -0.95011697871E+02  0.29731806375E+03  0.32764663313E+03  0.45252355736E+03  0.00000000000E+00 0.  1.
<mgrwt>
<rscale>  0 0.21217510E+04</rscale>
<asrwt>0</asrwt>
<pdfrwt beam="1">  1        1 0.11784798E+00 0.21217510E+04</pdfrwt>
<pdfrwt beam="2">  1       -1 0.22603723E+00 0.21217510E+04</pdfrwt>
<totfact> 0.21810379E+00</totfact>
</mgrwt>
</event>
<event>
12    1  0.1755460E-007  0.2333148E+04  0.7818608E-02  0.8464965E-01
         -1   -1    0    0    0  501 -0.00000000000E+00  0.00000000000E+00  0.11558988660E+04  0.11558988660E+04  0.00000000000E+00 0. -1.
          1   -1    0    0  501    0  0.00000000000E+00 -0.00000000000E+00 -0.11773479827E+04  0.11773479827E+04  0.00000000000E+00 0.  1.
         23    2    1    2    0    0  0.42053241026E+01  0.89598265457E+03 -0.41364659398E+03  0.99101373833E+03  0.90565571789E+02 0.  0.
        254    2    1    2    0    0 -0.42053241026E+01 -0.89598265457E+03  0.39219747728E+03  0.13422331104E+04  0.91922155079E+03 0.  0.
        -24    2    4    4    0    0  0.12203224240E+03 -0.80557324540E+03  0.64013675124E+03  0.10391773403E+04  0.79210873175E+02 0.  0.
         24    2    4    4    0    0 -0.12623756650E+03 -0.90409409172E+02 -0.24793927396E+03  0.30305577010E+03  0.79114674715E+02 0.  0.
         13    1    3    3    0    0  0.51148995726E+01  0.83712308824E+03 -0.40969515933E+03  0.93201467298E+03  0.00000000000E+00 0. -1.
        -13    1    3    3    0    0 -0.90957547003E+00  0.58859566329E+02 -0.39514346472E+01  0.58999065347E+02  0.00000000000E+00 0.  1.
          2    1    6    6  502    0 -0.13365182350E+03 -0.95312555861E+02 -0.22551701030E+03  0.27893586210E+03  0.00000000000E+00 0. -1.
          1    1    5    5  503    0  0.11104783158E+03 -0.76449729572E+03  0.58232959600E+03  0.96741691863E+03  0.00000000000E+00 0. -1.
         -2    1    5    5    0  503  0.10984410820E+02 -0.41075949679E+02  0.57807155238E+02  0.71760421681E+02  0.00000000000E+00 0.  1.
         -1    1    6    6    0  502  0.74142569989E+01  0.49031466893E+01 -0.22422263660E+02  0.24119908001E+02  0.00000000000E+00 0.  1.
<mgrwt>
<rscale>  0 0.23331483E+04</rscale>
<asrwt>0</asrwt>
<pdfrwt beam="1">  1        1 0.18113046E+00 0.23331483E+04</pdfrwt>
<pdfrwt beam="2">  1       -1 0.17783059E+00 0.23331483E+04</pdfrwt>
<totfact> 0.21590810E+00</totfact>
</mgrwt>
</event>
<event>
12    1  0.1755460E-007  0.1795624E+04  0.7818608E-02  0.8708630E-01
          2   -1    0    0  501    0  0.00000000000E+00  0.00000000000E+00  0.29310952299E+04  0.29310952299E+04  0.00000000000E+00 0. -1.
         -2   -1    0    0    0  501 -0.00000000000E+00 -0.00000000000E+00 -0.27500529450E+03  0.27500529450E+03  0.00000000000E+00 0.  1.
         23    2    1    2    0    0  0.26122047724E+03 -0.32807351109E+03  0.19379756684E+04  0.19848991712E+04  0.90590628478E+02 0.  0.
        254    2    1    2    0    0 -0.26122047724E+03  0.32807351109E+03  0.71811426695E+03  0.12212013532E+04  0.89430211796E+03 0.  0.
        -24    2    4    4    0    0 -0.14205831668E+03  0.50695694693E+03  0.81389661835E+03  0.97278059530E+03  0.81783065790E+02 0.  0.
         24    2    4    4    0    0 -0.11916216056E+03 -0.17888343584E+03 -0.95782351405E+02  0.24842075787E+03  0.79622295725E+02 0.  0.
         13    1    3    3    0    0  0.22076640900E+02  0.11346368785E+01  0.94497039020E+02  0.97048214089E+02  0.00000000000E+00 0.  1.
        -13    1    3    3    0    0  0.23914383634E+03 -0.32920814797E+03  0.18434786294E+04  0.18878509571E+04  0.00000000000E+00 0. -1.
          4    1    6    6  502    0 -0.11121868572E+03 -0.15148840816E+03 -0.49982100254E+02  0.19446476340E+03  0.00000000000E+00 0. -1.
          1    1    5    5  503    0 -0.11754271151E+03  0.37698993646E+03  0.66688463548E+03  0.77503084987E+03  0.00000000000E+00 0. -1.
         -2    1    5    5    0  503 -0.24515605174E+02  0.12996701047E+03  0.14701198288E+03  0.19774974543E+03  0.00000000000E+00 0.  1.
         -3    1    6    6    0  502 -0.79434748407E+01 -0.27395027679E+02 -0.45800251152E+02  0.53955994474E+02  0.00000000000E+00 0.  1.
<mgrwt>
<rscale>  0 0.17956244E+04</rscale>
<asrwt>0</asrwt>
<pdfrwt beam="1">  1        2 0.45093771E+00 0.17956244E+04</pdfrwt>
<pdfrwt beam="2">  1       -2 0.42308509E-01 0.17956244E+04</pdfrwt>
<totfact> 0.96453671E+00</totfact>
</mgrwt>
</event>
<event>
12    1  0.1755460E-007  0.1234047E+04  0.7818608E-02  0.9083566E-01
          2   -1    0    0  501    0  0.00000000000E+00  0.00000000000E+00  0.18553715855E+04  0.18553715855E+04  0.00000000000E+00 0. -1.
         -2   -1    0    0    0  501 -0.00000000000E+00 -0.00000000000E+00 -0.20519777481E+03  0.20519777481E+03  0.00000000000E+00 0.  1.
         23    2    1    2    0    0  0.49390023709E+02 -0.71899231133E+02  0.81679091188E+03  0.82651005617E+03  0.91447281824E+02 0.  0.
        254    2    1    2    0    0 -0.49390023709E+02  0.71899231133E+02  0.83338289882E+03  0.12340593042E+04  0.90596160859E+03 0.  0.
        -24    2    4    4    0    0 -0.69153831718E+02 -0.39734432062E+03  0.25189719881E+03  0.48233466136E+03  0.80806962616E+02 0.  0.
         24    2    4    4    0    0  0.19763808009E+02  0.46924355175E+03  0.58148570001E+03  0.75172464279E+03  0.79901190845E+02 0.  0.
         11    1    3    3    0    0  0.14003886847E+01 -0.69005909307E+02  0.62440094987E+03  0.62820404552E+03  0.00000000000E+00 0. -1.
        -11    1    3    3    0    0  0.47989635024E+02 -0.28933218255E+01  0.19238996200E+03  0.19830601065E+03  0.00000000000E+00 0.  1.
          2    1    6    6  502    0 -0.28865957181E+02  0.18803166368E+03  0.21160150051E+03  0.28454234315E+03  0.00000000000E+00 0. -1.
          1    1    5    5  503    0 -0.16032211417E+01 -0.92996013508E+02  0.96391759792E+02  0.13394849832E+03  0.00000000000E+00 0. -1.
         -2    1    5    5    0  503 -0.67550610576E+02 -0.30434830711E+03  0.15550543902E+03  0.34838616304E+03  0.00000000000E+00 0.  1.
         -1    1    6    6    0  502  0.48629765189E+02  0.28121188808E+03  0.36988419950E+03  0.46718229964E+03  0.00000000000E+00 0.  1.
<mgrwt>
<rscale>  0 0.12340472E+04</rscale>
<asrwt>0</asrwt>
<pdfrwt beam="1">  1        2 0.28544177E+00 0.12340472E+04</pdfrwt>
<pdfrwt beam="2">  1       -2 0.31568890E-01 0.12340472E+04</pdfrwt>
<totfact> 0.73791779E+01</totfact>
</mgrwt>
</event>
<event>
12    1  0.1755460E-007  0.2365513E+04  0.7818608E-02  0.8452529E-01
          1   -1    0    0  501    0  0.00000000000E+00  0.00000000000E+00  0.31321448309E+04  0.31321448309E+04  0.00000000000E+00 0. -1.
         -1   -1    0    0    0  501 -0.00000000000E+00 -0.00000000000E+00 -0.44663085452E+03  0.44663085452E+03  0.00000000000E+00 0.  1.
         23    2    1    2    0    0  0.17386418383E+03 -0.86592590625E+03  0.42359712999E+03  0.98404401639E+03  0.94083304183E+02 0.  0.
        254    2    1    2    0    0 -0.17386418383E+03  0.86592590625E+03  0.22619168464E+04  0.25947316691E+04  0.91449887085E+03 0.  0.
        -24    2    4    4    0    0  0.65467622408E+02  0.79958625556E+03  0.89768779188E+03  0.12061940536E+04  0.73732852336E+02 0.  0.
         24    2    4    4    0    0 -0.23933180623E+03  0.66339650694E+02  0.13642290545E+04  0.13885376155E+04  0.72354223564E+02 0.  0.
         13    1    3    3    0    0  0.15737334756E+03 -0.71308647478E+03  0.31212076902E+03  0.79415241956E+03  0.00000000000E+00 0. -1.
        -13    1    3    3    0    0  0.16490836264E+02 -0.15283943148E+03  0.11147636097E+03  0.18989159684E+03  0.00000000000E+00 0.  1.
          2    1    6    6  502    0 -0.22848145305E+03  0.67177121378E+02  0.13487598808E+04  0.13696239470E+04  0.00000000000E+00 0. -1.
          1    1    5    5  503    0  0.79754488684E+02  0.73187922233E+03  0.81220908385E+03  0.10962169358E+04  0.00000000000E+00 0. -1.
         -2    1    5    5    0  503 -0.14286866276E+02  0.67707033233E+02  0.85478708035E+02  0.10997711773E+03  0.00000000000E+00 0.  1.
         -1    1    6    6    0  502 -0.10850353181E+02 -0.83747068419E+00  0.15469173730E+02  0.18913668528E+02  0.00000000000E+00 0.  1.
<mgrwt>
<rscale>  0 0.23655126E+04</rscale>
<asrwt>0</asrwt>
<pdfrwt beam="1">  1        1 0.48186842E+00 0.23655126E+04</pdfrwt>
<pdfrwt beam="2">  1       -1 0.68712441E-01 0.23655126E+04</pdfrwt>
<totfact> 0.92083657E-01</totfact>
</mgrwt>
</event>
<event>
12    1  0.1755460E-007  0.1453053E+04  0.7818608E-02  0.8916287E-01
         -2   -1    0    0    0  501 -0.00000000000E+00  0.00000000000E+00  0.77766325617E+03  0.77766325617E+03  0.00000000000E+00 0.  1.
          2   -1    0    0  501    0  0.00000000000E+00 -0.00000000000E+00 -0.67875217216E+03  0.67875217216E+03  0.00000000000E+00 0. -1.
         23    2    1    2    0    0 -0.12441562600E+03 -0.75190792709E+02  0.44903516870E+03  0.48053852495E+03  0.90287252315E+02 0.  0.
        254    2    1    2    0    0  0.12441562600E+03  0.75190792709E+02 -0.35012408468E+03  0.97587690338E+03  0.89923075602E+03 0.  0.
        -24    2    4    4    0    0 -0.33850412975E+03 -0.66935128143E+02  0.29708882820E+02  0.35526394572E+03  0.79148570251E+02 0.  0.
         24    2    4    4    0    0  0.46291975575E+03  0.14212592085E+03 -0.37983296750E+03  0.62061295765E+03  0.79955502409E+02 0.  0.
         11    1    3    3    0    0 -0.69768960927E+02  0.42929234197E+01  0.13499705470E+03  0.15202086001E+03  0.00000000000E+00 0. -1.
        -11    1    3    3    0    0 -0.54646665068E+02 -0.79483716129E+02  0.31403811399E+03  0.32851766493E+03  0.00000000000E+00 0.  1.
          4    1    6    6  502    0  0.11423082099E+03  0.36875430600E+02 -0.52889645725E+02  0.13117085221E+03  0.00000000000E+00 0. -1.
          3    1    5    5  503    0 -0.11547592155E+03  0.12828697031E+02 -0.25532281725E+01  0.11621438336E+03  0.00000000000E+00 0. -1.
         -4    1    5    5    0  503 -0.22302820820E+03 -0.79763825175E+02  0.32262110992E+02  0.23904956236E+03  0.00000000000E+00 0.  1.
         -3    1    6    6    0  502  0.34868893476E+03  0.10525049025E+03 -0.32694332178E+03  0.48944210544E+03  0.00000000000E+00 0.  1.
<mgrwt>
<rscale>  0 0.14530528E+04</rscale>
<asrwt>0</asrwt>
<pdfrwt beam="1">  1        2 0.10442341E+00 0.14530528E+04</pdfrwt>
<pdfrwt beam="2">  1       -2 0.11964050E+00 0.14530528E+04</pdfrwt>
<totfact> 0.22092569E+01</totfact>
</mgrwt>
</event>
<event>
12    1  0.1755460E-007  0.1412578E+04  0.7818608E-02  0.8944764E-01
          2   -1    0    0  501    0  0.00000000000E+00  0.00000000000E+00  0.66126929108E+03  0.66126929108E+03  0.00000000000E+00 0. -1.
         -2   -1    0    0    0  501 -0.00000000000E+00 -0.00000000000E+00 -0.75437320289E+03  0.75437320289E+03  0.00000000000E+00 0.  1.
         23    2    1    2    0    0 -0.14197991869E+03  0.10316118900E+03 -0.39238368480E+03  0.43940701580E+03  0.91175880628E+02 0.  0.
        254    2    1    2    0    0  0.14197991869E+03 -0.10316118900E+03  0.29927977298E+03  0.97623547817E+03  0.91250577976E+03 0.  0.
        -24    2    4    4    0    0 -0.82651316076E+02 -0.47009549743E+03  0.21910076876E+03  0.53115653279E+03  0.79379460174E+02 0.  0.
         24    2    4    4    0    0  0.22463123476E+03  0.36693430844E+03  0.80179004224E+02  0.44507894539E+03  0.81034662753E+02 0.  0.
         13    1    3    3    0    0 -0.54262877399E+02  0.45128737418E+02 -0.66497676074E+02  0.96969086455E+02  0.00000000000E+00 0. -1.
        -13    1    3    3    0    0 -0.87717041287E+02  0.58032451578E+02 -0.32588600873E+03  0.34243792934E+03  0.00000000000E+00 0.  1.
          2    1    6    6  502    0  0.73152805278E+02  0.57881294297E+02  0.99911860777E+01  0.93815781981E+02  0.00000000000E+00 0. -1.
          3    1    5    5  503    0 -0.85083906584E+01 -0.70046022650E+00  0.54099712909E+01  0.10106984985E+02  0.00000000000E+00 0. -1.
         -4    1    5    5    0  503 -0.74142925418E+02 -0.46939503721E+03  0.21369079747E+03  0.52104954780E+03  0.00000000000E+00 0.  1.
         -1    1    6    6    0  502  0.15147842948E+03  0.30905301414E+03  0.70187818146E+02  0.35126316340E+03  0.00000000000E+00 0.  1.
<mgrwt>
<rscale>  0 0.14125775E+04</rscale>
<asrwt>0</asrwt>
<pdfrwt beam="1">  1        2 0.10173374E+00 0.14125775E+04</pdfrwt>
<pdfrwt beam="2">  1       -2 0.11605742E+00 0.14125775E+04</pdfrwt>
<totfact> 0.24675416E+01</totfact>
</mgrwt>
</event>
<event>
12    1  0.1755460E-007  0.1409095E+04  0.7818608E-02  0.8947262E-01
          2   -1    0    0  501    0  0.00000000000E+00  0.00000000000E+00  0.22722277538E+04  0.22722277538E+04  0.00000000000E+00 0. -1.
         -2   -1    0    0    0  501 -0.00000000000E+00 -0.00000000000E+00 -0.21845826338E+03  0.21845826338E+03  0.00000000000E+00 0.  1.
         23    2    1    2    0    0 -0.11902145425E+03 -0.94740002064E+02 -0.65849882005E+02  0.18610121918E+03  0.84591265839E+02 0.  0.
        254    2    1    2    0    0  0.11902145425E+03  0.94740002064E+02  0.21196193724E+04  0.23045847980E+04  0.89173035871E+03 0.  0.
        -24    2    4    4    0    0  0.20786345770E+03  0.11833622048E+03  0.85809880406E+02  0.26714837633E+03  0.82427187728E+02 0.  0.
         24    2    4    4    0    0 -0.88842003449E+02 -0.23596218421E+02  0.20338094920E+04  0.20374364216E+04  0.79476030455E+02 0.  0.
         11    1    3    3    0    0 -0.93680657432E+02 -0.10971701116E+03 -0.59070116019E+02  0.15589472961E+03  0.00000000000E+00 0.  1.
        -11    1    3    3    0    0 -0.25340796817E+02  0.14977009098E+02 -0.67797659856E+01  0.30206489562E+02  0.00000000000E+00 0. -1.
          4    1    6    6  502    0 -0.27270880225E+02 -0.45486701712E+02  0.11452182903E+04  0.11464456697E+04  0.00000000000E+00 0. -1.
          1    1    5    5  503    0  0.78270110537E+02  0.65153587978E+02 -0.19300000640E+01  0.10185737642E+03  0.00000000000E+00 0. -1.
         -2    1    5    5    0  503  0.12959334716E+03  0.53182632507E+02  0.87739880470E+02  0.16529099992E+03  0.00000000000E+00 0.  1.
         -3    1    6    6    0  502 -0.61571123225E+02  0.21890483291E+02  0.88859120162E+03  0.89099075196E+03  0.00000000000E+00 0.  1.
<mgrwt>
<rscale>  0 0.14090946E+04</rscale>
<asrwt>0</asrwt>
<pdfrwt beam="1">  1        2 0.34957349E+00 0.14090946E+04</pdfrwt>
<pdfrwt beam="2">  1       -2 0.33608965E-01 0.14090946E+04</pdfrwt>
<totfact> 0.37922199E+01</totfact>
</mgrwt>
</event>
<event>
12    1  0.1755460E-007  0.2083280E+04  0.7818608E-02  0.8568645E-01
         -2   -1    0    0    0  501 -0.00000000000E+00  0.00000000000E+00  0.13700441876E+04  0.13700441876E+04  0.00000000000E+00 0.  1.
          2   -1    0    0  501    0  0.00000000000E+00 -0.00000000000E+00 -0.79195506570E+03  0.79195506570E+03  0.00000000000E+00 0. -1.
         23    2    1    2    0    0 -0.18048479637E+03 -0.19055257640E+03 -0.59439693234E+03  0.65673214170E+03  0.95416700176E+02 0.  0.
        254    2    1    2    0    0  0.18048479637E+03  0.19055257640E+03  0.11724860543E+04  0.15052671116E+04  0.90676374200E+03 0.  0.
        -24    2    4    4    0    0 -0.34479330823E+03 -0.51722537471E+02  0.48141308511E+03  0.60036235668E+03  0.84372711928E+02 0.  0.
         24    2    4    4    0    0  0.52527810460E+03  0.24227511387E+03  0.69107296915E+03  0.90490475494E+03  0.81587063102E+02 0.  0.
         11    1    3    3    0    0 -0.11783157139E+03 -0.13510071046E+03 -0.49694605809E+03  0.52829145917E+03  0.00000000000E+00 0.  1.
        -11    1    3    3    0    0 -0.62653224976E+02 -0.55451865935E+02 -0.97450874253E+02  0.12844068253E+03  0.00000000000E+00 0. -1.
          4    1    6    6  502    0  0.49786597180E+03  0.24778165979E+03  0.66157670987E+03  0.86426270302E+03  0.00000000000E+00 0. -1.
          3    1    5    5  503    0 -0.19771330650E+03  0.69587248225E+01  0.30235200450E+03  0.36132493693E+03  0.00000000000E+00 0. -1.
         -4    1    5    5    0  503 -0.14708000172E+03 -0.58681262293E+02  0.17906108061E+03  0.23903741975E+03  0.00000000000E+00 0.  1.
         -3    1    6    6    0  502  0.27412132799E+02 -0.55065459231E+01  0.29496259280E+02  0.40642051918E+02  0.00000000000E+00 0.  1.
<mgrwt>
<rscale>  0 0.20832796E+04</rscale>
<asrwt>0</asrwt>
<pdfrwt beam="1">  1        2 0.12183924E+00 0.20832796E+04</pdfrwt>
<pdfrwt beam="2">  1       -2 0.21077603E+00 0.20832796E+04</pdfrwt>
<totfact> 0.36452462E+00</totfact>
</mgrwt>
</event>
<event>
12    1  0.1755460E-007  0.1359375E+04  0.7818608E-02  0.8983761E-01
         -2   -1    0    0    0  501 -0.00000000000E+00  0.00000000000E+00  0.18734906486E+04  0.18734906486E+04  0.00000000000E+00 0.  1.
          2   -1    0    0  501    0  0.00000000000E+00 -0.00000000000E+00 -0.24658529272E+03  0.24658529272E+03  0.00000000000E+00 0. -1.
         23    2    1    2    0    0 -0.37168316588E+03 -0.61540529369E+02  0.49637005645E+03  0.62964235619E+03  0.90170123758E+02 0.  0.
        254    2    1    2    0    0  0.37168316588E+03  0.61540529369E+02  0.11305352994E+04  0.14904335851E+04  0.89517964446E+03 0.  0.
        -24    2    4    4    0    0  0.63916937698E+03 -0.74304124359E+02  0.64689809246E+03  0.91606838490E+03  0.81520233108E+02 0.  0.
         24    2    4    4    0    0 -0.26748621110E+03  0.13584465373E+03  0.48363720694E+03  0.57436520020E+03  0.77380825758E+02 0.  0.
         13    1    3    3    0    0 -0.31291494518E+03 -0.67333329450E+02  0.45961491169E+03  0.56008517854E+03  0.00000000000E+00 0. -1.
        -13    1    3    3    0    0 -0.58768220697E+02  0.57928000815E+01  0.36755144763E+02  0.69557177654E+02  0.00000000000E+00 0.  1.
          2    1    6    6  502    0 -0.16840937225E+03  0.10870686862E+03  0.26029139361E+03  0.32852779111E+03  0.00000000000E+00 0. -1.
          3    1    5    5  503    0  0.55404023996E+03 -0.43984512531E+02  0.58245235287E+03  0.80507513202E+03  0.00000000000E+00 0. -1.
         -4    1    5    5    0  503  0.85129137027E+02 -0.30319611828E+02  0.64445739587E+02  0.11099325287E+03  0.00000000000E+00 0.  1.
         -1    1    6    6    0  502 -0.99076838857E+02  0.27137785110E+02  0.22334581333E+03  0.24583740910E+03  0.00000000000E+00 0.  1.
<mgrwt>
<rscale>  0 0.13593752E+04</rscale>
<asrwt>0</asrwt>
<pdfrwt beam="1">  1        2 0.37936200E-01 0.13593752E+04</pdfrwt>
<pdfrwt beam="2">  1       -2 0.28822932E+00 0.13593752E+04</pdfrwt>
<totfact> 0.50268220E+00</totfact>
</mgrwt>
</event>
<event>
12    1  0.1755460E-007  0.2377507E+04  0.7818608E-02  0.8447973E-01
         -2   -1    0    0    0  501 -0.00000000000E+00  0.00000000000E+00  0.55698549874E+03  0.55698549874E+03  0.00000000000E+00 0.  1.
          2   -1    0    0  501    0  0.00000000000E+00 -0.00000000000E+00 -0.25371127989E+04  0.25371127989E+04  0.00000000000E+00 0. -1.
         23    2    1    2    0    0  0.45566309435E+03  0.61669931426E+03 -0.17051768508E+04  0.18720693301E+04  0.95229116549E+02 0.  0.
        254    2    1    2    0    0 -0.45566309435E+03 -0.61669931426E+03 -0.27495044942E+03  0.12220289675E+04  0.91093915719E+03 0.  0.
        -24    2    4    4    0    0  0.52307196190E+02 -0.54325437620E+03  0.12629618051E+03  0.56562314351E+03  0.78214162618E+02 0.  0.
         24    2    4    4    0    0 -0.50797029054E+03 -0.73444938067E+02 -0.40124662993E+03  0.65640582403E+03  0.80260655303E+02 0.  0.
         13    1    3    3    0    0  0.41197476865E+03  0.55260773356E+03 -0.15925835468E+04  0.17353445971E+04  0.00000000000E+00 0. -1.
        -13    1    3    3    0    0  0.43688325701E+02  0.64091580708E+02 -0.11259330400E+03  0.13672473305E+03  0.00000000000E+00 0.  1.
          4    1    6    6  502    0 -0.39841549823E+03 -0.24008539670E+02 -0.31517304175E+03  0.50857188819E+03  0.00000000000E+00 0. -1.
          3    1    5    5  503    0  0.58792130751E+02 -0.53917607756E+03  0.11949621275E+03  0.55537978188E+03  0.00000000000E+00 0. -1.
         -4    1    5    5    0  503 -0.64849345608E+01 -0.40782986333E+01  0.67999677662E+01  0.10243361637E+02  0.00000000000E+00 0.  1.
         -3    1    6    6    0  502 -0.10955479231E+03 -0.49436398397E+02 -0.86073588178E+02  0.14783393584E+03  0.00000000000E+00 0.  1.
<mgrwt>
<rscale>  0 0.23775071E+04</rscale>
<asrwt>0</asrwt>
<pdfrwt beam="1">  1        2 0.39032505E+00 0.23775071E+04</pdfrwt>
<pdfrwt beam="2">  1       -2 0.85690075E-01 0.23775071E+04</pdfrwt>
<totfact> 0.35295567E+00</totfact>
</mgrwt>
</event>
<event>
12    1  0.1755460E-007  0.1092901E+04  0.7818608E-02  0.9212139E-01
         -2   -1    0    0    0  501 -0.00000000000E+00  0.00000000000E+00  0.55223484155E+03  0.55223484155E+03  0.00000000000E+00 0.  1.
          2   -1    0    0  501    0  0.00000000000E+00 -0.00000000000E+00 -0.54072663851E+03  0.54072663851E+03  0.00000000000E+00 0. -1.
         23    2    1    2    0    0 -0.41378072242E+02 -0.57183014004E+02  0.13960686952E+03  0.18714346198E+03  0.10271589649E+03 0.  0.
        254    2    1    2    0    0  0.41378072242E+02  0.57183014004E+02 -0.12809866649E+03  0.90581801807E+03  0.89393230815E+03 0.  0.
        -24    2    4    4    0    0  0.34065098278E+03  0.10361341163E+03  0.22880783603E+03  0.43052285011E+03  0.78854724025E+02 0.  0.
         24    2    4    4    0    0 -0.29927291054E+03 -0.46430397621E+02 -0.35690650251E+03  0.47529516796E+03  0.82481442422E+02 0.  0.
         13    1    3    3    0    0 -0.12530695957E+02  0.32788009355E+00  0.11889163029E+03  0.11955059849E+03  0.00000000000E+00 0.  1.
        -13    1    3    3    0    0 -0.28847376285E+02 -0.57510894097E+02  0.20715239234E+02  0.67592863491E+02  0.00000000000E+00 0. -1.
          4    1    6    6  502    0 -0.71040889274E+02 -0.47533198278E+02 -0.90308291243E+02  0.12434548787E+03  0.00000000000E+00 0. -1.
          1    1    5    5  503    0  0.23553897634E+02 -0.65120186340E+01  0.27810771293E+00  0.24439104410E+02  0.00000000000E+00 0. -1.
         -2    1    5    5    0  503  0.31709708515E+03  0.11012543026E+03  0.22852972832E+03  0.40608374570E+03  0.00000000000E+00 0.  1.
         -3    1    6    6    0  502 -0.22823202126E+03  0.11028006563E+01 -0.26659821127E+03  0.35094968009E+03  0.00000000000E+00 0.  1.
<mgrwt>
<rscale>  0 0.10929009E+04</rscale>
<asrwt>0</asrwt>
<pdfrwt beam="1">  1        2 0.83188714E-01 0.10929009E+04</pdfrwt>
<pdfrwt beam="2">  1       -2 0.84959206E-01 0.10929009E+04</pdfrwt>
<totfact> 0.67339991E+01</totfact>
</mgrwt>
</event>
<event>
12    1  0.1755460E-007  0.1133121E+04  0.7818608E-02  0.9173498E-01
          2   -1    0    0  501    0  0.00000000000E+00  0.00000000000E+00  0.64945047754E+03  0.64945047754E+03  0.00000000000E+00 0. -1.
         -2   -1    0    0    0  501 -0.00000000000E+00 -0.00000000000E+00 -0.49424966744E+03  0.49424966744E+03  0.00000000000E+00 0.  1.
         23    2    1    2    0    0 -0.48722893787E+02 -0.13449814237E+03  0.17567436538E+03  0.24399518789E+03  0.90600763695E+02 0.  0.
        254    2    1    2    0    0  0.48722893787E+02  0.13449814237E+03 -0.20473555284E+02  0.89970495709E+03  0.88802374555E+03 0.  0.
        -24    2    4    4    0    0  0.22479335196E+03 -0.31090155167E+03 -0.10632493838E+03  0.40629714020E+03  0.81120575041E+02 0.  0.
         24    2    4    4    0    0 -0.17607045817E+03  0.44539969405E+03  0.85851383101E+02  0.49340781689E+03  0.81848152642E+02 0.  0.
         11    1    3    3    0    0 -0.23379001046E+02 -0.12830512701E+03  0.17453732207E+03  0.21788083923E+03  0.00000000000E+00 0. -1.
        -11    1    3    3    0    0 -0.25343892742E+02 -0.61930153613E+01  0.11370433076E+01  0.26114348662E+02  0.00000000000E+00 0.  1.
          4    1    6    6  502    0 -0.17677188003E+03  0.39217956609E+03  0.60354853599E+02  0.43439131895E+03  0.00000000000E+00 0. -1.
          3    1    5    5  503    0  0.11551766320E+03 -0.20729989140E+03 -0.35723165018E+02  0.23998691632E+03  0.00000000000E+00 0. -1.
         -2    1    5    5    0  503  0.10927568876E+03 -0.10360166027E+03 -0.70601773367E+02  0.16631022388E+03  0.00000000000E+00 0.  1.
         -3    1    6    6    0  502  0.70142185795E+00  0.53220127952E+02  0.25496529502E+02  0.59016497935E+02  0.00000000000E+00 0.  1.
<mgrwt>
<rscale>  0 0.11331208E+04</rscale>
<asrwt>0</asrwt>
<pdfrwt beam="1">  1        2 0.99915458E-01 0.11331208E+04</pdfrwt>
<pdfrwt beam="2">  1       -2 0.76038411E-01 0.11331208E+04</pdfrwt>
<totfact> 0.69115075E+01</totfact>
</mgrwt>
</event>
<event>
12    1  0.1755460E-007  0.1965084E+04  0.7818608E-02  0.8623121E-01
          2   -1    0    0  501    0  0.00000000000E+00  0.00000000000E+00  0.17367786187E+04  0.17367786187E+04  0.00000000000E+00 0. -1.
         -2   -1    0    0    0  501 -0.00000000000E+00 -0.00000000000E+00 -0.55585003431E+03  0.55585003431E+03  0.00000000000E+00 0.  1.
         23    2    1    2    0    0  0.31700319044E+03  0.34251580003E+03 -0.18069305070E+03  0.50818972013E+03  0.88310345112E+02 0.  0.
        254    2    1    2    0    0 -0.31700319044E+03 -0.34251580003E+03  0.13616216351E+04  0.17844389329E+04  0.10547040969E+04 0.  0.
        -24    2    4    4    0    0  0.27275321711E+03  0.59438059018E+00  0.29741910394E+02  0.28578649597E+03  0.79966676283E+02 0.  0.
         24    2    4    4    0    0 -0.58975640755E+03 -0.34311018062E+03  0.13318797247E+04  0.14986524369E+04  0.80736047159E+02 0.  0.
         11    1    3    3    0    0  0.28644370444E+03  0.27237936169E+03 -0.17241097715E+03  0.43123782015E+03  0.00000000000E+00 0.  1.
        -11    1    3    3    0    0  0.30559486008E+02  0.70136438344E+02 -0.82820735459E+01  0.76951899982E+02  0.00000000000E+00 0. -1.
          4    1    6    6  502    0 -0.36226602099E+03 -0.23025676299E+03  0.91168342645E+03  0.10076812576E+04  0.00000000000E+00 0. -1.
          3    1    5    5  503    0  0.32162517172E+02  0.41667846337E+01 -0.22616522335E+02  0.39538546857E+02  0.00000000000E+00 0. -1.
         -4    1    5    5    0  503  0.24059069993E+03 -0.35724040436E+01  0.52358432729E+02  0.24624794911E+03  0.00000000000E+00 0.  1.
         -3    1    6    6    0  502 -0.22749038656E+03 -0.11285341763E+03  0.42019629824E+03  0.49097117930E+03  0.00000000000E+00 0.  1.
<mgrwt>
<rscale>  0 0.19650837E+04</rscale>
<asrwt>0</asrwt>
<pdfrwt beam="1">  1        2 0.26719671E+00 0.19650837E+04</pdfrwt>
<pdfrwt beam="2">  1       -2 0.85515391E-01 0.19650837E+04</pdfrwt>
<totfact> 0.10358259E+01</totfact>
</mgrwt>
</event>
<event>
12    1  0.1755460E-007  0.3999913E+04  0.7818608E-02  0.8004564E-01
         -1   -1    0    0    0  501 -0.00000000000E+00  0.00000000000E+00  0.18408211657E+04  0.18408211657E+04  0.00000000000E+00 0.  1.
          1   -1    0    0  501    0  0.00000000000E+00 -0.00000000000E+00 -0.21728488007E+04  0.21728488007E+04  0.00000000000E+00 0. -1.
         23    2    1    2    0    0  0.39977564696E+03  0.11631296264E+04  0.12924685668E+04  0.17864532689E+04  0.90825052230E+02 0.  0.
        254    2    1    2    0    0 -0.39977564696E+03 -0.11631296264E+04 -0.16244962019E+04  0.22272166975E+04  0.89934154355E+03 0.  0.
        -24    2    4    4    0    0 -0.10338479416E+03 -0.71413657790E+03 -0.15041807497E+04  0.16702030902E+04  0.79618886390E+02 0.  0.
         24    2    4    4    0    0 -0.29639085280E+03 -0.44899304851E+03 -0.12031545211E+03  0.55701360727E+03  0.79662133025E+02 0.  0.
         13    1    3    3    0    0  0.37041106401E+02  0.54807348555E+02  0.86047433926E+02  0.10853593831E+03  0.00000000000E+00 0. -1.
        -13    1    3    3    0    0  0.36273454056E+03  0.11083222779E+04  0.12064211329E+04  0.16779173306E+04  0.00000000000E+00 0.  1.
          2    1    6    6  502    0 -0.45777808671E+02 -0.11790484213E+03 -0.74176711426E+01  0.12669720364E+03  0.00000000000E+00 0. -1.
          3    1    5    5  503    0 -0.85014000707E+02 -0.31992549080E+03 -0.66257043456E+03  0.74066138061E+03  0.00000000000E+00 0. -1.
         -4    1    5    5    0  503 -0.18370793455E+02 -0.39421108711E+03 -0.84161031519E+03  0.92954170960E+03  0.00000000000E+00 0.  1.
         -1    1    6    6    0  502 -0.25061304413E+03 -0.33108820638E+03 -0.11289778097E+03  0.43031640364E+03  0.00000000000E+00 0.  1.
<mgrwt>
<rscale>  0 0.39999130E+04</rscale>
<asrwt>0</asrwt>
<pdfrwt beam="1">  1        1 0.33428443E+00 0.39999130E+04</pdfrwt>
<pdfrwt beam="2">  1       -1 0.28320326E+00 0.39999130E+04</pdfrwt>
<totfact> 0.75502727E-02</totfact>
</mgrwt>
</event>
<event>
12    1  0.1755460E-007  0.1441439E+04  0.7818608E-02  0.8924358E-01
         -1   -1    0    0    0  501 -0.00000000000E+00  0.00000000000E+00  0.48157045248E+03  0.48157045248E+03  0.00000000000E+00 0.  1.
          1   -1    0    0  501    0  0.00000000000E+00 -0.00000000000E+00 -0.10786298335E+04  0.10786298335E+04  0.00000000000E+00 0. -1.
         23    2    1    2    0    0  0.33059389354E+02  0.38605611621E+03 -0.38041001401E+03  0.55063343175E+03  0.91395565080E+02 0.  0.
        254    2    1    2    0    0 -0.33059389354E+02 -0.38605611621E+03 -0.21664936696E+03  0.10095668542E+04  0.90672820448E+03 0.  0.
        -24    2    4    4    0    0 -0.28761376529E+02 -0.62437419406E+03 -0.35465120073E+03  0.72312525684E+03  0.80388506104E+02 0.  0.
         24    2    4    4    0    0 -0.42980128257E+01  0.23831807785E+03  0.13800183377E+03  0.28644159735E+03  0.78678481341E+02 0.  0.
         11    1    3    3    0    0  0.55791475936E+02  0.24797902588E+03 -0.28148121082E+03  0.37925975018E+03  0.00000000000E+00 0. -1.
        -11    1    3    3    0    0 -0.22732086582E+02  0.13807709033E+03 -0.98928803194E+02  0.17137368157E+03  0.00000000000E+00 0.  1.
          4    1    6    6  502    0  0.49146097424E+00  0.18109550740E+03  0.62486073889E+02  0.19157331172E+03  0.00000000000E+00 0. -1.
          1    1    5    5  503    0 -0.81921034469E+01 -0.59046834713E+03 -0.33279104455E+03  0.67784206041E+03  0.00000000000E+00 0. -1.
         -2    1    5    5    0  503 -0.20569273082E+02 -0.33905846924E+02 -0.21860156180E+02  0.45283196430E+02  0.00000000000E+00 0.  1.
         -3    1    6    6    0  502 -0.47894737999E+01  0.57222570451E+02  0.75515759880E+02  0.94868285631E+02  0.00000000000E+00 0.  1.
<mgrwt>
<rscale>  0 0.14414385E+04</rscale>
<asrwt>0</asrwt>
<pdfrwt beam="1">  1        1 0.16594305E+00 0.14414385E+04</pdfrwt>
<pdfrwt beam="2">  1       -1 0.74087762E-01 0.14414385E+04</pdfrwt>
<totfact> 0.23463518E+01</totfact>
</mgrwt>
</event>
<event>
12    1  0.1755460E-007  0.1748256E+04  0.7818608E-02  0.8734311E-01
         -2   -1    0    0    0  501 -0.00000000000E+00  0.00000000000E+00  0.59995484388E+03  0.59995484388E+03  0.00000000000E+00 0.  1.
          2   -1    0    0  501    0  0.00000000000E+00 -0.00000000000E+00 -0.12735948566E+04  0.12735948566E+04  0.00000000000E+00 0. -1.
         23    2    1    2    0    0  0.30630777549E+03 -0.35622480957E+03 -0.71833106568E+03  0.86295348420E+03  0.89267170226E+02 0.  0.
        254    2    1    2    0    0 -0.30630777549E+03  0.35622480957E+03  0.44691052976E+02  0.10105962163E+04  0.89363686912E+03 0.  0.
        -24    2    4    4    0    0 -0.76453285529E+02  0.59592745932E+03  0.19618939480E+03  0.63682013024E+03  0.77942016917E+02 0.  0.
         24    2    4    4    0    0 -0.22985448997E+03 -0.23970264975E+03 -0.15149834183E+03  0.37377608603E+03  0.80413730536E+02 0.  0.
         13    1    3    3    0    0  0.28415158627E+00 -0.24201804849E+02 -0.20212061435E+02  0.31533086235E+02  0.00000000000E+00 0.  1.
        -13    1    3    3    0    0  0.30602362391E+03 -0.33202300472E+03 -0.69811900425E+03  0.83142039796E+03  0.00000000000E+00 0. -1.
          2    1    6    6  502    0 -0.51728553339E+02 -0.71969927156E+02 -0.78638881568E+02  0.11848876461E+03  0.00000000000E+00 0. -1.
          1    1    5    5  503    0 -0.56975071624E+00  0.16732421110E+03  0.25394159625E+02  0.16924118760E+03  0.00000000000E+00 0. -1.
         -4    1    5    5    0  503 -0.75883534813E+02  0.42860324823E+03  0.17079523518E+03  0.46757894264E+03  0.00000000000E+00 0.  1.
         -1    1    6    6    0  502 -0.17812593663E+03 -0.16773272260E+03 -0.72859460259E+02  0.25528732142E+03  0.00000000000E+00 0.  1.
<mgrwt>
<rscale>  0 0.17482556E+04</rscale>
<asrwt>0</asrwt>
<pdfrwt beam="1">  1        2 0.19593767E+00 0.17482556E+04</pdfrwt>
<pdfrwt beam="2">  1       -2 0.92300745E-01 0.17482556E+04</pdfrwt>
<totfact> 0.16189103E+01</totfact>
</mgrwt>
</event>
<event>
12    1  0.1755460E-007  0.1572097E+04  0.7818608E-02  0.8837876E-01
         -1   -1    0    0    0  501 -0.00000000000E+00  0.00000000000E+00  0.22958592922E+03  0.22958592922E+03  0.00000000000E+00 0.  1.
          1   -1    0    0  501    0  0.00000000000E+00 -0.00000000000E+00 -0.26912445693E+04  0.26912445693E+04  0.00000000000E+00 0. -1.
         23    2    1    2    0    0  0.45218321854E+03 -0.14278247057E+03 -0.12419464795E+04  0.13324606344E+04  0.90353677880E+02 0.  0.
        254    2    1    2    0    0 -0.45218321854E+03  0.14278247057E+03 -0.12197121606E+04  0.15883698642E+04  0.90020251818E+03 0.  0.
        -24    2    4    4    0    0 -0.91997202852E+02 -0.13684741659E+03  0.85573753009E+02  0.20334123849E+03  0.82668562992E+02 0.  0.
         24    2    4    4    0    0 -0.36018601569E+03  0.27962988716E+03 -0.13052859136E+04  0.13850286257E+04  0.81278152358E+02 0.  0.
         13    1    3    3    0    0  0.28181311192E+03 -0.10970742502E+03 -0.89147009879E+03  0.94136777414E+03  0.00000000000E+00 0. -1.
        -13    1    3    3    0    0  0.17037010662E+03 -0.33075045547E+02 -0.35047638072E+03  0.39109286022E+03  0.00000000000E+00 0.  1.
          4    1    6    6  502    0 -0.23857498800E+03  0.17143848666E+03 -0.94651864911E+03  0.99106343526E+03  0.00000000000E+00 0. -1.
          1    1    5    5  503    0 -0.83989567001E+02 -0.11793900404E+03  0.10194637432E+03  0.17707885045E+03  0.00000000000E+00 0. -1.
         -2    1    5    5    0  503 -0.80076358509E+01 -0.18908412551E+02 -0.16372621312E+02  0.26262388044E+02  0.00000000000E+00 0.  1.
         -3    1    6    6    0  502 -0.12161102769E+03  0.10819140050E+03 -0.35876726450E+03  0.39396519044E+03  0.00000000000E+00 0.  1.
<mgrwt>
<rscale>  0 0.15720965E+04</rscale>
<asrwt>0</asrwt>
<pdfrwt beam="1">  1        1 0.41403764E+00 0.15720965E+04</pdfrwt>
<pdfrwt beam="2">  1       -1 0.35320911E-01 0.15720965E+04</pdfrwt>
<totfact> 0.73313545E+00</totfact>
</mgrwt>
</event>
<event>
12    1  0.1755460E-007  0.1856599E+04  0.7818608E-02  0.8676767E-01
         -2   -1    0    0    0  501 -0.00000000000E+00  0.00000000000E+00  0.77754574252E+03  0.77754574252E+03  0.00000000000E+00 0.  1.
          2   -1    0    0  501    0  0.00000000000E+00 -0.00000000000E+00 -0.11082815976E+04  0.11082815976E+04  0.00000000000E+00 0. -1.
         23    2    1    2    0    0  0.14230421514E+03  0.62709708471E+03 -0.42957070977E+03  0.77802822952E+03  0.85414799218E+02 0.  0.
        254    2    1    2    0    0 -0.14230421514E+03 -0.62709708471E+03  0.98834854710E+02  0.11077991106E+04  0.89663219752E+03 0.  0.
        -24    2    4    4    0    0  0.33022053702E+03 -0.46344301491E+03  0.16320573980E+03  0.59730246841E+03  0.79429806293E+02 0.  0.
         24    2    4    4    0    0 -0.47252475216E+03 -0.16365406981E+03 -0.64370885093E+02  0.51049664219E+03  0.80005717708E+02 0.  0.
         11    1    3    3    0    0  0.13648109656E+03  0.43409102314E+03 -0.31614847310E+03  0.55408660256E+03  0.00000000000E+00 0. -1.
        -11    1    3    3    0    0  0.58231185877E+01  0.19300606157E+03 -0.11342223668E+03  0.22394162696E+03  0.00000000000E+00 0.  1.
          2    1    6    6  502    0 -0.22754583037E+03 -0.12092431883E+03 -0.28736008336E+02  0.25927891156E+03  0.00000000000E+00 0. -1.
          3    1    5    5  503    0  0.12009231138E+03 -0.23341378565E+03  0.61976309358E+02  0.26971322085E+03  0.00000000000E+00 0. -1.
         -4    1    5    5    0  503  0.21012822564E+03 -0.23002922926E+03  0.10122943045E+03  0.32758924756E+03  0.00000000000E+00 0.  1.
         -3    1    6    6    0  502 -0.24497892179E+03 -0.42729750975E+02 -0.35634876757E+02  0.25121773062E+03  0.00000000000E+00 0.  1.
<mgrwt>
<rscale>  0 0.18565987E+04</rscale>
<asrwt>0</asrwt>
<pdfrwt beam="1">  1        2 0.17050486E+00 0.18565987E+04</pdfrwt>
<pdfrwt beam="2">  1       -2 0.11962242E+00 0.18565987E+04</pdfrwt>
<totfact> 0.10830964E+01</totfact>
</mgrwt>
</event>
<event>
12    1  0.1755460E-007  0.2220668E+04  0.7818608E-02  0.8509875E-01
         -2   -1    0    0    0  501 -0.00000000000E+00  0.00000000000E+00  0.85141877500E+03  0.85141877500E+03  0.00000000000E+00 0.  1.
          2   -1    0    0  501    0  0.00000000000E+00 -0.00000000000E+00 -0.14479843600E+04  0.14479843600E+04  0.00000000000E+00 0. -1.
         23    2    1    2    0    0  0.23224387029E+03  0.69227641655E+03 -0.85967746886E+03  0.11316328151E+04  0.91452859845E+02 0.  0.
        254    2    1    2    0    0 -0.23224387029E+03 -0.69227641655E+03  0.26311188383E+03  0.11677703199E+04  0.87251120592E+03 0.  0.
        -24    2    4    4    0    0  0.18842126288E+03 -0.67193835584E+03  0.22063767303E+03  0.73621321864E+03  0.79531089432E+02 0.  0.
         24    2    4    4    0    0 -0.42066513317E+03 -0.20338060718E+02  0.42474210806E+02  0.43155710128E+03  0.84051663274E+02 0.  0.
         11    1    3    3    0    0  0.10333722080E+03  0.42476513066E+03 -0.55030266508E+03  0.70280653143E+03  0.00000000000E+00 0. -1.
        -11    1    3    3    0    0  0.12890664950E+03  0.26751128590E+03 -0.30937480378E+03  0.42882628369E+03  0.00000000000E+00 0.  1.
          4    1    6    6  502    0 -0.38397799673E+03 -0.14154040549E+02  0.13629363441E+02  0.38448042653E+03  0.00000000000E+00 0. -1.
          3    1    5    5  503    0  0.13676487147E+03 -0.57041699206E+03  0.20428275555E+03  0.62113735930E+03  0.00000000000E+00 0. -1.
         -4    1    5    5    0  503  0.51656391416E+02 -0.10152136377E+03  0.16354917473E+02  0.11507585934E+03  0.00000000000E+00 0.  1.
         -3    1    6    6    0  502 -0.36687136441E+02 -0.61840201689E+01  0.28844847365E+02  0.47076674747E+02  0.00000000000E+00 0.  1.
<mgrwt>
<rscale>  0 0.22206675E+04</rscale>
<asrwt>0</asrwt>
<pdfrwt beam="1">  1        2 0.22276682E+00 0.22206675E+04</pdfrwt>
<pdfrwt beam="2">  1       -2 0.13098750E+00 0.22206675E+04</pdfrwt>
<totfact> 0.52826402E+00</totfact>
</mgrwt>
</event>
<event>
12    1  0.1755460E-007  0.1610925E+04  0.7818608E-02  0.8813864E-01
          2   -1    0    0  501    0  0.00000000000E+00  0.00000000000E+00  0.28575809867E+04  0.28575809867E+04  0.00000000000E+00 0. -1.
         -2   -1    0    0    0  501 -0.00000000000E+00 -0.00000000000E+00 -0.22703467062E+03  0.22703467062E+03  0.00000000000E+00 0.  1.
         23    2    1    2    0    0  0.47376531156E+03 -0.20373838939E+03  0.12618501217E+04  0.13662782925E+04  0.92128938850E+02 0.  0.
        254    2    1    2    0    0 -0.47376531156E+03  0.20373838939E+03  0.13686961944E+04  0.17183373648E+04  0.90188199052E+03 0.  0.
        -24    2    4    4    0    0  0.67685493933E+02  0.28807262134E+03  0.81498569497E+02  0.31707634551E+03  0.79550177867E+02 0.  0.
         24    2    4    4    0    0 -0.54145080550E+03 -0.84334231943E+02  0.12871976249E+04  0.14012610193E+04  0.79834084617E+02 0.  0.
         13    1    3    3    0    0  0.49396149081E+02  0.68603413363E+01  0.10808436627E+03  0.11903475988E+03  0.00000000000E+00 0.  1.
        -13    1    3    3    0    0  0.42436916248E+03 -0.21059873073E+03  0.11537657554E+04  0.12472435327E+04  0.00000000000E+00 0. -1.
          4    1    6    6  502    0 -0.26364905405E+02  0.90828455486E+01  0.41073702178E+02  0.49645295154E+02  0.00000000000E+00 0. -1.
          3    1    5    5  503    0  0.28136795259E+02  0.45848619434E+02  0.42519742669E+02  0.68568970154E+02  0.00000000000E+00 0. -1.
         -4    1    5    5    0  503  0.39548698674E+02  0.24222400190E+03  0.38978826828E+02  0.24850737536E+03  0.00000000000E+00 0.  1.
         -3    1    6    6    0  502 -0.51508590009E+03 -0.93417077492E+02  0.12461239227E+04  0.13516157241E+04  0.00000000000E+00 0.  1.
<mgrwt>
<rscale>  0 0.16109251E+04</rscale>
<asrwt>0</asrwt>
<pdfrwt beam="1">  1        2 0.43962782E+00 0.16109251E+04</pdfrwt>
<pdfrwt beam="2">  1       -2 0.34928413E-01 0.16109251E+04</pdfrwt>
<totfact> 0.15791280E+01</totfact>
</mgrwt>
</event>
<event>
12    1  0.1755460E-007  0.2258772E+04  0.7818608E-02  0.8494357E-01
         -1   -1    0    0    0  501 -0.00000000000E+00  0.00000000000E+00  0.53186401001E+03  0.53186401001E+03  0.00000000000E+00 0.  1.
          1   -1    0    0  501    0  0.00000000000E+00 -0.00000000000E+00 -0.23981928189E+04  0.23981928189E+04  0.00000000000E+00 0. -1.
         23    2    1    2    0    0 -0.47238953547E+03  0.60434091137E+03 -0.66579873345E+02  0.77513830340E+03  0.89591849378E+02 0.  0.
        254    2    1    2    0    0  0.47238953547E+03 -0.60434091137E+03 -0.17997489356E+04  0.21549185255E+04  0.90343666645E+03 0.  0.
        -24    2    4    4    0    0  0.70786562224E+02 -0.58452438716E+03 -0.45451278367E+03  0.74868648989E+03  0.85264840612E+02 0.  0.
         24    2    4    4    0    0  0.40160297325E+03 -0.19816524212E+02 -0.13452361519E+04  0.14062320357E+04  0.78425703626E+02 0.  0.
         13    1    3    3    0    0 -0.20352660390E+03  0.20770996706E+03  0.37981917738E+01  0.29082801648E+03  0.00000000000E+00 0.  1.
        -13    1    3    3    0    0 -0.26886293158E+03  0.39663094431E+03 -0.70378065119E+02  0.48431028692E+03  0.00000000000E+00 0. -1.
          4    1    6    6  502    0  0.27098050724E+03  0.10471338574E+02 -0.79846878886E+03  0.84326300228E+03  0.00000000000E+00 0. -1.
          3    1    5    5  503    0  0.66172766748E+02 -0.46206990642E+03 -0.39934491647E+03  0.61429943496E+03  0.00000000000E+00 0. -1.
         -4    1    5    5    0  503  0.46137954766E+01 -0.12245448074E+03 -0.55167867204E+02  0.13438705493E+03  0.00000000000E+00 0.  1.
         -3    1    6    6    0  502  0.13062246601E+03 -0.30287862787E+02 -0.54676736304E+03  0.56296903338E+03  0.00000000000E+00 0.  1.
<mgrwt>
<rscale>  0 0.22587717E+04</rscale>
<asrwt>0</asrwt>
<pdfrwt beam="1">  1        1 0.36895274E+00 0.22587717E+04</pdfrwt>
<pdfrwt beam="2">  1       -1 0.81825232E-01 0.22587717E+04</pdfrwt>
<totfact> 0.21479167E+00</totfact>
</mgrwt>
</event>
<event>
12    1  0.1755460E-007  0.2759660E+04  0.7818608E-02  0.8315903E-01
         -2   -1    0    0    0  501 -0.00000000000E+00  0.00000000000E+00  0.65558264513E+03  0.65558264513E+03  0.00000000000E+00 0.  1.
          2   -1    0    0  501    0  0.00000000000E+00 -0.00000000000E+00 -0.29041819722E+04  0.29041819722E+04  0.00000000000E+00 0. -1.
         23    2    1    2    0    0 -0.74531185821E+03  0.28793427899E+03 -0.22214649497E+04  0.23625400511E+04  0.91066213181E+02 0.  0.
        254    2    1    2    0    0  0.74531185821E+03 -0.28793427899E+03 -0.27134377379E+02  0.11972245663E+04  0.89118711427E+03 0.  0.
        -24    2    4    4    0    0  0.27650375559E+03  0.58592383980E+02  0.38138889659E+03  0.48107415475E+03  0.78022161064E+02 0.  0.
         24    2    4    4    0    0  0.46880810262E+03 -0.34652666297E+03 -0.40852327396E+03  0.71615041152E+03  0.78220082565E+02 0.  0.
         13    1    3    3    0    0 -0.65617827453E+02  0.41585313845E+02 -0.28929516844E+03  0.29954420724E+03  0.00000000000E+00 0.  1.
        -13    1    3    3    0    0 -0.67969403076E+03  0.24634896515E+03 -0.19321697813E+04  0.20629958439E+04  0.00000000000E+00 0. -1.
          4    1    6    6  502    0  0.41265125049E+03 -0.29927419105E+03 -0.32307082354E+03  0.60350712753E+03  0.00000000000E+00 0. -1.
          1    1    5    5  503    0  0.11414750969E+03  0.16258101923E+02  0.21940772225E+03  0.24785828296E+03  0.00000000000E+00 0. -1.
         -2    1    5    5    0  503  0.16235624589E+03  0.42334282056E+02  0.16198117433E+03  0.23321587179E+03  0.00000000000E+00 0.  1.
         -3    1    6    6    0  502  0.56156852132E+02 -0.47252471919E+02 -0.85452450425E+02  0.11264328399E+03  0.00000000000E+00 0.  1.
<mgrwt>
<rscale>  0 0.27596603E+04</rscale>
<asrwt>0</asrwt>
<pdfrwt beam="1">  1        2 0.44679723E+00 0.27596603E+04</pdfrwt>
<pdfrwt beam="2">  1       -2 0.10085887E+00 0.27596603E+04</pdfrwt>
<totfact> 0.14107106E+00</totfact>
</mgrwt>
</event>
<event>
12    1  0.1755460E-007  0.2442277E+04  0.7818608E-02  0.8423843E-01
         -2   -1    0    0    0  501 -0.00000000000E+00  0.00000000000E+00  0.10004777517E+04  0.10004777517E+04  0.00000000000E+00 0.  1.
          2   -1    0    0  501    0  0.00000000000E+00 -0.00000000000E+00 -0.14904667134E+04  0.14904667134E+04  0.00000000000E+00 0. -1.
         23    2    1    2    0    0  0.80384952009E+03  0.30641464974E+03 -0.82962679991E+03  0.11987628859E+04  0.93208588407E+02 0.  0.
        254    2    1    2    0    0 -0.80384952009E+03 -0.30641464974E+03  0.33963783825E+03  0.12921815792E+04  0.90239425082E+03 0.  0.
        -24    2    4    4    0    0 -0.18506970028E+03  0.30250324392E+03  0.20531141525E+02  0.36372526683E+03  0.78201888823E+02 0.  0.
         24    2    4    4    0    0 -0.61877981982E+03 -0.60891789366E+03  0.31910669673E+03  0.92845631236E+03  0.80824336975E+02 0.  0.
         13    1    3    3    0    0  0.22618408902E+02 -0.67266748251E+01 -0.20489718547E+02  0.31251706219E+02  0.00000000000E+00 0.  1.
        -13    1    3    3    0    0  0.78123111119E+03  0.31314132456E+03 -0.80913708136E+03  0.11675111797E+04  0.00000000000E+00 0. -1.
          2    1    6    6  502    0 -0.50891090706E+02 -0.24418874280E+02  0.13051825091E+02  0.57935607984E+02  0.00000000000E+00 0. -1.
          3    1    5    5  503    0 -0.26105470663E+02  0.10922921389E+03  0.15966865619E+02  0.11343481636E+03  0.00000000000E+00 0. -1.
         -4    1    5    5    0  503 -0.15896422962E+03  0.19327403003E+03  0.45642759064E+01  0.25029045047E+03  0.00000000000E+00 0.  1.
         -1    1    6    6    0  502 -0.56788872911E+03 -0.58449901938E+03  0.30605487164E+03  0.87052070438E+03  0.00000000000E+00 0.  1.
<mgrwt>
<rscale>  0 0.24422766E+04</rscale>
<asrwt>0</asrwt>
<pdfrwt beam="1">  1        2 0.22930257E+00 0.24422766E+04</pdfrwt>
<pdfrwt beam="2">  1       -2 0.15391966E+00 0.24422766E+04</pdfrwt>
<totfact> 0.32221003E+00</totfact>
</mgrwt>
</event>
<event>
12    1  0.1755460E-007  0.1896267E+04  0.7818608E-02  0.8656717E-01
         -2   -1    0    0    0  501 -0.00000000000E+00  0.00000000000E+00  0.32620676467E+03  0.32620676467E+03  0.00000000000E+00 0. -1.
          2   -1    0    0  501    0  0.00000000000E+00 -0.00000000000E+00 -0.27557884008E+04  0.27557884008E+04  0.00000000000E+00 0.  1.
         23    2    1    2    0    0  0.70661757081E+03  0.11788676978E+03 -0.12578816999E+04  0.14502774145E+04  0.88501559336E+02 0.  0.
        254    2    1    2    0    0 -0.70661757081E+03 -0.11788676978E+03 -0.11716999362E+04  0.16317177510E+04  0.88114493509E+03 0.  0.
        -24    2    4    4    0    0 -0.73099024711E+03 -0.32442592305E+03 -0.55735928967E+03  0.97832859044E+03  0.82936916795E+02 0.  0.
         24    2    4    4    0    0  0.24372676304E+02  0.20653915327E+03 -0.61434064653E+03  0.65338916058E+03  0.79060204906E+02 0.  0.
         13    1    3    3    0    0  0.11127700822E+03  0.30034927341E+02 -0.26939403927E+03  0.29301504707E+03  0.00000000000E+00 0. -1.
        -13    1    3    3    0    0  0.59534056259E+03  0.87851842435E+02 -0.98848766066E+03  0.11572623674E+04  0.00000000000E+00 0.  1.
          2    1    6    6  502    0  0.53441825074E+02  0.12994994190E+03 -0.38056274020E+03  0.40567353290E+03  0.00000000000E+00 0. -1.
          1    1    5    5  503    0 -0.49277230849E+03 -0.17844448604E+03 -0.34601163600E+03  0.62800560098E+03  0.00000000000E+00 0. -1.
         -2    1    5    5    0  503 -0.23821793862E+03 -0.14598143700E+03 -0.21134765367E+03  0.35032298946E+03  0.00000000000E+00 0.  1.
         -1    1    6    6    0  502 -0.29069148770E+02  0.76589211368E+02 -0.23377790633E+03  0.24771562768E+03  0.00000000000E+00 0.  1.
<mgrwt>
<rscale>  0 0.18962667E+04</rscale>
<asrwt>0</asrwt>
<pdfrwt beam="1">  1        2 0.42396744E+00 0.18962667E+04</pdfrwt>
<pdfrwt beam="2">  1       -2 0.50185657E-01 0.18962667E+04</pdfrwt>
<totfact> 0.86674449E+00</totfact>
</mgrwt>
</event>
<event>
12    1  0.1755460E-007  0.4131379E+04  0.7818608E-02  0.7978555E-01
         -2   -1    0    0    0  501 -0.00000000000E+00  0.00000000000E+00  0.13184261229E+04  0.13184261229E+04  0.00000000000E+00 0.  1.
          2   -1    0    0  501    0  0.00000000000E+00 -0.00000000000E+00 -0.32364908108E+04  0.32364908108E+04  0.00000000000E+00 0. -1.
         23    2    1    2    0    0  0.15059216647E+03  0.19030736638E+04 -0.14228623415E+04  0.23822919366E+04  0.80064087176E+02 0.  0.
        254    2    1    2    0    0 -0.15059216647E+03 -0.19030736638E+04 -0.49520234633E+03  0.21726249971E+04  0.91143109660E+03 0.  0.
        -24    2    4    4    0    0  0.35377433002E+03 -0.10903548025E+04 -0.18336628408E+03  0.11635379947E+04  0.78534063191E+02 0.  0.
         24    2    4    4    0    0 -0.50436649649E+03 -0.81271886130E+03 -0.31183606224E+03  0.10090870024E+04  0.78213415920E+02 0.  0.
         11    1    3    3    0    0  0.10846702438E+03  0.14130793095E+04 -0.10122397105E+04  0.17416048523E+04  0.00000000000E+00 0. -1.
        -11    1    3    3    0    0  0.42125142088E+02  0.48999435428E+03 -0.41062263106E+03  0.64068708428E+03  0.00000000000E+00 0.  1.
          4    1    6    6  502    0 -0.36146316590E+03 -0.62580388504E+03 -0.20897303349E+03  0.75230037323E+03  0.00000000000E+00 0. -1.
          1    1    5    5  503    0  0.27300196761E+03 -0.73942964210E+03 -0.14440122014E+03  0.80133512485E+03  0.00000000000E+00 0. -1.
         -2    1    5    5    0  503  0.80772362413E+02 -0.35092516036E+03 -0.38965063947E+02  0.36220286983E+03  0.00000000000E+00 0.  1.
         -3    1    6    6    0  502 -0.14290333059E+03 -0.18691497626E+03 -0.10286302875E+03  0.25678662918E+03  0.00000000000E+00 0.  1.
<mgrwt>
<rscale>  0 0.41313794E+04</rscale>
<asrwt>0</asrwt>
<pdfrwt beam="1">  1        2 0.49792166E+00 0.41313794E+04</pdfrwt>
<pdfrwt beam="2">  1       -2 0.20283479E+00 0.41313794E+04</pdfrwt>
<totfact> 0.12194209E-01</totfact>
</mgrwt>
</event>
<event>
12    1  0.1755460E-007  0.1481423E+04  0.7818608E-02  0.8896901E-01
         -2   -1    0    0    0  501 -0.00000000000E+00  0.00000000000E+00  0.38394881314E+03  0.38394881314E+03  0.00000000000E+00 0. -1.
          2   -1    0    0  501    0  0.00000000000E+00 -0.00000000000E+00 -0.14289757670E+04  0.14289757670E+04  0.00000000000E+00 0.  1.
         23    2    1    2    0    0  0.45652812791E+03  0.62202915417E+02 -0.25332292944E+03  0.53369959020E+03  0.91518368319E+02 0.  0.
        254    2    1    2    0    0 -0.45652812791E+03 -0.62202915417E+02 -0.79170402446E+03  0.12792249900E+04  0.89293570788E+03 0.  0.
        -24    2    4    4    0    0 -0.37409852849E+03 -0.43503521410E+03 -0.30418785214E+03  0.65476521471E+03  0.83557707456E+02 0.  0.
         24    2    4    4    0    0 -0.82429599412E+02  0.37283229868E+03 -0.48751617232E+03  0.62445977528E+03  0.80494912060E+02 0.  0.
         13    1    3    3    0    0  0.25224028047E+03  0.73302483072E+01 -0.95628780268E+02  0.26985876908E+03  0.00000000000E+00 0. -1.
        -13    1    3    3    0    0  0.20428784744E+03  0.54872667110E+02 -0.15769414918E+03  0.26384082112E+03  0.00000000000E+00 0.  1.
          4    1    6    6  502    0 -0.84860637237E+02  0.30921824476E+03 -0.44261402701E+03  0.54655688409E+03  0.00000000000E+00 0. -1.
          3    1    5    5  503    0 -0.22988765013E+03 -0.31816083374E+03 -0.22939675095E+03  0.45463998632E+03  0.00000000000E+00 0. -1.
         -4    1    5    5    0  503 -0.14421087836E+03 -0.11687438036E+03 -0.74791101190E+02  0.20012522839E+03  0.00000000000E+00 0.  1.
         -3    1    6    6    0  502  0.24310378250E+01  0.63614053926E+02 -0.44902145311E+02  0.77902891187E+02  0.00000000000E+00 0.  1.
<mgrwt>
<rscale>  0 0.14814230E+04</rscale>
<asrwt>0</asrwt>
<pdfrwt beam="1">  1        2 0.21984242E+00 0.14814230E+04</pdfrwt>
<pdfrwt beam="2">  1       -2 0.59069048E-01 0.14814230E+04</pdfrwt>
<totfact> 0.36072528E+01</totfact>
</mgrwt>
</event>
<event>
12    1  0.1755460E-007  0.2062094E+04  0.7818608E-02  0.8578127E-01
          2   -1    0    0  501    0  0.00000000000E+00  0.00000000000E+00  0.20432378034E+04  0.20432378034E+04  0.00000000000E+00 0. -1.
         -2   -1    0    0    0  501 -0.00000000000E+00 -0.00000000000E+00 -0.52028125211E+03  0.52028125211E+03  0.00000000000E+00 0.  1.
         23    2    1    2    0    0 -0.64952336527E+03 -0.14624725738E+03  0.12663111181E+04  0.14338202189E+04  0.95014261930E+02 0.  0.
        254    2    1    2    0    0  0.64952336527E+03  0.14624725738E+03  0.25664543317E+03  0.11296988366E+04  0.87583315803E+03 0.  0.
        -24    2    4    4    0    0  0.56836712793E+03 -0.72390136977E+02 -0.19889036671E+03  0.61177941906E+03  0.80219421412E+02 0.  0.
         24    2    4    4    0    0  0.81156237339E+02  0.21863739436E+03  0.45553579988E+03  0.51791941753E+03  0.79617918903E+02 0.  0.
         13    1    3    3    0    0 -0.64917448418E+03 -0.13725279667E+03  0.12498833916E+04  0.14150881010E+04  0.00000000000E+00 0. -1.
        -13    1    3    3    0    0 -0.34888109067E+00 -0.89944607109E+01  0.16427726502E+02  0.18732117860E+02  0.00000000000E+00 0.  1.
          2    1    6    6  502    0  0.67347244462E+02  0.21389826617E+03  0.44907804922E+03  0.50195539035E+03  0.00000000000E+00 0. -1.
          3    1    5    5  503    0  0.56651253994E+03 -0.65756561731E+02 -0.19133574848E+03  0.60155610874E+03  0.00000000000E+00 0. -1.
         -2    1    5    5    0  503  0.18545879881E+01 -0.66335752462E+01 -0.75546182334E+01  0.10223310315E+02  0.00000000000E+00 0.  1.
         -1    1    6    6    0  502  0.13808992876E+02  0.47391281935E+01  0.64577506566E+01  0.15964027181E+02  0.00000000000E+00 0.  1.
<mgrwt>
<rscale>  0 0.20620944E+04</rscale>
<asrwt>0</asrwt>
<pdfrwt beam="1">  1        2 0.31434427E+00 0.20620944E+04</pdfrwt>
<pdfrwt beam="2">  1       -2 0.80043270E-01 0.20620944E+04</pdfrwt>
<totfact> 0.80660477E+00</totfact>
</mgrwt>
</event>
<event>
12    1  0.1755460E-007  0.2021127E+04  0.7818608E-02  0.8596806E-01
          1   -1    0    0  501    0  0.00000000000E+00  0.00000000000E+00  0.15764793478E+04  0.15764793478E+04  0.00000000000E+00 0. -1.
         -1   -1    0    0    0  501 -0.00000000000E+00 -0.00000000000E+00 -0.64779729843E+03  0.64779729843E+03  0.00000000000E+00 0.  1.
         23    2    1    2    0    0  0.24061980744E+03 -0.30888233994E+03 -0.40866628617E+03  0.57309293165E+03  0.90117607608E+02 0.  0.
        254    2    1    2    0    0 -0.24061980744E+03  0.30888233994E+03  0.13373483356E+04  0.16511837146E+04  0.88577700188E+03 0.  0.
        -24    2    4    4    0    0  0.54801118193E+02  0.13982160608E+03 -0.81991743571E+02  0.18935598435E+03  0.81115958441E+02 0.  0.
         24    2    4    4    0    0 -0.29542092563E+03  0.16906073385E+03  0.14193400791E+04  0.14618277302E+04  0.80987638813E+02 0.  0.
         11    1    3    3    0    0  0.15029210426E+03 -0.22759986295E+03 -0.22867891252E+03  0.35592619916E+03  0.00000000000E+00 0.  1.
        -11    1    3    3    0    0  0.90327703175E+02 -0.81282476984E+02 -0.17998737366E+03  0.21716673249E+03  0.00000000000E+00 0. -1.
          2    1    6    6  502    0 -0.16171546326E+03  0.46733373369E+02  0.65216077157E+03  0.67353512991E+03  0.00000000000E+00 0. -1.
          1    1    5    5  503    0  0.48524752169E+02  0.68703519705E+02 -0.82699804692E+02  0.11795797086E+03  0.00000000000E+00 0. -1.
         -2    1    5    5    0  503  0.62763660236E+01  0.71118086377E+02  0.70806112020E+00  0.71398013495E+02  0.00000000000E+00 0.  1.
         -1    1    6    6    0  502 -0.13370546237E+03  0.12232736049E+03  0.76717930755E+03  0.78829260033E+03  0.00000000000E+00 0.  1.
<mgrwt>
<rscale>  0 0.20211275E+04</rscale>
<asrwt>0</asrwt>
<pdfrwt beam="1">  1        1 0.24253528E+00 0.20211275E+04</pdfrwt>
<pdfrwt beam="2">  1       -1 0.99661124E-01 0.20211275E+04</pdfrwt>
<totfact> 0.51513055E+00</totfact>
</mgrwt>
</event>
<event>
12    1  0.1755460E-007  0.1318643E+04  0.7818608E-02  0.9014911E-01
         -2   -1    0    0    0  501 -0.00000000000E+00  0.00000000000E+00  0.19805110905E+03  0.19805110905E+03  0.00000000000E+00 0.  1.
          2   -1    0    0  501    0  0.00000000000E+00 -0.00000000000E+00 -0.21949115812E+04  0.21949115812E+04  0.00000000000E+00 0. -1.
         23    2    1    2    0    0 -0.10644509023E+03 -0.29013381319E+03 -0.47033676309E+03  0.57052107267E+03  0.93645271355E+02 0.  0.
        254    2    1    2    0    0  0.10644509023E+03  0.29013381319E+03 -0.15265237091E+04  0.18224416176E+04  0.94631423343E+03 0.  0.
        -24    2    4    4    0    0 -0.33798856510E+03 -0.13006132915E+03 -0.45855380702E+03  0.58920303804E+03  0.75739069324E+02 0.  0.
         24    2    4    4    0    0  0.44443365533E+03  0.42019514234E+03 -0.10679699020E+04  0.12332385796E+04  0.78945872550E+02 0.  0.
         11    1    3    3    0    0 -0.71939659150E+02 -0.19708771115E+03 -0.38995185543E+03  0.44281071576E+03  0.00000000000E+00 0. -1.
        -11    1    3    3    0    0 -0.34505431082E+02 -0.93046102043E+02 -0.80384907667E+02  0.12771035690E+03  0.00000000000E+00 0.  1.
          2    1    6    6  502    0  0.34567342124E+03  0.30628545988E+03 -0.74032140205E+03  0.87256900897E+03  0.00000000000E+00 0. -1.
          3    1    5    5  503    0 -0.24888529576E+03 -0.73068021972E+02 -0.36636772099E+03  0.44889657301E+03  0.00000000000E+00 0. -1.
         -4    1    5    5    0  503 -0.89103269331E+02 -0.56993307181E+02 -0.92186086035E+02  0.14030646502E+03  0.00000000000E+00 0.  1.
         -3    1    6    6    0  502  0.98760234091E+02  0.11390968247E+03 -0.32764849999E+03  0.36066957059E+03  0.00000000000E+00 0.  1.
<mgrwt>
<rscale>  0 0.13186427E+04</rscale>
<asrwt>0</asrwt>
<pdfrwt beam="1">  1        2 0.33767869E+00 0.13186427E+04</pdfrwt>
<pdfrwt beam="2">  1       -2 0.30469403E-01 0.13186427E+04</pdfrwt>
<totfact> 0.50784654E+01</totfact>
</mgrwt>
</event>
<event>
12    1  0.1755460E-007  0.1982945E+04  0.7818608E-02  0.8614636E-01
         -2   -1    0    0    0  501 -0.00000000000E+00  0.00000000000E+00  0.21778212656E+03  0.21778212656E+03  0.00000000000E+00 0.  1.
          2   -1    0    0  501    0  0.00000000000E+00 -0.00000000000E+00 -0.45137677739E+04  0.45137677739E+04  0.00000000000E+00 0. -1.
         23    2    1    2    0    0  0.49106960982E+03  0.14075383053E+03 -0.28517294005E+03  0.59188732467E+03  0.89699480870E+02 0.  0.
        254    2    1    2    0    0 -0.49106960982E+03 -0.14075383053E+03 -0.40108127073E+04  0.41396625758E+04  0.88838430087E+03 0.  0.
        -24    2    4    4    0    0 -0.68096022023E+03  0.21490007408E+02 -0.34862040933E+04  0.35530501379E+04  0.79860251331E+02 0.  0.
         24    2    4    4    0    0  0.18989061041E+03 -0.16224383794E+03 -0.52460861398E+03  0.58661243797E+03  0.80736903925E+02 0.  0.
         13    1    3    3    0    0  0.24634266197E+03  0.83300005731E+02 -0.19417979237E+03  0.32454489647E+03  0.00000000000E+00 0. -1.
        -13    1    3    3    0    0  0.24472694786E+03  0.57453824797E+02 -0.90993147677E+02  0.26734242820E+03  0.00000000000E+00 0.  1.
          2    1    6    6  502    0  0.15488328356E+02 -0.56167917583E+02 -0.12318039354E+03  0.13626493545E+03  0.00000000000E+00 0. -1.
          1    1    5    5  503    0 -0.37660757409E+03  0.49110613652E+02 -0.20030959893E+04  0.20387836226E+04  0.00000000000E+00 0. -1.
         -2    1    5    5    0  503 -0.30435264614E+03 -0.27620606243E+02 -0.14831081040E+04  0.15142665153E+04  0.00000000000E+00 0.  1.
         -3    1    6    6    0  502  0.17440228205E+03 -0.10607592035E+03 -0.40142822044E+03  0.45034750253E+03  0.00000000000E+00 0.  1.
<mgrwt>
<rscale>  0 0.19829452E+04</rscale>
<asrwt>0</asrwt>
<pdfrwt beam="1">  1        2 0.69442576E+00 0.19829452E+04</pdfrwt>
<pdfrwt beam="2">  1       -2 0.33504945E-01 0.19829452E+04</pdfrwt>
<totfact> 0.94030463E-01</totfact>
</mgrwt>
</event>
<event>
12    1  0.1755460E-007  0.2475922E+04  0.7818608E-02  0.8411614E-01
         -2   -1    0    0    0  501 -0.00000000000E+00  0.00000000000E+00  0.36148661001E+03  0.36148661001E+03  0.00000000000E+00 0.  1.
          2   -1    0    0  501    0  0.00000000000E+00 -0.00000000000E+00 -0.42395697745E+04  0.42395697745E+04  0.00000000000E+00 0. -1.
         23    2    1    2    0    0  0.54917677676E+03  0.57507669268E+03 -0.30303277221E+04  0.31342780461E+04  0.92219479563E+02 0.  0.
        254    2    1    2    0    0 -0.54917677676E+03 -0.57507669268E+03 -0.84775544237E+03  0.14667783384E+04  0.89467372225E+03 0.  0.
        -24    2    4    4    0    0 -0.43607590546E+02  0.14405089971E+03  0.77958007865E+02  0.18718452171E+03  0.79424873419E+02 0.  0.
         24    2    4    4    0    0 -0.50556918621E+03 -0.71912759239E+03 -0.92571345023E+03  0.12795938167E+04  0.87579949370E+02 0.  0.
         11    1    3    3    0    0  0.50867375867E+03  0.51548517157E+03 -0.26494625960E+04  0.27466572415E+04  0.00000000000E+00 0. -1.
        -11    1    3    3    0    0  0.40503018090E+02  0.59591521114E+02 -0.38086512606E+03  0.38762080454E+03  0.00000000000E+00 0.  1.
          4    1    6    6  502    0 -0.50287334542E+03 -0.71264509544E+03 -0.90145052859E+03  0.12543355568E+04  0.00000000000E+00 0. -1.
          1    1    5    5  503    0  0.82482322914E+01  0.93166923009E+02  0.63658599377E+02  0.11313941026E+03  0.00000000000E+00 0. -1.
         -2    1    5    5    0  503 -0.51855822837E+02  0.50883976703E+02  0.14299408488E+02  0.74045111454E+02  0.00000000000E+00 0.  1.
         -3    1    6    6    0  502 -0.26958407871E+01 -0.64824969532E+01 -0.24262921645E+02  0.25258259858E+02  0.00000000000E+00 0.  1.
<mgrwt>
<rscale>  0 0.24759222E+04</rscale>
<asrwt>0</asrwt>
<pdfrwt beam="1">  1        2 0.65224155E+00 0.24759222E+04</pdfrwt>
<pdfrwt beam="2">  1       -2 0.55613320E-01 0.24759222E+04</pdfrwt>
<totfact> 0.58581654E-01</totfact>
</mgrwt>
</event>
<event>
12    1  0.1755460E-007  0.2586554E+04  0.7818608E-02  0.8372783E-01
         -1   -1    0    0    0  501 -0.00000000000E+00  0.00000000000E+00  0.58192048227E+03  0.58192048227E+03  0.00000000000E+00 0.  1.
          1   -1    0    0  501    0  0.00000000000E+00 -0.00000000000E+00 -0.28742156915E+04  0.28742156915E+04  0.00000000000E+00 0. -1.
         23    2    1    2    0    0  0.88476064866E+03  0.36808260740E+03 -0.19396758203E+03  0.98261523135E+03  0.98097190176E+02 0.  0.
        254    2    1    2    0    0 -0.88476064866E+03 -0.36808260740E+03 -0.20983276272E+04  0.24735209425E+04  0.89277142107E+03 0.  0.
        -24    2    4    4    0    0 -0.78297744343E+03 -0.35924914803E+03 -0.83059536964E+03  0.11993182665E+04  0.79762202661E+02 0.  0.
         24    2    4    4    0    0 -0.10178320523E+03 -0.88334593678E+01 -0.12677322576E+04  0.12742026760E+04  0.77521168937E+02 0.  0.
         13    1    3    3    0    0  0.23044760217E+03  0.73353513367E+02 -0.87234811905E+02  0.25709287753E+03  0.00000000000E+00 0. -1.
        -13    1    3    3    0    0  0.65431304649E+03  0.29472909403E+03 -0.10673277012E+03  0.72552235382E+03  0.00000000000E+00 0.  1.
          2    1    6    6  502    0 -0.61071738549E+02  0.23054853597E+02 -0.43549526803E+03  0.44036054774E+03  0.00000000000E+00 0. -1.
          3    1    5    5  503    0 -0.37361459650E+03 -0.18533814989E+03 -0.34964271282E+03  0.54423168150E+03  0.00000000000E+00 0. -1.
         -4    1    5    5    0  503 -0.40936284693E+03 -0.17391099814E+03 -0.48095265682E+03  0.65508658498E+03  0.00000000000E+00 0.  1.
         -3    1    6    6    0  502 -0.40711466680E+02 -0.31888312965E+02 -0.83223698957E+03  0.83384212825E+03  0.00000000000E+00 0.  1.
<mgrwt>
<rscale>  0 0.25865537E+04</rscale>
<asrwt>0</asrwt>
<pdfrwt beam="1">  1        1 0.44218704E+00 0.25865537E+04</pdfrwt>
<pdfrwt beam="2">  1       -1 0.89526226E-01 0.25865537E+04</pdfrwt>
<totfact> 0.79433751E-01</totfact>
</mgrwt>
</event>
<event>
12    1  0.1755460E-007  0.1955875E+04  0.7818608E-02  0.8627533E-01
          1   -1    0    0  501    0  0.00000000000E+00  0.00000000000E+00  0.27581828130E+04  0.27581828130E+04  0.00000000000E+00 0. -1.
         -1   -1    0    0    0  501 -0.00000000000E+00 -0.00000000000E+00 -0.34673615552E+03  0.34673615552E+03  0.00000000000E+00 0.  1.
         23    2    1    2    0    0 -0.33244219552E+03  0.16156847980E+03  0.20157340487E+04  0.20513724751E+04  0.91230968175E+02 0.  0.
        254    2    1    2    0    0  0.33244219552E+03 -0.16156847980E+03  0.39571260879E+03  0.10535464934E+04  0.90374197535E+03 0.  0.
        -24    2    4    4    0    0 -0.13420443983E+03 -0.17074680953E+03  0.51568008528E+03  0.56521103514E+03  0.79826432052E+02 0.  0.
         24    2    4    4    0    0  0.46664663535E+03  0.91783297286E+01 -0.11996747648E+03  0.48833545828E+03  0.78968350487E+02 0.  0.
         13    1    3    3    0    0 -0.23075683439E+03  0.86789818795E+02  0.11218080218E+04  0.11485793081E+04  0.00000000000E+00 0.  1.
        -13    1    3    3    0    0 -0.10168536113E+03  0.74778661003E+02  0.89392602690E+03  0.90279316700E+03  0.00000000000E+00 0. -1.
          4    1    6    6  502    0  0.11406585333E+03  0.16037122068E+02  0.19609323587E+01  0.11520439851E+03  0.00000000000E+00 0. -1.
          1    1    5    5  503    0 -0.68023199863E+02 -0.34434348795E+02  0.12822950904E+03  0.14918340084E+03  0.00000000000E+00 0. -1.
         -4    1    5    5    0  503 -0.66181239970E+02 -0.13631246073E+03  0.38745057624E+03  0.41602763430E+03  0.00000000000E+00 0.  1.
         -3    1    6    6    0  502  0.35258078202E+03 -0.68587923398E+01 -0.12192840884E+03  0.37313105977E+03  0.00000000000E+00 0.  1.
<mgrwt>
<rscale>  0 0.19558749E+04</rscale>
<asrwt>0</asrwt>
<pdfrwt beam="1">  1        1 0.42433580E+00 0.19558749E+04</pdfrwt>
<pdfrwt beam="2">  1       -1 0.53344026E-01 0.19558749E+04</pdfrwt>
<totfact> 0.29499270E+00</totfact>
</mgrwt>
</event>
<event>
12    1  0.1755460E-007  0.1742235E+04  0.7818608E-02  0.8737636E-01
          2   -1    0    0  501    0  0.00000000000E+00  0.00000000000E+00  0.22812485817E+04  0.22812485817E+04  0.00000000000E+00 0. -1.
         -2   -1    0    0    0  501 -0.00000000000E+00 -0.00000000000E+00 -0.33264477184E+03  0.33264477184E+03  0.00000000000E+00 0.  1.
         23    2    1    2    0    0  0.61192676433E+03  0.15217892770E+03  0.56513625769E+03  0.85157585313E+03  0.90496701229E+02 0.  0.
        254    2    1    2    0    0 -0.61192676433E+03 -0.15217892770E+03  0.13834675521E+04  0.17623175004E+04  0.89116087961E+03 0.  0.
        -24    2    4    4    0    0 -0.13051675259E+03  0.34556445710E+03  0.64283741845E+03  0.74518868997E+03  0.74945449335E+02 0.  0.
         24    2    4    4    0    0 -0.48141001174E+03 -0.49774338481E+03  0.74063013368E+03  0.10171288104E+04  0.80709017458E+02 0.  0.
         13    1    3    3    0    0  0.27865248751E+03  0.63013876810E+02  0.31619374693E+03  0.42614134165E+03  0.00000000000E+00 0. -1.
        -13    1    3    3    0    0  0.33327427683E+03  0.89165050894E+02  0.24894251076E+03  0.42543451148E+03  0.00000000000E+00 0.  1.
          2    1    6    6  502    0 -0.23331766055E+03 -0.18713486393E+03  0.33770208860E+03  0.45110895432E+03  0.00000000000E+00 0. -1.
          1    1    5    5  503    0 -0.26331522679E+02  0.14192303846E+03  0.19856451738E+03  0.24548597820E+03  0.00000000000E+00 0. -1.
         -4    1    5    5    0  503 -0.10418522991E+03  0.20364141864E+03  0.44427290107E+03  0.49970271177E+03  0.00000000000E+00 0.  1.
         -1    1    6    6    0  502 -0.24809235120E+03 -0.31060852088E+03  0.40292804508E+03  0.56601985608E+03  0.00000000000E+00 0.  1.
<mgrwt>
<rscale>  0 0.17422347E+04</rscale>
<asrwt>0</asrwt>
<pdfrwt beam="1">  1        2 0.35096131E+00 0.17422347E+04</pdfrwt>
<pdfrwt beam="2">  1       -2 0.51176120E-01 0.17422347E+04</pdfrwt>
<totfact> 0.15909337E+01</totfact>
</mgrwt>
</event>
<event>
12    1  0.1755460E-007  0.2029237E+04  0.7818608E-02  0.8593072E-01
          2   -1    0    0  501    0  0.00000000000E+00  0.00000000000E+00  0.84344903329E+03  0.84344903329E+03  0.00000000000E+00 0. -1.
         -2   -1    0    0    0  501 -0.00000000000E+00 -0.00000000000E+00 -0.12205251427E+04  0.12205251427E+04  0.00000000000E+00 0.  1.
         23    2    1    2    0    0  0.35053612160E+03 -0.42479673962E+03  0.45741981997E+03  0.72182400183E+03  0.92028014085E+02 0.  0.
        254    2    1    2    0    0 -0.35053612160E+03  0.42479673962E+03 -0.83449592937E+03  0.13421501742E+04  0.89535232803E+03 0.  0.
        -24    2    4    4    0    0  0.11628636327E+03  0.36240777983E+03 -0.10795566561E+02  0.38922312014E+03  0.80722833406E+02 0.  0.
         24    2    4    4    0    0 -0.46682248487E+03  0.62388959796E+02 -0.82370036281E+03  0.95292705401E+03  0.88159332428E+02 0.  0.
         13    1    3    3    0    0  0.33140977615E+02 -0.94205664908E+02  0.89946230479E+02  0.13439998540E+03  0.00000000000E+00 0.  1.
        -13    1    3    3    0    0  0.31739514398E+03 -0.33059107471E+03  0.36747358949E+03  0.58742401643E+03  0.00000000000E+00 0. -1.
          4    1    6    6  502    0 -0.21884090347E+02  0.21223605468E+02 -0.34759745072E+02  0.46234129351E+02  0.00000000000E+00 0. -1.
          3    1    5    5  503    0  0.28750220191E+02  0.31655800103E+02  0.16862568099E+02  0.45967499868E+02  0.00000000000E+00 0. -1.
         -4    1    5    5    0  503  0.87536143082E+02  0.33075197972E+03 -0.27658134660E+02  0.34325562027E+03  0.00000000000E+00 0.  1.
         -3    1    6    6    0  502 -0.44493839452E+03  0.41165354329E+02 -0.78894061774E+03  0.90669292466E+03  0.00000000000E+00 0.  1.
<mgrwt>
<rscale>  0 0.20292371E+04</rscale>
<asrwt>0</asrwt>
<pdfrwt beam="1">  1        2 0.12976139E+00 0.20292371E+04</pdfrwt>
<pdfrwt beam="2">  1       -2 0.18777310E+00 0.20292371E+04</pdfrwt>
<totfact> 0.47679805E+00</totfact>
</mgrwt>
</event>
<event>
12    1  0.1755460E-007  0.1214652E+04  0.7818608E-02  0.9100128E-01
          2   -1    0    0  501    0  0.00000000000E+00  0.00000000000E+00  0.20962694963E+04  0.20962694963E+04  0.00000000000E+00 0.  1.
         -2   -1    0    0    0  501 -0.00000000000E+00 -0.00000000000E+00 -0.17595294799E+03  0.17595294799E+03  0.00000000000E+00 0. -1.
         23    2    1    2    0    0  0.55228171123E+02  0.22400462163E+03  0.24925386272E+03  0.35004185048E+03  0.84697034256E+02 0.  0.
        254    2    1    2    0    0 -0.55228171123E+02 -0.22400462163E+03  0.16710626856E+04  0.19221805938E+04  0.92146595957E+03 0.  0.
        -24    2    4    4    0    0  0.99822059487E+02  0.29201729134E+03  0.26709578120E+03  0.41602531411E+03  0.80612428572E+02 0.  0.
         24    2    4    4    0    0 -0.15505023061E+03 -0.51602191297E+03  0.14039669044E+04  0.15061552797E+04  0.84032548852E+02 0.  0.
         13    1    3    3    0    0 -0.15098727970E+02  0.38146520919E+02  0.17083989287E+02  0.44440874592E+02  0.00000000000E+00 0.  1.
        -13    1    3    3    0    0  0.70326899093E+02  0.18585810071E+03  0.23216987343E+03  0.30560097589E+03  0.00000000000E+00 0. -1.
          2    1    6    6  502    0 -0.22367711375E+01 -0.61859889558E+02  0.10863845911E+03  0.12503585037E+03  0.00000000000E+00 0. -1.
          1    1    5    5  503    0  0.72378591757E+02  0.11362745796E+03  0.14609490219E+03  0.19872991771E+03  0.00000000000E+00 0. -1.
         -2    1    5    5    0  503  0.27443467730E+02  0.17838983338E+03  0.12100087902E+03  0.21729539640E+03  0.00000000000E+00 0.  1.
         -1    1    6    6    0  502 -0.15281345947E+03 -0.45416202342E+03  0.12953284453E+04  0.13811194293E+04  0.00000000000E+00 0.  1.
<mgrwt>
<rscale>  0 0.12146519E+04</rscale>
<asrwt>0</asrwt>
<pdfrwt beam="1">  1        2 0.32250298E+00 0.12146519E+04</pdfrwt>
<pdfrwt beam="2">  1       -2 0.27069686E-01 0.12146519E+04</pdfrwt>
<totfact> 0.72349907E+01</totfact>
</mgrwt>
</event>
<event>
12    1  0.1755460E-007  0.1910582E+04  0.7818608E-02  0.8649607E-01
          2   -1    0    0  501    0  0.00000000000E+00  0.00000000000E+00  0.11238971958E+04  0.11238971958E+04  0.00000000000E+00 0. -1.
         -2   -1    0    0    0  501 -0.00000000000E+00 -0.00000000000E+00 -0.81197928289E+03  0.81197928289E+03  0.00000000000E+00 0.  1.
         23    2    1    2    0    0  0.13814942875E+03  0.51529592184E+03 -0.39807376179E+03  0.67193347859E+03  0.91742727776E+02 0.  0.
        254    2    1    2    0    0 -0.13814942875E+03 -0.51529592184E+03  0.70999167469E+03  0.12639430001E+04  0.89936009341E+03 0.  0.
        -24    2    4    4    0    0 -0.98766897853E+02 -0.62933169408E+03  0.11600733560E+03  0.65251717178E+03  0.80670169617E+02 0.  0.
         24    2    4    4    0    0 -0.39382530898E+02  0.11403577224E+03  0.59398433909E+03  0.61142582831E+03  0.80430139586E+02 0.  0.
         13    1    3    3    0    0 -0.11608361193E+02  0.32886013737E+02 -0.38213327654E+02  0.51734923983E+02  0.00000000000E+00 0. -1.
        -13    1    3    3    0    0  0.14975778994E+03  0.48240990810E+03 -0.35986043413E+03  0.62019855461E+03  0.00000000000E+00 0.  1.
          4    1    6    6  502    0 -0.23023333104E+02 -0.39767701626E+01  0.61818466421E+02  0.66086393144E+02  0.00000000000E+00 0. -1.
          1    1    5    5  503    0 -0.51568853019E+02 -0.17833991597E+03  0.51942940226E+01  0.18571874682E+03  0.00000000000E+00 0. -1.
         -2    1    5    5    0  503 -0.47198044834E+02 -0.45099177811E+03  0.11081304158E+03  0.46679842496E+03  0.00000000000E+00 0.  1.
         -1    1    6    6    0  502 -0.16359197794E+02  0.11801254241E+03  0.53216587267E+03  0.54533943517E+03  0.00000000000E+00 0.  1.
<mgrwt>
<rscale>  0 0.19105824E+04</rscale>
<asrwt>0</asrwt>
<pdfrwt beam="1">  1        2 0.17290726E+00 0.19105824E+04</pdfrwt>
<pdfrwt beam="2">  1       -2 0.12491989E+00 0.19105824E+04</pdfrwt>
<totfact> 0.94659843E+00</totfact>
</mgrwt>
</event>
<event>
12    1  0.1755460E-007  0.1159503E+04  0.7818608E-02  0.9149061E-01
          1   -1    0    0  501    0  0.00000000000E+00  0.00000000000E+00  0.45715608763E+03  0.45715608763E+03  0.00000000000E+00 0. -1.
         -1   -1    0    0    0  501 -0.00000000000E+00 -0.00000000000E+00 -0.73522279296E+03  0.73522279296E+03  0.00000000000E+00 0.  1.
         23    2    1    2    0    0 -0.84668898626E+02 -0.14776497323E+03  0.73169763624E+02  0.20754921239E+03  0.93378539007E+02 0.  0.
        254    2    1    2    0    0  0.84668898626E+02  0.14776497323E+03 -0.35123646896E+03  0.98482966820E+03  0.90416763298E+03 0.  0.
        -24    2    4    4    0    0 -0.12780742697E+03  0.48361629254E+03 -0.25413740476E+03  0.56672329266E+03  0.79812362139E+02 0.  0.
         24    2    4    4    0    0  0.21247632559E+03 -0.33585131931E+03 -0.97099064201E+02  0.41810637554E+03  0.86269434793E+02 0.  0.
         11    1    3    3    0    0 -0.82039922216E+01 -0.88243255090E+02  0.44134782757E+01  0.88733625800E+02  0.00000000000E+00 0.  1.
        -11    1    3    3    0    0 -0.76464906404E+02 -0.59521718139E+02  0.68756285348E+02  0.11881558659E+03  0.00000000000E+00 0. -1.
          2    1    6    6  502    0  0.93533747582E+02 -0.10020295942E+03 -0.66564658857E+02  0.15238126139E+03  0.00000000000E+00 0. -1.
          3    1    5    5  503    0  0.99838011063E+01  0.62429418060E+02 -0.26929536522E+02  0.68719054571E+02  0.00000000000E+00 0. -1.
         -4    1    5    5    0  503 -0.13779122807E+03  0.42118687448E+03 -0.22720786824E+03  0.49800423809E+03  0.00000000000E+00 0.  1.
         -1    1    6    6    0  502  0.11894257801E+03 -0.23564835988E+03 -0.30534405344E+02  0.26572511415E+03  0.00000000000E+00 0.  1.
<mgrwt>
<rscale>  0 0.11595026E+04</rscale>
<asrwt>0</asrwt>
<pdfrwt beam="1">  1        1 0.70331706E-01 0.11595026E+04</pdfrwt>
<pdfrwt beam="2">  1       -1 0.11311120E+00 0.11595026E+04</pdfrwt>
<totfact> 0.35542711E+01</totfact>
</mgrwt>
</event>
<event>
12    1  0.1755460E-007  0.2166858E+04  0.7818608E-02  0.8532350E-01
          2   -1    0    0  501    0  0.00000000000E+00  0.00000000000E+00  0.58141001996E+03  0.58141001996E+03  0.00000000000E+00 0. -1.
         -2   -1    0    0    0  501 -0.00000000000E+00 -0.00000000000E+00 -0.20189168327E+04  0.20189168327E+04  0.00000000000E+00 0.  1.
         23    2    1    2    0    0  0.75393169628E+03  0.43063209955E+03 -0.84286184121E+03  0.12134421636E+04  0.90381377163E+02 0.  0.
        254    2    1    2    0    0 -0.75393169628E+03 -0.43063209955E+03 -0.59464497153E+03  0.13868846890E+04  0.90332136618E+03 0.  0.
        -24    2    4    4    0    0  0.13239895230E+02  0.22606643820E+03 -0.12789561122E+03  0.27189104144E+03  0.79285066305E+02 0.  0.
         24    2    4    4    0    0 -0.76717159151E+03 -0.65669853775E+03 -0.46674936031E+03  0.11149936476E+04  0.74502674188E+02 0.  0.
         11    1    3    3    0    0  0.66644384346E+03  0.38578771627E+03 -0.78365670014E+03  0.10986798361E+04  0.00000000000E+00 0.  1.
        -11    1    3    3    0    0  0.87487852812E+02  0.44844383289E+02 -0.59205141068E+02  0.11476232758E+03  0.00000000000E+00 0. -1.
          4    1    6    6  502    0 -0.17908109139E+03 -0.19554490786E+03 -0.11519924217E+03  0.28909983341E+03  0.00000000000E+00 0. -1.
          1    1    5    5  503    0  0.10665198326E+02  0.18906760581E+02 -0.42662879524E+02  0.47867873780E+02  0.00000000000E+00 0. -1.
         -2    1    5    5    0  503  0.25746969042E+01  0.20715967762E+03 -0.85232731701E+02  0.22402316766E+03  0.00000000000E+00 0.  1.
         -3    1    6    6    0  502 -0.58809050012E+03 -0.46115362989E+03 -0.35155011814E+03  0.82589381415E+03  0.00000000000E+00 0.  1.
<mgrwt>
<rscale>  0 0.21668581E+04</rscale>
<asrwt>0</asrwt>
<pdfrwt beam="1">  1        2 0.89447696E-01 0.21668581E+04</pdfrwt>
<pdfrwt beam="2">  1       -2 0.31060259E+00 0.21668581E+04</pdfrwt>
<totfact> 0.12929759E+00</totfact>
</mgrwt>
</event>
<event>
12    1  0.1755460E-007  0.1699284E+04  0.7818608E-02  0.8761773E-01
          1   -1    0    0  501    0  0.00000000000E+00  0.00000000000E+00  0.19600796604E+04  0.19600796604E+04  0.00000000000E+00 0. -1.
         -1   -1    0    0    0  501 -0.00000000000E+00 -0.00000000000E+00 -0.36829684260E+03  0.36829684260E+03  0.00000000000E+00 0.  1.
         23    2    1    2    0    0 -0.35678556218E+03 -0.31595664746E+03  0.61724532700E+02  0.49030884957E+03  0.97305239200E+02 0.  0.
        254    2    1    2    0    0  0.35678556218E+03  0.31595664746E+03  0.15300582851E+04  0.18380676535E+04  0.90016098689E+03 0.  0.
        -24    2    4    4    0    0  0.34780953471E+03  0.51068468560E+03  0.15009395959E+04  0.16250497784E+04  0.78719698753E+02 0.  0.
         24    2    4    4    0    0  0.89760274718E+01 -0.19472803814E+03  0.29118689221E+02  0.21301787511E+03  0.80803088744E+02 0.  0.
         11    1    3    3    0    0 -0.24256237336E+03 -0.16024116986E+03  0.12325291560E+02  0.29097362475E+03  0.00000000000E+00 0.  1.
        -11    1    3    3    0    0 -0.11422318882E+03 -0.15571547760E+03  0.49399241141E+02  0.19933522482E+03  0.00000000000E+00 0. -1.
          2    1    6    6  502    0  0.21392827685E+02 -0.17003302200E+03  0.49838316066E+02  0.17847335766E+03  0.00000000000E+00 0. -1.
          1    1    5    5  503    0  0.28818311888E+03  0.36704243840E+03  0.10919027860E+04  0.11874432010E+04  0.00000000000E+00 0. -1.
         -4    1    5    5    0  503  0.59626415830E+02  0.14364224720E+03  0.40903680992E+03  0.43760657732E+03  0.00000000000E+00 0.  1.
         -1    1    6    6    0  502 -0.12416800213E+02 -0.24695016139E+02 -0.20719626845E+02  0.34544517455E+02  0.00000000000E+00 0.  1.
<mgrwt>
<rscale>  0 0.16992836E+04</rscale>
<asrwt>0</asrwt>
<pdfrwt beam="1">  1        1 0.30155071E+00 0.16992836E+04</pdfrwt>
<pdfrwt beam="2">  1       -1 0.56661054E-01 0.16992836E+04</pdfrwt>
<totfact> 0.95188248E+00</totfact>
</mgrwt>
</event>
<event>
12    1  0.1755460E-007  0.1677139E+04  0.7818608E-02  0.8774511E-01
         -2   -1    0    0    0  501 -0.00000000000E+00  0.00000000000E+00  0.67809683184E+03  0.67809683184E+03  0.00000000000E+00 0.  1.
          2   -1    0    0  501    0  0.00000000000E+00 -0.00000000000E+00 -0.10370185936E+04  0.10370185936E+04  0.00000000000E+00 0. -1.
         23    2    1    2    0    0 -0.19906183558E+03  0.54351395984E+03 -0.24275057903E+03  0.63391468833E+03  0.88808499235E+02 0.  0.
        254    2    1    2    0    0  0.19906183558E+03 -0.54351395984E+03 -0.11617118277E+03  0.10812007371E+04  0.90579592149E+03 0.  0.
        -24    2    4    4    0    0  0.10283200395E+03  0.15136118423E+03 -0.29225611059E+03  0.35400605702E+03  0.80137538687E+02 0.  0.
         24    2    4    4    0    0  0.96229831631E+02 -0.69487514407E+03  0.17608492782E+03  0.72719468013E+03  0.75462273124E+02 0.  0.
         13    1    3    3    0    0 -0.78696663825E+02  0.16097740573E+03 -0.36133293152E+02  0.18279087758E+03  0.00000000000E+00 0. -1.
        -13    1    3    3    0    0 -0.12036517176E+03  0.38253655411E+03 -0.20661728588E+03  0.45112381075E+03  0.00000000000E+00 0.  1.
          4    1    6    6  502    0  0.30772471128E+02 -0.46056902981E+03  0.10007980874E+03  0.47232059484E+03  0.00000000000E+00 0. -1.
          3    1    5    5  503    0  0.10660981993E+03  0.99478202715E+02 -0.19238703775E+03  0.24140078462E+03  0.00000000000E+00 0. -1.
         -4    1    5    5    0  503 -0.37778159752E+01  0.51882981510E+02 -0.99869072835E+02  0.11260527240E+03  0.00000000000E+00 0.  1.
         -3    1    6    6    0  502  0.65457360502E+02 -0.23430611426E+03  0.76005119076E+02  0.25487408528E+03  0.00000000000E+00 0.  1.
<mgrwt>
<rscale>  0 0.16771393E+04</rscale>
<asrwt>0</asrwt>
<pdfrwt beam="1">  1        2 0.15954132E+00 0.16771393E+04</pdfrwt>
<pdfrwt beam="2">  1       -2 0.10432259E+00 0.16771393E+04</pdfrwt>
<totfact> 0.16979929E+01</totfact>
</mgrwt>
</event>
<event>
12    1  0.1755460E-007  0.1665695E+04  0.7818608E-02  0.8781175E-01
         -2   -1    0    0    0  501 -0.00000000000E+00  0.00000000000E+00  0.23283836690E+03  0.23283836690E+03  0.00000000000E+00 0.  1.
          2   -1    0    0  501    0  0.00000000000E+00 -0.00000000000E+00 -0.29790397578E+04  0.29790397578E+04  0.00000000000E+00 0. -1.
         23    2    1    2    0    0 -0.23210527317E+03  0.22640407218E+03 -0.19108108174E+04  0.19402975968E+04  0.91788466286E+02 0.  0.
        254    2    1    2    0    0  0.23210527317E+03 -0.22640407218E+03 -0.83539057348E+03  0.12715805279E+04  0.90216848033E+03 0.  0.
        -24    2    4    4    0    0  0.44039166654E+03  0.18548684857E+03 -0.49375734220E+03  0.69177724058E+03  0.80057770826E+02 0.  0.
         24    2    4    4    0    0 -0.20828639336E+03 -0.41189092075E+03 -0.34163323128E+03  0.57980328730E+03  0.80132608789E+02 0.  0.
         13    1    3    3    0    0  0.54138344307E+01  0.21817282983E+02 -0.17090426459E+03  0.17237624864E+03  0.00000000000E+00 0.  1.
        -13    1    3    3    0    0 -0.23751910760E+03  0.20458678920E+03 -0.17399065529E+04  0.17679213482E+04  0.00000000000E+00 0. -1.
          2    1    6    6  502    0 -0.21305789437E+03 -0.41082724420E+03 -0.33395208925E+03  0.57069842197E+03  0.00000000000E+00 0. -1.
          1    1    5    5  503    0  0.30943891676E+03  0.95686939992E+02 -0.35899546146E+03  0.48351440003E+03  0.00000000000E+00 0. -1.
         -2    1    5    5    0  503  0.13095274978E+03  0.89799908575E+02 -0.13476188073E+03  0.20826284055E+03  0.00000000000E+00 0.  1.
         -1    1    6    6    0  502  0.47715010036E+01 -0.10636765461E+01 -0.76811420365E+01  0.91048653262E+01  0.00000000000E+00 0.  1.
<mgrwt>
<rscale>  0 0.16656948E+04</rscale>
<asrwt>0</asrwt>
<pdfrwt beam="1">  1        2 0.45831379E+00 0.16656948E+04</pdfrwt>
<pdfrwt beam="2">  1       -2 0.35821288E-01 0.16656948E+04</pdfrwt>
<totfact> 0.12608939E+01</totfact>
</mgrwt>
</event>
<event>
12    1  0.1755460E-007  0.2055980E+04  0.7818608E-02  0.8580886E-01
          2   -1    0    0  501    0  0.00000000000E+00  0.00000000000E+00  0.31670302318E+04  0.31670302318E+04  0.00000000000E+00 0. -1.
         -2   -1    0    0    0  501 -0.00000000000E+00 -0.00000000000E+00 -0.33367656692E+03  0.33367656692E+03  0.00000000000E+00 0.  1.
         23    2    1    2    0    0  0.32790673858E+02  0.29685701798E+03  0.24574231673E+04  0.24772381105E+04  0.92632152465E+02 0.  0.
        254    2    1    2    0    0 -0.32790673858E+02 -0.29685701798E+03  0.37593049762E+03  0.10234686882E+04  0.90386121684E+03 0.  0.
        -24    2    4    4    0    0 -0.15583215014E+03 -0.55971915061E+03  0.63803102276E+02  0.59015551492E+03  0.81507725752E+02 0.  0.
         24    2    4    4    0    0  0.12304147628E+03  0.26286213263E+03  0.31212739535E+03  0.43331317330E+03  0.78109471708E+02 0.  0.
         13    1    3    3    0    0  0.58939320010E+02  0.23467371565E+03  0.20556614141E+04  0.20698525178E+04  0.00000000000E+00 0. -1.
        -13    1    3    3    0    0 -0.26148646152E+02  0.62183302331E+02  0.40176175322E+03  0.40738559269E+03  0.00000000000E+00 0.  1.
          4    1    6    6  502    0  0.49908869232E+02  0.18500005673E+03  0.17510648324E+03  0.25957310471E+03  0.00000000000E+00 0. -1.
          3    1    5    5  503    0 -0.14852456547E+03 -0.55301659727E+03  0.72218146014E+02  0.57715020923E+03  0.00000000000E+00 0. -1.
         -4    1    5    5    0  503 -0.73075846732E+01 -0.67025533435E+01 -0.84150437383E+01  0.13005305694E+02  0.00000000000E+00 0.  1.
         -3    1    6    6    0  502  0.73132607049E+02  0.77862075905E+02  0.13702091210E+03  0.17374006858E+03  0.00000000000E+00 0.  1.
<mgrwt>
<rscale>  0 0.20559803E+04</rscale>
<asrwt>0</asrwt>
<pdfrwt beam="1">  1        2 0.48723540E+00 0.20559803E+04</pdfrwt>
<pdfrwt beam="2">  1       -2 0.51334859E-01 0.20559803E+04</pdfrwt>
<totfact> 0.45309150E+00</totfact>
</mgrwt>
</event>
<event>
12    1  0.1755460E-007  0.2048095E+04  0.7818608E-02  0.8584459E-01
          2   -1    0    0  501    0  0.00000000000E+00  0.00000000000E+00  0.21205610737E+04  0.21205610737E+04  0.00000000000E+00 0.  1.
         -2   -1    0    0    0  501 -0.00000000000E+00 -0.00000000000E+00 -0.49452639691E+03  0.49452639691E+03  0.00000000000E+00 0. -1.
         23    2    1    2    0    0  0.60510579408E+03  0.38940043158E+03  0.16641866864E+03  0.74418775453E+03  0.91293606489E+02 0.  0.
        254    2    1    2    0    0 -0.60510579408E+03 -0.38940043158E+03  0.14596160082E+04  0.18708997161E+04  0.92303907731E+03 0.  0.
        -24    2    4    4    0    0  0.64047154831E+02 -0.19509460656E+03 -0.31365239342E+02  0.22322388758E+03  0.81738498852E+02 0.  0.
         24    2    4    4    0    0 -0.66915294891E+03 -0.19430582502E+03  0.14909812475E+04  0.16476758285E+04  0.79310357457E+02 0.  0.
         11    1    3    3    0    0  0.35830716917E+03  0.27637702569E+03  0.12616054028E+03  0.46977097583E+03  0.00000000000E+00 0. -1.
        -11    1    3    3    0    0  0.24679862491E+03  0.11302340589E+03  0.40258128361E+02  0.27441677871E+03  0.00000000000E+00 0.  1.
          4    1    6    6  502    0 -0.11818805700E+03 -0.56946932045E+02  0.23099882564E+03  0.26565358521E+03  0.00000000000E+00 0. -1.
          3    1    5    5  503    0 -0.18094692889E+02 -0.22798677533E+02  0.30689595433E+01  0.29268005069E+02  0.00000000000E+00 0. -1.
         -4    1    5    5    0  503  0.82141847720E+02 -0.17229592903E+03 -0.34434198886E+02  0.19395588251E+03  0.00000000000E+00 0.  1.
         -3    1    6    6    0  502 -0.55096489191E+03 -0.13735889297E+03  0.12599824218E+04  0.13820222433E+04  0.00000000000E+00 0.  1.
<mgrwt>
<rscale>  0 0.20480951E+04</rscale>
<asrwt>0</asrwt>
<pdfrwt beam="1">  1        2 0.32624016E+00 0.20480951E+04</pdfrwt>
<pdfrwt beam="2">  1       -2 0.76080985E-01 0.20480951E+04</pdfrwt>
<totfact> 0.81908444E+00</totfact>
</mgrwt>
</event>
<event>
12    1  0.1755460E-007  0.1324375E+04  0.7818608E-02  0.9010456E-01
          1   -1    0    0  501    0  0.00000000000E+00  0.00000000000E+00  0.15071579026E+04  0.15071579026E+04  0.00000000000E+00 0. -1.
         -1   -1    0    0    0  501 -0.00000000000E+00 -0.00000000000E+00 -0.29094001919E+03  0.29094001919E+03  0.00000000000E+00 0.  1.
         23    2    1    2    0    0  0.12654128087E+03 -0.14674812837E+03  0.67920814813E+03  0.71205905679E+03  0.90314356136E+02 0.  0.
        254    2    1    2    0    0 -0.12654128087E+03  0.14674812837E+03  0.53700973525E+03  0.10860388650E+04  0.92387945725E+03 0.  0.
        -24    2    4    4    0    0 -0.47440054137E+03  0.20029032162E+03  0.50158731965E+03  0.72320354622E+03  0.79129283121E+02 0.  0.
         24    2    4    4    0    0  0.34785926050E+03 -0.53542193242E+02  0.35422415597E+02  0.36283531875E+03  0.80758215853E+02 0.  0.
         13    1    3    3    0    0  0.89652309874E+02 -0.66470319230E+02  0.49939676093E+03  0.51171570704E+03  0.00000000000E+00 0. -1.
        -13    1    3    3    0    0  0.36888970994E+02 -0.80277809144E+02  0.17981138720E+03  0.20034334975E+03  0.00000000000E+00 0.  1.
          4    1    6    6  502    0  0.28793381370E+02 -0.46673990717E+01 -0.19941558639E+02  0.35334249473E+02  0.00000000000E+00 0. -1.
          1    1    5    5  503    0 -0.60391351937E+02  0.47612779164E+02  0.10323192906E+03  0.12872809835E+03  0.00000000000E+00 0. -1.
         -2    1    5    5    0  503 -0.41400918943E+03  0.15267754245E+03  0.39835539059E+03  0.59447544787E+03  0.00000000000E+00 0.  1.
         -3    1    6    6    0  502  0.31906587913E+03 -0.48874794170E+02  0.55363974237E+02  0.32750106927E+03  0.00000000000E+00 0.  1.
<mgrwt>
<rscale>  0 0.13243754E+04</rscale>
<asrwt>0</asrwt>
<pdfrwt beam="1">  1        1 0.23187044E+00 0.13243754E+04</pdfrwt>
<pdfrwt beam="2">  1       -1 0.44760004E-01 0.13243754E+04</pdfrwt>
<totfact> 0.31371199E+01</totfact>
</mgrwt>
</event>
<event>
12    1  0.1755460E-007  0.1660235E+04  0.7818608E-02  0.8784374E-01
         -1   -1    0    0    0  501 -0.00000000000E+00  0.00000000000E+00  0.11965386751E+04  0.11965386751E+04  0.00000000000E+00 0.  1.
          1   -1    0    0  501    0  0.00000000000E+00 -0.00000000000E+00 -0.57590723702E+03  0.57590723702E+03  0.00000000000E+00 0. -1.
         23    2    1    2    0    0  0.51892539712E+03  0.10757316220E+03  0.46530365205E+03  0.71124659316E+03  0.92242477553E+02 0.  0.
        254    2    1    2    0    0 -0.51892539712E+03 -0.10757316220E+03  0.15532778604E+03  0.10611993190E+04  0.90617973960E+03 0.  0.
        -24    2    4    4    0    0  0.21737157542E+03 -0.63599636067E+02  0.20616257689E+03  0.31639078601E+03  0.79402807583E+02 0.  0.
         24    2    4    4    0    0 -0.73629697254E+03 -0.43973526129E+02 -0.50834790855E+02  0.74480853296E+03  0.89937044904E+02 0.  0.
         11    1    3    3    0    0  0.38434455623E+03  0.85282249631E+02  0.39536235671E+03  0.55794730317E+03  0.00000000000E+00 0.  1.
        -11    1    3    3    0    0  0.13458084089E+03  0.22290912565E+02  0.69941295332E+02  0.15329928999E+03  0.00000000000E+00 0. -1.
          4    1    6    6  502    0 -0.23944630769E+02 -0.80982015674E+01  0.13502913068E+02  0.28657544776E+02  0.00000000000E+00 0. -1.
          1    1    5    5  503    0  0.49091794118E+01 -0.22183304465E+02  0.12446662846E+02  0.25905954054E+02  0.00000000000E+00 0. -1.
         -2    1    5    5    0  503  0.21246239600E+03 -0.41416331603E+02  0.19371591405E+03  0.29048483195E+03  0.00000000000E+00 0.  1.
         -3    1    6    6    0  502 -0.71235234177E+03 -0.35875324561E+02 -0.64337703923E+02  0.71615098819E+03  0.00000000000E+00 0.  1.
<mgrwt>
<rscale>  0 0.16602353E+04</rscale>
<asrwt>0</asrwt>
<pdfrwt beam="1">  1        1 0.88601114E-01 0.16602353E+04</pdfrwt>
<pdfrwt beam="2">  1       -1 0.18408287E+00 0.16602353E+04</pdfrwt>
<totfact> 0.67482392E+00</totfact>
</mgrwt>
</event>
<event>
12    1  0.1755460E-007  0.1713009E+04  0.7818608E-02  0.8753979E-01
         -1   -1    0    0    0  501 -0.00000000000E+00  0.00000000000E+00  0.20283391447E+04  0.20283391447E+04  0.00000000000E+00 0.  1.
          1   -1    0    0  501    0  0.00000000000E+00 -0.00000000000E+00 -0.36167536840E+03  0.36167536840E+03  0.00000000000E+00 0. -1.
         23    2    1    2    0    0  0.67490592713E+02  0.33428699116E+03  0.13199216116E+04  0.13662645256E+04  0.90459498075E+02 0.  0.
        254    2    1    2    0    0 -0.67490592713E+02 -0.33428699116E+03  0.34674216477E+03  0.10237499875E+04  0.90085022923E+03 0.  0.
        -24    2    4    4    0    0 -0.22430602410E+01 -0.42372706791E+03  0.59874109547E+03  0.73797382887E+03  0.81023535439E+02 0.  0.
         24    2    4    4    0    0 -0.65247532472E+02  0.89440076750E+02 -0.25199893070E+03  0.28577615863E+03  0.76862109940E+02 0.  0.
         13    1    3    3    0    0 -0.12308738233E+02  0.87973157761E+02  0.24521719531E+03  0.26081076358E+03  0.00000000000E+00 0. -1.
        -13    1    3    3    0    0  0.79799330946E+02  0.24631383340E+03  0.10747044163E+04  0.11054537621E+04  0.00000000000E+00 0.  1.
          4    1    6    6  502    0 -0.69104198098E+02  0.30841095586E+02 -0.13121709160E+03  0.15147438233E+03  0.00000000000E+00 0. -1.
          1    1    5    5  503    0  0.31081794804E+02 -0.29799282495E+03  0.44685700905E+03  0.53800277716E+03  0.00000000000E+00 0. -1.
         -2    1    5    5    0  503 -0.33324855045E+02 -0.12573424296E+03  0.15188408642E+03  0.19997105171E+03  0.00000000000E+00 0.  1.
         -3    1    6    6    0  502  0.38566656257E+01  0.58598981164E+02 -0.12078183909E+03  0.13430177630E+03  0.00000000000E+00 0.  1.
<mgrwt>
<rscale>  0 0.17130094E+04</rscale>
<asrwt>0</asrwt>
<pdfrwt beam="1">  1        1 0.55642366E-01 0.17130094E+04</pdfrwt>
<pdfrwt beam="2">  1       -1 0.31205217E+00 0.17130094E+04</pdfrwt>
<totfact> 0.18010913E+00</totfact>
</mgrwt>
</event>
<event>
12    1  0.1755460E-007  0.2253729E+04  0.7818608E-02  0.8496392E-01
         -1   -1    0    0    0  501 -0.00000000000E+00  0.00000000000E+00  0.10818073501E+04  0.10818073501E+04  0.00000000000E+00 0.  1.
          1   -1    0    0  501    0  0.00000000000E+00 -0.00000000000E+00 -0.11737979949E+04  0.11737979949E+04  0.00000000000E+00 0. -1.
         23    2    1    2    0    0 -0.22677316391E+03 -0.31654566866E+03 -0.92245577364E+03  0.10054354211E+04  0.91370144922E+02 0.  0.
        254    2    1    2    0    0  0.22677316391E+03  0.31654566866E+03  0.83046512889E+03  0.12501699239E+04  0.84948530312E+03 0.  0.
        -24    2    4    4    0    0 -0.19285920591E+03  0.17061387847E+03 -0.36887797957E+02  0.27223660064E+03  0.80301234482E+02 0.  0.
         24    2    4    4    0    0  0.41963236982E+03  0.14593179019E+03  0.86735292684E+03  0.97793332330E+03  0.81639891770E+02 0.  0.
         13    1    3    3    0    0 -0.19802206691E+02 -0.18863220106E+02 -0.14550888341E+03  0.14805669054E+03  0.00000000000E+00 0.  1.
        -13    1    3    3    0    0 -0.20697095722E+03 -0.29768244855E+03 -0.77694689023E+03  0.85737873052E+03  0.00000000000E+00 0. -1.
          2    1    6    6  502    0  0.41134274038E+03  0.13507701249E+03  0.80438224133E+03  0.91349846170E+03  0.00000000000E+00 0. -1.
          3    1    5    5  503    0 -0.17862768966E+03  0.16872927957E+03 -0.52248671605E+02  0.25121175327E+03  0.00000000000E+00 0. -1.
         -4    1    5    5    0  503 -0.14231516249E+02  0.18845989069E+01  0.15360873648E+02  0.21024847372E+02  0.00000000000E+00 0.  1.
         -1    1    6    6    0  502  0.82896294439E+01  0.10854777699E+02  0.62970685514E+02  0.64434861599E+02  0.00000000000E+00 0.  1.
<mgrwt>
<rscale>  0 0.22537287E+04</rscale>
<asrwt>0</asrwt>
<pdfrwt beam="1">  1        1 0.18058431E+00 0.22537287E+04</pdfrwt>
<pdfrwt beam="2">  1       -1 0.16643190E+00 0.22537287E+04</pdfrwt>
<totfact> 0.26507683E+00</totfact>
</mgrwt>
</event>
<event>
12    1  0.1755460E-007  0.4097811E+04  0.7818608E-02  0.7985101E-01
         -1   -1    0    0    0  501 -0.00000000000E+00  0.00000000000E+00  0.17154869820E+04  0.17154869820E+04  0.00000000000E+00 0.  1.
          1   -1    0    0  501    0  0.00000000000E+00 -0.00000000000E+00 -0.24471260483E+04  0.24471260483E+04  0.00000000000E+00 0. -1.
         23    2    1    2    0    0 -0.16316701072E+04 -0.99378418495E+03 -0.75744912680E+03  0.20571624513E+04  0.90740432241E+02 0.  0.
        254    2    1    2    0    0  0.16316701072E+04  0.99378418495E+03  0.25810060509E+02  0.21054505791E+04  0.88447817201E+03 0.  0.
        -24    2    4    4    0    0  0.11613744293E+04  0.32846792380E+03 -0.26219032752E+03  0.12376194747E+04  0.79224076495E+02 0.  0.
         24    2    4    4    0    0  0.47029567796E+03  0.66531626115E+03  0.28800038803E+03  0.86783110444E+03  0.79767476315E+02 0.  0.
         11    1    3    3    0    0 -0.16138249132E+04 -0.98787296824E+03 -0.75800353498E+03  0.20383555163E+04  0.00000000000E+00 0.  1.
        -11    1    3    3    0    0 -0.17845194046E+02 -0.59112167045E+01  0.55440818264E+00  0.18806934942E+02  0.00000000000E+00 0. -1.
          2    1    6    6  502    0  0.23268277583E+03  0.29323778301E+03  0.96285944751E+02  0.38652380873E+03  0.00000000000E+00 0. -1.
          1    1    5    5  503    0  0.74620939341E+03  0.17312202174E+03 -0.17751467855E+03  0.78632763802E+03  0.00000000000E+00 0. -1.
         -2    1    5    5    0  503  0.41516503588E+03  0.15534590206E+03 -0.84675648977E+02  0.45129183666E+03  0.00000000000E+00 0.  1.
         -1    1    6    6    0  502  0.23761290213E+03  0.37207847813E+03  0.19171444328E+03  0.48130729572E+03  0.00000000000E+00 0.  1.
<mgrwt>
<rscale>  0 0.40978106E+04</rscale>
<asrwt>0</asrwt>
<pdfrwt beam="1">  1        1 0.37648093E+00 0.40978106E+04</pdfrwt>
<pdfrwt beam="2">  1       -1 0.26392108E+00 0.40978106E+04</pdfrwt>
<totfact> 0.64759907E-02</totfact>
</mgrwt>
</event>
<event>
12    1  0.1755460E-007  0.1272257E+04  0.7818608E-02  0.9051859E-01
          3   -1    0    0  501    0  0.00000000000E+00  0.00000000000E+00  0.33656494588E+03  0.33656494588E+03  0.00000000000E+00 0. -1.
         -3   -1    0    0    0  501 -0.00000000000E+00 -0.00000000000E+00 -0.12023229990E+04  0.12023229990E+04  0.00000000000E+00 0.  1.
         23    2    1    2    0    0  0.22250494012E+03  0.15031959646E+03 -0.36092840366E+03  0.45935406542E+03  0.92910792656E+02 0.  0.
        254    2    1    2    0    0 -0.22250494012E+03 -0.15031959646E+03 -0.50482964948E+03  0.10795338795E+04  0.91566150541E+03 0.  0.
        -24    2    4    4    0    0 -0.11300333273E+03  0.26004642943E+03 -0.57050720979E+03  0.64206646381E+03  0.79855925622E+02 0.  0.
         24    2    4    4    0    0 -0.10950160739E+03 -0.41036602588E+03  0.65677560316E+02  0.43746741567E+03  0.81690394922E+02 0.  0.
         13    1    3    3    0    0  0.97239763134E+02  0.17043818822E+02 -0.15660215454E+03  0.18512238682E+03  0.00000000000E+00 0. -1.
        -13    1    3    3    0    0  0.12526517699E+03  0.13327577763E+03 -0.20432624912E+03  0.27423167860E+03  0.00000000000E+00 0.  1.
          2    1    6    6  502    0 -0.55006416052E+02 -0.78221011670E+02  0.78161078360E+01  0.95944379801E+02  0.00000000000E+00 0. -1.
          3    1    5    5  503    0  0.85135691058E+01  0.21711225704E+02 -0.80209855482E+02  0.83531306088E+02  0.00000000000E+00 0. -1.
         -4    1    5    5    0  503 -0.12151690183E+03  0.23833520372E+03 -0.49029735431E+03  0.55853515772E+03  0.00000000000E+00 0.  1.
         -1    1    6    6    0  502 -0.54495191342E+02 -0.33214501421E+03  0.57861452480E+02  0.34152303587E+03  0.00000000000E+00 0.  1.
<mgrwt>
<rscale>  0 0.12722575E+04</rscale>
<asrwt>0</asrwt>
<pdfrwt beam="1">  1        3 0.51779223E-01 0.12722575E+04</pdfrwt>
<pdfrwt beam="2">  1       -3 0.18497277E+00 0.12722575E+04</pdfrwt>
<totfact> 0.17412855E+00</totfact>
</mgrwt>
</event>
<event>
12    1  0.1755460E-007  0.1590548E+04  0.7818608E-02  0.8826376E-01
         -2   -1    0    0    0  501 -0.00000000000E+00  0.00000000000E+00  0.75668681995E+03  0.75668681995E+03  0.00000000000E+00 0.  1.
          2   -1    0    0  501    0  0.00000000000E+00 -0.00000000000E+00 -0.83582936529E+03  0.83582936529E+03  0.00000000000E+00 0. -1.
         23    2    1    2    0    0  0.20878229734E+03 -0.43086071868E+03 -0.25998773843E+03  0.55269895365E+03  0.93013454095E+02 0.  0.
        254    2    1    2    0    0 -0.20878229734E+03  0.43086071868E+03  0.18084519309E+03  0.10398172316E+04  0.90514301890E+03 0.  0.
        -24    2    4    4    0    0 -0.32072241073E+03  0.67028245417E+03  0.13334321548E+03  0.75916743327E+03  0.80083365929E+02 0.  0.
         24    2    4    4    0    0  0.11194011339E+03 -0.23942173549E+03  0.47501977606E+02  0.28064979833E+03  0.81575210776E+02 0.  0.
         11    1    3    3    0    0  0.13589650138E+03 -0.24042792994E+03 -0.10073544167E+03  0.29397462099E+03  0.00000000000E+00 0. -1.
        -11    1    3    3    0    0  0.72885795960E+02 -0.19043278875E+03 -0.15925229677E+03  0.25872433265E+03  0.00000000000E+00 0.  1.
          2    1    6    6  502    0  0.12514420948E+03 -0.21425596628E+03  0.44309293178E+02  0.25205159336E+03  0.00000000000E+00 0. -1.
          1    1    5    5  503    0 -0.23185758358E+03  0.39553524196E+03  0.88481977919E+02  0.46694231669E+03  0.00000000000E+00 0. -1.
         -2    1    5    5    0  503 -0.88864827146E+02  0.27474721222E+03  0.44861237565E+02  0.29222511658E+03  0.00000000000E+00 0.  1.
         -1    1    6    6    0  502 -0.13204096090E+02 -0.25165769216E+02  0.31926844279E+01  0.28598204973E+02  0.00000000000E+00 0.  1.
<mgrwt>
<rscale>  0 0.15905484E+04</rscale>
<asrwt>0</asrwt>
<pdfrwt beam="1">  1        2 0.12858913E+00 0.15905484E+04</pdfrwt>
<pdfrwt beam="2">  1       -2 0.11641336E+00 0.15905484E+04</pdfrwt>
<totfact> 0.17834427E+01</totfact>
</mgrwt>
</event>
<event>
12    1  0.1755460E-007  0.1367355E+04  0.7818608E-02  0.8977793E-01
          1   -1    0    0  501    0  0.00000000000E+00  0.00000000000E+00  0.14978501471E+04  0.14978501471E+04  0.00000000000E+00 0. -1.
         -1   -1    0    0    0  501 -0.00000000000E+00 -0.00000000000E+00 -0.31205729576E+03  0.31205729576E+03  0.00000000000E+00 0.  1.
         23    2    1    2    0    0  0.30693862210E+03 -0.18326271221E+03  0.16957328337E+03  0.40603916518E+03  0.91193014003E+02 0.  0.
        254    2    1    2    0    0 -0.30693862210E+03  0.18326271221E+03  0.10162195680E+04  0.14038682777E+04  0.90019297447E+03 0.  0.
        -24    2    4    4    0    0 -0.17278699399E+03  0.53767622442E+03  0.70563742845E+03  0.90723441791E+03  0.78733988842E+02 0.  0.
         24    2    4    4    0    0 -0.13415162811E+03 -0.35441351221E+03  0.31058213950E+03  0.49663385975E+03  0.81106894375E+02 0.  0.
         11    1    3    3    0    0  0.24492965596E+03 -0.17995831447E+03  0.15912638135E+03  0.34306957976E+03  0.00000000000E+00 0. -1.
        -11    1    3    3    0    0  0.62008966142E+02 -0.33043977460E+01  0.10446902020E+02  0.62969585422E+02  0.00000000000E+00 0.  1.
          2    1    6    6  502    0 -0.84324498180E+02 -0.27372149851E+03  0.19210306843E+03  0.34487340959E+03  0.00000000000E+00 0. -1.
          1    1    5    5  503    0 -0.16294451498E+03  0.53440485907E+03  0.69931621857E+03  0.89508806377E+03  0.00000000000E+00 0. -1.
         -2    1    5    5    0  503 -0.98424790091E+01  0.32713653548E+01  0.63212098875E+01  0.12146354135E+02  0.00000000000E+00 0.  1.
         -1    1    6    6    0  502 -0.49827129931E+02 -0.80692013691E+02  0.11847907108E+03  0.15176045016E+03  0.00000000000E+00 0.  1.
<mgrwt>
<rscale>  0 0.13673552E+04</rscale>
<asrwt>0</asrwt>
<pdfrwt beam="1">  1        1 0.23043848E+00 0.13673552E+04</pdfrwt>
<pdfrwt beam="2">  1       -1 0.48008816E-01 0.13673552E+04</pdfrwt>
<totfact> 0.27819982E+01</totfact>
</mgrwt>
</event>
<event>
12    1  0.1755460E-007  0.1599278E+04  0.7818608E-02  0.8820992E-01
         -2   -1    0    0    0  501 -0.00000000000E+00  0.00000000000E+00  0.27722511160E+03  0.27722511160E+03  0.00000000000E+00 0.  1.
          2   -1    0    0  501    0  0.00000000000E+00 -0.00000000000E+00 -0.23065089475E+04  0.23065089475E+04  0.00000000000E+00 0. -1.
         23    2    1    2    0    0 -0.38769358774E+03  0.31173192386E+03 -0.10244535597E+04  0.11427697401E+04  0.94522339620E+02 0.  0.
        254    2    1    2    0    0  0.38769358774E+03 -0.31173192386E+03 -0.10048302762E+04  0.14409643190E+04  0.90510285283E+03 0.  0.
        -24    2    4    4    0    0  0.48996536332E+03 -0.52094381996E+03 -0.94491892739E+03  0.11877755760E+04  0.80563756155E+02 0.  0.
         24    2    4    4    0    0 -0.10227177558E+03  0.20921189609E+03 -0.59911348808E+02  0.25318874295E+03  0.79284527439E+02 0.  0.
         11    1    3    3    0    0 -0.38680643534E+03  0.31603283226E+03 -0.99871385471E+03  0.11166581093E+04  0.00000000000E+00 0. -1.
        -11    1    3    3    0    0 -0.88715240248E+00 -0.43009084001E+01 -0.25739704967E+02  0.26111630823E+02  0.00000000000E+00 0.  1.
          2    1    6    6  502    0 -0.16539595889E+02  0.32974946425E+02  0.19501044989E+02  0.41727641673E+02  0.00000000000E+00 0. -1.
          1    1    5    5  503    0  0.24279562554E+03 -0.26491401273E+03 -0.40868679284E+03  0.54420037171E+03  0.00000000000E+00 0. -1.
         -2    1    5    5    0  503  0.24716973777E+03 -0.25602980723E+03 -0.53623213456E+03  0.64357520430E+03  0.00000000000E+00 0.  1.
         -1    1    6    6    0  502 -0.85732179690E+02  0.17623694967E+03 -0.79412393797E+02  0.21146110127E+03  0.00000000000E+00 0.  1.
<mgrwt>
<rscale>  0 0.15992776E+04</rscale>
<asrwt>0</asrwt>
<pdfrwt beam="1">  1        2 0.35484753E+00 0.15992776E+04</pdfrwt>
<pdfrwt beam="2">  1       -2 0.42650018E-01 0.15992776E+04</pdfrwt>
<totfact> 0.22492584E+01</totfact>
</mgrwt>
</event>
<event>
12    1  0.1755460E-007  0.1595392E+04  0.7818608E-02  0.8823384E-01
          1   -1    0    0  501    0  0.00000000000E+00  0.00000000000E+00  0.14278453756E+04  0.14278453756E+04  0.00000000000E+00 0. -1.
         -1   -1    0    0    0  501 -0.00000000000E+00 -0.00000000000E+00 -0.44564973116E+03  0.44564973116E+03  0.00000000000E+00 0.  1.
         23    2    1    2    0    0  0.42738305928E+03 -0.21449969323E+03  0.54463612809E+03  0.73047066653E+03  0.91063081869E+02 0.  0.
        254    2    1    2    0    0 -0.42738305928E+03  0.21449969323E+03  0.43755951634E+03  0.11430244402E+04  0.94147763800E+03 0.  0.
        -24    2    4    4    0    0 -0.42748720999E+03 -0.97698469970E+02 -0.15240692540E+03  0.47108141984E+03  0.79997046635E+02 0.  0.
         24    2    4    4    0    0  0.10415070406E+00  0.31219816320E+03  0.58996644174E+03  0.67194302038E+03  0.77326038997E+02 0.  0.
         11    1    3    3    0    0  0.22224330312E+03 -0.13758625107E+03  0.23725738426E+03  0.35300584790E+03  0.00000000000E+00 0.  1.
        -11    1    3    3    0    0  0.20513975616E+03 -0.76913442158E+02  0.30737874384E+03  0.37746481863E+03  0.00000000000E+00 0. -1.
          2    1    6    6  502    0  0.20268766850E+02  0.52076482530E+02  0.65008140794E+02  0.85725383124E+02  0.00000000000E+00 0. -1.
          3    1    5    5  503    0 -0.18457106960E+00 -0.65816609174E+01  0.31589820692E+01  0.73028415445E+01  0.00000000000E+00 0. -1.
         -4    1    5    5    0  503 -0.42730263892E+03 -0.91116809053E+02 -0.15556590747E+03  0.46377857829E+03  0.00000000000E+00 0.  1.
         -1    1    6    6    0  502 -0.20164616146E+02  0.26012168067E+03  0.52495830095E+03  0.58621763726E+03  0.00000000000E+00 0.  1.
<mgrwt>
<rscale>  0 0.15953920E+04</rscale>
<asrwt>0</asrwt>
<pdfrwt beam="1">  1        1 0.21966852E+00 0.15953920E+04</pdfrwt>
<pdfrwt beam="2">  1       -1 0.68561498E-01 0.15953920E+04</pdfrwt>
<totfact> 0.15178985E+01</totfact>
</mgrwt>
</event>
<event>
12    1  0.1755460E-007  0.1855231E+04  0.7818608E-02  0.8677467E-01
         -1   -1    0    0    0  501 -0.00000000000E+00  0.00000000000E+00  0.40158637774E+03  0.40158637774E+03  0.00000000000E+00 0.  1.
          1   -1    0    0  501    0  0.00000000000E+00 -0.00000000000E+00 -0.21426796945E+04  0.21426796945E+04  0.00000000000E+00 0. -1.
         23    2    1    2    0    0 -0.66952243032E+03  0.18018784546E+03 -0.47420937972E+03  0.84504963939E+03  0.92230216659E+02 0.  0.
        254    2    1    2    0    0  0.66952243032E+03 -0.18018784546E+03 -0.12668839371E+04  0.16992164329E+04  0.89532878396E+03 0.  0.
        -24    2    4    4    0    0  0.21081311994E+03  0.31704142679E+03 -0.74849500187E+03  0.84324286301E+03  0.76526599066E+02 0.  0.
         24    2    4    4    0    0  0.45870931038E+03 -0.49722927226E+03 -0.51838893521E+03  0.85597356986E+03  0.79451139313E+02 0.  0.
         13    1    3    3    0    0 -0.62367441113E+03  0.16865201938E+03 -0.46709660986E+03  0.79724056450E+03  0.00000000000E+00 0.  1.
        -13    1    3    3    0    0 -0.45848019189E+02  0.11535826081E+02 -0.71127698632E+01  0.47809074893E+02  0.00000000000E+00 0. -1.
          4    1    6    6  502    0  0.27947723400E+03 -0.26629822809E+03 -0.25637244989E+03  0.46341029732E+03  0.00000000000E+00 0. -1.
          1    1    5    5  503    0  0.12682949272E+03  0.17323825537E+03 -0.49952956863E+03  0.54371592149E+03  0.00000000000E+00 0. -1.
         -2    1    5    5    0  503  0.83983627224E+02  0.14380317142E+03 -0.24896543324E+03  0.29952694152E+03  0.00000000000E+00 0.  1.
         -3    1    6    6    0  502  0.17923207639E+03 -0.23093104417E+03 -0.26201648532E+03  0.39256327254E+03  0.00000000000E+00 0.  1.
<mgrwt>
<rscale>  0 0.18552315E+04</rscale>
<asrwt>0</asrwt>
<pdfrwt beam="1">  1        1 0.32964303E+00 0.18552315E+04</pdfrwt>
<pdfrwt beam="2">  1       -1 0.61782519E-01 0.18552315E+04</pdfrwt>
<totfact> 0.59496301E+00</totfact>
</mgrwt>
</event>
<event>
12    1  0.1755460E-007  0.2197452E+04  0.7818608E-02  0.8519489E-01
          2   -1    0    0  501    0  0.00000000000E+00  0.00000000000E+00  0.14253114496E+04  0.14253114496E+04  0.00000000000E+00 0. -1.
         -2   -1    0    0    0  501 -0.00000000000E+00 -0.00000000000E+00 -0.84697232339E+03  0.84697232339E+03  0.00000000000E+00 0.  1.
         23    2    1    2    0    0  0.69863939230E+03 -0.24737624411E+03  0.78137297510E+03  0.10808452479E+04  0.91600857508E+02 0.  0.
        254    2    1    2    0    0 -0.69863939230E+03  0.24737624411E+03 -0.20303384891E+03  0.11914385251E+04  0.91050041657E+03 0.  0.
        -24    2    4    4    0    0 -0.83555773527E+03  0.38846247201E+03 -0.43804950674E+02  0.92594090603E+03  0.79924130512E+02 0.  0.
         24    2    4    4    0    0  0.13691834296E+03 -0.14108622790E+03 -0.15922889823E+03  0.26549761903E+03  0.80518242231E+02 0.  0.
         11    1    3    3    0    0  0.12394940834E+03 -0.90167992545E+01  0.14255857065E+03  0.18912351668E+03  0.00000000000E+00 0.  1.
        -11    1    3    3    0    0  0.57468998396E+03 -0.23835944485E+03  0.63881440445E+03  0.89172173123E+03  0.00000000000E+00 0. -1.
          2    1    6    6  502    0 -0.36453406099E+01 -0.17422373411E+01 -0.27379317755E+02  0.27675818684E+02  0.00000000000E+00 0. -1.
          1    1    5    5  503    0 -0.15064816165E+03  0.37216113728E+02 -0.64580639977E+01  0.15531134640E+03  0.00000000000E+00 0. -1.
         -2    1    5    5    0  503 -0.68490957362E+03  0.35124635828E+03 -0.37346886677E+02  0.77062955963E+03  0.00000000000E+00 0.  1.
         -3    1    6    6    0  502  0.14056368357E+03 -0.13934399056E+03 -0.13184958048E+03  0.23782180034E+03  0.00000000000E+00 0.  1.
<mgrwt>
<rscale>  0 0.21974525E+04</rscale>
<asrwt>0</asrwt>
<pdfrwt beam="1">  1        2 0.21927868E+00 0.21974525E+04</pdfrwt>
<pdfrwt beam="2">  1       -2 0.13030343E+00 0.21974525E+04</pdfrwt>
<totfact> 0.55254924E+00</totfact>
</mgrwt>
</event>
<event>
12    1  0.1755460E-007  0.2120661E+04  0.7818608E-02  0.8552196E-01
          1   -1    0    0  501    0  0.00000000000E+00  0.00000000000E+00  0.89951905957E+03  0.89951905957E+03  0.00000000000E+00 0. -1.
         -1   -1    0    0    0  501 -0.00000000000E+00 -0.00000000000E+00 -0.12498915652E+04  0.12498915652E+04  0.00000000000E+00 0.  1.
         23    2    1    2    0    0 -0.73179342697E+03  0.35422199136E+03 -0.45516922834E+03  0.93549987367E+03  0.83583181876E+02 0.  0.
        254    2    1    2    0    0  0.73179342697E+03 -0.35422199136E+03  0.10479672269E+03  0.12139107511E+04  0.89532235519E+03 0.  0.
        -24    2    4    4    0    0  0.17376947325E+02  0.61829100171E+02 -0.27969193713E+03  0.29874653285E+03  0.83048872747E+02 0.  0.
         24    2    4    4    0    0  0.71441647965E+03 -0.41605109153E+03  0.38448865982E+03  0.91516421828E+03  0.78769281733E+02 0.  0.
         13    1    3    3    0    0 -0.44612334771E+03  0.21533390544E+03 -0.32350220016E+03  0.59164888719E+03  0.00000000000E+00 0. -1.
        -13    1    3    3    0    0 -0.28567007926E+03  0.13888808591E+03 -0.13166702818E+03  0.34385098648E+03  0.00000000000E+00 0.  1.
          2    1    6    6  502    0  0.21387618876E+03 -0.12681177310E+03  0.15610413417E+03  0.29358601911E+03  0.00000000000E+00 0. -1.
          1    1    5    5  503    0  0.32117615594E+02 -0.22535870405E+01 -0.47207062909E+02  0.57141286951E+02  0.00000000000E+00 0. -1.
         -4    1    5    5    0  503 -0.14740668269E+02  0.64082687211E+02 -0.23248487422E+03  0.24160524589E+03  0.00000000000E+00 0.  1.
         -1    1    6    6    0  502  0.50054029089E+03 -0.28923931842E+03  0.22838452565E+03  0.62157819917E+03  0.00000000000E+00 0.  1.
<mgrwt>
<rscale>  0 0.21206615E+04</rscale>
<asrwt>0</asrwt>
<pdfrwt beam="1">  1        1 0.13838755E+00 0.21206615E+04</pdfrwt>
<pdfrwt beam="2">  1       -1 0.19229101E+00 0.21206615E+04</pdfrwt>
<totfact> 0.28470224E+00</totfact>
</mgrwt>
</event>
<event>
12    1  0.1755460E-007  0.2800727E+04  0.7818608E-02  0.8303043E-01
         -2   -1    0    0    0  501 -0.00000000000E+00  0.00000000000E+00  0.56437202228E+03  0.56437202228E+03  0.00000000000E+00 0.  1.
          2   -1    0    0  501    0  0.00000000000E+00 -0.00000000000E+00 -0.34746894700E+04  0.34746894700E+04  0.00000000000E+00 0. -1.
         23    2    1    2    0    0 -0.73515749142E+03 -0.49761697748E+03 -0.25817501095E+04  0.27316235801E+04  0.90854618150E+02 0.  0.
        254    2    1    2    0    0  0.73515749142E+03  0.49761697748E+03 -0.32856733824E+03  0.13074379123E+04  0.90186373982E+03 0.  0.
        -24    2    4    4    0    0  0.54567430580E+03  0.13097526295E+03 -0.58406612226E+03  0.81397551684E+03  0.80671800018E+02 0.  0.
         24    2    4    4    0    0  0.18948318561E+03  0.36664171453E+03  0.25549878402E+03  0.49346239542E+03  0.88856528159E+02 0.  0.
         11    1    3    3    0    0 -0.20565727419E+03 -0.10804464724E+03 -0.58463360978E+03  0.62909857566E+03  0.00000000000E+00 0.  1.
        -11    1    3    3    0    0 -0.52950021723E+03 -0.38957233025E+03 -0.19971164997E+04  0.21025250044E+04  0.00000000000E+00 0. -1.
          4    1    6    6  502    0  0.12155975141E+03  0.25246371671E+03  0.12360536941E+03  0.30625641016E+03  0.00000000000E+00 0. -1.
          3    1    5    5  503    0  0.50029252813E+03  0.98396508344E+02 -0.54125138732E+03  0.74359098356E+03  0.00000000000E+00 0. -1.
         -4    1    5    5    0  503  0.45381777675E+02  0.32578754607E+02 -0.42814734945E+02  0.70384533281E+02  0.00000000000E+00 0.  1.
         -3    1    6    6    0  502  0.67923434199E+02  0.11417799783E+03  0.13189341461E+03  0.18720598526E+03  0.00000000000E+00 0.  1.
<mgrwt>
<rscale>  0 0.28007267E+04</rscale>
<asrwt>0</asrwt>
<pdfrwt beam="1">  1        2 0.53456759E+00 0.28007267E+04</pdfrwt>
<pdfrwt beam="2">  1       -2 0.86826468E-01 0.28007267E+04</pdfrwt>
<totfact> 0.84547007E-01</totfact>
</mgrwt>
</event>
<event>
12    1  0.1755460E-007  0.1474890E+04  0.7818608E-02  0.8901324E-01
         -1   -1    0    0    0  501 -0.00000000000E+00  0.00000000000E+00  0.68132236668E+03  0.68132236668E+03  0.00000000000E+00 0.  1.
          1   -1    0    0  501    0  0.00000000000E+00 -0.00000000000E+00 -0.79819097478E+03  0.79819097478E+03  0.00000000000E+00 0. -1.
         23    2    1    2    0    0 -0.10541177046E+03  0.15767713900E+03 -0.44968892322E+03  0.49690562922E+03  0.93388196117E+02 0.  0.
        254    2    1    2    0    0  0.10541177046E+03 -0.15767713900E+03  0.33282031512E+03  0.98260771224E+03  0.90486177535E+03 0.  0.
        -24    2    4    4    0    0 -0.25445110648E+03 -0.37916272368E+03  0.29793627022E+03  0.55122443253E+03  0.81071679905E+02 0.  0.
         24    2    4    4    0    0  0.35986287695E+03  0.22148558468E+03  0.34884044896E+02  0.43138327971E+03  0.79482595579E+02 0.  0.
         13    1    3    3    0    0 -0.17803057491E+02  0.13507178835E+02 -0.16095844625E+03  0.16250235123E+03  0.00000000000E+00 0. -1.
        -13    1    3    3    0    0 -0.87608712972E+02  0.14416996016E+03 -0.28873047696E+03  0.33440327799E+03  0.00000000000E+00 0.  1.
          2    1    6    6  502    0  0.20641336908E+03  0.81525981201E+02  0.26711563375E+02  0.22353181466E+03  0.00000000000E+00 0. -1.
          1    1    5    5  503    0 -0.60546611050E+02 -0.39490445091E+02  0.38737246234E+02  0.82011960157E+02  0.00000000000E+00 0. -1.
         -2    1    5    5    0  503 -0.19390449543E+03 -0.33967227859E+03  0.25919902399E+03  0.46921247237E+03  0.00000000000E+00 0.  1.
         -1    1    6    6    0  502  0.15344950787E+03  0.13995960348E+03  0.81724815218E+01  0.20785146506E+03  0.00000000000E+00 0.  1.
<mgrwt>
<rscale>  0 0.14748903E+04</rscale>
<asrwt>0</asrwt>
<pdfrwt beam="1">  1        1 0.12279861E+00 0.14748903E+04</pdfrwt>
<pdfrwt beam="2">  1       -1 0.10481883E+00 0.14748903E+04</pdfrwt>
<totfact> 0.18392683E+01</totfact>
</mgrwt>
</event>
<event>
12    1  0.1755460E-007  0.1342143E+04  0.7818608E-02  0.8996797E-01
          2   -1    0    0  501    0  0.00000000000E+00  0.00000000000E+00  0.19819785241E+04  0.19819785241E+04  0.00000000000E+00 0. -1.
         -2   -1    0    0    0  501 -0.00000000000E+00 -0.00000000000E+00 -0.22721599300E+03  0.22721599300E+03  0.00000000000E+00 0.  1.
         23    2    1    2    0    0 -0.35551244874E+03 -0.21903106686E+02  0.61159901267E+03  0.71452216777E+03  0.98080215339E+02 0.  0.
        254    2    1    2    0    0  0.35551244874E+03  0.21903106686E+02  0.11431635185E+04  0.14946723494E+04  0.89462492404E+03 0.  0.
        -24    2    4    4    0    0 -0.17436539121E+03 -0.21131552289E+03  0.10670116051E+03  0.30484062099E+03  0.80530284281E+02 0.  0.
         24    2    4    4    0    0  0.52987783996E+03  0.23321862957E+03  0.10364623579E+04  0.11898317284E+04  0.79270851748E+02 0.  0.
         11    1    3    3    0    0 -0.14919953588E+03  0.16726295620E+02  0.33666059907E+03  0.36861989832E+03  0.00000000000E+00 0. -1.
        -11    1    3    3    0    0 -0.20631291286E+03 -0.38629402306E+02  0.27493841360E+03  0.34590226945E+03  0.00000000000E+00 0.  1.
          4    1    6    6  502    0  0.26125598865E+03  0.15235596933E+03  0.57828673589E+03  0.65259679888E+03  0.00000000000E+00 0. -1.
          1    1    5    5  503    0 -0.90135563013E+02 -0.16689330837E+03  0.80675832766E+02  0.20612226006E+03  0.00000000000E+00 0. -1.
         -2    1    5    5    0  503 -0.84229828200E+02 -0.44422214513E+02  0.26025327741E+02  0.98718360931E+02  0.00000000000E+00 0.  1.
         -3    1    6    6    0  502  0.26862185131E+03  0.80862660236E+02  0.45817562206E+03  0.53723492949E+03  0.00000000000E+00 0.  1.
<mgrwt>
<rscale>  0 0.13421434E+04</rscale>
<asrwt>0</asrwt>
<pdfrwt beam="1">  1        2 0.30491976E+00 0.13421434E+04</pdfrwt>
<pdfrwt beam="2">  1       -2 0.34956308E-01 0.13421434E+04</pdfrwt>
<totfact> 0.51348741E+01</totfact>
</mgrwt>
</event>
<event>
12    1  0.1755460E-007  0.1303016E+04  0.7818608E-02  0.9027177E-01
         -1   -1    0    0    0  501 -0.00000000000E+00  0.00000000000E+00  0.18745771471E+04  0.18745771471E+04  0.00000000000E+00 0.  1.
          1   -1    0    0  501    0  0.00000000000E+00 -0.00000000000E+00 -0.22643108027E+03  0.22643108027E+03  0.00000000000E+00 0. -1.
         23    2    1    2    0    0 -0.23980282414E+02 -0.70463910043E+02 -0.86289418656E+02  0.14639052820E+03  0.91891819064E+02 0.  0.
        254    2    1    2    0    0  0.23980282414E+02  0.70463910043E+02  0.17344354855E+04  0.19546176992E+04  0.89817797795E+03 0.  0.
        -24    2    4    4    0    0  0.36037873674E+03 -0.19250496853E+03  0.52774831326E+03  0.67224785867E+03  0.80423283543E+02 0.  0.
         24    2    4    4    0    0 -0.33639845433E+03  0.26296887857E+03  0.12066871722E+04  0.12823698405E+04  0.77858365347E+02 0.  0.
         11    1    3    3    0    0 -0.24622154895E+02  0.68482505518E+01 -0.59176772257E+02  0.64459595267E+02  0.00000000000E+00 0. -1.
        -11    1    3    3    0    0  0.64187248134E+00 -0.77312160595E+02 -0.27112646399E+02  0.81930932931E+02  0.00000000000E+00 0.  1.
          2    1    6    6  502    0 -0.16849450894E+03  0.17660952536E+03  0.63429732028E+03  0.67964285805E+03  0.00000000000E+00 0. -1.
          3    1    5    5  503    0  0.20214888393E+03 -0.14053000654E+03  0.27021107191E+03  0.36555010244E+03  0.00000000000E+00 0. -1.
         -4    1    5    5    0  503  0.15822985282E+03 -0.51974961989E+02  0.25753724134E+03  0.30669775623E+03  0.00000000000E+00 0.  1.
         -1    1    6    6    0  502 -0.16790394539E+03  0.86359353212E+02  0.57238985194E+03  0.60272698245E+03  0.00000000000E+00 0.  1.
<mgrwt>
<rscale>  0 0.13030158E+04</rscale>
<asrwt>0</asrwt>
<pdfrwt beam="1">  1        1 0.34835552E-01 0.13030158E+04</pdfrwt>
<pdfrwt beam="2">  1       -1 0.28839647E+00 0.13030158E+04</pdfrwt>
<totfact> 0.48995640E+00</totfact>
</mgrwt>
</event>
<event>
12    1  0.1755460E-007  0.1746366E+04  0.7818608E-02  0.8735353E-01
          1   -1    0    0  501    0  0.00000000000E+00  0.00000000000E+00  0.10591974067E+04  0.10591974067E+04  0.00000000000E+00 0. -1.
         -1   -1    0    0    0  501 -0.00000000000E+00 -0.00000000000E+00 -0.71983584465E+03  0.71983584465E+03  0.00000000000E+00 0.  1.
         23    2    1    2    0    0  0.53186468306E+03  0.14767033824E+03 -0.20288781256E+03  0.59534425945E+03  0.92653941600E+02 0.  0.
        254    2    1    2    0    0 -0.53186468306E+03 -0.14767033824E+03  0.54224937461E+03  0.11836889919E+04  0.89576708768E+03 0.  0.
        -24    2    4    4    0    0 -0.18414419561E+03  0.34578615100E+03  0.38431263586E+03  0.55462123672E+03  0.80195805032E+02 0.  0.
         24    2    4    4    0    0 -0.34772048745E+03 -0.49345648923E+03  0.15793673876E+03  0.62906775517E+03  0.79833470312E+02 0.  0.
         11    1    3    3    0    0  0.52206686907E+01 -0.23091089450E+01 -0.15609741706E+02  0.16620812310E+02  0.00000000000E+00 0. -1.
        -11    1    3    3    0    0  0.52664401437E+03  0.14997944718E+03 -0.18727807086E+03  0.57872344715E+03  0.00000000000E+00 0.  1.
          2    1    6    6  502    0 -0.28256634938E+03 -0.44704947963E+03  0.13410932330E+03  0.54560268478E+03  0.00000000000E+00 0. -1.
          3    1    5    5  503    0 -0.16325749195E+03  0.29715618726E+03  0.36526918456E+03  0.49837374078E+03  0.00000000000E+00 0. -1.
         -4    1    5    5    0  503 -0.20886703657E+02  0.48629963738E+02  0.19043451295E+02  0.56247495944E+02  0.00000000000E+00 0.  1.
         -1    1    6    6    0  502 -0.65154138069E+02 -0.46407009605E+02  0.23827415455E+02  0.83465070390E+02  0.00000000000E+00 0.  1.
<mgrwt>
<rscale>  0 0.17463657E+04</rscale>
<asrwt>0</asrwt>
<pdfrwt beam="1">  1        1 0.16295345E+00 0.17463657E+04</pdfrwt>
<pdfrwt beam="2">  1       -1 0.11074398E+00 0.17463657E+04</pdfrwt>
<totfact> 0.96960448E+00</totfact>
</mgrwt>
</event>
<event>
12    1  0.1755460E-007  0.2224123E+04  0.7818608E-02  0.8508454E-01
          2   -1    0    0  501    0  0.00000000000E+00  0.00000000000E+00  0.22382973777E+04  0.22382973777E+04  0.00000000000E+00 0. -1.
         -2   -1    0    0    0  501 -0.00000000000E+00 -0.00000000000E+00 -0.55250939996E+03  0.55250939996E+03  0.00000000000E+00 0.  1.
         23    2    1    2    0    0 -0.22420824206E+03  0.38568972974E+03 -0.30462712307E+03  0.54819814216E+03  0.93261007488E+02 0.  0.
        254    2    1    2    0    0  0.22420824206E+03 -0.38568972974E+03  0.19904151008E+04  0.22426086355E+04  0.93194169078E+03 0.  0.
        -24    2    4    4    0    0 -0.71520038706E+02 -0.59358758522E+03  0.84307178245E+03  0.10368812047E+04  0.83013643770E+02 0.  0.
         24    2    4    4    0    0  0.29572828077E+03  0.20789785548E+03  0.11473433184E+04  0.12057274308E+04  0.81885363755E+02 0.  0.
         13    1    3    3    0    0 -0.92674034460E+02  0.10772528698E+03 -0.55966358407E+02  0.15272670818E+03  0.00000000000E+00 0. -1.
        -13    1    3    3    0    0 -0.13153420760E+03  0.27796444276E+03 -0.24866076467E+03  0.39547143398E+03  0.00000000000E+00 0.  1.
          2    1    6    6  502    0 -0.36457688025E+01 -0.18662501084E+01  0.25583657651E+02  0.25909420264E+02  0.00000000000E+00 0. -1.
          1    1    5    5  503    0  0.12358844162E+02 -0.19747386262E+03  0.30312628997E+03  0.36198648471E+03  0.00000000000E+00 0. -1.
         -2    1    5    5    0  503 -0.83878882868E+02 -0.39611372260E+03  0.53994549248E+03  0.67489471999E+03  0.00000000000E+00 0.  1.
         -3    1    6    6    0  502  0.29937404957E+03  0.20976410559E+03  0.11217596607E+04  0.11798180105E+04  0.00000000000E+00 0.  1.
<mgrwt>
<rscale>  0 0.22241226E+04</rscale>
<asrwt>0</asrwt>
<pdfrwt beam="1">  1        2 0.34435344E+00 0.22241226E+04</pdfrwt>
<pdfrwt beam="2">  1       -2 0.85001448E-01 0.22241226E+04</pdfrwt>
<totfact> 0.53996942E+00</totfact>
</mgrwt>
</event>
<event>
12    1  0.1755460E-007  0.1484195E+04  0.7818608E-02  0.8895031E-01
         -1   -1    0    0    0  501 -0.00000000000E+00  0.00000000000E+00  0.38523079878E+03  0.38523079878E+03  0.00000000000E+00 0.  1.
          1   -1    0    0  501    0  0.00000000000E+00 -0.00000000000E+00 -0.14295556773E+04  0.14295556773E+04  0.00000000000E+00 0. -1.
         23    2    1    2    0    0  0.27952446395E+03  0.24674595752E+03  0.68203627829E+00  0.38440779953E+03  0.93548905217E+02 0.  0.
        254    2    1    2    0    0 -0.27952446395E+03 -0.24674595752E+03 -0.10450069148E+04  0.14303786765E+04  0.90273263640E+03 0.  0.
        -24    2    4    4    0    0  0.31254413317E+03 -0.19375137098E+03 -0.37442394358E+03  0.53080168805E+03  0.79584631541E+02 0.  0.
         24    2    4    4    0    0 -0.59206859713E+03 -0.52994586545E+02 -0.67058297121E+03  0.89957698848E+03  0.78762853060E+02 0.  0.
         11    1    3    3    0    0  0.22398962379E+03  0.17702796550E+03 -0.36512752338E+02  0.28782535194E+03  0.00000000000E+00 0. -1.
        -11    1    3    3    0    0  0.55534840161E+02  0.69717992016E+02  0.37194788617E+02  0.96582447591E+02  0.00000000000E+00 0.  1.
          2    1    6    6  502    0 -0.46678737205E+03 -0.73821986836E+02 -0.52419357158E+03  0.70577548621E+03  0.00000000000E+00 0. -1.
          1    1    5    5  503    0  0.31195311652E+03 -0.19318402539E+03 -0.37819628820E+03  0.52694140754E+03  0.00000000000E+00 0. -1.
         -2    1    5    5    0  503  0.59101664941E+00 -0.56734558692E+00  0.37723446193E+01  0.38602805108E+01  0.00000000000E+00 0.  1.
         -1    1    6    6    0  502 -0.12528122508E+03  0.20827400291E+02 -0.14638939963E+03  0.19380150227E+03  0.00000000000E+00 0.  1.
<mgrwt>
<rscale>  0 0.14841952E+04</rscale>
<asrwt>0</asrwt>
<pdfrwt beam="1">  1        1 0.21993165E+00 0.14841952E+04</pdfrwt>
<pdfrwt beam="2">  1       -1 0.59266275E-01 0.14841952E+04</pdfrwt>
<totfact> 0.20473265E+01</totfact>
</mgrwt>
</event>
<event>
12    1  0.1755460E-007  0.1653172E+04  0.7818608E-02  0.8788532E-01
         -2   -1    0    0    0  501 -0.00000000000E+00  0.00000000000E+00  0.39103456742E+03  0.39103456742E+03  0.00000000000E+00 0.  1.
          2   -1    0    0  501    0  0.00000000000E+00 -0.00000000000E+00 -0.17472734163E+04  0.17472734163E+04  0.00000000000E+00 0. -1.
         23    2    1    2    0    0  0.45709921784E+03  0.10897067063E+03 -0.94217580414E+03  0.10569594372E+04  0.93025286709E+02 0.  0.
        254    2    1    2    0    0 -0.45709921784E+03 -0.10897067063E+03 -0.41406304471E+03  0.10813485465E+04  0.88150562788E+03 0.  0.
        -24    2    4    4    0    0 -0.14331097527E+02  0.19742068329E+03  0.17698727763E+03  0.27730976069E+03  0.79974373279E+02 0.  0.
         24    2    4    4    0    0 -0.44276812032E+03 -0.30639135392E+03 -0.59105032235E+03  0.80403878580E+03  0.84962435225E+02 0.  0.
         11    1    3    3    0    0  0.32132132991E+03  0.11885574499E+03 -0.65735763149E+03  0.74127804557E+03  0.00000000000E+00 0. -1.
        -11    1    3    3    0    0  0.13577788794E+03 -0.98850743605E+01 -0.28481817265E+03  0.31568139163E+03  0.00000000000E+00 0.  1.
          2    1    6    6  502    0 -0.75780176546E+02 -0.71196737630E+02 -0.73206665360E+02  0.12716456448E+03  0.00000000000E+00 0. -1.
          3    1    5    5  503    0  0.23549036983E+02  0.47804219706E+02  0.76175037350E+02  0.92964707711E+02  0.00000000000E+00 0. -1.
         -4    1    5    5    0  503 -0.37880134511E+02  0.14961646358E+03  0.10081224028E+03  0.18434505298E+03  0.00000000000E+00 0.  1.
         -1    1    6    6    0  502 -0.36698794377E+03 -0.23519461629E+03 -0.51784365699E+03  0.67687422132E+03  0.00000000000E+00 0.  1.
<mgrwt>
<rscale>  0 0.16531719E+04</rscale>
<asrwt>0</asrwt>
<pdfrwt beam="1">  1        2 0.26881130E+00 0.16531719E+04</pdfrwt>
<pdfrwt beam="2">  1       -2 0.60159164E-01 0.16531719E+04</pdfrwt>
<totfact> 0.22701823E+01</totfact>
</mgrwt>
</event>
<event>
12    1  0.1755460E-007  0.1932645E+04  0.7818608E-02  0.8638776E-01
         -1   -1    0    0    0  501 -0.00000000000E+00  0.00000000000E+00  0.50134262178E+03  0.50134262178E+03  0.00000000000E+00 0.  1.
          1   -1    0    0  501    0  0.00000000000E+00 -0.00000000000E+00 -0.18625562955E+04  0.18625562955E+04  0.00000000000E+00 0. -1.
         23    2    1    2    0    0  0.16267716373E+03 -0.30247552475E+03  0.28130183719E+03  0.45292949139E+03  0.89772478505E+02 0.  0.
        254    2    1    2    0    0 -0.16267716373E+03  0.30247552475E+03 -0.16425155109E+04  0.19109694259E+04  0.91432578462E+03 0.  0.
        -24    2    4    4    0    0  0.22621455228E+03  0.27665767460E+03 -0.13960402594E+04  0.14432561630E+04  0.79670908097E+02 0.  0.
         24    2    4    4    0    0 -0.38889171601E+03  0.25817850145E+02 -0.24647525146E+03  0.46771326283E+03  0.78117337894E+02 0.  0.
         11    1    3    3    0    0 -0.81141187782E+01 -0.10767672359E+01  0.36215274223E+01  0.89506319384E+01  0.00000000000E+00 0. -1.
        -11    1    3    3    0    0  0.17079128251E+03 -0.30139875751E+03  0.27768030977E+03  0.44397885945E+03  0.00000000000E+00 0.  1.
          4    1    6    6  502    0 -0.29127208609E+03 -0.14396679369E+02 -0.18881202828E+03  0.34741426933E+03  0.00000000000E+00 0. -1.
          1    1    5    5  503    0  0.17559896719E+03  0.25113502591E+03 -0.12378418259E+04  0.12752082906E+04  0.00000000000E+00 0. -1.
         -2    1    5    5    0  503  0.50615585093E+02  0.25522648691E+02 -0.15819843351E+03  0.16804787239E+03  0.00000000000E+00 0.  1.
         -3    1    6    6    0  502 -0.97619629921E+02  0.40214529513E+02 -0.57663223177E+02  0.12029899350E+03  0.00000000000E+00 0.  1.
<mgrwt>
<rscale>  0 0.19326447E+04</rscale>
<asrwt>0</asrwt>
<pdfrwt beam="1">  1        1 0.28654712E+00 0.19326447E+04</pdfrwt>
<pdfrwt beam="2">  1       -1 0.77129633E-01 0.19326447E+04</pdfrwt>
<totfact> 0.58094877E+00</totfact>
</mgrwt>
</event>
<event>
12    1  0.1755460E-007  0.1592868E+04  0.7818608E-02  0.8824941E-01
          2   -1    0    0  501    0  0.00000000000E+00  0.00000000000E+00  0.59887778669E+03  0.59887778669E+03  0.00000000000E+00 0. -1.
         -2   -1    0    0    0  501 -0.00000000000E+00 -0.00000000000E+00 -0.10591600036E+04  0.10591600036E+04  0.00000000000E+00 0.  1.
         23    2    1    2    0    0 -0.23519786866E+03 -0.47300821864E+03 -0.15762746535E+03  0.55873742817E+03  0.91029025508E+02 0.  0.
        254    2    1    2    0    0  0.23519786866E+03  0.47300821864E+03 -0.30265475156E+03  0.10993003621E+04  0.91531774547E+03 0.  0.
        -24    2    4    4    0    0 -0.24184211247E+02 -0.24342125643E+03 -0.20061056657E+03  0.32649527227E+03  0.80720376838E+02 0.  0.
         24    2    4    4    0    0  0.25938207991E+03  0.71642947507E+03 -0.10204418498E+03  0.77280508984E+03  0.79148184224E+02 0.  0.
         13    1    3    3    0    0 -0.86285018027E+02 -0.25651198581E+03 -0.10766128988E+03  0.29126355168E+03  0.00000000000E+00 0.  1.
        -13    1    3    3    0    0 -0.14891285063E+03 -0.21649623283E+03 -0.49966175468E+02  0.26747387649E+03  0.00000000000E+00 0. -1.
          2    1    6    6  502    0  0.24664624871E+03  0.66892735937E+03 -0.75548095949E+02  0.71694190763E+03  0.00000000000E+00 0. -1.
          3    1    5    5  503    0 -0.41712427127E+01 -0.21246796080E+03 -0.19645209547E+03  0.28940189952E+03  0.00000000000E+00 0. -1.
         -4    1    5    5    0  503 -0.20012968534E+02 -0.30953295631E+02 -0.41584711071E+01  0.37093372749E+02  0.00000000000E+00 0.  1.
         -1    1    6    6    0  502  0.12735831201E+02  0.47502115698E+02 -0.26496089035E+02  0.55863182207E+02  0.00000000000E+00 0.  1.
<mgrwt>
<rscale>  0 0.15928684E+04</rscale>
<asrwt>0</asrwt>
<pdfrwt beam="1">  1        2 0.92135046E-01 0.15928684E+04</pdfrwt>
<pdfrwt beam="2">  1       -2 0.16294769E+00 0.15928684E+04</pdfrwt>
<totfact> 0.11418796E+01</totfact>
</mgrwt>
</event>
<event>
12    1  0.1755460E-007  0.1726948E+04  0.7818608E-02  0.8746143E-01
         -1   -1    0    0    0  501 -0.00000000000E+00  0.00000000000E+00  0.33367624836E+03  0.33367624836E+03  0.00000000000E+00 0.  1.
          1   -1    0    0  501    0  0.00000000000E+00 -0.00000000000E+00 -0.22344627525E+04  0.22344627525E+04  0.00000000000E+00 0. -1.
         23    2    1    2    0    0  0.24939418962E+02 -0.37269490303E+03 -0.14179066158E+04  0.14690648275E+04  0.90381585065E+02 0.  0.
        254    2    1    2    0    0 -0.24939418962E+02  0.37269490303E+03 -0.48287988835E+03  0.10990741734E+04  0.91392974928E+03 0.  0.
        -24    2    4    4    0    0  0.40234586356E+03 -0.36547992980E+01 -0.23493541727E+03  0.47290125685E+03  0.80903627598E+02 0.  0.
         24    2    4    4    0    0 -0.42728528252E+03  0.37634970233E+03 -0.24794447108E+03  0.62617291652E+03  0.80026555249E+02 0.  0.
         13    1    3    3    0    0 -0.30026404351E+02 -0.19576846688E+03 -0.68004341640E+03  0.70829790750E+03  0.00000000000E+00 0. -1.
        -13    1    3    3    0    0  0.54965823312E+02 -0.17692643615E+03 -0.73786319942E+03  0.76076692002E+03  0.00000000000E+00 0.  1.
          2    1    6    6  502    0 -0.42592020918E+03  0.36109985482E+03 -0.24768673463E+03  0.61085992522E+03  0.00000000000E+00 0. -1.
          3    1    5    5  503    0  0.39301556529E+03 -0.10457332798E+02 -0.23964055366E+03  0.46043260671E+03  0.00000000000E+00 0. -1.
         -4    1    5    5    0  503  0.93302982700E+01  0.68025334995E+01  0.47051363819E+01  0.12468650135E+02  0.00000000000E+00 0.  1.
         -1    1    6    6    0  502 -0.13650733412E+01  0.15249847512E+02 -0.25773645216E+00  0.15312991297E+02  0.00000000000E+00 0.  1.
<mgrwt>
<rscale>  0 0.17269478E+04</rscale>
<asrwt>0</asrwt>
<pdfrwt beam="1">  1        1 0.34376351E+00 0.17269478E+04</pdfrwt>
<pdfrwt beam="2">  1       -1 0.51334806E-01 0.17269478E+04</pdfrwt>
<totfact> 0.74831751E+00</totfact>
</mgrwt>
</event>
<event>
12    1  0.1755460E-007  0.3555665E+04  0.7818608E-02  0.8100723E-01
          2   -1    0    0  501    0  0.00000000000E+00  0.00000000000E+00  0.20006949340E+04  0.20006949340E+04  0.00000000000E+00 0.  1.
         -2   -1    0    0    0  501 -0.00000000000E+00 -0.00000000000E+00 -0.15797951840E+04  0.15797951840E+04  0.00000000000E+00 0. -1.
         23    2    1    2    0    0 -0.10149784007E+04 -0.47239144578E+03 -0.10413550216E+04  0.15318271496E+04  0.93484240099E+02 0.  0.
        254    2    1    2    0    0  0.10149784007E+04  0.47239144578E+03  0.14622547717E+04  0.20486629684E+04  0.89749435025E+03 0.  0.
        -24    2    4    4    0    0 -0.45369613604E+02  0.38269432178E+02 -0.78927577848E+02  0.12660798907E+03  0.79227956391E+02 0.  0.
         24    2    4    4    0    0  0.10603480143E+04  0.43412201360E+03  0.15411823495E+04  0.19220549793E+04  0.79072592073E+02 0.  0.
         13    1    3    3    0    0 -0.45035597129E+03 -0.25417450212E+03 -0.51147984325E+03  0.72734916544E+03  0.00000000000E+00 0. -1.
        -13    1    3    3    0    0 -0.56462242944E+03 -0.21821694366E+03 -0.52987517838E+03  0.80447798415E+03  0.00000000000E+00 0.  1.
          4    1    6    6  502    0  0.60170845018E+03  0.22099382576E+03  0.80853207686E+03  0.10318020398E+04  0.00000000000E+00 0. -1.
          1    1    5    5  503    0 -0.49887684011E+02  0.52326444422E+02 -0.84154280167E+02  0.11094494433E+03  0.00000000000E+00 0. -1.
         -2    1    5    5    0  503  0.45180704071E+01 -0.14057012244E+02  0.52267023195E+01  0.15663044741E+02  0.00000000000E+00 0.  1.
         -3    1    6    6    0  502  0.45863956416E+03  0.21312818785E+03  0.73265027265E+03  0.89025293950E+03  0.00000000000E+00 0.  1.
<mgrwt>
<rscale>  0 0.35556649E+04</rscale>
<asrwt>0</asrwt>
<pdfrwt beam="1">  1        2 0.30779922E+00 0.35556649E+04</pdfrwt>
<pdfrwt beam="2">  1       -2 0.24304541E+00 0.35556649E+04</pdfrwt>
<totfact> 0.38732631E-01</totfact>
</mgrwt>
</event>
<event>
12    1  0.1755460E-007  0.1667715E+04  0.7818608E-02  0.8779995E-01
          1   -1    0    0  501    0  0.00000000000E+00  0.00000000000E+00  0.13279805395E+04  0.13279805395E+04  0.00000000000E+00 0. -1.
         -1   -1    0    0    0  501 -0.00000000000E+00 -0.00000000000E+00 -0.52359079510E+03  0.52359079510E+03  0.00000000000E+00 0.  1.
         23    2    1    2    0    0  0.16911241975E+03  0.32611159419E+02 -0.33489423213E+03  0.38699670983E+03  0.89161698432E+02 0.  0.
        254    2    1    2    0    0 -0.16911241975E+03 -0.32611159419E+02  0.11392839765E+04  0.14645746248E+04  0.90407320174E+03 0.  0.
        -24    2    4    4    0    0  0.22346075789E+03 -0.30236742756E+03  0.75488135951E+03  0.84708225716E+03  0.79634866089E+02 0.  0.
         24    2    4    4    0    0 -0.39257317764E+03  0.26975626814E+03  0.38440261700E+03  0.61749236759E+03  0.81543289533E+02 0.  0.
         13    1    3    3    0    0  0.83279231507E+02  0.44724800086E+02 -0.10489386717E+03  0.14120361721E+03  0.00000000000E+00 0. -1.
        -13    1    3    3    0    0  0.85833188246E+02 -0.12113640668E+02 -0.23000036497E+03  0.24579309262E+03  0.00000000000E+00 0.  1.
          4    1    6    6  502    0 -0.36036005556E+03  0.21911003845E+03  0.31959580776E+03  0.52915976693E+03  0.00000000000E+00 0. -1.
          3    1    5    5  503    0  0.18808984026E+03 -0.24633446397E+03  0.54469852800E+03  0.62670163758E+03  0.00000000000E+00 0. -1.
         -4    1    5    5    0  503  0.35370917632E+02 -0.56032963588E+02  0.21018283152E+03  0.22038061958E+03  0.00000000000E+00 0.  1.
         -3    1    6    6    0  502 -0.32213122079E+02  0.50646229695E+02  0.64806809233E+02  0.88332600660E+02  0.00000000000E+00 0.  1.
<mgrwt>
<rscale>  0 0.16677151E+04</rscale>
<asrwt>0</asrwt>
<pdfrwt beam="1">  1        1 0.20430470E+00 0.16677151E+04</pdfrwt>
<pdfrwt beam="2">  1       -1 0.80552430E-01 0.16677151E+04</pdfrwt>
<totfact> 0.12671380E+01</totfact>
</mgrwt>
</event>
<event>
12    1  0.1755460E-007  0.2159659E+04  0.7818608E-02  0.8535409E-01
          1   -1    0    0  501    0  0.00000000000E+00  0.00000000000E+00  0.10900909762E+04  0.10900909762E+04  0.00000000000E+00 0. -1.
         -1   -1    0    0    0  501 -0.00000000000E+00 -0.00000000000E+00 -0.10696641849E+04  0.10696641849E+04  0.00000000000E+00 0.  1.
         23    2    1    2    0    0 -0.55558892545E+03  0.19097304628E+03  0.67631673130E+03  0.90049343753E+03  0.91292669504E+02 0.  0.
        254    2    1    2    0    0  0.55558892545E+03 -0.19097304628E+03 -0.65588993995E+03  0.12592617236E+04  0.90022148202E+03 0.  0.
        -24    2    4    4    0    0  0.60604791123E+03  0.67122437837E+02 -0.79004572089E+02  0.62039590639E+03  0.82763916623E+02 0.  0.
         24    2    4    4    0    0 -0.50458985777E+02 -0.25809548411E+03 -0.57688536786E+03  0.63886581720E+03  0.78698262827E+02 0.  0.
         11    1    3    3    0    0 -0.44087432329E+01  0.13387605830E+02  0.27057193326E+02  0.30508305713E+02  0.00000000000E+00 0.  1.
        -11    1    3    3    0    0 -0.55118018222E+03  0.17758544045E+03  0.64925953798E+03  0.86998513182E+03  0.00000000000E+00 0. -1.
          2    1    6    6  502    0 -0.64123534792E+02 -0.17333157550E+03 -0.34134527214E+03  0.38816524521E+03  0.00000000000E+00 0. -1.
          1    1    5    5  503    0  0.59597548230E+03  0.64428414593E+02 -0.65036658926E+02  0.60296564008E+03  0.00000000000E+00 0. -1.
         -2    1    5    5    0  503  0.10072428928E+02  0.26940232444E+01 -0.13967913163E+02  0.17430266317E+02  0.00000000000E+00 0.  1.
         -1    1    6    6    0  502  0.13664549015E+02 -0.84763908618E+02 -0.23554009572E+03  0.25070057199E+03  0.00000000000E+00 0.  1.
<mgrwt>
<rscale>  0 0.21596586E+04</rscale>
<asrwt>0</asrwt>
<pdfrwt beam="1">  1        1 0.16770630E+00 0.21596586E+04</pdfrwt>
<pdfrwt beam="2">  1       -1 0.16456372E+00 0.21596586E+04</pdfrwt>
<totfact> 0.31867447E+00</totfact>
</mgrwt>
</event>
<event>
12    1  0.1755460E-007  0.1133465E+04  0.7818608E-02  0.9173175E-01
          2   -1    0    0  501    0  0.00000000000E+00  0.00000000000E+00  0.13329122814E+04  0.13329122814E+04  0.00000000000E+00 0. -1.
         -2   -1    0    0    0  501 -0.00000000000E+00 -0.00000000000E+00 -0.24096528412E+03  0.24096528412E+03  0.00000000000E+00 0.  1.
         23    2    1    2    0    0  0.55047345596E+02 -0.45516936041E+02  0.44969242842E+03  0.46423093809E+03  0.90471442918E+02 0.  0.
        254    2    1    2    0    0 -0.55047345596E+02  0.45516936041E+02  0.64225456889E+03  0.11096466275E+04  0.90206579852E+03 0.  0.
        -24    2    4    4    0    0 -0.38728986789E+03  0.79554946059E+02  0.65125072367E+03  0.76610633159E+03  0.80429938458E+02 0.  0.
         24    2    4    4    0    0  0.33224252230E+03 -0.34038010018E+02 -0.89961547790E+01  0.34354029588E+03  0.79970771814E+02 0.  0.
         11    1    3    3    0    0  0.28530756768E+02 -0.35450900761E+02  0.70066209262E+02  0.83546658382E+02  0.00000000000E+00 0. -1.
        -11    1    3    3    0    0  0.26516588829E+02 -0.10066035281E+02  0.37962621916E+03  0.38068427971E+03  0.00000000000E+00 0.  1.
          4    1    6    6  502    0  0.13951746561E+03 -0.59659324736E+00  0.33248219039E+02  0.14342567135E+03  0.00000000000E+00 0. -1.
          1    1    5    5  503    0 -0.99818355467E+02  0.47704753240E+02  0.13692208817E+03  0.17603154774E+03  0.00000000000E+00 0. -1.
         -2    1    5    5    0  503 -0.28747151242E+03  0.31850192819E+02  0.51432863550E+03  0.59007478385E+03  0.00000000000E+00 0.  1.
         -3    1    6    6    0  502  0.19272505669E+03 -0.33441416770E+02 -0.42244373818E+02  0.20011462453E+03  0.00000000000E+00 0.  1.
<mgrwt>
<rscale>  0 0.11334648E+04</rscale>
<asrwt>0</asrwt>
<pdfrwt beam="1">  1        2 0.20506342E+00 0.11334648E+04</pdfrwt>
<pdfrwt beam="2">  1       -2 0.37071583E-01 0.11334648E+04</pdfrwt>
<totfact> 0.10740403E+02</totfact>
</mgrwt>
</event>
<event>
12    1  0.1755460E-007  0.2246939E+04  0.7818608E-02  0.8499141E-01
          1   -1    0    0  501    0  0.00000000000E+00  0.00000000000E+00  0.12993432967E+04  0.12993432967E+04  0.00000000000E+00 0. -1.
         -1   -1    0    0    0  501 -0.00000000000E+00 -0.00000000000E+00 -0.97140153728E+03  0.97140153728E+03  0.00000000000E+00 0.  1.
         23    2    1    2    0    0  0.81893557579E+03  0.41580850650E+03 -0.66122876475E+02  0.92526842331E+03  0.90538549839E+02 0.  0.
        254    2    1    2    0    0 -0.81893557579E+03 -0.41580850650E+03  0.39406463586E+03  0.13454764106E+04  0.90081498820E+03 0.  0.
        -24    2    4    4    0    0 -0.37825381225E+03 -0.30294609169E+03 -0.25144428000E+03  0.55180304935E+03  0.80063089956E+02 0.  0.
         24    2    4    4    0    0 -0.44068176354E+03 -0.11286241481E+03  0.64550891586E+03  0.79367336128E+03  0.79355545274E+02 0.  0.
         11    1    3    3    0    0  0.49749911519E+03  0.20433832195E+03 -0.26658559674E+02  0.53848880976E+03  0.00000000000E+00 0. -1.
        -11    1    3    3    0    0  0.32143646059E+03  0.21147018455E+03 -0.39464316801E+02  0.38677961354E+03  0.00000000000E+00 0.  1.
          2    1    6    6  502    0 -0.40478098838E+03 -0.83734751838E+02  0.60156187210E+03  0.72988755516E+03  0.00000000000E+00 0. -1.
          3    1    5    5  503    0 -0.31106107920E+03 -0.27862641470E+03 -0.23212119063E+03  0.47777810865E+03  0.00000000000E+00 0. -1.
         -4    1    5    5    0  503 -0.67192733046E+02 -0.24319676991E+02 -0.19323089377E+02  0.74024940704E+02  0.00000000000E+00 0.  1.
         -1    1    6    6    0  502 -0.35900775156E+02 -0.29127662972E+02  0.43947043761E+02  0.63785806119E+02  0.00000000000E+00 0.  1.
<mgrwt>
<rscale>  0 0.22469393E+04</rscale>
<asrwt>0</asrwt>
<pdfrwt beam="1">  1        1 0.19989897E+00 0.22469393E+04</pdfrwt>
<pdfrwt beam="2">  1       -1 0.14944639E+00 0.22469393E+04</pdfrwt>
<totfact> 0.28978301E+00</totfact>
</mgrwt>
</event>
<event>
12    1  0.1755460E-007  0.1358865E+04  0.7818608E-02  0.8984145E-01
          2   -1    0    0  501    0  0.00000000000E+00  0.00000000000E+00  0.15139035756E+04  0.15139035756E+04  0.00000000000E+00 0. -1.
         -2   -1    0    0    0  501 -0.00000000000E+00 -0.00000000000E+00 -0.30492586481E+03  0.30492586481E+03  0.00000000000E+00 0.  1.
         23    2    1    2    0    0  0.36634149892E+03 -0.82197801037E+01  0.23797043713E+03  0.44741775406E+03  0.96327872843E+02 0.  0.
        254    2    1    2    0    0 -0.36634149892E+03  0.82197801037E+01  0.97100727365E+03  0.13714116863E+04  0.89646038915E+03 0.  0.
        -24    2    4    4    0    0 -0.18695022764E+03 -0.13042840844E+03 -0.10933560775E+03  0.26465269481E+03  0.78261206269E+02 0.  0.
         24    2    4    4    0    0 -0.17939127128E+03  0.13864818854E+03  0.10803428814E+04  0.11067589915E+04  0.79813379426E+02 0.  0.
         11    1    3    3    0    0  0.26483756350E+02 -0.19898027082E+02  0.13816240205E+01  0.33154633419E+02  0.00000000000E+00 0. -1.
        -11    1    3    3    0    0  0.33985774257E+03  0.11678246978E+02  0.23658881311E+03  0.41426312065E+03  0.00000000000E+00 0.  1.
          2    1    6    6  502    0 -0.18487797883E+03  0.12926112373E+03  0.10595161705E+04  0.10832648894E+04  0.00000000000E+00 0. -1.
          1    1    5    5  503    0 -0.15939854260E+03 -0.12998698220E+03 -0.11622776908E+03  0.23624860895E+03  0.00000000000E+00 0. -1.
         -2    1    5    5    0  503 -0.27551685039E+02 -0.44142623337E+00  0.68921613345E+01  0.28404085859E+02  0.00000000000E+00 0.  1.
         -1    1    6    6    0  502  0.54867075568E+01  0.93870648065E+01  0.20826710928E+02  0.23494102102E+02  0.00000000000E+00 0.  1.
<mgrwt>
<rscale>  0 0.13588648E+04</rscale>
<asrwt>0</asrwt>
<pdfrwt beam="1">  1        2 0.23290824E+00 0.13588648E+04</pdfrwt>
<pdfrwt beam="2">  1       -2 0.46911672E-01 0.13588648E+04</pdfrwt>
<totfact> 0.52402638E+01</totfact>
</mgrwt>
</event>
<event>
12    1  0.1755460E-007  0.2515877E+04  0.7818608E-02  0.8397351E-01
          1   -1    0    0  501    0  0.00000000000E+00  0.00000000000E+00  0.10803829125E+04  0.10803829125E+04  0.00000000000E+00 0. -1.
         -1   -1    0    0    0  501 -0.00000000000E+00 -0.00000000000E+00 -0.14646739432E+04  0.14646739432E+04  0.00000000000E+00 0.  1.
         23    2    1    2    0    0 -0.17255351276E+03 -0.99088479195E+03  0.29465717101E+03  0.10519961075E+04  0.90805154573E+02 0.  0.
        254    2    1    2    0    0  0.17255351276E+03  0.99088479195E+03 -0.67894820177E+03  0.14930607482E+04  0.86984616531E+03 0.  0.
        -24    2    4    4    0    0  0.35247372223E+03  0.10618202549E+04 -0.57239388655E+03  0.12593297488E+04  0.81096708659E+02 0.  0.
         24    2    4    4    0    0 -0.17992020947E+03 -0.70935462957E+02 -0.10655431521E+03  0.23373099939E+03  0.76637042637E+02 0.  0.
         13    1    3    3    0    0 -0.22854008033E+02 -0.26888114130E+03  0.11323383227E+03  0.29264530511E+03  0.00000000000E+00 0.  1.
        -13    1    3    3    0    0 -0.14969950472E+03 -0.72200365065E+03  0.18142333875E+03  0.75935080240E+03  0.00000000000E+00 0. -1.
          4    1    6    6  502    0 -0.18511044904E+03 -0.74438493677E+02 -0.95888660178E+02  0.22136305662E+03  0.00000000000E+00 0. -1.
          1    1    5    5  503    0  0.20029958969E+03  0.64604507928E+03 -0.38755874725E+03  0.77954855696E+03  0.00000000000E+00 0. -1.
         -4    1    5    5    0  503  0.15217413254E+03  0.41577517563E+03 -0.18483513931E+03  0.47978119180E+03  0.00000000000E+00 0.  1.
         -3    1    6    6    0  502  0.51902395702E+01  0.35030307205E+01 -0.10665655036E+02  0.12367942770E+02  0.00000000000E+00 0.  1.
<mgrwt>
<rscale>  0 0.25158765E+04</rscale>
<asrwt>0</asrwt>
<pdfrwt beam="1">  1        1 0.16621276E+00 0.25158765E+04</pdfrwt>
<pdfrwt beam="2">  1       -1 0.22533445E+00 0.25158765E+04</pdfrwt>
<totfact> 0.11799560E+00</totfact>
</mgrwt>
</event>
<event>
12    1  0.1755460E-007  0.1676444E+04  0.7818608E-02  0.8774914E-01
          1   -1    0    0  501    0  0.00000000000E+00  0.00000000000E+00  0.21794942857E+04  0.21794942857E+04  0.00000000000E+00 0. -1.
         -1   -1    0    0    0  501 -0.00000000000E+00 -0.00000000000E+00 -0.32237587844E+03  0.32237587844E+03  0.00000000000E+00 0.  1.
         23    2    1    2    0    0  0.26049432331E+03 -0.31200225388E+03  0.23538662003E+02  0.41943654623E+03  0.10084765148E+03 0.  0.
        254    2    1    2    0    0 -0.26049432331E+03  0.31200225388E+03  0.18335797452E+04  0.20824336179E+04  0.89961791439E+03 0.  0.
        -24    2    4    4    0    0 -0.27966040783E+03 -0.22035934363E+03  0.11807974736E+04  0.12358389509E+04  0.79038313606E+02 0.  0.
         24    2    4    4    0    0  0.19166084524E+02  0.53236159751E+03  0.65278227168E+03  0.84659466697E+03  0.82593139108E+02 0.  0.
         13    1    3    3    0    0  0.26513158717E+03 -0.28262313071E+03  0.31048242650E+02  0.38876031935E+03  0.00000000000E+00 0.  1.
        -13    1    3    3    0    0 -0.46372638699E+01 -0.29379123170E+02 -0.75095806464E+01  0.30676226886E+02  0.00000000000E+00 0. -1.
          2    1    6    6  502    0 -0.20780634994E+02  0.40420537156E+03  0.49699408463E+03  0.64095002718E+03  0.00000000000E+00 0. -1.
          1    1    5    5  503    0 -0.10863140604E+03 -0.12554911616E+03  0.46236463922E+03  0.49126817783E+03  0.00000000000E+00 0. -1.
         -2    1    5    5    0  503 -0.17102900179E+03 -0.94810227473E+02  0.71843283435E+03  0.74457077310E+03  0.00000000000E+00 0.  1.
         -1    1    6    6    0  502  0.39946719518E+02  0.12815622595E+03  0.15578818705E+03  0.20564463979E+03  0.00000000000E+00 0.  1.
<mgrwt>
<rscale>  0 0.16764443E+04</rscale>
<asrwt>0</asrwt>
<pdfrwt beam="1">  1        1 0.33530680E+00 0.16764443E+04</pdfrwt>
<pdfrwt beam="2">  1       -1 0.49596290E-01 0.16764443E+04</pdfrwt>
<totfact> 0.87503474E+00</totfact>
</mgrwt>
</event>
<event>
12    1  0.1755460E-007  0.2705347E+04  0.7818608E-02  0.8333272E-01
          2   -1    0    0  501    0  0.00000000000E+00  0.00000000000E+00  0.31614780363E+04  0.31614780363E+04  0.00000000000E+00 0. -1.
         -2   -1    0    0    0  501 -0.00000000000E+00 -0.00000000000E+00 -0.57875637400E+03  0.57875637400E+03  0.00000000000E+00 0.  1.
         23    2    1    2    0    0  0.50125106371E+03 -0.10247258628E+02 -0.35520623128E+03  0.62132211355E+03  0.92260863156E+02 0.  0.
        254    2    1    2    0    0 -0.50125106371E+03  0.10247258628E+02  0.29379278936E+04  0.31189122968E+04  0.91914959163E+03 0.  0.
        -24    2    4    4    0    0 -0.66747007699E+03 -0.17503503209E+03  0.14450817457E+04  0.16032865285E+04  0.78184874315E+02 0.  0.
         24    2    4    4    0    0  0.16621901329E+03  0.18528229071E+03  0.14928461479E+04  0.15156257683E+04  0.81077497044E+02 0.  0.
         11    1    3    3    0    0  0.16534133171E+03 -0.60427547395E+01 -0.66296892077E+02  0.17824014350E+03  0.00000000000E+00 0. -1.
        -11    1    3    3    0    0  0.33590973199E+03 -0.42045038887E+01 -0.28890933920E+03  0.44308197005E+03  0.00000000000E+00 0.  1.
          4    1    6    6  502    0  0.17033963970E+03  0.17377404355E+03  0.13125635843E+04  0.13349292767E+04  0.00000000000E+00 0. -1.
          3    1    5    5  503    0 -0.43086310636E+03 -0.15110651877E+03  0.94118187045E+03  0.10460877161E+04  0.00000000000E+00 0. -1.
         -4    1    5    5    0  503 -0.23660697064E+03 -0.23928513319E+02  0.50389987523E+03  0.55719881242E+03  0.00000000000E+00 0.  1.
         -3    1    6    6    0  502 -0.41206264122E+01  0.11508247164E+02  0.18028256363E+03  0.18069649156E+03  0.00000000000E+00 0.  1.
<mgrwt>
<rscale>  0 0.27053470E+04</rscale>
<asrwt>0</asrwt>
<pdfrwt beam="1">  1        2 0.48638123E+00 0.27053470E+04</pdfrwt>
<pdfrwt beam="2">  1       -2 0.89039444E-01 0.27053470E+04</pdfrwt>
<totfact> 0.13047623E+00</totfact>
</mgrwt>
</event>
<event>
12    1  0.1755460E-007  0.2237360E+04  0.7818608E-02  0.8503037E-01
          2   -1    0    0  501    0  0.00000000000E+00  0.00000000000E+00  0.28244198410E+04  0.28244198410E+04  0.00000000000E+00 0. -1.
         -2   -1    0    0    0  501 -0.00000000000E+00 -0.00000000000E+00 -0.44308023928E+03  0.44308023928E+03  0.00000000000E+00 0.  1.
         23    2    1    2    0    0  0.57499770989E+03 -0.62572869110E+03  0.15811955503E+04  0.17975132598E+04  0.93358393988E+02 0.  0.
        254    2    1    2    0    0 -0.57499770989E+03  0.62572869110E+03  0.80014405140E+03  0.14699868204E+04  0.89357259805E+03 0.  0.
        -24    2    4    4    0    0  0.47454711753E+02  0.56267812391E+03  0.54964144311E+03  0.79191854698E+03  0.78553474012E+02 0.  0.
         24    2    4    4    0    0 -0.62245242164E+03  0.63050567192E+02  0.25050260829E+03  0.67806827344E+03  0.74850754546E+02 0.  0.
         13    1    3    3    0    0  0.25110812720E+03 -0.22549298041E+03  0.55925195890E+03  0.65319608794E+03  0.00000000000E+00 0.  1.
        -13    1    3    3    0    0  0.32388958268E+03 -0.40023571069E+03  0.10219435914E+04  0.11443171719E+04  0.00000000000E+00 0. -1.
          4    1    6    6  502    0 -0.88974243963E+02  0.24326004998E+02  0.14248866612E+02  0.93333813850E+02  0.00000000000E+00 0. -1.
          1    1    5    5  503    0  0.38998169482E+01  0.24559183049E+02  0.56491483375E+01  0.25500488646E+02  0.00000000000E+00 0. -1.
         -2    1    5    5    0  503  0.43554894805E+02  0.53811894086E+03  0.54399229477E+03  0.76641805834E+03  0.00000000000E+00 0.  1.
         -3    1    6    6    0  502 -0.53347817768E+03  0.38724562194E+02  0.23625374168E+03  0.58473445959E+03  0.00000000000E+00 0.  1.
<mgrwt>
<rscale>  0 0.22373597E+04</rscale>
<asrwt>0</asrwt>
<pdfrwt beam="1">  1        2 0.43452612E+00 0.22373597E+04</pdfrwt>
<pdfrwt beam="2">  1       -2 0.68166192E-01 0.22373597E+04</pdfrwt>
<totfact> 0.40136313E+00</totfact>
</mgrwt>
</event>
<event>
12    1  0.1755460E-007  0.1743328E+04  0.7818608E-02  0.8737032E-01
         -1   -1    0    0    0  501 -0.00000000000E+00  0.00000000000E+00  0.49503756670E+03  0.49503756670E+03  0.00000000000E+00 0.  1.
          1   -1    0    0  501    0  0.00000000000E+00 -0.00000000000E+00 -0.15348288097E+04  0.15348288097E+04  0.00000000000E+00 0. -1.
         23    2    1    2    0    0  0.22025683033E+03  0.22134567274E+03 -0.10121275038E+04  0.10642217882E+04  0.10324220220E+03 0.  0.
        254    2    1    2    0    0 -0.22025683033E+03 -0.22134567274E+03 -0.27663739156E+02  0.96564458819E+03  0.91334397140E+03 0.  0.
        -24    2    4    4    0    0 -0.27125661650E+03  0.15042332385E+03 -0.34250627752E+03  0.46963964868E+03  0.83925688070E+02 0.  0.
         24    2    4    4    0    0  0.50999786168E+02 -0.37176899659E+03  0.31484253836E+03  0.49600493951E+03  0.77986608088E+02 0.  0.
         13    1    3    3    0    0  0.11235296853E+03  0.18227808802E+03 -0.66168375795E+03  0.69546666810E+03  0.00000000000E+00 0.  1.
        -13    1    3    3    0    0  0.10790386180E+03  0.39067584717E+02 -0.35044374589E+03  0.36875512010E+03  0.00000000000E+00 0. -1.
          4    1    6    6  502    0 -0.73032348771E+00 -0.39176447537E+02  0.68712381453E+01  0.39781168003E+02  0.00000000000E+00 0. -1.
          3    1    5    5  503    0 -0.12630656212E+02  0.31615661451E+02 -0.57741831333E+02  0.67031355432E+02  0.00000000000E+00 0. -1.
         -4    1    5    5    0  503 -0.25862596029E+03  0.11880766240E+03 -0.28476444619E+03  0.40260829325E+03  0.00000000000E+00 0.  1.
         -3    1    6    6    0  502  0.51730109655E+02 -0.33259254905E+03  0.30797130022E+03  0.45622377151E+03  0.00000000000E+00 0.  1.
<mgrwt>
<rscale>  0 0.17433278E+04</rscale>
<asrwt>0</asrwt>
<pdfrwt beam="1">  1        1 0.23612751E+00 0.17433278E+04</pdfrwt>
<pdfrwt beam="2">  1       -1 0.76159625E-01 0.17433278E+04</pdfrwt>
<totfact> 0.10157236E+01</totfact>
</mgrwt>
</event>
<event>
12    1  0.1755460E-007  0.1867890E+04  0.7818608E-02  0.8671007E-01
          1   -1    0    0  501    0  0.00000000000E+00  0.00000000000E+00  0.53388060518E+03  0.53388060518E+03  0.00000000000E+00 0. -1.
         -1   -1    0    0    0  501 -0.00000000000E+00 -0.00000000000E+00 -0.16337982884E+04  0.16337982884E+04  0.00000000000E+00 0.  1.
         23    2    1    2    0    0  0.15311484401E+03 -0.62734909673E+03 -0.73845395357E+03  0.98501003423E+03  0.88991467932E+02 0.  0.
        254    2    1    2    0    0 -0.15311484401E+03  0.62734909673E+03 -0.36146372968E+03  0.11826688594E+04  0.92251751119E+03 0.  0.
        -24    2    4    4    0    0 -0.19908605288E+03  0.17106186603E+03  0.27888798765E+03  0.39129667193E+03  0.80231897306E+02 0.  0.
         24    2    4    4    0    0  0.45971208868E+02  0.45628723070E+03 -0.64035171732E+03  0.79137218746E+03  0.76865000195E+02 0.  0.
         13    1    3    3    0    0  0.27092678695E+02 -0.12992272753E+03 -0.10156284016E+03  0.16711953467E+03  0.00000000000E+00 0. -1.
        -13    1    3    3    0    0  0.12602216532E+03 -0.49742636920E+03 -0.63689111340E+03  0.81789049955E+03  0.00000000000E+00 0.  1.
          2    1    6    6  502    0  0.50079943922E+01  0.10540605436E+02 -0.45158793864E+02  0.46642266605E+02  0.00000000000E+00 0. -1.
          1    1    5    5  503    0 -0.83902807741E+02  0.48024677133E+02  0.55538168132E+02  0.11149232655E+03  0.00000000000E+00 0. -1.
         -2    1    5    5    0  503 -0.11518324514E+03  0.12303718890E+03  0.22334981952E+03  0.27980434537E+03  0.00000000000E+00 0.  1.
         -1    1    6    6    0  502  0.40963214476E+02  0.44574662526E+03 -0.59519292346E+03  0.74472992085E+03  0.00000000000E+00 0.  1.
<mgrwt>
<rscale>  0 0.18678900E+04</rscale>
<asrwt>0</asrwt>
<pdfrwt beam="1">  1        1 0.82135479E-01 0.18678900E+04</pdfrwt>
<pdfrwt beam="2">  1       -1 0.25135358E+00 0.18678900E+04</pdfrwt>
<totfact> 0.25927635E+00</totfact>
</mgrwt>
</event>
<event>
12    1  0.1755460E-007  0.1742295E+04  0.7818608E-02  0.8737603E-01
         -1   -1    0    0    0  501 -0.00000000000E+00  0.00000000000E+00  0.27970869964E+03  0.27970869964E+03  0.00000000000E+00 0.  1.
          1   -1    0    0  501    0  0.00000000000E+00 -0.00000000000E+00 -0.27131726751E+04  0.27131726751E+04  0.00000000000E+00 0. -1.
         23    2    1    2    0    0  0.64592320731E+03 -0.66027441338E+02 -0.92620432956E+03  0.11348491523E+04  0.91933267279E+02 0.  0.
        254    2    1    2    0    0 -0.64592320731E+03  0.66027441338E+02 -0.15072596459E+04  0.18580322224E+04  0.87113471214E+03 0.  0.
        -24    2    4    4    0    0  0.66828334078E+02 -0.21929967120E+03 -0.12117725492E+03  0.27144108528E+03  0.80236921955E+02 0.  0.
         24    2    4    4    0    0 -0.71275154139E+03  0.28532711254E+03 -0.13860823909E+04  0.15865911371E+04  0.81367813118E+02 0.  0.
         13    1    3    3    0    0  0.28235727305E+03 -0.35372564187E+02 -0.32879834070E+03  0.43483927697E+03  0.00000000000E+00 0.  1.
        -13    1    3    3    0    0  0.36356593425E+03 -0.30654877151E+02 -0.59740598886E+03  0.70000987533E+03  0.00000000000E+00 0. -1.
          2    1    6    6  502    0 -0.79073974179E+02  0.11814557148E+02 -0.11249849020E+03  0.13801517109E+03  0.00000000000E+00 0. -1.
          1    1    5    5  503    0  0.38508025252E+02 -0.83439581376E+02 -0.91179715060E+02  0.12945567654E+03  0.00000000000E+00 0. -1.
         -2    1    5    5    0  503  0.28320308827E+02 -0.13586008983E+03 -0.29997539861E+02  0.14198540875E+03  0.00000000000E+00 0.  1.
         -1    1    6    6    0  502 -0.63367756721E+03  0.27351255539E+03 -0.12735839007E+04  0.14485759660E+04  0.00000000000E+00 0.  1.
<mgrwt>
<rscale>  0 0.17422950E+04</rscale>
<asrwt>0</asrwt>
<pdfrwt beam="1">  1        1 0.41741119E+00 0.17422950E+04</pdfrwt>
<pdfrwt beam="2">  1       -1 0.43032107E-01 0.17422950E+04</pdfrwt>
<totfact> 0.48588374E+00</totfact>
</mgrwt>
</event>
<event>
12    1  0.1755460E-007  0.1623334E+04  0.7818608E-02  0.8806340E-01
         -2   -1    0    0    0  501 -0.00000000000E+00  0.00000000000E+00  0.48641875536E+03  0.48641875536E+03  0.00000000000E+00 0.  1.
          2   -1    0    0  501    0  0.00000000000E+00 -0.00000000000E+00 -0.13543948320E+04  0.13543948320E+04  0.00000000000E+00 0. -1.
         23    2    1    2    0    0 -0.19371068703E+03 -0.12161224313E+03 -0.89094049374E+03  0.92448420378E+03  0.92642925838E+02 0.  0.
        254    2    1    2    0    0  0.19371068703E+03  0.12161224313E+03  0.22964417056E+02  0.91632938363E+03  0.88702807560E+03 0.  0.
        -24    2    4    4    0    0  0.10503823123E+03  0.49189507041E+03  0.10246520866E+03  0.51890518578E+03  0.75958426321E+02 0.  0.
         24    2    4    4    0    0  0.88672455798E+02 -0.37028282728E+03 -0.79500791606E+02  0.39742419785E+03  0.81568624930E+02 0.  0.
         11    1    3    3    0    0 -0.11778666000E+03 -0.36135589478E+02 -0.33567854678E+03  0.35757455848E+03  0.00000000000E+00 0. -1.
        -11    1    3    3    0    0 -0.75924027034E+02 -0.85476653650E+02 -0.55526194695E+03  0.56690964530E+03  0.00000000000E+00 0.  1.
          2    1    6    6  502    0 -0.13682245173E+02 -0.71204675927E+02 -0.24715251315E+02  0.76603872972E+02  0.00000000000E+00 0. -1.
          3    1    5    5  503    0  0.94170188200E+02  0.26601540332E+03  0.66509033944E+02  0.28992356018E+03  0.00000000000E+00 0. -1.
         -4    1    5    5    0  503  0.10868043035E+02  0.22587966709E+03  0.35956174718E+02  0.22898162560E+03  0.00000000000E+00 0.  1.
         -1    1    6    6    0  502  0.10235470097E+03 -0.29907815136E+03 -0.54785540291E+02  0.32082032488E+03  0.00000000000E+00 0.  1.
<mgrwt>
<rscale>  0 0.16233337E+04</rscale>
<asrwt>0</asrwt>
<pdfrwt beam="1">  1        2 0.20836843E+00 0.16233337E+04</pdfrwt>
<pdfrwt beam="2">  1       -2 0.74833656E-01 0.16233337E+04</pdfrwt>
<totfact> 0.23612283E+01</totfact>
</mgrwt>
</event>
<event>
12    1  0.1755460E-007  0.1764107E+04  0.7818608E-02  0.8725623E-01
          2   -1    0    0  501    0  0.00000000000E+00  0.00000000000E+00  0.16756500058E+04  0.16756500058E+04  0.00000000000E+00 0.  1.
         -2   -1    0    0    0  501 -0.00000000000E+00 -0.00000000000E+00 -0.46430862555E+03  0.46430862555E+03  0.00000000000E+00 0. -1.
         23    2    1    2    0    0  0.13174106789E+03 -0.91292951916E+02 -0.31219905433E+03  0.36443392770E+03  0.98253377021E+02 0.  0.
        254    2    1    2    0    0 -0.13174106789E+03  0.91292951916E+02  0.15235404346E+04  0.17755247037E+04  0.89756470822E+03 0.  0.
        -24    2    4    4    0    0 -0.18283291643E+02  0.46058404641E+03  0.11078411843E+04  0.12026503104E+04  0.81140230763E+02 0.  0.
         24    2    4    4    0    0 -0.11345777625E+03 -0.36929109449E+03  0.41569925035E+03  0.57287439326E+03  0.78298302952E+02 0.  0.
         13    1    3    3    0    0  0.10984820522E+03 -0.37368383425E+02 -0.26573417006E+03  0.28996150332E+03  0.00000000000E+00 0. -1.
        -13    1    3    3    0    0  0.21892862671E+02 -0.53924568491E+02 -0.46464884268E+02  0.74472424379E+02  0.00000000000E+00 0.  1.
          2    1    6    6  502    0 -0.88950886079E+02 -0.35459523872E+03  0.38388485651E+03  0.53011095680E+03  0.00000000000E+00 0. -1.
          1    1    5    5  503    0 -0.22173990733E+02  0.30141341378E+03  0.62506372865E+03  0.69429561193E+03  0.00000000000E+00 0. -1.
         -2    1    5    5    0  503  0.38906990904E+01  0.15917063263E+03  0.48277745561E+03  0.50835469849E+03  0.00000000000E+00 0.  1.
         -1    1    6    6    0  502 -0.24506890171E+02 -0.14695855777E+02  0.31814393834E+02  0.42763436461E+02  0.00000000000E+00 0.  1.
<mgrwt>
<rscale>  0 0.17641074E+04</rscale>
<asrwt>0</asrwt>
<pdfrwt beam="1">  1        2 0.25779231E+00 0.17641074E+04</pdfrwt>
<pdfrwt beam="2">  1       -2 0.71432097E-01 0.17641074E+04</pdfrwt>
<totfact> 0.17032612E+01</totfact>
</mgrwt>
</event>
<event>
12    1  0.2269198E-007  0.1880665E+04  0.7818608E-02  0.8664541E-01
          1   -1    0    0  501    0  0.00000000000E+00  0.00000000000E+00  0.10392607399E+04  0.10392607399E+04  0.00000000000E+00 0. -1.
         -1   -1    0    0    0  501 -0.00000000000E+00 -0.00000000000E+00 -0.85082153286E+03  0.85082153286E+03  0.00000000000E+00 0.  1.
         23    2    1    2    0    0  0.20927046470E+03 -0.40918085112E+03  0.63031218813E+03  0.78515445566E+03  0.89168202968E+02 0.  0.
        254    2    1    2    0    0 -0.20927046470E+03  0.40918085112E+03 -0.44187298112E+03  0.11049278171E+04  0.90243595517E+03 0.  0.
        -24    2    4    4    0    0 -0.30882866893E+03  0.60556248088E+03 -0.10159449553E+03  0.69193844439E+03  0.79851764561E+02 0.  0.
         24    2    4    4    0    0  0.99558204236E+02 -0.19638162975E+03 -0.34027848559E+03  0.41298937269E+03  0.79329651866E+02 0.  0.
         13    1    3    3    0    0  0.20006863005E+03 -0.40640951787E+03  0.59070526816E+03  0.74439832535E+03  0.00000000000E+00 0. -1.
        -13    1    3    3    0    0  0.92018346459E+01 -0.27713332537E+01  0.39606919971E+02  0.40756130317E+02  0.00000000000E+00 0.  1.
          2    1    6    6  502    0  0.10825352205E+03 -0.18876691531E+03 -0.29694812184E+03  0.36814393981E+03  0.00000000000E+00 0. -1.
          1    1    5    5  503    0 -0.30620023314E+03  0.56076689990E+03 -0.87372193515E+02  0.64486587675E+03  0.00000000000E+00 0. -1.
         -2    1    5    5    0  503 -0.26284357965E+01  0.44795580972E+02 -0.14222302015E+02  0.47072567637E+02  0.00000000000E+00 0.  1.
         -1    1    6    6    0  502 -0.86953178128E+01 -0.76147144403E+01 -0.43330363746E+02  0.44845432880E+02  0.00000000000E+00 0.  1.
<mgrwt>
<rscale>  0 0.18806652E+04</rscale>
<asrwt>0</asrwt>
<pdfrwt beam="1">  1        1 0.15988627E+00 0.18806652E+04</pdfrwt>
<pdfrwt beam="2">  1       -1 0.13089562E+00 0.18806652E+04</pdfrwt>
<totfact> 0.65890082E+00</totfact>
</mgrwt>
</event>
<event>
12    1  0.1755460E-007  0.1991504E+04  0.7818608E-02  0.8610603E-01
          2   -1    0    0  501    0  0.00000000000E+00  0.00000000000E+00  0.19133139899E+04  0.19133139899E+04  0.00000000000E+00 0. -1.
         -2   -1    0    0    0  501 -0.00000000000E+00 -0.00000000000E+00 -0.51822251626E+03  0.51822251626E+03  0.00000000000E+00 0.  1.
         23    2    1    2    0    0 -0.15212487492E+03 -0.44071869515E+03  0.13388893738E+04  0.14206266530E+04  0.90445486060E+02 0.  0.
        254    2    1    2    0    0  0.15212487492E+03  0.44071869515E+03  0.56202099828E+02  0.10109098532E+04  0.89521232647E+03 0.  0.
        -24    2    4    4    0    0  0.67218868229E+01  0.67176730286E+03 -0.10424632067E+03  0.68456604832E+03  0.80292503914E+02 0.  0.
         24    2    4    4    0    0  0.14540298809E+03 -0.23104860771E+03  0.16044842050E+03  0.32634380489E+03  0.78937286984E+02 0.  0.
         11    1    3    3    0    0 -0.79051509106E+02 -0.18652855298E+03  0.45609730242E+03  0.49906591894E+03  0.00000000000E+00 0. -1.
        -11    1    3    3    0    0 -0.73073365809E+02 -0.25419014217E+03  0.88279207142E+03  0.92156073404E+03  0.00000000000E+00 0.  1.
          2    1    6    6  502    0  0.14851145439E+02 -0.77206542528E+02  0.69843283021E+02  0.10516411419E+03  0.00000000000E+00 0. -1.
          1    1    5    5  503    0  0.19974982573E+02  0.46391985562E+03 -0.10597584807E+03  0.47628931621E+03  0.00000000000E+00 0. -1.
         -2    1    5    5    0  503 -0.13253095750E+02  0.20784744725E+03  0.17295273967E+01  0.20827673211E+03  0.00000000000E+00 0.  1.
         -1    1    6    6    0  502  0.13055184265E+03 -0.15384206518E+03  0.90605137476E+02  0.22117969070E+03  0.00000000000E+00 0.  1.
<mgrwt>
<rscale>  0 0.19915043E+04</rscale>
<asrwt>0</asrwt>
<pdfrwt beam="1">  1        2 0.29435600E+00 0.19915043E+04</pdfrwt>
<pdfrwt beam="2">  1       -2 0.79726542E-01 0.19915043E+04</pdfrwt>
<totfact> 0.96671552E+00</totfact>
</mgrwt>
</event>
<event>
12    1  0.1755460E-007  0.1600161E+04  0.7818608E-02  0.8820449E-01
          2   -1    0    0  501    0  0.00000000000E+00  0.00000000000E+00  0.91952644532E+03  0.91952644532E+03  0.00000000000E+00 0.  1.
         -2   -1    0    0    0  501 -0.00000000000E+00 -0.00000000000E+00 -0.69615025221E+03  0.69615025221E+03  0.00000000000E+00 0. -1.
         23    2    1    2    0    0  0.96375614657E+02  0.39853113220E+03 -0.28450558642E+03  0.50704220207E+03  0.89627247748E+02 0.  0.
        254    2    1    2    0    0 -0.96375614657E+02 -0.39853113220E+03  0.50788177952E+03  0.11086344955E+04  0.89610893318E+03 0.  0.
        -24    2    4    4    0    0 -0.13041580348E+03 -0.34300491619E+03  0.75389066744E+03  0.84211475955E+03  0.78393083102E+02 0.  0.
         24    2    4    4    0    0  0.34040188823E+02 -0.55526216008E+02 -0.24600888791E+03  0.26651973591E+03  0.79186498707E+02 0.  0.
         11    1    3    3    0    0  0.98521153750E+02  0.35658551222E+03 -0.28162456156E+03  0.46494304913E+03  0.00000000000E+00 0. -1.
        -11    1    3    3    0    0 -0.21455390928E+01  0.41945619985E+02 -0.28810248598E+01  0.42099152939E+02  0.00000000000E+00 0.  1.
          4    1    6    6  502    0 -0.74062940849E+01 -0.11271618658E+02 -0.35285673850E+00  0.13491741441E+02  0.00000000000E+00 0. -1.
          3    1    5    5  503    0 -0.24368453835E+01 -0.92818792129E+02  0.15749465152E+03  0.18282732740E+03  0.00000000000E+00 0. -1.
         -4    1    5    5    0  503 -0.12797895810E+03 -0.25018612406E+03  0.59639601592E+03  0.65928743215E+03  0.00000000000E+00 0.  1.
         -3    1    6    6    0  502  0.41446482908E+02 -0.44254597351E+02 -0.24565603117E+03  0.25302799447E+03  0.00000000000E+00 0.  1.
<mgrwt>
<rscale>  0 0.16001607E+04</rscale>
<asrwt>0</asrwt>
<pdfrwt beam="1">  1        2 0.14146561E+00 0.16001607E+04</pdfrwt>
<pdfrwt beam="2">  1       -2 0.10710004E+00 0.16001607E+04</pdfrwt>
<totfact> 0.19120729E+01</totfact>
</mgrwt>
</event>
<event>
12    1  0.1755460E-007  0.1166843E+04  0.7818608E-02  0.9142384E-01
          1   -1    0    0  501    0  0.00000000000E+00  0.00000000000E+00  0.70867255638E+03  0.70867255638E+03  0.00000000000E+00 0. -1.
         -1   -1    0    0    0  501 -0.00000000000E+00 -0.00000000000E+00 -0.48030740686E+03  0.48030740686E+03  0.00000000000E+00 0.  1.
         23    2    1    2    0    0 -0.11402596661E+03  0.31115060935E+01 -0.12844154944E+03  0.21155076020E+03  0.12347019878E+03 0.  0.
        254    2    1    2    0    0  0.11402596661E+03 -0.31115060935E+01  0.35680669896E+03  0.97742920305E+03  0.90279855119E+03 0.  0.
        -24    2    4    4    0    0  0.23311745899E+03 -0.28778859035E+03  0.50028909792E+03  0.62761973767E+03  0.80320179200E+02 0.  0.
         24    2    4    4    0    0 -0.11909149238E+03  0.28467708426E+03 -0.14348239896E+03  0.34980946538E+03  0.80966890769E+02 0.  0.
         11    1    3    3    0    0 -0.38899627038E+02 -0.53547679550E+02 -0.85485859858E+02  0.10811275228E+03  0.00000000000E+00 0.  1.
        -11    1    3    3    0    0 -0.75126339570E+02  0.56659185644E+02 -0.42955689581E+02  0.10343800792E+03  0.00000000000E+00 0. -1.
          4    1    6    6  502    0 -0.38920353603E+02  0.17662484833E+03 -0.10803525893E+03  0.21067213424E+03  0.00000000000E+00 0. -1.
          1    1    5    5  503    0  0.19213603220E+03 -0.22865489929E+03  0.34396497152E+03  0.45553399376E+03  0.00000000000E+00 0. -1.
         -2    1    5    5    0  503  0.40981426788E+02 -0.59133691061E+02  0.15632412640E+03  0.17208574390E+03  0.00000000000E+00 0.  1.
         -1    1    6    6    0  502 -0.80171138778E+02  0.10805223593E+03 -0.35447140034E+02  0.13913733115E+03  0.00000000000E+00 0.  1.
<mgrwt>
<rscale>  0 0.11668431E+04</rscale>
<asrwt>0</asrwt>
<pdfrwt beam="1">  1        1 0.10902655E+00 0.11668431E+04</pdfrwt>
<pdfrwt beam="2">  1       -1 0.73893447E-01 0.11668431E+04</pdfrwt>
<totfact> 0.48938882E+01</totfact>
</mgrwt>
</event>
<event>
12    1  0.1755460E-007  0.1758657E+04  0.7818608E-02  0.8728599E-01
         -2   -1    0    0    0  501 -0.00000000000E+00  0.00000000000E+00  0.27246589396E+03  0.27246589396E+03  0.00000000000E+00 0.  1.
          2   -1    0    0  501    0  0.00000000000E+00 -0.00000000000E+00 -0.28378560911E+04  0.28378560911E+04  0.00000000000E+00 0. -1.
         23    2    1    2    0    0  0.56997178749E+03  0.21851905112E+03 -0.13843966082E+04  0.15157099305E+04  0.90577095956E+02 0.  0.
        254    2    1    2    0    0 -0.56997178749E+03 -0.21851905112E+03 -0.11809935889E+04  0.15946120546E+04  0.88058124739E+03 0.  0.
        -24    2    4    4    0    0 -0.14561292000E+03  0.12456769649E+03 -0.98834792439E+03  0.10101332697E+04  0.82567362492E+02 0.  0.
         24    2    4    4    0    0 -0.42435886748E+03 -0.34308674762E+03 -0.19264566453E+03  0.58447878490E+03  0.81939814095E+02 0.  0.
         13    1    3    3    0    0  0.35763266180E+03  0.15705504884E+03 -0.97735278034E+03  0.10525140694E+04  0.00000000000E+00 0. -1.
        -13    1    3    3    0    0  0.21233912568E+03  0.61464002288E+02 -0.40704382791E+03  0.46319586107E+03  0.00000000000E+00 0.  1.
          2    1    6    6  502    0 -0.42482261268E+03 -0.33203762728E+03 -0.18185958382E+03  0.56903088352E+03  0.00000000000E+00 0. -1.
          1    1    5    5  503    0 -0.34463800773E+02  0.23998538296E+02 -0.42894905516E+03  0.43099997137E+03  0.00000000000E+00 0. -1.
         -2    1    5    5    0  503 -0.11114911923E+03  0.10056915820E+03 -0.55939886924E+03  0.57913329829E+03  0.00000000000E+00 0.  1.
         -1    1    6    6    0  502  0.46374519837E+00 -0.11049120339E+02 -0.10786080714E+02  0.15447901380E+02  0.00000000000E+00 0.  1.
<mgrwt>
<rscale>  0 0.17586574E+04</rscale>
<asrwt>0</asrwt>
<pdfrwt beam="1">  1        2 0.43659325E+00 0.17586574E+04</pdfrwt>
<pdfrwt beam="2">  1       -2 0.41917829E-01 0.17586574E+04</pdfrwt>
<totfact> 0.11238690E+01</totfact>
</mgrwt>
</event>
<event>
12    1  0.1755460E-007  0.1406849E+04  0.7818608E-02  0.8948876E-01
         -1   -1    0    0    0  501 -0.00000000000E+00  0.00000000000E+00  0.68143033418E+03  0.68143033418E+03  0.00000000000E+00 0.  1.
          1   -1    0    0  501    0  0.00000000000E+00 -0.00000000000E+00 -0.72612848160E+03  0.72612848160E+03  0.00000000000E+00 0. -1.
         23    2    1    2    0    0 -0.99477837056E+02  0.12553878969E+03  0.36131388547E+03  0.40560465392E+03  0.91167887225E+02 0.  0.
        254    2    1    2    0    0  0.99477837056E+02 -0.12553878969E+03 -0.40601203289E+03  0.10019541619E+04  0.90189275629E+03 0.  0.
        -24    2    4    4    0    0  0.18240876382E+03 -0.18210612584E+03  0.22896837909E+03  0.35399136652E+03  0.80298012165E+02 0.  0.
         24    2    4    4    0    0 -0.82930926766E+02  0.56567336150E+02 -0.63498041198E+03  0.64796279535E+03  0.81106463497E+02 0.  0.
         13    1    3    3    0    0 -0.76799555895E+02  0.10226873069E+03  0.17655823753E+03  0.21801347734E+03  0.00000000000E+00 0. -1.
        -13    1    3    3    0    0 -0.22678281162E+02  0.23270059002E+02  0.18475564795E+03  0.18759117658E+03  0.00000000000E+00 0.  1.
          4    1    6    6  502    0 -0.99106722245E+02  0.44363710240E+02 -0.54790829258E+03  0.55856403237E+03  0.00000000000E+00 0. -1.
          1    1    5    5  503    0  0.18082412738E+03 -0.14712127966E+03  0.18392173701E+03  0.29693305864E+03  0.00000000000E+00 0. -1.
         -2    1    5    5    0  503  0.15846364472E+01 -0.34984846177E+02  0.45046642078E+02  0.57058307872E+02  0.00000000000E+00 0.  1.
         -3    1    6    6    0  502  0.16175795479E+02  0.12203625910E+02 -0.87072119406E+02  0.89398762981E+02  0.00000000000E+00 0.  1.
<mgrwt>
<rscale>  0 0.14068489E+04</rscale>
<asrwt>0</asrwt>
<pdfrwt beam="1">  1        1 0.11171207E+00 0.14068489E+04</pdfrwt>
<pdfrwt beam="2">  1       -1 0.10483544E+00 0.14068489E+04</pdfrwt>
<totfact> 0.21456089E+01</totfact>
</mgrwt>
</event>
<event>
12    1  0.1755460E-007  0.1564758E+04  0.7818608E-02  0.8842496E-01
         -1   -1    0    0    0  501 -0.00000000000E+00  0.00000000000E+00  0.28454775534E+04  0.28454775534E+04  0.00000000000E+00 0.  1.
          1   -1    0    0  501    0  0.00000000000E+00 -0.00000000000E+00 -0.21511907852E+03  0.21511907852E+03  0.00000000000E+00 0. -1.
         23    2    1    2    0    0 -0.31685672421E+03  0.19495515352E+03  0.17350065500E+03  0.42042354883E+03  0.90817330780E+02 0.  0.
        254    2    1    2    0    0  0.31685672421E+03 -0.19495515352E+03  0.24568578199E+04  0.26401730831E+04  0.89216470789E+03 0.  0.
        -24    2    4    4    0    0  0.92089058057E+02  0.27943304319E+03  0.16253976039E+04  0.16537584735E+04  0.80227786729E+02 0.  0.
         24    2    4    4    0    0  0.22476766615E+03 -0.47438819671E+03  0.83146021603E+03  0.98641460961E+03  0.78249768575E+02 0.  0.
         13    1    3    3    0    0 -0.22837082144E+03  0.15593551491E+03  0.16799320146E+03  0.32355962763E+03  0.00000000000E+00 0. -1.
        -13    1    3    3    0    0 -0.88485902770E+02  0.39019638607E+02  0.55074535318E+01  0.96863921201E+02  0.00000000000E+00 0.  1.
          4    1    6    6  502    0  0.37317606543E+02 -0.63586275910E+02  0.17241842713E+03  0.18752048490E+03  0.00000000000E+00 0. -1.
          3    1    5    5  503    0  0.18193124235E+02  0.40961853547E+02  0.12636406674E+03  0.13407736789E+03  0.00000000000E+00 0. -1.
         -4    1    5    5    0  503  0.73895933822E+02  0.23847118964E+03  0.14990335372E+04  0.15196811056E+04  0.00000000000E+00 0.  1.
         -3    1    6    6    0  502  0.18745005961E+03 -0.41080192080E+03  0.65904178890E+03  0.79889412471E+03  0.00000000000E+00 0.  1.
<mgrwt>
<rscale>  0 0.15647575E+04</rscale>
<asrwt>0</asrwt>
<pdfrwt beam="1">  1        1 0.33095245E-01 0.15647575E+04</pdfrwt>
<pdfrwt beam="2">  1       -1 0.43776575E+00 0.15647575E+04</pdfrwt>
<totfact> 0.51453065E-01</totfact>
</mgrwt>
</event>
<event>
12    1  0.1755460E-007  0.2905347E+04  0.7818608E-02  0.8271288E-01
          1   -1    0    0  501    0  0.00000000000E+00  0.00000000000E+00  0.16498816020E+04  0.16498816020E+04  0.00000000000E+00 0. -1.
         -1   -1    0    0    0  501 -0.00000000000E+00 -0.00000000000E+00 -0.12790375796E+04  0.12790375796E+04  0.00000000000E+00 0.  1.
         23    2    1    2    0    0 -0.73286623910E+03  0.11432216632E+03  0.12570068600E+04  0.14624481487E+04  0.92335580747E+02 0.  0.
        254    2    1    2    0    0  0.73286623910E+03 -0.11432216632E+03 -0.88616283754E+03  0.14664710329E+04  0.90282347859E+03 0.  0.
        -24    2    4    4    0    0 -0.13197806421E+03  0.13961706901E+03 -0.37118085696E+03  0.42524503069E+03  0.78402628536E+02 0.  0.
         24    2    4    4    0    0  0.86484430331E+03 -0.25393923532E+03 -0.51498198058E+03  0.10412260022E+04  0.80649507710E+02 0.  0.
         11    1    3    3    0    0 -0.58775842370E+03  0.95780239726E+02  0.93162154662E+03  0.11056909718E+04  0.00000000000E+00 0. -1.
        -11    1    3    3    0    0 -0.14510781540E+03  0.18541926591E+02  0.32538531335E+03  0.35675717691E+03  0.00000000000E+00 0.  1.
          4    1    6    6  502    0  0.63698913494E+03 -0.22045054658E+03 -0.40012630202E+03  0.78387158329E+03  0.00000000000E+00 0. -1.
          1    1    5    5  503    0 -0.58173441610E+02  0.11578932608E+03 -0.21979497849E+03  0.25514926986E+03  0.00000000000E+00 0. -1.
         -2    1    5    5    0  503 -0.73804622600E+02  0.23827742924E+02 -0.15138587847E+03  0.17009576083E+03  0.00000000000E+00 0.  1.
         -3    1    6    6    0  502  0.22785516837E+03 -0.33488688744E+02 -0.11485567856E+03  0.25735441889E+03  0.00000000000E+00 0.  1.
<mgrwt>
<rscale>  0 0.29053472E+04</rscale>
<asrwt>0</asrwt>
<pdfrwt beam="1">  1        1 0.25382794E+00 0.29053472E+04</pdfrwt>
<pdfrwt beam="2">  1       -1 0.19677501E+00 0.29053472E+04</pdfrwt>
<totfact> 0.70113442E-01</totfact>
</mgrwt>
</event>
<event>
12    1  0.1755460E-007  0.1434647E+04  0.7818608E-02  0.8929114E-01
          2   -1    0    0  501    0  0.00000000000E+00  0.00000000000E+00  0.21585757005E+04  0.21585757005E+04  0.00000000000E+00 0. -1.
         -2   -1    0    0    0  501 -0.00000000000E+00 -0.00000000000E+00 -0.23837618270E+03  0.23837618270E+03  0.00000000000E+00 0.  1.
         23    2    1    2    0    0  0.35926976901E+03 -0.88155828984E+01  0.20665797491E+03  0.42510526378E+03  0.94098274547E+02 0.  0.
        254    2    1    2    0    0 -0.35926976901E+03  0.88155828984E+01  0.17135415429E+04  0.19718466194E+04  0.90708433451E+03 0.  0.
        -24    2    4    4    0    0 -0.32524382867E+03 -0.39774784873E+03  0.12230190394E+04  0.13288065697E+04  0.77229720500E+02 0.  0.
         24    2    4    4    0    0 -0.34025940339E+02  0.40656343163E+03  0.49052250354E+03  0.64304004976E+03  0.80228365062E+02 0.  0.
         11    1    3    3    0    0  0.36107851164E+03 -0.18571811289E+02  0.20173822463E+03  0.41403008951E+03  0.00000000000E+00 0.  1.
        -11    1    3    3    0    0 -0.18087426288E+01  0.97562283906E+01  0.49197502804E+01  0.11075174271E+02  0.00000000000E+00 0. -1.
          4    1    6    6  502    0  0.24733058704E+02  0.73222204869E+02  0.88139185358E+02  0.11722513158E+03  0.00000000000E+00 0. -1.
          3    1    5    5  503    0 -0.92656876922E+02 -0.63447123948E+02  0.26906260455E+03  0.29155706053E+03  0.00000000000E+00 0. -1.
         -4    1    5    5    0  503 -0.23258695175E+03 -0.33430072478E+03  0.95395643482E+03  0.10372495092E+04  0.00000000000E+00 0.  1.
         -3    1    6    6    0  502 -0.58758999044E+02  0.33334122676E+03  0.40238331818E+03  0.52581491817E+03  0.00000000000E+00 0.  1.
<mgrwt>
<rscale>  0 0.14346470E+04</rscale>
<asrwt>0</asrwt>
<pdfrwt beam="1">  1        2 0.33208856E+00 0.14346470E+04</pdfrwt>
<pdfrwt beam="2">  1       -2 0.36673260E-01 0.14346470E+04</pdfrwt>
<totfact> 0.37084473E+01</totfact>
</mgrwt>
</event>
<event>
12    1  0.1755460E-007  0.1663935E+04  0.7818608E-02  0.8782205E-01
         -1   -1    0    0    0  501 -0.00000000000E+00  0.00000000000E+00  0.34523227039E+03  0.34523227039E+03  0.00000000000E+00 0.  1.
          1   -1    0    0  501    0  0.00000000000E+00 -0.00000000000E+00 -0.20049408752E+04  0.20049408752E+04  0.00000000000E+00 0. -1.
         23    2    1    2    0    0 -0.46102297189E+03 -0.19513717909E+03 -0.10004597587E+04  0.11228404914E+04  0.96074664326E+02 0.  0.
        254    2    1    2    0    0  0.46102297189E+03  0.19513717909E+03 -0.65924884617E+03  0.12273326542E+04  0.90615434871E+03 0.  0.
        -24    2    4    4    0    0  0.70196591708E+03  0.22235966348E+03 -0.33100658237E+03  0.81127103630E+03  0.79971045289E+02 0.  0.
         24    2    4    4    0    0 -0.24094294519E+03 -0.27222484389E+02 -0.32824226380E+03  0.41606161793E+03  0.81053807270E+02 0.  0.
         11    1    3    3    0    0  0.27550181502E+01  0.26633471025E+01 -0.20571909122E+01  0.43492042083E+01  0.00000000000E+00 0.  1.
        -11    1    3    3    0    0 -0.46377799004E+03 -0.19780052619E+03 -0.99840256776E+03  0.11184912872E+04  0.00000000000E+00 0. -1.
          2    1    6    6  502    0 -0.20369532096E+03  0.87065900076E+01 -0.26436864186E+03  0.33385381126E+03  0.00000000000E+00 0. -1.
          3    1    5    5  503    0  0.61203128794E+03  0.16502568429E+03 -0.28857310961E+03  0.69648418036E+03  0.00000000000E+00 0. -1.
         -4    1    5    5    0  503  0.89934629137E+02  0.57333979181E+02 -0.42433472755E+02  0.11478685594E+03  0.00000000000E+00 0.  1.
         -1    1    6    6    0  502 -0.37247624229E+02 -0.35929074397E+02 -0.63873621943E+02  0.82207806672E+02  0.00000000000E+00 0.  1.
<mgrwt>
<rscale>  0 0.16639354E+04</rscale>
<asrwt>0</asrwt>
<pdfrwt beam="1">  1        1 0.30845244E+00 0.16639354E+04</pdfrwt>
<pdfrwt beam="2">  1       -1 0.53112657E-01 0.16639354E+04</pdfrwt>
<totfact> 0.10093166E+01</totfact>
</mgrwt>
</event>
<event>
12    1  0.1755460E-007  0.1968685E+04  0.7818608E-02  0.8621403E-01
          2   -1    0    0  501    0  0.00000000000E+00  0.00000000000E+00  0.10481496984E+04  0.10481496984E+04  0.00000000000E+00 0. -1.
         -2   -1    0    0    0  501 -0.00000000000E+00 -0.00000000000E+00 -0.92441994477E+03  0.92441994477E+03  0.00000000000E+00 0.  1.
         23    2    1    2    0    0  0.58523704722E+03 -0.82799010666E+02  0.55234780118E+03  0.81415145237E+03  0.91631961251E+02 0.  0.
        254    2    1    2    0    0 -0.58523704722E+03  0.82799010666E+02 -0.42861804750E+03  0.11584181908E+04  0.89936710893E+03 0.  0.
        -24    2    4    4    0    0  0.11806971637E+03 -0.23083566807E+03 -0.23595790887E+03  0.36078913580E+03  0.85247300122E+02 0.  0.
         24    2    4    4    0    0 -0.70330676358E+03  0.31363467874E+03 -0.19266013863E+03  0.79762905504E+03  0.78019645057E+02 0.  0.
         13    1    3    3    0    0  0.50279040769E+03 -0.47867287389E+02  0.49862684436E+03  0.70973107666E+03  0.00000000000E+00 0. -1.
        -13    1    3    3    0    0  0.82446639531E+02 -0.34931723277E+02  0.53720956820E+02  0.10442037571E+03  0.00000000000E+00 0.  1.
          2    1    6    6  502    0 -0.68171678539E+03  0.29977567504E+03 -0.17110501662E+03  0.76412051245E+03  0.00000000000E+00 0. -1.
          1    1    5    5  503    0  0.11372844366E+03 -0.17060973119E+03 -0.21442723921E+03  0.29668313095E+03  0.00000000000E+00 0. -1.
         -2    1    5    5    0  503  0.43412727037E+01 -0.60225936885E+02 -0.21530669657E+02  0.64106004853E+02  0.00000000000E+00 0.  1.
         -1    1    6    6    0  502 -0.21589978192E+02  0.13859003699E+02 -0.21555122005E+02  0.33508542590E+02  0.00000000000E+00 0.  1.
<mgrwt>
<rscale>  0 0.19686853E+04</rscale>
<asrwt>0</asrwt>
<pdfrwt beam="1">  1        2 0.16125380E+00 0.19686853E+04</pdfrwt>
<pdfrwt beam="2">  1       -2 0.14221845E+00 0.19686853E+04</pdfrwt>
<totfact> 0.75363282E+00</totfact>
</mgrwt>
</event>
<event>
12    1  0.1755460E-007  0.1428606E+04  0.7818608E-02  0.8933368E-01
         -2   -1    0    0    0  501 -0.00000000000E+00  0.00000000000E+00  0.21202634451E+03  0.21202634451E+03  0.00000000000E+00 0.  1.
          2   -1    0    0  501    0  0.00000000000E+00 -0.00000000000E+00 -0.24064411586E+04  0.24064411586E+04  0.00000000000E+00 0. -1.
         23    2    1    2    0    0 -0.40095215726E+03  0.99524072308E+02 -0.50459674159E+03  0.65833316876E+03  0.90094484257E+02 0.  0.
        254    2    1    2    0    0  0.40095215726E+03 -0.99524072308E+02 -0.16898180725E+04  0.19601343343E+04  0.90331269067E+03 0.  0.
        -24    2    4    4    0    0  0.52282004140E+02 -0.14728077051E+03 -0.15715310508E+04  0.15811686385E+04  0.77197062512E+02 0.  0.
         24    2    4    4    0    0  0.34867015312E+03  0.47756698203E+02 -0.11828702162E+03  0.37896569576E+03  0.75971054876E+02 0.  0.
         11    1    3    3    0    0 -0.28152662070E+03  0.51854477587E+02 -0.28555104512E+03  0.40433343218E+03  0.00000000000E+00 0.  1.
        -11    1    3    3    0    0 -0.11942553655E+03  0.47669594721E+02 -0.21904569647E+03  0.25399973658E+03  0.00000000000E+00 0. -1.
          4    1    6    6  502    0  0.32238195195E+03  0.64595754582E+02 -0.10680625826E+03  0.34570263414E+03  0.00000000000E+00 0. -1.
          3    1    5    5  503    0  0.52328123292E+02 -0.14553680997E+03 -0.15718112390E+04  0.15794017116E+04  0.00000000000E+00 0. -1.
         -4    1    5    5    0  503 -0.46119152198E-01 -0.17439605365E+01  0.28018819129E+00  0.17669269231E+01  0.00000000000E+00 0.  1.
         -3    1    6    6    0  502  0.26288201172E+02 -0.16839056379E+02 -0.11480763367E+02  0.33263061616E+02  0.00000000000E+00 0.  1.
<mgrwt>
<rscale>  0 0.14286062E+04</rscale>
<asrwt>0</asrwt>
<pdfrwt beam="1">  1        2 0.37022172E+00 0.14286062E+04</pdfrwt>
<pdfrwt beam="2">  1       -2 0.32619437E-01 0.14286062E+04</pdfrwt>
<totfact> 0.33632058E+01</totfact>
</mgrwt>
</event>
<event>
12    1  0.1755460E-007  0.2161202E+04  0.7818608E-02  0.8534752E-01
         -1   -1    0    0    0  501 -0.00000000000E+00  0.00000000000E+00  0.57993139781E+03  0.57993139781E+03  0.00000000000E+00 0. -1.
          1   -1    0    0  501    0  0.00000000000E+00 -0.00000000000E+00 -0.20135122219E+04  0.20135122219E+04  0.00000000000E+00 0.  1.
         23    2    1    2    0    0  0.22430775278E+03 -0.51447064119E+02  0.43441500837E+03  0.49997821894E+03  0.91110106767E+02 0.  0.
        254    2    1    2    0    0 -0.22430775278E+03  0.51447064119E+02 -0.18679958324E+04  0.20934654007E+04  0.91663961604E+03 0.  0.
        -24    2    4    4    0    0 -0.96764292613E+02  0.45789100575E+03 -0.68100666618E+03  0.82964750465E+03  0.74279210550E+02 0.  0.
         24    2    4    4    0    0 -0.12754346017E+03 -0.40644394163E+03 -0.11869891663E+04  0.12638178961E+04  0.82634022775E+02 0.  0.
         11    1    3    3    0    0  0.16899272137E+02 -0.31121770683E+02  0.36885561622E+02  0.51134085162E+02  0.00000000000E+00 0.  1.
        -11    1    3    3    0    0  0.20740848065E+03 -0.20325293436E+02  0.39752944675E+03  0.44884413378E+03  0.00000000000E+00 0. -1.
          4    1    6    6  502    0  0.20124711868E+01 -0.32395453937E+02 -0.47511974994E+02  0.57540448764E+02  0.00000000000E+00 0. -1.
          1    1    5    5  503    0 -0.22103480411E+02  0.18741379651E+03 -0.33141471138E+03  0.38137672436E+03  0.00000000000E+00 0. -1.
         -2    1    5    5    0  503 -0.74660812202E+02  0.27047720924E+03 -0.34959195480E+03  0.44827078029E+03  0.00000000000E+00 0.  1.
         -3    1    6    6    0  502 -0.12955593136E+03 -0.37404848770E+03 -0.11394771913E+04  0.12062774473E+04  0.00000000000E+00 0.  1.
<mgrwt>
<rscale>  0 0.21612024E+04</rscale>
<asrwt>0</asrwt>
<pdfrwt beam="1">  1        1 0.30977111E+00 0.21612024E+04</pdfrwt>
<pdfrwt beam="2">  1       -1 0.89220214E-01 0.21612024E+04</pdfrwt>
<totfact> 0.32861839E+00</totfact>
</mgrwt>
</event>
<event>
12    1  0.1755460E-007  0.2066967E+04  0.7818608E-02  0.8575936E-01
         -1   -1    0    0    0  501 -0.00000000000E+00  0.00000000000E+00  0.55789360201E+03  0.55789360201E+03  0.00000000000E+00 0.  1.
          1   -1    0    0  501    0  0.00000000000E+00 -0.00000000000E+00 -0.19145006807E+04  0.19145006807E+04  0.00000000000E+00 0. -1.
         23    2    1    2    0    0 -0.39879301406E+03 -0.66004361740E+03 -0.16493552265E+03  0.79366228627E+03  0.89457549008E+02 0.  0.
        254    2    1    2    0    0  0.39879301406E+03  0.66004361740E+03 -0.11916715560E+04  0.16787319965E+04  0.89630718701E+03 0.  0.
        -24    2    4    4    0    0  0.36905843414E+03  0.48930354258E+03 -0.13143935318E+04  0.14525266039E+04  0.81123941732E+02 0.  0.
         24    2    4    4    0    0  0.29734579929E+02  0.17074007482E+03  0.12272197579E+03  0.22620539255E+03  0.77922255388E+02 0.  0.
         13    1    3    3    0    0 -0.43930229491E+02 -0.40494406893E+02  0.42906927118E+01  0.59900518333E+02  0.00000000000E+00 0.  1.
        -13    1    3    3    0    0 -0.35486278457E+03 -0.61954921051E+03 -0.16922621536E+03  0.73376176794E+03  0.00000000000E+00 0. -1.
          4    1    6    6  502    0 -0.21207735901E+02  0.10086405291E+03  0.58720562324E+02  0.11862305708E+03  0.00000000000E+00 0. -1.
          3    1    5    5  503    0  0.10244519170E+03  0.89791233539E+02 -0.33708360736E+03  0.36356958244E+03  0.00000000000E+00 0. -1.
         -4    1    5    5    0  503  0.26661324244E+03  0.39951230904E+03 -0.97730992447E+03  0.10889570215E+04  0.00000000000E+00 0.  1.
         -3    1    6    6    0  502  0.50942315831E+02  0.69876021917E+02  0.64001413464E+02  0.10758233548E+03  0.00000000000E+00 0.  1.
<mgrwt>
<rscale>  0 0.20669666E+04</rscale>
<asrwt>0</asrwt>
<pdfrwt beam="1">  1        1 0.29453856E+00 0.20669666E+04</pdfrwt>
<pdfrwt beam="2">  1       -1 0.85829786E-01 0.20669666E+04</pdfrwt>
<totfact> 0.42104337E+00</totfact>
</mgrwt>
</event>
<event>
12    1  0.1755460E-007  0.1254478E+04  0.7818608E-02  0.9066464E-01
         -1   -1    0    0    0  501 -0.00000000000E+00  0.00000000000E+00  0.56100350673E+03  0.56100350673E+03  0.00000000000E+00 0.  1.
          1   -1    0    0  501    0  0.00000000000E+00 -0.00000000000E+00 -0.70129478006E+03  0.70129478006E+03  0.00000000000E+00 0. -1.
         23    2    1    2    0    0 -0.26195428797E+03 -0.82740796268E+02 -0.11354443945E+03  0.31071271853E+03  0.90465271615E+02 0.  0.
        254    2    1    2    0    0  0.26195428797E+03  0.82740796268E+02 -0.26746833879E+02  0.95158556826E+03  0.91067755669E+03 0.  0.
        -24    2    4    4    0    0  0.15883515976E+03  0.40598017399E+03 -0.27704321270E+03  0.52251287287E+03  0.78855887308E+02 0.  0.
         24    2    4    4    0    0  0.10311912821E+03 -0.32323937773E+03  0.25029637882E+03  0.42907269539E+03  0.79610619648E+02 0.  0.
         11    1    3    3    0    0 -0.20632777766E+03 -0.79721599849E+02 -0.51079284977E+02  0.22701493051E+03  0.00000000000E+00 0.  1.
        -11    1    3    3    0    0 -0.55626510310E+02 -0.30191964186E+01 -0.62465154472E+02  0.83697788020E+02  0.00000000000E+00 0. -1.
          2    1    6    6  502    0  0.96327818706E+02 -0.25758376309E+03  0.16318151394E+03  0.31977593742E+03  0.00000000000E+00 0. -1.
          1    1    5    5  503    0  0.14571412517E+03  0.39871001490E+03 -0.27808264605E+03  0.50747634456E+03  0.00000000000E+00 0. -1.
         -2    1    5    5    0  503  0.13121034595E+02  0.72701590903E+01  0.10394333440E+01  0.15036528313E+02  0.00000000000E+00 0.  1.
         -1    1    6    6    0  502  0.67913095080E+01 -0.65655614641E+02  0.87114864886E+02  0.10929675797E+03  0.00000000000E+00 0.  1.
<mgrwt>
<rscale>  0 0.12544781E+04</rscale>
<asrwt>0</asrwt>
<pdfrwt beam="1">  1        1 0.10789150E+00 0.12544781E+04</pdfrwt>
<pdfrwt beam="2">  1       -1 0.86308232E-01 0.12544781E+04</pdfrwt>
<totfact> 0.35486800E+01</totfact>
</mgrwt>
</event>
<event>
12    1  0.1755460E-007  0.1677308E+04  0.7818608E-02  0.8774413E-01
          2   -1    0    0  501    0  0.00000000000E+00  0.00000000000E+00  0.15521855516E+04  0.15521855516E+04  0.00000000000E+00 0. -1.
         -2   -1    0    0    0  501 -0.00000000000E+00 -0.00000000000E+00 -0.45312914419E+03  0.45312914419E+03  0.00000000000E+00 0.  1.
         23    2    1    2    0    0 -0.24920979441E+03 -0.48892051335E+03  0.12411205577E+03  0.57006468537E+03  0.91766841057E+02 0.  0.
        254    2    1    2    0    0  0.24920979441E+03  0.48892051335E+03  0.97494435164E+03  0.14352500104E+04  0.89904244259E+03 0.  0.
        -24    2    4    4    0    0  0.50369758724E+03  0.57793529273E+03  0.68441610189E+03  0.10306894494E+04  0.78580395771E+02 0.  0.
         24    2    4    4    0    0 -0.25448779283E+03 -0.89014779379E+02  0.29052824975E+03  0.40456056102E+03  0.81085855616E+02 0.  0.
         11    1    3    3    0    0 -0.19384506312E+03 -0.31972563436E+03  0.11747023813E+03  0.39191790800E+03  0.00000000000E+00 0. -1.
        -11    1    3    3    0    0 -0.55364731286E+02 -0.16919487899E+03  0.66418176371E+01  0.17814677737E+03  0.00000000000E+00 0.  1.
          4    1    6    6  502    0  0.36292923546E+00  0.62728824832E+01  0.19644208524E+02  0.20624638199E+02  0.00000000000E+00 0. -1.
          3    1    5    5  503    0  0.32606950061E+03  0.37602872724E+03  0.39312467880E+03  0.63424438194E+03  0.00000000000E+00 0. -1.
         -4    1    5    5    0  503  0.17762808663E+03  0.20190656549E+03  0.29129142309E+03  0.39644506746E+03  0.00000000000E+00 0.  1.
         -3    1    6    6    0  502 -0.25485072206E+03 -0.95287661862E+02  0.27088404123E+03  0.38393592282E+03  0.00000000000E+00 0.  1.
<mgrwt>
<rscale>  0 0.16773080E+04</rscale>
<asrwt>0</asrwt>
<pdfrwt beam="1">  1        2 0.23879777E+00 0.16773080E+04</pdfrwt>
<pdfrwt beam="2">  1       -2 0.69712177E-01 0.16773080E+04</pdfrwt>
<totfact> 0.21208604E+01</totfact>
</mgrwt>
</event>
<event>
12    1  0.1755460E-007  0.3361042E+04  0.7818608E-02  0.8147535E-01
         -2   -1    0    0    0  501 -0.00000000000E+00  0.00000000000E+00  0.13542769569E+04  0.13542769569E+04  0.00000000000E+00 0.  1.
          2   -1    0    0  501    0  0.00000000000E+00 -0.00000000000E+00 -0.20853574005E+04  0.20853574005E+04  0.00000000000E+00 0. -1.
         23    2    1    2    0    0 -0.68893625041E+02 -0.22138954497E+03  0.12372340898E+04  0.12601820715E+04  0.59590251347E+02 0.  0.
        254    2    1    2    0    0  0.68893625041E+02  0.22138954497E+03 -0.19683145335E+04  0.21794522860E+04  0.90663691857E+03 0.  0.
        -24    2    4    4    0    0  0.29649666496E+03  0.42754868604E+03 -0.72138552554E+03  0.89305402955E+03  0.80251305101E+02 0.  0.
         24    2    4    4    0    0 -0.22760303991E+03 -0.20615914107E+03 -0.12469290079E+04  0.12863982564E+04  0.75390902484E+02 0.  0.
         11    1    3    3    0    0 -0.76407088602E+02 -0.19000604161E+03  0.99925122842E+03  0.10200212530E+04  0.00000000000E+00 0. -1.
        -11    1    3    3    0    0  0.75134635613E+01 -0.31383503362E+02  0.23798286142E+03  0.24016081851E+03  0.00000000000E+00 0.  1.
          2    1    6    6  502    0 -0.21733192760E+03 -0.20282155741E+03 -0.12351427928E+04  0.12704123226E+04  0.00000000000E+00 0. -1.
          1    1    5    5  503    0  0.28683199040E+03  0.40862023712E+03 -0.71254304514E+03  0.87003487291E+03  0.00000000000E+00 0. -1.
         -2    1    5    5    0  503  0.96646745547E+01  0.18928448922E+02 -0.88424804022E+01  0.23019156642E+02  0.00000000000E+00 0.  1.
         -1    1    6    6    0  502 -0.10271112313E+02 -0.33375836567E+01 -0.11786215104E+02  0.15985933795E+02  0.00000000000E+00 0.  1.
<mgrwt>
<rscale>  0 0.33610424E+04</rscale>
<asrwt>0</asrwt>
<pdfrwt beam="1">  1        2 0.32082421E+00 0.33610424E+04</pdfrwt>
<pdfrwt beam="2">  1       -2 0.20835030E+00 0.33610424E+04</pdfrwt>
<totfact> 0.58397169E-01</totfact>
</mgrwt>
</event>
<event>
12    1  0.1755460E-007  0.2462845E+04  0.7818608E-02  0.8416343E-01
         -2   -1    0    0    0  501 -0.00000000000E+00  0.00000000000E+00  0.19520781490E+04  0.19520781490E+04  0.00000000000E+00 0. -1.
          2   -1    0    0  501    0  0.00000000000E+00 -0.00000000000E+00 -0.77681376259E+03  0.77681376259E+03  0.00000000000E+00 0.  1.
         23    2    1    2    0    0 -0.30913326116E+03  0.66276015390E+03 -0.35247905717E+03  0.81677385512E+03  0.89797827948E+02 0.  0.
        254    2    1    2    0    0  0.30913326116E+03 -0.66276015390E+03  0.15277434435E+04  0.19121180564E+04  0.88734493726E+03 0.  0.
        -24    2    4    4    0    0  0.36474843995E+03 -0.59164570269E+03  0.45929826839E+03  0.83689800478E+03  0.79732735419E+02 0.  0.
         24    2    4    4    0    0 -0.55615178792E+02 -0.71114451208E+02  0.10684451751E+04  0.10752200516E+04  0.79829530119E+02 0.  0.
         11    1    3    3    0    0 -0.64521571550E+02  0.20839571918E+03 -0.13672814546E+03  0.25746144319E+03  0.00000000000E+00 0.  1.
        -11    1    3    3    0    0 -0.24461168961E+03  0.45436443472E+03 -0.21575091171E+03  0.55931241193E+03  0.00000000000E+00 0. -1.
          4    1    6    6  502    0 -0.36566605260E+02 -0.41235458079E+02  0.24976568509E+03  0.25577407427E+03  0.00000000000E+00 0. -1.
          1    1    5    5  503    0  0.36340473066E+03 -0.59384465621E+03  0.45970087705E+03  0.83428974004E+03  0.00000000000E+00 0. -1.
         -2    1    5    5    0  503  0.13437092921E+01  0.21989535159E+01 -0.40260866086E+00  0.26082647413E+01  0.00000000000E+00 0.  1.
         -3    1    6    6    0  502 -0.19048573532E+02 -0.29878993128E+02  0.81867949006E+03  0.81944597737E+03  0.00000000000E+00 0.  1.
<mgrwt>
<rscale>  0 0.24628448E+04</rscale>
<asrwt>0</asrwt>
<pdfrwt beam="1">  1        2 0.11950981E+00 0.24628448E+04</pdfrwt>
<pdfrwt beam="2">  1       -2 0.30031971E+00 0.24628448E+04</pdfrwt>
<totfact> 0.10140099E+00</totfact>
</mgrwt>
</event>
<event>
12    1  0.1755460E-007  0.1247967E+04  0.7818608E-02  0.9071877E-01
          2   -1    0    0  501    0  0.00000000000E+00  0.00000000000E+00  0.96123359164E+03  0.96123359164E+03  0.00000000000E+00 0.  1.
         -2   -1    0    0    0  501 -0.00000000000E+00 -0.00000000000E+00 -0.40505835996E+03  0.40505835996E+03  0.00000000000E+00 0. -1.
         23    2    1    2    0    0 -0.71101941218E+02 -0.20625271941E+03  0.33963139751E+03  0.41371798641E+03  0.90649963020E+02 0.  0.
        254    2    1    2    0    0  0.71101941218E+02  0.20625271941E+03  0.21654383417E+03  0.95257396520E+03  0.90161535965E+03 0.  0.
        -24    2    4    4    0    0  0.31084119643E+03  0.66064139971E+02  0.46675170517E+03  0.57009651016E+03  0.78524879063E+02 0.  0.
         24    2    4    4    0    0 -0.23973925521E+03  0.14018857944E+03 -0.25020787100E+03  0.38247745504E+03  0.80977012858E+02 0.  0.
         11    1    3    3    0    0  0.60066119797E+01  0.71352283427E+01  0.12191779926E+02  0.15350256308E+02  0.00000000000E+00 0. -1.
        -11    1    3    3    0    0 -0.77108553197E+02 -0.21338794776E+03  0.32743961758E+03  0.39836773010E+03  0.00000000000E+00 0.  1.
          4    1    6    6  502    0 -0.63080541461E+02 -0.85700691504E+00 -0.59563820138E+02  0.86762537084E+02  0.00000000000E+00 0. -1.
          1    1    5    5  503    0  0.16383951823E+03 -0.53179510024E+01  0.23366675234E+03  0.28543268819E+03  0.00000000000E+00 0. -1.
         -2    1    5    5    0  503  0.14700167819E+03  0.71382090973E+02  0.23308495283E+03  0.28466382197E+03  0.00000000000E+00 0.  1.
         -3    1    6    6    0  502 -0.17665871375E+03  0.14104558636E+03 -0.19064405086E+03  0.29571491796E+03  0.00000000000E+00 0.  1.
<mgrwt>
<rscale>  0 0.12479675E+04</rscale>
<asrwt>0</asrwt>
<pdfrwt beam="1">  1        2 0.14788209E+00 0.12479675E+04</pdfrwt>
<pdfrwt beam="2">  1       -2 0.62316671E-01 0.12479675E+04</pdfrwt>
<totfact> 0.62751171E+01</totfact>
</mgrwt>
</event>
<event>
12    1  0.1755460E-007  0.1405962E+04  0.7818608E-02  0.8949515E-01
          1   -1    0    0  501    0  0.00000000000E+00  0.00000000000E+00  0.14646974051E+04  0.14646974051E+04  0.00000000000E+00 0. -1.
         -1   -1    0    0    0  501 -0.00000000000E+00 -0.00000000000E+00 -0.33739525131E+03  0.33739525131E+03  0.00000000000E+00 0.  1.
         23    2    1    2    0    0 -0.33902839170E+02 -0.13618723378E+03  0.81564923529E+03  0.83280261285E+03  0.92629108818E+02 0.  0.
        254    2    1    2    0    0  0.33902839170E+02  0.13618723378E+03  0.31165291854E+03  0.96929004359E+03  0.90702771834E+03 0.  0.
        -24    2    4    4    0    0  0.23080440951E+03 -0.31648892939E+03  0.23128831198E+03  0.46210844513E+03  0.81326588095E+02 0.  0.
         24    2    4    4    0    0 -0.19690157034E+03  0.45267616318E+03  0.80364606564E+02  0.50718159846E+03  0.84194814089E+02 0.  0.
         11    1    3    3    0    0 -0.45812227449E+02 -0.14450542258E+03  0.69879997185E+03  0.71505382874E+03  0.00000000000E+00 0. -1.
        -11    1    3    3    0    0  0.11909388279E+02  0.83181887982E+01  0.11684926344E+03  0.11774878411E+03  0.00000000000E+00 0.  1.
          4    1    6    6  502    0 -0.75078211175E+02  0.11272071667E+03  0.51534068435E+02  0.14490844685E+03  0.00000000000E+00 0. -1.
          3    1    5    5  503    0  0.15482707296E+03 -0.15089077723E+03  0.10439488222E+03  0.24007861339E+03  0.00000000000E+00 0. -1.
         -4    1    5    5    0  503  0.75977336548E+02 -0.16559815216E+03  0.12689342975E+03  0.22202983174E+03  0.00000000000E+00 0.  1.
         -3    1    6    6    0  502 -0.12182335916E+03  0.33995544651E+03  0.28830538129E+02  0.36227315161E+03  0.00000000000E+00 0.  1.
<mgrwt>
<rscale>  0 0.14059615E+04</rscale>
<asrwt>0</asrwt>
<pdfrwt beam="1">  1        1 0.22533806E+00 0.14059615E+04</pdfrwt>
<pdfrwt beam="2">  1       -1 0.51906963E-01 0.14059615E+04</pdfrwt>
<totfact> 0.25204723E+01</totfact>
</mgrwt>
</event>
<event>
12    1  0.1755460E-007  0.2172362E+04  0.7818608E-02  0.8530021E-01
         -1   -1    0    0    0  501 -0.00000000000E+00  0.00000000000E+00  0.51762906176E+03  0.51762906176E+03  0.00000000000E+00 0.  1.
          1   -1    0    0  501    0  0.00000000000E+00 -0.00000000000E+00 -0.22792168338E+04  0.22792168338E+04  0.00000000000E+00 0. -1.
         23    2    1    2    0    0 -0.72161272491E+03  0.50456276757E+03 -0.52887992761E+03  0.10314746601E+04  0.94432438512E+02 0.  0.
        254    2    1    2    0    0  0.72161272491E+03 -0.50456276757E+03 -0.12327078444E+04  0.17653712354E+04  0.90645378152E+03 0.  0.
        -24    2    4    4    0    0 -0.17722567667E+03 -0.49687081442E+02 -0.43157393891E+03  0.47582189151E+03  0.79200133621E+02 0.  0.
         24    2    4    4    0    0  0.89883840158E+03 -0.45487568613E+03 -0.80113390551E+03  0.12895493439E+04  0.79370106903E+02 0.  0.
         13    1    3    3    0    0 -0.10559178070E+03  0.35901224849E+02 -0.65426901678E+02  0.12930275155E+03  0.00000000000E+00 0. -1.
        -13    1    3    3    0    0 -0.61602094421E+03  0.46866154272E+03 -0.46345302593E+03  0.90217190856E+03  0.00000000000E+00 0.  1.
          4    1    6    6  502    0  0.87647814836E+03 -0.45241925216E+03 -0.77093808485E+03  0.12518956246E+04  0.00000000000E+00 0. -1.
          3    1    5    5  503    0 -0.17747193104E+03 -0.44678957138E+02 -0.43342402427E+03  0.47047728992E+03  0.00000000000E+00 0. -1.
         -4    1    5    5    0  503  0.24625437371E+00 -0.50081243038E+01  0.18500853657E+01  0.53446015866E+01  0.00000000000E+00 0.  1.
         -3    1    6    6    0  502  0.22360253221E+02 -0.24564339721E+01 -0.30195820661E+02  0.37653719303E+02  0.00000000000E+00 0.  1.
<mgrwt>
<rscale>  0 0.21723617E+04</rscale>
<asrwt>0</asrwt>
<pdfrwt beam="1">  1        1 0.35064876E+00 0.21723617E+04</pdfrwt>
<pdfrwt beam="2">  1       -1 0.79635238E-01 0.21723617E+04</pdfrwt>
<totfact> 0.27683174E+00</totfact>
</mgrwt>
</event>
<event>
12    1  0.1755460E-007  0.1821149E+04  0.7818608E-02  0.8695133E-01
         -1   -1    0    0    0  501 -0.00000000000E+00  0.00000000000E+00  0.21273767119E+03  0.21273767119E+03  0.00000000000E+00 0.  1.
          1   -1    0    0  501    0  0.00000000000E+00 -0.00000000000E+00 -0.38975055494E+04  0.38975055494E+04  0.00000000000E+00 0. -1.
         23    2    1    2    0    0  0.35513149644E+03 -0.52045617435E+03 -0.80174423032E+03  0.10236176474E+04  0.89477751202E+02 0.  0.
        254    2    1    2    0    0 -0.35513149644E+03  0.52045617435E+03 -0.28830236479E+04  0.30866255732E+04  0.90467622155E+03 0.  0.
        -24    2    4    4    0    0 -0.98763631026E+02  0.56992439581E+03 -0.26887742025E+04  0.27514439924E+04  0.79807639017E+02 0.  0.
         24    2    4    4    0    0 -0.25636786541E+03 -0.49468221467E+02 -0.19424944535E+03  0.33518158085E+03  0.80263676522E+02 0.  0.
         13    1    3    3    0    0  0.70377536884E+02 -0.89071170824E+02 -0.20332955991E+03  0.23287245673E+03  0.00000000000E+00 0. -1.
        -13    1    3    3    0    0  0.28475395955E+03 -0.43138500352E+03 -0.59841467040E+03  0.79074519063E+03  0.00000000000E+00 0.  1.
          4    1    6    6  502    0 -0.24261830450E+03 -0.60190257643E+02 -0.19600894860E+03  0.31765707410E+03  0.00000000000E+00 0. -1.
          3    1    5    5  503    0 -0.57611068864E+02  0.47109230490E+03 -0.22809112698E+04  0.23297646267E+04  0.00000000000E+00 0. -1.
         -4    1    5    5    0  503 -0.41152562162E+02  0.98832090914E+02 -0.40786293270E+03  0.42167936568E+03  0.00000000000E+00 0.  1.
         -3    1    6    6    0  502 -0.13749560907E+02  0.10722036176E+02  0.17595032508E+01  0.17524506743E+02  0.00000000000E+00 0.  1.
<mgrwt>
<rscale>  0 0.18211494E+04</rscale>
<asrwt>0</asrwt>
<pdfrwt beam="1">  1        1 0.59961625E+00 0.18211494E+04</pdfrwt>
<pdfrwt beam="2">  1       -1 0.32728872E-01 0.18211494E+04</pdfrwt>
<totfact> 0.98048541E-01</totfact>
</mgrwt>
</event>
<event>
12    1  0.1755460E-007  0.1611859E+04  0.7818608E-02  0.8813295E-01
          1   -1    0    0  501    0  0.00000000000E+00  0.00000000000E+00  0.88321786981E+03  0.88321786981E+03  0.00000000000E+00 0. -1.
         -1   -1    0    0    0  501 -0.00000000000E+00 -0.00000000000E+00 -0.73540479454E+03  0.73540479454E+03  0.00000000000E+00 0.  1.
         23    2    1    2    0    0  0.63909431509E+02  0.47035281219E+03 -0.19845630930E+03  0.52276959001E+03  0.92665819837E+02 0.  0.
        254    2    1    2    0    0 -0.63909431509E+02 -0.47035281219E+03  0.34626938457E+03  0.10958530743E+04  0.92502718365E+03 0.  0.
        -24    2    4    4    0    0 -0.18932074382E+03 -0.70194139864E+03  0.36998106861E+03  0.81972931970E+03  0.80660369921E+02 0.  0.
         24    2    4    4    0    0  0.12541131231E+03  0.23158858645E+03 -0.23711684041E+02  0.27612375464E+03  0.79503542610E+02 0.  0.
         11    1    3    3    0    0  0.73975216011E+02  0.40206584764E+03 -0.19681812580E+03  0.45372530573E+03  0.00000000000E+00 0.  1.
        -11    1    3    3    0    0 -0.10065784502E+02  0.68286964552E+02 -0.16381834929E+01  0.69044284271E+02  0.00000000000E+00 0. -1.
          4    1    6    6  502    0  0.62845102751E+02  0.85704986806E+02 -0.46050595580E+02  0.11582533858E+03  0.00000000000E+00 0. -1.
          3    1    5    5  503    0 -0.18497685722E+03 -0.66392272554E+03  0.36825875023E+03  0.78142455190E+03  0.00000000000E+00 0. -1.
         -4    1    5    5    0  503 -0.43438865960E+01 -0.38018673104E+02  0.17223183796E+01  0.38304767797E+02  0.00000000000E+00 0.  1.
         -3    1    6    6    0  502  0.62566209560E+02  0.14588359965E+03  0.22338911540E+02  0.16029841607E+03  0.00000000000E+00 0.  1.
<mgrwt>
<rscale>  0 0.16118594E+04</rscale>
<asrwt>0</asrwt>
<pdfrwt beam="1">  1        1 0.13587967E+00 0.16118594E+04</pdfrwt>
<pdfrwt beam="2">  1       -1 0.11313920E+00 0.16118594E+04</pdfrwt>
<totfact> 0.12857215E+01</totfact>
</mgrwt>
</event>
<event>
12    1  0.1755460E-007  0.1772969E+04  0.7818608E-02  0.8720808E-01
          2   -1    0    0  501    0  0.00000000000E+00  0.00000000000E+00  0.13253480422E+04  0.13253480422E+04  0.00000000000E+00 0. -1.
         -2   -1    0    0    0  501 -0.00000000000E+00 -0.00000000000E+00 -0.59294200507E+03  0.59294200507E+03  0.00000000000E+00 0.  1.
         23    2    1    2    0    0  0.47734061381E+03 -0.11641712955E+03  0.71369989272E+03  0.87118968609E+03  0.90536857900E+02 0.  0.
        254    2    1    2    0    0 -0.47734061381E+03  0.11641712955E+03  0.18706144399E+02  0.10471003612E+04  0.92447944102E+03 0.  0.
        -24    2    4    4    0    0  0.16266168589E+03 -0.18763149127E+03  0.17887099972E+03  0.31591079762E+03  0.78360684926E+02 0.  0.
         24    2    4    4    0    0 -0.64000229970E+03  0.30404862082E+03 -0.16016485532E+03  0.73118956355E+03  0.83287991406E+02 0.  0.
         13    1    3    3    0    0  0.14661379928E+03 -0.29581145718E+02  0.29376647000E+03  0.32965040455E+03  0.00000000000E+00 0. -1.
        -13    1    3    3    0    0  0.33072681454E+03 -0.86835983836E+02  0.41993342271E+03  0.54153928154E+03  0.00000000000E+00 0.  1.
          4    1    6    6  502    0 -0.42375957652E+03  0.23027415029E+03 -0.78951492314E+02  0.48870410385E+03  0.00000000000E+00 0. -1.
          1    1    5    5  503    0  0.12689755051E+03 -0.17972073510E+03  0.17049618667E+03  0.27833699111E+03  0.00000000000E+00 0. -1.
         -2    1    5    5    0  503  0.35764135375E+02 -0.79107561657E+01  0.83748130558E+01  0.37573806514E+02  0.00000000000E+00 0.  1.
         -3    1    6    6    0  502 -0.21624272318E+03  0.73774470526E+02 -0.81213363011E+02  0.24248545969E+03  0.00000000000E+00 0.  1.
<mgrwt>
<rscale>  0 0.17729687E+04</rscale>
<asrwt>0</asrwt>
<pdfrwt beam="1">  1        2 0.20389970E+00 0.17729687E+04</pdfrwt>
<pdfrwt beam="2">  1       -2 0.91221847E-01 0.17729687E+04</pdfrwt>
<totfact> 0.15487665E+01</totfact>
</mgrwt>
</event>
<event>
12    1  0.1755460E-007  0.1897675E+04  0.7818608E-02  0.8656014E-01
          2   -1    0    0  501    0  0.00000000000E+00  0.00000000000E+00  0.12742086322E+04  0.12742086322E+04  0.00000000000E+00 0. -1.
         -2   -1    0    0    0  501 -0.00000000000E+00 -0.00000000000E+00 -0.70655064857E+03  0.70655064857E+03  0.00000000000E+00 0.  1.
         23    2    1    2    0    0  0.36722992776E+03  0.44112539581E+03 -0.25386046194E+03  0.63399662439E+03  0.89761633938E+02 0.  0.
        254    2    1    2    0    0 -0.36722992776E+03 -0.44112539581E+03  0.82151844557E+03  0.13467626564E+04  0.89968197801E+03 0.  0.
        -24    2    4    4    0    0 -0.11234837985E+03 -0.34703519188E+02 -0.18219289523E+03  0.23143398492E+03  0.80876112698E+02 0.  0.
         24    2    4    4    0    0 -0.25488154790E+03 -0.40642187663E+03  0.10037113408E+04  0.11153286715E+04  0.79863912228E+02 0.  0.
         11    1    3    3    0    0  0.36477577711E+03  0.42052726098E+03 -0.25676213272E+03  0.61305084421E+03  0.00000000000E+00 0.  1.
        -11    1    3    3    0    0  0.24541506509E+01  0.20598134830E+02  0.29016707742E+01  0.20945780175E+02  0.00000000000E+00 0. -1.
          2    1    6    6  502    0 -0.16453339339E+03 -0.31652331956E+03  0.69123443128E+03  0.77785814154E+03  0.00000000000E+00 0. -1.
          3    1    5    5  503    0 -0.88969969659E+02 -0.23498517787E+02 -0.18370627808E+03  0.20546491780E+03  0.00000000000E+00 0. -1.
         -4    1    5    5    0  503 -0.23378410194E+02 -0.11205001402E+02  0.15133828522E+01  0.25969067123E+02  0.00000000000E+00 0.  1.
         -1    1    6    6    0  502 -0.90348154513E+02 -0.89898557061E+02  0.31247690952E+03  0.33747052993E+03  0.00000000000E+00 0.  1.
<mgrwt>
<rscale>  0 0.18976754E+04</rscale>
<asrwt>0</asrwt>
<pdfrwt beam="1">  1        2 0.19603210E+00 0.18976754E+04</pdfrwt>
<pdfrwt beam="2">  1       -2 0.10870010E+00 0.18976754E+04</pdfrwt>
<totfact> 0.10843913E+01</totfact>
</mgrwt>
</event>
<event>
12    1  0.1755460E-007  0.1942762E+04  0.7818608E-02  0.8633859E-01
          2   -1    0    0  501    0  0.00000000000E+00  0.00000000000E+00  0.18824231211E+04  0.18824231211E+04  0.00000000000E+00 0. -1.
         -2   -1    0    0    0  501 -0.00000000000E+00 -0.00000000000E+00 -0.50125862032E+03  0.50125862032E+03  0.00000000000E+00 0.  1.
         23    2    1    2    0    0  0.31703584875E+03  0.66141109696E+03  0.33113560380E+03  0.80973837172E+03  0.89716631497E+02 0.  0.
        254    2    1    2    0    0 -0.31703584875E+03 -0.66141109696E+03  0.10500288970E+04  0.15739433697E+04  0.91474623690E+03 0.  0.
        -24    2    4    4    0    0  0.29289492028E+02  0.20711627546E+03  0.28327426899E+03  0.36232128070E+03  0.85307520610E+02 0.  0.
         24    2    4    4    0    0 -0.34632534077E+03 -0.86852737242E+03  0.76675462798E+03  0.12116220890E+04  0.76383170023E+02 0.  0.
         13    1    3    3    0    0  0.23097677743E+03  0.51157570286E+03  0.29140936225E+03  0.63243923651E+03  0.00000000000E+00 0. -1.
        -13    1    3    3    0    0  0.86059071321E+02  0.14983539410E+03  0.39726241555E+02  0.17729913522E+03  0.00000000000E+00 0.  1.
          2    1    6    6  502    0 -0.12556701338E+03 -0.35573455082E+03  0.26531739375E+03  0.46120219527E+03  0.00000000000E+00 0. -1.
          3    1    5    5  503    0  0.47318994252E+02  0.54292450623E+02  0.89889723897E+02  0.11518211612E+03  0.00000000000E+00 0. -1.
         -4    1    5    5    0  503 -0.18029502224E+02  0.15282382484E+03  0.19338454509E+03  0.24713916458E+03  0.00000000000E+00 0.  1.
         -3    1    6    6    0  502 -0.22075832740E+03 -0.51279282161E+03  0.50143723423E+03  0.75041989371E+03  0.00000000000E+00 0.  1.
<mgrwt>
<rscale>  0 0.19427618E+04</rscale>
<asrwt>0</asrwt>
<pdfrwt beam="1">  1        2 0.28960355E+00 0.19427618E+04</pdfrwt>
<pdfrwt beam="2">  1       -2 0.77116712E-01 0.19427618E+04</pdfrwt>
<totfact> 0.10878018E+01</totfact>
</mgrwt>
</event>
<event>
12    1  0.2412233E-007  0.1625834E+04  0.7818608E-02  0.8804833E-01
          2   -1    0    0  501    0  0.00000000000E+00  0.00000000000E+00  0.13375318688E+04  0.13375318688E+04  0.00000000000E+00 0. -1.
         -2   -1    0    0    0  501 -0.00000000000E+00 -0.00000000000E+00 -0.49406946817E+03  0.49406946817E+03  0.00000000000E+00 0.  1.
         23    2    1    2    0    0 -0.30067857552E+03  0.36431744657E+02  0.82568339620E+03  0.88805332678E+03  0.12308843421E+03 0.  0.
        254    2    1    2    0    0  0.30067857552E+03 -0.36431744657E+02  0.17779004432E+02  0.94354801019E+03  0.89343823331E+03 0.  0.
        -24    2    4    4    0    0  0.28634470766E+03  0.19053269763E+03  0.37337123413E+03  0.51409949614E+03  0.81217073232E+02 0.  0.
         24    2    4    4    0    0  0.14333867856E+02 -0.22696444229E+03 -0.35559222969E+03  0.42944851405E+03  0.79132007265E+02 0.  0.
         13    1    3    3    0    0  0.11662667937E+02  0.39142704428E+00  0.43624922419E+02  0.45158663561E+02  0.00000000000E+00 0.  1.
        -13    1    3    3    0    0 -0.31234124345E+03  0.36040317612E+02  0.78205847378E+03  0.84289466321E+03  0.00000000000E+00 0. -1.
          4    1    6    6  502    0  0.22001744873E+02 -0.22806820806E+03 -0.32342834316E+03  0.39636482875E+03  0.00000000000E+00 0. -1.
          1    1    5    5  503    0  0.27698389819E+03  0.15657431821E+03  0.33643123847E+03  0.46305677319E+03  0.00000000000E+00 0. -1.
         -2    1    5    5    0  503  0.93608094702E+01  0.33958379418E+02  0.36939995654E+02  0.51042722944E+02  0.00000000000E+00 0.  1.
         -3    1    6    6    0  502 -0.76678770167E+01  0.11037657724E+01 -0.32163886531E+02  0.33083685309E+02  0.00000000000E+00 0.  1.
<mgrwt>
<rscale>  0 0.16258335E+04</rscale>
<asrwt>0</asrwt>
<pdfrwt beam="1">  1        2 0.20577413E+00 0.16258335E+04</pdfrwt>
<pdfrwt beam="2">  1       -2 0.76010688E-01 0.16258335E+04</pdfrwt>
<totfact> 0.23321462E+01</totfact>
</mgrwt>
</event>
<event>
12    1  0.1755460E-007  0.1832983E+04  0.7818608E-02  0.8688954E-01
         -2   -1    0    0    0  501 -0.00000000000E+00  0.00000000000E+00  0.78145100229E+03  0.78145100229E+03  0.00000000000E+00 0.  1.
          2   -1    0    0  501    0  0.00000000000E+00 -0.00000000000E+00 -0.10748677956E+04  0.10748677956E+04  0.00000000000E+00 0. -1.
         23    2    1    2    0    0  0.21781115257E+03 -0.22442563818E+03  0.51569346373E+03  0.61019503333E+03  0.92680445140E+02 0.  0.
        254    2    1    2    0    0 -0.21781115257E+03  0.22442563818E+03 -0.80911025701E+03  0.12461237645E+04  0.89462643782E+03 0.  0.
        -24    2    4    4    0    0 -0.19594447000E+03 -0.26349059212E+02 -0.93145157722E+03  0.95539670492E+03  0.78053281845E+02 0.  0.
         24    2    4    4    0    0 -0.21866682567E+02  0.25077469739E+03  0.12234132021E+03  0.29072705961E+03  0.78668442825E+02 0.  0.
         13    1    3    3    0    0  0.70211935429E+01 -0.54194923250E+02  0.10096791610E+03  0.11480813101E+03  0.00000000000E+00 0. -1.
        -13    1    3    3    0    0  0.21078995903E+03 -0.17023071493E+03  0.41472554763E+03  0.49538690232E+03  0.00000000000E+00 0.  1.
          2    1    6    6  502    0 -0.32695223998E+02  0.51305013736E+02  0.10345407829E+02  0.61710692509E+02  0.00000000000E+00 0. -1.
          1    1    5    5  503    0 -0.68694639327E+02 -0.30310433854E+02 -0.21530173256E+03  0.22801866572E+03  0.00000000000E+00 0. -1.
         -2    1    5    5    0  503 -0.12724983068E+03  0.39613746413E+01 -0.71614984466E+03  0.72737803920E+03  0.00000000000E+00 0.  1.
         -3    1    6    6    0  502  0.10828541431E+02  0.19946968366E+03  0.11199591238E+03  0.22901636710E+03  0.00000000000E+00 0.  1.
<mgrwt>
<rscale>  0 0.18329828E+04</rscale>
<asrwt>0</asrwt>
<pdfrwt beam="1">  1        2 0.16536427E+00 0.18329828E+04</pdfrwt>
<pdfrwt beam="2">  1       -2 0.12022323E+00 0.18329828E+04</pdfrwt>
<totfact> 0.11240308E+01</totfact>
</mgrwt>
</event>
<event>
12    1  0.1755460E-007  0.1409367E+04  0.7818608E-02  0.8947066E-01
         -2   -1    0    0    0  501 -0.00000000000E+00  0.00000000000E+00  0.38606988955E+03  0.38606988955E+03  0.00000000000E+00 0.  1.
          2   -1    0    0  501    0  0.00000000000E+00 -0.00000000000E+00 -0.12862415250E+04  0.12862415250E+04  0.00000000000E+00 0. -1.
         23    2    1    2    0    0  0.25130312684E+03  0.15297701754E+03 -0.60023579428E+03  0.67453617519E+03  0.90337220708E+02 0.  0.
        254    2    1    2    0    0 -0.25130312684E+03 -0.15297701754E+03 -0.29993584112E+03  0.99777523932E+03  0.90500756348E+03 0.  0.
        -24    2    4    4    0    0 -0.52281510711E+03 -0.10463040639E+03  0.52681602209E+02  0.54301423737E+03  0.88351302271E+02 0.  0.
         24    2    4    4    0    0  0.27151198027E+03 -0.48346611147E+02 -0.35261744333E+03  0.45476100195E+03  0.80077195964E+02 0.  0.
         11    1    3    3    0    0  0.95752376779E+02  0.10194600503E+02 -0.17397578349E+03  0.19884672685E+03  0.00000000000E+00 0.  1.
        -11    1    3    3    0    0  0.15555075006E+03  0.14278241704E+03 -0.42626001079E+03  0.47568944833E+03  0.00000000000E+00 0. -1.
          4    1    6    6  502    0  0.11965340568E+03 -0.61759268611E+02 -0.17045262859E+03  0.21722164566E+03  0.00000000000E+00 0. -1.
          3    1    5    5  503    0 -0.50090107375E+03 -0.84106520511E+02  0.37304397209E+02  0.50928126858E+03  0.00000000000E+00 0. -1.
         -4    1    5    5    0  503 -0.21914033356E+02 -0.20523885881E+02  0.15377205000E+02  0.33732968787E+02  0.00000000000E+00 0.  1.
         -3    1    6    6    0  502  0.15185857459E+03  0.13412657464E+02 -0.18216481474E+03  0.23753935629E+03  0.00000000000E+00 0.  1.
<mgrwt>
<rscale>  0 0.14093674E+04</rscale>
<asrwt>0</asrwt>
<pdfrwt beam="1">  1        2 0.19788331E+00 0.14093674E+04</pdfrwt>
<pdfrwt beam="2">  1       -2 0.59395368E-01 0.14093674E+04</pdfrwt>
<totfact> 0.43338832E+01</totfact>
</mgrwt>
</event>
<event>
12    1  0.1755460E-007  0.1654015E+04  0.7818608E-02  0.8788035E-01
          2   -1    0    0  501    0  0.00000000000E+00  0.00000000000E+00  0.14229764363E+04  0.14229764363E+04  0.00000000000E+00 0. -1.
         -2   -1    0    0    0  501 -0.00000000000E+00 -0.00000000000E+00 -0.48064115786E+03  0.48064115786E+03  0.00000000000E+00 0.  1.
         23    2    1    2    0    0  0.94301134517E+02 -0.56271251611E+03  0.39429580047E+03  0.69907325468E+03  0.87727745806E+02 0.  0.
        254    2    1    2    0    0 -0.94301134517E+02  0.56271251611E+03  0.54803947799E+03  0.12045443395E+04  0.90831807018E+03 0.  0.
        -24    2    4    4    0    0  0.55935529327E+02  0.11348051832E+02  0.61500666521E+03  0.62343548888E+03  0.84741069230E+02 0.  0.
         24    2    4    4    0    0 -0.15023666384E+03  0.55136446428E+03 -0.66967187222E+02  0.58110885062E+03  0.81419067006E+02 0.  0.
         11    1    3    3    0    0  0.42467090875E+02 -0.45033857275E+03  0.32746871401E+03  0.55842998001E+03  0.00000000000E+00 0. -1.
        -11    1    3    3    0    0  0.51834043642E+02 -0.11237394336E+03  0.66827086455E+02  0.14064327467E+03  0.00000000000E+00 0.  1.
          4    1    6    6  502    0 -0.17191006914E+02  0.20126729105E+03 -0.37254684664E+02  0.20540682728E+03  0.00000000000E+00 0. -1.
          3    1    5    5  503    0  0.27886412311E-01 -0.70544596551E+00  0.42517360982E+03  0.42517419597E+03  0.00000000000E+00 0. -1.
         -4    1    5    5    0  503  0.55907642915E+02  0.12053497798E+02  0.18983305539E+03  0.19826129291E+03  0.00000000000E+00 0.  1.
         -3    1    6    6    0  502 -0.13304565693E+03  0.35009717322E+03 -0.29712502559E+02  0.37570202333E+03  0.00000000000E+00 0.  1.
<mgrwt>
<rscale>  0 0.16540146E+04</rscale>
<asrwt>0</asrwt>
<pdfrwt beam="1">  1        2 0.21891945E+00 0.16540146E+04</pdfrwt>
<pdfrwt beam="2">  1       -2 0.73944794E-01 0.16540146E+04</pdfrwt>
<totfact> 0.22090855E+01</totfact>
</mgrwt>
</event>
<event>
12    1  0.1755460E-007  0.2023452E+04  0.7818608E-02  0.8595734E-01
         -2   -1    0    0    0  501 -0.00000000000E+00  0.00000000000E+00  0.78014268563E+03  0.78014268563E+03  0.00000000000E+00 0.  1.
          2   -1    0    0  501    0  0.00000000000E+00 -0.00000000000E+00 -0.13120537078E+04  0.13120537078E+04  0.00000000000E+00 0. -1.
         23    2    1    2    0    0  0.16531898317E+03 -0.58750181868E-01  0.60415480442E+03  0.63270444501E+03  0.89339338396E+02 0.  0.
        254    2    1    2    0    0 -0.16531898317E+03  0.58750181868E-01 -0.11360658266E+04  0.14594919484E+04  0.90118855714E+03 0.  0.
        -24    2    4    4    0    0  0.14183440103E+03 -0.38426955516E+03 -0.48788856050E+03  0.64198506400E+03  0.79558070570E+02 0.  0.
         24    2    4    4    0    0 -0.30715338421E+03  0.38432830534E+03 -0.64817726610E+03  0.81750688443E+03  0.78308940042E+02 0.  0.
         13    1    3    3    0    0  0.68432548440E+01 -0.15793559030E+02  0.16466272938E+02  0.23820260036E+02  0.00000000000E+00 0. -1.
        -13    1    3    3    0    0  0.15847572833E+03  0.15734808848E+02  0.58768853148E+03  0.60888418497E+03  0.00000000000E+00 0.  1.
          2    1    6    6  502    0 -0.26454405657E+02  0.93562210589E+01 -0.22734616808E+02  0.36114225072E+02  0.00000000000E+00 0. -1.
          1    1    5    5  503    0  0.20590707460E+02 -0.80347564589E+02 -0.15139677809E+03  0.17262877160E+03  0.00000000000E+00 0. -1.
         -2    1    5    5    0  503  0.12124369357E+03 -0.30392199057E+03 -0.33649178241E+03  0.46935629240E+03  0.00000000000E+00 0.  1.
         -1    1    6    6    0  502 -0.28069897855E+03  0.37497208428E+03 -0.62544264929E+03  0.78139265936E+03  0.00000000000E+00 0.  1.
<mgrwt>
<rscale>  0 0.20234516E+04</rscale>
<asrwt>0</asrwt>
<pdfrwt beam="1">  1        2 0.20185441E+00 0.20234516E+04</pdfrwt>
<pdfrwt beam="2">  1       -2 0.12002195E+00 0.20234516E+04</pdfrwt>
<totfact> 0.80071271E+00</totfact>
</mgrwt>
</event>
<event>
12    1  0.1755460E-007  0.1565161E+04  0.7818608E-02  0.8842241E-01
         -2   -1    0    0    0  501 -0.00000000000E+00  0.00000000000E+00  0.26207481733E+03  0.26207481733E+03  0.00000000000E+00 0.  1.
          2   -1    0    0  501    0  0.00000000000E+00 -0.00000000000E+00 -0.23368609440E+04  0.23368609440E+04  0.00000000000E+00 0. -1.
         23    2    1    2    0    0  0.18701504633E+03  0.15654361769E+03 -0.14381041413E+04  0.14617212547E+04  0.94894538038E+02 0.  0.
        254    2    1    2    0    0 -0.18701504633E+03 -0.15654361769E+03 -0.63668198534E+03  0.11372145066E+04  0.91017160569E+03 0.  0.
        -24    2    4    4    0    0 -0.48968836326E+03  0.13440578541E+03 -0.37234679320E+03  0.63468500429E+03  0.79519255553E+02 0.  0.
         24    2    4    4    0    0  0.30267331693E+03 -0.29094940310E+03 -0.26433519214E+03  0.50252950232E+03  0.80000718469E+02 0.  0.
         11    1    3    3    0    0  0.15619141149E+03  0.95848684714E+02 -0.12058884872E+04  0.12197334836E+04  0.00000000000E+00 0. -1.
        -11    1    3    3    0    0  0.30823634842E+02  0.60694932978E+02 -0.23221565408E+03  0.24198777108E+03  0.00000000000E+00 0.  1.
          2    1    6    6  502    0  0.27653780495E+03 -0.25611019217E+03 -0.20540351902E+03  0.42925073526E+03  0.00000000000E+00 0. -1.
          1    1    5    5  503    0 -0.47105576453E+03  0.12066410876E+03 -0.33411043443E+03  0.58998571410E+03  0.00000000000E+00 0. -1.
         -2    1    5    5    0  503 -0.18632598733E+02  0.13741676642E+02 -0.38236358765E+02  0.44699290196E+02  0.00000000000E+00 0.  1.
         -1    1    6    6    0  502  0.26135511979E+02 -0.34839210930E+02 -0.58931673120E+02  0.73278767057E+02  0.00000000000E+00 0.  1.
<mgrwt>
<rscale>  0 0.15651612E+04</rscale>
<asrwt>0</asrwt>
<pdfrwt beam="1">  1        2 0.35951706E+00 0.15651612E+04</pdfrwt>
<pdfrwt beam="2">  1       -2 0.40319204E-01 0.15651612E+04</pdfrwt>
<totfact> 0.24220195E+01</totfact>
</mgrwt>
</event>
<event>
12    1  0.1755460E-007  0.1595327E+04  0.7818608E-02  0.8823424E-01
         -1   -1    0    0    0  501 -0.00000000000E+00  0.00000000000E+00  0.10912241018E+04  0.10912241018E+04  0.00000000000E+00 0.  1.
          1   -1    0    0  501    0  0.00000000000E+00 -0.00000000000E+00 -0.58307648018E+03  0.58307648018E+03  0.00000000000E+00 0. -1.
         23    2    1    2    0    0 -0.32368501015E+03 -0.42096829563E+03  0.12031131875E+03  0.55204179311E+03  0.91044144230E+02 0.  0.
        254    2    1    2    0    0  0.32368501015E+03  0.42096829563E+03  0.38783630288E+03  0.11222587889E+04  0.90942921641E+03 0.  0.
        -24    2    4    4    0    0  0.38433769396E+03  0.96266819734E+02 -0.19366772638E+03  0.44887167332E+03  0.83641062240E+02 0.  0.
         24    2    4    4    0    0 -0.60652683802E+02  0.32470147589E+03  0.58150402926E+03  0.67338711556E+03  0.78698633108E+02 0.  0.
         13    1    3    3    0    0 -0.30502111535E+03 -0.34807438052E+03  0.93488718002E+02  0.47215865509E+03  0.00000000000E+00 0. -1.
        -13    1    3    3    0    0 -0.18663894807E+02 -0.72893915108E+02  0.26822600749E+02  0.79883138021E+02  0.00000000000E+00 0.  1.
          4    1    6    6  502    0 -0.60567024211E+01  0.21446968904E+03  0.40378683530E+03  0.45725019357E+03  0.00000000000E+00 0. -1.
          3    1    5    5  503    0  0.14786478909E+03  0.29883539927E+01 -0.97204976761E+02  0.17697947231E+03  0.00000000000E+00 0. -1.
         -4    1    5    5    0  503  0.23647290487E+03  0.93278465741E+02 -0.96462749620E+02  0.27189220102E+03  0.00000000000E+00 0.  1.
         -3    1    6    6    0  502 -0.54595981381E+02  0.11023178685E+03  0.17771719396E+03  0.21613692198E+03  0.00000000000E+00 0.  1.
<mgrwt>
<rscale>  0 0.15953271E+04</rscale>
<asrwt>0</asrwt>
<pdfrwt beam="1">  1        1 0.89704074E-01 0.15953271E+04</pdfrwt>
<pdfrwt beam="2">  1       -1 0.16788063E+00 0.15953271E+04</pdfrwt>
<totfact> 0.87388573E+00</totfact>
</mgrwt>
</event>
<event>
12    1  0.1755460E-007  0.3440353E+04  0.7818608E-02  0.8128073E-01
          2   -1    0    0  501    0  0.00000000000E+00  0.00000000000E+00  0.20123369509E+04  0.20123369509E+04  0.00000000000E+00 0. -1.
         -2   -1    0    0    0  501 -0.00000000000E+00 -0.00000000000E+00 -0.14704329945E+04  0.14704329945E+04  0.00000000000E+00 0.  1.
         23    2    1    2    0    0  0.12540200331E+04 -0.85977061012E+03  0.75578635040E+03  0.17003527090E+04  0.90634332667E+02 0.  0.
        254    2    1    2    0    0 -0.12540200331E+04  0.85977061012E+03 -0.21388239403E+03  0.17824172363E+04  0.90525895774E+03 0.  0.
        -24    2    4    4    0    0 -0.93289311201E+03  0.88435673705E+03  0.14081615806E+03  0.12956396136E+04  0.80476215548E+02 0.  0.
         24    2    4    4    0    0 -0.32112692106E+03 -0.24586126924E+02 -0.35469855210E+03  0.48677762270E+03  0.86106991806E+02 0.  0.
         11    1    3    3    0    0  0.67821479685E+03 -0.47154637009E+03  0.36044277454E+03  0.90124929045E+03  0.00000000000E+00 0.  1.
        -11    1    3    3    0    0  0.57580523622E+03 -0.38822424003E+03  0.39534357586E+03  0.79910341857E+03  0.00000000000E+00 0. -1.
          4    1    6    6  502    0 -0.15733370383E+03 -0.54799266539E+02 -0.18618328046E+03  0.24984208592E+03  0.00000000000E+00 0. -1.
          3    1    5    5  503    0 -0.91988591033E+03  0.86145127592E+03  0.12929138446E+03  0.12668877815E+04  0.00000000000E+00 0. -1.
         -4    1    5    5    0  503 -0.13007201672E+02  0.22905461130E+02  0.11524773603E+02  0.28751832142E+02  0.00000000000E+00 0.  1.
         -3    1    6    6    0  502 -0.16379321722E+03  0.30213139615E+02 -0.16851527164E+03  0.23693553678E+03  0.00000000000E+00 0.  1.
<mgrwt>
<rscale>  0 0.34403527E+04</rscale>
<asrwt>0</asrwt>
<pdfrwt beam="1">  1        2 0.30959030E+00 0.34403527E+04</pdfrwt>
<pdfrwt beam="2">  1       -2 0.22622046E+00 0.34403527E+04</pdfrwt>
<totfact> 0.49035287E-01</totfact>
</mgrwt>
</event>
<event>
12    1  0.1755460E-007  0.2830899E+04  0.7818608E-02  0.8293739E-01
         -2   -1    0    0    0  501 -0.00000000000E+00  0.00000000000E+00  0.90713461085E+03  0.90713461085E+03  0.00000000000E+00 0.  1.
          2   -1    0    0  501    0  0.00000000000E+00 -0.00000000000E+00 -0.22085999897E+04  0.22085999897E+04  0.00000000000E+00 0. -1.
         23    2    1    2    0    0  0.12317172258E+04  0.15681380689E+03 -0.85974276347E+03  0.15131966472E+04  0.94279262211E+02 0.  0.
        254    2    1    2    0    0 -0.12317172258E+04 -0.15681380689E+03 -0.44172261542E+03  0.16025379534E+04  0.91175168157E+03 0.  0.
        -24    2    4    4    0    0 -0.66574069817E+03 -0.31809094623E+03  0.15775722818E+03  0.75862145781E+03  0.78909099193E+02 0.  0.
         24    2    4    4    0    0 -0.56597652764E+03  0.16127713933E+03 -0.59947984360E+03  0.84391649562E+03  0.80493622104E+02 0.  0.
         11    1    3    3    0    0  0.21220021829E+03  0.63271715616E+02 -0.15186602720E+03  0.26850611326E+03  0.00000000000E+00 0.  1.
        -11    1    3    3    0    0  0.10195170075E+04  0.93542091279E+02 -0.70787673627E+03  0.12446905339E+04  0.00000000000E+00 0. -1.
          4    1    6    6  502    0 -0.53965079244E+03  0.15872213481E+03 -0.54436072965E+03  0.78277985273E+03  0.00000000000E+00 0. -1.
          3    1    5    5  503    0 -0.11917575698E+03 -0.67272893883E+02 -0.21104156572E+00  0.13685228475E+03  0.00000000000E+00 0. -1.
         -4    1    5    5    0  503 -0.54656494118E+03 -0.25081805235E+03  0.15796826975E+03  0.62176917305E+03  0.00000000000E+00 0.  1.
         -3    1    6    6    0  502 -0.26325735200E+02  0.25550045202E+01 -0.55119113943E+02  0.61136642889E+02  0.00000000000E+00 0.  1.
<mgrwt>
<rscale>  0 0.28308991E+04</rscale>
<asrwt>0</asrwt>
<pdfrwt beam="1">  1        2 0.33978461E+00 0.28308991E+04</pdfrwt>
<pdfrwt beam="2">  1       -2 0.13955917E+00 0.28308991E+04</pdfrwt>
<totfact> 0.16049312E+00</totfact>
</mgrwt>
</event>
<event>
12    1  0.1755460E-007  0.1247408E+04  0.7818608E-02  0.9072343E-01
          2   -1    0    0  501    0  0.00000000000E+00  0.00000000000E+00  0.83812855697E+03  0.83812855697E+03  0.00000000000E+00 0.  1.
         -2   -1    0    0    0  501 -0.00000000000E+00 -0.00000000000E+00 -0.46413735453E+03  0.46413735453E+03  0.00000000000E+00 0. -1.
         23    2    1    2    0    0  0.44776652701E+02  0.10046921927E+03  0.36467819284E+03  0.39166825448E+03  0.91185659953E+02 0.  0.
        254    2    1    2    0    0 -0.44776652701E+02 -0.10046921927E+03  0.93130095960E+01  0.91059765703E+03  0.90388182202E+03 0.  0.
        -24    2    4    4    0    0 -0.40892338598E+03 -0.19437336670E+03 -0.16634888276E+03  0.48793434209E+03  0.73543389292E+02 0.  0.
         24    2    4    4    0    0  0.36414673328E+03  0.93904147420E+02  0.17566189236E+03  0.42266331494E+03  0.79789379669E+02 0.  0.
         13    1    3    3    0    0 -0.11641918593E+02  0.78490182117E+02  0.24527071289E+03  0.25778666676E+03  0.00000000000E+00 0.  1.
        -13    1    3    3    0    0  0.56418571293E+02  0.21979037158E+02  0.11940747996E+03  0.13388158772E+03  0.00000000000E+00 0. -1.
          2    1    6    6  502    0  0.19595009157E+03  0.13542166135E+02  0.70824216502E+02  0.20879630814E+03  0.00000000000E+00 0. -1.
          1    1    5    5  503    0 -0.33474616473E+03 -0.12591676499E+03 -0.12510574375E+03  0.37889506942E+03  0.00000000000E+00 0. -1.
         -2    1    5    5    0  503 -0.74177221251E+02 -0.68456601701E+02 -0.41243139015E+02  0.10903927267E+03  0.00000000000E+00 0.  1.
         -1    1    6    6    0  502  0.16819664171E+03  0.80361981286E+02  0.10483767585E+03  0.21386700680E+03  0.00000000000E+00 0.  1.
<mgrwt>
<rscale>  0 0.12474081E+04</rscale>
<asrwt>0</asrwt>
<pdfrwt beam="1">  1        2 0.12894285E+00 0.12474081E+04</pdfrwt>
<pdfrwt beam="2">  1       -2 0.71405747E-01 0.12474081E+04</pdfrwt>
<totfact> 0.56660937E+01</totfact>
</mgrwt>
</event>
<event>
12    1  0.1755460E-007  0.1728255E+04  0.7818608E-02  0.8745412E-01
          2   -1    0    0  501    0  0.00000000000E+00  0.00000000000E+00  0.11115085131E+04  0.11115085131E+04  0.00000000000E+00 0. -1.
         -2   -1    0    0    0  501 -0.00000000000E+00 -0.00000000000E+00 -0.67180431039E+03  0.67180431039E+03  0.00000000000E+00 0.  1.
         23    2    1    2    0    0  0.45837011644E+03 -0.28185064911E+03 -0.23462580917E+03  0.59473430299E+03  0.95481248315E+02 0.  0.
        254    2    1    2    0    0 -0.45837011644E+03  0.28185064911E+03  0.67433001186E+03  0.11885785205E+04  0.81759096277E+03 0.  0.
        -24    2    4    4    0    0 -0.50416219760E+02  0.22671237401E+03 -0.13265280504E+03  0.27885783724E+03  0.78896330468E+02 0.  0.
         24    2    4    4    0    0 -0.40795389668E+03  0.55138275106E+02  0.80698281690E+03  0.90972068324E+03  0.83089370896E+02 0.  0.
         11    1    3    3    0    0  0.13202845887E+03 -0.60860223898E+02 -0.10681461335E+03  0.18040189142E+03  0.00000000000E+00 0. -1.
        -11    1    3    3    0    0  0.32634165757E+03 -0.22099042521E+03 -0.12781119583E+03  0.41433241157E+03  0.00000000000E+00 0.  1.
          4    1    6    6  502    0 -0.29412960486E+02  0.23410921547E+02  0.47862918770E+02  0.60860927412E+02  0.00000000000E+00 0. -1.
          1    1    5    5  503    0 -0.63870639614E+00  0.80613946155E+02 -0.90553405003E+01  0.81123458088E+02  0.00000000000E+00 0. -1.
         -2    1    5    5    0  503 -0.49777513364E+02  0.14609842785E+03 -0.12359746454E+03  0.19773437915E+03  0.00000000000E+00 0.  1.
         -3    1    6    6    0  502 -0.37854093619E+03  0.31727353559E+02  0.75911989813E+03  0.84885975583E+03  0.00000000000E+00 0.  1.
<mgrwt>
<rscale>  0 0.17282549E+04</rscale>
<asrwt>0</asrwt>
<pdfrwt beam="1">  1        2 0.17100131E+00 0.17282549E+04</pdfrwt>
<pdfrwt beam="2">  1       -2 0.10335451E+00 0.17282549E+04</pdfrwt>
<totfact> 0.15538966E+01</totfact>
</mgrwt>
</event>
<event>
12    1  0.1755460E-007  0.2744820E+04  0.7818608E-02  0.8320607E-01
          2   -1    0    0  501    0  0.00000000000E+00  0.00000000000E+00  0.10916389752E+04  0.10916389752E+04  0.00000000000E+00 0. -1.
         -2   -1    0    0    0  501 -0.00000000000E+00 -0.00000000000E+00 -0.17253959384E+04  0.17253959384E+04  0.00000000000E+00 0.  1.
         23    2    1    2    0    0 -0.31128520651E+03 -0.10499702543E+04 -0.78211951488E+03  0.13487062029E+04  0.89227078743E+02 0.  0.
        254    2    1    2    0    0  0.31128520651E+03  0.10499702543E+04  0.14836255168E+03  0.14683287107E+04  0.96676871135E+03 0.  0.
        -24    2    4    4    0    0  0.61600287980E+03  0.47986794932E+03  0.21399887977E+03  0.81359174300E+03  0.80020041437E+02 0.  0.
         24    2    4    4    0    0 -0.30471767330E+03  0.57010230498E+03 -0.65636328088E+02  0.65473696771E+03  0.80640379168E+02 0.  0.
         13    1    3    3    0    0 -0.11930038497E+03 -0.43917072953E+03 -0.37779174545E+03  0.59146438140E+03  0.00000000000E+00 0. -1.
        -13    1    3    3    0    0 -0.19198482153E+03 -0.61079952477E+03 -0.40432776943E+03  0.75724182154E+03  0.00000000000E+00 0.  1.
          4    1    6    6  502    0 -0.22959239774E+03  0.35324105451E+03 -0.56288516372E+02  0.42504153769E+03  0.00000000000E+00 0. -1.
          3    1    5    5  503    0  0.28288478855E+03  0.27097889725E+03  0.10411621030E+03  0.40533140959E+03  0.00000000000E+00 0. -1.
         -4    1    5    5    0  503  0.33311809125E+03  0.20888905207E+03  0.10988266947E+03  0.40826033342E+03  0.00000000000E+00 0.  1.
         -3    1    6    6    0  502 -0.75125275555E+02  0.21686125048E+03 -0.93478117156E+01  0.22969543002E+03  0.00000000000E+00 0.  1.
<mgrwt>
<rscale>  0 0.27448202E+04</rscale>
<asrwt>0</asrwt>
<pdfrwt beam="1">  1        2 0.16794446E+00 0.27448202E+04</pdfrwt>
<pdfrwt beam="2">  1       -2 0.26544553E+00 0.27448202E+04</pdfrwt>
<totfact> 0.99581355E-01</totfact>
</mgrwt>
</event>
<event>
12    1  0.1755460E-007  0.2314931E+04  0.7818608E-02  0.8472057E-01
         -1   -1    0    0    0  501 -0.00000000000E+00  0.00000000000E+00  0.16926613158E+04  0.16926613158E+04  0.00000000000E+00 0.  1.
          1   -1    0    0  501    0  0.00000000000E+00 -0.00000000000E+00 -0.79149144143E+03  0.79149144143E+03  0.00000000000E+00 0. -1.
         23    2    1    2    0    0 -0.94873554036E+03  0.18033044894E+03  0.18362242714E+03  0.98725428108E+03  0.91299635284E+02 0.  0.
        254    2    1    2    0    0  0.94873554036E+03 -0.18033044894E+03  0.71754744721E+03  0.14968984761E+04  0.89062478774E+03 0.  0.
        -24    2    4    4    0    0  0.55377332354E+03 -0.52377820641E+03  0.29925683081E+03  0.82272546108E+03  0.79460871752E+02 0.  0.
         24    2    4    4    0    0  0.39496221681E+03  0.34344775747E+03  0.41829061640E+03  0.67417301507E+03  0.74770981386E+02 0.  0.
         13    1    3    3    0    0 -0.54019758834E+03  0.11912173205E+03  0.14795037142E+03  0.57261918751E+03  0.00000000000E+00 0.  1.
        -13    1    3    3    0    0 -0.40853795201E+03  0.61208716887E+02  0.35672055719E+02  0.41463509357E+03  0.00000000000E+00 0. -1.
          2    1    6    6  502    0  0.30474770172E+03  0.29629272146E+03  0.31407929114E+03  0.52849440831E+03  0.00000000000E+00 0. -1.
          1    1    5    5  503    0  0.26879336829E+03 -0.25591569451E+03  0.18836800846E+03  0.41620334470E+03  0.00000000000E+00 0. -1.
         -2    1    5    5    0  503  0.28497995525E+03 -0.26786251191E+03  0.11088882236E+03  0.40652211637E+03  0.00000000000E+00 0.  1.
         -1    1    6    6    0  502  0.90214515091E+02  0.47155036015E+02  0.10421132526E+03  0.14567860676E+03  0.00000000000E+00 0.  1.
<mgrwt>
<rscale>  0 0.23149315E+04</rscale>
<asrwt>0</asrwt>
<pdfrwt beam="1">  1        1 0.12176791E+00 0.23149315E+04</pdfrwt>
<pdfrwt beam="2">  1       -1 0.26040943E+00 0.23149315E+04</pdfrwt>
<totfact> 0.12108266E+00</totfact>
</mgrwt>
</event>
<event>
12    1  0.1755460E-007  0.2063033E+04  0.7818608E-02  0.8577705E-01
          2   -1    0    0  501    0  0.00000000000E+00  0.00000000000E+00  0.35509165961E+04  0.35509165961E+04  0.00000000000E+00 0.  1.
         -2   -1    0    0    0  501 -0.00000000000E+00 -0.00000000000E+00 -0.29964848164E+03  0.29964848164E+03  0.00000000000E+00 0. -1.
         23    2    1    2    0    0 -0.40607609600E+03  0.15711882063E+03 -0.34762341359E+01  0.44493817590E+03  0.91508341882E+02 0.  0.
        254    2    1    2    0    0  0.40607609600E+03 -0.15711882063E+03  0.32547443486E+04  0.34056269018E+04  0.90296716453E+03 0.  0.
        -24    2    4    4    0    0  0.42394854064E+03 -0.11837146910E+02  0.56774727520E+03  0.71316989095E+03  0.80011509872E+02 0.  0.
         24    2    4    4    0    0 -0.17872444639E+02 -0.14528167372E+03  0.26869970734E+04  0.26924570109E+04  0.89136378569E+02 0.  0.
         13    1    3    3    0    0 -0.28678518802E+03  0.13843270367E+03  0.29383864872E+02  0.31980113982E+03  0.00000000000E+00 0.  1.
        -13    1    3    3    0    0 -0.11929090798E+03  0.18686116959E+02 -0.32860099008E+02  0.12513703609E+03  0.00000000000E+00 0. -1.
          4    1    6    6  502    0  0.36279176977E+02 -0.65168760242E+02  0.11254114050E+04  0.11278803024E+04  0.00000000000E+00 0. -1.
          3    1    5    5  503    0  0.31078666673E+02  0.88119249940E+01  0.17471474032E+02  0.36725821286E+02  0.00000000000E+00 0. -1.
         -4    1    5    5    0  503  0.39286987396E+03 -0.20649071904E+02  0.55027580117E+03  0.67644406967E+03  0.00000000000E+00 0.  1.
         -3    1    6    6    0  502 -0.54151621616E+02 -0.80112913481E+02  0.15615856684E+04  0.15645767085E+04  0.00000000000E+00 0.  1.
<mgrwt>
<rscale>  0 0.20630335E+04</rscale>
<asrwt>0</asrwt>
<pdfrwt beam="1">  1        2 0.54629483E+00 0.20630335E+04</pdfrwt>
<pdfrwt beam="2">  1       -2 0.46099769E-01 0.20630335E+04</pdfrwt>
<totfact> 0.31030994E+00</totfact>
</mgrwt>
</event>
<event>
12    1  0.1755460E-007  0.1779120E+04  0.7818608E-02  0.8717483E-01
         -2   -1    0    0    0  501 -0.00000000000E+00  0.00000000000E+00  0.56890734619E+03  0.56890734619E+03  0.00000000000E+00 0.  1.
          2   -1    0    0  501    0  0.00000000000E+00 -0.00000000000E+00 -0.13909411291E+04  0.13909411291E+04  0.00000000000E+00 0. -1.
         23    2    1    2    0    0 -0.75091299397E+02  0.16430209391E+02 -0.10004099779E+04  0.10070449471E+04  0.86085693442E+02 0.  0.
        254    2    1    2    0    0  0.75091299397E+02 -0.16430209391E+02  0.17837619493E+03  0.95280352823E+03  0.93279571261E+03 0.  0.
        -24    2    4    4    0    0  0.14816041624E+03 -0.32662700014E+03 -0.22637703851E+03  0.43159829209E+03  0.79961340702E+02 0.  0.
         24    2    4    4    0    0 -0.73069116842E+02  0.31019679075E+03  0.40475323345E+03  0.52120523614E+03  0.79174322637E+02 0.  0.
         11    1    3    3    0    0 -0.82984600639E+02  0.72397708664E+01 -0.97824520995E+03  0.98178538848E+03  0.00000000000E+00 0. -1.
        -11    1    3    3    0    0  0.78933012424E+01  0.91904385243E+01 -0.22164767923E+02  0.25259558623E+02  0.00000000000E+00 0.  1.
          4    1    6    6  502    0 -0.45523093533E+02  0.55954023419E+02  0.77359004884E+02  0.10577154825E+03  0.00000000000E+00 0. -1.
          1    1    5    5  503    0 -0.52170958243E+01 -0.56985712291E+02 -0.33281458365E+02  0.66198526910E+02  0.00000000000E+00 0. -1.
         -2    1    5    5    0  503  0.15337751206E+03 -0.26964128785E+03 -0.19309558015E+03  0.36539976518E+03  0.00000000000E+00 0.  1.
         -3    1    6    6    0  502 -0.27546023309E+02  0.25424276733E+03  0.32739422856E+03  0.41543368789E+03  0.00000000000E+00 0.  1.
<mgrwt>
<rscale>  0 0.17791196E+04</rscale>
<asrwt>0</asrwt>
<pdfrwt beam="1">  1        2 0.21399094E+00 0.17791196E+04</pdfrwt>
<pdfrwt beam="2">  1       -2 0.87524207E-01 0.17791196E+04</pdfrwt>
<totfact> 0.15607261E+01</totfact>
</mgrwt>
</event>
<event>
12    1  0.1755460E-007  0.1235422E+04  0.7818608E-02  0.9082404E-01
          1   -1    0    0  501    0  0.00000000000E+00  0.00000000000E+00  0.30249022132E+04  0.30249022132E+04  0.00000000000E+00 0. -1.
         -1   -1    0    0    0  501 -0.00000000000E+00 -0.00000000000E+00 -0.12614190316E+03  0.12614190316E+03  0.00000000000E+00 0.  1.
         23    2    1    2    0    0  0.98768079083E+02  0.18268675044E+03  0.91113354732E+03  0.93866521385E+03  0.88308891956E+02 0.  0.
        254    2    1    2    0    0 -0.98768079083E+02 -0.18268675044E+03  0.19876267627E+04  0.22123789025E+04  0.94912100292E+03 0.  0.
        -24    2    4    4    0    0 -0.23344420514E+03  0.32996194723E+03  0.10993647747E+04  0.11741966882E+04  0.82242756471E+02 0.  0.
         24    2    4    4    0    0  0.13467612605E+03 -0.51264869766E+03  0.88826198793E+03  0.10381822143E+04  0.88693882473E+02 0.  0.
         11    1    3    3    0    0  0.88315305950E+02  0.16503597768E+03  0.88898152541E+03  0.90847378592E+03  0.00000000000E+00 0. -1.
        -11    1    3    3    0    0  0.10452773133E+02  0.17650772759E+02  0.22152021915E+02  0.30191427924E+02  0.00000000000E+00 0.  1.
          4    1    6    6  502    0  0.52055667213E+00 -0.73958774567E+02  0.17678457176E+03  0.19163234624E+03  0.00000000000E+00 0. -1.
          1    1    5    5  503    0 -0.72805232795E+02  0.61306899834E+02  0.33399338221E+03  0.34729053723E+03  0.00000000000E+00 0. -1.
         -2    1    5    5    0  503 -0.16063897234E+03  0.26865504739E+03  0.76537139254E+03  0.82690615093E+03  0.00000000000E+00 0.  1.
         -3    1    6    6    0  502  0.13415556938E+03 -0.43868992310E+03  0.71147741617E+03  0.84654986808E+03  0.00000000000E+00 0.  1.
<mgrwt>
<rscale>  0 0.12354221E+04</rscale>
<asrwt>0</asrwt>
<pdfrwt beam="1">  1        1 0.46536952E+00 0.12354221E+04</pdfrwt>
<pdfrwt beam="2">  1       -1 0.19406449E-01 0.12354221E+04</pdfrwt>
<totfact> 0.12324014E+01</totfact>
</mgrwt>
</event>
<event>
12    1  0.1755460E-007  0.1577467E+04  0.7818608E-02  0.8834512E-01
          2   -1    0    0  501    0  0.00000000000E+00  0.00000000000E+00  0.20055377364E+04  0.20055377364E+04  0.00000000000E+00 0. -1.
         -2   -1    0    0    0  501 -0.00000000000E+00 -0.00000000000E+00 -0.31019146170E+03  0.31019146170E+03  0.00000000000E+00 0.  1.
         23    2    1    2    0    0  0.48807370093E+03  0.23547857635E+03  0.24310483332E+03  0.60137521348E+03  0.94266059339E+02 0.  0.
        254    2    1    2    0    0 -0.48807370093E+03 -0.23547857635E+03  0.14522414414E+04  0.17143539846E+04  0.73235120200E+03 0.  0.
        -24    2    4    4    0    0  0.99515504235E+02  0.33302400057E+00  0.76846783752E+03  0.77899038375E+03  0.79873363434E+02 0.  0.
         24    2    4    4    0    0 -0.58758920516E+03 -0.23581160035E+03  0.68377360385E+03  0.93536360087E+03  0.80563885313E+02 0.  0.
         13    1    3    3    0    0  0.31164911221E+03  0.16218254881E+03  0.10858071513E+03  0.36772016531E+03  0.00000000000E+00 0.  1.
        -13    1    3    3    0    0  0.17642458872E+03  0.73296027535E+02  0.13452411819E+03  0.23365504817E+03  0.00000000000E+00 0. -1.
          2    1    6    6  502    0 -0.56905415024E+03 -0.23832204991E+03  0.67572937372E+03  0.91500284803E+03  0.00000000000E+00 0. -1.
          1    1    5    5  503    0  0.23362867592E+02  0.35604927203E+02  0.30900736691E+03  0.31192801610E+03  0.00000000000E+00 0. -1.
         -2    1    5    5    0  503  0.76152636643E+02 -0.35271903202E+02  0.45946047061E+03  0.46706236765E+03  0.00000000000E+00 0.  1.
         -1    1    6    6    0  502 -0.18535054921E+02  0.25104495595E+01  0.80442301290E+01  0.20360752842E+02  0.00000000000E+00 0.  1.
<mgrwt>
<rscale>  0 0.15774672E+04</rscale>
<asrwt>0</asrwt>
<pdfrwt beam="1">  1        2 0.30854426E+00 0.15774672E+04</pdfrwt>
<pdfrwt beam="2">  1       -2 0.47721765E-01 0.15774672E+04</pdfrwt>
<totfact> 0.26521569E+01</totfact>
</mgrwt>
</event>
<event>
12    1  0.1755460E-007  0.1350945E+04  0.7818608E-02  0.8990113E-01
         -2   -1    0    0    0  501 -0.00000000000E+00  0.00000000000E+00  0.13496472546E+03  0.13496472546E+03  0.00000000000E+00 0.  1.
          2   -1    0    0  501    0  0.00000000000E+00 -0.00000000000E+00 -0.33806119734E+04  0.33806119734E+04  0.00000000000E+00 0. -1.
         23    2    1    2    0    0 -0.28111854284E+03 -0.21395357894E+03 -0.69401990178E+03  0.78422891005E+03  0.92453178569E+02 0.  0.
        254    2    1    2    0    0  0.28111854284E+03  0.21395357894E+03 -0.25516273462E+04  0.27313477888E+04  0.90810509342E+03 0.  0.
        -24    2    4    4    0    0 -0.26396673372E+03 -0.94828230987E+02 -0.12639204443E+04  0.12971091886E+04  0.79539473042E+02 0.  0.
         24    2    4    4    0    0  0.54508527655E+03  0.30878180993E+03 -0.12877069019E+04  0.14342386002E+04  0.79919536644E+02 0.  0.
         11    1    3    3    0    0 -0.11695487144E+03 -0.11065385838E+03 -0.22488268032E+03  0.27657718314E+03  0.00000000000E+00 0.  1.
        -11    1    3    3    0    0 -0.16416367140E+03 -0.10329972056E+03 -0.46913722146E+03  0.50765172691E+03  0.00000000000E+00 0. -1.
          2    1    6    6  502    0  0.30306655464E+01  0.11450197149E+02 -0.13466445780E+02  0.17934244070E+02  0.00000000000E+00 0. -1.
          1    1    5    5  503    0 -0.10941695613E+03 -0.66888650991E+02 -0.43797387827E+03  0.45636310101E+03  0.00000000000E+00 0. -1.
         -2    1    5    5    0  503 -0.15454977759E+03 -0.27939579996E+02 -0.82594656598E+03  0.84074608756E+03  0.00000000000E+00 0.  1.
         -1    1    6    6    0  502  0.54205461101E+03  0.29733161278E+03 -0.12742404561E+04  0.14163043562E+04  0.00000000000E+00 0.  1.
<mgrwt>
<rscale>  0 0.13509454E+04</rscale>
<asrwt>0</asrwt>
<pdfrwt beam="1">  1        2 0.52009411E+00 0.13509454E+04</pdfrwt>
<pdfrwt beam="2">  1       -2 0.20763806E-01 0.13509454E+04</pdfrwt>
<totfact> 0.19528492E+01</totfact>
</mgrwt>
</event>
<event>
12    1  0.1755460E-007  0.1458727E+04  0.7818608E-02  0.8912372E-01
          1   -1    0    0  501    0  0.00000000000E+00  0.00000000000E+00  0.77402261348E+03  0.77402261348E+03  0.00000000000E+00 0. -1.
         -1   -1    0    0    0  501 -0.00000000000E+00 -0.00000000000E+00 -0.68728143361E+03  0.68728143361E+03  0.00000000000E+00 0.  1.
         23    2    1    2    0    0 -0.24328721958E+03 -0.13186441097E+03 -0.32747347192E+03  0.43862279030E+03  0.92596885878E+02 0.  0.
        254    2    1    2    0    0  0.24328721958E+03  0.13186441097E+03  0.41421465179E+03  0.10226812568E+04  0.89315523910E+03 0.  0.
        -24    2    4    4    0    0  0.13486430009E+03  0.41086374078E+03 -0.73418251617E+02  0.44495455033E+03  0.74812560857E+02 0.  0.
         24    2    4    4    0    0  0.10842291948E+03 -0.27899932982E+03  0.48763290341E+03  0.57772670645E+03  0.79913349024E+02 0.  0.
         13    1    3    3    0    0 -0.31423267453E+01  0.11554038209E+02 -0.11050990537E+02  0.16293999146E+02  0.00000000000E+00 0. -1.
        -13    1    3    3    0    0 -0.24014489283E+03 -0.14341844918E+03 -0.31642248138E+03  0.42232879116E+03  0.00000000000E+00 0.  1.
          2    1    6    6  502    0  0.67753669381E+02 -0.74023244578E+02  0.14327373750E+03  0.17492102306E+03  0.00000000000E+00 0. -1.
          1    1    5    5  503    0  0.38674568151E+02  0.76872859515E+02  0.12421215424E+02  0.86945070845E+02  0.00000000000E+00 0. -1.
         -2    1    5    5    0  503  0.96189731942E+02  0.33399088127E+03 -0.85839467041E+02  0.35800947949E+03  0.00000000000E+00 0.  1.
         -1    1    6    6    0  502  0.40669250104E+02 -0.20497608524E+03  0.34435916591E+03  0.40280568339E+03  0.00000000000E+00 0.  1.
<mgrwt>
<rscale>  0 0.14587274E+04</rscale>
<asrwt>0</asrwt>
<pdfrwt beam="1">  1        1 0.11908040E+00 0.14587274E+04</pdfrwt>
<pdfrwt beam="2">  1       -1 0.10573561E+00 0.14587274E+04</pdfrwt>
<totfact> 0.18954007E+01</totfact>
</mgrwt>
</event>
<event>
12    1  0.1755460E-007  0.2110591E+04  0.7818608E-02  0.8556592E-01
         -1   -1    0    0    0  501 -0.00000000000E+00  0.00000000000E+00  0.50304263879E+03  0.50304263879E+03  0.00000000000E+00 0.  1.
          1   -1    0    0  501    0  0.00000000000E+00 -0.00000000000E+00 -0.22138257976E+04  0.22138257976E+04  0.00000000000E+00 0. -1.
         23    2    1    2    0    0 -0.27677424640E+03 -0.36838866958E+03  0.24652447216E+03  0.53019774862E+03  0.89560828084E+02 0.  0.
        254    2    1    2    0    0  0.27677424640E+03  0.36838866958E+03 -0.19573076310E+04  0.21866706878E+04  0.85916316212E+03 0.  0.
        -24    2    4    4    0    0 -0.25573610728E+02  0.26154088425E+03 -0.17996480381E+04  0.18205337841E+04  0.80947850535E+02 0.  0.
         24    2    4    4    0    0  0.30234785713E+03  0.10684778533E+03 -0.15765959289E+03  0.36613690363E+03  0.79806071408E+02 0.  0.
         13    1    3    3    0    0 -0.59728661251E+02 -0.68599575807E+02  0.11287100018E+02  0.91655951266E+02  0.00000000000E+00 0. -1.
        -13    1    3    3    0    0 -0.21704558515E+03 -0.29978909377E+03  0.23523737214E+03  0.43854179736E+03  0.00000000000E+00 0.  1.
          2    1    6    6  502    0  0.12995462993E+03  0.77316549853E+02 -0.43776156556E+02  0.15742428848E+03  0.00000000000E+00 0. -1.
          3    1    5    5  503    0  0.13188087146E+02  0.12712211314E+03 -0.10690694470E+04  0.10766816799E+04  0.00000000000E+00 0. -1.
         -4    1    5    5    0  503 -0.38761697874E+02  0.13441877112E+03 -0.73057859103E+03  0.74385210420E+03  0.00000000000E+00 0.  1.
         -1    1    6    6    0  502  0.17239322720E+03  0.29531235475E+02 -0.11388343633E+03  0.20871261515E+03  0.00000000000E+00 0.  1.
<mgrwt>
<rscale>  0 0.21105912E+04</rscale>
<asrwt>0</asrwt>
<pdfrwt beam="1">  1        1 0.34058859E+00 0.21105912E+04</pdfrwt>
<pdfrwt beam="2">  1       -1 0.77391174E-01 0.21105912E+04</pdfrwt>
<totfact> 0.32779797E+00</totfact>
</mgrwt>
</event>
<event>
12    1  0.1755460E-007  0.4155708E+04  0.7818608E-02  0.7973851E-01
          2   -1    0    0  501    0  0.00000000000E+00  0.00000000000E+00  0.25258521717E+04  0.25258521717E+04  0.00000000000E+00 0.  1.
         -2   -1    0    0    0  501 -0.00000000000E+00 -0.00000000000E+00 -0.17093154382E+04  0.17093154382E+04  0.00000000000E+00 0. -1.
         23    2    1    2    0    0 -0.17203061986E+04  0.33422330190E+03 -0.59237848032E+03  0.18521399083E+04  0.91385685368E+02 0.  0.
        254    2    1    2    0    0  0.17203061986E+04 -0.33422330190E+03  0.14089152138E+04  0.23830277016E+04  0.78906293456E+03 0.  0.
        -24    2    4    4    0    0  0.91310849639E+03  0.47169470662E+02  0.11054711391E+04  0.14368389727E+04  0.80297627103E+02 0.  0.
         24    2    4    4    0    0  0.80719770218E+03 -0.38139277256E+03  0.30344407468E+03  0.94618872892E+03  0.78525326593E+02 0.  0.
         13    1    3    3    0    0 -0.75169433625E+03  0.12124639564E+03 -0.29767015614E+03  0.81752833924E+03  0.00000000000E+00 0. -1.
        -13    1    3    3    0    0 -0.96861186232E+03  0.21297690626E+03 -0.29470832418E+03  0.10346115690E+04  0.00000000000E+00 0.  1.
          4    1    6    6  502    0  0.11699080256E+03 -0.38403024903E+02  0.18723142748E+02  0.12454796779E+03  0.00000000000E+00 0. -1.
          1    1    5    5  503    0  0.34539166434E+03 -0.61584951926E+01  0.46570684169E+03  0.57984152253E+03  0.00000000000E+00 0. -1.
         -2    1    5    5    0  503  0.56771683205E+03  0.53327965854E+02  0.63976429744E+03  0.85699745018E+03  0.00000000000E+00 0.  1.
         -3    1    6    6    0  502  0.69020689962E+03 -0.34298974766E+03  0.28472093193E+03  0.82164076114E+03  0.00000000000E+00 0.  1.
<mgrwt>
<rscale>  0 0.41557084E+04</rscale>
<asrwt>0</asrwt>
<pdfrwt beam="1">  1        2 0.38859264E+00 0.41557084E+04</pdfrwt>
<pdfrwt beam="2">  1       -2 0.26297160E+00 0.41557084E+04</pdfrwt>
<totfact> 0.14017110E-01</totfact>
</mgrwt>
</event>
<event>
12    1  0.1755460E-007  0.1519022E+04  0.7818608E-02  0.8871901E-01
          1   -1    0    0  501    0  0.00000000000E+00  0.00000000000E+00  0.11953718677E+04  0.11953718677E+04  0.00000000000E+00 0. -1.
         -1   -1    0    0    0  501 -0.00000000000E+00 -0.00000000000E+00 -0.48257533433E+03  0.48257533433E+03  0.00000000000E+00 0.  1.
         23    2    1    2    0    0 -0.66302567501E+02  0.43158361497E+03 -0.79409143986E+02  0.45242198272E+03  0.87860065622E+02 0.  0.
        254    2    1    2    0    0  0.66302567501E+02 -0.43158361497E+03  0.79220567739E+03  0.12255252193E+04  0.82683842484E+03 0.  0.
        -24    2    4    4    0    0 -0.43033201039E+02 -0.35317668096E+03 -0.50867835911E+02  0.36805564098E+03  0.79320828023E+02 0.  0.
         24    2    4    4    0    0  0.10933576854E+03 -0.78406934009E+02  0.84307351330E+03  0.85746957837E+03  0.79869715222E+02 0.  0.
         13    1    3    3    0    0 -0.72633481547E+02  0.39613905645E+03 -0.49808968412E+02  0.40581117286E+03  0.00000000000E+00 0.  1.
        -13    1    3    3    0    0  0.63309140464E+01  0.35444558520E+02 -0.29600175574E+02  0.46610809855E+02  0.00000000000E+00 0. -1.
          4    1    6    6  502    0  0.76450183859E+01 -0.11813782005E+01  0.27968564239E+03  0.27979260269E+03  0.00000000000E+00 0. -1.
          3    1    5    5  503    0 -0.12321171851E+02 -0.83981504908E+01 -0.13117079494E+02  0.19859455730E+02  0.00000000000E+00 0. -1.
         -4    1    5    5    0  503 -0.30712029188E+02 -0.34477853047E+03 -0.37750756417E+02  0.34819618525E+03  0.00000000000E+00 0.  1.
         -3    1    6    6    0  502  0.10169075015E+03 -0.77225555809E+02  0.56338787092E+03  0.57767697568E+03  0.00000000000E+00 0.  1.
<mgrwt>
<rscale>  0 0.15190220E+04</rscale>
<asrwt>0</asrwt>
<pdfrwt beam="1">  1        1 0.18390336E+00 0.15190220E+04</pdfrwt>
<pdfrwt beam="2">  1       -1 0.74242359E-01 0.15190220E+04</pdfrwt>
<totfact> 0.18998078E+01</totfact>
</mgrwt>
</event>
<event>
12    1  0.1755460E-007  0.1451476E+04  0.7818608E-02  0.8917378E-01
         -2   -1    0    0    0  501 -0.00000000000E+00  0.00000000000E+00  0.55991748844E+03  0.55991748844E+03  0.00000000000E+00 0.  1.
          2   -1    0    0  501    0  0.00000000000E+00 -0.00000000000E+00 -0.94066598977E+03  0.94066598977E+03  0.00000000000E+00 0. -1.
         23    2    1    2    0    0  0.12808276828E+03  0.28785980030E+03  0.19645094900E+03  0.38257794921E+03  0.92219584169E+02 0.  0.
        254    2    1    2    0    0 -0.12808276828E+03 -0.28785980030E+03 -0.57719945034E+03  0.11180055290E+04  0.90416187558E+03 0.  0.
        -24    2    4    4    0    0  0.28951973871E+03 -0.35585885950E+03 -0.10167261119E+03  0.47652808639E+03  0.79274776997E+02 0.  0.
         24    2    4    4    0    0 -0.41760250699E+03  0.67999059203E+02 -0.47552683915E+03  0.64147744261E+03  0.79698235376E+02 0.  0.
         11    1    3    3    0    0  0.50835396362E+01  0.12628946863E+02  0.41392174288E+02  0.43573441067E+02  0.00000000000E+00 0.  1.
        -11    1    3    3    0    0  0.12299922864E+03  0.27523085343E+03  0.15505877471E+03  0.33900450814E+03  0.00000000000E+00 0. -1.
          4    1    6    6  502    0 -0.35695969515E+03  0.31872846920E+02 -0.41650200775E+03  0.54946339714E+03  0.00000000000E+00 0. -1.
          1    1    5    5  503    0  0.15101993988E+03 -0.18591645606E+03 -0.93552406245E+02  0.25714587998E+03  0.00000000000E+00 0. -1.
         -2    1    5    5    0  503  0.13849979884E+03 -0.16994240344E+03 -0.81202049409E+01  0.21938220642E+03  0.00000000000E+00 0.  1.
         -3    1    6    6    0  502 -0.60642811845E+02  0.36126212283E+02 -0.59024831399E+02  0.92014045471E+02  0.00000000000E+00 0.  1.
<mgrwt>
<rscale>  0 0.14514756E+04</rscale>
<asrwt>0</asrwt>
<pdfrwt beam="1">  1        2 0.14471784E+00 0.14514756E+04</pdfrwt>
<pdfrwt beam="2">  1       -2 0.86141153E-01 0.14514756E+04</pdfrwt>
<totfact> 0.31218898E+01</totfact>
</mgrwt>
</event>
<event>
12    1  0.1755460E-007  0.2118028E+04  0.7818608E-02  0.8553343E-01
         -2   -1    0    0    0  501 -0.00000000000E+00  0.00000000000E+00  0.10381941459E+04  0.10381941459E+04  0.00000000000E+00 0.  1.
          2   -1    0    0  501    0  0.00000000000E+00 -0.00000000000E+00 -0.10802511912E+04  0.10802511912E+04  0.00000000000E+00 0. -1.
         23    2    1    2    0    0  0.53095465624E+03  0.64538690447E+03 -0.21275002357E+03  0.86724505861E+03  0.91729579258E+02 0.  0.
        254    2    1    2    0    0 -0.53095465624E+03 -0.64538690447E+03  0.17069297830E+03  0.12512002785E+04  0.91538458623E+03 0.  0.
        -24    2    4    4    0    0  0.21318495911E+03  0.21667575105E+02  0.88612118734E+02  0.24511364140E+03  0.79443558665E+02 0.  0.
         24    2    4    4    0    0 -0.74413961535E+03 -0.66705447958E+03  0.82080859569E+02  0.10060866371E+04  0.82265473005E+02 0.  0.
         13    1    3    3    0    0  0.32516796122E+03  0.43754278678E+03 -0.17381816019E+03  0.57218060617E+03  0.00000000000E+00 0. -1.
        -13    1    3    3    0    0  0.20578669503E+03  0.20784411769E+03 -0.38931863374E+02  0.29506445244E+03  0.00000000000E+00 0.  1.
          2    1    6    6  502    0 -0.53379973400E+03 -0.45062480415E+03  0.88898835481E+02  0.70420726571E+03  0.00000000000E+00 0. -1.
          3    1    5    5  503    0  0.16291218392E+03  0.29692151518E+02  0.31428696021E+02  0.16855196962E+03  0.00000000000E+00 0. -1.
         -4    1    5    5    0  503  0.50272775189E+02 -0.80245764130E+01  0.57183422714E+02  0.76561671775E+02  0.00000000000E+00 0.  1.
         -1    1    6    6    0  502 -0.21033988135E+03 -0.21642967543E+03 -0.68179759115E+01  0.30187937142E+03  0.00000000000E+00 0.  1.
<mgrwt>
<rscale>  0 0.21180278E+04</rscale>
<asrwt>0</asrwt>
<pdfrwt beam="1">  1        2 0.16619249E+00 0.21180278E+04</pdfrwt>
<pdfrwt beam="2">  1       -2 0.15972218E+00 0.21180278E+04</pdfrwt>
<totfact> 0.52186286E+00</totfact>
</mgrwt>
</event>
<event>
12    1  0.1755460E-007  0.1642420E+04  0.7818608E-02  0.8794904E-01
         -1   -1    0    0    0  501 -0.00000000000E+00  0.00000000000E+00  0.16499995928E+04  0.16499995928E+04  0.00000000000E+00 0.  1.
          1   -1    0    0  501    0  0.00000000000E+00 -0.00000000000E+00 -0.40871856456E+03  0.40871856456E+03  0.00000000000E+00 0. -1.
         23    2    1    2    0    0 -0.24481721969E+03 -0.46524736874E+03  0.15481722302E+03  0.55600482109E+03  0.93714477884E+02 0.  0.
        254    2    1    2    0    0  0.24481721969E+03  0.46524736874E+03  0.10864638052E+04  0.15027133362E+04  0.89518332521E+03 0.  0.
        -24    2    4    4    0    0  0.43020863241E+03  0.47692097947E+03  0.34393745852E+03  0.73303015460E+03  0.80666871318E+02 0.  0.
         24    2    4    4    0    0 -0.18539141272E+03 -0.11673610733E+02  0.74252634667E+03  0.76968318163E+03  0.80997379512E+02 0.  0.
         13    1    3    3    0    0 -0.21793824674E+03 -0.45102760391E+03  0.15843819977E+03  0.52538142528E+03  0.00000000000E+00 0.  1.
        -13    1    3    3    0    0 -0.26878972956E+02 -0.14219764825E+02 -0.36209767512E+01  0.30623395819E+02  0.00000000000E+00 0. -1.
          4    1    6    6  502    0 -0.72294550097E+02  0.33450817073E+02  0.33590499404E+03  0.34522112357E+03  0.00000000000E+00 0. -1.
          1    1    5    5  503    0  0.15820461809E+03  0.16227902590E+03  0.79527075403E+02  0.24018272035E+03  0.00000000000E+00 0. -1.
         -2    1    5    5    0  503  0.27200401432E+03  0.31464195357E+03  0.26441038312E+03  0.49284743425E+03  0.00000000000E+00 0.  1.
         -3    1    6    6    0  502 -0.11309686262E+03 -0.45124427805E+02  0.40662135263E+03  0.42446205806E+03  0.00000000000E+00 0.  1.
<mgrwt>
<rscale>  0 0.16424195E+04</rscale>
<asrwt>0</asrwt>
<pdfrwt beam="1">  1        1 0.62879780E-01 0.16424195E+04</pdfrwt>
<pdfrwt beam="2">  1       -1 0.25384609E+00 0.16424195E+04</pdfrwt>
<totfact> 0.36691244E+00</totfact>
</mgrwt>
</event>
<event>
12    1  0.1755460E-007  0.2201698E+04  0.7818608E-02  0.8517722E-01
          1   -1    0    0  501    0  0.00000000000E+00  0.00000000000E+00  0.14942867770E+04  0.14942867770E+04  0.00000000000E+00 0. -1.
         -1   -1    0    0    0  501 -0.00000000000E+00 -0.00000000000E+00 -0.81100105291E+03  0.81100105291E+03  0.00000000000E+00 0.  1.
         23    2    1    2    0    0  0.81513782786E+03 -0.24879067241E+02  0.68833384365E+03  0.10711293470E+04  0.91901857246E+02 0.  0.
        254    2    1    2    0    0 -0.81513782786E+03  0.24879067241E+02 -0.50481195209E+01  0.12341584829E+04  0.92631151943E+03 0.  0.
        -24    2    4    4    0    0  0.17126373663E+03  0.21826201649E+02  0.13642407335E+03  0.23456743960E+03  0.81257032728E+02 0.  0.
         24    2    4    4    0    0 -0.98640156449E+03  0.30528655918E+01 -0.14147219287E+03  0.99959104331E+03  0.78552568971E+02 0.  0.
         11    1    3    3    0    0  0.19373916901E+03  0.33162732926E+02  0.16797693771E+03  0.25855537911E+03  0.00000000000E+00 0.  1.
        -11    1    3    3    0    0  0.62139865885E+03 -0.58041800167E+02  0.52035690594E+03  0.81257396793E+03  0.00000000000E+00 0. -1.
          4    1    6    6  502    0 -0.61774196884E+03 -0.33045339618E+02 -0.10355704393E+03  0.62723296779E+03  0.00000000000E+00 0. -1.
          3    1    5    5  503    0  0.31418659497E+02  0.38819771214E+02  0.35577724728E+02  0.61317870956E+02  0.00000000000E+00 0. -1.
         -4    1    5    5    0  503  0.13984507713E+03 -0.16993569565E+02  0.10084634862E+03  0.17324956864E+03  0.00000000000E+00 0.  1.
         -3    1    6    6    0  502 -0.36865959565E+03  0.36098205210E+02 -0.37915148937E+02  0.37235807552E+03  0.00000000000E+00 0.  1.
<mgrwt>
<rscale>  0 0.22016977E+04</rscale>
<asrwt>0</asrwt>
<pdfrwt beam="1">  1        1 0.22989027E+00 0.22016977E+04</pdfrwt>
<pdfrwt beam="2">  1       -1 0.12476939E+00 0.22016977E+04</pdfrwt>
<totfact> 0.33833970E+00</totfact>
</mgrwt>
</event>
<event>
12    1  0.1755460E-007  0.2127011E+04  0.7818608E-02  0.8549437E-01
         -1   -1    0    0    0  501 -0.00000000000E+00  0.00000000000E+00  0.74082086830E+03  0.74082086830E+03  0.00000000000E+00 0.  1.
          1   -1    0    0  501    0  0.00000000000E+00 -0.00000000000E+00 -0.15267441943E+04  0.15267441943E+04  0.00000000000E+00 0. -1.
         23    2    1    2    0    0  0.26074310361E+02  0.56447248301E+03  0.41698996495E+03  0.70878477536E+03  0.95844526095E+02 0.  0.
        254    2    1    2    0    0 -0.26074310361E+02 -0.56447248301E+03 -0.12029132909E+04  0.15587802872E+04  0.81454683386E+03 0.  0.
        -24    2    4    4    0    0 -0.39331165052E+03 -0.16810762367E+03 -0.65353047448E+03  0.78476747940E+03  0.76181940674E+02 0.  0.
         24    2    4    4    0    0  0.36723734016E+03 -0.39636485934E+03 -0.54938281644E+03  0.77401280780E+03  0.72842171260E+02 0.  0.
         13    1    3    3    0    0  0.16669129714E+02  0.23784464143E+02  0.40607923472E+02  0.49925585312E+02  0.00000000000E+00 0. -1.
        -13    1    3    3    0    0  0.94051806465E+01  0.54068801887E+03  0.37638204148E+03  0.65885919005E+03  0.00000000000E+00 0.  1.
          4    1    6    6  502    0  0.12255961266E+03 -0.90381027745E+02 -0.17700418940E+03  0.23349533592E+03  0.00000000000E+00 0. -1.
          3    1    5    5  503    0 -0.47259208734E+02 -0.49943172693E+02 -0.10701929244E+03  0.12720409688E+03  0.00000000000E+00 0. -1.
         -4    1    5    5    0  503 -0.34605244178E+03 -0.11816445098E+03 -0.54651118204E+03  0.65756338252E+03  0.00000000000E+00 0.  1.
         -3    1    6    6    0  502  0.24467772750E+03 -0.30598383159E+03 -0.37237862704E+03  0.54051747188E+03  0.00000000000E+00 0.  1.
<mgrwt>
<rscale>  0 0.21270110E+04</rscale>
<asrwt>0</asrwt>
<pdfrwt beam="1">  1        1 0.23488372E+00 0.21270110E+04</pdfrwt>
<pdfrwt beam="2">  1       -1 0.11397244E+00 0.21270110E+04</pdfrwt>
<totfact> 0.40336258E+00</totfact>
</mgrwt>
</event>
<event>
12    1  0.1876654E-007  0.1478348E+04  0.7818608E-02  0.8898980E-01
          1   -1    0    0  501    0  0.00000000000E+00  0.00000000000E+00  0.19731407318E+04  0.19731407318E+04  0.00000000000E+00 0. -1.
         -1   -1    0    0    0  501 -0.00000000000E+00 -0.00000000000E+00 -0.27690794109E+03  0.27690794109E+03  0.00000000000E+00 0.  1.
         23    2    1    2    0    0  0.33813652289E+03 -0.14736236134E+02  0.91031218379E+02  0.36253133385E+03  0.92675889743E+02 0.  0.
        254    2    1    2    0    0 -0.33813652289E+03  0.14736236134E+02  0.16052015723E+04  0.18875173390E+04  0.93353958277E+03 0.  0.
        -24    2    4    4    0    0 -0.69339714912E+02  0.44098162657E+03  0.98613973192E+03  0.10853041038E+04  0.78362208905E+02 0.  0.
         24    2    4    4    0    0 -0.26879680797E+03 -0.42624539043E+03  0.61906184040E+03  0.80221323525E+03  0.79822651728E+02 0.  0.
         13    1    3    3    0    0  0.34106202684E+02 -0.16155282453E+02 -0.14897229008E+02  0.40572819039E+02  0.00000000000E+00 0. -1.
        -13    1    3    3    0    0  0.30403032020E+03  0.14190463188E+01  0.10592844739E+03  0.32195851481E+03  0.00000000000E+00 0.  1.
          2    1    6    6  502    0 -0.11449400118E+02 -0.56784855156E+02  0.49647270483E+02  0.76291939316E+02  0.00000000000E+00 0. -1.
          3    1    5    5  503    0 -0.20008507423E+02  0.49679455200E+02  0.18095318100E+03  0.18871259192E+03  0.00000000000E+00 0. -1.
         -4    1    5    5    0  503 -0.49331207489E+02  0.39130217137E+03  0.80518655092E+03  0.89659151186E+03  0.00000000000E+00 0.  1.
         -1    1    6    6    0  502 -0.25734740786E+03 -0.36946053528E+03  0.56941456992E+03  0.72592129594E+03  0.00000000000E+00 0.  1.
<mgrwt>
<rscale>  0 0.14783482E+04</rscale>
<asrwt>0</asrwt>
<pdfrwt beam="1">  1        1 0.30356010E+00 0.14783482E+04</pdfrwt>
<pdfrwt beam="2">  1       -1 0.42601223E-01 0.14783482E+04</pdfrwt>
<totfact> 0.16342120E+01</totfact>
</mgrwt>
</event>
<event>
12    1  0.1755460E-007  0.2189027E+04  0.7818608E-02  0.8523009E-01
         -1   -1    0    0    0  501 -0.00000000000E+00  0.00000000000E+00  0.77815013154E+03  0.77815013154E+03  0.00000000000E+00 0. -1.
          1   -1    0    0  501    0  0.00000000000E+00 -0.00000000000E+00 -0.15394968188E+04  0.15394968188E+04  0.00000000000E+00 0.  1.
         23    2    1    2    0    0 -0.39073529099E+03  0.83426127881E+03 -0.27723331688E+03  0.96640928797E+03  0.91775001754E+02 0.  0.
        254    2    1    2    0    0  0.39073529099E+03 -0.83426127881E+03 -0.48411337037E+03  0.13512376624E+04  0.86186513786E+03 0.  0.
        -24    2    4    4    0    0  0.56474613933E+03 -0.88859279540E+03 -0.36699062273E+03  0.11175595012E+04  0.75642340145E+02 0.  0.
         24    2    4    4    0    0 -0.17401084834E+03  0.54331516588E+02 -0.11712274764E+03  0.23367816116E+03  0.87498891153E+02 0.  0.
         13    1    3    3    0    0 -0.65944432800E+02  0.15375542094E+03 -0.87789936781E+02  0.18893509649E+03  0.00000000000E+00 0.  1.
        -13    1    3    3    0    0 -0.32479085819E+03  0.68050585787E+03 -0.18944338010E+03  0.77747419149E+03  0.00000000000E+00 0. -1.
          2    1    6    6  502    0 -0.36173644378E+02 -0.49328527538E+01 -0.65537227278E+02  0.75019955633E+02  0.00000000000E+00 0. -1.
          3    1    5    5  503    0  0.87327567457E+01 -0.19356224079E+01 -0.19714404279E+01  0.91593805383E+01  0.00000000000E+00 0. -1.
         -4    1    5    5    0  503  0.55601338259E+03 -0.88665717299E+03 -0.36501918231E+03  0.11084001207E+04  0.00000000000E+00 0.  1.
         -1    1    6    6    0  502 -0.13783720396E+03  0.59264369342E+02 -0.51585520360E+02  0.15865820553E+03  0.00000000000E+00 0.  1.
<mgrwt>
<rscale>  0 0.21890269E+04</rscale>
<asrwt>0</asrwt>
<pdfrwt beam="1">  1        1 0.23684566E+00 0.21890269E+04</pdfrwt>
<pdfrwt beam="2">  1       -1 0.11971541E+00 0.21890269E+04</pdfrwt>
<totfact> 0.34904889E+00</totfact>
</mgrwt>
</event>
<event>
12    1  0.1755460E-007  0.1187206E+04  0.7818608E-02  0.9124130E-01
         -2   -1    0    0    0  501 -0.00000000000E+00  0.00000000000E+00  0.15904521174E+03  0.15904521174E+03  0.00000000000E+00 0.  1.
          2   -1    0    0  501    0  0.00000000000E+00 -0.00000000000E+00 -0.22154983054E+04  0.22154983054E+04  0.00000000000E+00 0. -1.
         23    2    1    2    0    0  0.10346431855E+03  0.57189754638E+02 -0.61593404515E+02  0.15832045295E+03  0.85417124130E+02 0.  0.
        254    2    1    2    0    0 -0.10346431855E+03 -0.57189754638E+02 -0.19948596892E+04  0.22162230642E+04  0.95822959547E+03 0.  0.
        -24    2    4    4    0    0  0.41948838334E+03  0.62236312521E+00 -0.76353950129E+03  0.87477086043E+03  0.79123935374E+02 0.  0.
         24    2    4    4    0    0 -0.52295270188E+03 -0.57812117763E+02 -0.12313201879E+04  0.13414522038E+04  0.80764104468E+02 0.  0.
         11    1    3    3    0    0 -0.73356475606E+01  0.29020319941E+02 -0.36636609901E+01  0.30156477023E+02  0.00000000000E+00 0. -1.
        -11    1    3    3    0    0  0.11079996611E+03  0.28169434697E+02 -0.57929743525E+02  0.12816397593E+03  0.00000000000E+00 0.  1.
          2    1    6    6  502    0 -0.24599938487E+03 -0.31278231117E+02 -0.68216978141E+03  0.72584408503E+03  0.00000000000E+00 0. -1.
          3    1    5    5  503    0  0.13305316852E+03 -0.36498432068E+02 -0.23862617222E+03  0.27564058349E+03  0.00000000000E+00 0. -1.
         -4    1    5    5    0  503  0.28643521482E+03  0.37120795193E+02 -0.52491332907E+03  0.59913027695E+03  0.00000000000E+00 0.  1.
         -1    1    6    6    0  502 -0.27695331702E+03 -0.26533886645E+02 -0.54915040645E+03  0.61560811874E+03  0.00000000000E+00 0.  1.
<mgrwt>
<rscale>  0 0.11872058E+04</rscale>
<asrwt>0</asrwt>
<pdfrwt beam="1">  1        2 0.34084589E+00 0.11872058E+04</pdfrwt>
<pdfrwt beam="2">  1       -2 0.24468494E-01 0.11872058E+04</pdfrwt>
<totfact> 0.74797141E+01</totfact>
</mgrwt>
</event>
<event>
12    1  0.1755460E-007  0.1868069E+04  0.7818608E-02  0.8670916E-01
          2   -1    0    0  501    0  0.00000000000E+00  0.00000000000E+00  0.35616790031E+04  0.35616790031E+04  0.00000000000E+00 0. -1.
         -2   -1    0    0    0  501 -0.00000000000E+00 -0.00000000000E+00 -0.24494629937E+03  0.24494629937E+03  0.00000000000E+00 0.  1.
         23    2    1    2    0    0  0.62070049665E+03 -0.36065280912E+03  0.13122905269E+04  0.14985889413E+04  0.91229559967E+02 0.  0.
        254    2    1    2    0    0 -0.62070049665E+03  0.36065280912E+03  0.20044421768E+04  0.23080363612E+04  0.89101282211E+03 0.  0.
        -24    2    4    4    0    0 -0.39571499045E+03  0.11429960001E+03  0.18878318208E+03  0.46028680559E+03  0.81056161582E+02 0.  0.
         24    2    4    4    0    0 -0.22498550620E+03  0.24635320910E+03  0.18156589947E+04  0.18477495556E+04  0.79072457151E+02 0.  0.
         11    1    3    3    0    0  0.10194623149E+03 -0.26323614258E+02  0.22326938502E+03  0.24685053184E+03  0.00000000000E+00 0. -1.
        -11    1    3    3    0    0  0.51875426516E+03 -0.33432919486E+03  0.10890211419E+04  0.12517384094E+04  0.00000000000E+00 0.  1.
          2    1    6    6  502    0 -0.41332209853E+02  0.22332914752E+02  0.40054689595E+03  0.40329260656E+03  0.00000000000E+00 0. -1.
          3    1    5    5  503    0 -0.15909279508E+03  0.78058660086E+01  0.56307454126E+02  0.16894371365E+03  0.00000000000E+00 0. -1.
         -4    1    5    5    0  503 -0.23662219537E+03  0.10649373400E+03  0.13247572796E+03  0.29134309194E+03  0.00000000000E+00 0.  1.
         -1    1    6    6    0  502 -0.18365329634E+03  0.22402029435E+03  0.14151120988E+04  0.14444569490E+04  0.00000000000E+00 0.  1.
<mgrwt>
<rscale>  0 0.18680686E+04</rscale>
<asrwt>0</asrwt>
<pdfrwt beam="1">  1        2 0.54795058E+00 0.18680686E+04</pdfrwt>
<pdfrwt beam="2">  1       -2 0.37684049E-01 0.18680686E+04</pdfrwt>
<totfact> 0.46237340E+00</totfact>
</mgrwt>
</event>
<event>
12    1  0.1755460E-007  0.2055873E+04  0.7818608E-02  0.8580935E-01
          2   -1    0    0  501    0  0.00000000000E+00  0.00000000000E+00  0.16619794080E+04  0.16619794080E+04  0.00000000000E+00 0. -1.
         -2   -1    0    0    0  501 -0.00000000000E+00 -0.00000000000E+00 -0.63578009054E+03  0.63578009054E+03  0.00000000000E+00 0.  1.
         23    2    1    2    0    0 -0.51115081337E+03 -0.44528057118E+03 -0.12420697324E+03  0.69565274649E+03  0.94633135941E+02 0.  0.
        254    2    1    2    0    0  0.51115081337E+03  0.44528057118E+03  0.11504062907E+04  0.16021067521E+04  0.88530303864E+03 0.  0.
        -24    2    4    4    0    0  0.51313929174E+03  0.12717693110E+03  0.15923944617E+03  0.55809495321E+03  0.81405595900E+02 0.  0.
         24    2    4    4    0    0 -0.19884783729E+01  0.31810364008E+03  0.99116684453E+03  0.10440117989E+04  0.79718520818E+02 0.  0.
         13    1    3    3    0    0 -0.70089682618E+02 -0.10781927036E+03 -0.34060281777E+02  0.13303255791E+03  0.00000000000E+00 0. -1.
        -13    1    3    3    0    0 -0.44106113075E+03 -0.33746130082E+03 -0.90146691458E+02  0.56262018858E+03  0.00000000000E+00 0.  1.
          2    1    6    6  502    0 -0.20705786747E+02  0.78678320003E+02  0.35034152946E+03  0.35966400280E+03  0.00000000000E+00 0. -1.
          3    1    5    5  503    0  0.23209897212E+03  0.54057696108E+02  0.11407678225E+03  0.26420764488E+03  0.00000000000E+00 0. -1.
         -4    1    5    5    0  503  0.28104031963E+03  0.73119234992E+02  0.45162663921E+02  0.29388730833E+03  0.00000000000E+00 0.  1.
         -1    1    6    6    0  502  0.18717308374E+02  0.23942532008E+03  0.64082531507E+03  0.68434779605E+03  0.00000000000E+00 0.  1.
<mgrwt>
<rscale>  0 0.20558730E+04</rscale>
<asrwt>0</asrwt>
<pdfrwt beam="1">  1        2 0.25568914E+00 0.20558730E+04</pdfrwt>
<pdfrwt beam="2">  1       -2 0.97812322E-01 0.20558730E+04</pdfrwt>
<totfact> 0.82888452E+00</totfact>
</mgrwt>
</event>
<event>
12    1  0.1755460E-007  0.1829682E+04  0.7818608E-02  0.8690672E-01
          1   -1    0    0  501    0  0.00000000000E+00  0.00000000000E+00  0.73062294120E+03  0.73062294120E+03  0.00000000000E+00 0. -1.
         -1   -1    0    0    0  501 -0.00000000000E+00 -0.00000000000E+00 -0.11455074323E+04  0.11455074323E+04  0.00000000000E+00 0.  1.
         23    2    1    2    0    0 -0.33611544110E+03  0.24023003715E+03  0.40872558252E+03  0.58833392878E+03  0.91630505043E+02 0.  0.
        254    2    1    2    0    0  0.33611544110E+03 -0.24023003715E+03 -0.82361007366E+03  0.12877964448E+04  0.89966775490E+03 0.  0.
        -24    2    4    4    0    0  0.62649021998E+03 -0.21884925098E+03 -0.68084589780E+03  0.95417806918E+03  0.80744416272E+02 0.  0.
         24    2    4    4    0    0 -0.29037477888E+03 -0.21380786172E+02 -0.14276417585E+03  0.33361837558E+03  0.78389797714E+02 0.  0.
         11    1    3    3    0    0 -0.18682929903E+03  0.13231889890E+03  0.28877837760E+03  0.36851923879E+03  0.00000000000E+00 0. -1.
        -11    1    3    3    0    0 -0.14928614207E+03  0.10791113824E+03  0.11994720492E+03  0.21981469000E+03  0.00000000000E+00 0.  1.
          2    1    6    6  502    0 -0.21018028901E+03 -0.33957132759E+02 -0.68652096684E+02  0.22370058367E+03  0.00000000000E+00 0. -1.
          3    1    5    5  503    0  0.52566560545E+03 -0.15346201678E+03 -0.54071195079E+03  0.76957412449E+03  0.00000000000E+00 0. -1.
         -4    1    5    5    0  503  0.10082461453E+03 -0.65387234197E+02 -0.14013394701E+03  0.18460394469E+03  0.00000000000E+00 0.  1.
         -1    1    6    6    0  502 -0.80194489874E+02  0.12576346587E+02 -0.74112079167E+02  0.10991779191E+03  0.00000000000E+00 0.  1.
<mgrwt>
<rscale>  0 0.18296819E+04</rscale>
<asrwt>0</asrwt>
<pdfrwt beam="1">  1        1 0.11240353E+00 0.18296819E+04</pdfrwt>
<pdfrwt beam="2">  1       -1 0.17623191E+00 0.18296819E+04</pdfrwt>
<totfact> 0.53198035E+00</totfact>
</mgrwt>
</event>
<event>
12    1  0.1755460E-007  0.2175613E+04  0.7818608E-02  0.8528648E-01
          1   -1    0    0  501    0  0.00000000000E+00  0.00000000000E+00  0.29790627448E+04  0.29790627448E+04  0.00000000000E+00 0. -1.
         -1   -1    0    0    0  501 -0.00000000000E+00 -0.00000000000E+00 -0.39721300372E+03  0.39721300372E+03  0.00000000000E+00 0.  1.
         23    2    1    2    0    0  0.29652467996E+03  0.59346761002E+03  0.13433235050E+03  0.68305281451E+03  0.91571158372E+02 0.  0.
        254    2    1    2    0    0 -0.29652467996E+03 -0.59346761002E+03  0.24475173906E+04  0.26932229340E+04  0.90718118650E+03 0.  0.
        -24    2    4    4    0    0 -0.23647767163E+03 -0.82840456249E+03  0.17961799534E+04  0.19936171120E+04  0.77916339820E+02 0.  0.
         24    2    4    4    0    0 -0.60047008327E+02  0.23493695247E+03  0.65133743719E+03  0.69960582200E+03  0.80042702675E+02 0.  0.
         11    1    3    3    0    0  0.28848048542E+03  0.57940739338E+03  0.11425910645E+03  0.65725874766E+03  0.00000000000E+00 0.  1.
        -11    1    3    3    0    0  0.80441945405E+01  0.14060216640E+02  0.20073244047E+02  0.25794066844E+02  0.00000000000E+00 0. -1.
          2    1    6    6  502    0 -0.41490071541E+01  0.15449148121E+03  0.34619690586E+03  0.37912679891E+03  0.00000000000E+00 0. -1.
          1    1    5    5  503    0 -0.21999381624E+03 -0.67262900779E+03  0.15001307552E+04  0.16586800005E+04  0.00000000000E+00 0. -1.
         -2    1    5    5    0  503 -0.16483855395E+02 -0.15577555470E+03  0.29604919820E+03  0.33493711153E+03  0.00000000000E+00 0.  1.
         -1    1    6    6    0  502 -0.55898001173E+02  0.80445471263E+02  0.30514053133E+03  0.32047902309E+03  0.00000000000E+00 0.  1.
<mgrwt>
<rscale>  0 0.21756125E+04</rscale>
<asrwt>0</asrwt>
<pdfrwt beam="1">  1        1 0.45831733E+00 0.21756125E+04</pdfrwt>
<pdfrwt beam="2">  1       -1 0.61109695E-01 0.21756125E+04</pdfrwt>
<totfact> 0.15377783E+00</totfact>
</mgrwt>
</event>
<event>
12    1  0.1755460E-007  0.3646107E+04  0.7818608E-02  0.8080011E-01
          1   -1    0    0  501    0  0.00000000000E+00  0.00000000000E+00  0.34852792612E+04  0.34852792612E+04  0.00000000000E+00 0. -1.
         -1   -1    0    0    0  501 -0.00000000000E+00 -0.00000000000E+00 -0.95358906099E+03  0.95358906099E+03  0.00000000000E+00 0.  1.
         23    2    1    2    0    0  0.25587207971E+03  0.16754459071E+04  0.94193442204E+03  0.19412237131E+04  0.92301356306E+02 0.  0.
        254    2    1    2    0    0 -0.25587207971E+03 -0.16754459071E+04  0.15897557782E+04  0.24976446090E+04  0.91559578972E+03 0.  0.
        -24    2    4    4    0    0 -0.26898531176E+02 -0.12134321172E+04  0.15560991806E+04  0.19751774321E+04  0.82098687923E+02 0.  0.
         24    2    4    4    0    0 -0.22897354854E+03 -0.46201378991E+03  0.33656597597E+02  0.52246717694E+03  0.77159292543E+02 0.  0.
         13    1    3    3    0    0 -0.49737591790E+01  0.66294085985E+02  0.48484410571E+02  0.82282332158E+02  0.00000000000E+00 0. -1.
        -13    1    3    3    0    0  0.26084583889E+03  0.16091518211E+04  0.89345001147E+03  0.18589413810E+04  0.00000000000E+00 0.  1.
          2    1    6    6  502    0 -0.17286444550E+03 -0.28910506132E+03  0.47405208764E+02  0.34016335314E+03  0.00000000000E+00 0. -1.
          1    1    5    5  503    0  0.20061479013E+02 -0.67792408355E+03  0.90169698263E+03  0.11282911745E+04  0.00000000000E+00 0. -1.
         -2    1    5    5    0  503 -0.46960010188E+02 -0.53550803361E+03  0.65440219794E+03  0.84688625759E+03  0.00000000000E+00 0.  1.
         -1    1    6    6    0  502 -0.56109103037E+02 -0.17290872859E+03 -0.13748611167E+02  0.18230382381E+03  0.00000000000E+00 0.  1.
<mgrwt>
<rscale>  0 0.36461071E+04</rscale>
<asrwt>0</asrwt>
<pdfrwt beam="1">  1        1 0.53619680E+00 0.36461071E+04</pdfrwt>
<pdfrwt beam="2">  1       -1 0.14670601E+00 0.36461071E+04</pdfrwt>
<totfact> 0.76488546E-02</totfact>
</mgrwt>
</event>
<event>
12    1  0.1755460E-007  0.1641006E+04  0.7818608E-02  0.8795745E-01
          1   -1    0    0  501    0  0.00000000000E+00  0.00000000000E+00  0.75990102284E+03  0.75990102284E+03  0.00000000000E+00 0. -1.
         -1   -1    0    0    0  501 -0.00000000000E+00 -0.00000000000E+00 -0.88593850709E+03  0.88593850709E+03  0.00000000000E+00 0.  1.
         23    2    1    2    0    0 -0.14734450562E+03  0.54536377402E+03 -0.53519660570E+02  0.57508321580E+03  0.93403970361E+02 0.  0.
        254    2    1    2    0    0  0.14734450562E+03 -0.54536377402E+03 -0.72517823675E+02  0.10707563141E+04  0.90671285431E+03 0.  0.
        -24    2    4    4    0    0  0.49140910970E+03 -0.42274805953E+03 -0.18621351767E+03  0.67901342862E+03  0.78644307747E+02 0.  0.
         24    2    4    4    0    0 -0.34406460409E+03 -0.12261571448E+03  0.11369569399E+03  0.39174288552E+03  0.84384313123E+02 0.  0.
         13    1    3    3    0    0 -0.84841542860E+02  0.39499839827E+03 -0.10778566173E+01  0.40400864323E+03  0.00000000000E+00 0. -1.
        -13    1    3    3    0    0 -0.62502962756E+02  0.15036537574E+03 -0.52441803952E+02  0.17107457256E+03  0.00000000000E+00 0.  1.
          2    1    6    6  502    0 -0.25820803766E+03 -0.11655744285E+03  0.57850697294E+02  0.28914309844E+03  0.00000000000E+00 0. -1.
          3    1    5    5  503    0  0.16254874745E+03 -0.10713343921E+03 -0.28847140014E+02  0.19680403091E+03  0.00000000000E+00 0. -1.
         -4    1    5    5    0  503  0.32886036225E+03 -0.31561462032E+03 -0.15736637765E+03  0.48220939770E+03  0.00000000000E+00 0.  1.
         -1    1    6    6    0  502 -0.85856566428E+02 -0.60582716317E+01  0.55844996698E+02  0.10259978709E+03  0.00000000000E+00 0.  1.
<mgrwt>
<rscale>  0 0.16410065E+04</rscale>
<asrwt>0</asrwt>
<pdfrwt beam="1">  1        1 0.11690785E+00 0.16410065E+04</pdfrwt>
<pdfrwt beam="2">  1       -1 0.13629823E+00 0.16410065E+04</pdfrwt>
<totfact> 0.10314300E+01</totfact>
</mgrwt>
</event>
<event>
12    1  0.1755460E-007  0.2084088E+04  0.7818608E-02  0.8568285E-01
         -1   -1    0    0    0  501 -0.00000000000E+00  0.00000000000E+00  0.82475337664E+03  0.82475337664E+03  0.00000000000E+00 0.  1.
          1   -1    0    0  501    0  0.00000000000E+00 -0.00000000000E+00 -0.13165820698E+04  0.13165820698E+04  0.00000000000E+00 0. -1.
         23    2    1    2    0    0  0.97652397737E+02 -0.66691217797E+03  0.34161957185E+03  0.76114864289E+03  0.91298854237E+02 0.  0.
        254    2    1    2    0    0 -0.97652397737E+02  0.66691217797E+03 -0.83344826501E+03  0.13801868035E+04  0.86946636412E+03 0.  0.
        -24    2    4    4    0    0  0.33259636728E+03  0.46084811539E+03 -0.64025513824E+03  0.85937064861E+03  0.74765905791E+02 0.  0.
         24    2    4    4    0    0 -0.43024876501E+03  0.20606406258E+03 -0.19319312677E+03  0.52081615494E+03  0.79683657847E+02 0.  0.
         13    1    3    3    0    0  0.13839411546E+02 -0.13823980555E+02  0.21314783543E+02  0.28930118351E+02  0.00000000000E+00 0. -1.
        -13    1    3    3    0    0  0.83812986191E+02 -0.65308819742E+03  0.32030478830E+03  0.73221852453E+03  0.00000000000E+00 0.  1.
          2    1    6    6  502    0 -0.13793240361E+03  0.62317963658E+02 -0.22388452328E+02  0.15300365799E+03  0.00000000000E+00 0. -1.
          3    1    5    5  503    0  0.50880356518E+02  0.37534493458E+02 -0.52458467213E+02  0.82155582043E+02  0.00000000000E+00 0. -1.
         -4    1    5    5    0  503  0.28171601076E+03  0.42331362193E+03 -0.58779667102E+03  0.77721506657E+03  0.00000000000E+00 0.  1.
         -1    1    6    6    0  502 -0.29231636141E+03  0.14374609892E+03 -0.17080467444E+03  0.36781249695E+03  0.00000000000E+00 0.  1.
<mgrwt>
<rscale>  0 0.20840878E+04</rscale>
<asrwt>0</asrwt>
<pdfrwt beam="1">  1        1 0.20255109E+00 0.20840878E+04</pdfrwt>
<pdfrwt beam="2">  1       -1 0.12688514E+00 0.20840878E+04</pdfrwt>
<totfact> 0.43702192E+00</totfact>
</mgrwt>
</event>
<event>
12    1  0.1755460E-007  0.2276664E+04  0.7818608E-02  0.8487179E-01
         -1   -1    0    0    0  501 -0.00000000000E+00  0.00000000000E+00  0.79459505448E+03  0.79459505448E+03  0.00000000000E+00 0.  1.
          1   -1    0    0  501    0  0.00000000000E+00 -0.00000000000E+00 -0.16307675573E+04  0.16307675573E+04  0.00000000000E+00 0. -1.
         23    2    1    2    0    0  0.88034211818E+03 -0.36933433285E+03 -0.26404043637E+03  0.99448541463E+03  0.88734398091E+02 0.  0.
        254    2    1    2    0    0 -0.88034211818E+03  0.36933433285E+03 -0.57213206646E+03  0.14308771972E+04  0.89925767022E+03 0.  0.
        -24    2    4    4    0    0  0.85294191649E+02 -0.26375111593E+01 -0.35068955947E+03  0.36985190341E+03  0.80778757965E+02 0.  0.
         24    2    4    4    0    0 -0.96563630983E+03  0.37197184401E+03 -0.22144250699E+03  0.10610252938E+04  0.76950337939E+02 0.  0.
         13    1    3    3    0    0  0.54181517667E+03 -0.20091228888E+03 -0.19670140960E+03  0.61042679990E+03  0.00000000000E+00 0.  1.
        -13    1    3    3    0    0  0.33852694151E+03 -0.16842204397E+03 -0.67339026776E+02  0.38405861473E+03  0.00000000000E+00 0. -1.
          2    1    6    6  502    0 -0.70970476342E+02  0.19240225055E+02 -0.34969604353E+02  0.81424001381E+02  0.00000000000E+00 0. -1.
          1    1    5    5  503    0  0.62908486394E+02  0.49650777652E+01 -0.10132180031E+03  0.11936597872E+03  0.00000000000E+00 0. -1.
         -2    1    5    5    0  503  0.22385705255E+02 -0.76025889245E+01 -0.24936775916E+03  0.25048592469E+03  0.00000000000E+00 0.  1.
         -1    1    6    6    0  502 -0.89466583349E+03  0.35273161896E+03 -0.18647290264E+03  0.97960129238E+03  0.00000000000E+00 0.  1.
<mgrwt>
<rscale>  0 0.22766641E+04</rscale>
<asrwt>0</asrwt>
<pdfrwt beam="1">  1        1 0.25088731E+00 0.22766641E+04</pdfrwt>
<pdfrwt beam="2">  1       -1 0.12224539E+00 0.22766641E+04</pdfrwt>
<totfact> 0.28471397E+00</totfact>
</mgrwt>
</event>
<event>
12    1  0.1755460E-007  0.1471790E+04  0.7818608E-02  0.8903432E-01
         -2   -1    0    0    0  501 -0.00000000000E+00  0.00000000000E+00  0.62591735318E+03  0.62591735318E+03  0.00000000000E+00 0.  1.
          2   -1    0    0  501    0  0.00000000000E+00 -0.00000000000E+00 -0.86519606092E+03  0.86519606092E+03  0.00000000000E+00 0. -1.
         23    2    1    2    0    0  0.25461999448E+03  0.23946623289E+03 -0.37974944880E+03  0.52384948102E+03  0.89628213252E+02 0.  0.
        254    2    1    2    0    0 -0.25461999448E+03 -0.23946623289E+03  0.14047074107E+03  0.96726393308E+03  0.89089397173E+03 0.  0.
        -24    2    4    4    0    0  0.11473450747E+03  0.27913712877E+03  0.91574856893E+01  0.31227674464E+03  0.79695431711E+02 0.  0.
         24    2    4    4    0    0 -0.36935450195E+03 -0.51860336166E+03  0.13131325538E+03  0.65498718844E+03  0.79955307233E+02 0.  0.
         11    1    3    3    0    0  0.12925458832E+03  0.65094485386E+02 -0.13084401526E+03  0.19510047914E+03  0.00000000000E+00 0.  1.
        -11    1    3    3    0    0  0.12536540616E+03  0.17437174750E+03 -0.24890543355E+03  0.32874900188E+03  0.00000000000E+00 0. -1.
          4    1    6    6  502    0 -0.36968617611E+02 -0.45208130396E+02  0.36415469497E+02  0.68822526550E+02  0.00000000000E+00 0. -1.
          3    1    5    5  503    0  0.27890617701E+02  0.40118889726E+02 -0.26334329954E+02  0.55505934842E+02  0.00000000000E+00 0. -1.
         -4    1    5    5    0  503  0.86843889771E+02  0.23901823904E+03  0.35491815643E+02  0.25677080980E+03  0.00000000000E+00 0.  1.
         -3    1    6    6    0  502 -0.33238588434E+03 -0.47339523126E+03  0.94897785883E+02  0.58616466189E+03  0.00000000000E+00 0.  1.
<mgrwt>
<rscale>  0 0.14717897E+04</rscale>
<asrwt>0</asrwt>
<pdfrwt beam="1">  1        2 0.13310709E+00 0.14717897E+04</pdfrwt>
<pdfrwt beam="2">  1       -2 0.96294978E-01 0.14717897E+04</pdfrwt>
<totfact> 0.27086082E+01</totfact>
</mgrwt>
</event>
<event>
12    1  0.2156678E-007  0.3151123E+04  0.7818608E-02  0.8201846E-01
          2   -1    0    0  501    0  0.00000000000E+00  0.00000000000E+00  0.18622341315E+04  0.18622341315E+04  0.00000000000E+00 0. -1.
         -2   -1    0    0    0  501 -0.00000000000E+00 -0.00000000000E+00 -0.13330194747E+04  0.13330194747E+04  0.00000000000E+00 0.  1.
         23    2    1    2    0    0  0.26935252400E+03 -0.13549566936E+04 -0.19394415589E+03  0.13979711542E+04  0.90832750227E+02 0.  0.
        254    2    1    2    0    0 -0.26935252400E+03  0.13549566936E+04  0.72315881275E+03  0.17972824520E+04  0.89376010212E+03 0.  0.
        -24    2    4    4    0    0 -0.42172049090E+03  0.77289466589E+03  0.42179680666E+02  0.88514676826E+03  0.80568845697E+02 0.  0.
         24    2    4    4    0    0  0.15236796690E+03  0.58206202772E+03  0.68097913208E+03  0.91213568376E+03  0.79036230988E+02 0.  0.
         11    1    3    3    0    0  0.89262468617E+02 -0.57420598434E+03 -0.11955572284E+03  0.59327385887E+03  0.00000000000E+00 0.  1.
        -11    1    3    3    0    0  0.18009005538E+03 -0.78075070927E+03 -0.74388433049E+02  0.80469729529E+03  0.00000000000E+00 0. -1.
          2    1    6    6  502    0  0.96130760181E+01  0.27799026372E+02  0.12107446329E+02  0.31808605037E+02  0.00000000000E+00 0. -1.
          3    1    5    5  503    0 -0.91703352481E+02  0.11849549054E+03  0.25923896902E+02  0.15206161437E+03  0.00000000000E+00 0. -1.
         -4    1    5    5    0  503 -0.33001713841E+03  0.65439917535E+03  0.16255783763E+02  0.73308515389E+03  0.00000000000E+00 0.  1.
         -1    1    6    6    0  502  0.14275489088E+03  0.55426300134E+03  0.66887168575E+03  0.88032707872E+03  0.00000000000E+00 0.  1.
<mgrwt>
<rscale>  0 0.31511232E+04</rscale>
<asrwt>0</asrwt>
<pdfrwt beam="1">  1        2 0.28649756E+00 0.31511232E+04</pdfrwt>
<pdfrwt beam="2">  1       -2 0.20507992E+00 0.31511232E+04</pdfrwt>
<totfact> 0.83021649E-01</totfact>
</mgrwt>
</event>
<event>
12    1  0.1755460E-007  0.2561635E+04  0.7818608E-02  0.8381351E-01
         -2   -1    0    0    0  501 -0.00000000000E+00  0.00000000000E+00  0.24620227195E+04  0.24620227195E+04  0.00000000000E+00 0.  1.
          2   -1    0    0  501    0  0.00000000000E+00 -0.00000000000E+00 -0.66631949853E+03  0.66631949853E+03  0.00000000000E+00 0. -1.
         23    2    1    2    0    0 -0.93154504731E+02 -0.10194654175E+04  0.12761858435E+04  0.16387453123E+04  0.94065892370E+02 0.  0.
        254    2    1    2    0    0  0.93154504731E+02  0.10194654175E+04  0.51951737751E+03  0.14895969058E+04  0.94921711793E+03 0.  0.
        -24    2    4    4    0    0  0.51596038267E+03  0.59591427249E+03  0.27479923815E+03  0.83836005284E+03  0.77485613346E+02 0.  0.
         24    2    4    4    0    0 -0.42280587794E+03  0.42355114502E+03  0.24471813937E+03  0.65123685296E+03  0.77859412069E+02 0.  0.
         11    1    3    3    0    0 -0.90167076965E+02 -0.60937346777E+03  0.71669403047E+03  0.94504838940E+03  0.00000000000E+00 0. -1.
        -11    1    3    3    0    0 -0.29874277662E+01 -0.41009194975E+03  0.55949181301E+03  0.69369692287E+03  0.00000000000E+00 0.  1.
          2    1    6    6  502    0 -0.10589126702E+03  0.14584184533E+03  0.49935592131E+02  0.18701969854E+03  0.00000000000E+00 0. -1.
          1    1    5    5  503    0  0.28897119849E+03  0.37428583483E+03  0.19309858146E+03  0.51076540787E+03  0.00000000000E+00 0. -1.
         -2    1    5    5    0  503  0.22698918418E+03  0.22162843766E+03  0.81700656683E+02  0.32759464497E+03  0.00000000000E+00 0.  1.
         -1    1    6    6    0  502 -0.31691461092E+03  0.27770929969E+03  0.19478254724E+03  0.46421715442E+03  0.00000000000E+00 0.  1.
<mgrwt>
<rscale>  0 0.25616352E+04</rscale>
<asrwt>0</asrwt>
<pdfrwt beam="1">  1        2 0.10251069E+00 0.25616352E+04</pdfrwt>
<pdfrwt beam="2">  1       -2 0.37877272E+00 0.25616352E+04</pdfrwt>
<totfact> 0.39458164E-01</totfact>
</mgrwt>
</event>
<event>
12    1  0.1755460E-007  0.2188838E+04  0.7818608E-02  0.8523088E-01
         -2   -1    0    0    0  501 -0.00000000000E+00  0.00000000000E+00  0.25808665407E+03  0.25808665407E+03  0.00000000000E+00 0.  1.
          2   -1    0    0  501    0  0.00000000000E+00 -0.00000000000E+00 -0.46408953072E+04  0.46408953072E+04  0.00000000000E+00 0. -1.
         23    2    1    2    0    0  0.51869460749E+03  0.43862623223E+03 -0.48341991976E+03  0.83901248453E+03  0.93861935548E+02 0.  0.
        254    2    1    2    0    0 -0.51869460749E+03 -0.43862623223E+03 -0.38993887334E+04  0.40599694768E+04  0.90370492461E+03 0.  0.
        -24    2    4    4    0    0 -0.55491145658E+03 -0.40921849580E+02 -0.32138030369E+04  0.32625638730E+04  0.78687628797E+02 0.  0.
         24    2    4    4    0    0  0.36216849090E+02 -0.39770438265E+03 -0.68558569652E+03  0.79740560381E+03  0.79671284530E+02 0.  0.
         11    1    3    3    0    0  0.21857153123E+03  0.17134882062E+03 -0.14329200140E+03  0.31251644798E+03  0.00000000000E+00 0. -1.
        -11    1    3    3    0    0  0.30012307625E+03  0.26727741161E+03 -0.34012791836E+03  0.52649603655E+03  0.00000000000E+00 0.  1.
          2    1    6    6  502    0  0.15960493344E+02 -0.11584749283E+03 -0.13552352028E+03  0.17900280303E+03  0.00000000000E+00 0. -1.
          1    1    5    5  503    0 -0.48198169041E+03 -0.19503134530E+02 -0.28883004656E+04  0.29283043390E+04  0.00000000000E+00 0. -1.
         -2    1    5    5    0  503 -0.72929766162E+02 -0.21418715051E+02 -0.32550257129E+03  0.33425953399E+03  0.00000000000E+00 0.  1.
         -1    1    6    6    0  502  0.20256355746E+02 -0.28185688982E+03 -0.55006217624E+03  0.61840280078E+03  0.00000000000E+00 0.  1.
<mgrwt>
<rscale>  0 0.21888382E+04</rscale>
<asrwt>0</asrwt>
<pdfrwt beam="1">  1        2 0.71398387E+00 0.21888382E+04</pdfrwt>
<pdfrwt beam="2">  1       -2 0.39705640E-01 0.21888382E+04</pdfrwt>
<totfact> 0.49326498E-01</totfact>
</mgrwt>
</event>
<event>
12    1  0.2539070E-007  0.1611663E+04  0.7818608E-02  0.8813415E-01
         -1   -1    0    0    0  501 -0.00000000000E+00  0.00000000000E+00  0.70626029818E+03  0.70626029818E+03  0.00000000000E+00 0.  1.
          1   -1    0    0  501    0  0.00000000000E+00 -0.00000000000E+00 -0.91944045966E+03  0.91944045966E+03  0.00000000000E+00 0. -1.
         23    2    1    2    0    0 -0.14178861924E+03 -0.27078010576E+03  0.36719561484E+03  0.48629495499E+03  0.90687846307E+02 0.  0.
        254    2    1    2    0    0  0.14178861924E+03  0.27078010576E+03 -0.58037577632E+03  0.11394058029E+04  0.93165640856E+03 0.  0.
        -24    2    4    4    0    0 -0.30189684278E+03  0.37861671399E+03 -0.16682191322E+03  0.51834357526E+03  0.79738268634E+02 0.  0.
         24    2    4    4    0    0  0.44368546202E+03 -0.10783660823E+03 -0.41355386311E+03  0.62106222760E+03  0.78777976458E+02 0.  0.
         13    1    3    3    0    0 -0.12571377270E+03 -0.26479296781E+03  0.36626589527E+03  0.46911616310E+03  0.00000000000E+00 0.  1.
        -13    1    3    3    0    0 -0.16074846542E+02 -0.59871379550E+01  0.92971957093E+00  0.17178791887E+02  0.00000000000E+00 0. -1.
          4    1    6    6  502    0  0.34723648557E+02 -0.68301558814E+01 -0.79243907251E+01  0.36265393516E+02  0.00000000000E+00 0. -1.
          3    1    5    5  503    0 -0.61671943271E+02  0.58621540527E+02 -0.60262815582E+02  0.10426658402E+03  0.00000000000E+00 0. -1.
         -4    1    5    5    0  503 -0.24022489951E+03  0.31999517346E+03 -0.10655909764E+03  0.41407699124E+03  0.00000000000E+00 0.  1.
         -3    1    6    6    0  502  0.40896181346E+03 -0.10100645235E+03 -0.40562947238E+03  0.58479683408E+03  0.00000000000E+00 0.  1.
<mgrwt>
<rscale>  0 0.16116629E+04</rscale>
<asrwt>0</asrwt>
<pdfrwt beam="1">  1        1 0.14145238E+00 0.16116629E+04</pdfrwt>
<pdfrwt beam="2">  1       -1 0.10865543E+00 0.16116629E+04</pdfrwt>
<totfact> 0.13216375E+01</totfact>
</mgrwt>
</event>
<event>
12    1  0.1755460E-007  0.1751499E+04  0.7818608E-02  0.8732525E-01
          2   -1    0    0  501    0  0.00000000000E+00  0.00000000000E+00  0.13658203658E+04  0.13658203658E+04  0.00000000000E+00 0. -1.
         -2   -1    0    0    0  501 -0.00000000000E+00 -0.00000000000E+00 -0.56152152249E+03  0.56152152249E+03  0.00000000000E+00 0.  1.
         23    2    1    2    0    0  0.68192076363E+02  0.54729177920E+03  0.64795320447E+03  0.85579513371E+03  0.91452199778E+02 0.  0.
        254    2    1    2    0    0 -0.68192076363E+02 -0.54729177920E+03  0.15634563884E+03  0.10715467546E+04  0.90531212165E+03 0.  0.
        -24    2    4    4    0    0  0.23527679353E+03 -0.98237082982E+02 -0.26793076809E+03  0.37865823082E+03  0.81175521143E+02 0.  0.
         24    2    4    4    0    0 -0.30346886989E+03 -0.44905469622E+03  0.42427640693E+03  0.69288852376E+03  0.79627644042E+02 0.  0.
         13    1    3    3    0    0  0.22045669280E+02  0.24044075764E+02  0.26073352128E+02  0.41760613077E+02  0.00000000000E+00 0.  1.
        -13    1    3    3    0    0  0.46146407083E+02  0.52324770343E+03  0.62187985234E+03  0.81403452063E+03  0.00000000000E+00 0. -1.
          4    1    6    6  502    0 -0.14924065833E+02 -0.11478293105E+01  0.12766684872E+02  0.19673166896E+02  0.00000000000E+00 0. -1.
          1    1    5    5  503    0  0.42078296580E+02 -0.49571231321E+02 -0.41893177059E+02  0.77349391090E+02  0.00000000000E+00 0. -1.
         -2    1    5    5    0  503  0.19319849695E+03 -0.48665851661E+02 -0.22603759103E+03  0.30130883973E+03  0.00000000000E+00 0.  1.
         -3    1    6    6    0  502 -0.28854480406E+03 -0.44790686691E+03  0.41150972206E+03  0.67321535686E+03  0.00000000000E+00 0.  1.
<mgrwt>
<rscale>  0 0.17514994E+04</rscale>
<asrwt>0</asrwt>
<pdfrwt beam="1">  1        2 0.21012621E+00 0.17514994E+04</pdfrwt>
<pdfrwt beam="2">  1       -2 0.86387927E-01 0.17514994E+04</pdfrwt>
<totfact> 0.16662102E+01</totfact>
</mgrwt>
</event>
<event>
12    1  0.1755460E-007  0.1071025E+04  0.7818608E-02  0.9233902E-01
          1   -1    0    0  501    0  0.00000000000E+00  0.00000000000E+00  0.25768281581E+04  0.25768281581E+04  0.00000000000E+00 0. -1.
         -1   -1    0    0    0  501 -0.00000000000E+00 -0.00000000000E+00 -0.11128948181E+03  0.11128948181E+03  0.00000000000E+00 0.  1.
         23    2    1    2    0    0  0.11962915765E+02  0.43155563921E+02  0.59416610017E+03  0.60274855545E+03  0.90922782893E+02 0.  0.
        254    2    1    2    0    0 -0.11962915765E+02 -0.43155563921E+02  0.18713725761E+04  0.20853690845E+04  0.91908834488E+03 0.  0.
        -24    2    4    4    0    0 -0.22546926219E+03  0.16839438338E+03  0.13533164194E+03  0.32190586962E+03  0.78202807101E+02 0.  0.
         24    2    4    4    0    0  0.21350634643E+03 -0.21154994730E+03  0.17360409342E+04  0.17634632148E+04  0.75006964678E+02 0.  0.
         13    1    3    3    0    0  0.27561047155E+02 -0.20138375482E+02  0.15074129033E+03  0.15455776298E+03  0.00000000000E+00 0.  1.
        -13    1    3    3    0    0 -0.15598131390E+02  0.63293939403E+02  0.44342480985E+03  0.44819079247E+03  0.00000000000E+00 0. -1.
          4    1    6    6  502    0  0.15488016315E+03 -0.10809309453E+03  0.96538740902E+03  0.98368939788E+03  0.00000000000E+00 0. -1.
          3    1    5    5  503    0 -0.21281579205E+03  0.16566162378E+03  0.14457395375E+03  0.30599993961E+03  0.00000000000E+00 0. -1.
         -4    1    5    5    0  503 -0.12653470148E+02  0.27327596025E+01 -0.92423118161E+01  0.15905930012E+02  0.00000000000E+00 0.  1.
         -3    1    6    6    0  502  0.58626183279E+02 -0.10345685277E+03  0.77065352518E+03  0.77977381696E+03  0.00000000000E+00 0.  1.
<mgrwt>
<rscale>  0 0.10710254E+04</rscale>
<asrwt>0</asrwt>
<pdfrwt beam="1">  1        1 0.39643506E+00 0.10710254E+04</pdfrwt>
<pdfrwt beam="2">  1       -1 0.17121461E-01 0.10710254E+04</pdfrwt>
<totfact> 0.32021438E+01</totfact>
</mgrwt>
</event>
<event>
12    1  0.1755460E-007  0.1838641E+04  0.7818608E-02  0.8686016E-01
         -2   -1    0    0    0  501 -0.00000000000E+00  0.00000000000E+00  0.65329740126E+03  0.65329740126E+03  0.00000000000E+00 0.  1.
          2   -1    0    0  501    0  0.00000000000E+00 -0.00000000000E+00 -0.12936689023E+04  0.12936689023E+04  0.00000000000E+00 0. -1.
         23    2    1    2    0    0  0.47045157486E+03 -0.51531752142E+02 -0.78382573139E+03  0.92026799067E+03  0.92359036900E+02 0.  0.
        254    2    1    2    0    0 -0.47045157486E+03  0.51531752142E+02  0.14345423033E+03  0.10266983129E+04  0.89975002294E+03 0.  0.
        -24    2    4    4    0    0 -0.22536301390E+03  0.59618657809E+02 -0.37423188009E+03  0.44837416105E+03  0.81529233008E+02 0.  0.
         24    2    4    4    0    0 -0.24508856096E+03 -0.80869056669E+01  0.51768611042E+03  0.57832415186E+03  0.79536877924E+02 0.  0.
         13    1    3    3    0    0  0.41490227288E+03 -0.65141527385E+02 -0.64010643750E+03  0.76558707275E+03  0.00000000000E+00 0.  1.
        -13    1    3    3    0    0  0.55549301972E+02  0.13609775243E+02 -0.14371929389E+03  0.15468091791E+03  0.00000000000E+00 0. -1.
          2    1    6    6  502    0 -0.17912221715E+03  0.14125549042E+02  0.43235683701E+03  0.46820586746E+03  0.00000000000E+00 0. -1.
          3    1    5    5  503    0 -0.11809528177E+03  0.30504804990E+02 -0.26878500232E+03  0.29516506598E+03  0.00000000000E+00 0. -1.
         -4    1    5    5    0  503 -0.10726773213E+03  0.29113852819E+02 -0.10544687777E+03  0.15320909508E+03  0.00000000000E+00 0.  1.
         -1    1    6    6    0  502 -0.65966343808E+02 -0.22212454709E+02  0.85329273409E+02  0.11011828440E+03  0.00000000000E+00 0.  1.
<mgrwt>
<rscale>  0 0.18386414E+04</rscale>
<asrwt>0</asrwt>
<pdfrwt beam="1">  1        2 0.19902598E+00 0.18386414E+04</pdfrwt>
<pdfrwt beam="2">  1       -2 0.10050729E+00 0.18386414E+04</pdfrwt>
<totfact> 0.12808652E+01</totfact>
</mgrwt>
</event>
<event>
12    1  0.1755460E-007  0.1737775E+04  0.7818608E-02  0.8740108E-01
         -2   -1    0    0    0  501 -0.00000000000E+00  0.00000000000E+00  0.37842431422E+03  0.37842431422E+03  0.00000000000E+00 0.  1.
          2   -1    0    0  501    0  0.00000000000E+00 -0.00000000000E+00 -0.19950248227E+04  0.19950248227E+04  0.00000000000E+00 0. -1.
         23    2    1    2    0    0 -0.38051558814E+03  0.46496306890E+03 -0.32823085088E+03  0.69099481433E+03  0.93571222609E+02 0.  0.
        254    2    1    2    0    0  0.38051558814E+03 -0.46496306890E+03 -0.12883696576E+04  0.16824543226E+04  0.89987410492E+03 0.  0.
        -24    2    4    4    0    0 -0.28718816349E+03 -0.19570193848E+03 -0.44924494317E+03  0.57377575070E+03  0.81371390266E+02 0.  0.
         24    2    4    4    0    0  0.66770375163E+03 -0.26926113042E+03 -0.83912471439E+03  0.11086785719E+04  0.81902582921E+02 0.  0.
         13    1    3    3    0    0 -0.25186656872E+03  0.27039934840E+03 -0.24485723369E+03  0.44329182368E+03  0.00000000000E+00 0. -1.
        -13    1    3    3    0    0 -0.12864901942E+03  0.19456372049E+03 -0.83373617199E+02  0.24770299065E+03  0.00000000000E+00 0.  1.
          2    1    6    6  502    0  0.58940797479E+03 -0.23907608510E+03 -0.77774998930E+03  0.10047159703E+04  0.00000000000E+00 0. -1.
          1    1    5    5  503    0 -0.24415112045E+03 -0.12951833770E+03 -0.37094622302E+03  0.46258606744E+03  0.00000000000E+00 0. -1.
         -2    1    5    5    0  503 -0.43037043040E+02 -0.66183600784E+02 -0.78298720148E+02  0.11118968326E+03  0.00000000000E+00 0.  1.
         -1    1    6    6    0  502  0.78295776845E+02 -0.30185045318E+02 -0.61374725091E+02  0.10396260151E+03  0.00000000000E+00 0.  1.
<mgrwt>
<rscale>  0 0.17377755E+04</rscale>
<asrwt>0</asrwt>
<pdfrwt beam="1">  1        2 0.30692689E+00 0.17377755E+04</pdfrwt>
<pdfrwt beam="2">  1       -2 0.58219127E-01 0.17377755E+04</pdfrwt>
<totfact> 0.17607717E+01</totfact>
</mgrwt>
</event>
<event>
12    1  0.1755460E-007  0.2841271E+04  0.7818608E-02  0.8290569E-01
         -2   -1    0    0    0  501 -0.00000000000E+00  0.00000000000E+00  0.61835099417E+03  0.61835099417E+03  0.00000000000E+00 0.  1.
          2   -1    0    0  501    0  0.00000000000E+00 -0.00000000000E+00 -0.32638516650E+04  0.32638516650E+04  0.00000000000E+00 0. -1.
         23    2    1    2    0    0 -0.46422994348E+03  0.67689814614E+03 -0.25324226773E+04  0.26637160066E+04  0.92291963185E+02 0.  0.
        254    2    1    2    0    0  0.46422994348E+03 -0.67689814614E+03 -0.11307799349E+03  0.12184866526E+04  0.89343301326E+03 0.  0.
        -24    2    4    4    0    0  0.18400060691E+03 -0.84062017679E+03  0.46775284910E+01  0.86415087867E+03  0.78970607624E+02 0.  0.
         24    2    4    4    0    0  0.28022933657E+03  0.16372203065E+03 -0.11775552198E+03  0.35433577389E+03  0.79712566820E+02 0.  0.
         13    1    3    3    0    0 -0.40572763321E+03  0.63669490899E+03 -0.23151610751E+04  0.24351521766E+04  0.00000000000E+00 0. -1.
        -13    1    3    3    0    0 -0.58502310273E+02  0.40203237154E+02 -0.21726160224E+03  0.22856383002E+03  0.00000000000E+00 0.  1.
          4    1    6    6  502    0  0.13372142629E+03  0.87087547195E+02 -0.99338634058E+02  0.18797293673E+03  0.00000000000E+00 0. -1.
          1    1    5    5  503    0  0.18431600757E+03 -0.82672988450E+03  0.14473896733E+02  0.84715062785E+03  0.00000000000E+00 0. -1.
         -2    1    5    5    0  503 -0.31540065831E+00 -0.13890292289E+02 -0.97963682420E+01  0.17000250827E+02  0.00000000000E+00 0.  1.
         -3    1    6    6    0  502  0.14650791028E+03  0.76634483452E+02 -0.18416887923E+02  0.16636283717E+03  0.00000000000E+00 0.  1.
<mgrwt>
<rscale>  0 0.28412715E+04</rscale>
<asrwt>0</asrwt>
<pdfrwt beam="1">  1        2 0.50213102E+00 0.28412715E+04</pdfrwt>
<pdfrwt beam="2">  1       -2 0.95130923E-01 0.28412715E+04</pdfrwt>
<totfact> 0.94803960E-01</totfact>
</mgrwt>
</event>
<event>
12    1  0.1755460E-007  0.1612297E+04  0.7818608E-02  0.8813029E-01
          2   -1    0    0  501    0  0.00000000000E+00  0.00000000000E+00  0.86101022850E+03  0.86101022850E+03  0.00000000000E+00 0. -1.
         -2   -1    0    0    0  501 -0.00000000000E+00 -0.00000000000E+00 -0.75478216729E+03  0.75478216729E+03  0.00000000000E+00 0.  1.
         23    2    1    2    0    0  0.39763058168E+03  0.22512380095E+03 -0.27178801782E+03  0.53863662399E+03  0.86428472352E+02 0.  0.
        254    2    1    2    0    0 -0.39763058168E+03 -0.22512380095E+03  0.37801607904E+03  0.10771557718E+04  0.89920942803E+03 0.  0.
        -24    2    4    4    0    0  0.22507853193E+03 -0.25232707950E+03  0.76403145736E+01  0.34773175465E+03  0.80806547994E+02 0.  0.
         24    2    4    4    0    0 -0.62270911361E+03  0.27203278552E+02  0.37037576446E+03  0.72942401715E+03  0.79840662264E+02 0.  0.
         11    1    3    3    0    0  0.98279569965E+02  0.47175790756E+02 -0.10920828049E+03  0.15430773679E+03  0.00000000000E+00 0. -1.
        -11    1    3    3    0    0  0.29935101172E+03  0.17794801020E+03 -0.16257973733E+03  0.38432888720E+03  0.00000000000E+00 0.  1.
          2    1    6    6  502    0 -0.53375760016E+03  0.95953669992E+01  0.28631474642E+03  0.60577667569E+03  0.00000000000E+00 0. -1.
          3    1    5    5  503    0  0.15913134427E+03 -0.13012721213E+03 -0.18647054781E+02  0.20640636792E+03  0.00000000000E+00 0. -1.
         -4    1    5    5    0  503  0.65947187655E+02 -0.12219986738E+03  0.26287369354E+02  0.14132538673E+03  0.00000000000E+00 0.  1.
         -1    1    6    6    0  502 -0.88951513456E+02  0.17607911553E+02  0.84061018039E+02  0.12364734146E+03  0.00000000000E+00 0.  1.
<mgrwt>
<rscale>  0 0.16122967E+04</rscale>
<asrwt>0</asrwt>
<pdfrwt beam="1">  1        2 0.13246311E+00 0.16122967E+04</pdfrwt>
<pdfrwt beam="2">  1       -2 0.11612033E+00 0.16122967E+04</pdfrwt>
<totfact> 0.17203082E+01</totfact>
</mgrwt>
</event>
<event>
12    1  0.1755460E-007  0.1847240E+04  0.7818608E-02  0.8681573E-01
          2   -1    0    0  501    0  0.00000000000E+00  0.00000000000E+00  0.14426635953E+04  0.14426635953E+04  0.00000000000E+00 0.  1.
         -2   -1    0    0    0  501 -0.00000000000E+00 -0.00000000000E+00 -0.59131883240E+03  0.59131883240E+03  0.00000000000E+00 0. -1.
         23    2    1    2    0    0 -0.45970487901E+03  0.24893527760E+03  0.82713543840E+03  0.98236602027E+03  0.87135618986E+02 0.  0.
        254    2    1    2    0    0  0.45970487901E+03 -0.24893527760E+03  0.24209324482E+02  0.10516164074E+04  0.91214781080E+03 0.  0.
        -24    2    4    4    0    0  0.34941494311E+03 -0.49739564007E+03  0.27672213616E+03  0.67270269222E+03  0.80377523310E+02 0.  0.
         24    2    4    4    0    0  0.11028993590E+03  0.24846036247E+03 -0.25251281168E+03  0.37891371519E+03  0.76918540160E+02 0.  0.
         13    1    3    3    0    0 -0.96258950400E+02  0.95017674015E+02  0.20584646040E+03  0.24630653497E+03  0.00000000000E+00 0. -1.
        -13    1    3    3    0    0 -0.36344592861E+03  0.15391760358E+03  0.62128897800E+03  0.73605948530E+03  0.00000000000E+00 0.  1.
          4    1    6    6  502    0  0.44104919094E+02  0.12914728457E+03 -0.77299625955E+02  0.15684226845E+03  0.00000000000E+00 0. -1.
          3    1    5    5  503    0  0.99666926893E+01 -0.40055979327E+02  0.34463107871E+02  0.53772876500E+02  0.00000000000E+00 0. -1.
         -4    1    5    5    0  503  0.33944825042E+03 -0.45733966075E+03  0.24225902829E+03  0.61892981572E+03  0.00000000000E+00 0.  1.
         -3    1    6    6    0  502  0.66185016805E+02  0.11931307791E+03 -0.17521318572E+03  0.22207144675E+03  0.00000000000E+00 0.  1.
<mgrwt>
<rscale>  0 0.18472403E+04</rscale>
<asrwt>0</asrwt>
<pdfrwt beam="1">  1        2 0.22194824E+00 0.18472403E+04</pdfrwt>
<pdfrwt beam="2">  1       -2 0.90972129E-01 0.18472403E+04</pdfrwt>
<totfact> 0.13265473E+01</totfact>
</mgrwt>
</event>
<event>
12    1  0.1755460E-007  0.1366990E+04  0.7818608E-02  0.8978065E-01
          2   -1    0    0  501    0  0.00000000000E+00  0.00000000000E+00  0.16590715943E+04  0.16590715943E+04  0.00000000000E+00 0.  1.
         -2   -1    0    0    0  501 -0.00000000000E+00 -0.00000000000E+00 -0.28158254573E+03  0.28158254573E+03  0.00000000000E+00 0. -1.
         23    2    1    2    0    0 -0.16872756860E+03 -0.32515629622E+03  0.28736183584E+03  0.47422619478E+03  0.90100220552E+02 0.  0.
        254    2    1    2    0    0  0.16872756860E+03  0.32515629622E+03  0.10901272127E+04  0.14664279452E+04  0.90985601568E+03 0.  0.
        -24    2    4    4    0    0  0.45738740685E+03 -0.53120966731E+01  0.82783977855E+03  0.94913077767E+03  0.79366717540E+02 0.  0.
         24    2    4    4    0    0 -0.28865983824E+03  0.33046839289E+03  0.26228743417E+03  0.51729716757E+03  0.79169441911E+02 0.  0.
         13    1    3    3    0    0 -0.42552760954E+02 -0.30241629626E+02  0.67527082463E+02  0.85353385950E+02  0.00000000000E+00 0.  1.
        -13    1    3    3    0    0 -0.12617480765E+03 -0.29491466659E+03  0.21983475337E+03  0.38887280883E+03  0.00000000000E+00 0. -1.
          4    1    6    6  502    0 -0.26031726238E+03  0.32569075041E+03  0.24897657664E+03  0.48562215529E+03  0.00000000000E+00 0. -1.
          3    1    5    5  503    0  0.35653310586E+03  0.26264732781E+02  0.66498868384E+03  0.75499380223E+03  0.00000000000E+00 0. -1.
         -4    1    5    5    0  503  0.10085430098E+03 -0.31576829455E+02  0.16285109471E+03  0.19413697544E+03  0.00000000000E+00 0.  1.
         -1    1    6    6    0  502 -0.28342575868E+02  0.47776424843E+01  0.13310857527E+02  0.31675012275E+02  0.00000000000E+00 0.  1.
<mgrwt>
<rscale>  0 0.13669903E+04</rscale>
<asrwt>0</asrwt>
<pdfrwt beam="1">  1        2 0.25524178E+00 0.13669903E+04</pdfrwt>
<pdfrwt beam="2">  1       -2 0.43320393E-01 0.13669903E+04</pdfrwt>
<totfact> 0.50938439E+01</totfact>
</mgrwt>
</event>
<event>
12    1  0.1755460E-007  0.1404472E+04  0.7818608E-02  0.8950588E-01
          2   -1    0    0  501    0  0.00000000000E+00  0.00000000000E+00  0.12161204825E+04  0.12161204825E+04  0.00000000000E+00 0. -1.
         -2   -1    0    0    0  501 -0.00000000000E+00 -0.00000000000E+00 -0.40549877480E+03  0.40549877480E+03  0.00000000000E+00 0.  1.
         23    2    1    2    0    0 -0.72102493693E+02  0.19531979890E+03  0.64119292629E+03  0.68017749410E+03  0.90357408794E+02 0.  0.
        254    2    1    2    0    0  0.72102493693E+02 -0.19531979890E+03  0.16942878140E+03  0.94144176318E+03  0.90236239287E+03 0.  0.
        -24    2    4    4    0    0  0.41399754211E+03  0.61051800165E+02  0.25849316311E+03  0.49765406292E+03  0.75627797747E+02 0.  0.
         24    2    4    4    0    0 -0.34189504842E+03 -0.25637159906E+03 -0.89064381711E+02  0.44378770026E+03  0.79977733600E+02 0.  0.
         11    1    3    3    0    0  0.37388270704E+01  0.10410563853E+03  0.36529371798E+03  0.37985716157E+03  0.00000000000E+00 0. -1.
        -11    1    3    3    0    0 -0.75841320764E+02  0.91214160364E+02  0.27589920831E+03  0.30032033253E+03  0.00000000000E+00 0.  1.
          2    1    6    6  502    0 -0.21217796332E+03 -0.16900591451E+03 -0.17578739643E+02  0.27182990886E+03  0.00000000000E+00 0. -1.
          3    1    5    5  503    0  0.32964397079E+03  0.50619206522E+02  0.23941013945E+03  0.41054191798E+03  0.00000000000E+00 0. -1.
         -4    1    5    5    0  503  0.84353571322E+02  0.10432593643E+02  0.19083023662E+02  0.87112144945E+02  0.00000000000E+00 0.  1.
         -1    1    6    6    0  502 -0.12971708510E+03 -0.87365684547E+02 -0.71485642068E+02  0.17195779140E+03  0.00000000000E+00 0.  1.
<mgrwt>
<rscale>  0 0.14044720E+04</rscale>
<asrwt>0</asrwt>
<pdfrwt beam="1">  1        2 0.18709546E+00 0.14044720E+04</pdfrwt>
<pdfrwt beam="2">  1       -2 0.62384427E-01 0.14044720E+04</pdfrwt>
<totfact> 0.42973387E+01</totfact>
</mgrwt>
</event>
<event>
12    1  0.1755460E-007  0.1221666E+04  0.7818608E-02  0.9094101E-01
         -1   -1    0    0    0  501 -0.00000000000E+00  0.00000000000E+00  0.90863316430E+03  0.90863316430E+03  0.00000000000E+00 0.  1.
          1   -1    0    0  501    0  0.00000000000E+00 -0.00000000000E+00 -0.41063522117E+03  0.41063522117E+03  0.00000000000E+00 0. -1.
         23    2    1    2    0    0  0.88615974466E+02 -0.19162222675E+03 -0.59182675522E+02  0.23902319552E+03  0.95171582962E+02 0.  0.
        254    2    1    2    0    0 -0.88615974466E+02  0.19162222675E+03  0.55718061865E+03  0.10802451899E+04  0.90105913228E+03 0.  0.
        -24    2    4    4    0    0 -0.48098855052E+03  0.19410538228E+03  0.32560287579E+03  0.61766335201E+03  0.80398373922E+02 0.  0.
         24    2    4    4    0    0  0.39237257605E+03 -0.24831555335E+01  0.23157774286E+03  0.46258183793E+03  0.79945614625E+02 0.  0.
         11    1    3    3    0    0  0.66220957232E+02 -0.19339970910E+03 -0.67177180799E+02  0.21517768536E+03  0.00000000000E+00 0. -1.
        -11    1    3    3    0    0  0.22395017234E+02  0.17774823537E+01  0.79945052770E+01  0.23845510166E+02  0.00000000000E+00 0.  1.
          2    1    6    6  502    0  0.37258717731E+02  0.36091806901E+01  0.53438482785E+02  0.65244997314E+02  0.00000000000E+00 0. -1.
          1    1    5    5  503    0 -0.33040639102E+02  0.86833169978E+00  0.38769124116E+01  0.33278646037E+02  0.00000000000E+00 0. -1.
         -2    1    5    5    0  503 -0.44794791142E+03  0.19323705058E+03  0.32172596338E+03  0.58438470597E+03  0.00000000000E+00 0.  1.
         -1    1    6    6    0  502  0.35511385832E+03 -0.60923362235E+01  0.17813926008E+03  0.39733684062E+03  0.00000000000E+00 0.  1.
<mgrwt>
<rscale>  0 0.12216657E+04</rscale>
<asrwt>0</asrwt>
<pdfrwt beam="1">  1        1 0.63174650E-01 0.12216657E+04</pdfrwt>
<pdfrwt beam="2">  1       -1 0.13978972E+00 0.12216657E+04</pdfrwt>
<totfact> 0.24092986E+01</totfact>
</mgrwt>
</event>
<event>
12    1  0.1755460E-007  0.1300887E+04  0.7818608E-02  0.9028862E-01
          1   -1    0    0  501    0  0.00000000000E+00  0.00000000000E+00  0.47073727768E+03  0.47073727768E+03  0.00000000000E+00 0. -1.
         -1   -1    0    0    0  501 -0.00000000000E+00 -0.00000000000E+00 -0.89875304811E+03  0.89875304811E+03  0.00000000000E+00 0.  1.
         23    2    1    2    0    0  0.21921917003E+03 -0.21835453130E+03  0.13198716030E+02  0.32293992850E+03  0.91543680636E+02 0.  0.
        254    2    1    2    0    0 -0.21921917003E+03  0.21835453130E+03 -0.44121448646E+03  0.10465503973E+04  0.89714088368E+03 0.  0.
        -24    2    4    4    0    0  0.24119360368E+03 -0.14535153731E+03  0.23842002936E+02  0.29375679340E+03  0.80144798405E+02 0.  0.
         24    2    4    4    0    0 -0.46041277372E+03  0.36370606861E+03 -0.46505648940E+03  0.75279360389E+03  0.78477036004E+02 0.  0.
         13    1    3    3    0    0  0.20150839355E+03 -0.18919764732E+03 -0.17616061549E+02  0.27696878533E+03  0.00000000000E+00 0.  1.
        -13    1    3    3    0    0  0.17710776487E+02 -0.29156883982E+02  0.30814777579E+02  0.45971143172E+02  0.00000000000E+00 0. -1.
          2    1    6    6  502    0 -0.23774599117E+03  0.21910280735E+03 -0.21650383666E+03  0.38910552269E+03  0.00000000000E+00 0. -1.
          3    1    5    5  503    0  0.17299598119E+03 -0.12689232631E+03 -0.11312356340E+02  0.21484236405E+03  0.00000000000E+00 0. -1.
         -4    1    5    5    0  503  0.68197622489E+02 -0.18459211000E+02  0.35154359276E+02  0.78914429352E+02  0.00000000000E+00 0.  1.
         -1    1    6    6    0  502 -0.22266678255E+03  0.14460326126E+03 -0.24855265274E+03  0.36368808120E+03  0.00000000000E+00 0.  1.
<mgrwt>
<rscale>  0 0.13008867E+04</rscale>
<asrwt>0</asrwt>
<pdfrwt beam="1">  1        1 0.72421120E-01 0.13008867E+04</pdfrwt>
<pdfrwt beam="2">  1       -1 0.13826970E+00 0.13008867E+04</pdfrwt>
<totfact> 0.20489655E+01</totfact>
</mgrwt>
</event>
<event>
12    1  0.1755460E-007  0.1810248E+04  0.7818608E-02  0.8700868E-01
         -1   -1    0    0    0  501 -0.00000000000E+00  0.00000000000E+00  0.10930759293E+04  0.10930759293E+04  0.00000000000E+00 0.  1.
          1   -1    0    0  501    0  0.00000000000E+00 -0.00000000000E+00 -0.74949038276E+03  0.74949038276E+03  0.00000000000E+00 0. -1.
         23    2    1    2    0    0 -0.46929318159E+03 -0.32269661797E+03  0.54351864728E+03  0.79185893496E+03  0.85198916591E+02 0.  0.
        254    2    1    2    0    0  0.46929318159E+03  0.32269661797E+03 -0.19993310071E+03  0.10507073771E+04  0.86002531942E+03 0.  0.
        -24    2    4    4    0    0 -0.40474815825E+02  0.41595855522E+03  0.11271339008E+03  0.44042868121E+03  0.81322718524E+02 0.  0.
         24    2    4    4    0    0  0.50976799742E+03 -0.93261937252E+02 -0.31264649079E+03  0.61027869592E+03  0.78301075037E+02 0.  0.
         13    1    3    3    0    0 -0.13226395121E+03 -0.58845446360E+02  0.10318417865E+03  0.17777377217E+03  0.00000000000E+00 0. -1.
        -13    1    3    3    0    0 -0.33702923038E+03 -0.26385117161E+03  0.44033446862E+03  0.61408516278E+03  0.00000000000E+00 0.  1.
          2    1    6    6  502    0  0.36487719181E+03 -0.31003981755E+02 -0.21039912246E+03  0.42233210003E+03  0.00000000000E+00 0. -1.
          1    1    5    5  503    0 -0.44857631932E+02  0.23948128607E+03  0.10022758545E+03  0.26345599710E+03  0.00000000000E+00 0. -1.
         -2    1    5    5    0  503  0.43828161072E+01  0.17647726915E+03  0.12485804630E+02  0.17697268411E+03  0.00000000000E+00 0.  1.
         -1    1    6    6    0  502  0.14489080561E+03 -0.62257955497E+02 -0.10224736833E+03  0.18794659589E+03  0.00000000000E+00 0.  1.
<mgrwt>
<rscale>  0 0.18102485E+04</rscale>
<asrwt>0</asrwt>
<pdfrwt beam="1">  1        1 0.11530621E+00 0.18102485E+04</pdfrwt>
<pdfrwt beam="2">  1       -1 0.16816553E+00 0.18102485E+04</pdfrwt>
<totfact> 0.58678748E+00</totfact>
</mgrwt>
</event>
<event>
12    1  0.1755460E-007  0.1573435E+04  0.7818608E-02  0.8837036E-01
          1   -1    0    0  501    0  0.00000000000E+00  0.00000000000E+00  0.96284641015E+03  0.96284641015E+03  0.00000000000E+00 0. -1.
         -1   -1    0    0    0  501 -0.00000000000E+00 -0.00000000000E+00 -0.64280715129E+03  0.64280715129E+03  0.00000000000E+00 0.  1.
         23    2    1    2    0    0  0.41794629679E+03  0.34068125097E+03  0.19659318106E+03  0.58153312314E+03  0.93750054411E+02 0.  0.
        254    2    1    2    0    0 -0.41794629679E+03 -0.34068125097E+03  0.12344607780E+03  0.10241204383E+04  0.86188219394E+03 0.  0.
        -24    2    4    4    0    0 -0.45407283017E+03  0.17164860687E+03  0.11069484855E+03  0.50438868600E+03  0.80679723121E+02 0.  0.
         24    2    4    4    0    0  0.36126533378E+02 -0.51232985785E+03  0.12751229252E+02  0.51973175230E+03  0.78558836804E+02 0.  0.
         11    1    3    3    0    0  0.41254266627E+03  0.33165579246E+03  0.17498510188E+03  0.55750049511E+03  0.00000000000E+00 0.  1.
        -11    1    3    3    0    0  0.54036305242E+01  0.90254585091E+01  0.21608079182E+02  0.24032628031E+02  0.00000000000E+00 0. -1.
          4    1    6    6  502    0  0.40503600462E+02 -0.42507974855E+03 -0.17278932154E+02  0.42735453171E+03  0.00000000000E+00 0. -1.
          3    1    5    5  503    0 -0.21589293096E+03  0.41856601141E+02  0.65003855221E+02  0.22931906570E+03  0.00000000000E+00 0. -1.
         -4    1    5    5    0  503 -0.23817989921E+03  0.12979200573E+03  0.45690993326E+02  0.27506962030E+03  0.00000000000E+00 0.  1.
         -3    1    6    6    0  502 -0.43770670839E+01 -0.87250109302E+02  0.30030161406E+02  0.92377220588E+02  0.00000000000E+00 0.  1.
<mgrwt>
<rscale>  0 0.15734352E+04</rscale>
<asrwt>0</asrwt>
<pdfrwt beam="1">  1        1 0.14813022E+00 0.15734352E+04</pdfrwt>
<pdfrwt beam="2">  1       -1 0.98893407E-01 0.15734352E+04</pdfrwt>
<totfact> 0.15222939E+01</totfact>
</mgrwt>
</event>
<event>
12    1  0.1755460E-007  0.1714625E+04  0.7818608E-02  0.8753067E-01
         -1   -1    0    0    0  501 -0.00000000000E+00  0.00000000000E+00  0.99295757902E+03  0.99295757902E+03  0.00000000000E+00 0.  1.
          1   -1    0    0  501    0  0.00000000000E+00 -0.00000000000E+00 -0.74019774942E+03  0.74019774942E+03  0.00000000000E+00 0. -1.
         23    2    1    2    0    0 -0.32458484955E+03 -0.50604640416E+03 -0.52970394414E+02  0.60894046332E+03  0.81020599024E+02 0.  0.
        254    2    1    2    0    0  0.32458484955E+03  0.50604640416E+03  0.30573022401E+03  0.11242148651E+04  0.89941636930E+03 0.  0.
        -24    2    4    4    0    0 -0.93171540771E+02  0.61026617177E+03  0.28969403343E+03  0.68663213859E+03  0.80220473223E+02 0.  0.
         24    2    4    4    0    0  0.41775639032E+03 -0.10421976761E+03  0.16036190583E+02  0.43758272653E+03  0.76415453507E+02 0.  0.
         11    1    3    3    0    0 -0.20961359399E+02 -0.74577302604E+02 -0.21576285950E+02  0.80415724625E+02  0.00000000000E+00 0.  1.
        -11    1    3    3    0    0 -0.30362349015E+03 -0.43146910156E+03 -0.31394108464E+02  0.52852473870E+03  0.00000000000E+00 0. -1.
          2    1    6    6  502    0  0.31813977169E+03 -0.11167680899E+03  0.18221220449E+02  0.33766349651E+03  0.00000000000E+00 0. -1.
          1    1    5    5  503    0 -0.71692408920E+02  0.58417025634E+03  0.27018169514E+03  0.64760546498E+03  0.00000000000E+00 0. -1.
         -2    1    5    5    0  503 -0.21479131852E+02  0.26095915432E+02  0.19512338293E+02  0.39026673609E+02  0.00000000000E+00 0.  1.
         -1    1    6    6    0  502  0.99616618628E+02  0.74570413779E+01 -0.21850298660E+01  0.99919230024E+02  0.00000000000E+00 0.  1.
<mgrwt>
<rscale>  0 0.17146253E+04</rscale>
<asrwt>0</asrwt>
<pdfrwt beam="1">  1        1 0.11387658E+00 0.17146253E+04</pdfrwt>
<pdfrwt beam="2">  1       -1 0.15276270E+00 0.17146253E+04</pdfrwt>
<totfact> 0.78906247E+00</totfact>
</mgrwt>
</event>
<event>
12    1  0.1755460E-007  0.1673054E+04  0.7818608E-02  0.8776884E-01
          2   -1    0    0  501    0  0.00000000000E+00  0.00000000000E+00  0.65869667199E+03  0.65869667199E+03  0.00000000000E+00 0.  1.
         -2   -1    0    0    0  501 -0.00000000000E+00 -0.00000000000E+00 -0.10623665676E+04  0.10623665676E+04  0.00000000000E+00 0. -1.
         23    2    1    2    0    0  0.44207586559E+03 -0.37413862890E+03 -0.30676332808E+03  0.66168135876E+03  0.91146566016E+02 0.  0.
        254    2    1    2    0    0 -0.44207586559E+03  0.37413862890E+03 -0.96906567573E+02  0.10593818809E+04  0.88175297113E+03 0.  0.
        -24    2    4    4    0    0 -0.44677311509E+02  0.58920701195E+03 -0.64129743695E+02  0.59885996950E+03  0.73209794111E+02 0.  0.
         24    2    4    4    0    0 -0.39739855408E+03 -0.21506838305E+03 -0.32776823878E+02  0.46052191137E+03  0.82620157895E+02 0.  0.
         11    1    3    3    0    0  0.24643098394E+03 -0.19122310770E+03 -0.21385345688E+03  0.37819017410E+03  0.00000000000E+00 0.  1.
        -11    1    3    3    0    0  0.19564488165E+03 -0.18291552120E+03 -0.92909871198E+02  0.28349118466E+03  0.00000000000E+00 0. -1.
          2    1    6    6  502    0 -0.47829084230E+02 -0.11889460952E+02  0.19149005015E+02  0.52874048200E+02  0.00000000000E+00 0. -1.
          3    1    5    5  503    0  0.65866510723E+01  0.49422437647E+02 -0.23518372518E+02  0.55127807513E+02  0.00000000000E+00 0. -1.
         -4    1    5    5    0  503 -0.51263962581E+02  0.53978457430E+03 -0.40611371177E+02  0.54373216199E+03  0.00000000000E+00 0.  1.
         -1    1    6    6    0  502 -0.34956946985E+03 -0.20317892209E+03 -0.51925828893E+02  0.40764786317E+03  0.00000000000E+00 0.  1.
<mgrwt>
<rscale>  0 0.16730539E+04</rscale>
<asrwt>0</asrwt>
<pdfrwt beam="1">  1        2 0.10133795E+00 0.16730539E+04</pdfrwt>
<pdfrwt beam="2">  1       -2 0.16344101E+00 0.16730539E+04</pdfrwt>
<totfact> 0.10014517E+01</totfact>
</mgrwt>
</event>
<event>
12    1  0.1755460E-007  0.3464449E+04  0.7818608E-02  0.8122267E-01
         -1   -1    0    0    0  501 -0.00000000000E+00  0.00000000000E+00  0.13948998362E+04  0.13948998362E+04  0.00000000000E+00 0.  1.
          1   -1    0    0  501    0  0.00000000000E+00 -0.00000000000E+00 -0.21511237142E+04  0.21511237142E+04  0.00000000000E+00 0. -1.
         23    2    1    2    0    0  0.11793083429E+02  0.36265893290E+03  0.12165427832E+04  0.12727066033E+04  0.90250631163E+02 0.  0.
        254    2    1    2    0    0 -0.11793083429E+02 -0.36265893290E+03 -0.19727666612E+04  0.22733169471E+04  0.10698135650E+04 0.  0.
        -24    2    4    4    0    0  0.36836193815E+03 -0.45858970278E+03 -0.60262000463E+03  0.84592204299E+03  0.80238393985E+02 0.  0.
         24    2    4    4    0    0 -0.38015502158E+03  0.95930769874E+02 -0.13701466566E+04  0.14273949041E+04  0.80210963255E+02 0.  0.
         11    1    3    3    0    0 -0.23990937864E+02  0.28513724284E+03  0.99325949911E+03  0.10336552834E+04  0.00000000000E+00 0.  1.
        -11    1    3    3    0    0  0.35784021293E+02  0.77521690064E+02  0.22328328408E+03  0.23905131993E+03  0.00000000000E+00 0. -1.
          2    1    6    6  502    0 -0.27921361197E+03  0.51080729165E+02 -0.86758890141E+03  0.91284170800E+03  0.00000000000E+00 0. -1.
          1    1    5    5  503    0  0.26051047300E+03 -0.35868529594E+03 -0.48967672281E+03  0.66053322470E+03  0.00000000000E+00 0. -1.
         -2    1    5    5    0  503  0.10785146515E+03 -0.99904406838E+02 -0.11294328182E+03  0.18538881829E+03  0.00000000000E+00 0.  1.
         -1    1    6    6    0  502 -0.10094140961E+03  0.44850040709E+02 -0.50255775520E+03  0.51455319612E+03  0.00000000000E+00 0.  1.
<mgrwt>
<rscale>  0 0.34644492E+04</rscale>
<asrwt>0</asrwt>
<pdfrwt beam="1">  1        1 0.33094211E+00 0.34644492E+04</pdfrwt>
<pdfrwt beam="2">  1       -1 0.21459997E+00 0.34644492E+04</pdfrwt>
<totfact> 0.23032143E-01</totfact>
</mgrwt>
</event>
<event>
12    1  0.1755460E-007  0.1692119E+04  0.7818608E-02  0.8765872E-01
         -2   -1    0    0    0  501 -0.00000000000E+00  0.00000000000E+00  0.92575423698E+03  0.92575423698E+03  0.00000000000E+00 0.  1.
          2   -1    0    0  501    0  0.00000000000E+00 -0.00000000000E+00 -0.77322568817E+03  0.77322568817E+03  0.00000000000E+00 0. -1.
         23    2    1    2    0    0 -0.37988821078E+03  0.37289412447E+02  0.52356842416E+03  0.65435972354E+03  0.91417722829E+02 0.  0.
        254    2    1    2    0    0  0.37988821078E+03 -0.37289412447E+02 -0.37103987535E+03  0.10446202016E+04  0.89880766772E+03 0.  0.
        -24    2    4    4    0    0 -0.16359539625E+03  0.32875363082E+02  0.18396476708E+03  0.26050315752E+03  0.78578727252E+02 0.  0.
         24    2    4    4    0    0  0.54348360704E+03 -0.70164775529E+02 -0.55500464243E+03  0.78411704409E+03  0.80696089546E+02 0.  0.
         11    1    3    3    0    0 -0.34859162129E+03  0.59381364333E+02  0.48241363964E+03  0.59813475453E+03  0.00000000000E+00 0.  1.
        -11    1    3    3    0    0 -0.31296589495E+02 -0.22091951886E+02  0.41154784520E+02  0.56224969017E+02  0.00000000000E+00 0. -1.
          2    1    6    6  502    0  0.41690813577E+03 -0.46537690996E+02 -0.46919419803E+03  0.62938171710E+03  0.00000000000E+00 0. -1.
          3    1    5    5  503    0 -0.34778679615E+02  0.39257489475E+02  0.75801010738E+02  0.92176462639E+02  0.00000000000E+00 0. -1.
         -4    1    5    5    0  503 -0.12881671664E+03 -0.63821263931E+01  0.10816375635E+03  0.16832669488E+03  0.00000000000E+00 0.  1.
         -1    1    6    6    0  502  0.12657547127E+03 -0.23627084533E+02 -0.85810444397E+02  0.15473532699E+03  0.00000000000E+00 0.  1.
<mgrwt>
<rscale>  0 0.16921193E+04</rscale>
<asrwt>0</asrwt>
<pdfrwt beam="1">  1        2 0.11895780E+00 0.16921193E+04</pdfrwt>
<pdfrwt beam="2">  1       -2 0.14242373E+00 0.16921193E+04</pdfrwt>
<totfact> 0.11779000E+01</totfact>
</mgrwt>
</event>
<event>
12    1  0.1755460E-007  0.1254384E+04  0.7818608E-02  0.9066542E-01
          1   -1    0    0  501    0  0.00000000000E+00  0.00000000000E+00  0.31636661447E+03  0.31636661447E+03  0.00000000000E+00 0. -1.
         -1   -1    0    0    0  501 -0.00000000000E+00 -0.00000000000E+00 -0.12433994859E+04  0.12433994859E+04  0.00000000000E+00 0.  1.
         23    2    1    2    0    0  0.24132130779E+03 -0.32788396442E+02 -0.44137945635E+03  0.51231225943E+03  0.91307032282E+02 0.  0.
        254    2    1    2    0    0 -0.24132130779E+03  0.32788396442E+02 -0.48565341512E+03  0.10474538410E+04  0.89553852894E+03 0.  0.
        -24    2    4    4    0    0  0.30485309326E+02  0.13265999262E+02 -0.69101490752E+03  0.69689093302E+03  0.83964452560E+02 0.  0.
         24    2    4    4    0    0 -0.27180661712E+03  0.19522397180E+02  0.20536149240E+03  0.35056290795E+03  0.80380649239E+02 0.  0.
         13    1    3    3    0    0  0.12267089336E+03  0.28272262639E+02 -0.19467201567E+03  0.23182895116E+03  0.00000000000E+00 0. -1.
        -13    1    3    3    0    0  0.11865041443E+03 -0.61060659081E+02 -0.24670744068E+03  0.28048330827E+03  0.00000000000E+00 0.  1.
          4    1    6    6  502    0 -0.40509087516E+02 -0.21410288435E+02  0.55358732268E+02  0.71860808933E+02  0.00000000000E+00 0. -1.
          1    1    5    5  503    0 -0.10915792019E+02 -0.27078545888E+02 -0.15147409755E+03  0.15426212883E+03  0.00000000000E+00 0. -1.
         -2    1    5    5    0  503  0.41401101345E+02  0.40344545151E+02 -0.53954080997E+03  0.54262880419E+03  0.00000000000E+00 0.  1.
         -3    1    6    6    0  502 -0.23129752960E+03  0.40932685615E+02  0.15000276013E+03  0.27870209902E+03  0.00000000000E+00 0.  1.
<mgrwt>
<rscale>  0 0.12543844E+04</rscale>
<asrwt>0</asrwt>
<pdfrwt beam="1">  1        1 0.48671786E-01 0.12543844E+04</pdfrwt>
<pdfrwt beam="2">  1       -1 0.19129223E+00 0.12543844E+04</pdfrwt>
<totfact> 0.13953231E+01</totfact>
</mgrwt>
</event>
<event>
12    1  0.1755460E-007  0.2081429E+04  0.7818608E-02  0.8569468E-01
          1   -1    0    0  501    0  0.00000000000E+00  0.00000000000E+00  0.41048571570E+04  0.41048571570E+04  0.00000000000E+00 0. -1.
         -1   -1    0    0    0  501 -0.00000000000E+00 -0.00000000000E+00 -0.26385500585E+03  0.26385500585E+03  0.00000000000E+00 0.  1.
         23    2    1    2    0    0 -0.36703737203E+03  0.34758008986E+03  0.29956161149E+04  0.30391975878E+04  0.86473804432E+02 0.  0.
        254    2    1    2    0    0  0.36703737203E+03 -0.34758008986E+03  0.84538603628E+03  0.13295145750E+04  0.89297430171E+03 0.  0.
        -24    2    4    4    0    0  0.34661113721E+03  0.18588648714E+03  0.63029814364E+03  0.74720866165E+03  0.79699232295E+02 0.  0.
         24    2    4    4    0    0  0.20426234823E+02 -0.53346657700E+03  0.21508789265E+03  0.58230591338E+03  0.88394317378E+02 0.  0.
         13    1    3    3    0    0 -0.32811648605E+03  0.33871860314E+03  0.26959441436E+04  0.27368787963E+04  0.00000000000E+00 0. -1.
        -13    1    3    3    0    0 -0.38920885984E+02  0.88614867295E+01  0.29967197130E+03  0.30231879150E+03  0.00000000000E+00 0.  1.
          2    1    6    6  502    0 -0.83685892681E+01 -0.13151991389E+03  0.15755825959E+02  0.13272440276E+03  0.00000000000E+00 0. -1.
          3    1    5    5  503    0  0.22328660655E+03  0.12377163252E+03  0.47603360665E+03  0.54017064002E+03  0.00000000000E+00 0. -1.
         -4    1    5    5    0  503  0.12332453066E+03  0.62114854618E+02  0.15426453699E+03  0.20703802163E+03  0.00000000000E+00 0.  1.
         -1    1    6    6    0  502  0.28794824091E+02 -0.40194666311E+03  0.19933206669E+03  0.44958151062E+03  0.00000000000E+00 0.  1.
<mgrwt>
<rscale>  0 0.20814294E+04</rscale>
<asrwt>0</asrwt>
<pdfrwt beam="1">  1        1 0.63151644E+00 0.20814294E+04</pdfrwt>
<pdfrwt beam="2">  1       -1 0.40593081E-01 0.20814294E+04</pdfrwt>
<totfact> 0.42576479E-01</totfact>
</mgrwt>
</event>
<event>
12    1  0.1755460E-007  0.1299334E+04  0.7818608E-02  0.9030094E-01
          2   -1    0    0  501    0  0.00000000000E+00  0.00000000000E+00  0.74812643711E+03  0.74812643711E+03  0.00000000000E+00 0. -1.
         -2   -1    0    0    0  501 -0.00000000000E+00 -0.00000000000E+00 -0.56416540949E+03  0.56416540949E+03  0.00000000000E+00 0.  1.
         23    2    1    2    0    0 -0.13186975414E+03 -0.27430449515E+03  0.17207275413E+03  0.36331551709E+03  0.98775220222E+02 0.  0.
        254    2    1    2    0    0  0.13186975414E+03  0.27430449515E+03  0.11888273489E+02  0.94897632951E+03  0.89876701921E+03 0.  0.
        -24    2    4    4    0    0 -0.35334422321E+03  0.15436308825E+03 -0.14370683114E+03  0.41935739106E+03  0.80801392540E+02 0.  0.
         24    2    4    4    0    0  0.48521397735E+03  0.11994140690E+03  0.15559510463E+03  0.52961893845E+03  0.80422872857E+02 0.  0.
         13    1    3    3    0    0 -0.70931724984E+01 -0.49231330841E+02  0.71315142947E+02  0.86947608627E+02  0.00000000000E+00 0. -1.
        -13    1    3    3    0    0 -0.12477658165E+03 -0.22507316430E+03  0.10075761118E+03  0.27636790846E+03  0.00000000000E+00 0.  1.
          2    1    6    6  502    0  0.22095447777E+03  0.31506742051E+02  0.10394906715E+03  0.24620918870E+03  0.00000000000E+00 0. -1.
          1    1    5    5  503    0 -0.11466135145E+02 -0.87288687317E+01 -0.10502062214E+02  0.17831396896E+02  0.00000000000E+00 0. -1.
         -2    1    5    5    0  503 -0.34187808806E+03  0.16309195698E+03 -0.13320476893E+03  0.40152599417E+03  0.00000000000E+00 0.  1.
         -1    1    6    6    0  502  0.26425949958E+03  0.88434664848E+02  0.51646037480E+02  0.28340974975E+03  0.00000000000E+00 0.  1.
<mgrwt>
<rscale>  0 0.12993338E+04</rscale>
<asrwt>0</asrwt>
<pdfrwt beam="1">  1        2 0.11509638E+00 0.12993338E+04</pdfrwt>
<pdfrwt beam="2">  1       -2 0.86794678E-01 0.12993338E+04</pdfrwt>
<totfact> 0.42380053E+01</totfact>
</mgrwt>
</event>
<event>
12    1  0.1755460E-007  0.2472790E+04  0.7818608E-02  0.8412744E-01
         -1   -1    0    0    0  501 -0.00000000000E+00  0.00000000000E+00  0.69913079346E+03  0.69913079346E+03  0.00000000000E+00 0.  1.
          1   -1    0    0  501    0  0.00000000000E+00 -0.00000000000E+00 -0.21865332726E+04  0.21865332726E+04  0.00000000000E+00 0. -1.
         23    2    1    2    0    0  0.13774293066E+02  0.82451919409E+03  0.15222906249E+03  0.84346259557E+03  0.90740454531E+02 0.  0.
        254    2    1    2    0    0 -0.13774293066E+02 -0.82451919409E+03 -0.16396315417E+04  0.20422014705E+04  0.89564145794E+03 0.  0.
        -24    2    4    4    0    0  0.87274512328E+02  0.22254461820E+02 -0.90718508247E+03  0.91520051595E+03  0.80592238910E+02 0.  0.
         24    2    4    4    0    0 -0.10104880539E+03 -0.84677365591E+03 -0.73244645921E+03  0.11270009546E+04  0.80105246943E+02 0.  0.
         13    1    3    3    0    0  0.18400738710E+02  0.43283115054E+03  0.35252530254E+02  0.43465403823E+03  0.00000000000E+00 0.  1.
        -13    1    3    3    0    0 -0.46264456438E+01  0.39168804356E+03  0.11697653223E+03  0.40880855734E+03  0.00000000000E+00 0. -1.
          2    1    6    6  502    0  0.47471527026E+01 -0.14997631278E+03 -0.15655728731E+03  0.21685390027E+03  0.00000000000E+00 0. -1.
          3    1    5    5  503    0  0.36991030870E+02 -0.28255526190E+02 -0.26329908996E+03  0.26738197751E+03  0.00000000000E+00 0. -1.
         -4    1    5    5    0  503  0.50283481458E+02  0.50509988011E+02 -0.64388599251E+03  0.64781853844E+03  0.00000000000E+00 0.  1.
         -1    1    6    6    0  502 -0.10579595810E+03 -0.69679734313E+03 -0.57588917191E+03  0.91014705431E+03  0.00000000000E+00 0.  1.
<mgrwt>
<rscale>  0 0.24727901E+04</rscale>
<asrwt>0</asrwt>
<pdfrwt beam="1">  1        1 0.33638973E+00 0.24727901E+04</pdfrwt>
<pdfrwt beam="2">  1       -1 0.10755858E+00 0.24727901E+04</pdfrwt>
<totfact> 0.15940318E+00</totfact>
</mgrwt>
</event>
<event>
12    1  0.1755460E-007  0.1744456E+04  0.7818608E-02  0.8736408E-01
         -2   -1    0    0    0  501 -0.00000000000E+00  0.00000000000E+00  0.33576205442E+03  0.33576205442E+03  0.00000000000E+00 0. -1.
          2   -1    0    0  501    0  0.00000000000E+00 -0.00000000000E+00 -0.22658357376E+04  0.22658357376E+04  0.00000000000E+00 0.  1.
         23    2    1    2    0    0  0.35934182603E+03 -0.11668374030E+03  0.58685222082E+02  0.39292244596E+03  0.90567378577E+02 0.  0.
        254    2    1    2    0    0 -0.35934182603E+03  0.11668374030E+03 -0.19887589053E+04  0.22086753461E+04  0.88337034016E+03 0.  0.
        -24    2    4    4    0    0 -0.16589098351E+03 -0.37012431041E+03 -0.10856167888E+04  0.11615776353E+04  0.78657276886E+02 0.  0.
         24    2    4    4    0    0 -0.19345084252E+03  0.48680805071E+03 -0.90314211648E+03  0.10470977108E+04  0.79640609002E+02 0.  0.
         13    1    3    3    0    0  0.32750219463E+03 -0.11195491301E+03  0.78799045311E+02  0.35496602595E+03  0.00000000000E+00 0. -1.
        -13    1    3    3    0    0  0.31839631402E+02 -0.47288272889E+01 -0.20113823229E+02  0.37956420013E+02  0.00000000000E+00 0.  1.
          4    1    6    6  502    0 -0.12908691288E+03  0.23966044027E+03 -0.41766215109E+03  0.49854009885E+03  0.00000000000E+00 0. -1.
          1    1    5    5  503    0 -0.12515791204E+03 -0.29203233916E+03 -0.92985756588E+03  0.98264056648E+03  0.00000000000E+00 0. -1.
         -2    1    5    5    0  503 -0.40733071476E+02 -0.78091971252E+02 -0.15575922294E+03  0.17893706887E+03  0.00000000000E+00 0.  1.
         -1    1    6    6    0  502 -0.64363929634E+02  0.24714761044E+03 -0.48547996539E+03  0.54855761191E+03  0.00000000000E+00 0.  1.
<mgrwt>
<rscale>  0 0.17444560E+04</rscale>
<asrwt>0</asrwt>
<pdfrwt beam="1">  1        2 0.34859012E+00 0.17444560E+04</pdfrwt>
<pdfrwt beam="2">  1       -2 0.51655700E-01 0.17444560E+04</pdfrwt>
<totfact> 0.15920696E+01</totfact>
</mgrwt>
</event>
<event>
12    1  0.2853984E-007  0.2326042E+04  0.7818608E-02  0.8467723E-01
          2   -1    0    0  501    0  0.00000000000E+00  0.00000000000E+00  0.16217359795E+04  0.16217359795E+04  0.00000000000E+00 0. -1.
         -2   -1    0    0    0  501 -0.00000000000E+00 -0.00000000000E+00 -0.83405584020E+03  0.83405584020E+03  0.00000000000E+00 0.  1.
         23    2    1    2    0    0  0.16829295720E+03 -0.13938858945E+03 -0.67844380196E+03  0.71851033902E+03  0.90660997983E+02 0.  0.
        254    2    1    2    0    0 -0.16829295720E+03  0.13938858945E+03  0.14661239413E+04  0.17372814807E+04  0.90602198298E+03 0.  0.
        -24    2    4    4    0    0 -0.15301930299E+03  0.47907257648E+03  0.51471196688E+03  0.72382930315E+03  0.77942354469E+02 0.  0.
         24    2    4    4    0    0 -0.15273654211E+02 -0.33968398703E+03  0.95141197438E+03  0.10134521775E+04  0.79259545712E+02 0.  0.
         11    1    3    3    0    0  0.16943374567E+03 -0.12822919787E+03 -0.67354959207E+03  0.70627160097E+03  0.00000000000E+00 0.  1.
        -11    1    3    3    0    0 -0.11407884712E+01 -0.11159391577E+02 -0.48942098897E+01  0.12238738054E+02  0.00000000000E+00 0. -1.
          4    1    6    6  502    0  0.11151610443E+02 -0.34671766418E+01  0.38736339719E+02  0.40458419942E+02  0.00000000000E+00 0. -1.
          3    1    5    5  503    0 -0.26413365104E+02  0.21216208697E+02  0.34920758089E+02  0.48654421311E+02  0.00000000000E+00 0. -1.
         -4    1    5    5    0  503 -0.12660593788E+03  0.45785636778E+03  0.47979120879E+03  0.67517488184E+03  0.00000000000E+00 0.  1.
         -3    1    6    6    0  502 -0.26425264654E+02 -0.33621681039E+03  0.91267563466E+03  0.97299375758E+03  0.00000000000E+00 0.  1.
<mgrwt>
<rscale>  0 0.23260424E+04</rscale>
<asrwt>0</asrwt>
<pdfrwt beam="1">  1        2 0.24949784E+00 0.23260424E+04</pdfrwt>
<pdfrwt beam="2">  1       -2 0.12831628E+00 0.23260424E+04</pdfrwt>
<totfact> 0.44042551E+00</totfact>
</mgrwt>
</event>
<event>
12    1  0.1755460E-007  0.1706315E+04  0.7818608E-02  0.8757771E-01
          2   -1    0    0  501    0  0.00000000000E+00  0.00000000000E+00  0.22805943132E+04  0.22805943132E+04  0.00000000000E+00 0. -1.
         -2   -1    0    0    0  501 -0.00000000000E+00 -0.00000000000E+00 -0.31916150628E+03  0.31916150628E+03  0.00000000000E+00 0.  1.
         23    2    1    2    0    0 -0.33659766410E+03  0.50075734642E+03  0.81501507162E+03  0.10182669420E+04  0.92531566008E+02 0.  0.
        254    2    1    2    0    0  0.33659766410E+03 -0.50075734642E+03  0.11464177353E+04  0.15814888775E+04  0.90707085630E+03 0.  0.
        -24    2    4    4    0    0  0.42168717160E+03  0.12039930976E+03  0.35382744967E+03  0.56780258871E+03  0.69927470459E+02 0.  0.
         24    2    4    4    0    0 -0.85089507504E+02 -0.62115665618E+03  0.79259028561E+03  0.10136862888E+04  0.79276196833E+02 0.  0.
         11    1    3    3    0    0 -0.17120392739E+02  0.48097480269E+02  0.11266862725E+03  0.12369597820E+03  0.00000000000E+00 0.  1.
        -11    1    3    3    0    0 -0.31947727136E+03  0.45265986615E+03  0.70234644437E+03  0.89457096379E+03  0.00000000000E+00 0. -1.
          2    1    6    6  502    0 -0.39840809936E+02 -0.39055260180E+03  0.43681316562E+03  0.58730261924E+03  0.00000000000E+00 0. -1.
          3    1    5    5  503    0  0.40584072571E+03  0.12245155043E+03  0.35326702576E+03  0.55181397983E+03  0.00000000000E+00 0. -1.
         -4    1    5    5    0  503  0.15846445888E+02 -0.20522406733E+01  0.56042391788E+00  0.15988608883E+02  0.00000000000E+00 0.  1.
         -1    1    6    6    0  502 -0.45248697568E+02 -0.23060405437E+03  0.35577711999E+03  0.42638366952E+03  0.00000000000E+00 0.  1.
<mgrwt>
<rscale>  0 0.17063152E+04</rscale>
<asrwt>0</asrwt>
<pdfrwt beam="1">  1        2 0.35086065E+00 0.17063152E+04</pdfrwt>
<pdfrwt beam="2">  1       -2 0.49101772E-01 0.17063152E+04</pdfrwt>
<totfact> 0.17379097E+01</totfact>
</mgrwt>
</event>
<event>
12    1  0.1755460E-007  0.1671956E+04  0.7818608E-02  0.8777522E-01
          2   -1    0    0  501    0  0.00000000000E+00  0.00000000000E+00  0.21889498517E+04  0.21889498517E+04  0.00000000000E+00 0. -1.
         -2   -1    0    0    0  501 -0.00000000000E+00 -0.00000000000E+00 -0.31926707115E+03  0.31926707115E+03  0.00000000000E+00 0.  1.
         23    2    1    2    0    0 -0.99097088463E+02  0.88639840560E+02  0.16149269304E+04  0.16228819841E+04  0.89887094148E+02 0.  0.
        254    2    1    2    0    0  0.99097088463E+02 -0.88639840560E+02  0.25475585012E+03  0.88533493866E+03  0.83740083363E+03 0.  0.
        -24    2    4    4    0    0 -0.18945543657E+03  0.29177287670E+03  0.16418642333E+03  0.39289326453E+03  0.79894691219E+02 0.  0.
         24    2    4    4    0    0  0.28855252503E+03 -0.38041271726E+03  0.90569426797E+02  0.49244167414E+03  0.79495825064E+02 0.  0.
         13    1    3    3    0    0 -0.82419359320E+02  0.84797785728E+02  0.15751096983E+04  0.15795423947E+04  0.00000000000E+00 0. -1.
        -13    1    3    3    0    0 -0.16677729144E+02  0.38420548322E+01  0.39817232125E+02  0.43339589393E+02  0.00000000000E+00 0.  1.
          4    1    6    6  502    0  0.13857848417E+03 -0.15432022820E+03  0.32857531007E+01  0.20743559309E+03  0.00000000000E+00 0. -1.
          3    1    5    5  503    0 -0.14669757198E+03  0.22268856569E+03  0.16118043626E+03  0.31159189326E+03  0.00000000000E+00 0. -1.
         -4    1    5    5    0  503 -0.42757864586E+02  0.69084311009E+02  0.30059870683E+01  0.81301371266E+02  0.00000000000E+00 0.  1.
         -3    1    6    6    0  502  0.14997404086E+03 -0.22609248905E+03  0.87283673696E+02  0.28500608104E+03  0.00000000000E+00 0.  1.
<mgrwt>
<rscale>  0 0.16719565E+04</rscale>
<asrwt>0</asrwt>
<pdfrwt beam="1">  1        2 0.33676151E+00 0.16719565E+04</pdfrwt>
<pdfrwt beam="2">  1       -2 0.49118012E-01 0.16719565E+04</pdfrwt>
<totfact> 0.19613508E+01</totfact>
</mgrwt>
</event>
<event>
12    1  0.1755460E-007  0.3425112E+04  0.7818608E-02  0.8131770E-01
         -1   -1    0    0    0  501 -0.00000000000E+00  0.00000000000E+00  0.13712428943E+04  0.13712428943E+04  0.00000000000E+00 0.  1.
          1   -1    0    0  501    0  0.00000000000E+00 -0.00000000000E+00 -0.21388246384E+04  0.21388246384E+04  0.00000000000E+00 0. -1.
         23    2    1    2    0    0  0.87784475513E+03 -0.11664992403E+03  0.99956269868E+03  0.13374748903E+04  0.74127422061E+02 0.  0.
        254    2    1    2    0    0 -0.87784475513E+03  0.11664992403E+03 -0.17671444428E+04  0.21725926424E+04  0.90174313937E+03 0.  0.
        -24    2    4    4    0    0 -0.10489237131E+04  0.50233061105E+02 -0.13727274018E+04  0.17304401283E+04  0.85312377592E+02 0.  0.
         24    2    4    4    0    0  0.17107895795E+03  0.66416862927E+02 -0.39441704103E+03  0.44215251414E+03  0.79087508347E+02 0.  0.
         13    1    3    3    0    0  0.31566645950E+03 -0.76166784694E+01  0.37040076383E+03  0.48672379569E+03  0.00000000000E+00 0.  1.
        -13    1    3    3    0    0  0.56217829563E+03 -0.10903324556E+03  0.62916193485E+03  0.85075109461E+03  0.00000000000E+00 0. -1.
          2    1    6    6  502    0 -0.51959678915E+00 -0.11217259360E+02 -0.17404731196E+02  0.20712835546E+02  0.00000000000E+00 0. -1.
          1    1    5    5  503    0 -0.13160755937E+03 -0.59511848982E+01 -0.13289140220E+03  0.18712586957E+03  0.00000000000E+00 0. -1.
         -2    1    5    5    0  503 -0.91731615371E+03  0.56184246003E+02 -0.12398359996E+04  0.15433142587E+04  0.00000000000E+00 0.  1.
         -1    1    6    6    0  502  0.17159855474E+03  0.77634122287E+02 -0.37701230983E+03  0.42143967860E+03  0.00000000000E+00 0.  1.
<mgrwt>
<rscale>  0 0.34251120E+04</rscale>
<asrwt>0</asrwt>
<pdfrwt beam="1">  1        1 0.32904994E+00 0.34251120E+04</pdfrwt>
<pdfrwt beam="2">  1       -1 0.21096045E+00 0.34251120E+04</pdfrwt>
<totfact> 0.24933710E-01</totfact>
</mgrwt>
</event>
<event>
12    1  0.1755460E-007  0.1287122E+04  0.7818608E-02  0.9039840E-01
         -2   -1    0    0    0  501 -0.00000000000E+00  0.00000000000E+00  0.69250340804E+03  0.69250340804E+03  0.00000000000E+00 0.  1.
          2   -1    0    0  501    0  0.00000000000E+00 -0.00000000000E+00 -0.59807781986E+03  0.59807781986E+03  0.00000000000E+00 0. -1.
         23    2    1    2    0    0 -0.37695820284E+02  0.11116578755E+02  0.34071316378E+03  0.35516003969E+03  0.92242293038E+02 0.  0.
        254    2    1    2    0    0  0.37695820284E+02 -0.11116578755E+02 -0.24628757560E+03  0.93542118821E+03  0.90156013458E+03 0.  0.
        -24    2    4    4    0    0  0.89084895432E+02  0.27544756092E+03  0.22561431286E+03  0.37568278235E+03  0.80176414056E+02 0.  0.
         24    2    4    4    0    0 -0.51389075148E+02 -0.28656413968E+03 -0.47190188847E+03  0.55973840587E+03  0.76523509271E+02 0.  0.
         13    1    3    3    0    0  0.13072556554E+01 -0.28360114033E+02  0.22548072843E+03  0.22726100386E+03  0.00000000000E+00 0.  1.
        -13    1    3    3    0    0 -0.39003075940E+02  0.39476692788E+02  0.11523243536E+03  0.12789903582E+03  0.00000000000E+00 0. -1.
          2    1    6    6  502    0 -0.21807159311E+02 -0.25147002541E+03 -0.36909376809E+03  0.44714979092E+03  0.00000000000E+00 0. -1.
          3    1    5    5  503    0  0.25470203591E+02  0.10720490833E+03  0.40023089406E+02  0.11723255234E+03  0.00000000000E+00 0. -1.
         -4    1    5    5    0  503  0.63614691841E+02  0.16824265259E+03  0.18559122346E+03  0.25845023001E+03  0.00000000000E+00 0.  1.
         -1    1    6    6    0  502 -0.29581915836E+02 -0.35094114272E+02 -0.10280812037E+03  0.11258861495E+03  0.00000000000E+00 0.  1.
<mgrwt>
<rscale>  0 0.12871223E+04</rscale>
<asrwt>0</asrwt>
<pdfrwt beam="1">  1        2 0.92011973E-01 0.12871223E+04</pdfrwt>
<pdfrwt beam="2">  1       -2 0.10653899E+00 0.12871223E+04</pdfrwt>
<totfact> 0.34673890E+01</totfact>
</mgrwt>
</event>
<event>
12    1  0.1755460E-007  0.2017890E+04  0.7818608E-02  0.8598302E-01
          1   -1    0    0  501    0  0.00000000000E+00  0.00000000000E+00  0.14383012409E+04  0.14383012409E+04  0.00000000000E+00 0. -1.
         -1   -1    0    0    0  501 -0.00000000000E+00 -0.00000000000E+00 -0.70775873570E+03  0.70775873570E+03  0.00000000000E+00 0.  1.
         23    2    1    2    0    0  0.31020456854E+03 -0.39630861725E+03  0.96102307624E+03  0.10888779972E+04  0.93821880545E+02 0.  0.
        254    2    1    2    0    0 -0.31020456854E+03  0.39630861725E+03 -0.23048057105E+03  0.10571819794E+04  0.90068032590E+03 0.  0.
        -24    2    4    4    0    0 -0.48398958162E+03  0.13603687272E+03 -0.43964130006E+03  0.67259566135E+03  0.79677506783E+02 0.  0.
         24    2    4    4    0    0  0.17378501308E+03  0.26027174453E+03  0.20916072901E+03  0.38458631804E+03  0.78840431851E+02 0.  0.
         13    1    3    3    0    0  0.33869447199E+02 -0.30770961635E+02  0.15599912774E+03  0.16257219747E+03  0.00000000000E+00 0. -1.
        -13    1    3    3    0    0  0.27633512134E+03 -0.36553765561E+03  0.80502394850E+03  0.92630579973E+03  0.00000000000E+00 0.  1.
          4    1    6    6  502    0  0.16565062726E+03  0.24264767862E+03  0.16645517301E+03  0.33767639964E+03  0.00000000000E+00 0. -1.
          3    1    5    5  503    0 -0.87228712446E+02  0.20250488958E+02 -0.41445779173E+02  0.98674632958E+02  0.00000000000E+00 0. -1.
         -4    1    5    5    0  503 -0.39676086917E+03  0.11578638376E+03 -0.39819552089E+03  0.57392102839E+03  0.00000000000E+00 0.  1.
         -3    1    6    6    0  502  0.81343858219E+01  0.17624065914E+02  0.42705555994E+02  0.46909918406E+02  0.00000000000E+00 0.  1.
<mgrwt>
<rscale>  0 0.20178903E+04</rscale>
<asrwt>0</asrwt>
<pdfrwt beam="1">  1        1 0.22127711E+00 0.20178903E+04</pdfrwt>
<pdfrwt beam="2">  1       -1 0.10888596E+00 0.20178903E+04</pdfrwt>
<totfact> 0.52294712E+00</totfact>
</mgrwt>
</event>
<event>
12    1  0.1755460E-007  0.1437643E+04  0.7818608E-02  0.8927013E-01
         -2   -1    0    0    0  501 -0.00000000000E+00  0.00000000000E+00  0.92327017939E+03  0.92327017939E+03  0.00000000000E+00 0.  1.
          2   -1    0    0  501    0  0.00000000000E+00 -0.00000000000E+00 -0.55964569029E+03  0.55964569029E+03  0.00000000000E+00 0. -1.
         23    2    1    2    0    0  0.37032931970E+03 -0.17821205580E+03  0.19907800842E+03  0.46536228095E+03  0.89591613644E+02 0.  0.
        254    2    1    2    0    0 -0.37032931970E+03  0.17821205580E+03  0.16454648068E+03  0.10175535887E+04  0.91620762918E+03 0.  0.
        -24    2    4    4    0    0 -0.57645746038E+02  0.51933405867E+03  0.30438180731E+02  0.52927277766E+03  0.78563947194E+02 0.  0.
         24    2    4    4    0    0 -0.31268357366E+03 -0.34112200287E+03  0.13410829995E+03  0.48828081106E+03  0.79359159885E+02 0.  0.
         11    1    3    3    0    0  0.28556382218E+03 -0.97735871130E+02  0.12315184264E+03  0.32598370111E+03  0.00000000000E+00 0.  1.
        -11    1    3    3    0    0  0.84765497518E+02 -0.80476184673E+02  0.75926165778E+02  0.13937857984E+03  0.00000000000E+00 0. -1.
          4    1    6    6  502    0 -0.21883860349E+03 -0.23532224422E+03  0.13042292166E+03  0.34680979152E+03  0.00000000000E+00 0. -1.
          1    1    5    5  503    0 -0.51882502330E+02  0.33689886597E+03 -0.14914398911E+02  0.34119654048E+03  0.00000000000E+00 0. -1.
         -2    1    5    5    0  503 -0.57632437088E+01  0.18243519270E+03  0.45352579642E+02  0.18807623719E+03  0.00000000000E+00 0.  1.
         -3    1    6    6    0  502 -0.93844970167E+02 -0.10579975865E+03  0.36853782921E+01  0.14147101954E+03  0.00000000000E+00 0.  1.
<mgrwt>
<rscale>  0 0.14376428E+04</rscale>
<asrwt>0</asrwt>
<pdfrwt beam="1">  1        2 0.86099337E-01 0.14376428E+04</pdfrwt>
<pdfrwt beam="2">  1       -2 0.14204157E+00 0.14376428E+04</pdfrwt>
<totfact> 0.18090816E+01</totfact>
</mgrwt>
</event>
<event>
12    1  0.1755460E-007  0.3458022E+04  0.7818608E-02  0.8123811E-01
         -2   -1    0    0    0  501 -0.00000000000E+00  0.00000000000E+00  0.11681105434E+04  0.11681105434E+04  0.00000000000E+00 0.  1.
          2   -1    0    0  501    0  0.00000000000E+00 -0.00000000000E+00 -0.25592427451E+04  0.25592427451E+04  0.00000000000E+00 0. -1.
         23    2    1    2    0    0  0.74902708826E+03 -0.32329630771E+03 -0.21498915107E+04  0.23012671353E+04  0.90746011897E+02 0.  0.
        254    2    1    2    0    0 -0.74902708826E+03  0.32329630771E+03  0.75875930900E+03  0.14260861532E+04  0.89019320709E+03 0.  0.
        -24    2    4    4    0    0 -0.56854524114E+03 -0.22328490808E+03  0.48587145200E+03  0.78463778179E+03  0.80532846374E+02 0.  0.
         24    2    4    4    0    0 -0.18048184712E+03  0.54658121579E+03  0.27288785700E+03  0.64144837145E+03  0.75256283102E+02 0.  0.
         13    1    3    3    0    0  0.41249034151E+03 -0.19060096040E+03 -0.10733888668E+04  0.11656074242E+04  0.00000000000E+00 0. -1.
        -13    1    3    3    0    0  0.33653674675E+03 -0.13269534731E+03 -0.10765026439E+04  0.11356597111E+04  0.00000000000E+00 0.  1.
          2    1    6    6  502    0 -0.14515922297E+03  0.32330562104E+03  0.17098307968E+03  0.39348816774E+03  0.00000000000E+00 0. -1.
          3    1    5    5  503    0 -0.10019881582E+03 -0.71863995685E+02  0.11128032604E+03  0.16609499550E+03  0.00000000000E+00 0. -1.
         -4    1    5    5    0  503 -0.46834642532E+03 -0.15142091239E+03  0.37459112596E+03  0.61854278629E+03  0.00000000000E+00 0.  1.
         -1    1    6    6    0  502 -0.35322624150E+02  0.22327559475E+03  0.10190477731E+03  0.24796020371E+03  0.00000000000E+00 0.  1.
<mgrwt>
<rscale>  0 0.34580217E+04</rscale>
<asrwt>0</asrwt>
<pdfrwt beam="1">  1        2 0.39372965E+00 0.34580217E+04</pdfrwt>
<pdfrwt beam="2">  1       -2 0.17970932E+00 0.34580217E+04</pdfrwt>
<totfact> 0.48286608E-01</totfact>
</mgrwt>
</event>
<event>
12    1  0.1755460E-007  0.1573341E+04  0.7818608E-02  0.8837095E-01
          2   -1    0    0  501    0  0.00000000000E+00  0.00000000000E+00  0.69038542996E+03  0.69038542996E+03  0.00000000000E+00 0. -1.
         -2   -1    0    0    0  501 -0.00000000000E+00 -0.00000000000E+00 -0.89638405306E+03  0.89638405306E+03  0.00000000000E+00 0.  1.
         23    2    1    2    0    0  0.43725438802E+03 -0.21294164631E+03  0.16304861468E+03  0.52035331371E+03  0.87448131856E+02 0.  0.
        254    2    1    2    0    0 -0.43725438802E+03  0.21294164631E+03 -0.36904723779E+03  0.10664161693E+04  0.87436379036E+03 0.  0.
        -24    2    4    4    0    0 -0.22505985159E+03  0.35643644780E+02  0.27113152239E+03  0.36443368705E+03  0.85890649182E+02 0.  0.
         24    2    4    4    0    0 -0.21219453643E+03  0.17729800153E+03 -0.64017876017E+03  0.70198248226E+03  0.80557170920E+02 0.  0.
         13    1    3    3    0    0  0.11252881127E+03 -0.30707838437E+02  0.77480042451E+01  0.11690054011E+03  0.00000000000E+00 0.  1.
        -13    1    3    3    0    0  0.32472557674E+03 -0.18223380787E+03  0.15530061044E+03  0.40345277360E+03  0.00000000000E+00 0. -1.
          2    1    6    6  502    0 -0.14297009448E+03  0.13907534983E+03 -0.36833543918E+03  0.41887157531E+03  0.00000000000E+00 0. -1.
          1    1    5    5  503    0 -0.21542039133E+03  0.32585289909E+02  0.27725132681E+03  0.35261316529E+03  0.00000000000E+00 0. -1.
         -2    1    5    5    0  503 -0.96394602597E+01  0.30583548716E+01 -0.61198044208E+01  0.11820521764E+02  0.00000000000E+00 0.  1.
         -1    1    6    6    0  502 -0.69224441949E+02  0.38222651697E+02 -0.27184332099E+03  0.28311090695E+03  0.00000000000E+00 0.  1.
<mgrwt>
<rscale>  0 0.15733410E+04</rscale>
<asrwt>0</asrwt>
<pdfrwt beam="1">  1        2 0.10621314E+00 0.15733410E+04</pdfrwt>
<pdfrwt beam="2">  1       -2 0.13790524E+00 0.15733410E+04</pdfrwt>
<totfact> 0.14957675E+01</totfact>
</mgrwt>
</event>
<event>
12    1  0.1755460E-007  0.3624071E+04  0.7818608E-02  0.8085000E-01
          1   -1    0    0  501    0  0.00000000000E+00  0.00000000000E+00  0.21303514719E+04  0.21303514719E+04  0.00000000000E+00 0. -1.
         -1   -1    0    0    0  501 -0.00000000000E+00 -0.00000000000E+00 -0.15412818671E+04  0.15412818671E+04  0.00000000000E+00 0.  1.
         23    2    1    2    0    0  0.11956548893E+04  0.12079568279E+03 -0.95101665992E+03  0.15353251985E+04  0.92782359894E+02 0.  0.
        254    2    1    2    0    0 -0.11956548893E+04 -0.12079568279E+03  0.15400862648E+04  0.21363081405E+04  0.86473380696E+03 0.  0.
        -24    2    4    4    0    0 -0.71218404106E+03  0.32372696029E+03  0.10553992142E+04  0.13162603034E+04  0.81660466327E+02 0.  0.
         24    2    4    4    0    0 -0.48347084824E+03 -0.44452264307E+03  0.48468705058E+03  0.82004783712E+03  0.78819267078E+02 0.  0.
         13    1    3    3    0    0  0.11798807065E+04  0.11478281642E+03 -0.94860927352E+03  0.15182730750E+04  0.00000000000E+00 0.  1.
        -13    1    3    3    0    0  0.15774182773E+02  0.60128663628E+01 -0.24073864015E+01  0.17052123426E+02  0.00000000000E+00 0. -1.
          2    1    6    6  502    0 -0.72106355473E+02 -0.10867827286E+03  0.93855461283E+02  0.16068335665E+03  0.00000000000E+00 0. -1.
          3    1    5    5  503    0 -0.56090226125E+02  0.18279514156E+02  0.11871412711E+03  0.13256431677E+03  0.00000000000E+00 0. -1.
         -4    1    5    5    0  503 -0.65609381494E+03  0.30544744613E+03  0.93668508708E+03  0.11836959866E+04  0.00000000000E+00 0.  1.
         -1    1    6    6    0  502 -0.41136449277E+03 -0.33584437021E+03  0.39083158930E+03  0.65936448047E+03  0.00000000000E+00 0.  1.
<mgrwt>
<rscale>  0 0.36240707E+04</rscale>
<asrwt>0</asrwt>
<pdfrwt beam="1">  1        1 0.32774638E+00 0.36240707E+04</pdfrwt>
<pdfrwt beam="2">  1       -1 0.23712029E+00 0.36240707E+04</pdfrwt>
<totfact> 0.16618971E-01</totfact>
</mgrwt>
</event>
<event>
12    1  0.1755460E-007  0.1165929E+04  0.7818608E-02  0.9143213E-01
          4   -1    0    0  501    0  0.00000000000E+00  0.00000000000E+00  0.12941002585E+04  0.12941002585E+04  0.00000000000E+00 0.  1.
         -4   -1    0    0    0  501 -0.00000000000E+00 -0.00000000000E+00 -0.26261289937E+03  0.26261289937E+03  0.00000000000E+00 0. -1.
         23    2    1    2    0    0 -0.17352853251E+03 -0.13258605731E+03  0.14324725351E+03  0.27677792583E+03  0.91624398506E+02 0.  0.
        254    2    1    2    0    0  0.17352853251E+03  0.13258605731E+03  0.88824010565E+03  0.12799352321E+04  0.89530581302E+03 0.  0.
        -24    2    4    4    0    0  0.40755347049E+03 -0.19048260651E+03  0.68958352115E+03  0.82718122965E+03  0.79497794624E+02 0.  0.
         24    2    4    4    0    0 -0.23402493798E+03  0.32306866382E+03  0.19865658450E+03  0.45275400242E+03  0.79879377844E+02 0.  0.
         11    1    3    3    0    0 -0.11531178328E+03 -0.77643404320E+02  0.37194066434E+02  0.14390519162E+03  0.00000000000E+00 0. -1.
        -11    1    3    3    0    0 -0.58216749235E+02 -0.54942652990E+02  0.10605318707E+03  0.13287273421E+03  0.00000000000E+00 0.  1.
          4    1    6    6  502    0 -0.11045896150E+03  0.12442507661E+03  0.43286373345E+02  0.17192001623E+03  0.00000000000E+00 0. -1.
          1    1    5    5  503    0  0.25469861137E+02 -0.41856491019E+01  0.79699103768E+02  0.83774582220E+02  0.00000000000E+00 0. -1.
         -2    1    5    5    0  503  0.38208360935E+03 -0.18629695741E+03  0.60988441738E+03  0.74340664743E+03  0.00000000000E+00 0.  1.
         -3    1    6    6    0  502 -0.12356597648E+03  0.19864358721E+03  0.15537021115E+03  0.28083398619E+03  0.00000000000E+00 0.  1.
<mgrwt>
<rscale>  0 0.11659287E+04</rscale>
<asrwt>0</asrwt>
<pdfrwt beam="1">  1        4 0.19909234E+00 0.11659287E+04</pdfrwt>
<pdfrwt beam="2">  1       -4 0.40401985E-01 0.11659287E+04</pdfrwt>
<totfact> 0.15753077E+00</totfact>
</mgrwt>
</event>
<event>
12    1  0.1755460E-007  0.2054615E+04  0.7818608E-02  0.8581504E-01
          1   -1    0    0  501    0  0.00000000000E+00  0.00000000000E+00  0.32246151523E+04  0.32246151523E+04  0.00000000000E+00 0. -1.
         -1   -1    0    0    0  501 -0.00000000000E+00 -0.00000000000E+00 -0.32728270204E+03  0.32728270204E+03  0.00000000000E+00 0.  1.
         23    2    1    2    0    0  0.66427291039E+03  0.48822923027E+03  0.10146213496E+04  0.13104291999E+04  0.90232610438E+02 0.  0.
        254    2    1    2    0    0 -0.66427291039E+03 -0.48822923027E+03  0.18827111007E+04  0.22414686545E+04  0.89440167696E+03 0.  0.
        -24    2    4    4    0    0  0.19239831258E+02 -0.21939196533E+03  0.12408155993E+04  0.12627795892E+04  0.80535296715E+02 0.  0.
         24    2    4    4    0    0 -0.68351274165E+03 -0.26883726493E+03  0.64189550142E+03  0.97868906529E+03  0.79619776215E+02 0.  0.
         11    1    3    3    0    0  0.12113367491E+03  0.13071027994E+03  0.19429293116E+03  0.26364424435E+03  0.00000000000E+00 0. -1.
        -11    1    3    3    0    0  0.54313923548E+03  0.35751895033E+03  0.82032841847E+03  0.10467849555E+04  0.00000000000E+00 0.  1.
          4    1    6    6  502    0 -0.46546447758E+02 -0.34468694866E+02  0.72264295869E+02  0.92610966857E+02  0.00000000000E+00 0. -1.
          3    1    5    5  503    0  0.32783628943E+02 -0.87454661672E+02  0.35457439492E+03  0.36666890475E+03  0.00000000000E+00 0. -1.
         -4    1    5    5    0  503 -0.13543797685E+02 -0.13193730366E+03  0.88624120434E+03  0.89611068447E+03  0.00000000000E+00 0.  1.
         -3    1    6    6    0  502 -0.63696629389E+03 -0.23436857007E+03  0.56963120555E+03  0.88607809843E+03  0.00000000000E+00 0.  1.
<mgrwt>
<rscale>  0 0.20546151E+04</rscale>
<asrwt>0</asrwt>
<pdfrwt beam="1">  1        1 0.49609462E+00 0.20546151E+04</pdfrwt>
<pdfrwt beam="2">  1       -1 0.50351187E-01 0.20546151E+04</pdfrwt>
<totfact> 0.14933064E+00</totfact>
</mgrwt>
</event>
<event>
12    1  0.1755460E-007  0.1702234E+04  0.7818608E-02  0.8760091E-01
         -1   -1    0    0    0  501 -0.00000000000E+00  0.00000000000E+00  0.58801449843E+03  0.58801449843E+03  0.00000000000E+00 0.  1.
          1   -1    0    0  501    0  0.00000000000E+00 -0.00000000000E+00 -0.12319429978E+04  0.12319429978E+04  0.00000000000E+00 0. -1.
         23    2    1    2    0    0 -0.23453179998E+03  0.54778901651E+03 -0.37378442143E+03  0.70930219378E+03  0.91196691761E+02 0.  0.
        254    2    1    2    0    0  0.23453179998E+03 -0.54778901651E+03 -0.27014407798E+03  0.11106553025E+04  0.89749618732E+03 0.  0.
        -24    2    4    4    0    0  0.79355635143E+02  0.20462017606E+03 -0.24410285016E+03  0.33784451504E+03  0.79912337002E+02 0.  0.
         24    2    4    4    0    0  0.15517616483E+03 -0.75240919257E+03 -0.26041227821E+02  0.77281078745E+03  0.79744168742E+02 0.  0.
         13    1    3    3    0    0 -0.22146802574E+03  0.50792720971E+03 -0.31595314018E+03  0.63785932899E+03  0.00000000000E+00 0.  1.
        -13    1    3    3    0    0 -0.13063774239E+02  0.39861806803E+02 -0.57831281250E+02  0.71442864794E+02  0.00000000000E+00 0. -1.
          4    1    6    6  502    0  0.13418338748E+03 -0.57474674888E+03  0.10143274779E+02  0.59028966859E+03  0.00000000000E+00 0. -1.
          1    1    5    5  503    0  0.41538747129E+02  0.16074383249E+03 -0.21873890029E+03  0.27461018499E+03  0.00000000000E+00 0. -1.
         -2    1    5    5    0  503  0.37816888014E+02  0.43876343568E+02 -0.25363949863E+02  0.63234330048E+02  0.00000000000E+00 0.  1.
         -3    1    6    6    0  502  0.20992777359E+02 -0.17766244369E+03 -0.36184502600E+02  0.18252111886E+03  0.00000000000E+00 0.  1.
<mgrwt>
<rscale>  0 0.17022342E+04</rscale>
<asrwt>0</asrwt>
<pdfrwt beam="1">  1        1 0.18952969E+00 0.17022342E+04</pdfrwt>
<pdfrwt beam="2">  1       -1 0.90463769E-01 0.17022342E+04</pdfrwt>
<totfact> 0.11508776E+01</totfact>
</mgrwt>
</event>
<event>
12    1  0.1786616E-007  0.2295336E+04  0.7818608E-02  0.8479763E-01
          2   -1    0    0  501    0  0.00000000000E+00  0.00000000000E+00  0.12508454076E+04  0.12508454076E+04  0.00000000000E+00 0.  1.
         -2   -1    0    0    0  501 -0.00000000000E+00 -0.00000000000E+00 -0.10530008600E+04  0.10530008600E+04  0.00000000000E+00 0. -1.
         23    2    1    2    0    0 -0.53861074709E+02 -0.10412909840E+03 -0.88094408800E+03  0.89692215172E+03  0.12109077409E+03 0.  0.
        254    2    1    2    0    0  0.53861074709E+02  0.10412909840E+03  0.10787886356E+04  0.14069241158E+04  0.89549241362E+03 0.  0.
        -24    2    4    4    0    0 -0.86657629832E+02 -0.28054381054E+03  0.90482738146E+03  0.95455513149E+03  0.79047671513E+02 0.  0.
         24    2    4    4    0    0  0.14051870454E+03  0.38467290894E+03  0.17396125413E+03  0.45236898431E+03  0.81586928102E+02 0.  0.
         13    1    3    3    0    0 -0.51295571717E+02 -0.11562401612E+03 -0.49854012558E+03  0.51433686004E+03  0.00000000000E+00 0.  1.
        -13    1    3    3    0    0 -0.25655029915E+01  0.11494917723E+02 -0.38240396242E+03  0.38258529168E+03  0.00000000000E+00 0. -1.
          4    1    6    6  502    0  0.90658018634E+02  0.30399136397E+03  0.10167561171E+03  0.33311793066E+03  0.00000000000E+00 0. -1.
          3    1    5    5  503    0 -0.68321888501E+02 -0.24939227825E+03  0.85325455340E+03  0.89157597646E+03  0.00000000000E+00 0. -1.
         -4    1    5    5    0  503 -0.18335741331E+02 -0.31151532292E+02  0.51572828055E+02  0.62979155027E+02  0.00000000000E+00 0.  1.
         -3    1    6    6    0  502  0.49860685907E+02  0.80681544960E+02  0.72285642423E+02  0.11925105365E+03  0.00000000000E+00 0.  1.
<mgrwt>
<rscale>  0 0.22953355E+04</rscale>
<asrwt>0</asrwt>
<pdfrwt beam="1">  1        2 0.19243775E+00 0.22953355E+04</pdfrwt>
<pdfrwt beam="2">  1       -2 0.16200013E+00 0.22953355E+04</pdfrwt>
<totfact> 0.39018343E+00</totfact>
</mgrwt>
</event>
<event>
12    1  0.1755460E-007  0.1319267E+04  0.7818608E-02  0.9014424E-01
         -1   -1    0    0    0  501 -0.00000000000E+00  0.00000000000E+00  0.22522091134E+03  0.22522091134E+03  0.00000000000E+00 0.  1.
          1   -1    0    0  501    0  0.00000000000E+00 -0.00000000000E+00 -0.19319535378E+04  0.19319535378E+04  0.00000000000E+00 0. -1.
         23    2    1    2    0    0  0.18106715941E+03 -0.23813057836E+03 -0.76992295100E+03  0.83094807251E+03  0.90564121830E+02 0.  0.
        254    2    1    2    0    0 -0.18106715941E+03  0.23813057836E+03 -0.93680967549E+03  0.13262263767E+04  0.88981601778E+03 0.  0.
        -24    2    4    4    0    0 -0.41110899841E+03 -0.46134616340E+02 -0.13534842847E+03  0.44206490690E+03  0.77221586488E+02 0.  0.
         24    2    4    4    0    0  0.23004183900E+03  0.28426519470E+03 -0.80146124702E+03  0.88416146977E+03  0.75335420240E+02 0.  0.
         13    1    3    3    0    0  0.13058092333E+03 -0.18516331229E+03 -0.66872444934E+03  0.70606601596E+03  0.00000000000E+00 0. -1.
        -13    1    3    3    0    0  0.50486236083E+02 -0.52967266068E+02 -0.10119850167E+03  0.12488205655E+03  0.00000000000E+00 0.  1.
          4    1    6    6  502    0  0.20761463476E+03  0.21019326497E+03 -0.61528007055E+03  0.68253542796E+03  0.00000000000E+00 0. -1.
          3    1    5    5  503    0 -0.27165614451E+03 -0.10947012808E+02 -0.12080557117E+03  0.29750778807E+03  0.00000000000E+00 0. -1.
         -4    1    5    5    0  503 -0.13945285390E+03 -0.35187603532E+02 -0.14542857303E+02  0.14455711882E+03  0.00000000000E+00 0.  1.
         -3    1    6    6    0  502  0.22427204239E+02  0.74071929729E+02 -0.18618117647E+03  0.20162604181E+03  0.00000000000E+00 0.  1.
<mgrwt>
<rscale>  0 0.13192670E+04</rscale>
<asrwt>0</asrwt>
<pdfrwt beam="1">  1        1 0.29722361E+00 0.13192670E+04</pdfrwt>
<pdfrwt beam="2">  1       -1 0.34649373E-01 0.13192670E+04</pdfrwt>
<totfact> 0.25716644E+01</totfact>
</mgrwt>
</event>
<event>
12    1  0.1755460E-007  0.1569524E+04  0.7818608E-02  0.8839492E-01
          1   -1    0    0  501    0  0.00000000000E+00  0.00000000000E+00  0.38551866992E+03  0.38551866992E+03  0.00000000000E+00 0. -1.
         -1   -1    0    0    0  501 -0.00000000000E+00 -0.00000000000E+00 -0.15974619645E+04  0.15974619645E+04  0.00000000000E+00 0.  1.
         23    2    1    2    0    0 -0.22528467979E+03 -0.22467215849E+03  0.89848770657E+02  0.34310541243E+03  0.91748333507E+02 0.  0.
        254    2    1    2    0    0  0.22528467979E+03  0.22467215849E+03 -0.13017920652E+04  0.16398752220E+04  0.94514411430E+03 0.  0.
        -24    2    4    4    0    0  0.22269621779E+03  0.58171320219E+03 -0.88356363185E+03  0.10841154348E+04  0.81472262325E+02 0.  0.
         24    2    4    4    0    0  0.25884620065E+01 -0.35704104370E+03 -0.41822843338E+03  0.55575978713E+03  0.80429543539E+02 0.  0.
         13    1    3    3    0    0 -0.34141024376E+02 -0.21514723702E+02 -0.17807868813E+02  0.44109104197E+02  0.00000000000E+00 0.  1.
        -13    1    3    3    0    0 -0.19114365542E+03 -0.20315743479E+03  0.10765663947E+03  0.29899630823E+03  0.00000000000E+00 0. -1.
          4    1    6    6  502    0  0.10600012221E+02 -0.22532219981E+03 -0.31879850618E+03  0.39053161399E+03  0.00000000000E+00 0. -1.
          1    1    5    5  503    0  0.13247248650E+03  0.39773464857E+03 -0.53366371627E+03  0.67863007037E+03  0.00000000000E+00 0. -1.
         -2    1    5    5    0  503  0.90223731290E+02  0.18397855362E+03 -0.34989991558E+03  0.40548536447E+03  0.00000000000E+00 0.  1.
         -3    1    6    6    0  502 -0.80115502149E+01 -0.13171884389E+03 -0.99429927203E+02  0.16522817313E+03  0.00000000000E+00 0.  1.
<mgrwt>
<rscale>  0 0.15695240E+04</rscale>
<asrwt>0</asrwt>
<pdfrwt beam="1">  1        1 0.59310563E-01 0.15695240E+04</pdfrwt>
<pdfrwt beam="2">  1       -1 0.24576338E+00 0.15695240E+04</pdfrwt>
<totfact> 0.45064059E+00</totfact>
</mgrwt>
</event>
<event>
12    1  0.1755460E-007  0.2261755E+04  0.7818608E-02  0.8493155E-01
         -1   -1    0    0    0  501 -0.00000000000E+00  0.00000000000E+00  0.60707112529E+03  0.60707112529E+03  0.00000000000E+00 0.  1.
          1   -1    0    0  501    0  0.00000000000E+00 -0.00000000000E+00 -0.21066454454E+04  0.21066454454E+04  0.00000000000E+00 0. -1.
         23    2    1    2    0    0 -0.32629124597E+03  0.59162454187E+03 -0.14314554768E+04  0.15854813133E+04  0.90557367875E+02 0.  0.
        254    2    1    2    0    0  0.32629124597E+03 -0.59162454187E+03 -0.68118843248E+02  0.11282352574E+04  0.90099336482E+03 0.  0.
        -24    2    4    4    0    0 -0.72897867928E+02  0.57088647584E+02  0.26653441406E+03  0.29245213489E+03  0.76905425655E+02 0.  0.
         24    2    4    4    0    0  0.39918911390E+03 -0.64871318945E+03 -0.33465325731E+03  0.83578312248E+03  0.79748820587E+02 0.  0.
         11    1    3    3    0    0 -0.22249045849E+02  0.99493156227E+01 -0.68912297209E+02  0.73095236706E+02  0.00000000000E+00 0.  1.
        -11    1    3    3    0    0 -0.30404220012E+03  0.58167522624E+03 -0.13625431796E+04  0.15123860766E+04  0.00000000000E+00 0. -1.
          2    1    6    6  502    0  0.64747738520E+02 -0.16550551375E+03 -0.65289853511E+02  0.18933332960E+03  0.00000000000E+00 0. -1.
          3    1    5    5  503    0  0.53326447124E+01  0.30917777155E+02  0.36815188538E+02  0.48370488430E+02  0.00000000000E+00 0. -1.
         -4    1    5    5    0  503 -0.78230512641E+02  0.26170870428E+02  0.22971922552E+03  0.24408164646E+03  0.00000000000E+00 0.  1.
         -1    1    6    6    0  502  0.33444137538E+03 -0.48320767570E+03 -0.26936340379E+03  0.64644979288E+03  0.00000000000E+00 0.  1.
<mgrwt>
<rscale>  0 0.22617547E+04</rscale>
<asrwt>0</asrwt>
<pdfrwt beam="1">  1        1 0.32409930E+00 0.22617547E+04</pdfrwt>
<pdfrwt beam="2">  1       -1 0.93395557E-01 0.22617547E+04</pdfrwt>
<totfact> 0.25439011E+00</totfact>
</mgrwt>
</event>
<event>
12    1  0.1755460E-007  0.1357205E+04  0.7818608E-02  0.8985392E-01
          2   -1    0    0  501    0  0.00000000000E+00  0.00000000000E+00  0.11746121581E+04  0.11746121581E+04  0.00000000000E+00 0. -1.
         -2   -1    0    0    0  501 -0.00000000000E+00 -0.00000000000E+00 -0.39204548171E+03  0.39204548171E+03  0.00000000000E+00 0.  1.
         23    2    1    2    0    0 -0.38229229809E+02  0.31833625849E+03  0.70053763806E+00  0.33327672640E+03  0.90958441764E+02 0.  0.
        254    2    1    2    0    0  0.38229229809E+02 -0.31833625849E+03  0.78186613871E+03  0.12333809134E+04  0.89839544250E+03 0.  0.
        -24    2    4    4    0    0 -0.14937551198E+03 -0.51310534583E+03  0.18018413574E+03  0.56952109991E+03  0.79358811508E+02 0.  0.
         24    2    4    4    0    0  0.18760474179E+03  0.19476908734E+03  0.60168200297E+03  0.66385981345E+03  0.74552549887E+02 0.  0.
         13    1    3    3    0    0 -0.43846022312E+02  0.57621279723E+02  0.34192357416E+01  0.72487079694E+02  0.00000000000E+00 0. -1.
        -13    1    3    3    0    0  0.56167925030E+01  0.26071497876E+03 -0.27186981036E+01  0.26078964671E+03  0.00000000000E+00 0.  1.
          2    1    6    6  502    0  0.16108902631E+03  0.12071249770E+03  0.41332273274E+03  0.45973564458E+03  0.00000000000E+00 0. -1.
          3    1    5    5  503    0 -0.11266029589E+03 -0.33157830902E+03  0.15367872104E+03  0.38243125733E+03  0.00000000000E+00 0. -1.
         -4    1    5    5    0  503 -0.36715216093E+02 -0.18152703681E+03  0.26505414699E+02  0.18708984258E+03  0.00000000000E+00 0.  1.
         -1    1    6    6    0  502  0.26515715485E+02  0.74056589645E+02  0.18835927023E+03  0.20412416887E+03  0.00000000000E+00 0.  1.
<mgrwt>
<rscale>  0 0.13572051E+04</rscale>
<asrwt>0</asrwt>
<pdfrwt beam="1">  1        2 0.18070956E+00 0.13572051E+04</pdfrwt>
<pdfrwt beam="2">  1       -2 0.60314690E-01 0.13572051E+04</pdfrwt>
<totfact> 0.49057492E+01</totfact>
</mgrwt>
</event>
<event>
12    1  0.1766781E-007  0.2255094E+04  0.7818608E-02  0.8495841E-01
         -1   -1    0    0    0  501 -0.00000000000E+00  0.00000000000E+00  0.79261792603E+03  0.79261792603E+03  0.00000000000E+00 0.  1.
          1   -1    0    0  501    0  0.00000000000E+00 -0.00000000000E+00 -0.16040033430E+04  0.16040033430E+04  0.00000000000E+00 0. -1.
         23    2    1    2    0    0  0.27944872812E+03  0.23667062787E+03  0.59280470460E+03  0.70560887734E+03  0.11118404671E+03 0.  0.
        254    2    1    2    0    0 -0.27944872812E+03 -0.23667062787E+03 -0.14041901216E+04  0.16910123917E+04  0.86814079135E+03 0.  0.
        -24    2    4    4    0    0 -0.22686948917E+03 -0.12840907285E+02 -0.14263906565E+04  0.14466617560E+04  0.81272856233E+02 0.  0.
         24    2    4    4    0    0 -0.52579238948E+02 -0.22382972059E+03  0.22200534923E+02  0.24435063575E+03  0.79687196287E+02 0.  0.
         13    1    3    3    0    0  0.21093136005E+03  0.18853470003E+03  0.53055189205E+03  0.60126756268E+03  0.00000000000E+00 0.  1.
        -13    1    3    3    0    0  0.68517368062E+02  0.48135927845E+02  0.62252812550E+02  0.10434131466E+03  0.00000000000E+00 0. -1.
          2    1    6    6  502    0 -0.47412800312E+02 -0.20293911392E+03  0.44777718871E+02  0.21316027233E+03  0.00000000000E+00 0. -1.
          1    1    5    5  503    0 -0.22664224038E+03 -0.16588012644E+02 -0.12664408927E+04  0.12866679455E+04  0.00000000000E+00 0. -1.
         -2    1    5    5    0  503 -0.22724878883E+00  0.37471053589E+01 -0.15994976384E+03  0.15999381048E+03  0.00000000000E+00 0.  1.
         -1    1    6    6    0  502 -0.51664386355E+01 -0.20890606669E+02 -0.22577183948E+02  0.31190363419E+02  0.00000000000E+00 0.  1.
<mgrwt>
<rscale>  0 0.22550936E+04</rscale>
<asrwt>0</asrwt>
<pdfrwt beam="1">  1        1 0.24676974E+00 0.22550936E+04</pdfrwt>
<pdfrwt beam="2">  1       -1 0.12194122E+00 0.22550936E+04</pdfrwt>
<totfact> 0.29940714E+00</totfact>
</mgrwt>
</event>
<event>
12    1  0.1755460E-007  0.1933507E+04  0.7818608E-02  0.8638355E-01
         -2   -1    0    0    0  501 -0.00000000000E+00  0.00000000000E+00  0.29293411415E+03  0.29293411415E+03  0.00000000000E+00 0. -1.
          2   -1    0    0  501    0  0.00000000000E+00 -0.00000000000E+00 -0.31905200741E+04  0.31905200741E+04  0.00000000000E+00 0.  1.
         23    2    1    2    0    0 -0.29989706085E+03 -0.27327935344E+03 -0.22918350428E+04  0.23295112379E+04  0.97441735969E+02 0.  0.
        254    2    1    2    0    0  0.29989706085E+03  0.27327935344E+03 -0.60575091719E+03  0.11539429504E+04  0.89444413295E+03 0.  0.
        -24    2    4    4    0    0  0.16097056511E+03 -0.14031009535E+03  0.15288197135E+03  0.27473259106E+03  0.80663831651E+02 0.  0.
         24    2    4    4    0    0  0.13892649574E+03  0.41358944879E+03 -0.75863288854E+03  0.87921035934E+03  0.84440470332E+02 0.  0.
         11    1    3    3    0    0 -0.24565823110E+02 -0.14605141750E+02 -0.35683225254E+03  0.35797492410E+03  0.00000000000E+00 0. -1.
        -11    1    3    3    0    0 -0.27533123774E+03 -0.25867421169E+03 -0.19350027903E+04  0.19715363138E+04  0.00000000000E+00 0.  1.
          4    1    6    6  502    0  0.73153866240E+02  0.30577622275E+03 -0.58981714321E+03  0.66838226261E+03  0.00000000000E+00 0. -1.
          3    1    5    5  503    0  0.14060645729E+03 -0.74047658205E+02  0.10433303100E+03  0.19010158567E+03  0.00000000000E+00 0. -1.
         -2    1    5    5    0  503  0.20364107819E+02 -0.66262437143E+02  0.48548940346E+02  0.84631005382E+02  0.00000000000E+00 0.  1.
         -3    1    6    6    0  502  0.65772629504E+02  0.10781322604E+03 -0.16881574533E+03  0.21082809674E+03  0.00000000000E+00 0.  1.
<mgrwt>
<rscale>  0 0.19335068E+04</rscale>
<asrwt>0</asrwt>
<pdfrwt beam="1">  1        2 0.49084920E+00 0.19335068E+04</pdfrwt>
<pdfrwt beam="2">  1       -2 0.45066791E-01 0.19335068E+04</pdfrwt>
<totfact> 0.57598573E+00</totfact>
</mgrwt>
</event>
<event>
12    1  0.1755460E-007  0.1502415E+04  0.7818608E-02  0.8882849E-01
          1   -1    0    0  501    0  0.00000000000E+00  0.00000000000E+00  0.59620388248E+03  0.59620388248E+03  0.00000000000E+00 0. -1.
         -1   -1    0    0    0  501 -0.00000000000E+00 -0.00000000000E+00 -0.94650904835E+03  0.94650904835E+03  0.00000000000E+00 0.  1.
         23    2    1    2    0    0 -0.14030495310E+02  0.39914769301E+03  0.15097334646E+03  0.43871480671E+03  0.10080671926E+03 0.  0.
        254    2    1    2    0    0  0.14030495310E+02 -0.39914769301E+03 -0.50127851233E+03  0.11039981241E+04  0.89889708838E+03 0.  0.
        -24    2    4    4    0    0 -0.43167063930E+03 -0.20802518415E+03 -0.19135871758E+03  0.52179730477E+03  0.77719047866E+02 0.  0.
         24    2    4    4    0    0  0.44570113461E+03 -0.19112250886E+03 -0.30991979475E+03  0.58220081935E+03  0.87921556453E+02 0.  0.
         11    1    3    3    0    0 -0.34038895301E+02  0.35480995381E+03  0.10450514958E+03  0.37144323390E+03  0.00000000000E+00 0. -1.
        -11    1    3    3    0    0  0.20008399991E+02  0.44337739200E+02  0.46468196877E+02  0.67271572812E+02  0.00000000000E+00 0.  1.
          4    1    6    6  502    0  0.49741736705E+02 -0.20336561742E+02 -0.48064488065E+01  0.53952924518E+02  0.00000000000E+00 0. -1.
          3    1    5    5  503    0 -0.71179673944E+02 -0.94295421737E+01 -0.46168316363E+02  0.85363784383E+02  0.00000000000E+00 0. -1.
         -4    1    5    5    0  503 -0.36049096535E+03 -0.19859564198E+03 -0.14519040121E+03  0.43643352039E+03  0.00000000000E+00 0.  1.
         -3    1    6    6    0  502  0.39595939790E+03 -0.17078594712E+03 -0.30511334594E+03  0.52824789483E+03  0.00000000000E+00 0.  1.
<mgrwt>
<rscale>  0 0.15024145E+04</rscale>
<asrwt>0</asrwt>
<pdfrwt beam="1">  1        1 0.91723674E-01 0.15024145E+04</pdfrwt>
<pdfrwt beam="2">  1       -1 0.14561678E+00 0.15024145E+04</pdfrwt>
<totfact> 0.12630658E+01</totfact>
</mgrwt>
</event>
<event>
12    1  0.1755460E-007  0.1430860E+04  0.7818608E-02  0.8931779E-01
         -1   -1    0    0    0  501 -0.00000000000E+00  0.00000000000E+00  0.13170258502E+04  0.13170258502E+04  0.00000000000E+00 0.  1.
          1   -1    0    0  501    0  0.00000000000E+00 -0.00000000000E+00 -0.38863328563E+03  0.38863328563E+03  0.00000000000E+00 0. -1.
         23    2    1    2    0    0  0.11580259449E+03  0.33353277919E+03  0.57303009664E+03  0.67919063552E+03  0.91005890122E+02 0.  0.
        254    2    1    2    0    0 -0.11580259449E+03 -0.33353277919E+03  0.35536246796E+03  0.10264685003E+04  0.89593568009E+03 0.  0.
        -24    2    4    4    0    0  0.70522365689E+02  0.12498993303E+02  0.56360718409E+03  0.57384854777E+03  0.80743228316E+02 0.  0.
         24    2    4    4    0    0 -0.18632496018E+03 -0.34603177250E+03 -0.20824471614E+03  0.45261995256E+03  0.83928429615E+02 0.  0.
         13    1    3    3    0    0  0.12222049467E+03  0.23631162737E+03  0.39497602717E+03  0.47622168849E+03  0.00000000000E+00 0. -1.
        -13    1    3    3    0    0 -0.64179001809E+01  0.97221151824E+02  0.17805406947E+03  0.20296894703E+03  0.00000000000E+00 0.  1.
          2    1    6    6  502    0 -0.18944671575E+03 -0.34297373950E+03 -0.19302127239E+03  0.43678170256E+03  0.00000000000E+00 0. -1.
          1    1    5    5  503    0  0.85511949601E+02  0.23884151942E+02  0.48081554607E+03  0.48894410272E+03  0.00000000000E+00 0. -1.
         -2    1    5    5    0  503 -0.14989583912E+02 -0.11385158639E+02  0.82791638020E+02  0.84904445049E+02  0.00000000000E+00 0.  1.
         -1    1    6    6    0  502  0.31217555686E+01 -0.30580329917E+01 -0.15223443749E+02  0.15838250004E+02  0.00000000000E+00 0.  1.
<mgrwt>
<rscale>  0 0.14308600E+04</rscale>
<asrwt>0</asrwt>
<pdfrwt beam="1">  1        1 0.59789737E-01 0.14308600E+04</pdfrwt>
<pdfrwt beam="2">  1       -1 0.20261936E+00 0.14308600E+04</pdfrwt>
<totfact> 0.87551266E+00</totfact>
</mgrwt>
</event>
<event>
12    1  0.1755460E-007  0.2255220E+04  0.7818608E-02  0.8495790E-01
          2   -1    0    0  501    0  0.00000000000E+00  0.00000000000E+00  0.15076342397E+04  0.15076342397E+04  0.00000000000E+00 0. -1.
         -2   -1    0    0    0  501 -0.00000000000E+00 -0.00000000000E+00 -0.84337699602E+03  0.84337699602E+03  0.00000000000E+00 0.  1.
         23    2    1    2    0    0 -0.17271126160E+03  0.23444172398E+02  0.12437070365E+04  0.12592606423E+04  0.92473583068E+02 0.  0.
        254    2    1    2    0    0  0.17271126160E+03 -0.23444172398E+02 -0.57944979285E+03  0.10917505934E+04  0.90872354795E+03 0.  0.
        -24    2    4    4    0    0  0.27325341211E+03 -0.34390525984E+03 -0.37022175500E+02  0.44894686917E+03  0.85114011088E+02 0.  0.
         24    2    4    4    0    0 -0.10054215051E+03  0.32046108744E+03 -0.54242761735E+03  0.64280372420E+03  0.78516719212E+02 0.  0.
         13    1    3    3    0    0 -0.35479296696E+02 -0.65275846147E+01  0.88878555057E+02  0.95920735005E+02  0.00000000000E+00 0.  1.
        -13    1    3    3    0    0 -0.13723196490E+03  0.29971757013E+02  0.11548284814E+04  0.11633399073E+04  0.00000000000E+00 0. -1.
          4    1    6    6  502    0 -0.74207479103E+02  0.28309408571E+03 -0.41819638932E+03  0.51042847820E+03  0.00000000000E+00 0. -1.
          1    1    5    5  503    0  0.16328895632E+03 -0.25809490248E+03 -0.32307299624E+01  0.30542871436E+03  0.00000000000E+00 0. -1.
         -2    1    5    5    0  503  0.10996445579E+03 -0.85810357361E+02 -0.33791445538E+02  0.14351815481E+03  0.00000000000E+00 0.  1.
         -3    1    6    6    0  502 -0.26334671409E+02  0.37367001724E+02 -0.12423122803E+03  0.13237524600E+03  0.00000000000E+00 0.  1.
<mgrwt>
<rscale>  0 0.22552198E+04</rscale>
<asrwt>0</asrwt>
<pdfrwt beam="1">  1        2 0.23194373E+00 0.22552198E+04</pdfrwt>
<pdfrwt beam="2">  1       -2 0.12975031E+00 0.22552198E+04</pdfrwt>
<totfact> 0.49919364E+00</totfact>
</mgrwt>
</event>
<event>
12    1  0.1755460E-007  0.3426741E+04  0.7818608E-02  0.8131374E-01
         -2   -1    0    0    0  501 -0.00000000000E+00  0.00000000000E+00  0.79471781251E+03  0.79471781251E+03  0.00000000000E+00 0.  1.
          2   -1    0    0  501    0  0.00000000000E+00 -0.00000000000E+00 -0.36939380462E+04  0.36939380462E+04  0.00000000000E+00 0. -1.
         23    2    1    2    0    0  0.12341106465E+04 -0.95877805614E+03 -0.94313029453E+03  0.18276836003E+04  0.92995385320E+02 0.  0.
        254    2    1    2    0    0 -0.12341106465E+04  0.95877805614E+03 -0.19560899392E+04  0.26609722584E+04  0.90122198209E+03 0.  0.
        -24    2    4    4    0    0 -0.98862624766E+03  0.51549509976E+03 -0.18101522673E+04  0.21274163269E+04  0.78306717789E+02 0.  0.
         24    2    4    4    0    0 -0.24548439885E+03  0.44328295638E+03 -0.14593767190E+03  0.53355593143E+03  0.81374187513E+02 0.  0.
         13    1    3    3    0    0  0.58489932599E+03 -0.42810265796E+03 -0.38896775888E+03  0.82260259222E+03  0.00000000000E+00 0. -1.
        -13    1    3    3    0    0  0.64921132053E+03 -0.53067539818E+03 -0.55416253566E+03  0.10050810081E+04  0.00000000000E+00 0.  1.
          2    1    6    6  502    0 -0.14292609999E+03  0.33417311168E+03 -0.10176780087E+03  0.37743373448E+03  0.00000000000E+00 0. -1.
          1    1    5    5  503    0 -0.73907174482E+03  0.39104530327E+03 -0.12913773579E+04  0.15384404290E+04  0.00000000000E+00 0. -1.
         -2    1    5    5    0  503 -0.24955450285E+03  0.12444979649E+03 -0.51877490940E+03  0.58897589794E+03  0.00000000000E+00 0.  1.
         -1    1    6    6    0  502 -0.10255829886E+03  0.10910984469E+03 -0.44169871029E+02  0.15612219695E+03  0.00000000000E+00 0.  1.
<mgrwt>
<rscale>  0 0.34267409E+04</rscale>
<asrwt>0</asrwt>
<pdfrwt beam="1">  1        2 0.56829816E+00 0.34267409E+04</pdfrwt>
<pdfrwt beam="2">  1       -2 0.12226428E+00 0.34267409E+04</pdfrwt>
<totfact> 0.24661009E-01</totfact>
</mgrwt>
</event>
<event>
12    1  0.1755460E-007  0.1281525E+04  0.7818608E-02  0.9044346E-01
         -2   -1    0    0    0  501 -0.00000000000E+00  0.00000000000E+00  0.30368836103E+04  0.30368836103E+04  0.00000000000E+00 0.  1.
          2   -1    0    0  501    0  0.00000000000E+00 -0.00000000000E+00 -0.13519671521E+03  0.13519671521E+03  0.00000000000E+00 0. -1.
         23    2    1    2    0    0  0.34704525644E+03  0.22236231883E+02  0.76384967988E+03  0.84425624824E+03  0.91473598438E+02 0.  0.
        254    2    1    2    0    0 -0.34704525644E+03 -0.22236231883E+02  0.21378372153E+04  0.23278240773E+04  0.85292562163E+03 0.  0.
        -24    2    4    4    0    0 -0.39378093867E+03 -0.28167945677E+03  0.64901793494E+03  0.81369440492E+03  0.80421145883E+02 0.  0.
         24    2    4    4    0    0  0.46735682229E+02  0.25944322489E+03  0.14888192803E+04  0.15141296724E+04  0.80689556189E+02 0.  0.
         11    1    3    3    0    0  0.30919407807E+03  0.67513369431E+01  0.72339461080E+03  0.78673141630E+03  0.00000000000E+00 0.  1.
        -11    1    3    3    0    0  0.37851178363E+02  0.15484894939E+02  0.40455069086E+02  0.57524831938E+02  0.00000000000E+00 0. -1.
          2    1    6    6  502    0 -0.22061275832E+02  0.76596944167E+02  0.38676837100E+03  0.39489690370E+03  0.00000000000E+00 0. -1.
          3    1    5    5  503    0 -0.77951336616E+01 -0.65005669326E+01  0.43641047274E+02  0.44805830942E+02  0.00000000000E+00 0. -1.
         -4    1    5    5    0  503 -0.38598580500E+03 -0.27517888984E+03  0.60537688766E+03  0.76888857398E+03  0.00000000000E+00 0.  1.
         -1    1    6    6    0  502  0.68796958061E+02  0.18284628072E+03  0.11020509093E+04  0.11192327687E+04  0.00000000000E+00 0.  1.
<mgrwt>
<rscale>  0 0.12815252E+04</rscale>
<asrwt>0</asrwt>
<pdfrwt beam="1">  1        2 0.20799497E-01 0.12815252E+04</pdfrwt>
<pdfrwt beam="2">  1       -2 0.46721281E+00 0.12815252E+04</pdfrwt>
<totfact> 0.72363383E-01</totfact>
</mgrwt>
</event>
<event>
12    1  0.1755460E-007  0.1429386E+04  0.7818608E-02  0.8932818E-01
         -2   -1    0    0    0  501 -0.00000000000E+00  0.00000000000E+00  0.25365841390E+03  0.25365841390E+03  0.00000000000E+00 0.  1.
          2   -1    0    0  501    0  0.00000000000E+00 -0.00000000000E+00 -0.20136776834E+04  0.20136776834E+04  0.00000000000E+00 0. -1.
         23    2    1    2    0    0 -0.16136670454E+02 -0.36655750002E+03 -0.19410182907E+03  0.42504237944E+03  0.91436925339E+02 0.  0.
        254    2    1    2    0    0  0.16136670454E+02  0.36655750002E+03 -0.15659174405E+04  0.18422937179E+04  0.89851205872E+03 0.  0.
        -24    2    4    4    0    0  0.38392247234E+03  0.43755992708E+03 -0.94929824902E+03  0.11164515359E+04  0.80260276370E+02 0.  0.
         24    2    4    4    0    0 -0.36778580189E+03 -0.71002427059E+02 -0.61661919144E+03  0.72584218194E+03  0.79497830854E+02 0.  0.
         11    1    3    3    0    0 -0.14094044282E+02 -0.37731360999E+02  0.50681959068E+01  0.40595372850E+02  0.00000000000E+00 0. -1.
        -11    1    3    3    0    0 -0.20426261725E+01 -0.32882613902E+03 -0.19917002498E+03  0.38444700659E+03  0.00000000000E+00 0.  1.
          2    1    6    6  502    0 -0.65393771792E+02 -0.31287017021E+02 -0.17219923426E+03  0.18683628958E+03  0.00000000000E+00 0. -1.
          1    1    5    5  503    0  0.16599907828E+02  0.11358565573E+01 -0.35814265414E+02  0.39490615559E+02  0.00000000000E+00 0. -1.
         -2    1    5    5    0  503  0.36732256451E+03  0.43642407052E+03 -0.91348398360E+03  0.10769609204E+04  0.00000000000E+00 0.  1.
         -1    1    6    6    0  502 -0.30239203010E+03 -0.39715410037E+02 -0.44441995718E+03  0.53900589236E+03  0.00000000000E+00 0.  1.
<mgrwt>
<rscale>  0 0.14293863E+04</rscale>
<asrwt>0</asrwt>
<pdfrwt beam="1">  1        2 0.30979657E+00 0.14293863E+04</pdfrwt>
<pdfrwt beam="2">  1       -2 0.39024371E-01 0.14293863E+04</pdfrwt>
<totfact> 0.39600485E+01</totfact>
</mgrwt>
</event>
<event>
12    1  0.1755460E-007  0.1201816E+04  0.7818608E-02  0.9111268E-01
         -1   -1    0    0    0  501 -0.00000000000E+00  0.00000000000E+00  0.37812333453E+03  0.37812333453E+03  0.00000000000E+00 0.  1.
          1   -1    0    0  501    0  0.00000000000E+00 -0.00000000000E+00 -0.95495438088E+03  0.95495438088E+03  0.00000000000E+00 0. -1.
         23    2    1    2    0    0  0.13933907660E+03 -0.15108237247E+03  0.34434466791E+02  0.22763742591E+03  0.91606788137E+02 0.  0.
        254    2    1    2    0    0 -0.13933907660E+03  0.15108237247E+03 -0.61126551314E+03  0.11054402895E+04  0.89783709243E+03 0.  0.
        -24    2    4    4    0    0 -0.49933570029E+03  0.14188143050E+03 -0.48214396417E+03  0.71293156077E+03  0.79637467612E+02 0.  0.
         24    2    4    4    0    0  0.35999662369E+03  0.92009419689E+01 -0.12912154898E+03  0.39250872873E+03  0.87798071274E+02 0.  0.
         11    1    3    3    0    0  0.14803209686E+03 -0.12640815900E+03  0.44371292407E+02  0.19965303893E+03  0.00000000000E+00 0.  1.
        -11    1    3    3    0    0 -0.86930202591E+01 -0.24674213466E+02 -0.99368256162E+01  0.27984386982E+02  0.00000000000E+00 0. -1.
          4    1    6    6  502    0  0.35903366808E+03  0.20008642695E+02 -0.12296977725E+03  0.38003563874E+03  0.00000000000E+00 0. -1.
          3    1    5    5  503    0 -0.47115221673E+03  0.13787424303E+03 -0.47603799205E+03  0.68381714522E+03  0.00000000000E+00 0. -1.
         -4    1    5    5    0  503 -0.28183483563E+02  0.40071874718E+01 -0.61059721148E+01  0.29114415547E+02  0.00000000000E+00 0.  1.
         -3    1    6    6    0  502  0.96295560797E+00 -0.10807700726E+02 -0.61517717215E+01  0.12473089986E+02  0.00000000000E+00 0.  1.
<mgrwt>
<rscale>  0 0.12018162E+04</rscale>
<asrwt>0</asrwt>
<pdfrwt beam="1">  1        1 0.14691606E+00 0.12018162E+04</pdfrwt>
<pdfrwt beam="2">  1       -1 0.58172820E-01 0.12018162E+04</pdfrwt>
<totfact> 0.48660761E+01</totfact>
</mgrwt>
</event>
<event>
12    1  0.1755460E-007  0.1277188E+04  0.7818608E-02  0.9047854E-01
          2   -1    0    0  501    0  0.00000000000E+00  0.00000000000E+00  0.99339214757E+03  0.99339214757E+03  0.00000000000E+00 0. -1.
         -2   -1    0    0    0  501 -0.00000000000E+00 -0.00000000000E+00 -0.41051465313E+03  0.41051465313E+03  0.00000000000E+00 0.  1.
         23    2    1    2    0    0  0.79845232995E+02 -0.71046426465E+02  0.46109968375E+03  0.48248568459E+03  0.93577035305E+02 0.  0.
        254    2    1    2    0    0 -0.79845232995E+02  0.71046426465E+02  0.12177781069E+03  0.92142111612E+03  0.90706349397E+03 0.  0.
        -24    2    4    4    0    0 -0.11361571578E+03  0.43339702477E+03  0.25986994390E+03  0.52405957985E+03  0.79778089331E+02 0.  0.
         24    2    4    4    0    0  0.33770482785E+02 -0.36235059831E+03 -0.13809213321E+03  0.39736153626E+03  0.79927164624E+02 0.  0.
         11    1    3    3    0    0  0.42835462407E+02 -0.86955971671E+01  0.32816000371E+03  0.33105811919E+03  0.00000000000E+00 0. -1.
        -11    1    3    3    0    0  0.37009770587E+02 -0.62350829298E+02  0.13293968004E+03  0.15142756540E+03  0.00000000000E+00 0.  1.
          4    1    6    6  502    0  0.33385300365E+02 -0.25843679671E+03 -0.60074524915E+02  0.26741934245E+03  0.00000000000E+00 0. -1.
          1    1    5    5  503    0 -0.49188447122E+02  0.11894227553E+03  0.39243514496E+02  0.13456159062E+03  0.00000000000E+00 0. -1.
         -2    1    5    5    0  503 -0.64427268657E+02  0.31445474924E+03  0.22062642941E+03  0.38949798924E+03  0.00000000000E+00 0.  1.
         -3    1    6    6    0  502  0.38518241939E+00 -0.10391380160E+03 -0.78017608295E+02  0.12994219381E+03  0.00000000000E+00 0.  1.
<mgrwt>
<rscale>  0 0.12771876E+04</rscale>
<asrwt>0</asrwt>
<pdfrwt beam="1">  1        2 0.15282956E+00 0.12771876E+04</pdfrwt>
<pdfrwt beam="2">  1       -2 0.63156101E-01 0.12771876E+04</pdfrwt>
<totfact> 0.57999272E+01</totfact>
</mgrwt>
</event>
<event>
12    1  0.1755460E-007  0.3000827E+04  0.7818608E-02  0.8243495E-01
          2   -1    0    0  501    0  0.00000000000E+00  0.00000000000E+00  0.51727448822E+04  0.51727448822E+04  0.00000000000E+00 0. -1.
         -2   -1    0    0    0  501 -0.00000000000E+00 -0.00000000000E+00 -0.43521189668E+03  0.43521189668E+03  0.00000000000E+00 0.  1.
         23    2    1    2    0    0 -0.33324136912E+03 -0.12304699197E+04  0.30232329783E+04  0.32822887626E+04  0.91519652656E+02 0.  0.
        254    2    1    2    0    0  0.33324136912E+03  0.12304699197E+04  0.17143000072E+04  0.23256680163E+04  0.91913066185E+03 0.  0.
        -24    2    4    4    0    0 -0.36797605441E+02  0.10070836740E+04  0.15615534572E+04  0.18602848273E+04  0.81479130095E+02 0.  0.
         24    2    4    4    0    0  0.37003897456E+03  0.22338624573E+03  0.15274655001E+03  0.46538318897E+03  0.80123320973E+02 0.  0.
         11    1    3    3    0    0 -0.93567395997E+02 -0.32589317898E+03  0.91071495012E+03  0.97178338228E+03  0.00000000000E+00 0.  1.
        -11    1    3    3    0    0 -0.23967397312E+03 -0.90457674074E+03  0.21125180281E+04  0.23105053803E+04  0.00000000000E+00 0. -1.
          4    1    6    6  502    0  0.72243833964E+02  0.30188838062E+02 -0.15766990370E+01  0.78313622501E+02  0.00000000000E+00 0. -1.
          1    1    5    5  503    0 -0.52497427908E+02  0.79201575540E+03  0.11829125331E+04  0.14245444878E+04  0.00000000000E+00 0. -1.
         -4    1    5    5    0  503  0.15699822468E+02  0.21506791860E+03  0.37864092408E+03  0.43574033945E+03  0.00000000000E+00 0.  1.
         -3    1    6    6    0  502  0.29779514059E+03  0.19319740766E+03  0.15432324905E+03  0.38706956647E+03  0.00000000000E+00 0.  1.
<mgrwt>
<rscale>  0 0.30008266E+04</rscale>
<asrwt>0</asrwt>
<pdfrwt beam="1">  1        2 0.79580686E+00 0.30008266E+04</pdfrwt>
<pdfrwt beam="2">  1       -2 0.66955680E-01 0.30008266E+04</pdfrwt>
<totfact> 0.35340136E-02</totfact>
</mgrwt>
</event>
<event>
12    1  0.1755460E-007  0.2355509E+04  0.7818608E-02  0.8456351E-01
         -2   -1    0    0    0  501 -0.00000000000E+00  0.00000000000E+00  0.12205221930E+04  0.12205221930E+04  0.00000000000E+00 0.  1.
          2   -1    0    0  501    0  0.00000000000E+00 -0.00000000000E+00 -0.11364857159E+04  0.11364857159E+04  0.00000000000E+00 0. -1.
         23    2    1    2    0    0 -0.91047123575E+03 -0.26433697491E+03 -0.27473263643E+03  0.99120418214E+03  0.90420140163E+02 0.  0.
        254    2    1    2    0    0  0.91047123575E+03  0.26433697491E+03  0.35876911350E+03  0.13658037268E+04  0.91535383097E+03 0.  0.
        -24    2    4    4    0    0  0.42763869209E+03 -0.27841397288E+03 -0.65524551893E+02  0.52074165605E+03  0.80555658864E+02 0.  0.
         24    2    4    4    0    0  0.48283254366E+03  0.54275094779E+03  0.42429366539E+03  0.84506207074E+03  0.79993327010E+02 0.  0.
         13    1    3    3    0    0 -0.26304616793E+03 -0.76636835777E+02 -0.12261667629E+03  0.30016885309E+03  0.00000000000E+00 0. -1.
        -13    1    3    3    0    0 -0.64742506782E+03 -0.18770013913E+03 -0.15211596014E+03  0.69103532905E+03  0.00000000000E+00 0.  1.
          2    1    6    6  502    0  0.47716509759E+03  0.54523967907E+03  0.41946733063E+03  0.83721304305E+03  0.00000000000E+00 0. -1.
          3    1    5    5  503    0  0.33780084305E+03 -0.18021036559E+03 -0.59936343805E+02  0.38752748385E+03  0.00000000000E+00 0. -1.
         -4    1    5    5    0  503  0.89837849047E+02 -0.98203607285E+02 -0.55882080879E+01  0.13321417220E+03  0.00000000000E+00 0.  1.
         -1    1    6    6    0  502  0.56674460630E+01 -0.24887312846E+01  0.48263347660E+01  0.78490276823E+01  0.00000000000E+00 0.  1.
<mgrwt>
<rscale>  0 0.23555093E+04</rscale>
<asrwt>0</asrwt>
<pdfrwt beam="1">  1        2 0.17484396E+00 0.23555093E+04</pdfrwt>
<pdfrwt beam="2">  1       -2 0.18777265E+00 0.23555093E+04</pdfrwt>
<totfact> 0.29959758E+00</totfact>
</mgrwt>
</event>
<event>
12    1  0.1755460E-007  0.1455408E+04  0.7818608E-02  0.8914660E-01
         -2   -1    0    0    0  501 -0.00000000000E+00  0.00000000000E+00  0.11357182698E+03  0.11357182698E+03  0.00000000000E+00 0.  1.
          2   -1    0    0  501    0  0.00000000000E+00 -0.00000000000E+00 -0.46627173853E+04  0.46627173853E+04  0.00000000000E+00 0. -1.
         23    2    1    2    0    0  0.27306386204E+03 -0.17008198525E+03 -0.41903272294E+03  0.53604051227E+03  0.90880434849E+02 0.  0.
        254    2    1    2    0    0 -0.27306386204E+03  0.17008198525E+03 -0.41301128354E+04  0.42402487000E+04  0.90464647817E+03 0.  0.
        -24    2    4    4    0    0  0.53924154121E+02 -0.30236782878E+03 -0.22624218403E+04  0.22845639475E+04  0.79660081605E+02 0.  0.
         24    2    4    4    0    0 -0.32698801616E+03  0.47244981403E+03 -0.18676909951E+04  0.19556847525E+04  0.79392748341E+02 0.  0.
         13    1    3    3    0    0  0.23799168246E+02  0.26852101547E+01 -0.80468721869E+01  0.25265844826E+02  0.00000000000E+00 0. -1.
        -13    1    3    3    0    0  0.24926469379E+03 -0.17276719541E+03 -0.41098585075E+03  0.51077466744E+03  0.00000000000E+00 0.  1.
          2    1    6    6  502    0 -0.12419439328E+03  0.19027270560E+03 -0.87125845529E+03  0.90039949230E+03  0.00000000000E+00 0. -1.
          3    1    5    5  503    0  0.37152738401E+02 -0.91705477999E+02 -0.96298536685E+03  0.96805528635E+03  0.00000000000E+00 0. -1.
         -4    1    5    5    0  503  0.16771415720E+02 -0.21066235078E+03 -0.12994364734E+04  0.13165086612E+04  0.00000000000E+00 0.  1.
         -1    1    6    6    0  502 -0.20279362287E+03  0.28217710843E+03 -0.99643253983E+03  0.10552852602E+04  0.00000000000E+00 0.  1.
<mgrwt>
<rscale>  0 0.14554083E+04</rscale>
<asrwt>0</asrwt>
<pdfrwt beam="1">  1        2 0.71734120E+00 0.14554083E+04</pdfrwt>
<pdfrwt beam="2">  1       -2 0.17472587E-01 0.14554083E+04</pdfrwt>
<totfact> 0.23025553E+00</totfact>
</mgrwt>
</event>
<event>
12    1  0.1755460E-007  0.1737863E+04  0.7818608E-02  0.8740059E-01
         -2   -1    0    0    0  501 -0.00000000000E+00  0.00000000000E+00  0.45092865045E+03  0.45092865045E+03  0.00000000000E+00 0.  1.
          2   -1    0    0  501    0  0.00000000000E+00 -0.00000000000E+00 -0.16744159531E+04  0.16744159531E+04  0.00000000000E+00 0. -1.
         23    2    1    2    0    0 -0.59772600550E+03 -0.19143605559E+02 -0.22425516810E+03  0.64444935518E+03  0.85917027977E+02 0.  0.
        254    2    1    2    0    0  0.59772600550E+03  0.19143605559E+02 -0.99923213451E+03  0.14808952483E+04  0.91484590101E+03 0.  0.
        -24    2    4    4    0    0  0.60770858643E+03 -0.35002665618E+03 -0.55794847392E+03  0.89983128176E+03  0.81002777973E+02 0.  0.
         24    2    4    4    0    0 -0.99825809281E+01  0.36917026174E+03 -0.44128366059E+03  0.58106396656E+03  0.80732459748E+02 0.  0.
         11    1    3    3    0    0 -0.11898003574E+03 -0.93550677632E+01 -0.97242993359E+01  0.11974275842E+03  0.00000000000E+00 0. -1.
        -11    1    3    3    0    0 -0.47874596976E+03 -0.97885377962E+01 -0.21453086876E+03  0.52470659676E+03  0.00000000000E+00 0.  1.
          2    1    6    6  502    0  0.23878864773E+02  0.47094715066E+02 -0.45767804404E+02  0.69877065551E+02  0.00000000000E+00 0. -1.
          1    1    5    5  503    0  0.20093752066E+03 -0.16037111679E+03 -0.20916545136E+03  0.33142867762E+03  0.00000000000E+00 0. -1.
         -4    1    5    5    0  503  0.40677106577E+03 -0.18965553938E+03 -0.34878302256E+03  0.56840260414E+03  0.00000000000E+00 0.  1.
         -1    1    6    6    0  502 -0.33861445701E+02  0.32207554667E+03 -0.39551585619E+03  0.51118690101E+03  0.00000000000E+00 0.  1.
<mgrwt>
<rscale>  0 0.17378632E+04</rscale>
<asrwt>0</asrwt>
<pdfrwt beam="1">  1        2 0.25760246E+00 0.17378632E+04</pdfrwt>
<pdfrwt beam="2">  1       -2 0.69373638E-01 0.17378632E+04</pdfrwt>
<totfact> 0.18225023E+01</totfact>
</mgrwt>
</event>
<event>
12    1  0.1755460E-007  0.2303234E+04  0.7818608E-02  0.8476647E-01
          2   -1    0    0  501    0  0.00000000000E+00  0.00000000000E+00  0.11198439866E+04  0.11198439866E+04  0.00000000000E+00 0. -1.
         -2   -1    0    0    0  501 -0.00000000000E+00 -0.00000000000E+00 -0.11842918423E+04  0.11842918423E+04  0.00000000000E+00 0.  1.
         23    2    1    2    0    0 -0.52038718705E+03  0.81524714854E+03 -0.10856670557E+03  0.97916754618E+03  0.10747844566E+03 0.  0.
        254    2    1    2    0    0  0.52038718705E+03 -0.81524714854E+03  0.44118849832E+02  0.13249682827E+04  0.90452404036E+03 0.  0.
        -24    2    4    4    0    0  0.70407638601E+03 -0.59800157555E+03 -0.19102434331E+03  0.94666854278E+03  0.79759566507E+02 0.  0.
         24    2    4    4    0    0 -0.18368919896E+03 -0.21724557299E+03  0.23514319314E+03  0.37829973992E+03  0.82951860424E+02 0.  0.
         13    1    3    3    0    0 -0.21952701203E+03  0.24926645633E+03 -0.37355901853E+02  0.33424742133E+03  0.00000000000E+00 0. -1.
        -13    1    3    3    0    0 -0.30086017502E+03  0.56598069221E+03 -0.71210803718E+02  0.64492012485E+03  0.00000000000E+00 0.  1.
          2    1    6    6  502    0 -0.24579096421E+02 -0.84939640498E+01  0.52326168494E+02  0.58432074372E+02  0.00000000000E+00 0. -1.
          3    1    5    5  503    0 -0.15906223822E+00  0.14277510577E+01  0.14566316073E+01  0.20458615588E+01  0.00000000000E+00 0. -1.
         -4    1    5    5    0  503  0.70423544825E+03 -0.59942932661E+03 -0.19248097491E+03  0.94462268122E+03  0.00000000000E+00 0.  1.
         -1    1    6    6    0  502 -0.15911010253E+03 -0.20875160894E+03  0.18281702464E+03  0.31986766555E+03  0.00000000000E+00 0.  1.
<mgrwt>
<rscale>  0 0.23032343E+04</rscale>
<asrwt>0</asrwt>
<pdfrwt beam="1">  1        2 0.17228369E+00 0.23032343E+04</pdfrwt>
<pdfrwt beam="2">  1       -2 0.18219875E+00 0.23032343E+04</pdfrwt>
<totfact> 0.33615993E+00</totfact>
</mgrwt>
</event>
<event>
12    1  0.1755460E-007  0.1460642E+04  0.7818608E-02  0.8911056E-01
          2   -1    0    0  501    0  0.00000000000E+00  0.00000000000E+00  0.26474412043E+04  0.26474412043E+04  0.00000000000E+00 0.  1.
         -2   -1    0    0    0  501 -0.00000000000E+00 -0.00000000000E+00 -0.20146574108E+03  0.20146574108E+03  0.00000000000E+00 0. -1.
         23    2    1    2    0    0  0.39201600391E+03  0.10523124262E+03  0.55555947981E+03  0.69463209416E+03  0.95484286073E+02 0.  0.
        254    2    1    2    0    0 -0.39201600391E+03 -0.10523124262E+03  0.18904159834E+04  0.21542748512E+04  0.94998809598E+03 0.  0.
        -24    2    4    4    0    0 -0.35971591280E+03 -0.10618148476E+03  0.14960521155E+03  0.41132300023E+03  0.78325254995E+02 0.  0.
         24    2    4    4    0    0 -0.32300091109E+02  0.95024214313E+00  0.17408107719E+04  0.17429518510E+04  0.80092525062E+02 0.  0.
         13    1    3    3    0    0  0.29030433969E+03  0.33286201052E+02  0.39881760595E+03  0.49440880214E+03  0.00000000000E+00 0. -1.
        -13    1    3    3    0    0  0.10171166422E+03  0.71945041565E+02  0.15674187386E+03  0.20022329202E+03  0.00000000000E+00 0.  1.
          4    1    6    6  502    0 -0.57631224089E+02 -0.10371344535E+02  0.11497333100E+04  0.11512235260E+04  0.00000000000E+00 0. -1.
          1    1    5    5  503    0 -0.12132373275E+03 -0.16133880982E+02  0.15532256906E+02  0.12337342197E+03  0.00000000000E+00 0. -1.
         -2    1    5    5    0  503 -0.23839218005E+03 -0.90047603778E+02  0.13407295464E+03  0.28794957827E+03  0.00000000000E+00 0.  1.
         -3    1    6    6    0  502  0.25331132980E+02  0.11321586678E+02  0.59107746190E+03  0.59172832499E+03  0.00000000000E+00 0.  1.
<mgrwt>
<rscale>  0 0.14606419E+04</rscale>
<asrwt>0</asrwt>
<pdfrwt beam="1">  1        2 0.40729862E+00 0.14606419E+04</pdfrwt>
<pdfrwt beam="2">  1       -2 0.30994731E-01 0.14606419E+04</pdfrwt>
<totfact> 0.26788759E+01</totfact>
</mgrwt>
</event>
<event>
12    1  0.1755460E-007  0.1836300E+04  0.7818608E-02  0.8687230E-01
         -1   -1    0    0    0  501 -0.00000000000E+00  0.00000000000E+00  0.16157654227E+04  0.16157654227E+04  0.00000000000E+00 0.  1.
          1   -1    0    0  501    0  0.00000000000E+00 -0.00000000000E+00 -0.52173360868E+03  0.52173360868E+03  0.00000000000E+00 0. -1.
         23    2    1    2    0    0  0.68026243166E+03 -0.11476245135E+03  0.37872227151E+03  0.79268451173E+03  0.94819723800E+02 0.  0.
        254    2    1    2    0    0 -0.68026243166E+03  0.11476245135E+03  0.71530954252E+03  0.13448145197E+04  0.90605240164E+03 0.  0.
        -24    2    4    4    0    0 -0.23910309072E+03  0.49000970738E+03  0.39282470327E+03  0.67698273674E+03  0.81942522755E+02 0.  0.
         24    2    4    4    0    0 -0.44115934093E+03 -0.37524725602E+03  0.32248483926E+03  0.66783178293E+03  0.81060172024E+02 0.  0.
         11    1    3    3    0    0  0.63183363666E+03 -0.12973190175E+03  0.34185825846E+03  0.73000765724E+03  0.00000000000E+00 0. -1.
        -11    1    3    3    0    0  0.48428795001E+02  0.14969450397E+02  0.36864013052E+02  0.62676854489E+02  0.00000000000E+00 0.  1.
          2    1    6    6  502    0 -0.76625695628E+02 -0.44688121220E+02  0.22508231234E+02  0.91515823123E+02  0.00000000000E+00 0. -1.
          1    1    5    5  503    0 -0.61312670647E+02  0.18903347196E+03  0.17724823745E+03  0.26628900612E+03  0.00000000000E+00 0. -1.
         -2    1    5    5    0  503 -0.17779042008E+03  0.30097623542E+03  0.21557646582E+03  0.41069373062E+03  0.00000000000E+00 0.  1.
         -1    1    6    6    0  502 -0.36453364531E+03 -0.33055913480E+03  0.29997660802E+03  0.57631595980E+03  0.00000000000E+00 0.  1.
<mgrwt>
<rscale>  0 0.18362997E+04</rscale>
<asrwt>0</asrwt>
<pdfrwt beam="1">  1        1 0.80266710E-01 0.18362997E+04</pdfrwt>
<pdfrwt beam="2">  1       -1 0.24857929E+00 0.18362997E+04</pdfrwt>
<totfact> 0.27993218E+00</totfact>
</mgrwt>
</event>
<event>
12    1  0.2538445E-007  0.1676230E+04  0.7818608E-02  0.8775039E-01
          2   -1    0    0  501    0  0.00000000000E+00  0.00000000000E+00  0.67918292852E+03  0.67918292852E+03  0.00000000000E+00 0. -1.
         -2   -1    0    0    0  501 -0.00000000000E+00 -0.00000000000E+00 -0.10342375390E+04  0.10342375390E+04  0.00000000000E+00 0.  1.
         23    2    1    2    0    0 -0.25739890940E+03 -0.35714194140E+03  0.27098711899E+03  0.52265601755E+03  0.77011227504E+02 0.  0.
        254    2    1    2    0    0  0.25739890940E+03  0.35714194140E+03 -0.62604172946E+03  0.11907644500E+04  0.91224293005E+03 0.  0.
        -24    2    4    4    0    0  0.55811731200E+03  0.39482123089E+03 -0.50939115146E+03  0.85648475778E+03  0.81902727756E+02 0.  0.
         24    2    4    4    0    0 -0.30071840261E+03 -0.37679289491E+02 -0.11665057800E+03  0.33427969218E+03  0.79273379752E+02 0.  0.
         11    1    3    3    0    0 -0.26282628010E+03 -0.34872869513E+03  0.26231146048E+03  0.50940814542E+03  0.00000000000E+00 0. -1.
        -11    1    3    3    0    0  0.54273707056E+01 -0.84132462697E+01  0.86756585016E+01  0.13247872131E+02  0.00000000000E+00 0.  1.
          4    1    6    6  502    0 -0.70619725012E+01 -0.17711432323E+01 -0.22757542468E+02  0.23893809725E+02  0.00000000000E+00 0. -1.
          3    1    5    5  503    0  0.45442574134E+02  0.63594700671E+02 -0.56247782298E+02  0.96297074258E+02  0.00000000000E+00 0. -1.
         -4    1    5    5    0  503  0.51267473787E+03  0.33122653022E+03 -0.45314336916E+03  0.76018768352E+03  0.00000000000E+00 0.  1.
         -3    1    6    6    0  502 -0.29365643010E+03 -0.35908146259E+02 -0.93893035531E+02  0.31038588246E+03  0.00000000000E+00 0.  1.
<mgrwt>
<rscale>  0 0.16762297E+04</rscale>
<asrwt>0</asrwt>
<pdfrwt beam="1">  1        2 0.10448968E+00 0.16762297E+04</pdfrwt>
<pdfrwt beam="2">  1       -2 0.15911347E+00 0.16762297E+04</pdfrwt>
<totfact> 0.10369961E+01</totfact>
</mgrwt>
</event>
<event>
12    1  0.1755460E-007  0.1492762E+04  0.7818608E-02  0.8889281E-01
          2   -1    0    0  501    0  0.00000000000E+00  0.00000000000E+00  0.11823598059E+04  0.11823598059E+04  0.00000000000E+00 0. -1.
         -2   -1    0    0    0  501 -0.00000000000E+00 -0.00000000000E+00 -0.47116323399E+03  0.47116323399E+03  0.00000000000E+00 0.  1.
         23    2    1    2    0    0 -0.28370960401E+03 -0.18991495505E+03  0.58699843128E+03  0.68509209680E+03  0.90692850926E+02 0.  0.
        254    2    1    2    0    0  0.28370960401E+03  0.18991495505E+03  0.12419814066E+03  0.96843094313E+03  0.89770512079E+03 0.  0.
        -24    2    4    4    0    0  0.40769388585E+03  0.30731896906E+03 -0.23121474753E+03  0.56624645045E+03  0.80718832178E+02 0.  0.
         24    2    4    4    0    0 -0.12398428183E+03 -0.11740401401E+03  0.35541288819E+03  0.40218449267E+03  0.79235348220E+02 0.  0.
         13    1    3    3    0    0 -0.27884136464E+02 -0.59549397115E+02  0.97605410004E+02  0.11768802754E+03  0.00000000000E+00 0.  1.
        -13    1    3    3    0    0 -0.25582546755E+03 -0.13036555794E+03  0.48939302128E+03  0.56740406927E+03  0.00000000000E+00 0. -1.
          2    1    6    6  502    0 -0.70958186926E+02 -0.55818723909E+02  0.26814708157E+03  0.28293754008E+03  0.00000000000E+00 0. -1.
          3    1    5    5  503    0  0.35799794428E+03  0.24944074184E+03 -0.16939877491E+03  0.46805892443E+03  0.00000000000E+00 0. -1.
         -4    1    5    5    0  503  0.49695941572E+02  0.57878227220E+02 -0.61815972626E+02  0.98187526023E+02  0.00000000000E+00 0.  1.
         -1    1    6    6    0  502 -0.53026094908E+02 -0.61585290103E+02  0.87265806618E+02  0.11924695259E+03  0.00000000000E+00 0.  1.
<mgrwt>
<rscale>  0 0.14927618E+04</rscale>
<asrwt>0</asrwt>
<pdfrwt beam="1">  1        2 0.18190151E+00 0.14927618E+04</pdfrwt>
<pdfrwt beam="2">  1       -2 0.72486652E-01 0.14927618E+04</pdfrwt>
<totfact> 0.32308658E+01</totfact>
</mgrwt>
</event>
<event>
12    1  0.1866714E-007  0.1707805E+04  0.7818608E-02  0.8756925E-01
         -2   -1    0    0    0  501 -0.00000000000E+00  0.00000000000E+00  0.26623709766E+03  0.26623709766E+03  0.00000000000E+00 0.  1.
          2   -1    0    0  501    0  0.00000000000E+00 -0.00000000000E+00 -0.27387235174E+04  0.27387235174E+04  0.00000000000E+00 0. -1.
         23    2    1    2    0    0 -0.32708882422E+03  0.37069234629E+03 -0.15297721941E+04  0.16103139748E+04  0.92239997626E+02 0.  0.
        254    2    1    2    0    0  0.32708882422E+03 -0.37069234629E+03 -0.94271422559E+03  0.13946466402E+04  0.90107115440E+03 0.  0.
        -24    2    4    4    0    0  0.35087005009E+02 -0.28869459491E+03  0.90372965461E+02  0.31501732925E+03  0.80579015815E+02 0.  0.
         24    2    4    4    0    0  0.29200181921E+03 -0.81997751386E+02 -0.10330871911E+04  0.10796293109E+04  0.79634232903E+02 0.  0.
         13    1    3    3    0    0 -0.23019295609E+03  0.31236772589E+03 -0.11248747533E+04  0.11899183182E+04  0.00000000000E+00 0. -1.
        -13    1    3    3    0    0 -0.96895868133E+02  0.58324620403E+02 -0.40489744077E+03  0.42039565667E+03  0.00000000000E+00 0.  1.
          4    1    6    6  502    0  0.12966850679E+02  0.61816030718E+01 -0.11845984059E+03  0.11932763832E+03  0.00000000000E+00 0. -1.
          3    1    5    5  503    0 -0.47048550120E+01 -0.34748399000E+02 -0.13775991712E+02  0.37674458741E+02  0.00000000000E+00 0. -1.
         -4    1    5    5    0  503  0.39791860021E+02 -0.25394619591E+03  0.10414895717E+03  0.27734287050E+03  0.00000000000E+00 0.  1.
         -3    1    6    6    0  502  0.27903496853E+03 -0.88179354458E+02 -0.91462735046E+03  0.96030167262E+03  0.00000000000E+00 0.  1.
<mgrwt>
<rscale>  0 0.17078054E+04</rscale>
<asrwt>0</asrwt>
<pdfrwt beam="1">  1        2 0.42134208E+00 0.17078054E+04</pdfrwt>
<pdfrwt beam="2">  1       -2 0.40959553E-01 0.17078054E+04</pdfrwt>
<totfact> 0.13554706E+01</totfact>
</mgrwt>
</event>
<event>
12    1  0.1755460E-007  0.1468567E+04  0.7818608E-02  0.8905629E-01
         -1   -1    0    0    0  501 -0.00000000000E+00  0.00000000000E+00  0.44013052578E+03  0.44013052578E+03  0.00000000000E+00 0.  1.
          1   -1    0    0  501    0  0.00000000000E+00 -0.00000000000E+00 -0.12250285814E+04  0.12250285814E+04  0.00000000000E+00 0. -1.
         23    2    1    2    0    0  0.42978584066E+03 -0.39867826956E+02 -0.93342522177E+02  0.45115708723E+03  0.92328643720E+02 0.  0.
        254    2    1    2    0    0 -0.42978584066E+03  0.39867826956E+02 -0.69155553342E+03  0.12140020199E+04  0.89958131157E+03 0.  0.
        -24    2    4    4    0    0 -0.60947147241E+03 -0.16079514432E+02 -0.14728968425E+03  0.63237875520E+03  0.80589158583E+02 0.  0.
         24    2    4    4    0    0  0.17968563174E+03  0.55947341389E+02 -0.54426584917E+03  0.58162326473E+03  0.81506295719E+02 0.  0.
         11    1    3    3    0    0  0.68019684145E+02 -0.41277542207E+02 -0.13930037600E+02  0.80774741531E+02  0.00000000000E+00 0. -1.
        -11    1    3    3    0    0  0.36176615652E+03  0.14097152512E+01 -0.79412484577E+02  0.37038234570E+03  0.00000000000E+00 0.  1.
          4    1    6    6  502    0  0.35473025122E+02 -0.73696696323E+01 -0.19708242079E+03  0.20038494985E+03  0.00000000000E+00 0. -1.
          1    1    5    5  503    0 -0.82712037374E+02 -0.28364260602E+02 -0.31191663572E+02  0.92837127716E+02  0.00000000000E+00 0. -1.
         -2    1    5    5    0  503 -0.52675943503E+03  0.12284746170E+02 -0.11609802068E+03  0.53954162749E+03  0.00000000000E+00 0.  1.
         -3    1    6    6    0  502  0.14421260662E+03  0.63317011021E+02 -0.34718342838E+03  0.38123831488E+03  0.00000000000E+00 0.  1.
<mgrwt>
<rscale>  0 0.14685673E+04</rscale>
<asrwt>0</asrwt>
<pdfrwt beam="1">  1        1 0.18846593E+00 0.14685673E+04</pdfrwt>
<pdfrwt beam="2">  1       -1 0.67712390E-01 0.14685673E+04</pdfrwt>
<totfact> 0.21944939E+01</totfact>
</mgrwt>
</event>
<event>
12    1  0.1755460E-007  0.1277102E+04  0.7818608E-02  0.9047923E-01
         -1   -1    0    0    0  501 -0.00000000000E+00  0.00000000000E+00  0.19644674897E+03  0.19644674897E+03  0.00000000000E+00 0.  1.
          1   -1    0    0  501    0  0.00000000000E+00 -0.00000000000E+00 -0.20756117213E+04  0.20756117213E+04  0.00000000000E+00 0. -1.
         23    2    1    2    0    0 -0.21941585306E+03  0.20347124769E+03 -0.29908572797E+03  0.43328352669E+03  0.93479819275E+02 0.  0.
        254    2    1    2    0    0  0.21941585306E+03 -0.20347124769E+03 -0.15800792443E+04  0.18387749435E+04  0.89157109052E+03 0.  0.
        -24    2    4    4    0    0 -0.25383472115E+03  0.12866538937E+03 -0.25344023263E+03  0.38946952184E+03  0.80422066901E+02 0.  0.
         24    2    4    4    0    0  0.47325057421E+03 -0.33213663705E+03 -0.13266390117E+04  0.14493054217E+04  0.78957497243E+02 0.  0.
         13    1    3    3    0    0 -0.36716751979E+01 -0.64390629109E+01 -0.25374575890E+02  0.26435049301E+02  0.00000000000E+00 0. -1.
        -13    1    3    3    0    0 -0.21574417787E+03  0.20991031060E+03 -0.27371115208E+03  0.40684847739E+03  0.00000000000E+00 0.  1.
          2    1    6    6  502    0  0.28942618494E+03 -0.24056619333E+03 -0.91170663110E+03  0.98633087303E+03  0.00000000000E+00 0. -1.
          3    1    5    5  503    0 -0.17160049583E+03  0.11110244237E+03 -0.13798521417E+03  0.24663820101E+03  0.00000000000E+00 0. -1.
         -4    1    5    5    0  503 -0.82234225320E+02  0.17562946993E+02 -0.11545501846E+03  0.14283132083E+03  0.00000000000E+00 0.  1.
         -1    1    6    6    0  502  0.18382438927E+03 -0.91570443721E+02 -0.41493238058E+03  0.46297454866E+03  0.00000000000E+00 0.  1.
<mgrwt>
<rscale>  0 0.12771017E+04</rscale>
<asrwt>0</asrwt>
<pdfrwt beam="1">  1        1 0.31932487E+00 0.12771017E+04</pdfrwt>
<pdfrwt beam="2">  1       -1 0.30222577E-01 0.12771017E+04</pdfrwt>
<totfact> 0.26292982E+01</totfact>
</mgrwt>
</event>
<event>
12    1  0.1755460E-007  0.1640465E+04  0.7818608E-02  0.8796067E-01
          1   -1    0    0  501    0  0.00000000000E+00  0.00000000000E+00  0.15752585875E+04  0.15752585875E+04  0.00000000000E+00 0. -1.
         -1   -1    0    0    0  501 -0.00000000000E+00 -0.00000000000E+00 -0.42709255812E+03  0.42709255812E+03  0.00000000000E+00 0.  1.
         23    2    1    2    0    0  0.39901236729E+03 -0.33179139544E+03  0.61487113041E+03  0.80991474512E+03  0.92730728460E+02 0.  0.
        254    2    1    2    0    0 -0.39901236729E+03  0.33179139544E+03  0.53329489898E+03  0.11924364005E+04  0.93177503759E+03 0.  0.
        -24    2    4    4    0    0  0.27426750022E+03  0.25504537701E+03  0.22153530547E+03  0.44229067261E+03  0.79198115487E+02 0.  0.
         24    2    4    4    0    0 -0.67327986751E+03  0.76746018424E+02  0.31175959351E+03  0.75014572791E+03  0.79553991879E+02 0.  0.
         13    1    3    3    0    0  0.15634959087E+03 -0.10705519720E+03  0.16310739449E+03  0.25002006310E+03  0.00000000000E+00 0.  1.
        -13    1    3    3    0    0  0.24266277642E+03 -0.22473619824E+03  0.45176373592E+03  0.55989468202E+03  0.00000000000E+00 0. -1.
          4    1    6    6  502    0 -0.61559539226E+03  0.74575839140E+02  0.25924226516E+03  0.67210549381E+03  0.00000000000E+00 0. -1.
          1    1    5    5  503    0  0.18566862088E+03  0.12420035644E+03  0.11092478972E+03  0.24940504063E+03  0.00000000000E+00 0. -1.
         -2    1    5    5    0  503  0.88598879341E+02  0.13084502057E+03  0.11061051575E+03  0.19288563198E+03  0.00000000000E+00 0.  1.
         -3    1    6    6    0  502 -0.57684475245E+02  0.21701792847E+01  0.52517328349E+02  0.78040234105E+02  0.00000000000E+00 0.  1.
<mgrwt>
<rscale>  0 0.16404648E+04</rscale>
<asrwt>0</asrwt>
<pdfrwt beam="1">  1        1 0.24234747E+00 0.16404648E+04</pdfrwt>
<pdfrwt beam="2">  1       -1 0.65706548E-01 0.16404648E+04</pdfrwt>
<totfact> 0.13029202E+01</totfact>
</mgrwt>
</event>
<event>
12    1  0.1755460E-007  0.2597055E+04  0.7818608E-02  0.8369202E-01
         -2   -1    0    0    0  501 -0.00000000000E+00  0.00000000000E+00  0.48298688892E+03  0.48298688892E+03  0.00000000000E+00 0.  1.
          2   -1    0    0  501    0  0.00000000000E+00 -0.00000000000E+00 -0.34911379755E+04  0.34911379755E+04  0.00000000000E+00 0. -1.
         23    2    1    2    0    0 -0.19019314889E+03  0.12400071504E+03 -0.30220626672E+04  0.30322036652E+04  0.99230497485E+02 0.  0.
        254    2    1    2    0    0  0.19019314889E+03 -0.12400071504E+03  0.13911580615E+02  0.94192119921E+03  0.91404179457E+03 0.  0.
        -24    2    4    4    0    0  0.44094974339E+03 -0.27389220073E+03 -0.20978733306E+03  0.56545382334E+03  0.79206612098E+02 0.  0.
         24    2    4    4    0    0 -0.25075659451E+03  0.14989148569E+03  0.22369891368E+03  0.37646737586E+03  0.79625083609E+02 0.  0.
         13    1    3    3    0    0 -0.64655761771E+01  0.32674541950E+01 -0.63433544598E+03  0.63437681071E+03  0.00000000000E+00 0.  1.
        -13    1    3    3    0    0 -0.18372757271E+03  0.12073326085E+03 -0.23877272212E+04  0.23978268545E+04  0.00000000000E+00 0. -1.
          2    1    6    6  502    0 -0.20536507974E+03  0.95259135615E+02  0.19855376213E+03  0.30111910492E+03  0.00000000000E+00 0. -1.
          3    1    5    5  503    0  0.20183918759E+03 -0.12026525398E+03 -0.13736659998E+03  0.27216239959E+03  0.00000000000E+00 0. -1.
         -4    1    5    5    0  503  0.23911055580E+03 -0.15362694676E+03 -0.72420733077E+02  0.29329142375E+03  0.00000000000E+00 0.  1.
         -1    1    6    6    0  502 -0.45391514769E+02  0.54632350075E+02  0.25145151549E+02  0.75348270944E+02  0.00000000000E+00 0.  1.
<mgrwt>
<rscale>  0 0.25970552E+04</rscale>
<asrwt>0</asrwt>
<pdfrwt beam="1">  1        2 0.53709817E+00 0.25970552E+04</pdfrwt>
<pdfrwt beam="2">  1       -2 0.74305672E-01 0.25970552E+04</pdfrwt>
<totfact> 0.11902324E+00</totfact>
</mgrwt>
</event>
<event>
12    1  0.1755460E-007  0.1492912E+04  0.7818608E-02  0.8889180E-01
         -1   -1    0    0    0  501 -0.00000000000E+00  0.00000000000E+00  0.19119542457E+03  0.19119542457E+03  0.00000000000E+00 0.  1.
          1   -1    0    0  501    0  0.00000000000E+00 -0.00000000000E+00 -0.29142783128E+04  0.29142783128E+04  0.00000000000E+00 0. -1.
         23    2    1    2    0    0  0.34583895226E+02 -0.17338996041E+03 -0.17476569140E+04  0.17591461241E+04  0.95027746216E+02 0.  0.
        254    2    1    2    0    0 -0.34583895226E+02  0.17338996041E+03 -0.97542597422E+03  0.13463276133E+04  0.91097864243E+03 0.  0.
        -24    2    4    4    0    0 -0.15494096213E+03 -0.28236418498E+03 -0.95562151839E+02  0.34486323361E+03  0.77860711076E+02 0.  0.
         24    2    4    4    0    0  0.12035706691E+03  0.45575414538E+03 -0.87986382238E+03  0.10014643797E+04  0.81073381885E+02 0.  0.
         11    1    3    3    0    0  0.45379753149E+02 -0.76262840309E+02 -0.51226395830E+03  0.51989393705E+03  0.00000000000E+00 0.  1.
        -11    1    3    3    0    0 -0.10795857923E+02 -0.97127120098E+02 -0.12353929557E+04  0.12392521870E+04  0.00000000000E+00 0. -1.
          2    1    6    6  502    0  0.97558744052E+02  0.27386266105E+03 -0.60285301544E+03  0.66929083655E+03  0.00000000000E+00 0. -1.
          3    1    5    5  503    0 -0.15747085667E+03 -0.26051158080E+03 -0.72356971326E+02  0.31288797633E+03  0.00000000000E+00 0. -1.
         -2    1    5    5    0  503  0.25298945391E+01 -0.21852604176E+02 -0.23205180513E+02  0.31975257283E+02  0.00000000000E+00 0.  1.
         -1    1    6    6    0  502  0.22798322854E+02  0.18189148434E+03 -0.27701080694E+03  0.33217354314E+03  0.00000000000E+00 0.  1.
<mgrwt>
<rscale>  0 0.14929122E+04</rscale>
<asrwt>0</asrwt>
<pdfrwt beam="1">  1        1 0.44835050E+00 0.14929122E+04</pdfrwt>
<pdfrwt beam="2">  1       -1 0.29414681E-01 0.14929122E+04</pdfrwt>
<totfact> 0.70932051E+00</totfact>
</mgrwt>
</event>
<event>
12    1  0.1755460E-007  0.1667337E+04  0.7818608E-02  0.8780216E-01
          3   -1    0    0  501    0  0.00000000000E+00  0.00000000000E+00  0.16613442532E+04  0.16613442532E+04  0.00000000000E+00 0. -1.
         -3   -1    0    0    0  501 -0.00000000000E+00 -0.00000000000E+00 -0.41833764593E+03  0.41833764593E+03  0.00000000000E+00 0.  1.
         23    2    1    2    0    0  0.42193818363E+03  0.27517829767E+03  0.63727949068E+02  0.51636975546E+03  0.93923088441E+02 0.  0.
        254    2    1    2    0    0 -0.42193818363E+03 -0.27517829767E+03  0.11792786582E+04  0.15633121437E+04  0.89414304144E+03 0.  0.
        -24    2    4    4    0    0  0.14982699469E+03 -0.24618026126E+03  0.61904456292E+02  0.30529246325E+03  0.79488848506E+02 0.  0.
         24    2    4    4    0    0 -0.57176517833E+03 -0.28998036409E+02  0.11173742019E+04  0.12580196804E+04  0.79574518266E+02 0.  0.
         11    1    3    3    0    0  0.40938441479E+03  0.28173143314E+03  0.67972831418E+02  0.50158598995E+03  0.00000000000E+00 0.  1.
        -11    1    3    3    0    0  0.12553768838E+02 -0.65531354729E+01 -0.42448823498E+01  0.14783765512E+02  0.00000000000E+00 0. -1.
          2    1    6    6  502    0 -0.39972048734E+03 -0.13197491166E+02  0.69812912529E+03  0.80457126307E+03  0.00000000000E+00 0. -1.
          3    1    5    5  503    0  0.26871468882E+02 -0.69758743911E+02  0.49973925051E+02  0.89920806140E+02  0.00000000000E+00 0. -1.
         -2    1    5    5    0  503  0.12295552581E+03 -0.17642151735E+03  0.11930531240E+02  0.21537165711E+03  0.00000000000E+00 0.  1.
         -1    1    6    6    0  502 -0.17204469098E+03 -0.15800545242E+02  0.41924507663E+03  0.45344841736E+03  0.00000000000E+00 0.  1.
<mgrwt>
<rscale>  0 0.16673366E+04</rscale>
<asrwt>0</asrwt>
<pdfrwt beam="1">  1        3 0.25559142E+00 0.16673366E+04</pdfrwt>
<pdfrwt beam="2">  1       -3 0.64359639E-01 0.16673366E+04</pdfrwt>
<totfact> 0.40134091E-01</totfact>
</mgrwt>
</event>
<event>
12    1  0.1755460E-007  0.1990550E+04  0.7818608E-02  0.8611052E-01
          1   -1    0    0  501    0  0.00000000000E+00  0.00000000000E+00  0.99204212349E+03  0.99204212349E+03  0.00000000000E+00 0. -1.
         -1   -1    0    0    0  501 -0.00000000000E+00 -0.00000000000E+00 -0.99851863189E+03  0.99851863189E+03  0.00000000000E+00 0.  1.
         23    2    1    2    0    0  0.52416917196E+03 -0.17726487365E+02  0.58581801758E+03  0.79155350444E+03  0.91140833229E+02 0.  0.
        254    2    1    2    0    0 -0.52416917196E+03  0.17726487365E+02 -0.59229452598E+03  0.11990072509E+04  0.90096505653E+03 0.  0.
        -24    2    4    4    0    0 -0.57999618794E+02  0.35151714960E+03 -0.49109671851E+03  0.61086616378E+03  0.71086010405E+02 0.  0.
         24    2    4    4    0    0 -0.46616955317E+03 -0.33379066224E+03 -0.10119780747E+03  0.58814108715E+03  0.83298761449E+02 0.  0.
         11    1    3    3    0    0  0.25286669030E+03  0.21413001551E+00  0.34904113333E+03  0.43101197394E+03  0.00000000000E+00 0. -1.
        -11    1    3    3    0    0  0.27130248166E+03 -0.17940617380E+02  0.23677688425E+03  0.36054153051E+03  0.00000000000E+00 0.  1.
          2    1    6    6  502    0 -0.28392439278E+03 -0.17546998019E+03 -0.23759667607E+02  0.33461514695E+03  0.00000000000E+00 0. -1.
          3    1    5    5  503    0 -0.44725975909E+02  0.27740276984E+03 -0.43112211971E+03  0.51460566625E+03  0.00000000000E+00 0. -1.
         -4    1    5    5    0  503 -0.13273642885E+02  0.74114379765E+02 -0.59974598801E+02  0.96260497530E+02  0.00000000000E+00 0.  1.
         -1    1    6    6    0  502 -0.18224516039E+03 -0.15832068204E+03 -0.77438139866E+02  0.25352594020E+03  0.00000000000E+00 0.  1.
<mgrwt>
<rscale>  0 0.19905502E+04</rscale>
<asrwt>0</asrwt>
<pdfrwt beam="1">  1        1 0.15262186E+00 0.19905502E+04</pdfrwt>
<pdfrwt beam="2">  1       -1 0.15361825E+00 0.19905502E+04</pdfrwt>
<totfact> 0.46609657E+00</totfact>
</mgrwt>
</event>
<event>
12    1  0.1755460E-007  0.2601060E+04  0.7818608E-02  0.8367841E-01
         -1   -1    0    0    0  501 -0.00000000000E+00  0.00000000000E+00  0.68643786923E+03  0.68643786923E+03  0.00000000000E+00 0.  1.
          1   -1    0    0  501    0  0.00000000000E+00 -0.00000000000E+00 -0.24639928896E+04  0.24639928896E+04  0.00000000000E+00 0. -1.
         23    2    1    2    0    0  0.69486614794E+03 -0.83716007919E+03 -0.36622900874E+03  0.11515248485E+04  0.90608101423E+02 0.  0.
        254    2    1    2    0    0 -0.69486614794E+03  0.83716007919E+03 -0.14113260116E+04  0.19989059104E+04  0.90559801549E+03 0.  0.
        -24    2    4    4    0    0 -0.50681016096E+03  0.97908373404E+03 -0.13464218776E+04  0.17420302749E+04  0.79725208408E+02 0.  0.
         24    2    4    4    0    0 -0.18805598699E+03 -0.14192365485E+03 -0.64904134058E+02  0.25687563544E+03  0.79152810544E+02 0.  0.
         11    1    3    3    0    0  0.34242362820E+03 -0.42502327984E+03 -0.13666266160E+03  0.56265034669E+03  0.00000000000E+00 0.  1.
        -11    1    3    3    0    0  0.35244251974E+03 -0.41213679935E+03 -0.22956634714E+03  0.58887450178E+03  0.00000000000E+00 0. -1.
          2    1    6    6  502    0 -0.12176254248E+03 -0.85427205376E+02 -0.82680258856E+00  0.14874342934E+03  0.00000000000E+00 0. -1.
          3    1    5    5  503    0 -0.23901657185E+03  0.52638793803E+03 -0.66316052458E+03  0.87976989280E+03  0.00000000000E+00 0. -1.
         -4    1    5    5    0  503 -0.26779358911E+03  0.45269579601E+03 -0.68326135299E+03  0.86226038212E+03  0.00000000000E+00 0.  1.
         -1    1    6    6    0  502 -0.66293444512E+02 -0.56496449475E+02 -0.64077331469E+02  0.10813220610E+03  0.00000000000E+00 0.  1.
<mgrwt>
<rscale>  0 0.26010598E+04</rscale>
<asrwt>0</asrwt>
<pdfrwt beam="1">  1        1 0.37907583E+00 0.26010598E+04</pdfrwt>
<pdfrwt beam="2">  1       -1 0.10560583E+00 0.26010598E+04</pdfrwt>
<totfact> 0.10610680E+00</totfact>
</mgrwt>
</event>
<event>
12    1  0.1755460E-007  0.1437892E+04  0.7818608E-02  0.8926838E-01
         -1   -1    0    0    0  501 -0.00000000000E+00  0.00000000000E+00  0.40586866545E+03  0.40586866545E+03  0.00000000000E+00 0.  1.
          1   -1    0    0  501    0  0.00000000000E+00 -0.00000000000E+00 -0.12735230469E+04  0.12735230469E+04  0.00000000000E+00 0. -1.
         23    2    1    2    0    0  0.25080154054E+03 -0.25641693386E+03  0.28123018605E+02  0.37497289940E+03  0.10565374771E+03 0.  0.
        254    2    1    2    0    0 -0.25080154054E+03  0.25641693386E+03 -0.89577740009E+03  0.13044188130E+04  0.87774724861E+03 0.  0.
        -24    2    4    4    0    0  0.25467373737E+03  0.30730514001E+03 -0.55122308444E+03  0.68525258624E+03  0.80181397724E+02 0.  0.
         24    2    4    4    0    0 -0.50547527791E+03 -0.50888206158E+02 -0.34455431564E+03  0.61916622674E+03  0.80958469629E+02 0.  0.
         11    1    3    3    0    0  0.49292142833E+02 -0.12153984341E+03  0.16791296604E+02  0.13222555170E+03  0.00000000000E+00 0. -1.
        -11    1    3    3    0    0  0.20150939771E+03 -0.13487709044E+03  0.11331722001E+02  0.24274734770E+03  0.00000000000E+00 0.  1.
          4    1    6    6  502    0 -0.22770125949E+03 -0.38928934106E+02 -0.20126257499E+03  0.30638203207E+03  0.00000000000E+00 0. -1.
          3    1    5    5  503    0  0.77383867912E+02  0.12925893167E+03 -0.15557519223E+03  0.21656355849E+03  0.00000000000E+00 0. -1.
         -4    1    5    5    0  503  0.17728986945E+03  0.17804620834E+03 -0.39564789222E+03  0.46868902775E+03  0.00000000000E+00 0.  1.
         -3    1    6    6    0  502 -0.27777401842E+03 -0.11959272052E+02 -0.14329174066E+03  0.31278419467E+03  0.00000000000E+00 0.  1.
<mgrwt>
<rscale>  0 0.14378917E+04</rscale>
<asrwt>0</asrwt>
<pdfrwt beam="1">  1        1 0.19592662E+00 0.14378917E+04</pdfrwt>
<pdfrwt beam="2">  1       -1 0.62441333E-01 0.14378917E+04</pdfrwt>
<totfact> 0.23899229E+01</totfact>
</mgrwt>
</event>
<event>
12    1  0.1755460E-007  0.3482440E+04  0.7818608E-02  0.8117964E-01
         -1   -1    0    0    0  501 -0.00000000000E+00  0.00000000000E+00  0.16878981395E+04  0.16878981395E+04  0.00000000000E+00 0.  1.
          1   -1    0    0  501    0  0.00000000000E+00 -0.00000000000E+00 -0.17962266081E+04  0.17962266081E+04  0.00000000000E+00 0. -1.
         23    2    1    2    0    0  0.10157693560E+04 -0.15648980801E+03  0.12043573259E+04  0.15859724380E+04  0.92496276226E+02 0.  0.
        254    2    1    2    0    0 -0.10157693560E+04  0.15648980801E+03 -0.13126857944E+04  0.18981523095E+04  0.90750303065E+03 0.  0.
        -24    2    4    4    0    0 -0.79524702110E+03  0.10127181499E+03 -0.30261454707E+03  0.85970895145E+03  0.69642745698E+02 0.  0.
         24    2    4    4    0    0 -0.22052233495E+03  0.55217993021E+02 -0.10100712474E+04  0.10384433581E+04  0.80259306412E+02 0.  0.
         11    1    3    3    0    0  0.42923581357E+03 -0.28020330800E+02  0.46339450806E+03  0.63226813353E+03  0.00000000000E+00 0.  1.
        -11    1    3    3    0    0  0.58653354248E+03 -0.12846947721E+03  0.74096281780E+03  0.95370430448E+03  0.00000000000E+00 0. -1.
          4    1    6    6  502    0 -0.16176335092E+03  0.34818323544E+02 -0.55500890254E+03  0.57914987633E+03  0.00000000000E+00 0. -1.
          3    1    5    5  503    0 -0.77820593067E+02 -0.98094903308E+01 -0.22892606535E+02  0.81708887153E+02  0.00000000000E+00 0. -1.
         -4    1    5    5    0  503 -0.71742642803E+03  0.11108130532E+03 -0.27972194054E+03  0.77800006430E+03  0.00000000000E+00 0.  1.
         -3    1    6    6    0  502 -0.58758984027E+02  0.20399669476E+02 -0.45506234482E+03  0.45929348176E+03  0.00000000000E+00 0.  1.
<mgrwt>
<rscale>  0 0.34824403E+04</rscale>
<asrwt>0</asrwt>
<pdfrwt beam="1">  1        1 0.27634255E+00 0.34824403E+04</pdfrwt>
<pdfrwt beam="2">  1       -1 0.25967664E+00 0.34824403E+04</pdfrwt>
<totfact> 0.20188879E-01</totfact>
</mgrwt>
</event>
<event>
12    1  0.1871362E-007  0.1931830E+04  0.7818608E-02  0.8639173E-01
         -2   -1    0    0    0  501 -0.00000000000E+00  0.00000000000E+00  0.59394732300E+03  0.59394732300E+03  0.00000000000E+00 0.  1.
          2   -1    0    0  501    0  0.00000000000E+00 -0.00000000000E+00 -0.15708331306E+04  0.15708331306E+04  0.00000000000E+00 0. -1.
         23    2    1    2    0    0  0.60997303612E+03  0.22547966523E+03 -0.77241539462E+03  0.10137996736E+04  0.90862820396E+02 0.  0.
        254    2    1    2    0    0 -0.60997303612E+03 -0.22547966523E+03 -0.20447041296E+03  0.11509807800E+04  0.92738364329E+03 0.  0.
        -24    2    4    4    0    0 -0.82060751191E+03 -0.31888072733E+03 -0.11722324333E+03  0.89197403967E+03  0.82430527097E+02 0.  0.
         24    2    4    4    0    0  0.21063447579E+03  0.93401062103E+02 -0.87247169626E+02  0.25900674030E+03  0.79886057083E+02 0.  0.
         11    1    3    3    0    0  0.16212220287E+01  0.89973789403E+01 -0.36875859827E+01  0.98579652587E+01  0.00000000000E+00 0.  1.
        -11    1    3    3    0    0  0.60835181409E+03  0.21648228629E+03 -0.76872780864E+03  0.10039417083E+04  0.00000000000E+00 0. -1.
          2    1    6    6  502    0  0.11886388900E+03  0.58039784152E+02 -0.76745597356E+01  0.13249958310E+03  0.00000000000E+00 0. -1.
          3    1    5    5  503    0 -0.77848888259E+03 -0.30188754752E+03 -0.12942786564E+03  0.84494532608E+03  0.00000000000E+00 0. -1.
         -4    1    5    5    0  503 -0.42118629321E+02 -0.16993179814E+02  0.12204622306E+02  0.47028713587E+02  0.00000000000E+00 0.  1.
         -1    1    6    6    0  502  0.91770586789E+02  0.35361277952E+02 -0.79572609891E+02  0.12650715720E+03  0.00000000000E+00 0.  1.
<mgrwt>
<rscale>  0 0.19318304E+04</rscale>
<asrwt>0</asrwt>
<pdfrwt beam="1">  1        2 0.24166664E+00 0.19318304E+04</pdfrwt>
<pdfrwt beam="2">  1       -2 0.91376511E-01 0.19318304E+04</pdfrwt>
<totfact> 0.11038026E+01</totfact>
</mgrwt>
</event>
<event>
12    1  0.1755460E-007  0.2035299E+04  0.7818608E-02  0.8590293E-01
          1   -1    0    0  501    0  0.00000000000E+00  0.00000000000E+00  0.61939589848E+03  0.61939589848E+03  0.00000000000E+00 0. -1.
         -1   -1    0    0    0  501 -0.00000000000E+00 -0.00000000000E+00 -0.16719686211E+04  0.16719686211E+04  0.00000000000E+00 0.  1.
         23    2    1    2    0    0  0.42084519306E+03  0.44676296131E+03  0.17298223592E+03  0.64418136753E+03  0.91317907421E+02 0.  0.
        254    2    1    2    0    0 -0.42084519306E+03 -0.44676296131E+03 -0.12255549585E+04  0.16471831520E+04  0.91352042115E+03 0.  0.
        -24    2    4    4    0    0  0.10664161236E+03 -0.11743531560E+03 -0.94262764706E+03  0.95934394165E+03  0.81427455798E+02 0.  0.
         24    2    4    4    0    0 -0.52748680542E+03 -0.32932764571E+03 -0.28292731147E+03  0.68783921038E+03  0.79849155566E+02 0.  0.
         13    1    3    3    0    0 -0.24782743652E+01  0.56405645729E+01 -0.44153002667E+01  0.75797552055E+01  0.00000000000E+00 0.  1.
        -13    1    3    3    0    0  0.42332346742E+03  0.44112239674E+03  0.17739753619E+03  0.63660161233E+03  0.00000000000E+00 0. -1.
          4    1    6    6  502    0 -0.46887070309E+03 -0.30527950710E+03 -0.27669561253E+03  0.62417607745E+03  0.00000000000E+00 0. -1.
          1    1    5    5  503    0  0.10656826098E+03 -0.10661434421E+03 -0.93222295479E+03  0.94433206557E+03  0.00000000000E+00 0. -1.
         -2    1    5    5    0  503  0.73351378517E-01 -0.10820971390E+02 -0.10404692270E+02  0.15011876081E+02  0.00000000000E+00 0.  1.
         -3    1    6    6    0  502 -0.58616102328E+02 -0.24048138610E+02 -0.62316989412E+01  0.63663132930E+02  0.00000000000E+00 0.  1.
<mgrwt>
<rscale>  0 0.20352990E+04</rscale>
<asrwt>0</asrwt>
<pdfrwt beam="1">  1        1 0.95291678E-01 0.20352990E+04</pdfrwt>
<pdfrwt beam="2">  1       -1 0.25722594E+00 0.20352990E+04</pdfrwt>
<totfact> 0.18916055E+00</totfact>
</mgrwt>
</event>
<event>
12    1  0.1755460E-007  0.1271757E+04  0.7818608E-02  0.9052267E-01
          1   -1    0    0  501    0  0.00000000000E+00  0.00000000000E+00  0.26616091618E+04  0.26616091618E+04  0.00000000000E+00 0. -1.
         -1   -1    0    0    0  501 -0.00000000000E+00 -0.00000000000E+00 -0.15191606059E+03  0.15191606059E+03  0.00000000000E+00 0.  1.
         23    2    1    2    0    0  0.24611588176E+03  0.94369891350E+02  0.10338556476E+04  0.10712183097E+04  0.95772978244E+02 0.  0.
        254    2    1    2    0    0 -0.24611588176E+03 -0.94369891350E+02  0.14758374537E+04  0.17423069127E+04  0.88772658226E+03 0.  0.
        -24    2    4    4    0    0 -0.56746536469E+03 -0.13464870858E+03  0.86261631640E+03  0.10443515944E+04  0.80100739771E+02 0.  0.
         24    2    4    4    0    0  0.32134948292E+03  0.40278817226E+02  0.61322113725E+03  0.69795531834E+03  0.78826327677E+02 0.  0.
         13    1    3    3    0    0  0.12976444151E+03  0.75906280269E+02  0.41839182690E+03  0.44458103253E+03  0.00000000000E+00 0.  1.
        -13    1    3    3    0    0  0.11635144025E+03  0.18463611080E+02  0.61546382070E+03  0.62663727719E+03  0.00000000000E+00 0. -1.
          2    1    6    6  502    0  0.18622501343E+03 -0.13212412958E+02  0.37505254975E+03  0.41894956565E+03  0.00000000000E+00 0. -1.
          1    1    5    5  503    0 -0.45912815212E+03 -0.93770031932E+02  0.63749376801E+03  0.79119516126E+03  0.00000000000E+00 0. -1.
         -2    1    5    5    0  503 -0.10833721257E+03 -0.40878676643E+02  0.22512254839E+03  0.25315643311E+03  0.00000000000E+00 0.  1.
         -1    1    6    6    0  502  0.13512446949E+03  0.53491230184E+02  0.23816858750E+03  0.27900575269E+03  0.00000000000E+00 0.  1.
<mgrwt>
<rscale>  0 0.12717565E+04</rscale>
<asrwt>0</asrwt>
<pdfrwt beam="1">  1        1 0.40947830E+00 0.12717565E+04</pdfrwt>
<pdfrwt beam="2">  1       -1 0.23371703E-01 0.12717565E+04</pdfrwt>
<totfact> 0.16272969E+01</totfact>
</mgrwt>
</event>
<event>
12    1  0.1755460E-007  0.1278843E+04  0.7818608E-02  0.9046513E-01
          2   -1    0    0  501    0  0.00000000000E+00  0.00000000000E+00  0.16640857888E+04  0.16640857888E+04  0.00000000000E+00 0. -1.
         -2   -1    0    0    0  501 -0.00000000000E+00 -0.00000000000E+00 -0.24569637417E+03  0.24569637417E+03  0.00000000000E+00 0.  1.
         23    2    1    2    0    0 -0.33134472295E+02  0.23495898894E+03  0.66748436957E+03  0.71371464197E+03  0.86888358268E+02 0.  0.
        254    2    1    2    0    0  0.33134472295E+02 -0.23495898894E+03  0.75090504506E+03  0.11960675210E+04  0.90023080837E+03 0.  0.
        -24    2    4    4    0    0  0.21383177953E+02  0.32533225865E+03  0.43014422276E+03  0.54568167581E+03  0.80287733319E+02 0.  0.
         24    2    4    4    0    0  0.11751294342E+02 -0.56029124760E+03  0.32076082230E+03  0.65038584518E+03  0.77780893760E+02 0.  0.
         13    1    3    3    0    0 -0.55690917618E+02  0.18988024633E+03  0.57899676581E+03  0.61187681854E+03  0.00000000000E+00 0. -1.
        -13    1    3    3    0    0  0.22556445323E+02  0.45078742618E+02  0.88487603765E+02  0.10183782343E+03  0.00000000000E+00 0.  1.
          4    1    6    6  502    0  0.21558769665E+02 -0.51222848400E+03  0.31312672315E+03  0.60074216192E+03  0.00000000000E+00 0. -1.
          1    1    5    5  503    0  0.33618752781E+02  0.19949946782E+03  0.31678417719E+03  0.37587560856E+03  0.00000000000E+00 0. -1.
         -2    1    5    5    0  503 -0.12235574828E+02  0.12583279084E+03  0.11336004557E+03  0.16980606724E+03  0.00000000000E+00 0.  1.
         -3    1    6    6    0  502 -0.98074753228E+01 -0.48062763602E+02  0.76340991559E+01  0.49643683256E+02  0.00000000000E+00 0.  1.
<mgrwt>
<rscale>  0 0.12788430E+04</rscale>
<asrwt>0</asrwt>
<pdfrwt beam="1">  1        2 0.25601319E+00 0.12788430E+04</pdfrwt>
<pdfrwt beam="2">  1       -2 0.37799443E-01 0.12788430E+04</pdfrwt>
<totfact> 0.66558881E+01</totfact>
</mgrwt>
</event>
<event>
12    1  0.1755460E-007  0.2126576E+04  0.7818608E-02  0.8549626E-01
         -1   -1    0    0    0  501 -0.00000000000E+00  0.00000000000E+00  0.10425364894E+04  0.10425364894E+04  0.00000000000E+00 0.  1.
          1   -1    0    0  501    0  0.00000000000E+00 -0.00000000000E+00 -0.10844530224E+04  0.10844530224E+04  0.00000000000E+00 0. -1.
         23    2    1    2    0    0  0.35795531026E+03 -0.30476754892E+03 -0.74834016539E+03  0.88842251320E+03  0.90919171861E+02 0.  0.
        254    2    1    2    0    0 -0.35795531026E+03  0.30476754892E+03  0.70642363233E+03  0.12385669986E+04  0.90221870890E+03 0.  0.
        -24    2    4    4    0    0 -0.20694192393E+03  0.61999570878E+03  0.47581421943E+03  0.81236861869E+03  0.79523345162E+02 0.  0.
         24    2    4    4    0    0 -0.15101338633E+03 -0.31522815986E+03  0.23060941291E+03  0.42619837992E+03  0.79312811709E+02 0.  0.
         13    1    3    3    0    0  0.77444708854E+02 -0.76637448881E+02 -0.25021844757E+03  0.27291070519E+03  0.00000000000E+00 0.  1.
        -13    1    3    3    0    0  0.28051060140E+03 -0.22813010004E+03 -0.49812171782E+03  0.61551180802E+03  0.00000000000E+00 0. -1.
          2    1    6    6  502    0 -0.29905898841E+02 -0.11145377669E+03  0.40369330310E+02  0.12225379321E+03  0.00000000000E+00 0. -1.
          3    1    5    5  503    0 -0.71042541927E+02  0.33826330302E+03  0.24926321252E+03  0.42614698644E+03  0.00000000000E+00 0. -1.
         -2    1    5    5    0  503 -0.13589938200E+03  0.28173240576E+03  0.22655100690E+03  0.38622163225E+03  0.00000000000E+00 0.  1.
         -1    1    6    6    0  502 -0.12110748749E+03 -0.20377438317E+03  0.19024008260E+03  0.30394458671E+03  0.00000000000E+00 0.  1.
<mgrwt>
<rscale>  0 0.21265764E+04</rscale>
<asrwt>0</asrwt>
<pdfrwt beam="1">  1        1 0.16683893E+00 0.21265764E+04</pdfrwt>
<pdfrwt beam="2">  1       -1 0.16039023E+00 0.21265764E+04</pdfrwt>
<totfact> 0.34695831E+00</totfact>
</mgrwt>
</event>
<event>
12    1  0.1755460E-007  0.3496629E+04  0.7818608E-02  0.8114589E-01
          2   -1    0    0  501    0  0.00000000000E+00  0.00000000000E+00  0.38410994193E+04  0.38410994193E+04  0.00000000000E+00 0. -1.
         -2   -1    0    0    0  501 -0.00000000000E+00 -0.00000000000E+00 -0.79576256020E+03  0.79576256020E+03  0.00000000000E+00 0.  1.
         23    2    1    2    0    0  0.14749429257E+04 -0.63998509603E+03  0.17972646649E+04  0.24133347792E+04  0.94799386009E+02 0.  0.
        254    2    1    2    0    0 -0.14749429257E+04  0.63998509603E+03  0.12480721942E+04  0.22235272003E+04  0.89518235646E+03 0.  0.
        -24    2    4    4    0    0 -0.58146031321E+03  0.47968647039E+03  0.10431340893E+04  0.12896238760E+04  0.82497317708E+02 0.  0.
         24    2    4    4    0    0 -0.89348261249E+03  0.16029862564E+03  0.20493810492E+03  0.93390332437E+03  0.78542753975E+02 0.  0.
         11    1    3    3    0    0  0.18199793081E+03 -0.92068115026E+02  0.18613714312E+03  0.27612826851E+03  0.00000000000E+00 0.  1.
        -11    1    3    3    0    0  0.12929449949E+04 -0.54791698101E+03  0.16111275218E+04  0.21372065107E+04  0.00000000000E+00 0. -1.
          2    1    6    6  502    0 -0.67008267099E+03  0.12701848231E+03  0.11942406954E+03  0.69239193323E+03  0.00000000000E+00 0. -1.
          1    1    5    5  503    0 -0.33386732574E+03  0.32469731935E+03  0.66288947008E+03  0.81013467394E+03  0.00000000000E+00 0. -1.
         -2    1    5    5    0  503 -0.24759298747E+03  0.15498915104E+03  0.38024461923E+03  0.47948920201E+03  0.00000000000E+00 0.  1.
         -1    1    6    6    0  502 -0.22339994150E+03  0.33280143337E+02  0.85514035378E+02  0.24151139114E+03  0.00000000000E+00 0.  1.
<mgrwt>
<rscale>  0 0.34966287E+04</rscale>
<asrwt>0</asrwt>
<pdfrwt beam="1">  1        2 0.59093836E+00 0.34966287E+04</pdfrwt>
<pdfrwt beam="2">  1       -2 0.12242501E+00 0.34966287E+04</pdfrwt>
<totfact> 0.18922643E-01</totfact>
</mgrwt>
</event>
<event>
12    1  0.1755460E-007  0.2769140E+04  0.7818608E-02  0.8312914E-01
         -2   -1    0    0    0  501 -0.00000000000E+00  0.00000000000E+00  0.11367282256E+04  0.11367282256E+04  0.00000000000E+00 0. -1.
          2   -1    0    0  501    0  0.00000000000E+00 -0.00000000000E+00 -0.16864487382E+04  0.16864487382E+04  0.00000000000E+00 0.  1.
         23    2    1    2    0    0 -0.73408707622E+03 -0.45157707163E+03  0.64745937508E+03  0.10820221836E+04  0.93609168380E+02 0.  0.
        254    2    1    2    0    0  0.73408707622E+03  0.45157707163E+03 -0.11971798877E+04  0.17411547802E+04  0.92497275517E+03 0.  0.
        -24    2    4    4    0    0  0.53444725026E+03  0.73133514539E+03 -0.86923602815E+03  0.12581636339E+04  0.83183525108E+02 0.  0.
         24    2    4    4    0    0  0.19963982596E+03 -0.27975807376E+03 -0.32794385956E+03  0.48299114625E+03  0.87250400501E+02 0.  0.
         13    1    3    3    0    0 -0.48756846172E+03 -0.27932133812E+03  0.47198350968E+03  0.73383366521E+03  0.00000000000E+00 0. -1.
        -13    1    3    3    0    0 -0.24651861450E+03 -0.17225573351E+03  0.17547586540E+03  0.34818851842E+03  0.00000000000E+00 0.  1.
          4    1    6    6  502    0  0.12105712373E+03 -0.20666009460E+03 -0.27037814895E+03  0.36120294203E+03  0.00000000000E+00 0. -1.
          1    1    5    5  503    0  0.48206246754E+03  0.66587156596E+03 -0.81911319561E+03  0.11604807591E+04  0.00000000000E+00 0. -1.
         -2    1    5    5    0  503  0.52384782718E+02  0.65463579433E+02 -0.50122832537E+02  0.97682874825E+02  0.00000000000E+00 0.  1.
         -3    1    6    6    0  502  0.78582702231E+02 -0.73097979163E+02 -0.57565710612E+02  0.12178820422E+03  0.00000000000E+00 0.  1.
<mgrwt>
<rscale>  0 0.27691399E+04</rscale>
<asrwt>0</asrwt>
<pdfrwt beam="1">  1        2 0.25945365E+00 0.27691399E+04</pdfrwt>
<pdfrwt beam="2">  1       -2 0.17488127E+00 0.27691399E+04</pdfrwt>
<totfact> 0.17139161E+00</totfact>
</mgrwt>
</event>
<event>
12    1  0.1755460E-007  0.1181366E+04  0.7818608E-02  0.9129325E-01
         -1   -1    0    0    0  501 -0.00000000000E+00  0.00000000000E+00  0.21515394237E+03  0.21515394237E+03  0.00000000000E+00 0.  1.
          1   -1    0    0  501    0  0.00000000000E+00 -0.00000000000E+00 -0.16216600022E+04  0.16216600022E+04  0.00000000000E+00 0. -1.
         23    2    1    2    0    0  0.17466544385E+02 -0.12406659002E+02 -0.65466434880E+03  0.66142028700E+03  0.91827997359E+02 0.  0.
        254    2    1    2    0    0 -0.17466544385E+02  0.12406659002E+02 -0.75184171100E+03  0.11753936575E+04  0.90323047249E+03 0.  0.
        -24    2    4    4    0    0  0.14546089520E+03  0.33337602109E+03 -0.71336608329E+03  0.80483019930E+03  0.81006403716E+02 0.  0.
         24    2    4    4    0    0 -0.16292743959E+03 -0.32096936209E+03 -0.38475627709E+02  0.37056345825E+03  0.79184725108E+02 0.  0.
         11    1    3    3    0    0  0.11270345056E+02 -0.16455763605E+02 -0.65364418173E+03  0.65394841474E+03  0.00000000000E+00 0. -1.
        -11    1    3    3    0    0  0.61961993296E+01  0.40491046022E+01 -0.10201670766E+01  0.74718722604E+01  0.00000000000E+00 0.  1.
          4    1    6    6  502    0 -0.12927559096E+03 -0.28898462608E+03 -0.54919131875E+02  0.32131044735E+03  0.00000000000E+00 0. -1.
          3    1    5    5  503    0  0.70169736466E+02  0.24187585086E+03 -0.52519207881E+03  0.58245552516E+03  0.00000000000E+00 0. -1.
         -4    1    5    5    0  503  0.75291158734E+02  0.91500170231E+02 -0.18817400448E+03  0.22237467413E+03  0.00000000000E+00 0.  1.
         -3    1    6    6    0  502 -0.33651848623E+02 -0.31984736010E+02  0.16443504166E+02  0.49253010899E+02  0.00000000000E+00 0.  1.
<mgrwt>
<rscale>  0 0.11813662E+04</rscale>
<asrwt>0</asrwt>
<pdfrwt beam="1">  1        1 0.24948615E+00 0.11813662E+04</pdfrwt>
<pdfrwt beam="2">  1       -1 0.33100606E-01 0.11813662E+04</pdfrwt>
<totfact> 0.45822128E+01</totfact>
</mgrwt>
</event>
<event>
12    1  0.1755460E-007  0.1449597E+04  0.7818608E-02  0.8918680E-01
         -2   -1    0    0    0  501 -0.00000000000E+00  0.00000000000E+00  0.19357517676E+04  0.19357517676E+04  0.00000000000E+00 0.  1.
          2   -1    0    0  501    0  0.00000000000E+00 -0.00000000000E+00 -0.27138440087E+03  0.27138440087E+03  0.00000000000E+00 0. -1.
         23    2    1    2    0    0 -0.18498902426E+03  0.10742712194E+03  0.10868761059E+04  0.11114765873E+04  0.91208601865E+02 0.  0.
        254    2    1    2    0    0  0.18498902426E+03 -0.10742712194E+03  0.57749126087E+03  0.10956595811E+04  0.90620761184E+03 0.  0.
        -24    2    4    4    0    0  0.40088878509E+03  0.16092387677E+03  0.59767645377E+03  0.74144003888E+03  0.76862707050E+02 0.  0.
         24    2    4    4    0    0 -0.21589976084E+03 -0.26835099871E+03 -0.20185192904E+02  0.35421954226E+03  0.80243858746E+02 0.  0.
         11    1    3    3    0    0 -0.13707292414E+03  0.62372620584E+02  0.53820455783E+03  0.55887697788E+03  0.00000000000E+00 0. -1.
        -11    1    3    3    0    0 -0.47916100116E+02  0.45054501356E+02  0.54867154805E+03  0.55259960947E+03  0.00000000000E+00 0.  1.
          2    1    6    6  502    0 -0.23689237105E+02 -0.60849966272E+02 -0.28511136079E+02  0.71251548969E+02  0.00000000000E+00 0. -1.
          1    1    5    5  503    0  0.32482991964E+02  0.70972218979E+01  0.87634376014E+02  0.93729926838E+02  0.00000000000E+00 0. -1.
         -4    1    5    5    0  503  0.36840579313E+03  0.15382665488E+03  0.51004207776E+03  0.64771011204E+03  0.00000000000E+00 0.  1.
         -1    1    6    6    0  502 -0.19221052373E+03 -0.20750103244E+03  0.83259431756E+01  0.28296799329E+03  0.00000000000E+00 0.  1.
<mgrwt>
<rscale>  0 0.14495970E+04</rscale>
<asrwt>0</asrwt>
<pdfrwt beam="1">  1        2 0.41751448E-01 0.14495970E+04</pdfrwt>
<pdfrwt beam="2">  1       -2 0.29780796E+00 0.14495970E+04</pdfrwt>
<totfact> 0.39196349E+00</totfact>
</mgrwt>
</event>
<event>
12    1  0.1755460E-007  0.2095198E+04  0.7818608E-02  0.8563362E-01
         -2   -1    0    0    0  501 -0.00000000000E+00  0.00000000000E+00  0.51575261197E+03  0.51575261197E+03  0.00000000000E+00 0.  1.
          2   -1    0    0  501    0  0.00000000000E+00 -0.00000000000E+00 -0.21278869204E+04  0.21278869204E+04  0.00000000000E+00 0. -1.
         23    2    1    2    0    0 -0.57736976022E+03  0.36084712391E+02  0.12762235892E+03  0.59932508451E+03  0.90802774979E+02 0.  0.
        254    2    1    2    0    0  0.57736976022E+03 -0.36084712391E+02 -0.17397566673E+04  0.20443144478E+04  0.90432867565E+03 0.  0.
        -24    2    4    4    0    0 -0.81440920018E+00 -0.22606631818E+03 -0.48366949270E+02  0.24509166930E+03  0.81387475086E+02 0.  0.
         24    2    4    4    0    0  0.57818416942E+03  0.18998160579E+03 -0.16913897180E+04  0.17992227785E+04  0.77546657561E+02 0.  0.
         13    1    3    3    0    0 -0.12979668193E+03  0.11000458125E+02 -0.93311861498E+01  0.13059578765E+03  0.00000000000E+00 0. -1.
        -13    1    3    3    0    0 -0.44757307829E+03  0.25084254266E+02  0.13695354507E+03  0.46872929686E+03  0.00000000000E+00 0.  1.
          4    1    6    6  502    0  0.52973028347E+03  0.16590757021E+03 -0.15928746343E+04  0.16868281168E+04  0.00000000000E+00 0. -1.
          1    1    5    5  503    0 -0.41788106593E+01 -0.13515336537E+03  0.12249679790E+02  0.13577168071E+03  0.00000000000E+00 0. -1.
         -2    1    5    5    0  503  0.33644014591E+01 -0.90912952816E+02 -0.60616629059E+02  0.10931998859E+03  0.00000000000E+00 0.  1.
         -3    1    6    6    0  502  0.48453885952E+02  0.24074035578E+02 -0.98515083749E+02  0.11239466170E+03  0.00000000000E+00 0.  1.
<mgrwt>
<rscale>  0 0.20951976E+04</rscale>
<asrwt>0</asrwt>
<pdfrwt beam="1">  1        2 0.32736722E+00 0.20951976E+04</pdfrwt>
<pdfrwt beam="2">  1       -2 0.79346554E-01 0.20951976E+04</pdfrwt>
<totfact> 0.73574819E+00</totfact>
</mgrwt>
</event>
<event>
12    1  0.1755460E-007  0.1820126E+04  0.7818608E-02  0.8695670E-01
          1   -1    0    0  501    0  0.00000000000E+00  0.00000000000E+00  0.53297445005E+03  0.53297445005E+03  0.00000000000E+00 0. -1.
         -1   -1    0    0    0  501 -0.00000000000E+00 -0.00000000000E+00 -0.15539474961E+04  0.15539474961E+04  0.00000000000E+00 0.  1.
         23    2    1    2    0    0  0.11364701513E+02 -0.55040829734E+02 -0.11762518156E+04  0.11809767263E+04  0.89325499581E+02 0.  0.
        254    2    1    2    0    0 -0.11364701513E+02  0.55040829734E+02  0.15527876959E+03  0.90594521985E+03  0.89076741953E+03 0.  0.
        -24    2    4    4    0    0 -0.12325979490E+03 -0.17526960676E+03  0.45142561678E+03  0.50628185929E+03  0.81386863014E+02 0.  0.
         24    2    4    4    0    0  0.11189509339E+03  0.23031043649E+03 -0.29614684719E+03  0.39966336056E+03  0.80401726316E+02 0.  0.
         13    1    3    3    0    0  0.46228843468E+01 -0.91202585535E+01 -0.11855489051E+02  0.15655759208E+02  0.00000000000E+00 0. -1.
        -13    1    3    3    0    0  0.67418171658E+01 -0.45920571181E+02 -0.11643963266E+04  0.11653209671E+04  0.00000000000E+00 0.  1.
          4    1    6    6  502    0 -0.57354698597E+00 -0.30635986259E+00 -0.29895306774E+02  0.29902377491E+02  0.00000000000E+00 0. -1.
          3    1    5    5  503    0 -0.11554249581E+03 -0.11867683517E+03  0.27700603482E+03  0.32274851335E+03  0.00000000000E+00 0. -1.
         -4    1    5    5    0  503 -0.77172990908E+01 -0.56592771590E+02  0.17441958195E+03  0.18353334593E+03  0.00000000000E+00 0.  1.
         -3    1    6    6    0  502  0.11246864038E+03  0.23061679635E+03 -0.26625154041E+03  0.36976098307E+03  0.00000000000E+00 0.  1.
<mgrwt>
<rscale>  0 0.18201256E+04</rscale>
<asrwt>0</asrwt>
<pdfrwt beam="1">  1        1 0.81996069E-01 0.18201256E+04</pdfrwt>
<pdfrwt beam="2">  1       -1 0.23906885E+00 0.18201256E+04</pdfrwt>
<totfact> 0.31406404E+00</totfact>
</mgrwt>
</event>
<event>
12    1  0.1755460E-007  0.1349672E+04  0.7818608E-02  0.8991076E-01
         -2   -1    0    0    0  501 -0.00000000000E+00  0.00000000000E+00  0.10850492430E+03  0.10850492430E+03  0.00000000000E+00 0.  1.
          2   -1    0    0  501    0  0.00000000000E+00 -0.00000000000E+00 -0.41970785495E+04  0.41970785495E+04  0.00000000000E+00 0. -1.
         23    2    1    2    0    0 -0.14308834023E+03  0.13618197390E+03 -0.16094446779E+03  0.27187916987E+03  0.94843862059E+02 0.  0.
        254    2    1    2    0    0  0.14308834023E+03 -0.13618197390E+03 -0.39276291574E+04  0.40337043039E+04  0.89748527028E+03 0.  0.
        -24    2    4    4    0    0 -0.23534425907E+03 -0.24293544816E+03 -0.70115572405E+03  0.78239701956E+03  0.78238063686E+02 0.  0.
         24    2    4    4    0    0  0.37843259929E+03  0.10675347426E+03 -0.32264734333E+04  0.32513072843E+04  0.79124615590E+02 0.  0.
         13    1    3    3    0    0 -0.77116019435E+02  0.12917532441E+03 -0.92743249112E+02  0.17673272234E+03  0.00000000000E+00 0.  1.
        -13    1    3    3    0    0 -0.65972320793E+02  0.70066494935E+01 -0.68201218682E+02  0.95146447530E+02  0.00000000000E+00 0. -1.
          4    1    6    6  502    0  0.35164100142E+03  0.93227853910E+02 -0.27603894051E+04  0.27842579792E+04  0.00000000000E+00 0. -1.
          3    1    5    5  503    0 -0.15255516961E+03 -0.19139334917E+03 -0.43789689894E+03  0.50165544747E+03  0.00000000000E+00 0. -1.
         -4    1    5    5    0  503 -0.82789089461E+02 -0.51542098990E+02 -0.26325882511E+03  0.28074157209E+03  0.00000000000E+00 0.  1.
         -3    1    6    6    0  502  0.26791597870E+02  0.13525620347E+02 -0.46608402817E+03  0.46704930515E+03  0.00000000000E+00 0.  1.
<mgrwt>
<rscale>  0 0.13496721E+04</rscale>
<asrwt>0</asrwt>
<pdfrwt beam="1">  1        2 0.64570432E+00 0.13496721E+04</pdfrwt>
<pdfrwt beam="2">  1       -2 0.16693067E-01 0.13496721E+04</pdfrwt>
<totfact> 0.69312141E+00</totfact>
</mgrwt>
</event>
<event>
12    1  0.1755460E-007  0.3223145E+04  0.7818608E-02  0.8182731E-01
          2   -1    0    0  501    0  0.00000000000E+00  0.00000000000E+00  0.11581117043E+04  0.11581117043E+04  0.00000000000E+00 0. -1.
         -2   -1    0    0    0  501 -0.00000000000E+00 -0.00000000000E+00 -0.22425870048E+04  0.22425870048E+04  0.00000000000E+00 0.  1.
         23    2    1    2    0    0  0.55759636441E+03  0.57302253251E+03  0.81718777824E+03  0.11469633671E+04  0.91981368810E+02 0.  0.
        254    2    1    2    0    0 -0.55759636441E+03 -0.57302253251E+03 -0.19016630788E+04  0.22537353420E+04  0.90759682578E+03 0.  0.
        -24    2    4    4    0    0 -0.25235139887E+03 -0.68690434002E+03 -0.73674841475E+03  0.10415183638E+04  0.80271256214E+02 0.  0.
         24    2    4    4    0    0 -0.30524496554E+03  0.11388180750E+03 -0.11649146640E+04  0.12122169782E+04  0.79374257466E+02 0.  0.
         13    1    3    3    0    0  0.26774082160E+03  0.26124010530E+03  0.31861577629E+03  0.49137313018E+03  0.00000000000E+00 0.  1.
        -13    1    3    3    0    0  0.28985554282E+03  0.31178242722E+03  0.49857200196E+03  0.65559023693E+03  0.00000000000E+00 0. -1.
          2    1    6    6  502    0 -0.27081989367E+03  0.11548402906E+03 -0.11000369782E+04  0.11387542884E+04  0.00000000000E+00 0. -1.
          3    1    5    5  503    0 -0.19976986078E+03 -0.48187928951E+03 -0.48118881168E+03  0.70968888918E+03  0.00000000000E+00 0. -1.
         -4    1    5    5    0  503 -0.52581538091E+02 -0.20502505051E+03 -0.25555960307E+03  0.33182947459E+03  0.00000000000E+00 0.  1.
         -1    1    6    6    0  502 -0.34425071878E+02 -0.16022215602E+01 -0.64877685798E+02  0.73462689866E+02  0.00000000000E+00 0.  1.
<mgrwt>
<rscale>  0 0.32231452E+04</rscale>
<asrwt>0</asrwt>
<pdfrwt beam="1">  1        2 0.17817103E+00 0.32231452E+04</pdfrwt>
<pdfrwt beam="2">  1       -2 0.34501339E+00 0.32231452E+04</pdfrwt>
<totfact> 0.28205650E-01</totfact>
</mgrwt>
</event>
<event>
12    1  0.1755460E-007  0.2289412E+04  0.7818608E-02  0.8482108E-01
          1   -1    0    0  501    0  0.00000000000E+00  0.00000000000E+00  0.24488437579E+04  0.24488437579E+04  0.00000000000E+00 0. -1.
         -1   -1    0    0    0  501 -0.00000000000E+00 -0.00000000000E+00 -0.53508986256E+03  0.53508986256E+03  0.00000000000E+00 0.  1.
         23    2    1    2    0    0  0.65486735895E+02  0.93278482237E+03  0.49912494722E+03  0.10628224379E+04  0.78037068844E+02 0.  0.
        254    2    1    2    0    0 -0.65486735895E+02 -0.93278482237E+03  0.14146289481E+04  0.19211111825E+04  0.90283834517E+03 0.  0.
        -24    2    4    4    0    0  0.76776504370E+02 -0.89138504179E+03  0.14877274196E+04  0.17379317390E+04  0.81313774021E+02 0.  0.
         24    2    4    4    0    0 -0.14226324026E+03 -0.41399780585E+02 -0.73098471558E+02  0.18317944357E+03  0.79111002005E+02 0.  0.
         11    1    3    3    0    0  0.69439485472E+02  0.92243434166E+03  0.50032068989E+03  0.10516785391E+04  0.00000000000E+00 0.  1.
        -11    1    3    3    0    0 -0.39527495772E+01  0.10350480714E+02 -0.11957426733E+01  0.11143898814E+02  0.00000000000E+00 0. -1.
          4    1    6    6  502    0 -0.85186621172E+02 -0.64014556967E+01 -0.78489852684E+02  0.11601032728E+03  0.00000000000E+00 0. -1.
          1    1    5    5  503    0  0.77747110990E+02 -0.64960544595E+03  0.10286929999E+04  0.12191148989E+04  0.00000000000E+00 0. -1.
         -2    1    5    5    0  503 -0.97060661986E+00 -0.24177959584E+03  0.45903441975E+03  0.51881684009E+03  0.00000000000E+00 0.  1.
         -3    1    6    6    0  502 -0.57076619092E+02 -0.34998324888E+02  0.53913811259E+01  0.67169116285E+02  0.00000000000E+00 0.  1.
<mgrwt>
<rscale>  0 0.22894117E+04</rscale>
<asrwt>0</asrwt>
<pdfrwt beam="1">  1        1 0.37674519E+00 0.22894117E+04</pdfrwt>
<pdfrwt beam="2">  1       -1 0.82321519E-01 0.22894117E+04</pdfrwt>
<totfact> 0.19509625E+00</totfact>
</mgrwt>
</event>
<event>
12    1  0.1755460E-007  0.1537135E+04  0.7818608E-02  0.8860127E-01
          1   -1    0    0  501    0  0.00000000000E+00  0.00000000000E+00  0.97083567428E+03  0.97083567428E+03  0.00000000000E+00 0. -1.
         -1   -1    0    0    0  501 -0.00000000000E+00 -0.00000000000E+00 -0.60844110211E+03  0.60844110211E+03  0.00000000000E+00 0.  1.
         23    2    1    2    0    0  0.69939802897E+02  0.20958391906E+03 -0.35152838888E+03  0.42246568235E+03  0.78025953464E+02 0.  0.
        254    2    1    2    0    0 -0.69939802897E+02 -0.20958391906E+03  0.71392296105E+03  0.11568110940E+04  0.88301127841E+03 0.  0.
        -24    2    4    4    0    0 -0.33474175106E+02  0.16726743351E+03  0.74525122307E+03  0.76858936339E+03  0.78938642704E+02 0.  0.
         24    2    4    4    0    0 -0.36465627791E+02 -0.37685135258E+03 -0.31328262018E+02  0.38822173064E+03  0.79924765842E+02 0.  0.
         13    1    3    3    0    0  0.70496310161E+02  0.18721823413E+03 -0.34559476247E+03  0.39931959228E+03  0.00000000000E+00 0.  1.
        -13    1    3    3    0    0 -0.55650726407E+00  0.22365684937E+02 -0.59336264173E+01  0.23146090070E+02  0.00000000000E+00 0. -1.
          4    1    6    6  502    0  0.48223536109E+01 -0.45288504064E+00 -0.73560573388E+01  0.88074842481E+01  0.00000000000E+00 0. -1.
          3    1    5    5  503    0 -0.33941603297E+02  0.17537965570E+02  0.15693303534E+03  0.16151653244E+03  0.00000000000E+00 0. -1.
         -4    1    5    5    0  503  0.46742819060E+00  0.14972946794E+03  0.58831818773E+03  0.60707283095E+03  0.00000000000E+00 0.  1.
         -3    1    6    6    0  502 -0.41287981402E+02 -0.37639846754E+03 -0.23972204680E+02  0.37941424640E+03  0.00000000000E+00 0.  1.
<mgrwt>
<rscale>  0 0.15371354E+04</rscale>
<asrwt>0</asrwt>
<pdfrwt beam="1">  1        1 0.14935933E+00 0.15371354E+04</pdfrwt>
<pdfrwt beam="2">  1       -1 0.93606324E-01 0.15371354E+04</pdfrwt>
<totfact> 0.17034668E+01</totfact>
</mgrwt>
</event>
<event>
12    1  0.1755460E-007  0.2673396E+04  0.7818608E-02  0.8343689E-01
          1   -1    0    0  501    0  0.00000000000E+00  0.00000000000E+00  0.85873348963E+03  0.85873348963E+03  0.00000000000E+00 0. -1.
         -1   -1    0    0    0  501 -0.00000000000E+00 -0.00000000000E+00 -0.20806944074E+04  0.20806944074E+04  0.00000000000E+00 0.  1.
         23    2    1    2    0    0 -0.61925622598E+03 -0.36218147012E+03 -0.15735231487E+04  0.17316827039E+04  0.89978868830E+02 0.  0.
        254    2    1    2    0    0  0.61925622598E+03  0.36218147012E+03  0.35156223094E+03  0.12077451931E+04  0.90575866462E+03 0.  0.
        -24    2    4    4    0    0  0.44372522823E+03 -0.24429213448E+03  0.21851779168E+03  0.55754444241E+03  0.80839686082E+02 0.  0.
         24    2    4    4    0    0  0.17553099775E+03  0.60647360459E+03  0.13304443926E+03  0.65020075069E+03  0.80242315187E+02 0.  0.
         13    1    3    3    0    0 -0.76726294497E+02 -0.13114327037E+02 -0.16317641479E+03  0.18079118393E+03  0.00000000000E+00 0. -1.
        -13    1    3    3    0    0 -0.54252993148E+03 -0.34906714308E+03 -0.14103467339E+04  0.15508915200E+04  0.00000000000E+00 0.  1.
          4    1    6    6  502    0  0.14794486114E+03  0.37334663432E+03  0.89487628235E+02  0.41144067240E+03  0.00000000000E+00 0. -1.
          3    1    5    5  503    0  0.30460308356E+03 -0.20577006996E+03  0.14114094795E+03  0.39375770138E+03  0.00000000000E+00 0. -1.
         -4    1    5    5    0  503  0.13912214467E+03 -0.38522064517E+02  0.77376843734E+02  0.16378674103E+03  0.00000000000E+00 0.  1.
         -3    1    6    6    0  502  0.27586136608E+02  0.23312697027E+03  0.43556811028E+02  0.23876007829E+03  0.00000000000E+00 0.  1.
<mgrwt>
<rscale>  0 0.26733963E+04</rscale>
<asrwt>0</asrwt>
<pdfrwt beam="1">  1        1 0.13211285E+00 0.26733963E+04</pdfrwt>
<pdfrwt beam="2">  1       -1 0.32010682E+00 0.26733963E+04</pdfrwt>
<totfact> 0.42110677E-01</totfact>
</mgrwt>
</event>
<event>
12    1  0.1755460E-007  0.1870004E+04  0.7818608E-02  0.8669933E-01
         -2   -1    0    0    0  501 -0.00000000000E+00  0.00000000000E+00  0.90885539702E+03  0.90885539702E+03  0.00000000000E+00 0.  1.
          2   -1    0    0  501    0  0.00000000000E+00 -0.00000000000E+00 -0.96190075634E+03  0.96190075634E+03  0.00000000000E+00 0. -1.
         23    2    1    2    0    0  0.16505088268E+03  0.59839990474E+03  0.33471490479E+03  0.71101462945E+03  0.90462677076E+02 0.  0.
        254    2    1    2    0    0 -0.16505088268E+03 -0.59839990474E+03 -0.38776026411E+03  0.11597415239E+04  0.89962110912E+03 0.  0.
        -24    2    4    4    0    0 -0.55702924725E+02  0.22179561615E+03  0.50911642656E+00  0.24229199429E+03  0.80056480868E+02 0.  0.
         24    2    4    4    0    0 -0.10934795795E+03 -0.82019552089E+03 -0.38826938053E+03  0.91744952961E+03  0.79264488423E+02 0.  0.
         11    1    3    3    0    0  0.12086997218E+03  0.27060636705E+03  0.14990556749E+03  0.33212804041E+03  0.00000000000E+00 0. -1.
        -11    1    3    3    0    0  0.44180910498E+02  0.32779353769E+03  0.18480933730E+03  0.37888658904E+03  0.00000000000E+00 0.  1.
          4    1    6    6  502    0 -0.98511921212E+02 -0.47307343966E+03 -0.24478427215E+03  0.54168479564E+03  0.00000000000E+00 0. -1.
          3    1    5    5  503    0 -0.48845529522E+02  0.22753851735E+03  0.38219529343E+01  0.23275366797E+03  0.00000000000E+00 0. -1.
         -4    1    5    5    0  503 -0.68573952029E+01 -0.57429011964E+01 -0.33128365077E+01  0.95383263127E+01  0.00000000000E+00 0.  1.
         -3    1    6    6    0  502 -0.10836036740E+02 -0.34712208123E+03 -0.14348510839E+03  0.37576473398E+03  0.00000000000E+00 0.  1.
<mgrwt>
<rscale>  0 0.18700040E+04</rscale>
<asrwt>0</asrwt>
<pdfrwt beam="1">  1        2 0.14798473E+00 0.18700040E+04</pdfrwt>
<pdfrwt beam="2">  1       -2 0.13982391E+00 0.18700040E+04</pdfrwt>
<totfact> 0.90196972E+00</totfact>
</mgrwt>
</event>
<event>
12    1  0.1755460E-007  0.1735881E+04  0.7818608E-02  0.8741161E-01
         -2   -1    0    0    0  501 -0.00000000000E+00  0.00000000000E+00  0.31494281888E+03  0.31494281888E+03  0.00000000000E+00 0. -1.
          2   -1    0    0  501    0  0.00000000000E+00 -0.00000000000E+00 -0.23919272137E+04  0.23919272137E+04  0.00000000000E+00 0.  1.
         23    2    1    2    0    0  0.11677814523E+03  0.43767062871E+02  0.20271286156E+03  0.25504251172E+03  0.91659628780E+02 0.  0.
        254    2    1    2    0    0 -0.11677814523E+03 -0.43767062871E+02 -0.22796972563E+04  0.24518275208E+04  0.89380418452E+03 0.  0.
        -24    2    4    4    0    0 -0.48453359284E+03 -0.13005256615E+03 -0.11166478203E+04  0.12263184454E+04  0.72581694646E+02 0.  0.
         24    2    4    4    0    0  0.36775544762E+03  0.86285503282E+02 -0.11630494360E+04  0.12255090754E+04  0.80617900725E+02 0.  0.
         11    1    3    3    0    0  0.93538532674E+02  0.53449468491E+00  0.80748083329E+02  0.12357182422E+03  0.00000000000E+00 0. -1.
        -11    1    3    3    0    0  0.23239612553E+02  0.43232568186E+02  0.12196477823E+03  0.13147068750E+03  0.00000000000E+00 0.  1.
          2    1    6    6  502    0  0.35548205204E+03  0.98130504385E+02 -0.10987678102E+04  0.11590029275E+04  0.00000000000E+00 0. -1.
          1    1    5    5  503    0 -0.30963271880E+03 -0.95498118010E+02 -0.79633165839E+03  0.85973043522E+03  0.00000000000E+00 0. -1.
         -2    1    5    5    0  503 -0.17490087404E+03 -0.34554448143E+02 -0.32031616193E+03  0.36658801020E+03  0.00000000000E+00 0.  1.
         -1    1    6    6    0  502  0.12273395579E+02 -0.11845001103E+02 -0.64281625817E+02  0.66506147895E+02  0.00000000000E+00 0.  1.
<mgrwt>
<rscale>  0 0.17358805E+04</rscale>
<asrwt>0</asrwt>
<pdfrwt beam="1">  1        2 0.36798881E+00 0.17358805E+04</pdfrwt>
<pdfrwt beam="2">  1       -2 0.48452740E-01 0.17358805E+04</pdfrwt>
<totfact> 0.15397947E+01</totfact>
</mgrwt>
</event>
<event>
12    1  0.1755460E-007  0.1389261E+04  0.7818608E-02  0.8961629E-01
         -2   -1    0    0    0  501 -0.00000000000E+00  0.00000000000E+00  0.37777678306E+03  0.37777678306E+03  0.00000000000E+00 0.  1.
          2   -1    0    0  501    0  0.00000000000E+00 -0.00000000000E+00 -0.12772395295E+04  0.12772395295E+04  0.00000000000E+00 0. -1.
         23    2    1    2    0    0 -0.99773455040E+02  0.10155916913E+03  0.16552709352E+03  0.23669429966E+03  0.91410971095E+02 0.  0.
        254    2    1    2    0    0  0.99773455040E+02 -0.10155916913E+03 -0.10649898399E+04  0.14183220129E+04  0.92583203978E+03 0.  0.
        -24    2    4    4    0    0  0.49974903834E+03  0.33857052829E+02 -0.57075454651E+03  0.76341014693E+03  0.78351124630E+02 0.  0.
         24    2    4    4    0    0 -0.39997558330E+03 -0.13541622196E+03 -0.49423529341E+03  0.65491186594E+03  0.79517334516E+02 0.  0.
         11    1    3    3    0    0 -0.11726152385E+03  0.82868101694E+02  0.13983142047E+03  0.20042508178E+03  0.00000000000E+00 0.  1.
        -11    1    3    3    0    0  0.17488068807E+02  0.18691067436E+02  0.25695673050E+02  0.36269217885E+02  0.00000000000E+00 0. -1.
          2    1    6    6  502    0 -0.24085628112E+03 -0.97890057178E+02 -0.35593228803E+03  0.44077432447E+03  0.00000000000E+00 0. -1.
          3    1    5    5  503    0  0.50076223127E+03  0.28914117160E+02 -0.56185580096E+03  0.75318044286E+03  0.00000000000E+00 0. -1.
         -4    1    5    5    0  503 -0.10131929347E+01  0.49429356684E+01 -0.88987455537E+01  0.10229704071E+02  0.00000000000E+00 0.  1.
         -1    1    6    6    0  502 -0.15911930217E+03 -0.37526164781E+02 -0.13830300538E+03  0.21413754147E+03  0.00000000000E+00 0.  1.
<mgrwt>
<rscale>  0 0.13892609E+04</rscale>
<asrwt>0</asrwt>
<pdfrwt beam="1">  1        2 0.19649839E+00 0.13892609E+04</pdfrwt>
<pdfrwt beam="2">  1       -2 0.58119504E-01 0.13892609E+04</pdfrwt>
<totfact> 0.45989417E+01</totfact>
</mgrwt>
</event>
<event>
12    1  0.1755460E-007  0.2093872E+04  0.7818608E-02  0.8563948E-01
          2   -1    0    0  501    0  0.00000000000E+00  0.00000000000E+00  0.10947418291E+04  0.10947418291E+04  0.00000000000E+00 0. -1.
         -2   -1    0    0    0  501 -0.00000000000E+00 -0.00000000000E+00 -0.10012175481E+04  0.10012175481E+04  0.00000000000E+00 0.  1.
         23    2    1    2    0    0 -0.30295611733E+03  0.22679704807E+03 -0.72288199445E+03  0.82107677807E+03  0.91593599958E+02 0.  0.
        254    2    1    2    0    0  0.30295611733E+03 -0.22679704807E+03  0.81640627548E+03  0.12748825991E+04  0.90309862412E+03 0.  0.
        -24    2    4    4    0    0 -0.18202847360E+03  0.16724451254E+03  0.51521532075E+03  0.57683529569E+03  0.78657736032E+02 0.  0.
         24    2    4    4    0    0  0.48498459093E+03 -0.39404156061E+03  0.30119095472E+03  0.69804730344E+03  0.77943836875E+02 0.  0.
         13    1    3    3    0    0 -0.12862914826E+03  0.13666087878E+03 -0.42198724943E+03  0.46183859978E+03  0.00000000000E+00 0. -1.
        -13    1    3    3    0    0 -0.17432696907E+03  0.90136169289E+02 -0.30089474502E+03  0.35923817829E+03  0.00000000000E+00 0.  1.
          4    1    6    6  502    0  0.33622099252E+03 -0.25579318304E+03  0.16508489655E+03  0.45357218981E+03  0.00000000000E+00 0. -1.
          3    1    5    5  503    0 -0.38053116713E+02  0.83911080673E+01  0.13308147007E+03  0.13866913161E+03  0.00000000000E+00 0. -1.
         -4    1    5    5    0  503 -0.14397535689E+03  0.15885340447E+03  0.38213385068E+03  0.43816616407E+03  0.00000000000E+00 0.  1.
         -3    1    6    6    0  502  0.14876359841E+03 -0.13824837757E+03  0.13610605818E+03  0.24447511363E+03  0.00000000000E+00 0.  1.
<mgrwt>
<rscale>  0 0.20938718E+04</rscale>
<asrwt>0</asrwt>
<pdfrwt beam="1">  1        2 0.16842182E+00 0.20938718E+04</pdfrwt>
<pdfrwt beam="2">  1       -2 0.15403347E+00 0.20938718E+04</pdfrwt>
<totfact> 0.56496100E+00</totfact>
</mgrwt>
</event>
<event>
12    1  0.1755460E-007  0.1926013E+04  0.7818608E-02  0.8642015E-01
          3   -1    0    0  501    0  0.00000000000E+00  0.00000000000E+00  0.75538797299E+03  0.75538797299E+03  0.00000000000E+00 0. -1.
         -3   -1    0    0    0  501 -0.00000000000E+00 -0.00000000000E+00 -0.12276888291E+04  0.12276888291E+04  0.00000000000E+00 0.  1.
         23    2    1    2    0    0  0.48465275176E+03 -0.56102514579E+03 -0.31757785102E+03  0.81205017273E+03  0.94510780208E+02 0.  0.
        254    2    1    2    0    0 -0.48465275176E+03  0.56102514579E+03 -0.15472300514E+03  0.11710266294E+04  0.89315544809E+03 0.  0.
        -24    2    4    4    0    0 -0.20041534934E+03 -0.21068319393E+03 -0.16698303834E+03  0.34480022135E+03  0.80312745518E+02 0.  0.
         24    2    4    4    0    0 -0.28423740242E+03  0.77170833972E+03  0.12260033196E+02  0.82622640806E+03  0.78581845467E+02 0.  0.
         11    1    3    3    0    0  0.12901198584E+03 -0.99407988303E+02 -0.46627684490E+02  0.16941127941E+03  0.00000000000E+00 0. -1.
        -11    1    3    3    0    0  0.35564076592E+03 -0.46161715749E+03 -0.27095016653E+03  0.64263889332E+03  0.00000000000E+00 0.  1.
          2    1    6    6  502    0 -0.13595434616E+03  0.27548049998E+03  0.24452901157E+02  0.30817370829E+03  0.00000000000E+00 0. -1.
          3    1    5    5  503    0 -0.33665302090E+02 -0.18134709056E+01 -0.11641977974E+02  0.35667588827E+02  0.00000000000E+00 0. -1.
         -4    1    5    5    0  503 -0.16675004725E+03 -0.20886972302E+03 -0.15534106036E+03  0.30913263252E+03  0.00000000000E+00 0.  1.
         -1    1    6    6    0  502 -0.14828305626E+03  0.49622783974E+03 -0.12192867961E+02  0.51805269977E+03  0.00000000000E+00 0.  1.
<mgrwt>
<rscale>  0 0.19260129E+04</rscale>
<asrwt>0</asrwt>
<pdfrwt beam="1">  1        3 0.11621353E+00 0.19260129E+04</pdfrwt>
<pdfrwt beam="2">  1       -3 0.18887520E+00 0.19260129E+04</pdfrwt>
<totfact> 0.25824700E-01</totfact>
</mgrwt>
</event>
<event>
12    1  0.1755460E-007  0.1528598E+04  0.7818608E-02  0.8865655E-01
         -2   -1    0    0    0  501 -0.00000000000E+00  0.00000000000E+00  0.24187386224E+03  0.24187386224E+03  0.00000000000E+00 0.  1.
          2   -1    0    0  501    0  0.00000000000E+00 -0.00000000000E+00 -0.24151147944E+04  0.24151147944E+04  0.00000000000E+00 0. -1.
         23    2    1    2    0    0  0.31607156403E+03  0.15124202497E+03 -0.13215316581E+04  0.13704301401E+04  0.94114089425E+02 0.  0.
        254    2    1    2    0    0 -0.31607156403E+03 -0.15124202497E+03 -0.85170927407E+03  0.12865585166E+04  0.89835891785E+03 0.  0.
        -24    2    4    4    0    0 -0.28347639658E+03 -0.61050820043E+02 -0.10274261458E+04  0.10705327482E+04  0.79685693821E+02 0.  0.
         24    2    4    4    0    0 -0.32595167455E+02 -0.90191204928E+02  0.17571687175E+03  0.21602576836E+03  0.81202310245E+02 0.  0.
         13    1    3    3    0    0 -0.35390495262E+01 -0.30360947944E+01 -0.52512863968E+02  0.52719480510E+02  0.00000000000E+00 0.  1.
        -13    1    3    3    0    0  0.31961061356E+03  0.15427811977E+03 -0.12690187941E+04  0.13177106596E+04  0.00000000000E+00 0. -1.
          4    1    6    6  502    0 -0.52440427406E+02 -0.87093475018E+02  0.16346138578E+03  0.19249648427E+03  0.00000000000E+00 0. -1.
          1    1    5    5  503    0 -0.25899842066E+03 -0.60109537296E+02 -0.82885012196E+03  0.87045152826E+03  0.00000000000E+00 0. -1.
         -2    1    5    5    0  503 -0.24477975914E+02 -0.94128274677E+00 -0.19857602386E+03  0.20008121994E+03  0.00000000000E+00 0.  1.
         -3    1    6    6    0  502  0.19845259952E+02 -0.30977299100E+01  0.12255485976E+02  0.23529284087E+02  0.00000000000E+00 0.  1.
<mgrwt>
<rscale>  0 0.15285982E+04</rscale>
<asrwt>0</asrwt>
<pdfrwt beam="1">  1        2 0.37155611E+00 0.15285982E+04</pdfrwt>
<pdfrwt beam="2">  1       -2 0.37211364E-01 0.15285982E+04</pdfrwt>
<totfact> 0.25631525E+01</totfact>
</mgrwt>
</event>
<event>
12    1  0.1755460E-007  0.1333473E+04  0.7818608E-02  0.9003434E-01
          1   -1    0    0  501    0  0.00000000000E+00  0.00000000000E+00  0.65052413633E+03  0.65052413633E+03  0.00000000000E+00 0. -1.
         -1   -1    0    0    0  501 -0.00000000000E+00 -0.00000000000E+00 -0.68335294238E+03  0.68335294238E+03  0.00000000000E+00 0.  1.
         23    2    1    2    0    0  0.24307082764E+03  0.13725472868E+03  0.21758692732E+03  0.36541249763E+03  0.90884182806E+02 0.  0.
        254    2    1    2    0    0 -0.24307082764E+03 -0.13725472868E+03 -0.25041573337E+03  0.96846458109E+03  0.89291282749E+03 0.  0.
        -24    2    4    4    0    0  0.10860957079E+03  0.31231371415E+03 -0.23080005007E+01  0.34101122174E+03  0.83351254166E+02 0.  0.
         24    2    4    4    0    0 -0.35168039844E+03 -0.44956844283E+03 -0.24810773287E+03  0.62745335935E+03  0.79683019590E+02 0.  0.
         11    1    3    3    0    0  0.85859933278E+02  0.16803943778E+02  0.29626607844E+02  0.92369023819E+02  0.00000000000E+00 0.  1.
        -11    1    3    3    0    0  0.15721089437E+03  0.12045078490E+03  0.18796031948E+03  0.27304347381E+03  0.00000000000E+00 0. -1.
          2    1    6    6  502    0 -0.25771461599E+03 -0.26875766312E+03 -0.16808095988E+03  0.40853239022E+03  0.00000000000E+00 0. -1.
          3    1    5    5  503    0  0.28018426085E+02  0.12780599924E+02  0.90787886859E+00  0.30809092468E+02  0.00000000000E+00 0. -1.
         -4    1    5    5    0  503  0.80591144710E+02  0.29953311423E+03 -0.32158793693E+01  0.31020212927E+03  0.00000000000E+00 0.  1.
         -1    1    6    6    0  502 -0.93965782448E+02 -0.18081077971E+03 -0.80026772989E+02  0.21892096913E+03  0.00000000000E+00 0.  1.
<mgrwt>
<rscale>  0 0.13334730E+04</rscale>
<asrwt>0</asrwt>
<pdfrwt beam="1">  1        1 0.10008064E+00 0.13334730E+04</pdfrwt>
<pdfrwt beam="2">  1       -1 0.10513122E+00 0.13334730E+04</pdfrwt>
<totfact> 0.25320347E+01</totfact>
</mgrwt>
</event>
<event>
12    1  0.1755460E-007  0.2089765E+04  0.7818608E-02  0.8565765E-01
          1   -1    0    0  501    0  0.00000000000E+00  0.00000000000E+00  0.23378241393E+04  0.23378241393E+04  0.00000000000E+00 0. -1.
         -1   -1    0    0    0  501 -0.00000000000E+00 -0.00000000000E+00 -0.46700680933E+03  0.46700680933E+03  0.00000000000E+00 0.  1.
         23    2    1    2    0    0  0.68877746912E+01 -0.69070051777E+03  0.14007488710E+04  0.15645386840E+04  0.92570229811E+02 0.  0.
        254    2    1    2    0    0 -0.68877746912E+01  0.69070051777E+03  0.47006845901E+03  0.12402922647E+04  0.91664927805E+03 0.  0.
        -24    2    4    4    0    0  0.26909326738E+03 -0.33589215057E+02 -0.70755631398E+02  0.29173043728E+03  0.80999177417E+02 0.  0.
         24    2    4    4    0    0 -0.27598104207E+03  0.72428973283E+03  0.54082409041E+03  0.94856182739E+03  0.80732217554E+02 0.  0.
         11    1    3    3    0    0 -0.64827817103E+01 -0.62322248335E+03  0.13096015533E+04  0.14503463444E+04  0.00000000000E+00 0. -1.
        -11    1    3    3    0    0  0.13370556402E+02 -0.67478034419E+02  0.91147317692E+02  0.11419233963E+03  0.00000000000E+00 0.  1.
          4    1    6    6  502    0 -0.23274955766E+03  0.67315724939E+03  0.49769494197E+03  0.86891500980E+03  0.00000000000E+00 0. -1.
          3    1    5    5  503    0  0.86407328863E+02  0.15491856736E+02  0.50781193472E+01  0.87931856585E+02  0.00000000000E+00 0. -1.
         -4    1    5    5    0  503  0.18268593852E+03 -0.49081071793E+02 -0.75833750745E+02  0.20379858069E+03  0.00000000000E+00 0.  1.
         -3    1    6    6    0  502 -0.43231484406E+02  0.51132483439E+02  0.43129148436E+02  0.79646817585E+02  0.00000000000E+00 0.  1.
<mgrwt>
<rscale>  0 0.20897653E+04</rscale>
<asrwt>0</asrwt>
<pdfrwt beam="1">  1        1 0.35966525E+00 0.20897653E+04</pdfrwt>
<pdfrwt beam="2">  1       -1 0.71847202E-01 0.20897653E+04</pdfrwt>
<totfact> 0.31555539E+00</totfact>
</mgrwt>
</event>
<event>
12    1  0.1755460E-007  0.2365498E+04  0.7818608E-02  0.8452535E-01
          2   -1    0    0  501    0  0.00000000000E+00  0.00000000000E+00  0.12909203897E+04  0.12909203897E+04  0.00000000000E+00 0. -1.
         -2   -1    0    0    0  501 -0.00000000000E+00 -0.00000000000E+00 -0.10836420596E+04  0.10836420596E+04  0.00000000000E+00 0.  1.
         23    2    1    2    0    0 -0.84913908410E+02  0.31667374442E+03 -0.86857324953E+03  0.93271813172E+03  0.89727315743E+02 0.  0.
        254    2    1    2    0    0  0.84913908410E+02 -0.31667374442E+03  0.10758515796E+04  0.14418443176E+04  0.90220052243E+03 0.  0.
        -24    2    4    4    0    0  0.44704344901E+03 -0.36902232151E+03  0.63320646166E+03  0.86220871754E+03  0.80175622437E+02 0.  0.
         24    2    4    4    0    0 -0.36212954060E+03  0.52348577090E+02  0.44264511792E+03  0.57963560006E+03  0.78514653064E+02 0.  0.
         11    1    3    3    0    0 -0.36648182968E+02  0.15527761128E+03 -0.30094677466E+03  0.34062176539E+03  0.00000000000E+00 0. -1.
        -11    1    3    3    0    0 -0.48265725443E+02  0.16139613314E+03 -0.56762647488E+03  0.59209636633E+03  0.00000000000E+00 0.  1.
          2    1    6    6  502    0 -0.14875877335E+03  0.40766787094E+02  0.23901881276E+03  0.28446633621E+03  0.00000000000E+00 0. -1.
          3    1    5    5  503    0  0.42301273844E+03 -0.35484563278E+03  0.57234752818E+03  0.79525901001E+03  0.00000000000E+00 0. -1.
         -4    1    5    5    0  503  0.24030710572E+02 -0.14176688727E+02  0.60858933478E+02  0.66949707527E+02  0.00000000000E+00 0.  1.
         -1    1    6    6    0  502 -0.21337076725E+03  0.11581789996E+02  0.20362630515E+03  0.29516926386E+03  0.00000000000E+00 0.  1.
<mgrwt>
<rscale>  0 0.23654984E+04</rscale>
<asrwt>0</asrwt>
<pdfrwt beam="1">  1        2 0.19860314E+00 0.23654984E+04</pdfrwt>
<pdfrwt beam="2">  1       -2 0.16671416E+00 0.23654984E+04</pdfrwt>
<totfact> 0.33958127E+00</totfact>
</mgrwt>
</event>
<event>
12    1  0.1755460E-007  0.1564320E+04  0.7818608E-02  0.8842773E-01
          1   -1    0    0  501    0  0.00000000000E+00  0.00000000000E+00  0.56649799904E+03  0.56649799904E+03  0.00000000000E+00 0. -1.
         -1   -1    0    0    0  501 -0.00000000000E+00 -0.00000000000E+00 -0.10799226216E+04  0.10799226216E+04  0.00000000000E+00 0.  1.
         23    2    1    2    0    0  0.34244450754E+03 -0.27661889012E+03 -0.45863971405E+03  0.64107506117E+03  0.82707893397E+02 0.  0.
        254    2    1    2    0    0 -0.34244450754E+03  0.27661889012E+03 -0.54784908561E+02  0.10053455595E+04  0.90218183130E+03 0.  0.
        -24    2    4    4    0    0 -0.64045065708E+02  0.27622484527E+03  0.38132727123E+03  0.48175024360E+03  0.79188849208E+02 0.  0.
         24    2    4    4    0    0 -0.27839944183E+03  0.39404484841E+00 -0.43611217979E+03  0.52359531592E+03  0.80323203436E+02 0.  0.
         11    1    3    3    0    0  0.17416106533E+02 -0.23549877886E+02 -0.76494232652E+01  0.30272614547E+02  0.00000000000E+00 0. -1.
        -11    1    3    3    0    0  0.32502840101E+03 -0.25306901223E+03 -0.45099029079E+03  0.61080244662E+03  0.00000000000E+00 0.  1.
          2    1    6    6  502    0 -0.25914430065E+03  0.20277795715E+02 -0.41054037355E+03  0.48591188077E+03  0.00000000000E+00 0. -1.
          1    1    5    5  503    0 -0.55555037957E+02  0.12330029809E+03  0.22760372421E+03  0.26475041270E+03  0.00000000000E+00 0. -1.
         -2    1    5    5    0  503 -0.84900277515E+01  0.15292454718E+03  0.15372354702E+03  0.21699983090E+03  0.00000000000E+00 0.  1.
         -1    1    6    6    0  502 -0.19255141178E+02 -0.19883750867E+02 -0.25571806239E+02  0.37683435149E+02  0.00000000000E+00 0.  1.
<mgrwt>
<rscale>  0 0.15643197E+04</rscale>
<asrwt>0</asrwt>
<pdfrwt beam="1">  1        1 0.87153539E-01 0.15643197E+04</pdfrwt>
<pdfrwt beam="2">  1       -1 0.16614194E+00 0.15643197E+04</pdfrwt>
<totfact> 0.94057640E+00</totfact>
</mgrwt>
</event>
<event>
12    1  0.1755460E-007  0.1606050E+04  0.7818608E-02  0.8816840E-01
          4   -1    0    0  501    0  0.00000000000E+00  0.00000000000E+00  0.67061595851E+03  0.67061595851E+03  0.00000000000E+00 0. -1.
         -4   -1    0    0    0  501 -0.00000000000E+00 -0.00000000000E+00 -0.96157752110E+03  0.96157752110E+03  0.00000000000E+00 0.  1.
         23    2    1    2    0    0 -0.32158915238E+03 -0.32256654319E+03  0.20501699244E+03  0.50768272779E+03  0.90780103486E+02 0.  0.
        254    2    1    2    0    0  0.32158915238E+03  0.32256654319E+03 -0.49597855504E+03  0.11245107518E+04  0.90058922167E+03 0.  0.
        -24    2    4    4    0    0  0.47458682444E+03  0.54517589749E+03 -0.35711166318E+03  0.81006397952E+03  0.78901823792E+02 0.  0.
         24    2    4    4    0    0 -0.15299767207E+03 -0.22260935430E+03 -0.13886689186E+03  0.31444677230E+03  0.81422028188E+02 0.  0.
         13    1    3    3    0    0 -0.40656564102E+01 -0.37478526918E+02  0.17928880212E+02  0.41744631842E+02  0.00000000000E+00 0.  1.
        -13    1    3    3    0    0 -0.31752349597E+03 -0.28508801628E+03  0.18708811223E+03  0.46593809595E+03  0.00000000000E+00 0. -1.
          4    1    6    6  502    0 -0.31864242701E+02 -0.10078005264E+03 -0.25873948273E+02  0.10881824375E+03  0.00000000000E+00 0. -1.
          3    1    5    5  503    0  0.15043055447E+03  0.13666707735E+03 -0.71314654424E+02  0.21539039366E+03  0.00000000000E+00 0. -1.
         -4    1    5    5    0  503  0.32415626998E+03  0.40850882015E+03 -0.28579700875E+03  0.59467358586E+03  0.00000000000E+00 0.  1.
         -3    1    6    6    0  502 -0.12113342937E+03 -0.12182930166E+03 -0.11299294359E+03  0.20562852855E+03  0.00000000000E+00 0.  1.
<mgrwt>
<rscale>  0 0.16060501E+04</rscale>
<asrwt>0</asrwt>
<pdfrwt beam="1">  1        4 0.10317169E+00 0.16060501E+04</pdfrwt>
<pdfrwt beam="2">  1       -4 0.14793500E+00 0.16060501E+04</pdfrwt>
<totfact> 0.45391240E-01</totfact>
</mgrwt>
</event>
<event>
12    1  0.1755460E-007  0.1437779E+04  0.7818608E-02  0.8926917E-01
         -1   -1    0    0    0  501 -0.00000000000E+00  0.00000000000E+00  0.47503460076E+03  0.47503460076E+03  0.00000000000E+00 0.  1.
          1   -1    0    0  501    0  0.00000000000E+00 -0.00000000000E+00 -0.10879245863E+04  0.10879245863E+04  0.00000000000E+00 0. -1.
         23    2    1    2    0    0 -0.14209005429E+03  0.36656996220E+03  0.51032881504E+01  0.40336081431E+03  0.90059881500E+02 0.  0.
        254    2    1    2    0    0  0.14209005429E+03 -0.36656996220E+03 -0.61799327366E+03  0.11595983727E+04  0.89899364794E+03 0.  0.
        -24    2    4    4    0    0 -0.25372039368E+03 -0.32177648912E+03  0.13210225151E+01  0.41899801689E+03  0.87426803289E+02 0.  0.
         24    2    4    4    0    0  0.39581044797E+03 -0.44793473074E+02 -0.61931429617E+03  0.74060035584E+03  0.79160114150E+02 0.  0.
         11    1    3    3    0    0 -0.12473870256E+03  0.36030143744E+03  0.16562383600E+02  0.38164274169E+03  0.00000000000E+00 0. -1.
        -11    1    3    3    0    0 -0.17351351731E+02  0.62685247570E+01 -0.11459095450E+02  0.21718072614E+02  0.00000000000E+00 0.  1.
          4    1    6    6  502    0  0.36837798646E+03 -0.33228540267E+02 -0.52881954690E+03  0.64533447915E+03  0.00000000000E+00 0. -1.
          3    1    5    5  503    0 -0.20703413829E+03 -0.26682066960E+03 -0.32631739515E+02  0.33929520269E+03  0.00000000000E+00 0. -1.
         -4    1    5    5    0  503 -0.46686255392E+02 -0.54955819522E+02  0.33952762030E+02  0.79702814199E+02  0.00000000000E+00 0.  1.
         -3    1    6    6    0  502  0.27432461511E+02 -0.11564932807E+02 -0.90494749273E+02  0.95265876689E+02  0.00000000000E+00 0.  1.
<mgrwt>
<rscale>  0 0.14377786E+04</rscale>
<asrwt>0</asrwt>
<pdfrwt beam="1">  1        1 0.16737301E+00 0.14377786E+04</pdfrwt>
<pdfrwt beam="2">  1       -1 0.73082247E-01 0.14377786E+04</pdfrwt>
<totfact> 0.23759319E+01</totfact>
</mgrwt>
</event>
<event>
12    1  0.1755460E-007  0.2133458E+04  0.7818608E-02  0.8546646E-01
          1   -1    0    0  501    0  0.00000000000E+00  0.00000000000E+00  0.22231126311E+04  0.22231126311E+04  0.00000000000E+00 0. -1.
         -1   -1    0    0    0  501 -0.00000000000E+00 -0.00000000000E+00 -0.51185476234E+03  0.51185476234E+03  0.00000000000E+00 0.  1.
         23    2    1    2    0    0  0.75314681935E+03  0.43778854716E+03  0.61393210577E+03  0.10697797856E+04  0.92882806245E+02 0.  0.
        254    2    1    2    0    0 -0.75314681935E+03 -0.43778854716E+03  0.10973257630E+04  0.16651876078E+04  0.89990943747E+03 0.  0.
        -24    2    4    4    0    0 -0.72214572476E+02 -0.99135813049E+02  0.84896207397E+03  0.86132685177E+03  0.78131226931E+02 0.  0.
         24    2    4    4    0    0 -0.68093224687E+03 -0.33865273411E+03  0.24836368904E+03  0.80386075608E+03  0.78442297175E+02 0.  0.
         13    1    3    3    0    0  0.87201213046E+02  0.37319541764E+02  0.10165599951E+03  0.13903503872E+03  0.00000000000E+00 0. -1.
        -13    1    3    3    0    0  0.66594560630E+03  0.40046900539E+03  0.51227610626E+03  0.93074474689E+03  0.00000000000E+00 0.  1.
          4    1    6    6  502    0 -0.18295725251E+03 -0.57068711851E+02  0.46453287543E+02  0.19720066441E+03  0.00000000000E+00 0. -1.
          3    1    5    5  503    0 -0.23061086276E+02 -0.78870631031E+02  0.34888870256E+03  0.35843509442E+03  0.00000000000E+00 0. -1.
         -4    1    5    5    0  503 -0.49153486200E+02 -0.20265182018E+02  0.50007337141E+03  0.50289175735E+03  0.00000000000E+00 0.  1.
         -1    1    6    6    0  502 -0.49797499436E+03 -0.28158402226E+03  0.20191040149E+03  0.60666009167E+03  0.00000000000E+00 0.  1.
<mgrwt>
<rscale>  0 0.21334580E+04</rscale>
<asrwt>0</asrwt>
<pdfrwt beam="1">  1        1 0.34201732E+00 0.21334580E+04</pdfrwt>
<pdfrwt beam="2">  1       -1 0.78746888E-01 0.21334580E+04</pdfrwt>
<totfact> 0.31075526E+00</totfact>
</mgrwt>
</event>
<event>
12    1  0.1755460E-007  0.2821780E+04  0.7818608E-02  0.8296538E-01
          2   -1    0    0  501    0  0.00000000000E+00  0.00000000000E+00  0.13720277685E+04  0.13720277685E+04  0.00000000000E+00 0. -1.
         -2   -1    0    0    0  501 -0.00000000000E+00 -0.00000000000E+00 -0.14508527110E+04  0.14508527110E+04  0.00000000000E+00 0.  1.
         23    2    1    2    0    0  0.11048529874E+03 -0.10596747113E+04  0.64647315197E+03  0.12496295675E+04  0.92352718174E+02 0.  0.
        254    2    1    2    0    0 -0.11048529874E+03  0.10596747113E+04 -0.72529809447E+03  0.15732509120E+04  0.90218823488E+03 0.  0.
        -24    2    4    4    0    0  0.16842770662E+03  0.38551304878E+02 -0.43138319136E+03  0.47158815806E+03  0.80310880773E+02 0.  0.
         24    2    4    4    0    0 -0.27891300536E+03  0.10211234065E+04 -0.29391490311E+03  0.11016627539E+04  0.82397678112E+02 0.  0.
         13    1    3    3    0    0 -0.42431319049E+01 -0.27032804456E+02  0.33640790330E+02  0.43364495375E+02  0.00000000000E+00 0.  1.
        -13    1    3    3    0    0  0.11472843065E+03 -0.10326419069E+04  0.61283236164E+03  0.12062650721E+04  0.00000000000E+00 0. -1.
          2    1    6    6  502    0 -0.38833477508E+02  0.12679798108E+03 -0.93745440332E+01  0.13294227716E+03  0.00000000000E+00 0. -1.
          3    1    5    5  503    0  0.27009259351E+02 -0.17950752690E+02 -0.39204512770E+02  0.50879499156E+02  0.00000000000E+00 0. -1.
         -4    1    5    5    0  503  0.14141844726E+03  0.56502057568E+02 -0.39217867859E+03  0.42070865890E+03  0.00000000000E+00 0.  1.
         -1    1    6    6    0  502 -0.24007952785E+03  0.89432542539E+03 -0.28454035908E+03  0.96872047678E+03  0.00000000000E+00 0.  1.
<mgrwt>
<rscale>  0 0.28217797E+04</rscale>
<asrwt>0</asrwt>
<pdfrwt beam="1">  1        2 0.21108120E+00 0.28217797E+04</pdfrwt>
<pdfrwt beam="2">  1       -2 0.22320811E+00 0.28217797E+04</pdfrwt>
<totfact> 0.12303262E+00</totfact>
</mgrwt>
</event>
<event>
12    1  0.1755460E-007  0.1983159E+04  0.7818608E-02  0.8614535E-01
          1   -1    0    0  501    0  0.00000000000E+00  0.00000000000E+00  0.41305179425E+03  0.41305179425E+03  0.00000000000E+00 0. -1.
         -1   -1    0    0    0  501 -0.00000000000E+00 -0.00000000000E+00 -0.23804027267E+04  0.23804027267E+04  0.00000000000E+00 0.  1.
         23    2    1    2    0    0 -0.40510966946E+03  0.17191830169E+03 -0.17192775466E+04  0.17771087961E+04  0.92361487330E+02 0.  0.
        254    2    1    2    0    0  0.40510966946E+03 -0.17191830169E+03 -0.24807338586E+03  0.10163457248E+04  0.88190049372E+03 0.  0.
        -24    2    4    4    0    0  0.41334708604E+03  0.29116181082E+03 -0.82086707696E+02  0.51828995710E+03  0.79090065338E+02 0.  0.
         24    2    4    4    0    0 -0.82374165748E+01 -0.46308011250E+03 -0.16598667816E+03  0.49805576771E+03  0.77439814018E+02 0.  0.
         11    1    3    3    0    0 -0.53684697736E+02 -0.29423795588E+01 -0.14541129564E+03  0.15503273612E+03  0.00000000000E+00 0. -1.
        -11    1    3    3    0    0 -0.35142497173E+03  0.17486068125E+03 -0.15738662510E+04  0.16220760600E+04  0.00000000000E+00 0.  1.
          2    1    6    6  502    0 -0.11081639550E+02 -0.29300171753E+03 -0.65322608962E+02  0.30039948810E+03  0.00000000000E+00 0. -1.
          1    1    5    5  503    0  0.40974154465E+03  0.28686804900E+03 -0.70116896944E+02  0.50507206435E+03  0.00000000000E+00 0. -1.
         -2    1    5    5    0  503  0.36055413841E+01  0.42937618161E+01 -0.11969810752E+02  0.13217892746E+02  0.00000000000E+00 0.  1.
         -1    1    6    6    0  502  0.28442229755E+01 -0.17007839497E+03 -0.10066406920E+03  0.19765627961E+03  0.00000000000E+00 0.  1.
<mgrwt>
<rscale>  0 0.19831587E+04</rscale>
<asrwt>0</asrwt>
<pdfrwt beam="1">  1        1 0.63546429E-01 0.19831587E+04</pdfrwt>
<pdfrwt beam="2">  1       -1 0.36621581E+00 0.19831587E+04</pdfrwt>
<totfact> 0.64798839E-01</totfact>
</mgrwt>
</event>
<event>
12    1  0.1755460E-007  0.1922125E+04  0.7818608E-02  0.8643921E-01
          2   -1    0    0  501    0  0.00000000000E+00  0.00000000000E+00  0.10992019718E+04  0.10992019718E+04  0.00000000000E+00 0. -1.
         -2   -1    0    0    0  501 -0.00000000000E+00 -0.00000000000E+00 -0.84028311622E+03  0.84028311622E+03  0.00000000000E+00 0.  1.
         23    2    1    2    0    0  0.47360476754E+02 -0.60131970985E+03 -0.34920209144E+03  0.70306324543E+03  0.92344020873E+02 0.  0.
        254    2    1    2    0    0 -0.47360476754E+02  0.60131970985E+03  0.60812094706E+03  0.12364218426E+04  0.89168350801E+03 0.  0.
        -24    2    4    4    0    0 -0.26591327264E+03  0.67569661308E+03  0.19532186071E+03  0.75614235270E+03  0.79528905297E+02 0.  0.
         24    2    4    4    0    0  0.21855279589E+03 -0.74376903224E+02  0.41279908635E+03  0.48027948993E+03  0.83474873071E+02 0.  0.
         13    1    3    3    0    0 -0.17107264020E+02 -0.36042308364E+03 -0.20815249287E+03  0.41656322208E+03  0.00000000000E+00 0. -1.
        -13    1    3    3    0    0  0.64467740775E+02 -0.24089662621E+03 -0.14104959857E+03  0.28650002335E+03  0.00000000000E+00 0.  1.
          2    1    6    6  502    0  0.65121500765E+01 -0.26820555288E+02  0.36789290752E+02  0.45991327428E+02  0.00000000000E+00 0. -1.
          3    1    5    5  503    0 -0.10822847911E+02  0.25443323289E+02  0.24772803576E+02  0.37123961721E+02  0.00000000000E+00 0. -1.
         -4    1    5    5    0  503 -0.25509042473E+03  0.65025328979E+03  0.17054905713E+03  0.71901839097E+03  0.00000000000E+00 0.  1.
         -1    1    6    6    0  502  0.21204064581E+03 -0.47556347936E+02  0.37600979560E+03  0.43428816250E+03  0.00000000000E+00 0.  1.
<mgrwt>
<rscale>  0 0.19221247E+04</rscale>
<asrwt>0</asrwt>
<pdfrwt beam="1">  1        2 0.16910800E+00 0.19221247E+04</pdfrwt>
<pdfrwt beam="2">  1       -2 0.12927433E+00 0.19221247E+04</pdfrwt>
<totfact> 0.89831359E+00</totfact>
</mgrwt>
</event>
<event>
12    1  0.1755460E-007  0.1493797E+04  0.7818608E-02  0.8888589E-01
         -1   -1    0    0    0  501 -0.00000000000E+00  0.00000000000E+00  0.19894199200E+03  0.19894199200E+03  0.00000000000E+00 0.  1.
          1   -1    0    0  501    0  0.00000000000E+00 -0.00000000000E+00 -0.28041192649E+04  0.28041192649E+04  0.00000000000E+00 0. -1.
         23    2    1    2    0    0  0.21735461050E+03 -0.15387522872E+03 -0.54687749863E+02  0.28614917002E+03  0.89274771349E+02 0.  0.
        254    2    1    2    0    0 -0.21735461050E+03  0.15387522872E+03 -0.25504895230E+04  0.27169120869E+04  0.89760451647E+03 0.  0.
        -24    2    4    4    0    0  0.16704294629E+03  0.29585814812E+03 -0.41878747210E+03  0.54496417706E+03  0.78534182216E+02 0.  0.
         24    2    4    4    0    0 -0.38439755679E+03 -0.14198291940E+03 -0.21317020509E+04  0.21719479098E+04  0.72687398744E+02 0.  0.
         11    1    3    3    0    0  0.70467847987E+02 -0.42854033128E+01 -0.55332349177E+01  0.70814539257E+02  0.00000000000E+00 0. -1.
        -11    1    3    3    0    0  0.14688676251E+03 -0.14958982541E+03 -0.49154514945E+02  0.21533463076E+03  0.00000000000E+00 0.  1.
          2    1    6    6  502    0 -0.15282451595E+03 -0.20905338591E+02 -0.73503926534E+03  0.75104932425E+03  0.00000000000E+00 0. -1.
          1    1    5    5  503    0  0.64674854220E+01  0.66321786931E+02 -0.59150191505E+02  0.89101924471E+02  0.00000000000E+00 0. -1.
         -2    1    5    5    0  503  0.16057546087E+03  0.22953636119E+03 -0.35963728060E+03  0.45586225259E+03  0.00000000000E+00 0.  1.
         -1    1    6    6    0  502 -0.23157304084E+03 -0.12107758081E+03 -0.13966627856E+04  0.14208985856E+04  0.00000000000E+00 0.  1.
<mgrwt>
<rscale>  0 0.14937966E+04</rscale>
<asrwt>0</asrwt>
<pdfrwt beam="1">  1        1 0.43140299E+00 0.14937966E+04</pdfrwt>
<pdfrwt beam="2">  1       -1 0.30606459E-01 0.14937966E+04</pdfrwt>
<totfact> 0.79289717E+00</totfact>
</mgrwt>
</event>
<event>
12    1  0.1755460E-007  0.1692475E+04  0.7818608E-02  0.8765668E-01
          1   -1    0    0  501    0  0.00000000000E+00  0.00000000000E+00  0.14314039605E+04  0.14314039605E+04  0.00000000000E+00 0. -1.
         -1   -1    0    0    0  501 -0.00000000000E+00 -0.00000000000E+00 -0.50029084550E+03  0.50029084550E+03  0.00000000000E+00 0.  1.
         23    2    1    2    0    0  0.30992567304E+03 -0.40861455796E+03  0.25691216352E+02  0.52186554167E+03  0.93079671257E+02 0.  0.
        254    2    1    2    0    0 -0.30992567304E+03  0.40861455796E+03  0.90542189864E+03  0.14098292643E+04  0.95121499159E+03 0.  0.
        -24    2    4    4    0    0 -0.53250818776E+03  0.38035912784E+03  0.96086838391E+03  0.11652933285E+04  0.80015336897E+02 0.  0.
         24    2    4    4    0    0  0.22258251471E+03  0.28255430112E+02 -0.55446485273E+02  0.24453593580E+03  0.79888459634E+02 0.  0.
         13    1    3    3    0    0  0.70212530394E+02 -0.15015354283E+03 -0.17667108503E+02  0.16669736822E+03  0.00000000000E+00 0. -1.
        -13    1    3    3    0    0  0.23971314265E+03 -0.25846101513E+03  0.43358324854E+02  0.35516817345E+03  0.00000000000E+00 0.  1.
          4    1    6    6  502    0  0.40923956406E+02  0.28492830958E+02 -0.36694334006E+02  0.61911919467E+02  0.00000000000E+00 0. -1.
          3    1    5    5  503    0 -0.27372766053E+03  0.23803732875E+03  0.49472297047E+03  0.61346509234E+03  0.00000000000E+00 0. -1.
         -4    1    5    5    0  503 -0.25878052723E+03  0.14232179910E+03  0.46614541345E+03  0.55182823618E+03  0.00000000000E+00 0.  1.
         -3    1    6    6    0  502  0.18165855831E+03 -0.23740084619E+00 -0.18752151267E+02  0.18262401634E+03  0.00000000000E+00 0.  1.
<mgrwt>
<rscale>  0 0.16924755E+04</rscale>
<asrwt>0</asrwt>
<pdfrwt beam="1">  1        1 0.22021599E+00 0.16924755E+04</pdfrwt>
<pdfrwt beam="2">  1       -1 0.76967823E-01 0.16924755E+04</pdfrwt>
<totfact> 0.11773633E+01</totfact>
</mgrwt>
</event>
<event>
12    1  0.1755460E-007  0.1374658E+04  0.7818608E-02  0.8972369E-01
          1   -1    0    0  501    0  0.00000000000E+00  0.00000000000E+00  0.71403133724E+03  0.71403133724E+03  0.00000000000E+00 0. -1.
         -1   -1    0    0    0  501 -0.00000000000E+00 -0.00000000000E+00 -0.66162548874E+03  0.66162548874E+03  0.00000000000E+00 0.  1.
         23    2    1    2    0    0  0.19668207418E+03  0.10559214896E+02 -0.31347778693E+03  0.38243380177E+03  0.95874681324E+02 0.  0.
        254    2    1    2    0    0 -0.19668207418E+03 -0.10559214896E+02  0.36588363542E+03  0.99322302421E+03  0.90212294385E+03 0.  0.
        -24    2    4    4    0    0 -0.53698170274E+03 -0.12245510151E+03  0.21706228569E+03  0.59732820372E+03  0.79626290459E+02 0.  0.
         24    2    4    4    0    0  0.34029962856E+03  0.11189588661E+03  0.14882134973E+03  0.39589482048E+03  0.79122614422E+02 0.  0.
         11    1    3    3    0    0  0.15703583452E+03 -0.22588174198E+02 -0.18359050222E+03  0.24264367175E+03  0.00000000000E+00 0.  1.
        -11    1    3    3    0    0  0.39646239668E+02  0.33147389094E+02 -0.12988728470E+03  0.13979013002E+03  0.00000000000E+00 0. -1.
          2    1    6    6  502    0  0.96544114878E+02  0.19376921587E+02  0.78291092938E+02  0.12580034357E+03  0.00000000000E+00 0. -1.
          1    1    5    5  503    0 -0.44490592062E+03 -0.10271208089E+03  0.21089164081E+03  0.50295758661E+03  0.00000000000E+00 0. -1.
         -2    1    5    5    0  503 -0.92075782124E+02 -0.19743020621E+02  0.61706448745E+01  0.94370617117E+02  0.00000000000E+00 0.  1.
         -1    1    6    6    0  502  0.24375551368E+03  0.92518965025E+02  0.70530256795E+02  0.27009447692E+03  0.00000000000E+00 0.  1.
<mgrwt>
<rscale>  0 0.13746583E+04</rscale>
<asrwt>0</asrwt>
<pdfrwt beam="1">  1        1 0.10985097E+00 0.13746583E+04</pdfrwt>
<pdfrwt beam="2">  1       -1 0.10178854E+00 0.13746583E+04</pdfrwt>
<totfact> 0.23637515E+01</totfact>
</mgrwt>
</event>
<event>
12    1  0.1755460E-007  0.2368535E+04  0.7818608E-02  0.8451378E-01
          1   -1    0    0  501    0  0.00000000000E+00  0.00000000000E+00  0.54741859201E+03  0.54741859201E+03  0.00000000000E+00 0. -1.
         -1   -1    0    0    0  501 -0.00000000000E+00 -0.00000000000E+00 -0.25620066465E+04  0.25620066465E+04  0.00000000000E+00 0.  1.
         23    2    1    2    0    0 -0.98768788791E+03 -0.13948431121E+03 -0.61007945227E+03  0.11727786714E+04  0.90717347390E+02 0.  0.
        254    2    1    2    0    0  0.98768788791E+03  0.13948431121E+03 -0.14045086023E+04  0.19366465671E+04  0.88485720604E+03 0.  0.
        -24    2    4    4    0    0  0.10386215042E+04 -0.76563319879E+02 -0.89622638744E+03  0.13763284904E+04  0.80385353289E+02 0.  0.
         24    2    4    4    0    0 -0.50933616271E+02  0.21604763109E+03 -0.50828221481E+03  0.56031807671E+03  0.79590985867E+02 0.  0.
         11    1    3    3    0    0 -0.50570274298E+03 -0.55461747024E+02 -0.36072537000E+03  0.62364578264E+03  0.00000000000E+00 0.  1.
        -11    1    3    3    0    0 -0.48198514492E+03 -0.84022564185E+02 -0.24935408227E+03  0.54913288880E+03  0.00000000000E+00 0. -1.
          2    1    6    6  502    0  0.22355672722E+01  0.74033995794E+02 -0.25071862315E+03  0.26143040812E+03  0.00000000000E+00 0. -1.
          1    1    5    5  503    0  0.16148632737E+03  0.13275295306E+02 -0.12029115272E+03  0.20180195444E+03  0.00000000000E+00 0. -1.
         -2    1    5    5    0  503  0.87713517681E+03 -0.89838615184E+02 -0.77593523472E+03  0.11745265360E+04  0.00000000000E+00 0.  1.
         -1    1    6    6    0  502 -0.53169183544E+02  0.14201363529E+03 -0.25756359166E+03  0.29888766859E+03  0.00000000000E+00 0.  1.
<mgrwt>
<rscale>  0 0.23685355E+04</rscale>
<asrwt>0</asrwt>
<pdfrwt beam="1">  1        1 0.84218243E-01 0.23685355E+04</pdfrwt>
<pdfrwt beam="2">  1       -1 0.39415488E+00 0.23685355E+04</pdfrwt>
<totfact> 0.27530117E-01</totfact>
</mgrwt>
</event>
<event>
12    1  0.1755460E-007  0.1688818E+04  0.7818608E-02  0.8767768E-01
         -2   -1    0    0    0  501 -0.00000000000E+00  0.00000000000E+00  0.80717935695E+03  0.80717935695E+03  0.00000000000E+00 0.  1.
          2   -1    0    0  501    0  0.00000000000E+00 -0.00000000000E+00 -0.88335532705E+03  0.88335532705E+03  0.00000000000E+00 0. -1.
         23    2    1    2    0    0 -0.12310509849E+03 -0.48729675885E+03  0.30644443891E+03  0.59561478076E+03  0.90751178804E+02 0.  0.
        254    2    1    2    0    0  0.12310509849E+03  0.48729675885E+03 -0.38262040902E+03  0.10949199032E+04  0.89433674902E+03 0.  0.
        -24    2    4    4    0    0  0.13155128000E+03  0.70264966128E+03 -0.45700065204E+03  0.85318689749E+03  0.89755224409E+02 0.  0.
         24    2    4    4    0    0 -0.84461815134E+01 -0.21535290243E+03  0.74380243026E+02  0.24173300575E+03  0.80338128868E+02 0.  0.
         13    1    3    3    0    0 -0.10749211460E+03 -0.44524777231E+03  0.30583111434E+03  0.55075657413E+03  0.00000000000E+00 0.  1.
        -13    1    3    3    0    0 -0.15612983885E+02 -0.42048986542E+02  0.61332457769E+00  0.44858206629E+02  0.00000000000E+00 0. -1.
          2    1    6    6  502    0 -0.42944791521E+02 -0.86023777169E+02  0.31985465939E+02  0.10132825563E+03  0.00000000000E+00 0. -1.
          3    1    5    5  503    0  0.40966758863E+01  0.10541828081E+03 -0.36080469731E+02  0.11149707161E+03  0.00000000000E+00 0. -1.
         -4    1    5    5    0  503  0.12745460411E+03  0.59723138047E+03 -0.42092018231E+03  0.74168982588E+03  0.00000000000E+00 0.  1.
         -1    1    6    6    0  502  0.34498610007E+02 -0.12932912526E+03  0.42394777087E+02  0.14040475013E+03  0.00000000000E+00 0.  1.
<mgrwt>
<rscale>  0 0.16888176E+04</rscale>
<asrwt>0</asrwt>
<pdfrwt beam="1">  1        2 0.13590082E+00 0.16888176E+04</pdfrwt>
<pdfrwt beam="2">  1       -2 0.12418144E+00 0.16888176E+04</pdfrwt>
<totfact> 0.13971626E+01</totfact>
</mgrwt>
</event>
<event>
12    1  0.1755460E-007  0.2438691E+04  0.7818608E-02  0.8425159E-01
         -2   -1    0    0    0  501 -0.00000000000E+00  0.00000000000E+00  0.99462764943E+03  0.99462764943E+03  0.00000000000E+00 0.  1.
          2   -1    0    0  501    0  0.00000000000E+00 -0.00000000000E+00 -0.14948343136E+04  0.14948343136E+04  0.00000000000E+00 0. -1.
         23    2    1    2    0    0  0.23656443641E+03  0.65379424493E+03 -0.10148156143E+04  0.12335315870E+04  0.91322493258E+02 0.  0.
        254    2    1    2    0    0 -0.23656443641E+03 -0.65379424493E+03  0.51460895007E+03  0.12559303761E+04  0.91056525898E+03 0.  0.
        -24    2    4    4    0    0 -0.34237847239E+03  0.47544277774E+02 -0.32199536189E+02  0.35673148277E+03  0.82079619679E+02 0.  0.
         24    2    4    4    0    0  0.10581403598E+03 -0.70133852270E+03  0.54680848626E+03  0.89919889333E+03  0.80540644960E+02 0.  0.
         13    1    3    3    0    0  0.85185870912E+02  0.34550596093E+03 -0.47043547675E+03  0.58986484844E+03  0.00000000000E+00 0.  1.
        -13    1    3    3    0    0  0.15137856550E+03  0.30828828400E+03 -0.54438013754E+03  0.64366673853E+03  0.00000000000E+00 0. -1.
          4    1    6    6  502    0  0.18414905609E+02 -0.13021837591E+03  0.64011781135E+02  0.14626497290E+03  0.00000000000E+00 0. -1.
          1    1    5    5  503    0 -0.19336726219E+03 -0.84081699337E+00  0.12609034068E+02  0.19377975333E+03  0.00000000000E+00 0. -1.
         -2    1    5    5    0  503 -0.14901121020E+03  0.48385094767E+02 -0.44808570257E+02  0.16295172944E+03  0.00000000000E+00 0.  1.
         -3    1    6    6    0  502  0.87399130370E+02 -0.57112014679E+03  0.48279670513E+03  0.75293392044E+03  0.00000000000E+00 0.  1.
<mgrwt>
<rscale>  0 0.24386911E+04</rscale>
<asrwt>0</asrwt>
<pdfrwt beam="1">  1        2 0.22997451E+00 0.24386911E+04</pdfrwt>
<pdfrwt beam="2">  1       -2 0.15301964E+00 0.24386911E+04</pdfrwt>
<totfact> 0.32553991E+00</totfact>
</mgrwt>
</event>
<event>
12    1  0.1755460E-007  0.2122396E+04  0.7818608E-02  0.8551441E-01
          2   -1    0    0  501    0  0.00000000000E+00  0.00000000000E+00  0.22221073876E+04  0.22221073876E+04  0.00000000000E+00 0. -1.
         -2   -1    0    0    0  501 -0.00000000000E+00 -0.00000000000E+00 -0.50678965489E+03  0.50678965489E+03  0.00000000000E+00 0.  1.
         23    2    1    2    0    0 -0.35479885341E+03 -0.17855294170E+03 -0.28636015668E+03  0.49807731702E+03  0.91189336169E+02 0.  0.
        254    2    1    2    0    0  0.35479885341E+03  0.17855294170E+03  0.20016778894E+04  0.22308197255E+04  0.90115420173E+03 0.  0.
        -24    2    4    4    0    0  0.59872569157E+03 -0.79336248780E+02  0.10913202061E+04  0.12504194156E+04  0.88330224383E+02 0.  0.
         24    2    4    4    0    0 -0.24392683816E+03  0.25788919048E+03  0.91035768323E+03  0.98040030983E+03  0.80165573318E+02 0.  0.
         11    1    3    3    0    0 -0.10327121439E+03 -0.17217380970E+02 -0.10628098818E+03  0.14918790292E+03  0.00000000000E+00 0. -1.
        -11    1    3    3    0    0 -0.25152763902E+03 -0.16133556073E+03 -0.18007916849E+03  0.34888941410E+03  0.00000000000E+00 0.  1.
          4    1    6    6  502    0 -0.53739263002E+01  0.74579719781E+01  0.85122872936E+02  0.85617778100E+02  0.00000000000E+00 0. -1.
          1    1    5    5  503    0  0.19245401443E+03  0.12606882702E+02  0.37883712392E+03  0.42510592518E+03  0.00000000000E+00 0. -1.
         -2    1    5    5    0  503  0.40627167714E+03 -0.91943131482E+02  0.71248308223E+03  0.82531349046E+03  0.00000000000E+00 0.  1.
         -3    1    6    6    0  502 -0.23855291186E+03  0.25043121850E+03  0.82523481030E+03  0.89478253173E+03  0.00000000000E+00 0.  1.
<mgrwt>
<rscale>  0 0.21223959E+04</rscale>
<asrwt>0</asrwt>
<pdfrwt beam="1">  1        2 0.34186267E+00 0.21223959E+04</pdfrwt>
<pdfrwt beam="2">  1       -2 0.77967640E-01 0.21223959E+04</pdfrwt>
<totfact> 0.67592958E+00</totfact>
</mgrwt>
</event>
<event>
12    1  0.1755460E-007  0.1754353E+04  0.7818608E-02  0.8730958E-01
          1   -1    0    0  501    0  0.00000000000E+00  0.00000000000E+00  0.10242938669E+04  0.10242938669E+04  0.00000000000E+00 0. -1.
         -1   -1    0    0    0  501 -0.00000000000E+00 -0.00000000000E+00 -0.75118972042E+03  0.75118972042E+03  0.00000000000E+00 0.  1.
         23    2    1    2    0    0 -0.36781619988E+02 -0.61514960190E+03 -0.63577161626E+02  0.62719751198E+03  0.97840396897E+02 0.  0.
        254    2    1    2    0    0  0.36781619988E+02  0.61514960190E+03  0.33668130814E+03  0.11482860754E+04  0.90853986559E+03 0.  0.
        -24    2    4    4    0    0  0.55853846823E+02 -0.76101560531E+02  0.42890731528E+03  0.44623776510E+03  0.79092086683E+02 0.  0.
         24    2    4    4    0    0 -0.19072226834E+02  0.69125116243E+03 -0.92226007142E+02  0.70204831028E+03  0.78576549772E+02 0.  0.
         13    1    3    3    0    0  0.22134388525E+02 -0.42508273943E+02  0.89607944240E+00  0.47934199350E+02  0.00000000000E+00 0. -1.
        -13    1    3    3    0    0 -0.58916008513E+02 -0.57264132795E+03 -0.64473241068E+02  0.57926331263E+03  0.00000000000E+00 0.  1.
          4    1    6    6  502    0 -0.28903804787E+02  0.60746757689E+03 -0.57657754966E+02  0.61088190643E+03  0.00000000000E+00 0. -1.
          1    1    5    5  503    0  0.49686965022E+02 -0.92504087681E+02  0.35020435049E+03  0.36560755987E+03  0.00000000000E+00 0. -1.
         -2    1    5    5    0  503  0.61668818001E+01  0.16402527151E+02  0.78702964791E+02  0.80630205227E+02  0.00000000000E+00 0.  1.
         -3    1    6    6    0  502  0.98315779523E+01  0.83783585544E+02 -0.34568252177E+02  0.91166403846E+02  0.00000000000E+00 0.  1.
<mgrwt>
<rscale>  0 0.17543535E+04</rscale>
<asrwt>0</asrwt>
<pdfrwt beam="1">  1        1 0.15758367E+00 0.17543535E+04</pdfrwt>
<pdfrwt beam="2">  1       -1 0.11556765E+00 0.17543535E+04</pdfrwt>
<totfact> 0.93095963E+00</totfact>
</mgrwt>
</event>
<event>
12    1  0.1755460E-007  0.1660041E+04  0.7818608E-02  0.8784488E-01
         -2   -1    0    0    0  501 -0.00000000000E+00  0.00000000000E+00  0.18525301502E+04  0.18525301502E+04  0.00000000000E+00 0.  1.
          2   -1    0    0  501    0  0.00000000000E+00 -0.00000000000E+00 -0.37188835223E+03  0.37188835223E+03  0.00000000000E+00 0. -1.
         23    2    1    2    0    0 -0.54574436450E+03 -0.20811223376E+03  0.55740416441E+03  0.81089100390E+03  0.75479828343E+02 0.  0.
        254    2    1    2    0    0  0.54574436450E+03  0.20811223376E+03  0.92323763357E+03  0.14135274985E+04  0.89696412853E+03 0.  0.
        -24    2    4    4    0    0  0.52934064323E+03 -0.16426086291E+03  0.86145352039E+03  0.10274065757E+04  0.79239866018E+02 0.  0.
         24    2    4    4    0    0  0.16403721270E+02  0.37237309667E+03  0.61784113187E+02  0.38612092283E+03  0.79632187054E+02 0.  0.
         13    1    3    3    0    0 -0.11057339073E+03 -0.68228120699E+02  0.97279452603E+02  0.16231094569E+03  0.00000000000E+00 0. -1.
        -13    1    3    3    0    0 -0.43517097377E+03 -0.13988411306E+03  0.46012471181E+03  0.64858005821E+03  0.00000000000E+00 0.  1.
          2    1    6    6  502    0  0.23405260728E+02  0.22354443684E+03  0.73982605198E+02  0.23662913461E+03  0.00000000000E+00 0. -1.
          1    1    5    5  503    0  0.20408187362E+03 -0.10368433513E+03  0.36255961394E+03  0.42877654571E+03  0.00000000000E+00 0. -1.
         -2    1    5    5    0  503  0.32525876961E+03 -0.60576527776E+02  0.49889390645E+03  0.59863003000E+03  0.00000000000E+00 0.  1.
         -1    1    6    6    0  502 -0.70015394582E+01  0.14882865982E+03 -0.12198492011E+02  0.14949178823E+03  0.00000000000E+00 0.  1.
<mgrwt>
<rscale>  0 0.16600414E+04</rscale>
<asrwt>0</asrwt>
<pdfrwt beam="1">  1        2 0.57213594E-01 0.16600414E+04</pdfrwt>
<pdfrwt beam="2">  1       -2 0.28500463E+00 0.16600414E+04</pdfrwt>
<totfact> 0.32398776E+00</totfact>
</mgrwt>
</event>
<event>
12    1  0.1755460E-007  0.1613311E+04  0.7818608E-02  0.8812412E-01
         -1   -1    0    0    0  501 -0.00000000000E+00  0.00000000000E+00  0.34796467687E+03  0.34796467687E+03  0.00000000000E+00 0.  1.
          1   -1    0    0  501    0  0.00000000000E+00 -0.00000000000E+00 -0.18699986529E+04  0.18699986529E+04  0.00000000000E+00 0. -1.
         23    2    1    2    0    0  0.42444287398E+03  0.24815283938E+03 -0.16859608273E+03  0.52770760526E+03  0.91209059676E+02 0.  0.
        254    2    1    2    0    0 -0.42444287398E+03 -0.24815283938E+03 -0.13534378933E+04  0.16902557245E+04  0.88512072526E+03 0.  0.
        -24    2    4    4    0    0  0.14629691973E+02  0.15617569801E+03 -0.94788673259E+03  0.96401275914E+03  0.78907955431E+02 0.  0.
         24    2    4    4    0    0 -0.43907256596E+03 -0.40432853739E+03 -0.40555116071E+03  0.72624296538E+03  0.81797411221E+02 0.  0.
         11    1    3    3    0    0  0.11696643088E+03  0.27599539889E+02 -0.23562511049E+02  0.12246661782E+03  0.00000000000E+00 0. -1.
        -11    1    3    3    0    0  0.30747644311E+03  0.22055329949E+03 -0.14503357169E+03  0.40524098744E+03  0.00000000000E+00 0.  1.
          4    1    6    6  502    0 -0.10678356871E+03 -0.13468891451E+03 -0.86185313867E+02  0.19228037488E+03  0.00000000000E+00 0. -1.
          1    1    5    5  503    0  0.44614568139E+02  0.59525368100E+02 -0.40510021997E+03  0.41187366675E+03  0.00000000000E+00 0. -1.
         -2    1    5    5    0  503 -0.29984876166E+02  0.96650329910E+02 -0.54278651262E+03  0.55213909239E+03  0.00000000000E+00 0.  1.
         -3    1    6    6    0  502 -0.33228899725E+03 -0.26963962288E+03 -0.31936584685E+03  0.53396259050E+03  0.00000000000E+00 0.  1.
<mgrwt>
<rscale>  0 0.16133115E+04</rscale>
<asrwt>0</asrwt>
<pdfrwt beam="1">  1        1 0.28769210E+00 0.16133115E+04</pdfrwt>
<pdfrwt beam="2">  1       -1 0.53533028E-01 0.16133115E+04</pdfrwt>
<totfact> 0.12324504E+01</totfact>
</mgrwt>
</event>
<event>
12    1  0.1755460E-007  0.2353844E+04  0.7818608E-02  0.8456988E-01
          2   -1    0    0  501    0  0.00000000000E+00  0.00000000000E+00  0.22516466244E+04  0.22516466244E+04  0.00000000000E+00 0. -1.
         -2   -1    0    0    0  501 -0.00000000000E+00 -0.00000000000E+00 -0.61517016978E+03  0.61517016978E+03  0.00000000000E+00 0.  1.
         23    2    1    2    0    0 -0.77627414188E+03  0.55366394648E+03  0.31798686958E+03  0.10091547426E+04  0.90179467340E+02 0.  0.
        254    2    1    2    0    0  0.77627414188E+03 -0.55366394648E+03  0.13184895850E+04  0.18576620516E+04  0.89629693908E+03 0.  0.
        -24    2    4    4    0    0  0.79877053432E+02 -0.48700238899E+03  0.92164434679E+03  0.10484773325E+04  0.79528260695E+02 0.  0.
         24    2    4    4    0    0  0.69639708844E+03 -0.66661557490E+02  0.39684523822E+03  0.80918471905E+03  0.88775550694E+02 0.  0.
         13    1    3    3    0    0 -0.33130835213E+03  0.25045440586E+03  0.18416170309E+03  0.45432165532E+03  0.00000000000E+00 0. -1.
        -13    1    3    3    0    0 -0.44496578974E+03  0.30320954062E+03  0.13382516648E+03  0.55483308729E+03  0.00000000000E+00 0.  1.
          4    1    6    6  502    0  0.68432880293E+03 -0.53521332397E+02  0.39290389589E+03  0.79091334225E+03  0.00000000000E+00 0. -1.
          1    1    5    5  503    0  0.22470639289E+02 -0.31046284741E+03  0.52079324286E+03  0.60672704824E+03  0.00000000000E+00 0. -1.
         -2    1    5    5    0  503  0.57406414143E+02 -0.17653954158E+03  0.40085110393E+03  0.44175028427E+03  0.00000000000E+00 0.  1.
         -3    1    6    6    0  502  0.12068285512E+02 -0.13140225093E+02  0.39413423318E+01  0.18271376798E+02  0.00000000000E+00 0.  1.
<mgrwt>
<rscale>  0 0.23538444E+04</rscale>
<asrwt>0</asrwt>
<pdfrwt beam="1">  1        2 0.34640717E+00 0.23538444E+04</pdfrwt>
<pdfrwt beam="2">  1       -2 0.94641566E-01 0.23538444E+04</pdfrwt>
<totfact> 0.40977650E+00</totfact>
</mgrwt>
</event>
<event>
12    1  0.1755460E-007  0.1840157E+04  0.7818608E-02  0.8685231E-01
         -2   -1    0    0    0  501 -0.00000000000E+00  0.00000000000E+00  0.26538271702E+03  0.26538271702E+03  0.00000000000E+00 0.  1.
          2   -1    0    0  501    0  0.00000000000E+00 -0.00000000000E+00 -0.31899011842E+04  0.31899011842E+04  0.00000000000E+00 0. -1.
         23    2    1    2    0    0 -0.45130763560E+02 -0.31560960962E+03  0.47370761522E+02  0.33463228305E+03  0.89936445923E+02 0.  0.
        254    2    1    2    0    0  0.45130763560E+02  0.31560960962E+03 -0.29718892287E+04  0.31206516182E+04  0.89704778181E+03 0.  0.
        -24    2    4    4    0    0 -0.78739990986E+02  0.46849214358E+03 -0.28172568794E+04  0.28581395483E+04  0.79627118591E+02 0.  0.
         24    2    4    4    0    0  0.12387075455E+03 -0.15288253395E+03 -0.15463234928E+03  0.26251206990E+03  0.79274146968E+02 0.  0.
         13    1    3    3    0    0 -0.60513292345E+02 -0.30614946748E+03  0.50999998611E+02  0.31621251532E+03  0.00000000000E+00 0.  1.
        -13    1    3    3    0    0  0.15382528785E+02 -0.94601421411E+01 -0.36292370885E+01  0.18419767724E+02  0.00000000000E+00 0. -1.
          4    1    6    6  502    0 -0.42337107584E+01 -0.22171183305E+00  0.54398391076E+01  0.68967610108E+01  0.00000000000E+00 0. -1.
          3    1    5    5  503    0 -0.42467972058E+02  0.83671579867E+02 -0.47071545283E+03  0.47997656137E+03  0.00000000000E+00 0. -1.
         -4    1    5    5    0  503 -0.36272018928E+02  0.38482056371E+03 -0.23465414266E+04  0.23781629869E+04  0.00000000000E+00 0.  1.
         -3    1    6    6    0  502  0.12810446530E+03 -0.15266082212E+03 -0.16007218839E+03  0.25561530889E+03  0.00000000000E+00 0.  1.
<mgrwt>
<rscale>  0 0.18401572E+04</rscale>
<asrwt>0</asrwt>
<pdfrwt beam="1">  1        2 0.49075402E+00 0.18401572E+04</pdfrwt>
<pdfrwt beam="2">  1       -2 0.40828111E-01 0.18401572E+04</pdfrwt>
<totfact> 0.70727792E+00</totfact>
</mgrwt>
</event>
<event>
12    1  0.1755460E-007  0.3448757E+04  0.7818608E-02  0.8126042E-01
          2   -1    0    0  501    0  0.00000000000E+00  0.00000000000E+00  0.11080684146E+04  0.11080684146E+04  0.00000000000E+00 0. -1.
         -2   -1    0    0    0  501 -0.00000000000E+00 -0.00000000000E+00 -0.26834815866E+04  0.26834815866E+04  0.00000000000E+00 0.  1.
         23    2    1    2    0    0 -0.90346033367E+03  0.92649824697E+03 -0.17932691239E+04  0.22133107752E+04  0.91054162905E+02 0.  0.
        254    2    1    2    0    0  0.90346033367E+03 -0.92649824697E+03  0.21785595192E+03  0.15782392259E+04  0.87677720222E+03 0.  0.
        -24    2    4    4    0    0  0.93019713851E+03 -0.86285226574E+03 -0.66138431544E+02  0.12730588297E+04  0.80769689788E+02 0.  0.
         24    2    4    4    0    0 -0.26736804841E+02 -0.63645981235E+02  0.28399438346E+03  0.30518039623E+03  0.87844161692E+02 0.  0.
         13    1    3    3    0    0 -0.21104374918E+03  0.18962577191E+03 -0.45060681862E+03  0.53248840591E+03  0.00000000000E+00 0.  1.
        -13    1    3    3    0    0 -0.69241658449E+03  0.73687247507E+03 -0.13426623053E+04  0.16808223693E+04  0.00000000000E+00 0. -1.
          4    1    6    6  502    0 -0.16813857525E+02 -0.48479949341E+02  0.28235818971E+03  0.28698285417E+03  0.00000000000E+00 0. -1.
          3    1    5    5  503    0  0.54103127103E+03 -0.44841182490E+03 -0.27765601489E+02  0.70324883901E+03  0.00000000000E+00 0. -1.
         -4    1    5    5    0  503  0.38916586748E+03 -0.41444044084E+03 -0.38372830055E+02  0.56980999070E+03  0.00000000000E+00 0.  1.
         -3    1    6    6    0  502 -0.99229473157E+01 -0.15166031895E+02  0.16361937524E+01  0.18197542055E+02  0.00000000000E+00 0.  1.
<mgrwt>
<rscale>  0 0.34487570E+04</rscale>
<asrwt>0</asrwt>
<pdfrwt beam="1">  1        2 0.17047207E+00 0.34487570E+04</pdfrwt>
<pdfrwt beam="2">  1       -2 0.41284331E+00 0.34487570E+04</pdfrwt>
<totfact> 0.10852820E-01</totfact>
</mgrwt>
</event>
<event>
12    1  0.1755460E-007  0.1516956E+04  0.7818608E-02  0.8873255E-01
         -2   -1    0    0    0  501 -0.00000000000E+00  0.00000000000E+00  0.25104484089E+03  0.25104484089E+03  0.00000000000E+00 0.  1.
          2   -1    0    0  501    0  0.00000000000E+00 -0.00000000000E+00 -0.22915772626E+04  0.22915772626E+04  0.00000000000E+00 0. -1.
         23    2    1    2    0    0  0.20670976613E+03 -0.40351184964E+03 -0.93375973940E+03  0.10421112194E+04  0.92400229291E+02 0.  0.
        254    2    1    2    0    0 -0.20670976613E+03  0.40351184964E+03 -0.11067726824E+04  0.15005108842E+04  0.90611059088E+03 0.  0.
        -24    2    4    4    0    0  0.19616536455E+03  0.46481836087E+03 -0.29828522662E+03  0.59147695419E+03  0.79586129830E+02 0.  0.
         24    2    4    4    0    0 -0.40287513068E+03 -0.61306511226E+02 -0.80848745573E+03  0.90903392999E+03  0.81387103118E+02 0.  0.
         11    1    3    3    0    0  0.16621540819E+03 -0.35737036039E+03 -0.73392048547E+03  0.83305486938E+03  0.00000000000E+00 0. -1.
        -11    1    3    3    0    0  0.40494357936E+02 -0.46141489257E+02 -0.19983925393E+03  0.20905634998E+03  0.00000000000E+00 0.  1.
          4    1    6    6  502    0 -0.29368375182E+03 -0.71488780549E+02 -0.64311675352E+03  0.71060534088E+03  0.00000000000E+00 0. -1.
          3    1    5    5  503    0  0.16231287483E+03  0.43933718748E+03 -0.27198554243E+03  0.54160757835E+03  0.00000000000E+00 0. -1.
         -4    1    5    5    0  503  0.33852489718E+02  0.25481173394E+02 -0.26299684197E+02  0.49869375838E+02  0.00000000000E+00 0.  1.
         -3    1    6    6    0  502 -0.10919137886E+03  0.10182269323E+02 -0.16537070222E+03  0.19842858911E+03  0.00000000000E+00 0.  1.
<mgrwt>
<rscale>  0 0.15169557E+04</rscale>
<asrwt>0</asrwt>
<pdfrwt beam="1">  1        2 0.35255033E+00 0.15169557E+04</pdfrwt>
<pdfrwt beam="2">  1       -2 0.38622285E-01 0.15169557E+04</pdfrwt>
<totfact> 0.28055089E+01</totfact>
</mgrwt>
</event>
<event>
12    1  0.1755460E-007  0.2004317E+04  0.7818608E-02  0.8604605E-01
         -2   -1    0    0    0  501 -0.00000000000E+00  0.00000000000E+00  0.52093820651E+03  0.52093820651E+03  0.00000000000E+00 0.  1.
          2   -1    0    0  501    0  0.00000000000E+00 -0.00000000000E+00 -0.19279089982E+04  0.19279089982E+04  0.00000000000E+00 0. -1.
         23    2    1    2    0    0 -0.11075311105E+03  0.42810250201E+03 -0.13679954273E+04  0.14405751782E+04  0.91144671004E+02 0.  0.
        254    2    1    2    0    0  0.11075311105E+03 -0.42810250201E+03 -0.38975364434E+02  0.10082720266E+04  0.90529298942E+03 0.  0.
        -24    2    4    4    0    0 -0.83793438272E+02 -0.31975553731E+03 -0.43171018025E+03  0.54943267959E+03  0.78978767600E+02 0.  0.
         24    2    4    4    0    0  0.19454654933E+03 -0.10834696470E+03  0.39273481582E+03  0.45883934698E+03  0.81887032937E+02 0.  0.
         11    1    3    3    0    0 -0.41869370486E+02  0.14202090726E+03 -0.33036284870E+03  0.36202568153E+03  0.00000000000E+00 0. -1.
        -11    1    3    3    0    0 -0.68883740567E+02  0.28608159475E+03 -0.10376325786E+04  0.10785494966E+04  0.00000000000E+00 0.  1.
          2    1    6    6  502    0  0.14697561196E+03 -0.40759134131E+02  0.28271152393E+03  0.32123035860E+03  0.00000000000E+00 0. -1.
          3    1    5    5  503    0 -0.42318450082E+02 -0.97492941233E+02 -0.87803333493E+02  0.13785916792E+03  0.00000000000E+00 0. -1.
         -4    1    5    5    0  503 -0.41474988190E+02 -0.22226259608E+03 -0.34390684676E+03  0.41157351167E+03  0.00000000000E+00 0.  1.
         -1    1    6    6    0  502  0.47570937368E+02 -0.67587830570E+02  0.11002329189E+03  0.13760898838E+03  0.00000000000E+00 0.  1.
<mgrwt>
<rscale>  0 0.20043168E+04</rscale>
<asrwt>0</asrwt>
<pdfrwt beam="1">  1        2 0.29660138E+00 0.20043168E+04</pdfrwt>
<pdfrwt beam="2">  1       -2 0.80144340E-01 0.20043168E+04</pdfrwt>
<totfact> 0.93677091E+00</totfact>
</mgrwt>
</event>
<event>
12    1  0.1755460E-007  0.1378091E+04  0.7818608E-02  0.8969832E-01
         -1   -1    0    0    0  501 -0.00000000000E+00  0.00000000000E+00  0.87604288231E+03  0.87604288231E+03  0.00000000000E+00 0.  1.
          1   -1    0    0  501    0  0.00000000000E+00 -0.00000000000E+00 -0.54196410477E+03  0.54196410477E+03  0.00000000000E+00 0. -1.
         23    2    1    2    0    0 -0.36319146620E+03  0.12320303912E+03  0.11367436598E+03  0.41051443386E+03  0.92267052396E+02 0.  0.
        254    2    1    2    0    0  0.36319146620E+03 -0.12320303912E+03  0.22040441156E+03  0.10074925532E+04  0.90519396275E+03 0.  0.
        -24    2    4    4    0    0 -0.81273354376E+02  0.18708144707E+03 -0.21575979423E+03  0.30720204467E+03  0.78841495897E+02 0.  0.
         24    2    4    4    0    0  0.44446482058E+03 -0.31028448619E+03  0.43616420579E+03  0.70029050855E+03  0.79637571855E+02 0.  0.
         11    1    3    3    0    0 -0.18977399381E+03  0.47688355899E+02  0.12655627716E+02  0.19608292360E+03  0.00000000000E+00 0. -1.
        -11    1    3    3    0    0 -0.17341747239E+03  0.75514683222E+02  0.10101873826E+03  0.21443151026E+03  0.00000000000E+00 0.  1.
          4    1    6    6  502    0  0.34136271683E+01 -0.18956309467E+02  0.13944480224E+02  0.23779046402E+02  0.00000000000E+00 0. -1.
          1    1    5    5  503    0 -0.66238537975E+02  0.58655628225E+02 -0.74140476361E+02  0.11543325721E+03  0.00000000000E+00 0. -1.
         -2    1    5    5    0  503 -0.15034816401E+02  0.12842581884E+03 -0.14161931787E+03  0.19176878746E+03  0.00000000000E+00 0.  1.
         -3    1    6    6    0  502  0.44105119341E+03 -0.29132817672E+03  0.42221972557E+03  0.67651146215E+03  0.00000000000E+00 0.  1.
<mgrwt>
<rscale>  0 0.13780911E+04</rscale>
<asrwt>0</asrwt>
<pdfrwt beam="1">  1        1 0.83379093E-01 0.13780911E+04</pdfrwt>
<pdfrwt beam="2">  1       -1 0.13477583E+00 0.13780911E+04</pdfrwt>
<totfact> 0.17899562E+01</totfact>
</mgrwt>
</event>
<event>
12    1  0.1755460E-007  0.1190280E+04  0.7818608E-02  0.9121407E-01
          1   -1    0    0  501    0  0.00000000000E+00  0.00000000000E+00  0.12843585100E+04  0.12843585100E+04  0.00000000000E+00 0. -1.
         -1   -1    0    0    0  501 -0.00000000000E+00 -0.00000000000E+00 -0.27577334703E+03  0.27577334703E+03  0.00000000000E+00 0.  1.
         23    2    1    2    0    0 -0.17086566374E+03 -0.16546878900E+03  0.12785300153E+03  0.28524155864E+03  0.91876882836E+02 0.  0.
        254    2    1    2    0    0  0.17086566374E+03  0.16546878900E+03  0.88073216139E+03  0.12748902983E+04  0.89055103027E+03 0.  0.
        -24    2    4    4    0    0 -0.35493595189E+03  0.13915759329E+03  0.38288550662E+03  0.54622181513E+03  0.80078676476E+02 0.  0.
         24    2    4    4    0    0  0.52580161562E+03  0.26311195707E+02  0.49784665477E+03  0.72866848322E+03  0.77115813895E+02 0.  0.
         13    1    3    3    0    0 -0.12524218680E+03 -0.16516752309E+03  0.90078683863E+02  0.22600903815E+03  0.00000000000E+00 0.  1.
        -13    1    3    3    0    0 -0.45623476933E+02 -0.30126590840E+00  0.37774317667E+02  0.59232520491E+02  0.00000000000E+00 0. -1.
          2    1    6    6  502    0  0.19411355424E+02 -0.14165634412E+02  0.24414549432E+02  0.34256913779E+02  0.00000000000E+00 0. -1.
          1    1    5    5  503    0 -0.10467012407E+03  0.38644969110E+01  0.93301439189E+02  0.14027090847E+03  0.00000000000E+00 0. -1.
         -2    1    5    5    0  503 -0.25026582782E+03  0.13529309638E+03  0.28958406743E+03  0.40595090665E+03  0.00000000000E+00 0.  1.
         -1    1    6    6    0  502  0.50639026020E+03  0.40476830119E+02  0.47343210534E+03  0.69441156944E+03  0.00000000000E+00 0.  1.
<mgrwt>
<rscale>  0 0.11902804E+04</rscale>
<asrwt>0</asrwt>
<pdfrwt beam="1">  1        1 0.19759361E+00 0.11902804E+04</pdfrwt>
<pdfrwt beam="2">  1       -1 0.42426669E-01 0.11902804E+04</pdfrwt>
<totfact> 0.50214221E+01</totfact>
</mgrwt>
</event>
<event>
12    1  0.1755460E-007  0.1698029E+04  0.7818608E-02  0.8762489E-01
         -1   -1    0    0    0  501 -0.00000000000E+00  0.00000000000E+00  0.42261084258E+03  0.42261084258E+03  0.00000000000E+00 0.  1.
          1   -1    0    0  501    0  0.00000000000E+00 -0.00000000000E+00 -0.17056483572E+04  0.17056483572E+04  0.00000000000E+00 0. -1.
         23    2    1    2    0    0  0.17241097377E+03  0.24956482211E+03  0.19257687222E+03  0.37099095029E+03  0.92413684971E+02 0.  0.
        254    2    1    2    0    0 -0.17241097377E+03 -0.24956482211E+03 -0.14756143868E+04  0.17572682495E+04  0.90473517548E+03 0.  0.
        -24    2    4    4    0    0 -0.27408260646E+02  0.78833717134E+02 -0.13695136574E+04  0.13744835342E+04  0.81678395419E+02 0.  0.
         24    2    4    4    0    0 -0.14500271312E+03 -0.32839853924E+03 -0.10610072947E+03  0.38278471533E+03  0.79971157965E+02 0.  0.
         11    1    3    3    0    0 -0.13719784000E+01  0.26304407154E+02  0.44369761239E+02  0.51599223568E+02  0.00000000000E+00 0. -1.
        -11    1    3    3    0    0  0.17378295217E+03  0.22326041496E+03  0.14820711098E+03  0.31939172672E+03  0.00000000000E+00 0.  1.
          2    1    6    6  502    0 -0.52710703109E+02 -0.67687986895E+02 -0.53955906795E+02  0.10134752918E+03  0.00000000000E+00 0. -1.
          3    1    5    5  503    0 -0.25368922129E+02  0.13222559904E+02 -0.12466520980E+03  0.12790556217E+03  0.00000000000E+00 0. -1.
         -4    1    5    5    0  503 -0.20393385168E+01  0.65611157230E+02 -0.12448484476E+04  0.12465779720E+04  0.00000000000E+00 0.  1.
         -1    1    6    6    0  502 -0.92292010013E+02 -0.26071055235E+03 -0.52144822676E+02  0.28143718615E+03  0.00000000000E+00 0.  1.
<mgrwt>
<rscale>  0 0.16980288E+04</rscale>
<asrwt>0</asrwt>
<pdfrwt beam="1">  1        1 0.26240744E+00 0.16980288E+04</pdfrwt>
<pdfrwt beam="2">  1       -1 0.65017052E-01 0.16980288E+04</pdfrwt>
<totfact> 0.10783120E+01</totfact>
</mgrwt>
</event>
<event>
12    1  0.1755460E-007  0.2676847E+04  0.7818608E-02  0.8342557E-01
          1   -1    0    0  501    0  0.00000000000E+00  0.00000000000E+00  0.32323697720E+04  0.32323697720E+04  0.00000000000E+00 0. -1.
         -1   -1    0    0    0  501 -0.00000000000E+00 -0.00000000000E+00 -0.55419934042E+03  0.55419934042E+03  0.00000000000E+00 0.  1.
         23    2    1    2    0    0 -0.10237341612E+04 -0.59588660301E+03  0.12416624024E+04  0.17185364322E+04  0.92355134058E+02 0.  0.
        254    2    1    2    0    0  0.10237341612E+04  0.59588660301E+03  0.14365080292E+04  0.20680326802E+04  0.90005076077E+03 0.  0.
        -24    2    4    4    0    0  0.10584910689E+04  0.74935645613E+03  0.11837908342E+04  0.17577411481E+04  0.79716770282E+02 0.  0.
         24    2    4    4    0    0 -0.34756907615E+02 -0.15346985312E+03  0.25271719503E+03  0.31029153212E+03  0.87486089168E+02 0.  0.
         13    1    3    3    0    0 -0.50142778848E+02 -0.10202199596E+02  0.66891849440E+02  0.84219372288E+02  0.00000000000E+00 0.  1.
        -13    1    3    3    0    0 -0.97359138239E+03 -0.58568440341E+03  0.11747705529E+04  0.16343170599E+04  0.00000000000E+00 0. -1.
          2    1    6    6  502    0  0.17137634115E+02 -0.92116351764E+01  0.70136916303E+01  0.20681987235E+02  0.00000000000E+00 0. -1.
          3    1    5    5  503    0  0.83576777012E+03  0.57977192961E+03  0.88474989371E+03  0.13481192938E+04  0.00000000000E+00 0. -1.
         -4    1    5    5    0  503  0.22272329873E+03  0.16958452652E+03  0.29904094048E+03  0.40962185430E+03  0.00000000000E+00 0.  1.
         -1    1    6    6    0  502 -0.51894541730E+02 -0.14425821794E+03  0.24570350340E+03  0.28960954489E+03  0.00000000000E+00 0.  1.
<mgrwt>
<rscale>  0 0.26768468E+04</rscale>
<asrwt>0</asrwt>
<pdfrwt beam="1">  1        1 0.49728765E+00 0.26768468E+04</pdfrwt>
<pdfrwt beam="2">  1       -1 0.85261439E-01 0.26768468E+04</pdfrwt>
<totfact> 0.47805979E-01</totfact>
</mgrwt>
</event>
<event>
12    1  0.1755460E-007  0.1286002E+04  0.7818608E-02  0.9040740E-01
         -2   -1    0    0    0  501 -0.00000000000E+00  0.00000000000E+00  0.27827250147E+03  0.27827250147E+03  0.00000000000E+00 0.  1.
          2   -1    0    0  501    0  0.00000000000E+00 -0.00000000000E+00 -0.14857741226E+04  0.14857741226E+04  0.00000000000E+00 0. -1.
         23    2    1    2    0    0 -0.76337757584E+02  0.31065909779E+03 -0.33511968975E+03  0.47175752949E+03  0.88957472442E+02 0.  0.
        254    2    1    2    0    0  0.76337757584E+02 -0.31065909779E+03 -0.87238193134E+03  0.12922890945E+04  0.89812267617E+03 0.  0.
        -24    2    4    4    0    0  0.46018226024E+03 -0.91166569873E+02 -0.29182257577E+03  0.55787938118E+03  0.77394651741E+02 0.  0.
         24    2    4    4    0    0 -0.38384450266E+03 -0.21949252791E+03 -0.58055935557E+03  0.73440971335E+03  0.82431120886E+02 0.  0.
         11    1    3    3    0    0  0.13083078238E+02  0.17403064376E+02 -0.43427536275E+02  0.48579671599E+02  0.00000000000E+00 0. -1.
        -11    1    3    3    0    0 -0.89420835822E+02  0.29325603341E+03 -0.29169215348E+03  0.42317785789E+03  0.00000000000E+00 0.  1.
          4    1    6    6  502    0 -0.38469672131E+03 -0.20625943290E+03 -0.56469775389E+03  0.71373529707E+03  0.00000000000E+00 0. -1.
          1    1    5    5  503    0  0.12939024390E+03 -0.58453444464E+02 -0.10482687093E+03  0.17648601433E+03  0.00000000000E+00 0. -1.
         -2    1    5    5    0  503  0.33079201634E+03 -0.32713125409E+02 -0.18699570484E+03  0.38139336685E+03  0.00000000000E+00 0.  1.
         -3    1    6    6    0  502  0.85221865059E+00 -0.13233095017E+02 -0.15861601688E+02  0.20674416279E+02  0.00000000000E+00 0.  1.
<mgrwt>
<rscale>  0 0.12860017E+04</rscale>
<asrwt>0</asrwt>
<pdfrwt beam="1">  1        2 0.22858064E+00 0.12860017E+04</pdfrwt>
<pdfrwt beam="2">  1       -2 0.42811153E-01 0.12860017E+04</pdfrwt>
<totfact> 0.65599448E+01</totfact>
</mgrwt>
</event>
<event>
12    1  0.1755460E-007  0.2218882E+04  0.7818608E-02  0.8510610E-01
          2   -1    0    0  501    0  0.00000000000E+00  0.00000000000E+00  0.29223645849E+04  0.29223645849E+04  0.00000000000E+00 0.  1.
         -2   -1    0    0    0  501 -0.00000000000E+00 -0.00000000000E+00 -0.42118600608E+03  0.42118600608E+03  0.00000000000E+00 0. -1.
         23    2    1    2    0    0 -0.68343530110E+03  0.46375748032E+03  0.42799190200E+03  0.93508164259E+03  0.95109404255E+02 0.  0.
        254    2    1    2    0    0  0.68343530110E+03 -0.46375748032E+03  0.20731866768E+04  0.24084689484E+04  0.90579515736E+03 0.  0.
        -24    2    4    4    0    0  0.27716383307E+03  0.20486460646E+03  0.28390065721E+03  0.45392161464E+03  0.81584016420E+02 0.  0.
         24    2    4    4    0    0  0.40627146804E+03 -0.66862208679E+03  0.17892860196E+04  0.19545473338E+04  0.81233116563E+02 0.  0.
         13    1    3    3    0    0 -0.59864024411E+03  0.36468690243E+03  0.36207496371E+03  0.78896448463E+03  0.00000000000E+00 0. -1.
        -13    1    3    3    0    0 -0.84795056995E+02  0.99070577890E+02  0.65916938296E+02  0.14611715795E+03  0.00000000000E+00 0.  1.
          4    1    6    6  502    0  0.32362213695E+03 -0.47110980679E+03  0.13427850231E+04  0.14593653949E+04  0.00000000000E+00 0. -1.
          3    1    5    5  503    0  0.12720868356E+03  0.13215361195E+03  0.11420662911E+03  0.21607818135E+03  0.00000000000E+00 0. -1.
         -4    1    5    5    0  503  0.14995514951E+03  0.72710994515E+02  0.16969402810E+03  0.23784343329E+03  0.00000000000E+00 0.  1.
         -3    1    6    6    0  502  0.82649331089E+02 -0.19751228000E+03  0.44650099651E+03  0.49518193885E+03  0.00000000000E+00 0.  1.
<mgrwt>
<rscale>  0 0.22188818E+04</rscale>
<asrwt>0</asrwt>
<pdfrwt beam="1">  1        2 0.44959454E+00 0.22188818E+04</pdfrwt>
<pdfrwt beam="2">  1       -2 0.64797849E-01 0.22188818E+04</pdfrwt>
<totfact> 0.39072195E+00</totfact>
</mgrwt>
</event>
<event>
12    1  0.1755460E-007  0.1146522E+04  0.7818608E-02  0.9160998E-01
          2   -1    0    0  501    0  0.00000000000E+00  0.00000000000E+00  0.11551606623E+04  0.11551606623E+04  0.00000000000E+00 0. -1.
         -2   -1    0    0    0  501 -0.00000000000E+00 -0.00000000000E+00 -0.28448716226E+03  0.28448716226E+03  0.00000000000E+00 0.  1.
         23    2    1    2    0    0  0.10078514920E+03 -0.34366732917E+02 -0.34836350248E+02  0.14901842859E+03  0.98255799474E+02 0.  0.
        254    2    1    2    0    0 -0.10078514920E+03  0.34366732917E+02  0.90550985032E+03  0.12906293960E+04  0.91347546773E+03 0.  0.
        -24    2    4    4    0    0 -0.21815792694E+03  0.37422572044E+03  0.17821640549E+03  0.47529056384E+03  0.80636604358E+02 0.  0.
         24    2    4    4    0    0  0.11737277774E+03 -0.33985898752E+03  0.72729344483E+03  0.81533883216E+03  0.80877413262E+02 0.  0.
         11    1    3    3    0    0  0.37457936034E+01  0.22442752883E+02  0.13684323612E+02  0.26551249300E+02  0.00000000000E+00 0. -1.
        -11    1    3    3    0    0  0.97039355598E+02 -0.56809485800E+02 -0.48520673860E+02  0.12246717929E+03  0.00000000000E+00 0.  1.
          2    1    6    6  502    0  0.46310567209E+02 -0.24040790618E+03  0.51856579669E+03  0.57345541717E+03  0.00000000000E+00 0. -1.
          3    1    5    5  503    0 -0.13666571503E+03  0.17351971489E+03  0.11817966958E+03  0.25050557563E+03  0.00000000000E+00 0. -1.
         -4    1    5    5    0  503 -0.81492211917E+02  0.20070600554E+03  0.60036735912E+02  0.22478498821E+03  0.00000000000E+00 0.  1.
         -1    1    6    6    0  502  0.71062210533E+02 -0.99451081343E+02  0.20872764814E+03  0.24188341498E+03  0.00000000000E+00 0.  1.
<mgrwt>
<rscale>  0 0.11465224E+04</rscale>
<asrwt>0</asrwt>
<pdfrwt beam="1">  1        2 0.17771702E+00 0.11465224E+04</pdfrwt>
<pdfrwt beam="2">  1       -2 0.43767257E-01 0.11465224E+04</pdfrwt>
<totfact> 0.98738693E+01</totfact>
</mgrwt>
</event>
<event>
12    1  0.1755460E-007  0.1618031E+04  0.7818608E-02  0.8809547E-01
          2   -1    0    0  501    0  0.00000000000E+00  0.00000000000E+00  0.93132818083E+03  0.93132818083E+03  0.00000000000E+00 0. -1.
         -2   -1    0    0    0  501 -0.00000000000E+00 -0.00000000000E+00 -0.70276644509E+03  0.70276644509E+03  0.00000000000E+00 0.  1.
         23    2    1    2    0    0  0.16320210605E+03  0.52610088145E+03  0.10782028838E+03  0.56882509828E+03  0.92302291240E+02 0.  0.
        254    2    1    2    0    0 -0.16320210605E+03 -0.52610088145E+03  0.12074144736E+03  0.10652695276E+04  0.90377187638E+03 0.  0.
        -24    2    4    4    0    0 -0.41145690701E+03 -0.28576258154E+03  0.37324826138E+03  0.63004223284E+03  0.81742958141E+02 0.  0.
         24    2    4    4    0    0  0.24825480096E+03 -0.24033829991E+03 -0.25250681402E+03  0.43522729480E+03  0.79184357133E+02 0.  0.
         13    1    3    3    0    0  0.16429255976E+03  0.40216920249E+03  0.78515380666E+02  0.44147115153E+03  0.00000000000E+00 0. -1.
        -13    1    3    3    0    0 -0.10904537170E+01  0.12393167896E+03  0.29304907711E+02  0.12735394675E+03  0.00000000000E+00 0.  1.
          2    1    6    6  502    0  0.66432397366E+02 -0.76014826583E+02 -0.32967216658E+02  0.10619959818E+03  0.00000000000E+00 0. -1.
          3    1    5    5  503    0 -0.23589199497E+03 -0.12206906767E+03  0.16852146734E+03  0.31455583849E+03  0.00000000000E+00 0. -1.
         -4    1    5    5    0  503 -0.17556491203E+03 -0.16369351387E+03  0.20472679404E+03  0.31548639435E+03  0.00000000000E+00 0.  1.
         -1    1    6    6    0  502  0.18182240359E+03 -0.16432347333E+03 -0.21953959736E+03  0.32902769662E+03  0.00000000000E+00 0.  1.
<mgrwt>
<rscale>  0 0.16180311E+04</rscale>
<asrwt>0</asrwt>
<pdfrwt beam="1">  1        2 0.14328126E+00 0.16180311E+04</pdfrwt>
<pdfrwt beam="2">  1       -2 0.10811791E+00 0.16180311E+04</pdfrwt>
<totfact> 0.18327588E+01</totfact>
</mgrwt>
</event>
<event>
12    1  0.1755460E-007  0.1824529E+04  0.7818608E-02  0.8693363E-01
          1   -1    0    0  501    0  0.00000000000E+00  0.00000000000E+00  0.10648487420E+04  0.10648487420E+04  0.00000000000E+00 0. -1.
         -1   -1    0    0    0  501 -0.00000000000E+00 -0.00000000000E+00 -0.78154437360E+03  0.78154437360E+03  0.00000000000E+00 0.  1.
         23    2    1    2    0    0 -0.33639979012E+03 -0.16975966528E+03 -0.46960986166E+03  0.60869289977E+03  0.89389380313E+02 0.  0.
        254    2    1    2    0    0  0.33639979012E+03  0.16975966528E+03  0.75291423002E+03  0.12377002158E+04  0.90721487181E+03 0.  0.
        -24    2    4    4    0    0  0.48966378930E+03 -0.14970128524E+03  0.69967842490E+03  0.87063018459E+03  0.79157556155E+02 0.  0.
         24    2    4    4    0    0 -0.15326399918E+03  0.31946095052E+03  0.53235805126E+02  0.36707003120E+03  0.79757159602E+02 0.  0.
         13    1    3    3    0    0 -0.12508142599E+03 -0.61137396870E+02 -0.24465319232E+03  0.28149303532E+03  0.00000000000E+00 0. -1.
        -13    1    3    3    0    0 -0.21131836413E+03 -0.10862226841E+03 -0.22495666934E+03  0.32719986445E+03  0.00000000000E+00 0.  1.
          4    1    6    6  502    0 -0.12481980099E+03  0.17019692093E+03  0.36609512123E+02  0.21421305047E+03  0.00000000000E+00 0. -1.
          3    1    5    5  503    0  0.44727519966E+03 -0.11131182191E+03  0.62057510798E+03  0.77301933389E+03  0.00000000000E+00 0. -1.
         -4    1    5    5    0  503  0.42388589636E+02 -0.38389463325E+02  0.79103316916E+02  0.97610850692E+02  0.00000000000E+00 0.  1.
         -3    1    6    6    0  502 -0.28444198187E+02  0.14926402958E+03  0.16626293003E+02  0.15285698073E+03  0.00000000000E+00 0.  1.
<mgrwt>
<rscale>  0 0.18245290E+04</rscale>
<asrwt>0</asrwt>
<pdfrwt beam="1">  1        1 0.16382288E+00 0.18245290E+04</pdfrwt>
<pdfrwt beam="2">  1       -1 0.12023760E+00 0.18245290E+04</pdfrwt>
<totfact> 0.78222862E+00</totfact>
</mgrwt>
</event>
<event>
12    1  0.1755460E-007  0.1660417E+04  0.7818608E-02  0.8784268E-01
         -3   -1    0    0    0  501 -0.00000000000E+00  0.00000000000E+00  0.14186506251E+04  0.14186506251E+04  0.00000000000E+00 0.  1.
          3   -1    0    0  501    0  0.00000000000E+00 -0.00000000000E+00 -0.48584629574E+03  0.48584629574E+03  0.00000000000E+00 0. -1.
         23    2    1    2    0    0 -0.21286358296E+03 -0.47312666087E+03  0.23713154398E+02  0.52721671535E+03  0.90749154655E+02 0.  0.
        254    2    1    2    0    0  0.21286358296E+03  0.47312666087E+03  0.90909117497E+03  0.13772802055E+04  0.89515041076E+03 0.  0.
        -24    2    4    4    0    0 -0.21858646756E+03  0.15778789756E+03  0.76941371542E+03  0.81921561396E+03  0.80247693194E+02 0.  0.
         24    2    4    4    0    0  0.43145005052E+03  0.31533876331E+03  0.13967745955E+03  0.55806459154E+03  0.79615412360E+02 0.  0.
         13    1    3    3    0    0 -0.16015220036E+03 -0.28502220309E+03 -0.18122933678E+02  0.32743674849E+03  0.00000000000E+00 0.  1.
        -13    1    3    3    0    0 -0.52711382603E+02 -0.18810445778E+03  0.41836088076E+02  0.19977996686E+03  0.00000000000E+00 0. -1.
          4    1    6    6  502    0  0.36826761670E+03  0.29407454068E+03  0.13918017689E+03  0.49139800023E+03  0.00000000000E+00 0. -1.
          3    1    5    5  503    0 -0.20471903894E+03  0.15685406986E+03  0.75963646218E+03  0.80222231258E+03  0.00000000000E+00 0. -1.
         -4    1    5    5    0  503 -0.13867428620E+02  0.93382769798E+00  0.97772532413E+01  0.16993301376E+02  0.00000000000E+00 0.  1.
         -3    1    6    6    0  502  0.63182433819E+02  0.21264222628E+02  0.49728265831E+00  0.66666591313E+02  0.00000000000E+00 0.  1.
<mgrwt>
<rscale>  0 0.16604170E+04</rscale>
<asrwt>0</asrwt>
<pdfrwt beam="1">  1        3 0.74745584E-01 0.16604170E+04</pdfrwt>
<pdfrwt beam="2">  1       -3 0.21825394E+00 0.16604170E+04</pdfrwt>
<totfact> 0.47678879E-01</totfact>
</mgrwt>
</event>
<event>
12    1  0.1755460E-007  0.1410393E+04  0.7818608E-02  0.8946330E-01
          1   -1    0    0  501    0  0.00000000000E+00  0.00000000000E+00  0.80236180686E+03  0.80236180686E+03  0.00000000000E+00 0. -1.
         -1   -1    0    0    0  501 -0.00000000000E+00 -0.00000000000E+00 -0.61979788278E+03  0.61979788278E+03  0.00000000000E+00 0.  1.
         23    2    1    2    0    0 -0.10017627514E+03 -0.24425790986E+03  0.37309918992E+03  0.46570962073E+03  0.89360129165E+02 0.  0.
        254    2    1    2    0    0  0.10017627514E+03  0.24425790986E+03 -0.19053526585E+03  0.95645006892E+03  0.89933077017E+03 0.  0.
        -24    2    4    4    0    0 -0.36914400507E+03  0.33645882169E+02 -0.21420432842E+03  0.43522690490E+03  0.78355743657E+02 0.  0.
         24    2    4    4    0    0  0.46932028021E+03  0.21061202769E+03  0.23669062577E+02  0.52122316403E+03  0.80587905870E+02 0.  0.
         13    1    3    3    0    0 -0.42282265621E+02 -0.19221973513E+03  0.22922440177E+03  0.30212587265E+03  0.00000000000E+00 0. -1.
        -13    1    3    3    0    0 -0.57894009516E+02 -0.52038174733E+02  0.14387478816E+03  0.16358374808E+03  0.00000000000E+00 0.  1.
          4    1    6    6  502    0  0.44899085371E+03  0.19183972518E+03  0.38600137060E+02  0.48978080552E+03  0.00000000000E+00 0. -1.
          3    1    5    5  503    0 -0.30238327850E+03  0.57821446617E+02 -0.17425512921E+03  0.35375671988E+03  0.00000000000E+00 0. -1.
         -4    1    5    5    0  503 -0.66760726567E+02 -0.24175564448E+02 -0.39949199217E+02  0.81470185014E+02  0.00000000000E+00 0.  1.
         -3    1    6    6    0  502  0.20329426493E+02  0.18772302514E+02 -0.14931074483E+02  0.31442358506E+02  0.00000000000E+00 0.  1.
<mgrwt>
<rscale>  0 0.14103931E+04</rscale>
<asrwt>0</asrwt>
<pdfrwt beam="1">  1        1 0.12344028E+00 0.14103931E+04</pdfrwt>
<pdfrwt beam="2">  1       -1 0.95353519E-01 0.14103931E+04</pdfrwt>
<totfact> 0.22773731E+01</totfact>
</mgrwt>
</event>
<event>
12    1  0.1755460E-007  0.1806317E+04  0.7818608E-02  0.8702947E-01
          1   -1    0    0  501    0  0.00000000000E+00  0.00000000000E+00  0.13483172334E+04  0.13483172334E+04  0.00000000000E+00 0. -1.
         -1   -1    0    0    0  501 -0.00000000000E+00 -0.00000000000E+00 -0.60497273617E+03  0.60497273617E+03  0.00000000000E+00 0.  1.
         23    2    1    2    0    0 -0.42476605005E+02  0.21624115287E+03  0.97135680314E+03  0.10008111019E+04  0.97592646286E+02 0.  0.
        254    2    1    2    0    0  0.42476605005E+02 -0.21624115287E+03 -0.22801230595E+03  0.95247886758E+03  0.89814357614E+03 0.  0.
        -24    2    4    4    0    0  0.22663956943E+03  0.26495575122E+03 -0.24053659179E+03  0.43101814661E+03  0.79697843003E+02 0.  0.
         24    2    4    4    0    0 -0.18416296442E+03 -0.48119690410E+03  0.12524285848E+02  0.52146072097E+03  0.79359736639E+02 0.  0.
         13    1    3    3    0    0 -0.63078187306E+02  0.16962077791E+03  0.85233086331E+03  0.87133114633E+03  0.00000000000E+00 0. -1.
        -13    1    3    3    0    0  0.20601582301E+02  0.46620374961E+02  0.11902593983E+03  0.12947995562E+03  0.00000000000E+00 0.  1.
          2    1    6    6  502    0 -0.60981541904E+02 -0.11641792655E+03  0.34314802238E+02  0.13582852325E+03  0.00000000000E+00 0. -1.
          1    1    5    5  503    0  0.22383310726E+03  0.27038372315E+03 -0.23919472192E+03  0.42476197175E+03  0.00000000000E+00 0. -1.
         -2    1    5    5    0  503  0.28064621639E+01 -0.54279719276E+01 -0.13418698783E+01  0.62561748612E+01  0.00000000000E+00 0.  1.
         -1    1    6    6    0  502 -0.12318142252E+03 -0.36477897754E+03 -0.21790516390E+02  0.38563219772E+03  0.00000000000E+00 0.  1.
<mgrwt>
<rscale>  0 0.18063169E+04</rscale>
<asrwt>0</asrwt>
<pdfrwt beam="1">  1        1 0.20743342E+00 0.18063169E+04</pdfrwt>
<pdfrwt beam="2">  1       -1 0.93072729E-01 0.18063169E+04</pdfrwt>
<totfact> 0.88355483E+00</totfact>
</mgrwt>
</event>
<event>
12    1  0.1755460E-007  0.1402906E+04  0.7818608E-02  0.8951718E-01
          2   -1    0    0  501    0  0.00000000000E+00  0.00000000000E+00  0.62933544907E+03  0.62933544907E+03  0.00000000000E+00 0. -1.
         -2   -1    0    0    0  501 -0.00000000000E+00 -0.00000000000E+00 -0.78183441176E+03  0.78183441176E+03  0.00000000000E+00 0.  1.
         23    2    1    2    0    0 -0.33682196642E+03 -0.24645012511E+03  0.36064103129E+02  0.42737181667E+03  0.84612935880E+02 0.  0.
        254    2    1    2    0    0  0.33682196642E+03  0.24645012511E+03 -0.18856306582E+03  0.98379804417E+03  0.87069849011E+03 0.  0.
        -24    2    4    4    0    0 -0.20579385010E+03 -0.13314711064E+03 -0.18417098192E+03  0.31672171048E+03  0.79463384622E+02 0.  0.
         24    2    4    4    0    0  0.54261581652E+03  0.37959723575E+03 -0.43920839029E+01  0.66707633368E+03  0.80284237736E+02 0.  0.
         13    1    3    3    0    0 -0.23538520529E+03 -0.20136638573E+03  0.55444771617E+02  0.31468832020E+03  0.00000000000E+00 0. -1.
        -13    1    3    3    0    0 -0.10143676113E+03 -0.45083739380E+02 -0.19380668488E+02  0.11268349647E+03  0.00000000000E+00 0.  1.
          2    1    6    6  502    0  0.13224424517E+03  0.10404817499E+03 -0.34845957920E+02  0.17183947126E+03  0.00000000000E+00 0. -1.
          1    1    5    5  503    0 -0.66636180093E+02 -0.14254810419E+02 -0.83688433500E+02  0.10792281510E+03  0.00000000000E+00 0. -1.
         -2    1    5    5    0  503 -0.13915767001E+03 -0.11889230022E+03 -0.10048254842E+03  0.20879889538E+03  0.00000000000E+00 0.  1.
         -1    1    6    6    0  502  0.41037157135E+03  0.27554906076E+03  0.30453874017E+02  0.49523686243E+03  0.00000000000E+00 0.  1.
<mgrwt>
<rscale>  0 0.14029057E+04</rscale>
<asrwt>0</asrwt>
<pdfrwt beam="1">  1        2 0.96820838E-01 0.14029057E+04</pdfrwt>
<pdfrwt beam="2">  1       -2 0.12028222E+00 0.14029057E+04</pdfrwt>
<totfact> 0.24032113E+01</totfact>
</mgrwt>
</event>
<event>
12    1  0.1755460E-007  0.1470315E+04  0.7818608E-02  0.8904437E-01
         -1   -1    0    0    0  501 -0.00000000000E+00  0.00000000000E+00  0.70911780491E+03  0.70911780491E+03  0.00000000000E+00 0.  1.
          1   -1    0    0  501    0  0.00000000000E+00 -0.00000000000E+00 -0.76215315056E+03  0.76215315056E+03  0.00000000000E+00 0. -1.
         23    2    1    2    0    0 -0.12373531661E+03 -0.31874256033E+03  0.28111858856E+03  0.45185092446E+03  0.90743312476E+02 0.  0.
        254    2    1    2    0    0  0.12373531661E+03  0.31874256033E+03 -0.33415393421E+03  0.10194200310E+04  0.90036164930E+03 0.  0.
        -24    2    4    4    0    0  0.35182609030E+03  0.39562631932E+03 -0.48665371182E+03  0.72348310901E+03  0.79335940430E+02 0.  0.
         24    2    4    4    0    0 -0.22809077369E+03 -0.76883758987E+02  0.15249977761E+03  0.29593692200E+03  0.79912240556E+02 0.  0.
         11    1    3    3    0    0 -0.13518437876E+02 -0.37987174861E+01 -0.20852873270E+01  0.14196014947E+02  0.00000000000E+00 0. -1.
        -11    1    3    3    0    0 -0.11021687873E+03 -0.31494384284E+03  0.28320387588E+03  0.43765490951E+03  0.00000000000E+00 0.  1.
          2    1    6    6  502    0 -0.21936508686E+02  0.16308041148E+02  0.18190075752E+02  0.32833541924E+02  0.00000000000E+00 0. -1.
          3    1    5    5  503    0  0.15917755884E+03  0.17534568497E+03 -0.16501983984E+03  0.28864364191E+03  0.00000000000E+00 0. -1.
         -4    1    5    5    0  503  0.19264853146E+03  0.22028063435E+03 -0.32163387198E+03  0.43483946710E+03  0.00000000000E+00 0.  1.
         -1    1    6    6    0  502 -0.20615426500E+03 -0.93191800135E+02  0.13430970186E+03  0.26310338007E+03  0.00000000000E+00 0.  1.
<mgrwt>
<rscale>  0 0.14703148E+04</rscale>
<asrwt>0</asrwt>
<pdfrwt beam="1">  1        1 0.11725433E+00 0.14703148E+04</pdfrwt>
<pdfrwt beam="2">  1       -1 0.10909505E+00 0.14703148E+04</pdfrwt>
<totfact> 0.18029201E+01</totfact>
</mgrwt>
</event>
<event>
12    1  0.1755460E-007  0.1476659E+04  0.7818608E-02  0.8900124E-01
          2   -1    0    0  501    0  0.00000000000E+00  0.00000000000E+00  0.10616939180E+04  0.10616939180E+04  0.00000000000E+00 0.  1.
         -2   -1    0    0    0  501 -0.00000000000E+00 -0.00000000000E+00 -0.51345382674E+03  0.51345382674E+03  0.00000000000E+00 0. -1.
         23    2    1    2    0    0 -0.13180261132E+03  0.10387665026E+02 -0.26231922649E+03  0.30804539093E+03  0.92740252064E+02 0.  0.
        254    2    1    2    0    0  0.13180261132E+03 -0.10387665026E+02  0.81055931772E+03  0.12671023538E+04  0.96491561054E+03 0.  0.
        -24    2    4    4    0    0  0.43918224977E+03  0.15102833615E+03  0.11370749039E+03  0.48478533004E+03  0.79980097645E+02 0.  0.
         24    2    4    4    0    0 -0.30737963846E+03 -0.16141600117E+03  0.69685182733E+03  0.78231702373E+03  0.76681737009E+02 0.  0.
         13    1    3    3    0    0 -0.10173021267E+03 -0.10257545332E+02 -0.10502093265E+03  0.14657301832E+03  0.00000000000E+00 0.  1.
        -13    1    3    3    0    0 -0.30072398651E+02  0.20645210358E+02 -0.15729829384E+03  0.16147237261E+03  0.00000000000E+00 0. -1.
          4    1    6    6  502    0 -0.21237580432E+03 -0.12722794271E+03  0.55969421896E+03  0.61200330915E+03  0.00000000000E+00 0. -1.
          3    1    5    5  503    0  0.39049812143E+03  0.10609904385E+03  0.10422711470E+03  0.41786251493E+03  0.00000000000E+00 0. -1.
         -4    1    5    5    0  503  0.48684128340E+02  0.44929292302E+02  0.94803756837E+01  0.66922815109E+02  0.00000000000E+00 0.  1.
         -3    1    6    6    0  502 -0.95003834131E+02 -0.34188058459E+02  0.13715760837E+03  0.17031371458E+03  0.00000000000E+00 0.  1.
<mgrwt>
<rscale>  0 0.14766595E+04</rscale>
<asrwt>0</asrwt>
<pdfrwt beam="1">  1        2 0.16333753E+00 0.14766595E+04</pdfrwt>
<pdfrwt beam="2">  1       -2 0.78992897E-01 0.14766595E+04</pdfrwt>
<totfact> 0.31688632E+01</totfact>
</mgrwt>
</event>
<event>
12    1  0.1755460E-007  0.1479146E+04  0.7818608E-02  0.8898440E-01
         -2   -1    0    0    0  501 -0.00000000000E+00  0.00000000000E+00  0.16760834029E+03  0.16760834029E+03  0.00000000000E+00 0.  1.
          2   -1    0    0  501    0  0.00000000000E+00 -0.00000000000E+00 -0.32633728708E+04  0.32633728708E+04  0.00000000000E+00 0. -1.
         23    2    1    2    0    0  0.15230937698E+02 -0.12616291459E+03  0.42063897206E+02  0.16492596420E+03  0.96343861957E+02 0.  0.
        254    2    1    2    0    0 -0.15230937698E+02  0.12616291459E+03 -0.31378284278E+04  0.32660552469E+04  0.89721824074E+03 0.  0.
        -24    2    4    4    0    0  0.24361806145E+03  0.34880108767E+02 -0.23695664704E+03  0.35119286220E+03  0.81373165289E+02 0.  0.
         24    2    4    4    0    0 -0.25884899915E+03  0.91282805824E+02 -0.29008717807E+04  0.29148623847E+04  0.77654869759E+02 0.  0.
         11    1    3    3    0    0 -0.22729583749E+02 -0.92829316663E+01  0.33776208116E+02  0.41756904009E+02  0.00000000000E+00 0. -1.
        -11    1    3    3    0    0  0.37960521447E+02 -0.11687998292E+03  0.82876890895E+01  0.12316906019E+03  0.00000000000E+00 0.  1.
          4    1    6    6  502    0 -0.61488666267E+02  0.52975829176E+02 -0.10399434515E+04  0.10431057842E+04  0.00000000000E+00 0. -1.
          3    1    5    5  503    0  0.54849124110E+02  0.18626104921E+02 -0.10625080439E+03  0.12101484055E+03  0.00000000000E+00 0. -1.
         -4    1    5    5    0  503  0.18876893734E+03  0.16254003846E+02 -0.13070584265E+03  0.23017802165E+03  0.00000000000E+00 0.  1.
         -3    1    6    6    0  502 -0.19736033288E+03  0.38306976648E+02 -0.18609283292E+04  0.18717566006E+04  0.00000000000E+00 0.  1.
<mgrwt>
<rscale>  0 0.14791464E+04</rscale>
<asrwt>0</asrwt>
<pdfrwt beam="1">  1        2 0.50205732E+00 0.14791464E+04</pdfrwt>
<pdfrwt beam="2">  1       -2 0.25785901E-01 0.14791464E+04</pdfrwt>
<totfact> 0.15632250E+01</totfact>
</mgrwt>
</event>
<event>
12    1  0.1755460E-007  0.1117296E+04  0.7818608E-02  0.9188497E-01
          1   -1    0    0  501    0  0.00000000000E+00  0.00000000000E+00  0.15946110905E+04  0.15946110905E+04  0.00000000000E+00 0.  1.
         -1   -1    0    0    0  501 -0.00000000000E+00 -0.00000000000E+00 -0.19571374877E+03  0.19571374877E+03  0.00000000000E+00 0. -1.
         23    2    1    2    0    0  0.32144695183E+02  0.84521326925E+02  0.44348029534E+03  0.46189685242E+03  0.92178054774E+02 0.  0.
        254    2    1    2    0    0 -0.32144695183E+02 -0.84521326925E+02  0.95541704636E+03  0.13284279868E+04  0.91854343806E+03 0.  0.
        -24    2    4    4    0    0 -0.38653287423E+03 -0.26705382207E+03  0.31990260748E+03  0.57404298037E+03  0.80388172622E+02 0.  0.
         24    2    4    4    0    0  0.35438817905E+03  0.18253249515E+03  0.63551443887E+03  0.75438500646E+03  0.79429482699E+02 0.  0.
         13    1    3    3    0    0  0.21377231455E+02 -0.91399662837E+01  0.30829814459E+02  0.38613501109E+02  0.00000000000E+00 0. -1.
        -13    1    3    3    0    0  0.10767463728E+02  0.93661293209E+02  0.41265048089E+03  0.42328335131E+03  0.00000000000E+00 0.  1.
          2    1    6    6  502    0  0.31835427257E+03  0.13638850440E+03  0.51837031211E+03  0.62342525412E+03  0.00000000000E+00 0. -1.
          1    1    5    5  503    0 -0.30362072452E+03 -0.23609329705E+03  0.28589446886E+03  0.47922983692E+03  0.00000000000E+00 0. -1.
         -2    1    5    5    0  503 -0.82912149706E+02 -0.30960525024E+02  0.34008138626E+02  0.94813143453E+02  0.00000000000E+00 0.  1.
         -1    1    6    6    0  502  0.36033906478E+02  0.46143990750E+02  0.11714412676E+03  0.13095975234E+03  0.00000000000E+00 0.  1.
<mgrwt>
<rscale>  0 0.11172955E+04</rscale>
<asrwt>0</asrwt>
<pdfrwt beam="1">  1        1 0.24532477E+00 0.11172955E+04</pdfrwt>
<pdfrwt beam="2">  1       -1 0.30109809E-01 0.11172955E+04</pdfrwt>
<totfact> 0.56798698E+01</totfact>
</mgrwt>
</event>
<event>
12    1  0.1755460E-007  0.1591912E+04  0.7818608E-02  0.8825532E-01
          1   -1    0    0  501    0  0.00000000000E+00  0.00000000000E+00  0.68905641225E+03  0.68905641225E+03  0.00000000000E+00 0. -1.
         -1   -1    0    0    0  501 -0.00000000000E+00 -0.00000000000E+00 -0.91943973294E+03  0.91943973294E+03  0.00000000000E+00 0.  1.
         23    2    1    2    0    0  0.31029589693E+03 -0.43512248026E+03 -0.11873541033E+02  0.54243003450E+03  0.92055661845E+02 0.  0.
        254    2    1    2    0    0 -0.31029589693E+03  0.43512248026E+03 -0.21850977966E+03  0.10660661107E+04  0.89617816983E+03 0.  0.
        -24    2    4    4    0    0  0.22404407765E+03 -0.59227206564E+02  0.10315386073E+03  0.26624140380E+03  0.80871227164E+02 0.  0.
         24    2    4    4    0    0 -0.53433997459E+03  0.49434968682E+03 -0.32166364039E+03  0.79982470689E+03  0.79694685536E+02 0.  0.
         13    1    3    3    0    0  0.25170056433E+03 -0.39821479314E+03  0.51395838951E+01  0.47112059059E+03  0.00000000000E+00 0. -1.
        -13    1    3    3    0    0  0.58595332600E+02 -0.36907687119E+02 -0.17013124929E+02  0.71309443910E+02  0.00000000000E+00 0.  1.
          4    1    6    6  502    0 -0.12816135478E+03  0.16609531849E+03 -0.82558505098E+02  0.22545264347E+03  0.00000000000E+00 0. -1.
          3    1    5    5  503    0  0.68277990146E+02 -0.58123903453E+02  0.38753642344E+02  0.97683759581E+02  0.00000000000E+00 0. -1.
         -4    1    5    5    0  503  0.15576608751E+03 -0.11033031107E+01  0.64400218390E+02  0.16855764422E+03  0.00000000000E+00 0.  1.
         -3    1    6    6    0  502 -0.40617861981E+03  0.32825436833E+03 -0.23910513530E+03  0.57437206342E+03  0.00000000000E+00 0.  1.
<mgrwt>
<rscale>  0 0.15919119E+04</rscale>
<asrwt>0</asrwt>
<pdfrwt beam="1">  1        1 0.10600868E+00 0.15919119E+04</pdfrwt>
<pdfrwt beam="2">  1       -1 0.14145227E+00 0.15919119E+04</pdfrwt>
<totfact> 0.10931792E+01</totfact>
</mgrwt>
</event>
<event>
12    1  0.1755460E-007  0.2052511E+04  0.7818608E-02  0.8582456E-01
         -1   -1    0    0    0  501 -0.00000000000E+00  0.00000000000E+00  0.15330005274E+04  0.15330005274E+04  0.00000000000E+00 0.  1.
          1   -1    0    0  501    0  0.00000000000E+00 -0.00000000000E+00 -0.68701874934E+03  0.68701874934E+03  0.00000000000E+00 0. -1.
         23    2    1    2    0    0  0.57925847055E+03  0.54106254609E+02 -0.29168889114E+03  0.65734246050E+03  0.92459930055E+02 0.  0.
        254    2    1    2    0    0 -0.57925847055E+03 -0.54106254609E+02  0.11376706692E+04  0.15626768163E+04  0.89955345479E+03 0.  0.
        -24    2    4    4    0    0 -0.50624961508E+03  0.81955266828E+01  0.12755644785E+04  0.13746663830E+04  0.79291148104E+02 0.  0.
         24    2    4    4    0    0 -0.73008855473E+02 -0.62301781292E+02 -0.13789380930E+03  0.18801043331E+03  0.84388479426E+02 0.  0.
         13    1    3    3    0    0  0.39910497050E+03  0.45223557676E+02 -0.15299131304E+03  0.42980959682E+03  0.00000000000E+00 0. -1.
        -13    1    3    3    0    0  0.18015350005E+03  0.88826969325E+01 -0.13869757810E+03  0.22753286368E+03  0.00000000000E+00 0.  1.
          4    1    6    6  502    0 -0.20682444305E+02 -0.68393972820E+02 -0.10090399267E+03  0.12364107229E+03  0.00000000000E+00 0. -1.
          3    1    5    5  503    0 -0.46593436903E+03  0.28135139202E+02  0.11827577510E+04  0.12715354182E+04  0.00000000000E+00 0. -1.
         -4    1    5    5    0  503 -0.40315246047E+02 -0.19939612519E+02  0.92806727562E+02  0.10313096476E+03  0.00000000000E+00 0.  1.
         -3    1    6    6    0  502 -0.52326411169E+02  0.60921915286E+01 -0.36989816629E+02  0.64369361016E+02  0.00000000000E+00 0.  1.
<mgrwt>
<rscale>  0 0.20525108E+04</rscale>
<asrwt>0</asrwt>
<pdfrwt beam="1">  1        1 0.10569519E+00 0.20525108E+04</pdfrwt>
<pdfrwt beam="2">  1       -1 0.23584623E+00 0.20525108E+04</pdfrwt>
<totfact> 0.22347986E+00</totfact>
</mgrwt>
</event>
<event>
12    1  0.1755460E-007  0.1435581E+04  0.7818608E-02  0.8928458E-01
         -1   -1    0    0    0  501 -0.00000000000E+00  0.00000000000E+00  0.23389248597E+03  0.23389248597E+03  0.00000000000E+00 0.  1.
          1   -1    0    0  501    0  0.00000000000E+00 -0.00000000000E+00 -0.22028215485E+04  0.22028215485E+04  0.00000000000E+00 0. -1.
         23    2    1    2    0    0 -0.43574634612E+02  0.26799801495E+03 -0.34944980473E+02  0.28564679411E+03  0.81555223778E+02 0.  0.
        254    2    1    2    0    0  0.43574634612E+02 -0.26799801495E+03 -0.19339840821E+04  0.21510672404E+04  0.90170624824E+03 0.  0.
        -24    2    4    4    0    0  0.32945612209E+03  0.97169223972E+02 -0.13798088110E+04  0.14241738544E+04  0.80097554052E+02 0.  0.
         24    2    4    4    0    0 -0.28588148748E+03 -0.36516723892E+03 -0.55417527108E+03  0.72689338599E+03  0.78666551023E+02 0.  0.
         11    1    3    3    0    0 -0.19117862153E+02  0.21741697772E+03  0.22490624326E+01  0.21826748071E+03  0.00000000000E+00 0.  1.
        -11    1    3    3    0    0 -0.24456772458E+02  0.50581037235E+02 -0.37194042905E+02  0.67379313402E+02  0.00000000000E+00 0. -1.
          2    1    6    6  502    0 -0.20354694086E+03 -0.21385013808E+03 -0.31027938145E+03  0.42829491387E+03  0.00000000000E+00 0. -1.
          3    1    5    5  503    0  0.32322499974E+03  0.10091412183E+03 -0.12777335519E+04  0.13218400395E+04  0.00000000000E+00 0. -1.
         -4    1    5    5    0  503  0.62311223523E+01 -0.37448978595E+01 -0.10207525913E+03  0.10233381490E+03  0.00000000000E+00 0.  1.
         -1    1    6    6    0  502 -0.82334546614E+02 -0.15131710085E+03 -0.24389588963E+03  0.29859847212E+03  0.00000000000E+00 0.  1.
<mgrwt>
<rscale>  0 0.14355813E+04</rscale>
<asrwt>0</asrwt>
<pdfrwt beam="1">  1        1 0.33889561E+00 0.14355813E+04</pdfrwt>
<pdfrwt beam="2">  1       -1 0.35983461E-01 0.14355813E+04</pdfrwt>
<totfact> 0.15593627E+01</totfact>
</mgrwt>
</event>
<event>
12    1  0.1755460E-007  0.1319024E+04  0.7818608E-02  0.9014614E-01
          2   -1    0    0  501    0  0.00000000000E+00  0.00000000000E+00  0.17423980905E+04  0.17423980905E+04  0.00000000000E+00 0. -1.
         -2   -1    0    0    0  501 -0.00000000000E+00 -0.00000000000E+00 -0.24963066357E+03  0.24963066357E+03  0.00000000000E+00 0.  1.
         23    2    1    2    0    0 -0.73459041138E+02  0.33807407197E+02 -0.10211215434E+03  0.15848430876E+03  0.90284065887E+02 0.  0.
        254    2    1    2    0    0  0.73459041138E+02 -0.33807407197E+02  0.15948795813E+04  0.18335444453E+04  0.90094682566E+03 0.  0.
        -24    2    4    4    0    0 -0.45428056927E+02  0.38962490204E+03  0.44128610936E+03  0.59619089539E+03  0.82697525853E+02 0.  0.
         24    2    4    4    0    0  0.11888709806E+03 -0.42343230924E+03  0.11535934719E+04  0.12373535499E+04  0.82685225290E+02 0.  0.
         11    1    3    3    0    0 -0.72351004651E+02  0.57685800534E+02 -0.96966006408E+02  0.13403255521E+03  0.00000000000E+00 0.  1.
        -11    1    3    3    0    0 -0.11080364865E+01 -0.23878393337E+02 -0.51461479337E+01  0.24451753552E+02  0.00000000000E+00 0. -1.
          4    1    6    6  502    0 -0.57504505556E+01 -0.89134505637E+02  0.19375545262E+03  0.21335229832E+03  0.00000000000E+00 0. -1.
          3    1    5    5  503    0 -0.57708314748E+02  0.15939116329E+03  0.20582440274E+03  0.26664485236E+03  0.00000000000E+00 0. -1.
         -4    1    5    5    0  503  0.12280257822E+02  0.23023373875E+03  0.23546170662E+03  0.32954604303E+03  0.00000000000E+00 0.  1.
         -3    1    6    6    0  502  0.12463754862E+03 -0.33429780360E+03  0.95983801931E+03  0.10240012516E+04  0.00000000000E+00 0.  1.
<mgrwt>
<rscale>  0 0.13190239E+04</rscale>
<asrwt>0</asrwt>
<pdfrwt beam="1">  1        2 0.26806124E+00 0.13190239E+04</pdfrwt>
<pdfrwt beam="2">  1       -2 0.38404719E-01 0.13190239E+04</pdfrwt>
<totfact> 0.58221284E+01</totfact>
</mgrwt>
</event>
<event>
12    1  0.1755460E-007  0.2075079E+04  0.7818608E-02  0.8572302E-01
          2   -1    0    0  501    0  0.00000000000E+00  0.00000000000E+00  0.17700613796E+04  0.17700613796E+04  0.00000000000E+00 0. -1.
         -2   -1    0    0    0  501 -0.00000000000E+00 -0.00000000000E+00 -0.60816422384E+03  0.60816422384E+03  0.00000000000E+00 0.  1.
         23    2    1    2    0    0 -0.70342791340E+03  0.12928891890E+03  0.97568910029E+03  0.12134991762E+04  0.95313043847E+02 0.  0.
        254    2    1    2    0    0  0.70342791340E+03 -0.12928891890E+03  0.18620805544E+03  0.11647264272E+04  0.90021539444E+03 0.  0.
        -24    2    4    4    0    0  0.53160108229E+03 -0.48065698231E+01 -0.30816491921E+03  0.61977294295E+03  0.80808845906E+02 0.  0.
         24    2    4    4    0    0  0.17182683111E+03 -0.12448234908E+03  0.49437297464E+03  0.54495348425E+03  0.86886977242E+02 0.  0.
         13    1    3    3    0    0 -0.17427909811E+03  0.11304478288E+01  0.19267318388E+03  0.25980269001E+03  0.00000000000E+00 0.  1.
        -13    1    3    3    0    0 -0.52914881529E+03  0.12815847107E+03  0.78301591641E+03  0.95369648619E+03  0.00000000000E+00 0. -1.
          2    1    6    6  502    0  0.92059671396E+02 -0.45014600857E+02  0.14261561903E+03  0.17561466960E+03  0.00000000000E+00 0. -1.
          1    1    5    5  503    0  0.93843735722E+02 -0.41188102246E+01 -0.92272013236E+02  0.13167283607E+03  0.00000000000E+00 0. -1.
         -2    1    5    5    0  503  0.43775734657E+03 -0.68775959853E+00 -0.21589290597E+03  0.48810010688E+03  0.00000000000E+00 0.  1.
         -3    1    6    6    0  502  0.79767159718E+02 -0.79467748221E+02  0.35175735561E+03  0.36933881465E+03  0.00000000000E+00 0.  1.
<mgrwt>
<rscale>  0 0.20750788E+04</rscale>
<asrwt>0</asrwt>
<pdfrwt beam="1">  1        2 0.27231713E+00 0.20750788E+04</pdfrwt>
<pdfrwt beam="2">  1       -2 0.93563727E-01 0.20750788E+04</pdfrwt>
<totfact> 0.79953879E+00</totfact>
</mgrwt>
</event>
<event>
12    1  0.1755460E-007  0.4308953E+04  0.7818608E-02  0.7944965E-01
          2   -1    0    0  501    0  0.00000000000E+00  0.00000000000E+00  0.22227973970E+04  0.22227973970E+04  0.00000000000E+00 0. -1.
         -2   -1    0    0    0  501 -0.00000000000E+00 -0.00000000000E+00 -0.20882560145E+04  0.20882560145E+04  0.00000000000E+00 0.  1.
         23    2    1    2    0    0 -0.45120156240E+03  0.18257235262E+04 -0.77520071935E+03  0.20362298978E+04  0.91906458644E+02 0.  0.
        254    2    1    2    0    0  0.45120156240E+03 -0.18257235262E+04  0.90974210184E+03  0.22748235138E+04  0.90019002602E+03 0.  0.
        -24    2    4    4    0    0 -0.69926705965E+02 -0.83410090709E+03  0.77523781879E+03  0.11437165288E+04  0.80496926425E+02 0.  0.
         24    2    4    4    0    0  0.52112826837E+03 -0.99162261913E+03  0.13450428305E+03  0.11311069850E+04  0.80134377578E+02 0.  0.
         13    1    3    3    0    0 -0.19357380271E+02  0.14028058731E+03 -0.79575525263E+02  0.16243649703E+03  0.00000000000E+00 0. -1.
        -13    1    3    3    0    0 -0.43184418213E+03  0.16854429389E+04 -0.69562519409E+03  0.18737934007E+04  0.00000000000E+00 0.  1.
          4    1    6    6  502    0  0.48238742900E+03 -0.91442071269E+03  0.10224173893E+03  0.10389014605E+04  0.00000000000E+00 0. -1.
          1    1    5    5  503    0 -0.32785130203E+02 -0.46586943254E+03  0.37838634500E+03  0.60107022802E+03  0.00000000000E+00 0. -1.
         -2    1    5    5    0  503 -0.37141575762E+02 -0.36823147455E+03  0.39685147379E+03  0.54264630078E+03  0.00000000000E+00 0.  1.
         -3    1    6    6    0  502  0.38740839369E+02 -0.77201906442E+02  0.32262544119E+02  0.92205524489E+02  0.00000000000E+00 0.  1.
<mgrwt>
<rscale>  0 0.43089535E+04</rscale>
<asrwt>0</asrwt>
<pdfrwt beam="1">  1        2 0.34196883E+00 0.43089535E+04</pdfrwt>
<pdfrwt beam="2">  1       -2 0.32127016E+00 0.43089535E+04</pdfrwt>
<totfact> 0.90712113E-02</totfact>
</mgrwt>
</event>
<event>
12    1  0.1755460E-007  0.1562430E+04  0.7818608E-02  0.8843967E-01
          1   -1    0    0  501    0  0.00000000000E+00  0.00000000000E+00  0.53402891661E+03  0.53402891661E+03  0.00000000000E+00 0. -1.
         -1   -1    0    0    0  501 -0.00000000000E+00 -0.00000000000E+00 -0.11428158488E+04  0.11428158488E+04  0.00000000000E+00 0.  1.
         23    2    1    2    0    0  0.21522726958E+03 -0.22450908283E+03 -0.65968505189E+03  0.73506078828E+03  0.91667272958E+02 0.  0.
        254    2    1    2    0    0 -0.21522726958E+03  0.22450908283E+03  0.50898119653E+02  0.94178397717E+03  0.88749047050E+03 0.  0.
        -24    2    4    4    0    0 -0.48362650345E+01  0.13200266819E+03  0.44860273292E+03  0.47436782632E+03  0.79575931017E+02 0.  0.
         24    2    4    4    0    0 -0.21039100455E+03  0.92506414643E+02 -0.39770461327E+03  0.46741615085E+03  0.86527955677E+02 0.  0.
         13    1    3    3    0    0  0.82960249998E+02 -0.57111213706E+02 -0.13320676258E+03  0.16699741138E+03  0.00000000000E+00 0. -1.
        -13    1    3    3    0    0  0.13226701959E+03 -0.16739786913E+03 -0.52647828931E+03  0.56806337690E+03  0.00000000000E+00 0.  1.
          4    1    6    6  502    0 -0.17815737614E+03  0.40426016636E+02 -0.31999018930E+03  0.36846714201E+03  0.00000000000E+00 0. -1.
          1    1    5    5  503    0  0.33440025966E+02  0.90485148683E+02  0.25262372164E+03  0.27041549919E+03  0.00000000000E+00 0. -1.
         -2    1    5    5    0  503 -0.38276291000E+02  0.41517519507E+02  0.19597901129E+03  0.20395232713E+03  0.00000000000E+00 0.  1.
         -3    1    6    6    0  502 -0.32233628411E+02  0.52080398007E+02 -0.77714423964E+02  0.98949008833E+02  0.00000000000E+00 0.  1.
<mgrwt>
<rscale>  0 0.15624298E+04</rscale>
<asrwt>0</asrwt>
<pdfrwt beam="1">  1        1 0.82158296E-01 0.15624298E+04</pdfrwt>
<pdfrwt beam="2">  1       -1 0.17581782E+00 0.15624298E+04</pdfrwt>
<totfact> 0.86822008E+00</totfact>
</mgrwt>
</event>
<event>
12    1  0.1755460E-007  0.1774614E+04  0.7818608E-02  0.8719917E-01
          2   -1    0    0  501    0  0.00000000000E+00  0.00000000000E+00  0.13736843893E+04  0.13736843893E+04  0.00000000000E+00 0. -1.
         -2   -1    0    0    0  501 -0.00000000000E+00 -0.00000000000E+00 -0.57314046596E+03  0.57314046596E+03  0.00000000000E+00 0.  1.
         23    2    1    2    0    0 -0.33099534741E+03  0.55230192041E+03  0.15596516582E+03  0.66856475812E+03  0.89768432967E+02 0.  0.
        254    2    1    2    0    0  0.33099534741E+03 -0.55230192041E+03  0.64457875751E+03  0.12782600971E+04  0.89658896379E+03 0.  0.
        -24    2    4    4    0    0  0.21450589867E+03  0.14613078844E+03 -0.58425709455E+02  0.27727805212E+03  0.78118927068E+02 0.  0.
         24    2    4    4    0    0  0.11648944874E+03 -0.69843270885E+03  0.70300446696E+03  0.10009820450E+04  0.79823138294E+02 0.  0.
         13    1    3    3    0    0 -0.89495164570E+02  0.20000411031E+03  0.87724168076E+02  0.23602236819E+03  0.00000000000E+00 0. -1.
        -13    1    3    3    0    0 -0.24150018284E+03  0.35229781010E+03  0.68240997745E+02  0.43254238993E+03  0.00000000000E+00 0.  1.
          4    1    6    6  502    0  0.51930377155E+02 -0.22133503090E+03  0.17875774841E+03  0.28920631492E+03  0.00000000000E+00 0. -1.
          1    1    5    5  503    0  0.11322401490E+02  0.33568941361E+02 -0.23188291728E+02  0.42341084927E+02  0.00000000000E+00 0. -1.
         -2    1    5    5    0  503  0.20318349718E+03  0.11256184708E+03 -0.35237417727E+02  0.23493696719E+03  0.00000000000E+00 0.  1.
         -3    1    6    6    0  502  0.64559071583E+02 -0.47709767795E+03  0.52424671856E+03  0.71177573009E+03  0.00000000000E+00 0.  1.
<mgrwt>
<rscale>  0 0.17746144E+04</rscale>
<asrwt>0</asrwt>
<pdfrwt beam="1">  1        2 0.21133606E+00 0.17746144E+04</pdfrwt>
<pdfrwt beam="2">  1       -2 0.88175457E-01 0.17746144E+04</pdfrwt>
<totfact> 0.15703994E+01</totfact>
</mgrwt>
</event>
<event>
12    1  0.1755460E-007  0.1453604E+04  0.7818608E-02  0.8915905E-01
         -2   -1    0    0    0  501 -0.00000000000E+00  0.00000000000E+00  0.35946215130E+03  0.35946215130E+03  0.00000000000E+00 0.  1.
          2   -1    0    0  501    0  0.00000000000E+00 -0.00000000000E+00 -0.14695328181E+04  0.14695328181E+04  0.00000000000E+00 0. -1.
         23    2    1    2    0    0 -0.34327090282E+03 -0.15711144835E+03 -0.62456922181E+03  0.73550018255E+03  0.91405064293E+02 0.  0.
        254    2    1    2    0    0  0.34327090282E+03  0.15711144835E+03 -0.48550144496E+03  0.10934947868E+04  0.90415721853E+03 0.  0.
        -24    2    4    4    0    0 -0.80097279445E+01  0.48370300223E+03 -0.28845534762E+03  0.56877019736E+03  0.79122055865E+02 0.  0.
         24    2    4    4    0    0  0.35128063076E+03 -0.32659155388E+03 -0.19704609733E+03  0.52472458946E+03  0.80303211002E+02 0.  0.
         13    1    3    3    0    0 -0.32323491504E+03 -0.13406679850E+03 -0.60594686474E+03  0.69973303456E+03  0.00000000000E+00 0. -1.
        -13    1    3    3    0    0 -0.20035987778E+02 -0.23044649850E+02 -0.18622357070E+02  0.35767147997E+02  0.00000000000E+00 0.  1.
          2    1    6    6  502    0  0.27210147503E+03 -0.22293266713E+03 -0.17331730649E+03  0.39214420245E+03  0.00000000000E+00 0. -1.
          1    1    5    5  503    0 -0.14098728487E+02  0.43767992730E+03 -0.23163474871E+03  0.49539595246E+03  0.00000000000E+00 0. -1.
         -2    1    5    5    0  503  0.60890005421E+01  0.46023074930E+02 -0.56820598909E+02  0.73374244896E+02  0.00000000000E+00 0.  1.
         -1    1    6    6    0  502  0.79179155735E+02 -0.10365888675E+03 -0.23728790839E+02  0.13258038701E+03  0.00000000000E+00 0.  1.
<mgrwt>
<rscale>  0 0.14536044E+04</rscale>
<asrwt>0</asrwt>
<pdfrwt beam="1">  1        2 0.22608197E+00 0.14536044E+04</pdfrwt>
<pdfrwt beam="2">  1       -2 0.55301870E-01 0.14536044E+04</pdfrwt>
<totfact> 0.39354731E+01</totfact>
</mgrwt>
</event>
<event>
12    1  0.1755460E-007  0.1584784E+04  0.7818608E-02  0.8829950E-01
         -1   -1    0    0    0  501 -0.00000000000E+00  0.00000000000E+00  0.77578505489E+03  0.77578505489E+03  0.00000000000E+00 0.  1.
          1   -1    0    0  501    0  0.00000000000E+00 -0.00000000000E+00 -0.80935491997E+03  0.80935491997E+03  0.00000000000E+00 0. -1.
         23    2    1    2    0    0 -0.40381482058E+03 -0.83788598535E+02  0.25642089774E+03  0.49386235344E+03  0.89785348365E+02 0.  0.
        254    2    1    2    0    0  0.40381482058E+03  0.83788598535E+02 -0.28999076281E+03  0.10912776214E+04  0.96783535064E+03 0.  0.
        -24    2    4    4    0    0 -0.28126138710E+03  0.99282746013E+02  0.64591387278E+02  0.31536104512E+03  0.79470182710E+02 0.  0.
         24    2    4    4    0    0  0.68507620768E+03 -0.15494147478E+02 -0.35458215009E+03  0.77591657630E+03  0.82149578688E+02 0.  0.
         13    1    3    3    0    0 -0.99285502904E+02 -0.12956230154E+02  0.10958820172E+03  0.14844207269E+03  0.00000000000E+00 0. -1.
        -13    1    3    3    0    0 -0.30452931767E+03 -0.70832368381E+02  0.14683269602E+03  0.34542028075E+03  0.00000000000E+00 0.  1.
          4    1    6    6  502    0  0.31542236590E+02  0.16746005143E+02 -0.21576426376E+02  0.41723896660E+02  0.00000000000E+00 0. -1.
          3    1    5    5  503    0 -0.47755597817E+02  0.32109044631E+02  0.42188786260E+02  0.71354618323E+02  0.00000000000E+00 0. -1.
         -4    1    5    5    0  503 -0.23350578929E+03  0.67173701381E+02  0.22402601018E+02  0.24400642680E+03  0.00000000000E+00 0.  1.
         -3    1    6    6    0  502  0.65353397109E+03 -0.32240152621E+02 -0.33300572371E+03  0.73419267964E+03  0.00000000000E+00 0.  1.
<mgrwt>
<rscale>  0 0.15847845E+04</rscale>
<asrwt>0</asrwt>
<pdfrwt beam="1">  1        1 0.12451614E+00 0.15847845E+04</pdfrwt>
<pdfrwt beam="2">  1       -1 0.11935155E+00 0.15847845E+04</pdfrwt>
<totfact> 0.13081847E+01</totfact>
</mgrwt>
</event>
<event>
12    1  0.1755460E-007  0.1561953E+04  0.7818608E-02  0.8844269E-01
          2   -1    0    0  501    0  0.00000000000E+00  0.00000000000E+00  0.23974385637E+04  0.23974385637E+04  0.00000000000E+00 0. -1.
         -2   -1    0    0    0  501 -0.00000000000E+00 -0.00000000000E+00 -0.25440653515E+03  0.25440653515E+03  0.00000000000E+00 0.  1.
         23    2    1    2    0    0  0.38472752850E+03 -0.33049941460E+03  0.55124508383E+03  0.75460426415E+03  0.91166434541E+02 0.  0.
        254    2    1    2    0    0 -0.38472752850E+03  0.33049941460E+03  0.15917869447E+04  0.18972408347E+04  0.89916181703E+03 0.  0.
        -24    2    4    4    0    0 -0.19593353782E+03 -0.13551313909E+03  0.12713832048E+04  0.12957499912E+04  0.76151323746E+02 0.  0.
         24    2    4    4    0    0 -0.18879399068E+03  0.46601255369E+03  0.32040373991E+03  0.60149084350E+03  0.79509792810E+02 0.  0.
         13    1    3    3    0    0  0.50588793819E+02 -0.28972782614E+02  0.10902163405E+03  0.12362995140E+03  0.00000000000E+00 0. -1.
        -13    1    3    3    0    0  0.33413873468E+03 -0.30152663199E+03  0.44222344978E+03  0.63097431274E+03  0.00000000000E+00 0.  1.
          2    1    6    6  502    0 -0.16621548613E+03  0.40899684738E+03  0.24713761641E+03  0.50594763606E+03  0.00000000000E+00 0. -1.
          3    1    5    5  503    0 -0.12915439074E+03 -0.99146710899E+02  0.10264937309E+04  0.10393268525E+04  0.00000000000E+00 0. -1.
         -4    1    5    5    0  503 -0.66779147082E+02 -0.36366428188E+02  0.24488947393E+03  0.25642313863E+03  0.00000000000E+00 0.  1.
         -1    1    6    6    0  502 -0.22578504543E+02  0.57015706313E+02  0.73266123507E+02  0.95543207438E+02  0.00000000000E+00 0.  1.
<mgrwt>
<rscale>  0 0.15619527E+04</rscale>
<asrwt>0</asrwt>
<pdfrwt beam="1">  1        2 0.36883669E+00 0.15619527E+04</pdfrwt>
<pdfrwt beam="2">  1       -2 0.39139469E-01 0.15619527E+04</pdfrwt>
<totfact> 0.23716910E+01</totfact>
</mgrwt>
</event>
<event>
12    1  0.1755460E-007  0.1435475E+04  0.7818608E-02  0.8928532E-01
         -1   -1    0    0    0  501 -0.00000000000E+00  0.00000000000E+00  0.64400871490E+03  0.64400871490E+03  0.00000000000E+00 0.  1.
          1   -1    0    0  501    0  0.00000000000E+00 -0.00000000000E+00 -0.79990754667E+03  0.79990754667E+03  0.00000000000E+00 0. -1.
         23    2    1    2    0    0 -0.60326204135E+02  0.38455293884E+03 -0.22518711015E+03  0.45895984911E+03  0.91731645803E+02 0.  0.
        254    2    1    2    0    0  0.60326204135E+02 -0.38455293884E+03  0.69288278382E+02  0.98495641247E+03  0.90211864811E+03 0.  0.
        -24    2    4    4    0    0 -0.38159236858E+03 -0.15884131716E+01 -0.55620308116E+01  0.38978382555E+03  0.79279478151E+02 0.  0.
         24    2    4    4    0    0  0.44191857272E+03 -0.38296452567E+03  0.74850309194E+02  0.59517258692E+03  0.81694471054E+02 0.  0.
         11    1    3    3    0    0 -0.28538567155E+02  0.21948622945E+03 -0.75449558028E+02  0.23384030991E+03  0.00000000000E+00 0. -1.
        -11    1    3    3    0    0 -0.31787636980E+02  0.16506670939E+03 -0.14973755212E+03  0.22511953920E+03  0.00000000000E+00 0.  1.
          2    1    6    6  502    0  0.54583092910E+02 -0.16332615060E+02  0.11018175836E+02  0.58029893547E+02  0.00000000000E+00 0. -1.
          1    1    5    5  503    0 -0.82544085051E+02  0.21612992291E+00 -0.34227572079E+02  0.89359383276E+02  0.00000000000E+00 0. -1.
         -2    1    5    5    0  503 -0.29904828353E+03 -0.18045430945E+01  0.28665541267E+02  0.30042444227E+03  0.00000000000E+00 0.  1.
         -1    1    6    6    0  502  0.38733547981E+03 -0.36663191061E+03  0.63832133357E+02  0.53714269337E+03  0.00000000000E+00 0.  1.
<mgrwt>
<rscale>  0 0.14354754E+04</rscale>
<asrwt>0</asrwt>
<pdfrwt beam="1">  1        1 0.12306270E+00 0.14354754E+04</pdfrwt>
<pdfrwt beam="2">  1       -1 0.99078264E-01 0.14354754E+04</pdfrwt>
<totfact> 0.20940864E+01</totfact>
</mgrwt>
</event>
<event>
12    1  0.1755460E-007  0.2727402E+04  0.7818608E-02  0.8326168E-01
         -1   -1    0    0    0  501 -0.00000000000E+00  0.00000000000E+00  0.93832243159E+03  0.93832243159E+03  0.00000000000E+00 0.  1.
          1   -1    0    0  501    0  0.00000000000E+00 -0.00000000000E+00 -0.19819207496E+04  0.19819207496E+04  0.00000000000E+00 0. -1.
         23    2    1    2    0    0  0.20594511957E+03  0.58466504978E+03  0.60087017285E+03  0.86773485757E+03  0.87591127995E+02 0.  0.
        254    2    1    2    0    0 -0.20594511957E+03 -0.58466504978E+03 -0.16444684909E+04  0.20525083237E+04  0.10603146648E+04 0.  0.
        -24    2    4    4    0    0 -0.46991596787E+03 -0.46389061623E+03 -0.16186682415E+04  0.17499738338E+04  0.79410465668E+02 0.  0.
         24    2    4    4    0    0  0.26397084830E+03 -0.12077443356E+03 -0.25800249344E+02  0.30253448988E+03  0.81205862762E+02 0.  0.
         11    1    3    3    0    0  0.70499244512E+02  0.10080461667E+03  0.10387195939E+03  0.16100030487E+03  0.00000000000E+00 0. -1.
        -11    1    3    3    0    0  0.13544587506E+03  0.48386043311E+03  0.49699821346E+03  0.70673455270E+03  0.00000000000E+00 0.  1.
          2    1    6    6  502    0  0.13334749699E+03 -0.61738069090E+02  0.27694523386E+02  0.14953304235E+03  0.00000000000E+00 0. -1.
          1    1    5    5  503    0 -0.25466801266E+02 -0.54557542748E+02 -0.16999550246E+03  0.18034287980E+03  0.00000000000E+00 0. -1.
         -2    1    5    5    0  503 -0.44444916661E+03 -0.40933307348E+03 -0.14486727391E+04  0.15696309540E+04  0.00000000000E+00 0.  1.
         -1    1    6    6    0  502  0.13062335131E+03 -0.59036364465E+02 -0.53494772730E+02  0.15300144753E+03  0.00000000000E+00 0.  1.
<mgrwt>
<rscale>  0 0.27274022E+04</rscale>
<asrwt>0</asrwt>
<pdfrwt beam="1">  1        1 0.30491088E+00 0.27274022E+04</pdfrwt>
<pdfrwt beam="2">  1       -1 0.14435730E+00 0.27274022E+04</pdfrwt>
<totfact> 0.10322756E+00</totfact>
</mgrwt>
</event>
<event>
12    1  0.1755460E-007  0.1534092E+04  0.7818608E-02  0.8862093E-01
          2   -1    0    0  501    0  0.00000000000E+00  0.00000000000E+00  0.17268079765E+04  0.17268079765E+04  0.00000000000E+00 0. -1.
         -2   -1    0    0    0  501 -0.00000000000E+00 -0.00000000000E+00 -0.34072098273E+03  0.34072098273E+03  0.00000000000E+00 0.  1.
         23    2    1    2    0    0  0.10798309938E+03 -0.42388788723E+03  0.80005625414E+03  0.91633090106E+03  0.90724967687E+02 0.  0.
        254    2    1    2    0    0 -0.10798309938E+03  0.42388788723E+03  0.58603073963E+03  0.11511980582E+04  0.88909147485E+03 0.  0.
        -24    2    4    4    0    0 -0.10803794812E+03  0.20675999788E+03 -0.20909065459E+03  0.32310315434E+03  0.79087619479E+02 0.  0.
         24    2    4    4    0    0  0.54848734538E-01  0.21712788935E+03  0.79512139422E+03  0.82809490383E+03  0.79866231021E+02 0.  0.
         13    1    3    3    0    0  0.12009485476E+03 -0.38797314591E+03  0.75623623921E+03  0.85839337461E+03  0.00000000000E+00 0. -1.
        -13    1    3    3    0    0 -0.12111755382E+02 -0.35914741318E+02  0.43820014930E+02  0.57937526447E+02  0.00000000000E+00 0.  1.
          2    1    6    6  502    0  0.25081577234E+02  0.25788754352E+02  0.86823087023E+02  0.93980816169E+02  0.00000000000E+00 0. -1.
          1    1    5    5  503    0 -0.95739009623E+02  0.10191879397E+03 -0.10512628557E+03  0.17494266045E+03  0.00000000000E+00 0. -1.
         -2    1    5    5    0  503 -0.12298938494E+02  0.10484120391E+03 -0.10396436902E+03  0.14816049390E+03  0.00000000000E+00 0.  1.
         -1    1    6    6    0  502 -0.25026728500E+02  0.19133913500E+03  0.70829830720E+03  0.73411408766E+03  0.00000000000E+00 0.  1.
<mgrwt>
<rscale>  0 0.15340922E+04</rscale>
<asrwt>0</asrwt>
<pdfrwt beam="1">  1        2 0.26566276E+00 0.15340922E+04</pdfrwt>
<pdfrwt beam="2">  1       -2 0.52418614E-01 0.15340922E+04</pdfrwt>
<totfact> 0.31361074E+01</totfact>
</mgrwt>
</event>
<event>
12    1  0.1755460E-007  0.1722529E+04  0.7818608E-02  0.8748618E-01
          2   -1    0    0  501    0  0.00000000000E+00  0.00000000000E+00  0.30907702753E+04  0.30907702753E+04  0.00000000000E+00 0. -1.
         -2   -1    0    0    0  501 -0.00000000000E+00 -0.00000000000E+00 -0.23999743887E+03  0.23999743887E+03  0.00000000000E+00 0.  1.
         23    2    1    2    0    0 -0.72781838131E+02  0.12003751699E+03 -0.12883119167E+03  0.21068385354E+03  0.89911115815E+02 0.  0.
        254    2    1    2    0    0  0.72781838131E+02 -0.12003751699E+03  0.29796040281E+04  0.31200838606E+04  0.91497373274E+03 0.  0.
        -24    2    4    4    0    0  0.29213448218E+03  0.26662231156E+03  0.20140602428E+04  0.20540719537E+04  0.79642428621E+02 0.  0.
         24    2    4    4    0    0 -0.21935264405E+03 -0.38665982855E+03  0.96554378524E+03  0.10660119069E+04  0.80530609161E+02 0.  0.
         13    1    3    3    0    0 -0.36189216231E+02  0.76721748009E+01 -0.15851894319E+01  0.37027482538E+02  0.00000000000E+00 0. -1.
        -13    1    3    3    0    0 -0.36592621900E+02  0.11236534219E+03 -0.12724600224E+03  0.17365637100E+03  0.00000000000E+00 0.  1.
          4    1    6    6  502    0 -0.55588287693E+02 -0.82064113118E+02  0.14575575631E+03  0.17626490543E+03  0.00000000000E+00 0. -1.
          3    1    5    5  503    0  0.39517056110E+02  0.13612560352E+02  0.13582168873E+03  0.14210710979E+03  0.00000000000E+00 0. -1.
         -4    1    5    5    0  503  0.25261742607E+03  0.25300975121E+03  0.18782385541E+04  0.19119648439E+04  0.00000000000E+00 0.  1.
         -3    1    6    6    0  502 -0.16376435636E+03 -0.30459571543E+03  0.81978802893E+03  0.88974700149E+03  0.00000000000E+00 0.  1.
<mgrwt>
<rscale>  0 0.17225295E+04</rscale>
<asrwt>0</asrwt>
<pdfrwt beam="1">  1        2 0.47550309E+00 0.17225295E+04</pdfrwt>
<pdfrwt beam="2">  1       -2 0.36922685E-01 0.17225295E+04</pdfrwt>
<totfact> 0.10068590E+01</totfact>
</mgrwt>
</event>
<event>
12    1  0.1755460E-007  0.1793467E+04  0.7818608E-02  0.8709781E-01
         -1   -1    0    0    0  501 -0.00000000000E+00  0.00000000000E+00  0.77958254136E+03  0.77958254136E+03  0.00000000000E+00 0.  1.
          1   -1    0    0  501    0  0.00000000000E+00 -0.00000000000E+00 -0.10314896707E+04  0.10314896707E+04  0.00000000000E+00 0. -1.
         23    2    1    2    0    0 -0.10494322771E+03 -0.29993101375E+03  0.49275140563E+03  0.59586430830E+03  0.10620090440E+03 0.  0.
        254    2    1    2    0    0  0.10494322771E+03  0.29993101375E+03 -0.74465853495E+03  0.12152079037E+04  0.90622415637E+03 0.  0.
        -24    2    4    4    0    0  0.47461617890E+03  0.11214210680E+03 -0.58024497671E+03  0.76221446945E+03  0.80313728883E+02 0.  0.
         24    2    4    4    0    0 -0.36967295119E+03  0.18778890696E+03 -0.16441355824E+03  0.45299343429E+03  0.79047257771E+02 0.  0.
         13    1    3    3    0    0 -0.12351932005E+03 -0.22573391476E+03  0.40035446603E+03  0.47591650651E+03  0.00000000000E+00 0.  1.
        -13    1    3    3    0    0  0.18576092341E+02 -0.74197098991E+02  0.92396939604E+02  0.11994780179E+03  0.00000000000E+00 0. -1.
          2    1    6    6  502    0 -0.18448395078E+03  0.72280639644E+02 -0.41268447364E+02  0.20239047337E+03  0.00000000000E+00 0. -1.
          3    1    5    5  503    0  0.37542495990E+03  0.60480375514E+02 -0.47681569284E+03  0.60988112061E+03  0.00000000000E+00 0. -1.
         -4    1    5    5    0  503  0.99191219002E+02  0.51661731283E+02 -0.10342928386E+03  0.15233334883E+03  0.00000000000E+00 0.  1.
         -1    1    6    6    0  502 -0.18518900041E+03  0.11550826731E+03 -0.12314511088E+03  0.25060296092E+03  0.00000000000E+00 0.  1.
<mgrwt>
<rscale>  0 0.17934674E+04</rscale>
<asrwt>0</asrwt>
<pdfrwt beam="1">  1        1 0.15869072E+00 0.17934674E+04</pdfrwt>
<pdfrwt beam="2">  1       -1 0.11993578E+00 0.17934674E+04</pdfrwt>
<totfact> 0.83713404E+00</totfact>
</mgrwt>
</event>
<event>
12    1  0.1755460E-007  0.1443208E+04  0.7818608E-02  0.8923123E-01
          1   -1    0    0  501    0  0.00000000000E+00  0.00000000000E+00  0.60139546193E+03  0.60139546193E+03  0.00000000000E+00 0. -1.
         -1   -1    0    0    0  501 -0.00000000000E+00 -0.00000000000E+00 -0.86583979921E+03  0.86583979921E+03  0.00000000000E+00 0.  1.
         23    2    1    2    0    0 -0.12693070982E+03  0.83819447185E+02  0.33336898923E+03  0.37672409011E+03  0.87458860429E+02 0.  0.
        254    2    1    2    0    0  0.12693070982E+03 -0.83819447185E+02 -0.59781332652E+03  0.10905111710E+04  0.89927567294E+03 0.  0.
        -24    2    4    4    0    0  0.20104867842E+02 -0.46965228643E+03 -0.19149788027E+03  0.51394527554E+03  0.80565701408E+02 0.  0.
         24    2    4    4    0    0  0.10682584198E+03  0.38583283924E+03 -0.40631544624E+03  0.57656589548E+03  0.84007437915E+02 0.  0.
         11    1    3    3    0    0 -0.57284820058E+02  0.71419468795E+02  0.11389644549E+03  0.14613244481E+03  0.00000000000E+00 0.  1.
        -11    1    3    3    0    0 -0.69645889764E+02  0.12399978390E+02  0.21947254374E+03  0.23059164530E+03  0.00000000000E+00 0. -1.
          4    1    6    6  502    0  0.13893240009E+02  0.75504269071E+02 -0.36732345204E+02  0.85106885445E+02  0.00000000000E+00 0. -1.
          3    1    5    5  503    0  0.36214776128E+02 -0.27637793983E+03 -0.14630955102E+03  0.31480590902E+03  0.00000000000E+00 0. -1.
         -4    1    5    5    0  503 -0.16109908285E+02 -0.19327434659E+03 -0.45188329257E+02  0.19913936652E+03  0.00000000000E+00 0.  1.
         -3    1    6    6    0  502  0.92932601971E+02  0.31032857017E+03 -0.36958310104E+03  0.49145901004E+03  0.00000000000E+00 0.  1.
<mgrwt>
<rscale>  0 0.14432077E+04</rscale>
<asrwt>0</asrwt>
<pdfrwt beam="1">  1        1 0.92522379E-01 0.14432077E+04</pdfrwt>
<pdfrwt beam="2">  1       -1 0.13320612E+00 0.14432077E+04</pdfrwt>
<totfact> 0.15815258E+01</totfact>
</mgrwt>
</event>
<event>
12    1  0.1755460E-007  0.1306644E+04  0.7818608E-02  0.9024313E-01
          1   -1    0    0  501    0  0.00000000000E+00  0.00000000000E+00  0.13392203521E+04  0.13392203521E+04  0.00000000000E+00 0. -1.
         -1   -1    0    0    0  501 -0.00000000000E+00 -0.00000000000E+00 -0.31871489142E+03  0.31871489142E+03  0.00000000000E+00 0.  1.
         23    2    1    2    0    0  0.28435021314E+03 -0.13704261954E+03  0.41962263258E+03  0.53285182739E+03  0.90621150376E+02 0.  0.
        254    2    1    2    0    0 -0.28435021314E+03  0.13704261954E+03  0.60088282805E+03  0.11250834161E+04  0.89728300820E+03 0.  0.
        -24    2    4    4    0    0  0.94357883724E+02  0.44136426399E+03  0.31157461314E+03  0.55406679263E+03  0.78774662096E+02 0.  0.
         24    2    4    4    0    0 -0.37870809686E+03 -0.30432164446E+03  0.28930821491E+03  0.57101662345E+03  0.79556615850E+02 0.  0.
         11    1    3    3    0    0  0.72992630399E+02  0.59227089616E+01  0.94048468573E+02  0.11919780625E+03  0.00000000000E+00 0.  1.
        -11    1    3    3    0    0  0.21135758274E+03 -0.14296532850E+03  0.32557416401E+03  0.41365402114E+03  0.00000000000E+00 0. -1.
          2    1    6    6  502    0 -0.39545805103E+02 -0.25424219641E+02  0.36180783954E+01  0.47152435111E+02  0.00000000000E+00 0. -1.
          3    1    5    5  503    0 -0.18303857320E+01  0.14165157809E+01 -0.36798836613E+01  0.43472258563E+01  0.00000000000E+00 0. -1.
         -2    1    5    5    0  503  0.96188269456E+02  0.43994774821E+03  0.31525449680E+03  0.54971956677E+03  0.00000000000E+00 0.  1.
         -1    1    6    6    0  502 -0.33916229176E+03 -0.27889742482E+03  0.28569013652E+03  0.52386418834E+03  0.00000000000E+00 0.  1.
<mgrwt>
<rscale>  0 0.13066437E+04</rscale>
<asrwt>0</asrwt>
<pdfrwt beam="1">  1        1 0.20603390E+00 0.13066437E+04</pdfrwt>
<pdfrwt beam="2">  1       -1 0.49033061E-01 0.13066437E+04</pdfrwt>
<totfact> 0.34691325E+01</totfact>
</mgrwt>
</event>
<event>
12    1  0.1755460E-007  0.1251197E+04  0.7818608E-02  0.9069188E-01
          1   -1    0    0  501    0  0.00000000000E+00  0.00000000000E+00  0.84702682145E+03  0.84702682145E+03  0.00000000000E+00 0. -1.
         -1   -1    0    0    0  501 -0.00000000000E+00 -0.00000000000E+00 -0.46205557319E+03  0.46205557319E+03  0.00000000000E+00 0.  1.
         23    2    1    2    0    0 -0.24400853100E+03 -0.13846570209E+03  0.15937481225E+03  0.33538247462E+03  0.91477645604E+02 0.  0.
        254    2    1    2    0    0  0.24400853100E+03  0.13846570209E+03  0.22559643600E+03  0.97369992002E+03  0.90470153556E+03 0.  0.
        -24    2    4    4    0    0  0.81087621721E+02 -0.32955181475E+03  0.30796140674E+03  0.46503707465E+03  0.78991466323E+02 0.  0.
         24    2    4    4    0    0  0.16292090928E+03  0.46801751684E+03 -0.82364970738E+02  0.50866284537E+03  0.79814053290E+02 0.  0.
         13    1    3    3    0    0 -0.11771185041E+03 -0.41601860067E+02  0.25551353511E+02  0.12743494872E+03  0.00000000000E+00 0.  1.
        -13    1    3    3    0    0 -0.12629668059E+03 -0.96863842024E+02  0.13382345874E+03  0.20794752590E+03  0.00000000000E+00 0. -1.
          4    1    6    6  502    0  0.41872775985E+02  0.59114888185E+02  0.75774066961E+01  0.72837603380E+02  0.00000000000E+00 0. -1.
          3    1    5    5  503    0  0.37825159668E+01 -0.66382933928E+02  0.25221453212E+02  0.71113451934E+02  0.00000000000E+00 0. -1.
         -4    1    5    5    0  503  0.77305105755E+02 -0.26316888083E+03  0.28273995353E+03  0.39392362271E+03  0.00000000000E+00 0.  1.
         -3    1    6    6    0  502  0.12104813330E+03  0.40890262866E+03 -0.89942377434E+02  0.43582524199E+03  0.00000000000E+00 0.  1.
<mgrwt>
<rscale>  0 0.12511970E+04</rscale>
<asrwt>0</asrwt>
<pdfrwt beam="1">  1        1 0.13031182E+00 0.12511970E+04</pdfrwt>
<pdfrwt beam="2">  1       -1 0.71085473E-01 0.12511970E+04</pdfrwt>
<totfact> 0.39714972E+01</totfact>
</mgrwt>
</event>
<event>
12    1  0.1755460E-007  0.1196214E+04  0.7818608E-02  0.9116177E-01
          1   -1    0    0  501    0  0.00000000000E+00  0.00000000000E+00  0.75479268412E+03  0.75479268412E+03  0.00000000000E+00 0. -1.
         -1   -1    0    0    0  501 -0.00000000000E+00 -0.00000000000E+00 -0.47394705953E+03  0.47394705953E+03  0.00000000000E+00 0.  1.
         23    2    1    2    0    0  0.14799525819E+03 -0.39928923457E+02 -0.13739730254E+03  0.22472965372E+03  0.90158100802E+02 0.  0.
        254    2    1    2    0    0 -0.14799525819E+03  0.39928923457E+02  0.41824292712E+03  0.10040100899E+04  0.89978452932E+03 0.  0.
        -24    2    4    4    0    0 -0.19031087576E+03 -0.14618802436E+03  0.64750670377E+03  0.69504175553E+03  0.78923650445E+02 0.  0.
         24    2    4    4    0    0  0.42315617566E+02  0.18611694782E+03 -0.22926377665E+03  0.30896833440E+03  0.80432721115E+02 0.  0.
         13    1    3    3    0    0  0.14392144351E+02  0.16557313273E+02 -0.51919604435E+02  0.56364206431E+02  0.00000000000E+00 0. -1.
        -13    1    3    3    0    0  0.13360311384E+03 -0.56486236729E+02 -0.85477698104E+02  0.16836544729E+03  0.00000000000E+00 0.  1.
          2    1    6    6  502    0  0.41921084057E+02  0.19399009234E+03 -0.21450405434E+03  0.29223538893E+03  0.00000000000E+00 0. -1.
          1    1    5    5  503    0 -0.96774413975E+02 -0.11029285799E+03  0.30987579820E+03  0.34285975563E+03  0.00000000000E+00 0. -1.
         -2    1    5    5    0  503 -0.93536461783E+02 -0.35895166370E+02  0.33763090557E+03  0.35218199989E+03  0.00000000000E+00 0.  1.
         -1    1    6    6    0  502  0.39453350942E+00 -0.78731445296E+01 -0.14759722304E+02  0.16732945466E+02  0.00000000000E+00 0.  1.
<mgrwt>
<rscale>  0 0.11962136E+04</rscale>
<asrwt>0</asrwt>
<pdfrwt beam="1">  1        1 0.11612195E+00 0.11962136E+04</pdfrwt>
<pdfrwt beam="2">  1       -1 0.72914932E-01 0.11962136E+04</pdfrwt>
<totfact> 0.45540422E+01</totfact>
</mgrwt>
</event>
<event>
12    1  0.1755460E-007  0.1360174E+04  0.7818608E-02  0.8983162E-01
         -1   -1    0    0    0  501 -0.00000000000E+00  0.00000000000E+00  0.49108471218E+03  0.49108471218E+03  0.00000000000E+00 0.  1.
          1   -1    0    0  501    0  0.00000000000E+00 -0.00000000000E+00 -0.94183046693E+03  0.94183046693E+03  0.00000000000E+00 0. -1.
         23    2    1    2    0    0  0.12799683125E+03  0.41298335285E+02  0.24154509431E+03  0.29115003742E+03  0.91299344992E+02 0.  0.
        254    2    1    2    0    0 -0.12799683125E+03 -0.41298335285E+02 -0.69229084907E+03  0.11417651417E+04  0.89792665501E+03 0.  0.
        -24    2    4    4    0    0  0.75317919349E+02  0.11489022399E+03 -0.82694266195E+03  0.84193286278E+03  0.78385118103E+02 0.  0.
         24    2    4    4    0    0 -0.20331475060E+03 -0.15618855927E+03  0.13465181288E+03  0.29983227891E+03  0.77695115047E+02 0.  0.
         11    1    3    3    0    0  0.89784656093E+02  0.70656560897E+02  0.16481580715E+03  0.20054397113E+03  0.00000000000E+00 0.  1.
        -11    1    3    3    0    0  0.38212175161E+02 -0.29358225612E+02  0.76729287158E+02  0.90606066294E+02  0.00000000000E+00 0. -1.
          4    1    6    6  502    0 -0.20700070370E+03 -0.15866492592E+03  0.12502762258E+03  0.28923304870E+03  0.00000000000E+00 0. -1.
          3    1    5    5  503    0  0.77511922858E+02  0.59491918465E+02 -0.41913093540E+03  0.43036975679E+03  0.00000000000E+00 0. -1.
         -4    1    5    5    0  503 -0.21940035091E+01  0.55398305524E+02 -0.40781172655E+03  0.41156310600E+03  0.00000000000E+00 0.  1.
         -3    1    6    6    0  502  0.36859531024E+01  0.24763666499E+01  0.96241902982E+01  0.10599230206E+02  0.00000000000E+00 0.  1.
<mgrwt>
<rscale>  0 0.13601743E+04</rscale>
<asrwt>0</asrwt>
<pdfrwt beam="1">  1        1 0.14489699E+00 0.13601743E+04</pdfrwt>
<pdfrwt beam="2">  1       -1 0.75551495E-01 0.13601743E+04</pdfrwt>
<totfact> 0.28983737E+01</totfact>
</mgrwt>
</event>
<event>
12    1  0.1755460E-007  0.1634621E+04  0.7818608E-02  0.8799557E-01
         -1   -1    0    0    0  501 -0.00000000000E+00  0.00000000000E+00  0.40065665181E+03  0.40065665181E+03  0.00000000000E+00 0.  1.
          1   -1    0    0  501    0  0.00000000000E+00 -0.00000000000E+00 -0.16672546178E+04  0.16672546178E+04  0.00000000000E+00 0. -1.
         23    2    1    2    0    0 -0.42256445948E+03 -0.34284713090E+03 -0.64308252044E+03  0.84730289086E+03  0.90896552119E+02 0.  0.
        254    2    1    2    0    0  0.42256445948E+03  0.34284713090E+03 -0.62351544558E+03  0.12206083788E+04  0.89722261781E+03 0.  0.
        -24    2    4    4    0    0  0.45418142565E+03 -0.16294314131E+03 -0.12275183163E+03  0.50435597569E+03  0.80471754943E+02 0.  0.
         24    2    4    4    0    0 -0.31616966170E+02  0.50579027221E+03 -0.50076361395E+03  0.71625240310E+03  0.73687691459E+02 0.  0.
         11    1    3    3    0    0 -0.33997837520E+03 -0.22740623883E+03 -0.45790014161E+03  0.61397999377E+03  0.00000000000E+00 0. -1.
        -11    1    3    3    0    0 -0.82586084274E+02 -0.11544089207E+03 -0.18518237883E+03  0.23332289709E+03  0.00000000000E+00 0.  1.
          4    1    6    6  502    0 -0.52922487764E+02  0.27245713023E+03 -0.28274188243E+03  0.39620278848E+03  0.00000000000E+00 0. -1.
          3    1    5    5  503    0  0.45439846137E+03 -0.16250906666E+03 -0.11435848170E+03  0.49594860700E+03  0.00000000000E+00 0. -1.
         -4    1    5    5    0  503 -0.21703572915E+00 -0.43407465588E+00 -0.83933499289E+01  0.84073686932E+01  0.00000000000E+00 0.  1.
         -3    1    6    6    0  502  0.21305521594E+02  0.23333314199E+03 -0.21802173152E+03  0.32004961461E+03  0.00000000000E+00 0.  1.
<mgrwt>
<rscale>  0 0.16346212E+04</rscale>
<asrwt>0</asrwt>
<pdfrwt beam="1">  1        1 0.25650072E+00 0.16346212E+04</pdfrwt>
<pdfrwt beam="2">  1       -1 0.61639483E-01 0.16346212E+04</pdfrwt>
<totfact> 0.12816805E+01</totfact>
</mgrwt>
</event>
<event>
12    1  0.1755460E-007  0.1553033E+04  0.7818608E-02  0.8849933E-01
          1   -1    0    0  501    0  0.00000000000E+00  0.00000000000E+00  0.75735021162E+03  0.75735021162E+03  0.00000000000E+00 0. -1.
         -1   -1    0    0    0  501 -0.00000000000E+00 -0.00000000000E+00 -0.79616775507E+03  0.79616775507E+03  0.00000000000E+00 0.  1.
         23    2    1    2    0    0 -0.27605033204E+03  0.40962480232E+03  0.10173406568E+03  0.51265898577E+03  0.92049720681E+02 0.  0.
        254    2    1    2    0    0  0.27605033204E+03 -0.40962480232E+03 -0.14055160913E+03  0.10408589809E+04  0.90533772640E+03 0.  0.
        -24    2    4    4    0    0  0.25952414799E+03  0.22262824669E+03 -0.19439996304E+03  0.40115877618E+03  0.78872672506E+02 0.  0.
         24    2    4    4    0    0  0.16526184053E+02 -0.63225304901E+03  0.53848353906E+02  0.63970020474E+03  0.79370485622E+02 0.  0.
         11    1    3    3    0    0 -0.10398845294E+03  0.18548123072E+03  0.86857776751E+02  0.22969797273E+03  0.00000000000E+00 0.  1.
        -11    1    3    3    0    0 -0.17206187910E+03  0.22414357160E+03  0.14876288928E+02  0.28296101304E+03  0.00000000000E+00 0. -1.
          2    1    6    6  502    0 -0.12236516305E+02 -0.38272852322E+02  0.17756151093E+02  0.43929767331E+02  0.00000000000E+00 0. -1.
          3    1    5    5  503    0  0.88578995211E+01 -0.58725167507E+01 -0.91129386741E+00  0.10666737712E+02  0.00000000000E+00 0. -1.
         -4    1    5    5    0  503  0.25066624847E+03  0.22850076344E+03 -0.19348866917E+03  0.39049203847E+03  0.00000000000E+00 0.  1.
         -1    1    6    6    0  502  0.28762700358E+02 -0.59398019668E+03  0.36092202813E+02  0.59577043741E+03  0.00000000000E+00 0.  1.
<mgrwt>
<rscale>  0 0.15530329E+04</rscale>
<asrwt>0</asrwt>
<pdfrwt beam="1">  1        1 0.11651542E+00 0.15530329E+04</pdfrwt>
<pdfrwt beam="2">  1       -1 0.12248735E+00 0.15530329E+04</pdfrwt>
<totfact> 0.13678387E+01</totfact>
</mgrwt>
</event>
<event>
12    1  0.1755460E-007  0.1575232E+04  0.7818608E-02  0.8835910E-01
         -1   -1    0    0    0  501 -0.00000000000E+00  0.00000000000E+00  0.81158177042E+03  0.81158177042E+03  0.00000000000E+00 0.  1.
          1   -1    0    0  501    0  0.00000000000E+00 -0.00000000000E+00 -0.76435789116E+03  0.76435789116E+03  0.00000000000E+00 0. -1.
         23    2    1    2    0    0  0.39531841652E+03 -0.34172480596E+02  0.35709091818E+03  0.54219503835E+03  0.94958553582E+02 0.  0.
        254    2    1    2    0    0 -0.39531841652E+03  0.34172480596E+02 -0.30986703891E+03  0.10337446232E+04  0.90286541378E+03 0.  0.
        -24    2    4    4    0    0 -0.42448763019E+03 -0.16858419619E+03  0.17886638323E+03  0.49701371198E+03  0.80119082996E+02 0.  0.
         24    2    4    4    0    0  0.29169213670E+02  0.20275667679E+03 -0.48873342214E+03  0.53673091125E+03  0.85197418812E+02 0.  0.
         13    1    3    3    0    0  0.92930892617E+02 -0.36615699557E+02  0.51910037752E+02  0.11256781190E+03  0.00000000000E+00 0. -1.
        -13    1    3    3    0    0  0.30238752390E+03  0.24432189611E+01  0.30518088042E+03  0.42962722645E+03  0.00000000000E+00 0.  1.
          2    1    6    6  502    0  0.83071332775E+01  0.82803315503E+01 -0.10857779983E+03  0.10920948205E+03  0.00000000000E+00 0. -1.
          3    1    5    5  503    0 -0.17522988910E+02 -0.23567302058E+02  0.24460960211E+02  0.38220563066E+02  0.00000000000E+00 0. -1.
         -4    1    5    5    0  503 -0.40696464128E+03 -0.14501689414E+03  0.15440542301E+03  0.45879314892E+03  0.00000000000E+00 0.  1.
         -1    1    6    6    0  502  0.20862080393E+02  0.19447634524E+03 -0.38015562231E+03  0.42752142920E+03  0.00000000000E+00 0.  1.
<mgrwt>
<rscale>  0 0.15752320E+04</rscale>
<asrwt>0</asrwt>
<pdfrwt beam="1">  1        1 0.11759352E+00 0.15752320E+04</pdfrwt>
<pdfrwt beam="2">  1       -1 0.12485873E+00 0.15752320E+04</pdfrwt>
<totfact> 0.12831550E+01</totfact>
</mgrwt>
</event>
<event>
12    1  0.1755460E-007  0.1747466E+04  0.7818608E-02  0.8734747E-01
          2   -1    0    0  501    0  0.00000000000E+00  0.00000000000E+00  0.20600631381E+04  0.20600631381E+04  0.00000000000E+00 0. -1.
         -2   -1    0    0    0  501 -0.00000000000E+00 -0.00000000000E+00 -0.37057559126E+03  0.37057559126E+03  0.00000000000E+00 0.  1.
         23    2    1    2    0    0 -0.73795119783E+02 -0.63288226294E+03  0.61243344556E+03  0.88829976771E+03  0.89532528309E+02 0.  0.
        254    2    1    2    0    0  0.73795119783E+02  0.63288226294E+03  0.10770541012E+04  0.15423389616E+04  0.90154215488E+03 0.  0.
        -24    2    4    4    0    0  0.27666392706E+02  0.55230840095E+03  0.12272125413E+04  0.13483707042E+04  0.79012247718E+02 0.  0.
         24    2    4    4    0    0  0.46128727077E+02  0.80573861993E+02 -0.15015844005E+03  0.19396825745E+03  0.80349991161E+02 0.  0.
         13    1    3    3    0    0 -0.11222557814E+02 -0.66690385820E+01  0.20665569490E+02  0.24443560335E+02  0.00000000000E+00 0.  1.
        -13    1    3    3    0    0 -0.62572561969E+02 -0.62621322436E+03  0.59176787607E+03  0.86385620738E+03  0.00000000000E+00 0. -1.
          2    1    6    6  502    0 -0.30441192544E+01  0.49333373263E+02 -0.11681966339E+03  0.12684589916E+03  0.00000000000E+00 0. -1.
          1    1    5    5  503    0  0.46750990207E+02  0.18582045442E+03  0.42654684563E+03  0.46760785695E+03  0.00000000000E+00 0. -1.
         -2    1    5    5    0  503 -0.19084597501E+02  0.36648794653E+03  0.80066569566E+03  0.88076284721E+03  0.00000000000E+00 0.  1.
         -1    1    6    6    0  502  0.49172846331E+02  0.31240488730E+02 -0.33338776663E+02  0.67122358285E+02  0.00000000000E+00 0.  1.
<mgrwt>
<rscale>  0 0.17474657E+04</rscale>
<asrwt>0</asrwt>
<pdfrwt beam="1">  1        2 0.31693278E+00 0.17474657E+04</pdfrwt>
<pdfrwt beam="2">  1       -2 0.57011631E-01 0.17474657E+04</pdfrwt>
<totfact> 0.16915241E+01</totfact>
</mgrwt>
</event>
<event>
12    1  0.1755460E-007  0.2061920E+04  0.7818608E-02  0.8578206E-01
         -2   -1    0    0    0  501 -0.00000000000E+00  0.00000000000E+00  0.64397770367E+03  0.64397770367E+03  0.00000000000E+00 0.  1.
          2   -1    0    0  501    0  0.00000000000E+00 -0.00000000000E+00 -0.16504892595E+04  0.16504892595E+04  0.00000000000E+00 0. -1.
         23    2    1    2    0    0  0.31852187942E+03  0.41722560179E+03  0.31711177123E+03  0.61997635732E+03  0.90980315058E+02 0.  0.
        254    2    1    2    0    0 -0.31852187942E+03 -0.41722560179E+03 -0.13236233271E+04  0.16744906059E+04  0.88113942523E+03 0.  0.
        -24    2    4    4    0    0 -0.53573573821E+03 -0.50746589516E+03 -0.11610316020E+04  0.13777358417E+04  0.75015016193E+02 0.  0.
         24    2    4    4    0    0  0.21721385879E+03  0.90240293373E+02 -0.16259172506E+03  0.29675476417E+03  0.79386081921E+02 0.  0.
         11    1    3    3    0    0  0.66299356380E+02  0.71699924899E+02  0.10176703418E+03  0.14104259333E+03  0.00000000000E+00 0. -1.
        -11    1    3    3    0    0  0.25222252304E+03  0.34552567689E+03  0.21534473705E+03  0.47893376400E+03  0.00000000000E+00 0.  1.
          4    1    6    6  502    0  0.59657600822E+02 -0.56972143501E+01 -0.63671248898E+02  0.87438638618E+02  0.00000000000E+00 0. -1.
          1    1    5    5  503    0 -0.18995204704E+03 -0.20149116961E+03 -0.37559814354E+03  0.46664165806E+03  0.00000000000E+00 0. -1.
         -2    1    5    5    0  503 -0.34578369118E+03 -0.30597472555E+03 -0.78543345847E+03  0.91109418363E+03  0.00000000000E+00 0.  1.
         -1    1    6    6    0  502  0.15755625797E+03  0.95937507723E+02 -0.98920476160E+02  0.20931612555E+03  0.00000000000E+00 0.  1.
<mgrwt>
<rscale>  0 0.20619198E+04</rscale>
<asrwt>0</asrwt>
<pdfrwt beam="1">  1        2 0.25392142E+00 0.20619198E+04</pdfrwt>
<pdfrwt beam="2">  1       -2 0.99073493E-01 0.20619198E+04</pdfrwt>
<totfact> 0.81577220E+00</totfact>
</mgrwt>
</event>
<event>
12    1  0.1755460E-007  0.3420882E+04  0.7818608E-02  0.8132800E-01
          4   -1    0    0  501    0  0.00000000000E+00  0.00000000000E+00  0.20492398948E+04  0.20492398948E+04  0.00000000000E+00 0.  1.
         -4   -1    0    0    0  501 -0.00000000000E+00 -0.00000000000E+00 -0.14276556826E+04  0.14276556826E+04  0.00000000000E+00 0. -1.
         23    2    1    2    0    0 -0.11802473080E+04  0.91666850534E+03 -0.27431198892E+03  0.15220630678E+04  0.90355179565E+02 0.  0.
        254    2    1    2    0    0  0.11802473080E+04 -0.91666850534E+03  0.89589620114E+03  0.19548325095E+04  0.88627043304E+03 0.  0.
        -24    2    4    4    0    0  0.11031828100E+04 -0.53446538304E+03  0.95040964679E+03  0.15532508841E+04  0.81512296362E+02 0.  0.
         24    2    4    4    0    0  0.77064497968E+02 -0.38220312230E+03 -0.54513445653E+02  0.40158162538E+03  0.79233342388E+02 0.  0.
         13    1    3    3    0    0 -0.25922759011E+03  0.15889594188E+03 -0.70011560436E+02  0.31200718327E+03  0.00000000000E+00 0.  1.
        -13    1    3    3    0    0 -0.92101971785E+03  0.75777256347E+03 -0.20430042849E+03  0.12100558845E+04  0.00000000000E+00 0. -1.
          4    1    6    6  502    0  0.20438619638E+02 -0.21411087569E+03 -0.62645069101E+02  0.22402144751E+03  0.00000000000E+00 0. -1.
          3    1    5    5  503    0  0.56523338919E+03 -0.31126206621E+03  0.47059647849E+03  0.79864504236E+03  0.00000000000E+00 0. -1.
         -4    1    5    5    0  503  0.53794942081E+03 -0.22320331683E+03  0.47981316830E+03  0.75460584179E+03  0.00000000000E+00 0.  1.
         -1    1    6    6    0  502  0.56625878329E+02 -0.16809224661E+03  0.81316234478E+01  0.17756017787E+03  0.00000000000E+00 0.  1.
<mgrwt>
<rscale>  0 0.34208823E+04</rscale>
<asrwt>0</asrwt>
<pdfrwt beam="1">  1        4 0.31526768E+00 0.34208823E+04</pdfrwt>
<pdfrwt beam="2">  1       -4 0.21963934E+00 0.34208823E+04</pdfrwt>
<totfact> 0.39649823E-03</totfact>
</mgrwt>
</event>
<event>
12    1  0.1755460E-007  0.1800683E+04  0.7818608E-02  0.8705936E-01
         -2   -1    0    0    0  501 -0.00000000000E+00  0.00000000000E+00  0.88465112393E+03  0.88465112393E+03  0.00000000000E+00 0.  1.
          2   -1    0    0  501    0  0.00000000000E+00 -0.00000000000E+00 -0.91631066427E+03  0.91631066427E+03  0.00000000000E+00 0. -1.
         23    2    1    2    0    0 -0.23299615342E+02  0.59621149360E+03 -0.35510417911E+03  0.70010439091E+03  0.89644648301E+02 0.  0.
        254    2    1    2    0    0  0.23299615342E+02 -0.59621149360E+03  0.32344463877E+03  0.11008573973E+04  0.86675230466E+03 0.  0.
        -24    2    4    4    0    0  0.16569458173E+03  0.14201484668E+03  0.24993554970E+03  0.34125858497E+03  0.79791802344E+02 0.  0.
         24    2    4    4    0    0 -0.14239496639E+03 -0.73822634029E+03  0.73509089078E+02  0.75959881232E+03  0.79575835252E+02 0.  0.
         11    1    3    3    0    0 -0.46727264941E+01  0.73491304161E+02 -0.81403203612E+02  0.10976924760E+03  0.00000000000E+00 0.  1.
        -11    1    3    3    0    0 -0.18626888848E+02  0.52272018944E+03 -0.27370097550E+03  0.59033514331E+03  0.00000000000E+00 0. -1.
          4    1    6    6  502    0 -0.79467176450E+02 -0.44292053541E+03  0.51564153596E+01  0.45002246771E+03  0.00000000000E+00 0. -1.
          1    1    5    5  503    0 -0.37239919087E+01  0.68700558268E+00 -0.35608968909E+01  0.51980841734E+01  0.00000000000E+00 0. -1.
         -4    1    5    5    0  503  0.16941857364E+03  0.14132784110E+03  0.25349644659E+03  0.33606050080E+03  0.00000000000E+00 0.  1.
         -1    1    6    6    0  502 -0.62927789940E+02 -0.29530580487E+03  0.68352673719E+02  0.30957634461E+03  0.00000000000E+00 0.  1.
<mgrwt>
<rscale>  0 0.18006835E+04</rscale>
<asrwt>0</asrwt>
<pdfrwt beam="1">  1        2 0.14097087E+00 0.18006835E+04</pdfrwt>
<pdfrwt beam="2">  1       -2 0.13610017E+00 0.18006835E+04</pdfrwt>
<totfact> 0.10426738E+01</totfact>
</mgrwt>
</event>
<event>
12    1  0.1755460E-007  0.1132237E+04  0.7818608E-02  0.9174329E-01
          2   -1    0    0  501    0  0.00000000000E+00  0.00000000000E+00  0.54927852693E+03  0.54927852693E+03  0.00000000000E+00 0. -1.
         -2   -1    0    0    0  501 -0.00000000000E+00 -0.00000000000E+00 -0.58347454189E+03  0.58347454189E+03  0.00000000000E+00 0.  1.
         23    2    1    2    0    0 -0.71214888208E+02  0.13015824657E+03  0.11223814859E+03  0.20722615918E+03  0.91282800113E+02 0.  0.
        254    2    1    2    0    0  0.71214888208E+02 -0.13015824657E+03 -0.14643416355E+03  0.92552690965E+03  0.90174517840E+03 0.  0.
        -24    2    4    4    0    0  0.21461645694E+03  0.17275139740E+03 -0.40423369857E+03  0.49542181397E+03  0.78323826538E+02 0.  0.
         24    2    4    4    0    0 -0.14340156873E+03 -0.30290964397E+03  0.25779953502E+03  0.43010509568E+03  0.78813265045E+02 0.  0.
         11    1    3    3    0    0 -0.80633710802E+02  0.65737617530E+02  0.92457634398E+02  0.13918205285E+03  0.00000000000E+00 0. -1.
        -11    1    3    3    0    0  0.94188225942E+01  0.64420629035E+02  0.19780514191E+02  0.68044106328E+02  0.00000000000E+00 0.  1.
          4    1    6    6  502    0 -0.89371806423E+01  0.80003304478E+00 -0.10132244166E+01  0.90299432127E+01  0.00000000000E+00 0. -1.
          3    1    5    5  503    0 -0.60186520972E+01  0.79916692732E+01 -0.75624866288E+01  0.12541218236E+02  0.00000000000E+00 0. -1.
         -4    1    5    5    0  503  0.22063510903E+03  0.16475972813E+03 -0.39667121194E+03  0.48288059573E+03  0.00000000000E+00 0.  1.
         -3    1    6    6    0  502 -0.13446438809E+03 -0.30370967701E+03  0.25881275944E+03  0.42107515246E+03  0.00000000000E+00 0.  1.
<mgrwt>
<rscale>  0 0.11322368E+04</rscale>
<asrwt>0</asrwt>
<pdfrwt beam="1">  1        2 0.84504388E-01 0.11322368E+04</pdfrwt>
<pdfrwt beam="2">  1       -2 0.89765314E-01 0.11322368E+04</pdfrwt>
<totfact> 0.58119069E+01</totfact>
</mgrwt>
</event>
<event>
12    1  0.2020827E-007  0.1347132E+04  0.7818608E-02  0.8993002E-01
          1   -1    0    0  501    0  0.00000000000E+00  0.00000000000E+00  0.14658479910E+04  0.14658479910E+04  0.00000000000E+00 0. -1.
         -1   -1    0    0    0  501 -0.00000000000E+00 -0.00000000000E+00 -0.30950775070E+03  0.30950775070E+03  0.00000000000E+00 0.  1.
         23    2    1    2    0    0 -0.16336369846E+03  0.15483777323E+03 -0.61810621505E+02  0.24954168434E+03  0.88250015855E+02 0.  0.
        254    2    1    2    0    0  0.16336369846E+03 -0.15483777323E+03  0.12181508618E+04  0.15258140574E+04  0.89081680584E+03 0.  0.
        -24    2    4    4    0    0  0.32388386325E+03  0.19158829011E+03  0.19592112696E+03  0.43162138662E+03  0.79404682576E+02 0.  0.
         24    2    4    4    0    0 -0.16052016479E+03 -0.34642606333E+03  0.10222297349E+04  0.10941926708E+04  0.80785080797E+02 0.  0.
         13    1    3    3    0    0 -0.27134168324E+02 -0.55266580372E+01  0.62565866092E+01  0.28389292272E+02  0.00000000000E+00 0. -1.
        -13    1    3    3    0    0 -0.13622953014E+03  0.16036443126E+03 -0.68067208114E+02  0.22115239207E+03  0.00000000000E+00 0.  1.
          2    1    6    6  502    0 -0.69180335574E+01 -0.81938810034E+02  0.17258733269E+03  0.19117587501E+03  0.00000000000E+00 0. -1.
          3    1    5    5  503    0  0.59028992585E+02  0.67159377134E+02  0.67617159837E+02  0.11210211509E+03  0.00000000000E+00 0. -1.
         -4    1    5    5    0  503  0.26485487066E+03  0.12442891297E+03  0.12830396713E+03  0.31951927153E+03  0.00000000000E+00 0.  1.
         -1    1    6    6    0  502 -0.15360213123E+03 -0.26448725330E+03  0.84964240217E+03  0.90301679577E+03  0.00000000000E+00 0.  1.
<mgrwt>
<rscale>  0 0.13471322E+04</rscale>
<asrwt>0</asrwt>
<pdfrwt beam="1">  1        1 0.22551507E+00 0.13471322E+04</pdfrwt>
<pdfrwt beam="2">  1       -1 0.47616578E-01 0.13471322E+04</pdfrwt>
<totfact> 0.29785676E+01</totfact>
</mgrwt>
</event>
<event>
12    1  0.1755460E-007  0.2041633E+04  0.7818608E-02  0.8587400E-01
          2   -1    0    0  501    0  0.00000000000E+00  0.00000000000E+00  0.26701760651E+04  0.26701760651E+04  0.00000000000E+00 0.  1.
         -2   -1    0    0    0  501 -0.00000000000E+00 -0.00000000000E+00 -0.39026117008E+03  0.39026117008E+03  0.00000000000E+00 0. -1.
         23    2    1    2    0    0 -0.31861640577E+03 -0.75435377996E+03  0.88748833838E+03  0.12109333662E+04  0.90321798572E+02 0.  0.
        254    2    1    2    0    0  0.31861640577E+03  0.75435377996E+03  0.13924265566E+04  0.18495038689E+04  0.90069240380E+03 0.  0.
        -24    2    4    4    0    0 -0.30522984781E+03  0.18571645521E+03  0.48445640403E+03  0.60727030594E+03  0.80145837958E+02 0.  0.
         24    2    4    4    0    0  0.62384625357E+03  0.56863732475E+03  0.90797015257E+03  0.12422335630E+04  0.78751964056E+02 0.  0.
         11    1    3    3    0    0 -0.48881066283E+02 -0.21870132970E+03  0.24476765210E+03  0.33185965974E+03  0.00000000000E+00 0.  1.
        -11    1    3    3    0    0 -0.26973533948E+03 -0.53565245026E+03  0.64272068628E+03  0.87907370647E+03  0.00000000000E+00 0. -1.
          2    1    6    6  502    0  0.47783952005E+01  0.11342647861E+02  0.27826296298E+02  0.30426821832E+02  0.00000000000E+00 0. -1.
          1    1    5    5  503    0 -0.60455264520E+02  0.34059910762E+02  0.15431144529E+03  0.16919497237E+03  0.00000000000E+00 0. -1.
         -2    1    5    5    0  503 -0.24477458329E+03  0.15165654445E+03  0.33014495874E+03  0.43807533357E+03  0.00000000000E+00 0.  1.
         -1    1    6    6    0  502  0.61906785837E+03  0.55729467689E+03  0.88014385628E+03  0.12118067412E+04  0.00000000000E+00 0.  1.
<mgrwt>
<rscale>  0 0.20416327E+04</rscale>
<asrwt>0</asrwt>
<pdfrwt beam="1">  1        2 0.41079631E+00 0.20416327E+04</pdfrwt>
<pdfrwt beam="2">  1       -2 0.60040182E-01 0.20416327E+04</pdfrwt>
<totfact> 0.66302200E+00</totfact>
</mgrwt>
</event>
<event>
12    1  0.1755460E-007  0.2235097E+04  0.7818608E-02  0.8503960E-01
         -1   -1    0    0    0  501 -0.00000000000E+00  0.00000000000E+00  0.76006395524E+03  0.76006395524E+03  0.00000000000E+00 0.  1.
          1   -1    0    0  501    0  0.00000000000E+00 -0.00000000000E+00 -0.16431705726E+04  0.16431705726E+04  0.00000000000E+00 0. -1.
         23    2    1    2    0    0 -0.40512095443E+03 -0.41050834257E+03  0.41805770971E+03  0.71803422710E+03  0.90337232659E+02 0.  0.
        254    2    1    2    0    0  0.40512095443E+03  0.41050834257E+03 -0.13011643271E+04  0.16852003008E+04  0.90234769382E+03 0.  0.
        -24    2    4    4    0    0  0.63397673063E+03  0.13708995341E+03 -0.10674169323E+04  0.12515465521E+04  0.79181528292E+02 0.  0.
         24    2    4    4    0    0 -0.22885577620E+03  0.27341838915E+03 -0.23374739485E+03  0.43365374870E+03  0.79278921143E+02 0.  0.
         13    1    3    3    0    0 -0.30611131289E+03 -0.35789560440E+03  0.32337658513E+03  0.57128435594E+03  0.00000000000E+00 0.  1.
        -13    1    3    3    0    0 -0.99009641537E+02 -0.52612738172E+02  0.94681124577E+02  0.14674987116E+03  0.00000000000E+00 0. -1.
          4    1    6    6  502    0 -0.11948158568E+03  0.10424949155E+03 -0.66977178093E+02  0.17213293755E+03  0.00000000000E+00 0. -1.
          3    1    5    5  503    0  0.14568966365E+03  0.40817108617E+02 -0.31459658111E+03  0.34908813113E+03  0.00000000000E+00 0. -1.
         -4    1    5    5    0  503  0.48828706697E+03  0.96272844798E+02 -0.75282035115E+03  0.90245842094E+03  0.00000000000E+00 0.  1.
         -3    1    6    6    0  502 -0.10937419052E+03  0.16916889761E+03 -0.16677021675E+03  0.26152081115E+03  0.00000000000E+00 0.  1.
<mgrwt>
<rscale>  0 0.22350971E+04</rscale>
<asrwt>0</asrwt>
<pdfrwt beam="1">  1        1 0.25279547E+00 0.22350971E+04</pdfrwt>
<pdfrwt beam="2">  1       -1 0.11693292E+00 0.22350971E+04</pdfrwt>
<totfact> 0.31237104E+00</totfact>
</mgrwt>
</event>
<event>
12    1  0.1755460E-007  0.1820923E+04  0.7818608E-02  0.8695251E-01
          2   -1    0    0  501    0  0.00000000000E+00  0.00000000000E+00  0.14185131075E+04  0.14185131075E+04  0.00000000000E+00 0. -1.
         -2   -1    0    0    0  501 -0.00000000000E+00 -0.00000000000E+00 -0.58437251416E+03  0.58437251416E+03  0.00000000000E+00 0.  1.
         23    2    1    2    0    0 -0.43045116372E+03 -0.17095152336E+03 -0.23756030711E+03  0.52899041559E+03  0.94251432806E+02 0.  0.
        254    2    1    2    0    0  0.43045116372E+03  0.17095152336E+03  0.10717009005E+04  0.14738952061E+04  0.89961749136E+03 0.  0.
        -24    2    4    4    0    0 -0.26173090770E+03  0.12957610730E+03  0.22905578137E+03  0.37972745287E+03  0.80208178237E+02 0.  0.
         24    2    4    4    0    0  0.69218207142E+03  0.41375416065E+02  0.84264511910E+03  0.10941677532E+04  0.79525658684E+02 0.  0.
         13    1    3    3    0    0 -0.38493617137E+03 -0.15191069448E+03 -0.17497905207E+03  0.44929988180E+03  0.00000000000E+00 0.  1.
        -13    1    3    3    0    0 -0.45514992350E+02 -0.19040828881E+02 -0.62581255036E+02  0.79690533786E+02  0.00000000000E+00 0. -1.
          4    1    6    6  502    0  0.68143779907E+03  0.40653631602E+02  0.80737908092E+03  0.10572942694E+04  0.00000000000E+00 0. -1.
          1    1    5    5  503    0 -0.21137503941E+03  0.13414357138E+03  0.20577035236E+03  0.32406070873E+03  0.00000000000E+00 0. -1.
         -2    1    5    5    0  503 -0.50355868284E+02 -0.45674640880E+01  0.23285429005E+02  0.55666744137E+02  0.00000000000E+00 0.  1.
         -3    1    6    6    0  502  0.10744272349E+02  0.72178446315E+00  0.35266038181E+02  0.36873483834E+02  0.00000000000E+00 0.  1.
<mgrwt>
<rscale>  0 0.18209229E+04</rscale>
<asrwt>0</asrwt>
<pdfrwt beam="1">  1        2 0.21823279E+00 0.18209229E+04</pdfrwt>
<pdfrwt beam="2">  1       -2 0.89903464E-01 0.18209229E+04</pdfrwt>
<totfact> 0.14101960E+01</totfact>
</mgrwt>
</event>
<event>
12    1  0.1755460E-007  0.1280293E+04  0.7818608E-02  0.9045341E-01
          2   -1    0    0  501    0  0.00000000000E+00  0.00000000000E+00  0.20291077225E+04  0.20291077225E+04  0.00000000000E+00 0. -1.
         -2   -1    0    0    0  501 -0.00000000000E+00 -0.00000000000E+00 -0.20195445636E+03  0.20195445636E+03  0.00000000000E+00 0.  1.
         23    2    1    2    0    0  0.12995593397E+03  0.17818505061E+03  0.88508282153E+03  0.91739370921E+03  0.97985507572E+02 0.  0.
        254    2    1    2    0    0 -0.12995593397E+03 -0.17818505061E+03  0.94207044463E+03  0.13136684697E+04  0.88858858225E+03 0.  0.
        -24    2    4    4    0    0 -0.22497993249E+03  0.10730470110E+03 -0.56047561417E+02  0.26808953665E+03  0.81242855811E+02 0.  0.
         24    2    4    4    0    0  0.95023998517E+02 -0.28548975171E+03  0.99811800605E+03  0.10455789330E+04  0.80385275562E+02 0.  0.
         13    1    3    3    0    0  0.21097200367E+02  0.82473920375E+02  0.47204192983E+03  0.47965677616E+03  0.00000000000E+00 0.  1.
        -13    1    3    3    0    0  0.10885873361E+03  0.95711130236E+02  0.41304089170E+03  0.43773693305E+03  0.00000000000E+00 0. -1.
          2    1    6    6  502    0  0.15342997143E+01 -0.11116049930E+03  0.42423495358E+03  0.43855935348E+03  0.00000000000E+00 0. -1.
          3    1    5    5  503    0 -0.11386586110E+03  0.91690244803E+02 -0.54052434439E+02  0.15586597122E+03  0.00000000000E+00 0. -1.
         -4    1    5    5    0  503 -0.11111407139E+03  0.15614456298E+02 -0.19951269781E+01  0.11222356543E+03  0.00000000000E+00 0.  1.
         -1    1    6    6    0  502  0.93489698803E+02 -0.17432925241E+03  0.57388305247E+03  0.60701957953E+03  0.00000000000E+00 0.  1.
<mgrwt>
<rscale>  0 0.12802927E+04</rscale>
<asrwt>0</asrwt>
<pdfrwt beam="1">  1        2 0.31217040E+00 0.12802927E+04</pdfrwt>
<pdfrwt beam="2">  1       -2 0.31069918E-01 0.12802927E+04</pdfrwt>
<totfact> 0.60732277E+01</totfact>
</mgrwt>
</event>
<event>
12    1  0.1755460E-007  0.1191963E+04  0.7818608E-02  0.9119920E-01
         -3   -1    0    0    0  501 -0.00000000000E+00  0.00000000000E+00  0.10411037146E+04  0.10411037146E+04  0.00000000000E+00 0.  1.
          3   -1    0    0  501    0  0.00000000000E+00 -0.00000000000E+00 -0.34117080696E+03  0.34117080696E+03  0.00000000000E+00 0. -1.
         23    2    1    2    0    0 -0.90532132865E+02  0.20112201759E+03  0.26070493263E+03  0.35471525135E+03  0.95967257981E+02 0.  0.
        254    2    1    2    0    0  0.90532132865E+02 -0.20112201759E+03  0.43922797501E+03  0.10275592702E+04  0.90239165926E+03 0.  0.
        -24    2    4    4    0    0  0.23986083799E+03 -0.31165340459E+03  0.63181394640E+03  0.74839700755E+03  0.79045251884E+02 0.  0.
         24    2    4    4    0    0 -0.14932870513E+03  0.11053138700E+03 -0.19258597139E+03  0.27916226265E+03  0.79535921601E+02 0.  0.
         13    1    3    3    0    0 -0.10873623195E+03  0.15824081934E+03  0.19057572767E+03  0.27052325782E+03  0.00000000000E+00 0. -1.
        -13    1    3    3    0    0  0.18204099087E+02  0.42881198253E+02  0.70129204954E+02  0.84191993531E+02  0.00000000000E+00 0.  1.
          2    1    6    6  502    0 -0.11968434865E+03  0.59838567369E+02 -0.16976380840E+03  0.21615908054E+03  0.00000000000E+00 0. -1.
          1    1    5    5  503    0  0.22201363056E+03 -0.25532282677E+03  0.57018780385E+03  0.66301880040E+03  0.00000000000E+00 0. -1.
         -2    1    5    5    0  503  0.17847207438E+02 -0.56330577813E+02  0.61626142555E+02  0.85378207151E+02  0.00000000000E+00 0.  1.
         -1    1    6    6    0  502 -0.29644356485E+02  0.50692819627E+02 -0.22822162991E+02  0.63003182116E+02  0.00000000000E+00 0.  1.
<mgrwt>
<rscale>  0 0.11919634E+04</rscale>
<asrwt>0</asrwt>
<pdfrwt beam="1">  1        3 0.52487817E-01 0.11919634E+04</pdfrwt>
<pdfrwt beam="2">  1       -3 0.16016980E+00 0.11919634E+04</pdfrwt>
<totfact> 0.25220766E+00</totfact>
</mgrwt>
</event>
<event>
12    1  0.1755460E-007  0.2711307E+04  0.7818608E-02  0.8331345E-01
         -2   -1    0    0    0  501 -0.00000000000E+00  0.00000000000E+00  0.16965340424E+04  0.16965340424E+04  0.00000000000E+00 0.  1.
          2   -1    0    0  501    0  0.00000000000E+00 -0.00000000000E+00 -0.10832655647E+04  0.10832655647E+04  0.00000000000E+00 0. -1.
         23    2    1    2    0    0 -0.10313785063E+04 -0.59213737910E+03  0.47163337192E+03  0.12825993990E+04  0.90856379665E+02 0.  0.
        254    2    1    2    0    0  0.10313785063E+04  0.59213737910E+03  0.14163510571E+03  0.14972002081E+04  0.89843177874E+03 0.  0.
        -24    2    4    4    0    0  0.78004993619E+03  0.81915217816E+03  0.17348127641E+03  0.11471984590E+04  0.80500665872E+02 0.  0.
         24    2    4    4    0    0  0.25132857011E+03 -0.22701479907E+03 -0.31846170695E+02  0.35000174909E+03  0.82372790582E+02 0.  0.
         13    1    3    3    0    0 -0.36099142698E+03 -0.20456109601E+03  0.21146981059E+03  0.46570326727E+03  0.00000000000E+00 0. -1.
        -13    1    3    3    0    0 -0.67038707932E+03 -0.38757628308E+03  0.26016356133E+03  0.81689613169E+03  0.00000000000E+00 0.  1.
          2    1    6    6  502    0  0.68867821774E+02 -0.28554789458E+02  0.15867327727E+02  0.76222863801E+02  0.00000000000E+00 0. -1.
          1    1    5    5  503    0  0.24829690154E+03  0.24529686361E+03  0.17621295300E+02  0.34947448070E+03  0.00000000000E+00 0. -1.
         -2    1    5    5    0  503  0.53175303465E+03  0.57385531455E+03  0.15585998111E+03  0.79772397834E+03  0.00000000000E+00 0.  1.
         -1    1    6    6    0  502  0.18246074834E+03 -0.19846000961E+03 -0.47713498422E+02  0.27377888529E+03  0.00000000000E+00 0.  1.
<mgrwt>
<rscale>  0 0.27113074E+04</rscale>
<asrwt>0</asrwt>
<pdfrwt beam="1">  1        2 0.16665624E+00 0.27113074E+04</pdfrwt>
<pdfrwt beam="2">  1       -2 0.26100524E+00 0.27113074E+04</pdfrwt>
<totfact> 0.10757383E+00</totfact>
</mgrwt>
</event>
<event>
12    1  0.1755460E-007  0.1722128E+04  0.7818608E-02  0.8748844E-01
         -1   -1    0    0    0  501 -0.00000000000E+00  0.00000000000E+00  0.10433974743E+04  0.10433974743E+04  0.00000000000E+00 0.  1.
          1   -1    0    0  501    0  0.00000000000E+00 -0.00000000000E+00 -0.71059298537E+03  0.71059298537E+03  0.00000000000E+00 0. -1.
         23    2    1    2    0    0  0.30510727513E+03 -0.51134887392E+03 -0.11516041687E+03  0.61328963404E+03  0.91072132989E+02 0.  0.
        254    2    1    2    0    0 -0.30510727513E+03  0.51134887392E+03  0.44796490581E+03  0.11407008256E+04  0.86368842563E+03 0.  0.
        -24    2    4    4    0    0 -0.38389852867E+03  0.52571955092E+02  0.53010208269E+03  0.66146278094E+03  0.79893064263E+02 0.  0.
         24    2    4    4    0    0  0.78791253548E+02  0.45877691883E+03 -0.82137176877E+02  0.47923804469E+03  0.78982686518E+02 0.  0.
         11    1    3    3    0    0  0.30807920649E+02 -0.11077953668E+03 -0.30302987358E+01  0.11502354729E+03  0.00000000000E+00 0.  1.
        -11    1    3    3    0    0  0.27429935448E+03 -0.40056933725E+03 -0.11213011814E+03  0.49826608675E+03  0.00000000000E+00 0. -1.
          2    1    6    6  502    0 -0.10108314498E+02  0.27464730752E+02  0.66172002006E+01  0.30004612908E+02  0.00000000000E+00 0. -1.
          1    1    5    5  503    0 -0.26425883189E+02 -0.77187402364E+01  0.14341173962E+02  0.31041512911E+02  0.00000000000E+00 0. -1.
         -2    1    5    5    0  503 -0.35747264549E+03  0.60290695329E+02  0.51576090873E+03  0.63042126803E+03  0.00000000000E+00 0.  1.
         -1    1    6    6    0  502  0.88899568046E+02  0.43131218808E+03 -0.88754377078E+02  0.44923343179E+03  0.00000000000E+00 0.  1.
<mgrwt>
<rscale>  0 0.17221277E+04</rscale>
<asrwt>0</asrwt>
<pdfrwt beam="1">  1        1 0.10932200E+00 0.17221277E+04</pdfrwt>
<pdfrwt beam="2">  1       -1 0.16052269E+00 0.17221277E+04</pdfrwt>
<totfact> 0.73239230E+00</totfact>
</mgrwt>
</event>
<event>
12    1  0.1755460E-007  0.1316241E+04  0.7818608E-02  0.9016784E-01
         -2   -1    0    0    0  501 -0.00000000000E+00  0.00000000000E+00  0.71343736906E+03  0.71343736906E+03  0.00000000000E+00 0.  1.
          2   -1    0    0  501    0  0.00000000000E+00 -0.00000000000E+00 -0.60709253702E+03  0.60709253702E+03  0.00000000000E+00 0. -1.
         23    2    1    2    0    0 -0.15983887517E+03 -0.18855912475E+03 -0.22679803631E+03  0.34754002201E+03  0.90794868190E+02 0.  0.
        254    2    1    2    0    0  0.15983887517E+03  0.18855912475E+03  0.33314286834E+03  0.97298988406E+03  0.88012620357E+03 0.  0.
        -24    2    4    4    0    0  0.28347564953E+03 -0.17778245831E+03  0.44573436879E+03  0.56305283492E+03  0.79901946360E+02 0.  0.
         24    2    4    4    0    0 -0.12363677436E+03  0.36634158305E+03 -0.11259150045E+03  0.40993704914E+03  0.76676794629E+02 0.  0.
         11    1    3    3    0    0 -0.12337911437E+03 -0.18780920608E+03 -0.20932734521E+03  0.30710363268E+03  0.00000000000E+00 0. -1.
        -11    1    3    3    0    0 -0.36459760797E+02 -0.74991867148E+00 -0.17470691094E+02  0.40436389339E+02  0.00000000000E+00 0.  1.
          2    1    6    6  502    0 -0.35636857836E+02  0.12010145306E+03 -0.10554317009E+00  0.12527711604E+03  0.00000000000E+00 0. -1.
          1    1    5    5  503    0  0.27504397905E+01 -0.23079141161E+02  0.35774648583E+02  0.42661893500E+02  0.00000000000E+00 0. -1.
         -2    1    5    5    0  503  0.28072520974E+03 -0.15470331714E+03  0.40995972021E+03  0.52039094142E+03  0.00000000000E+00 0.  1.
         -1    1    6    6    0  502 -0.87999916527E+02  0.24624012999E+03 -0.11248595728E+03  0.28465993310E+03  0.00000000000E+00 0.  1.
<mgrwt>
<rscale>  0 0.13162409E+04</rscale>
<asrwt>0</asrwt>
<pdfrwt beam="1">  1        2 0.93398852E-01 0.13162409E+04</pdfrwt>
<pdfrwt beam="2">  1       -2 0.10975960E+00 0.13162409E+04</pdfrwt>
<totfact> 0.31620417E+01</totfact>
</mgrwt>
</event>
<event>
12    1  0.1755460E-007  0.1570320E+04  0.7818608E-02  0.8838992E-01
         -1   -1    0    0    0  501 -0.00000000000E+00  0.00000000000E+00  0.45104075697E+03  0.45104075697E+03  0.00000000000E+00 0.  1.
          1   -1    0    0  501    0  0.00000000000E+00 -0.00000000000E+00 -0.13667866536E+04  0.13667866536E+04  0.00000000000E+00 0. -1.
         23    2    1    2    0    0 -0.31118867381E+03 -0.34239668969E+03 -0.58292145844E+03  0.74965247917E+03  0.90041817987E+02 0.  0.
        254    2    1    2    0    0  0.31118867381E+03  0.34239668969E+03 -0.33282443821E+03  0.10681749314E+04  0.90341114320E+03 0.  0.
        -24    2    4    4    0    0 -0.67327386161E+02 -0.26073713597E+03 -0.18323642352E+03  0.33520041983E+03  0.79163776763E+02 0.  0.
         24    2    4    4    0    0  0.37851605997E+03  0.60313382566E+03 -0.14958801469E+03  0.73297451160E+03  0.88488650134E+02 0.  0.
         13    1    3    3    0    0 -0.12533057889E+03 -0.18736816067E+03 -0.23310876534E+03  0.32427500384E+03  0.00000000000E+00 0.  1.
        -13    1    3    3    0    0 -0.18585809492E+03 -0.15502852902E+03 -0.34981269311E+03  0.42537747533E+03  0.00000000000E+00 0. -1.
          2    1    6    6  502    0  0.18934932086E+03  0.38331931849E+03 -0.87443725536E+02  0.43638660654E+03  0.00000000000E+00 0. -1.
          3    1    5    5  503    0 -0.45444166038E+02 -0.25133100518E+03 -0.17646003687E+03  0.31043613031E+03  0.00000000000E+00 0. -1.
         -4    1    5    5    0  503 -0.21883220123E+02 -0.94061307903E+01 -0.67763866463E+01  0.24764289519E+02  0.00000000000E+00 0.  1.
         -1    1    6    6    0  502  0.18916673911E+03  0.21981450717E+03 -0.62144289150E+02  0.29658790505E+03  0.00000000000E+00 0.  1.
<mgrwt>
<rscale>  0 0.15703203E+04</rscale>
<asrwt>0</asrwt>
<pdfrwt beam="1">  1        1 0.21027487E+00 0.15703203E+04</pdfrwt>
<pdfrwt beam="2">  1       -1 0.69390885E-01 0.15703203E+04</pdfrwt>
<totfact> 0.16382941E+01</totfact>
</mgrwt>
</event>
<event>
12    1  0.1755460E-007  0.2721602E+04  0.7818608E-02  0.8328030E-01
         -2   -1    0    0    0  501 -0.00000000000E+00  0.00000000000E+00  0.11260335288E+04  0.11260335288E+04  0.00000000000E+00 0.  1.
          2   -1    0    0  501    0  0.00000000000E+00 -0.00000000000E+00 -0.16445150187E+04  0.16445150187E+04  0.00000000000E+00 0. -1.
         23    2    1    2    0    0 -0.73204096772E+03  0.49669293980E+03  0.61026958205E+03  0.10786139827E+04  0.91604072033E+02 0.  0.
        254    2    1    2    0    0  0.73204096772E+03 -0.49669293980E+03 -0.11287510720E+04  0.16919345648E+04  0.89776151308E+03 0.  0.
        -24    2    4    4    0    0  0.20985366249E+03 -0.51836588142E+03 -0.99880237343E+03  0.11475061061E+04  0.80139476364E+02 0.  0.
         24    2    4    4    0    0  0.52218730523E+03  0.21672941615E+02 -0.12994869854E+03  0.54442845875E+03  0.79789625269E+02 0.  0.
         13    1    3    3    0    0 -0.60729548289E+03  0.37078689124E+03  0.50402492320E+03  0.87197009436E+03  0.00000000000E+00 0. -1.
        -13    1    3    3    0    0 -0.12474548483E+03  0.12590604856E+03  0.10624465885E+03  0.20664388833E+03  0.00000000000E+00 0.  1.
          4    1    6    6  502    0  0.49180708429E+02 -0.14130847061E+02 -0.31096210396E+02  0.59878186522E+02  0.00000000000E+00 0. -1.
          1    1    5    5  503    0 -0.30189017050E+01 -0.39330527229E+02 -0.91815647126E+02  0.99930561875E+02  0.00000000000E+00 0. -1.
         -2    1    5    5    0  503  0.21287256420E+03 -0.47903535419E+03 -0.90698672630E+03  0.10475755442E+04  0.00000000000E+00 0.  1.
         -3    1    6    6    0  502  0.47300659680E+03  0.35803788676E+02 -0.98852488140E+02  0.48455027223E+03  0.00000000000E+00 0.  1.
<mgrwt>
<rscale>  0 0.27216018E+04</rscale>
<asrwt>0</asrwt>
<pdfrwt beam="1">  1        2 0.25300231E+00 0.27216018E+04</pdfrwt>
<pdfrwt beam="2">  1       -2 0.17323593E+00 0.27216018E+04</pdfrwt>
<totfact> 0.18648860E+00</totfact>
</mgrwt>
</event>
<event>
12    1  0.1755460E-007  0.1017089E+04  0.7818608E-02  0.9289998E-01
          1   -1    0    0  501    0  0.00000000000E+00  0.00000000000E+00  0.42565790729E+03  0.42565790729E+03  0.00000000000E+00 0. -1.
         -1   -1    0    0    0  501 -0.00000000000E+00 -0.00000000000E+00 -0.60757108990E+03  0.60757108990E+03  0.00000000000E+00 0.  1.
         23    2    1    2    0    0  0.65515793959E+01  0.86442475278E+02 -0.46273183239E+02  0.13277028899E+03  0.89283354694E+02 0.  0.
        254    2    1    2    0    0 -0.65515793959E+01 -0.86442475278E+02 -0.13563999937E+03  0.90045870820E+03  0.88595284921E+03 0.  0.
        -24    2    4    4    0    0 -0.28974523964E+03 -0.25511318313E+03 -0.32553702426E+03  0.51139797989E+03  0.80737225447E+02 0.  0.
         24    2    4    4    0    0  0.28319366024E+03  0.16867070785E+03  0.18989702489E+03  0.38906072831E+03  0.81602165180E+02 0.  0.
         11    1    3    3    0    0 -0.10399305617E+02 -0.16792600116E+02 -0.56672916215E+01  0.20548848394E+02  0.00000000000E+00 0. -1.
        -11    1    3    3    0    0  0.16950885013E+02  0.10323507539E+03 -0.40605891617E+02  0.11222144059E+03  0.00000000000E+00 0.  1.
          4    1    6    6  502    0  0.52283822881E+02 -0.83333333433E+00  0.39501215796E+02  0.65533492421E+02  0.00000000000E+00 0. -1.
          3    1    5    5  503    0 -0.74950337855E+01 -0.23763087692E+02 -0.44599158739E+01  0.25313054294E+02  0.00000000000E+00 0. -1.
         -2    1    5    5    0  503 -0.28225020586E+03 -0.23135009544E+03 -0.32107710838E+03  0.48608492560E+03  0.00000000000E+00 0.  1.
         -3    1    6    6    0  502  0.23090983736E+03  0.16950404119E+03  0.15039580909E+03  0.32352723589E+03  0.00000000000E+00 0.  1.
<mgrwt>
<rscale>  0 0.10170889E+04</rscale>
<asrwt>0</asrwt>
<pdfrwt beam="1">  1        1 0.65485832E-01 0.10170889E+04</pdfrwt>
<pdfrwt beam="2">  1       -1 0.93472475E-01 0.10170889E+04</pdfrwt>
<totfact> 0.61432451E+01</totfact>
</mgrwt>
</event>
<event>
12    1  0.1755460E-007  0.1068570E+04  0.7818608E-02  0.9236379E-01
          1   -1    0    0  501    0  0.00000000000E+00  0.00000000000E+00  0.31491304074E+03  0.31491304074E+03  0.00000000000E+00 0. -1.
         -1   -1    0    0    0  501 -0.00000000000E+00 -0.00000000000E+00 -0.90647394400E+03  0.90647394400E+03  0.00000000000E+00 0.  1.
         23    2    1    2    0    0  0.47016771261E+02  0.10837203818E+03 -0.23827046967E+03  0.28105793202E+03  0.90915724678E+02 0.  0.
        254    2    1    2    0    0 -0.47016771261E+02 -0.10837203818E+03 -0.35329043359E+03  0.94032905272E+03  0.86339418661E+03 0.  0.
        -24    2    4    4    0    0 -0.22329950831E+03 -0.32871921903E+03  0.85482640060E+02  0.41354267787E+03  0.76100389613E+02 0.  0.
         24    2    4    4    0    0  0.17628273705E+03  0.22034718085E+03 -0.43877307365E+03  0.52678637485E+03  0.73168238138E+02 0.  0.
         11    1    3    3    0    0 -0.82758332651E+01 -0.12783205448E+02 -0.33377969717E+02  0.36687717566E+02  0.00000000000E+00 0. -1.
        -11    1    3    3    0    0  0.55292604526E+02  0.12115524363E+03 -0.20489249996E+03  0.24437021445E+03  0.00000000000E+00 0.  1.
          4    1    6    6  502    0 -0.48966500255E+01 -0.72069902900E+00 -0.13566785732E+02  0.14441407953E+02  0.00000000000E+00 0. -1.
          3    1    5    5  503    0 -0.15722590824E+02 -0.55327125830E+02  0.32930312391E+02  0.66277418394E+02  0.00000000000E+00 0. -1.
         -4    1    5    5    0  503 -0.20757691748E+03 -0.27339209320E+03  0.52552327669E+02  0.34726525948E+03  0.00000000000E+00 0.  1.
         -3    1    6    6    0  502  0.18117938707E+03  0.22106787988E+03 -0.42520628792E+03  0.51234496689E+03  0.00000000000E+00 0.  1.
<mgrwt>
<rscale>  0 0.10685700E+04</rscale>
<asrwt>0</asrwt>
<pdfrwt beam="1">  1        1 0.48448160E-01 0.10685700E+04</pdfrwt>
<pdfrwt beam="2">  1       -1 0.13945753E+00 0.10685700E+04</pdfrwt>
<totfact> 0.34795513E+01</totfact>
</mgrwt>
</event>
<event>
12    1  0.1755460E-007  0.1597623E+04  0.7818608E-02  0.8822010E-01
         -2   -1    0    0    0  501 -0.00000000000E+00  0.00000000000E+00  0.47410010437E+03  0.47410010437E+03  0.00000000000E+00 0.  1.
          2   -1    0    0  501    0  0.00000000000E+00 -0.00000000000E+00 -0.13459172000E+04  0.13459172000E+04  0.00000000000E+00 0. -1.
         23    2    1    2    0    0  0.18608501072E+02 -0.98266413303E+02 -0.91554184773E+03  0.92550494555E+03  0.91323408782E+02 0.  0.
        254    2    1    2    0    0 -0.18608501072E+02  0.98266413303E+02  0.43724752108E+02  0.89451235882E+03  0.88782765323E+03 0.  0.
        -24    2    4    4    0    0  0.25329674943E+03 -0.20738781251E+03  0.25918072206E+03  0.42517023214E+03  0.80163155899E+02 0.  0.
         24    2    4    4    0    0 -0.27190525050E+03  0.30565422581E+03 -0.21545596995E+03  0.46934212668E+03  0.80646053125E+02 0.  0.
         11    1    3    3    0    0 -0.15326745811E+02 -0.55199074338E+02 -0.72419093720E+03  0.72645327480E+03  0.00000000000E+00 0. -1.
        -11    1    3    3    0    0  0.33935246883E+02 -0.43067338965E+02 -0.19135091053E+03  0.19905167075E+03  0.00000000000E+00 0.  1.
          4    1    6    6  502    0 -0.15543629122E+03  0.23156353632E+03 -0.14693072404E+03  0.31523126375E+03  0.00000000000E+00 0. -1.
          1    1    5    5  503    0  0.13499599821E+03 -0.15054812100E+03  0.18680367822E+03  0.27528943036E+03  0.00000000000E+00 0. -1.
         -2    1    5    5    0  503  0.11830075121E+03 -0.56839691514E+02  0.72377043839E+02  0.14988080178E+03  0.00000000000E+00 0.  1.
         -1    1    6    6    0  502 -0.11646895928E+03  0.74090689495E+02 -0.68525245908E+02  0.15411086293E+03  0.00000000000E+00 0.  1.
<mgrwt>
<rscale>  0 0.15976226E+04</rscale>
<asrwt>0</asrwt>
<pdfrwt beam="1">  1        2 0.20706418E+00 0.15976226E+04</pdfrwt>
<pdfrwt beam="2">  1       -2 0.72938478E-01 0.15976226E+04</pdfrwt>
<totfact> 0.25324185E+01</totfact>
</mgrwt>
</event>
<event>
12    1  0.1755460E-007  0.2440768E+04  0.7818608E-02  0.8424397E-01
         -1   -1    0    0    0  501 -0.00000000000E+00  0.00000000000E+00  0.77185909500E+03  0.77185909500E+03  0.00000000000E+00 0.  1.
          1   -1    0    0  501    0  0.00000000000E+00 -0.00000000000E+00 -0.19295450043E+04  0.19295450043E+04  0.00000000000E+00 0. -1.
         23    2    1    2    0    0  0.19762097503E+03 -0.69049956871E+03 -0.13513162742E+04  0.15333640915E+04  0.96467922843E+02 0.  0.
        254    2    1    2    0    0 -0.19762097503E+03  0.69049956871E+03  0.19363036490E+03  0.11680400078E+04  0.90054485582E+03 0.  0.
        -24    2    4    4    0    0  0.33882071226E+02  0.84773527273E+03  0.20665291674E+03  0.87619831834E+03  0.72214802440E+02 0.  0.
         24    2    4    4    0    0 -0.23150304626E+03 -0.15723570401E+03 -0.13022551838E+02  0.29184168942E+03  0.81763425700E+02 0.  0.
         11    1    3    3    0    0  0.49723085239E+02 -0.31497025517E+03 -0.53764409260E+03  0.62509184698E+03  0.00000000000E+00 0.  1.
        -11    1    3    3    0    0  0.14789788980E+03 -0.37552931354E+03 -0.81367218156E+03  0.90827224453E+03  0.00000000000E+00 0. -1.
          4    1    6    6  502    0 -0.14669483299E+03 -0.70524203860E+02 -0.39951118403E+02  0.16759811818E+03  0.00000000000E+00 0. -1.
          3    1    5    5  503    0 -0.36111654933E+01  0.20635764744E+03  0.80055835363E+02  0.22137175960E+03  0.00000000000E+00 0. -1.
         -4    1    5    5    0  503  0.37493236719E+02  0.64137762529E+03  0.12659708137E+03  0.65482655874E+03  0.00000000000E+00 0.  1.
         -3    1    6    6    0  502 -0.84808213273E+02 -0.86711500152E+02  0.26928566566E+02  0.12424357124E+03  0.00000000000E+00 0.  1.
<mgrwt>
<rscale>  0 0.24407678E+04</rscale>
<asrwt>0</asrwt>
<pdfrwt beam="1">  1        1 0.29685308E+00 0.24407678E+04</pdfrwt>
<pdfrwt beam="2">  1       -1 0.11874755E+00 0.24407678E+04</pdfrwt>
<totfact> 0.18867683E+00</totfact>
</mgrwt>
</event>
<event>
12    1  0.1755460E-007  0.1211209E+04  0.7818608E-02  0.9103102E-01
          2   -1    0    0  501    0  0.00000000000E+00  0.00000000000E+00  0.29989602987E+04  0.29989602987E+04  0.00000000000E+00 0. -1.
         -2   -1    0    0    0  501 -0.00000000000E+00 -0.00000000000E+00 -0.12229455959E+03  0.12229455959E+03  0.00000000000E+00 0.  1.
         23    2    1    2    0    0  0.80955808044E+02 -0.29818715842E+01  0.16569060940E+02  0.12253638338E+03  0.90431725948E+02 0.  0.
        254    2    1    2    0    0 -0.80955808044E+02  0.29818715842E+01  0.28600966782E+04  0.29987184749E+04  0.89755041575E+03 0.  0.
        -24    2    4    4    0    0 -0.66982052578E+02 -0.34805124082E+03  0.23268420899E+04  0.23550104753E+04  0.79082019860E+02 0.  0.
         24    2    4    4    0    0 -0.13973755466E+02  0.35103311241E+03  0.53325458834E+03  0.64370799966E+03  0.81117328589E+02 0.  0.
         11    1    3    3    0    0  0.94998269018E+02 -0.12022805550E+01 -0.67631337518E+01  0.95246294274E+02  0.00000000000E+00 0.  1.
        -11    1    3    3    0    0 -0.14042460973E+02 -0.17795910291E+01  0.23332194692E+02  0.27290089108E+02  0.00000000000E+00 0. -1.
          2    1    6    6  502    0  0.10063526344E+02  0.42319079821E+02  0.11763982613E+03  0.12542451025E+03  0.00000000000E+00 0. -1.
          3    1    5    5  503    0  0.20979530918E+01 -0.10356926139E+02  0.20598610404E+02  0.23151027554E+02  0.00000000000E+00 0. -1.
         -4    1    5    5    0  503 -0.69080005670E+02 -0.33769431468E+03  0.23062434795E+04  0.23318594477E+04  0.00000000000E+00 0.  1.
         -1    1    6    6    0  502 -0.24037281810E+02  0.30871403258E+03  0.41561476220E+03  0.51828348941E+03  0.00000000000E+00 0.  1.
<mgrwt>
<rscale>  0 0.12112085E+04</rscale>
<asrwt>0</asrwt>
<pdfrwt beam="1">  1        2 0.46137845E+00 0.12112085E+04</pdfrwt>
<pdfrwt beam="2">  1       -2 0.18814550E-01 0.12112085E+04</pdfrwt>
<totfact> 0.41486161E+01</totfact>
</mgrwt>
</event>
<event>
12    1  0.1755460E-007  0.1779386E+04  0.7818608E-02  0.8717339E-01
          1   -1    0    0  501    0  0.00000000000E+00  0.00000000000E+00  0.12148709717E+04  0.12148709717E+04  0.00000000000E+00 0. -1.
         -1   -1    0    0    0  501 -0.00000000000E+00 -0.00000000000E+00 -0.65155332564E+03  0.65155332564E+03  0.00000000000E+00 0.  1.
         23    2    1    2    0    0 -0.51503829328E+03  0.36331277228E+03  0.39267530377E+03  0.74815417096E+03  0.90995358617E+02 0.  0.
        254    2    1    2    0    0  0.51503829328E+03 -0.36331277228E+03  0.17064234225E+03  0.11182701263E+04  0.90782633386E+03 0.  0.
        -24    2    4    4    0    0 -0.96381710488E+02  0.10469345103E+03  0.29248556402E+03  0.33487873352E+03  0.79660581222E+02 0.  0.
         24    2    4    4    0    0  0.61142000376E+03 -0.46800622330E+03 -0.12184322176E+03  0.78339139282E+03  0.77408381996E+02 0.  0.
         11    1    3    3    0    0 -0.87338181178E+01  0.26626938573E+02  0.25310286953E+02  0.37760880052E+02  0.00000000000E+00 0. -1.
        -11    1    3    3    0    0 -0.50630447516E+03  0.33668583371E+03  0.36736501682E+03  0.71039329091E+03  0.00000000000E+00 0.  1.
          4    1    6    6  502    0  0.16983741233E+03 -0.17507723138E+03 -0.35184568202E+02  0.24644418722E+03  0.00000000000E+00 0. -1.
          3    1    5    5  503    0  0.86958586413E+01  0.22970553568E+02  0.20220386481E+02  0.31813964201E+02  0.00000000000E+00 0. -1.
         -4    1    5    5    0  503 -0.10507756913E+03  0.81722897457E+02  0.27226517754E+03  0.30306476932E+03  0.00000000000E+00 0.  1.
         -3    1    6    6    0  502  0.44158259143E+03 -0.29292899192E+03 -0.86658653561E+02  0.53694720560E+03  0.00000000000E+00 0.  1.
<mgrwt>
<rscale>  0 0.17793855E+04</rscale>
<asrwt>0</asrwt>
<pdfrwt beam="1">  1        1 0.18690323E+00 0.17793855E+04</pdfrwt>
<pdfrwt beam="2">  1       -1 0.10023897E+00 0.17793855E+04</pdfrwt>
<totfact> 0.93389975E+00</totfact>
</mgrwt>
</event>
<event>
12    1  0.1755460E-007  0.1488762E+04  0.7818608E-02  0.8891961E-01
         -2   -1    0    0    0  501 -0.00000000000E+00  0.00000000000E+00  0.71268072906E+03  0.71268072906E+03  0.00000000000E+00 0.  1.
          2   -1    0    0  501    0  0.00000000000E+00 -0.00000000000E+00 -0.77749123094E+03  0.77749123094E+03  0.00000000000E+00 0. -1.
         23    2    1    2    0    0 -0.17815466430E+02 -0.24618670777E+03 -0.41283854446E+03  0.48957774882E+03  0.91243752808E+02 0.  0.
        254    2    1    2    0    0  0.17815466430E+02  0.24618670777E+03  0.34802804258E+03  0.10005942112E+04  0.90506351771E+03 0.  0.
        -24    2    4    4    0    0 -0.14100586889E+03  0.25151796151E+03  0.61251418207E+03  0.68175633898E+03  0.80462056143E+02 0.  0.
         24    2    4    4    0    0  0.15882133532E+03 -0.53312537405E+01 -0.26448613949E+03  0.31883787219E+03  0.80324541347E+02 0.  0.
         11    1    3    3    0    0 -0.54058386692E+02 -0.17360283651E+03 -0.29418608398E+03  0.34584057891E+03  0.00000000000E+00 0. -1.
        -11    1    3    3    0    0  0.36242920262E+02 -0.72583871261E+02 -0.11865246048E+03  0.14373716991E+03  0.00000000000E+00 0.  1.
          4    1    6    6  502    0  0.52932574424E+02 -0.37655528841E+02 -0.12385232410E+03  0.13985419004E+03  0.00000000000E+00 0. -1.
          3    1    5    5  503    0 -0.17095897167E+02  0.67647873590E+01  0.13182039728E+02  0.22622957793E+02  0.00000000000E+00 0. -1.
         -4    1    5    5    0  503 -0.12390997172E+03  0.24475317415E+03  0.59933214234E+03  0.65913338119E+03  0.00000000000E+00 0.  1.
         -3    1    6    6    0  502  0.10588876089E+03  0.32324275100E+02 -0.14063381539E+03  0.17898368215E+03  0.00000000000E+00 0.  1.
<mgrwt>
<rscale>  0 0.14887619E+04</rscale>
<asrwt>0</asrwt>
<pdfrwt beam="1">  1        2 0.11961404E+00 0.14887619E+04</pdfrwt>
<pdfrwt beam="2">  1       -2 0.10964319E+00 0.14887619E+04</pdfrwt>
<totfact> 0.22910531E+01</totfact>
</mgrwt>
</event>
<event>
12    1  0.1755460E-007  0.2646725E+04  0.7818608E-02  0.8352501E-01
          1   -1    0    0  501    0  0.00000000000E+00  0.00000000000E+00  0.11334178342E+04  0.11334178342E+04  0.00000000000E+00 0.  1.
         -1   -1    0    0    0  501 -0.00000000000E+00 -0.00000000000E+00 -0.15451387155E+04  0.15451387155E+04  0.00000000000E+00 0. -1.
         23    2    1    2    0    0  0.84800311655E+03 -0.64840211012E+03  0.29923156445E+03  0.11125440549E+04  0.93167390940E+02 0.  0.
        254    2    1    2    0    0 -0.84800311655E+03  0.64840211012E+03 -0.71095244576E+03  0.15660124949E+04  0.89855838543E+03 0.  0.
        -24    2    4    4    0    0 -0.54244861698E+03  0.58994772739E+03 -0.20533922367E+02  0.80531484987E+03  0.76299032302E+02 0.  0.
         24    2    4    4    0    0 -0.30555449956E+03  0.58454382733E+02 -0.69041852340E+03  0.76069764505E+03  0.72129762771E+02 0.  0.
         13    1    3    3    0    0  0.52313644724E+03 -0.38188599666E+03  0.22611005622E+03  0.68602799827E+03  0.00000000000E+00 0.  1.
        -13    1    3    3    0    0  0.32486666930E+03 -0.26651611346E+03  0.73121508233E+02  0.42651605659E+03  0.00000000000E+00 0. -1.
          4    1    6    6  502    0 -0.13595550882E+03  0.45337955058E+02 -0.24410751502E+03  0.28306873624E+03  0.00000000000E+00 0. -1.
          1    1    5    5  503    0 -0.22646227623E+03  0.25799165091E+03  0.28123867827E+02  0.34443548951E+03  0.00000000000E+00 0. -1.
         -2    1    5    5    0  503 -0.31598634075E+03  0.33195607648E+03 -0.48657790195E+02  0.46087936036E+03  0.00000000000E+00 0.  1.
         -3    1    6    6    0  502 -0.16959899074E+03  0.13116427675E+02 -0.44631100838E+03  0.47762890882E+03  0.00000000000E+00 0.  1.
<mgrwt>
<rscale>  0 0.26467246E+04</rscale>
<asrwt>0</asrwt>
<pdfrwt beam="1">  1        1 0.17437198E+00 0.26467246E+04</pdfrwt>
<pdfrwt beam="2">  1       -1 0.23771365E+00 0.26467246E+04</pdfrwt>
<totfact> 0.88107869E-01</totfact>
</mgrwt>
</event>
<event>
12    1  0.1755460E-007  0.1686708E+04  0.7818608E-02  0.8768982E-01
          1   -1    0    0  501    0  0.00000000000E+00  0.00000000000E+00  0.85148361099E+03  0.85148361099E+03  0.00000000000E+00 0. -1.
         -1   -1    0    0    0  501 -0.00000000000E+00 -0.00000000000E+00 -0.83530180513E+03  0.83530180513E+03  0.00000000000E+00 0.  1.
         23    2    1    2    0    0 -0.19317300226E+03 -0.35108704843E+03 -0.44123597086E+03  0.60304258350E+03  0.91614688545E+02 0.  0.
        254    2    1    2    0    0  0.19317300226E+03  0.35108704843E+03  0.45741777672E+03  0.10837428326E+04  0.89704491550E+03 0.  0.
        -24    2    4    4    0    0 -0.88203079968E+02  0.59144063797E+03  0.26783735959E+03  0.65995068416E+03  0.78843152990E+02 0.  0.
         24    2    4    4    0    0  0.28137608223E+03 -0.24035358953E+03  0.18958041713E+03  0.42379214847E+03  0.81955493336E+02 0.  0.
         11    1    3    3    0    0 -0.16101646257E+03 -0.29501305231E+03 -0.31221308799E+03  0.45873305371E+03  0.00000000000E+00 0. -1.
        -11    1    3    3    0    0 -0.32156539695E+02 -0.56073996123E+02 -0.12902288286E+03  0.14430952979E+03  0.00000000000E+00 0.  1.
          4    1    6    6  502    0  0.12650618074E+03 -0.83752975848E+02  0.11800622691E+03  0.19220781545E+03  0.00000000000E+00 0. -1.
          1    1    5    5  503    0 -0.77007911879E+01  0.12310402559E+02 -0.41279843465E+01  0.15095974657E+02  0.00000000000E+00 0. -1.
         -2    1    5    5    0  503 -0.80502288781E+02  0.57913023541E+03  0.27196534394E+03  0.64485470950E+03  0.00000000000E+00 0.  1.
         -3    1    6    6    0  502  0.15486990149E+03 -0.15660061369E+03  0.71574190221E+02  0.23158433302E+03  0.00000000000E+00 0.  1.
<mgrwt>
<rscale>  0 0.16867078E+04</rscale>
<asrwt>0</asrwt>
<pdfrwt beam="1">  1        1 0.13099748E+00 0.16867078E+04</pdfrwt>
<pdfrwt beam="2">  1       -1 0.12850797E+00 0.16867078E+04</pdfrwt>
<totfact> 0.99356025E+00</totfact>
</mgrwt>
</event>
<event>
12    1  0.1755460E-007  0.2689348E+04  0.7818608E-02  0.8338470E-01
          1   -1    0    0  501    0  0.00000000000E+00  0.00000000000E+00  0.65175131164E+03  0.65175131164E+03  0.00000000000E+00 0.  1.
         -1   -1    0    0    0  501 -0.00000000000E+00 -0.00000000000E+00 -0.27742910757E+04  0.27742910757E+04  0.00000000000E+00 0. -1.
         23    2    1    2    0    0  0.20374897093E+03  0.11015041458E+04 -0.14529131876E+04  0.18370160173E+04  0.94053659973E+02 0.  0.
        254    2    1    2    0    0 -0.20374897093E+03 -0.11015041458E+04 -0.66962657647E+03  0.15890263700E+04  0.90652083607E+03 0.  0.
        -24    2    4    4    0    0  0.30811331257E+03 -0.65179315150E+03 -0.18377394706E+03  0.74830734845E+03  0.80142987210E+02 0.  0.
         24    2    4    4    0    0 -0.51186228350E+03 -0.44971099431E+03 -0.48585262941E+03  0.84071902154E+03  0.80701425070E+02 0.  0.
         11    1    3    3    0    0  0.17150391171E+03  0.79472624202E+03 -0.11079950956E+04  0.13742840039E+04  0.00000000000E+00 0.  1.
        -11    1    3    3    0    0  0.32245059222E+02  0.30677790378E+03 -0.34491809195E+03  0.46273201342E+03  0.00000000000E+00 0. -1.
          4    1    6    6  502    0 -0.46378134770E+03 -0.41840779746E+03 -0.46842915741E+03  0.78075866883E+03  0.00000000000E+00 0. -1.
          3    1    5    5  503    0  0.29735521540E+03 -0.61323040755E+03 -0.15478199991E+03  0.69887704524E+03  0.00000000000E+00 0. -1.
         -4    1    5    5    0  503  0.10758097175E+02 -0.38562743946E+02 -0.28991947149E+02  0.49430303206E+02  0.00000000000E+00 0.  1.
         -3    1    6    6    0  502 -0.48080935799E+02 -0.31303196850E+02 -0.17423472000E+02  0.59960352708E+02  0.00000000000E+00 0.  1.
<mgrwt>
<rscale>  0 0.26893478E+04</rscale>
<asrwt>0</asrwt>
<pdfrwt beam="1">  1        1 0.10026943E+00 0.26893478E+04</pdfrwt>
<pdfrwt beam="2">  1       -1 0.42681401E+00 0.26893478E+04</pdfrwt>
<totfact> 0.12395894E-01</totfact>
</mgrwt>
</event>
<event>
12    1  0.1755460E-007  0.1289648E+04  0.7818608E-02  0.9037815E-01
          2   -1    0    0  501    0  0.00000000000E+00  0.00000000000E+00  0.19874473542E+04  0.19874473542E+04  0.00000000000E+00 0. -1.
         -2   -1    0    0    0  501 -0.00000000000E+00 -0.00000000000E+00 -0.20921210719E+03  0.20921210719E+03  0.00000000000E+00 0.  1.
         23    2    1    2    0    0  0.94441211156E+02 -0.98026080762E+02 -0.44504927901E+02  0.16715512489E+03  0.86208423569E+02 0.  0.
        254    2    1    2    0    0 -0.94441211156E+02  0.98026080762E+02  0.18227401749E+04  0.20295043365E+04  0.88203052771E+03 0.  0.
        -24    2    4    4    0    0 -0.21871384339E+02 -0.27218129695E+03  0.16664856443E+03  0.32912366483E+03  0.77392679618E+02 0.  0.
         24    2    4    4    0    0 -0.72569826817E+02  0.37020737772E+03  0.16560916105E+04  0.17003806717E+04  0.79593492524E+02 0.  0.
         11    1    3    3    0    0  0.75843161220E+02 -0.11255390302E+03 -0.28619408487E+02  0.13870701760E+03  0.00000000000E+00 0.  1.
        -11    1    3    3    0    0  0.18598049936E+02  0.14527822261E+02 -0.15885519414E+02  0.28448107286E+02  0.00000000000E+00 0. -1.
          2    1    6    6  502    0  0.94242909030E+01  0.48423758288E+01  0.62100357284E+02  0.62997779623E+02  0.00000000000E+00 0. -1.
          3    1    5    5  503    0 -0.90978471862E+01 -0.48255440920E+02 -0.97815739862E+00  0.49115325446E+02  0.00000000000E+00 0. -1.
         -4    1    5    5    0  503 -0.12773537153E+02 -0.22392585603E+03  0.16762672183E+03  0.28000833938E+03  0.00000000000E+00 0.  1.
         -1    1    6    6    0  502 -0.81994117720E+02  0.36536500189E+03  0.15939912532E+04  0.16373828921E+04  0.00000000000E+00 0.  1.
<mgrwt>
<rscale>  0 0.12896481E+04</rscale>
<asrwt>0</asrwt>
<pdfrwt beam="1">  1        2 0.30576112E+00 0.12896481E+04</pdfrwt>
<pdfrwt beam="2">  1       -2 0.32186479E-01 0.12896481E+04</pdfrwt>
<totfact> 0.59888065E+01</totfact>
</mgrwt>
</event>
<event>
12    1  0.1755460E-007  0.1793820E+04  0.7818608E-02  0.8709593E-01
         -2   -1    0    0    0  501 -0.00000000000E+00  0.00000000000E+00  0.14489641530E+04  0.14489641530E+04  0.00000000000E+00 0.  1.
          2   -1    0    0  501    0  0.00000000000E+00 -0.00000000000E+00 -0.55518800559E+03  0.55518800559E+03  0.00000000000E+00 0. -1.
         23    2    1    2    0    0  0.55087920121E+03  0.35597769939E+03  0.20495242599E+03  0.69354775671E+03  0.93888109646E+02 0.  0.
        254    2    1    2    0    0 -0.55087920121E+03 -0.35597769939E+03  0.68882372145E+03  0.13106044019E+04  0.90167497596E+03 0.  0.
        -24    2    4    4    0    0 -0.79508396896E+03 -0.26212221871E+03  0.51300186331E+03  0.98517170715E+03  0.80782458280E+02 0.  0.
         24    2    4    4    0    0  0.24420476776E+03 -0.93855480685E+02  0.17582185814E+03  0.32543269475E+03  0.80921524727E+02 0.  0.
         13    1    3    3    0    0  0.13167030379E+03  0.11225473870E+03  0.18442471634E+02  0.17400666660E+03  0.00000000000E+00 0. -1.
        -13    1    3    3    0    0  0.41920889741E+03  0.24372296070E+03  0.18650995436E+03  0.51954109011E+03  0.00000000000E+00 0.  1.
          4    1    6    6  502    0  0.15967686180E+02 -0.32504633396E+02  0.34759446593E+02  0.50196985184E+02  0.00000000000E+00 0. -1.
          1    1    5    5  503    0 -0.57108295190E+03 -0.18940228110E+03  0.32507984031E+03  0.68387562072E+03  0.00000000000E+00 0. -1.
         -2    1    5    5    0  503 -0.22400101707E+03 -0.72719937609E+02  0.18792202300E+03  0.30129608643E+03  0.00000000000E+00 0.  1.
         -3    1    6    6    0  502  0.22823708158E+03 -0.61350847289E+02  0.14106241154E+03  0.27523570957E+03  0.00000000000E+00 0.  1.
<mgrwt>
<rscale>  0 0.17938200E+04</rscale>
<asrwt>0</asrwt>
<pdfrwt beam="1">  1        2 0.85413540E-01 0.17938200E+04</pdfrwt>
<pdfrwt beam="2">  1       -2 0.22291756E+00 0.17938200E+04</pdfrwt>
<totfact> 0.48676631E+00</totfact>
</mgrwt>
</event>
<event>
12    1  0.1755460E-007  0.2613779E+04  0.7818608E-02  0.8363536E-01
         -2   -1    0    0    0  501 -0.00000000000E+00  0.00000000000E+00  0.39711556065E+03  0.39711556065E+03  0.00000000000E+00 0.  1.
          2   -1    0    0  501    0  0.00000000000E+00 -0.00000000000E+00 -0.43009144509E+04  0.43009144509E+04  0.00000000000E+00 0. -1.
         23    2    1    2    0    0  0.92470817829E+03  0.63041050606E+03 -0.12431403587E+04  0.16748491674E+04  0.84965646183E+02 0.  0.
        254    2    1    2    0    0 -0.92470817829E+03 -0.63041050606E+03 -0.26606585315E+04  0.30231808441E+04  0.89889708732E+03 0.  0.
        -24    2    4    4    0    0 -0.81067000091E+03 -0.68164477758E+03 -0.14181303603E+04  0.17718358282E+04  0.80517265232E+02 0.  0.
         24    2    4    4    0    0 -0.11403817739E+03  0.51234271513E+02 -0.12425281712E+04  0.12513450159E+04  0.79739802823E+02 0.  0.
         13    1    3    3    0    0  0.19940719048E+03  0.17111358118E+03 -0.26032604622E+03  0.36988205637E+03  0.00000000000E+00 0. -1.
        -13    1    3    3    0    0  0.72530098781E+03  0.45929692488E+03 -0.98281431246E+03  0.13049671110E+04  0.00000000000E+00 0.  1.
          4    1    6    6  502    0 -0.46283400346E+02  0.64354810190E+02 -0.66245860538E+03  0.66718445619E+03  0.00000000000E+00 0. -1.
          1    1    5    5  503    0 -0.14798679088E+02 -0.28995688487E+02 -0.52522248410E+02  0.61792697235E+02  0.00000000000E+00 0. -1.
         -2    1    5    5    0  503 -0.79587132182E+03 -0.65264908909E+03 -0.13656081119E+04  0.17100431310E+04  0.00000000000E+00 0.  1.
         -1    1    6    6    0  502 -0.67754777040E+02 -0.13120538677E+02 -0.58006956582E+03  0.58416055972E+03  0.00000000000E+00 0.  1.
<mgrwt>
<rscale>  0 0.26137789E+04</rscale>
<asrwt>0</asrwt>
<pdfrwt beam="1">  1        2 0.66167917E+00 0.26137789E+04</pdfrwt>
<pdfrwt beam="2">  1       -2 0.61094699E-01 0.26137789E+04</pdfrwt>
<totfact> 0.41831286E-01</totfact>
</mgrwt>
</event>
<event>
12    1  0.1755460E-007  0.2426313E+04  0.7818608E-02  0.8429717E-01
          2   -1    0    0  501    0  0.00000000000E+00  0.00000000000E+00  0.26551053354E+04  0.26551053354E+04  0.00000000000E+00 0. -1.
         -2   -1    0    0    0  501 -0.00000000000E+00 -0.00000000000E+00 -0.55430910185E+03  0.55430910185E+03  0.00000000000E+00 0.  1.
         23    2    1    2    0    0  0.77255882614E+03  0.16014553942E+03 -0.17101972922E+02  0.79444708539E+03  0.91432818939E+02 0.  0.
        254    2    1    2    0    0 -0.77255882614E+03 -0.16014553942E+03  0.21178982065E+04  0.24149673519E+04  0.85092935309E+03 0.  0.
        -24    2    4    4    0    0  0.53067120285E+02  0.22521547250E+03  0.49549072165E+03  0.55261939126E+03  0.79617887762E+02 0.  0.
         24    2    4    4    0    0 -0.82562594642E+03 -0.38536101192E+03  0.16224074848E+04  0.18623479606E+04  0.77282382387E+02 0.  0.
         11    1    3    3    0    0  0.11434051172E+03  0.55026343046E+02 -0.15916878483E+02  0.12788666104E+03  0.00000000000E+00 0. -1.
        -11    1    3    3    0    0  0.65821831441E+03  0.10511919637E+03 -0.11850944392E+01  0.66656042436E+03  0.00000000000E+00 0.  1.
          2    1    6    6  502    0 -0.75325135693E+03 -0.36070085600E+03  0.14417090371E+04  0.16661385482E+04  0.00000000000E+00 0. -1.
          1    1    5    5  503    0  0.30447056078E+02  0.94088677156E+02  0.12781133039E+03  0.16160271832E+03  0.00000000000E+00 0. -1.
         -2    1    5    5    0  503  0.22620064207E+02  0.13112679535E+03  0.36767939126E+03  0.39101667295E+03  0.00000000000E+00 0.  1.
         -1    1    6    6    0  502 -0.72374589495E+02 -0.24660155925E+02  0.18069844772E+03  0.19620941237E+03  0.00000000000E+00 0.  1.
<mgrwt>
<rscale>  0 0.24263133E+04</rscale>
<asrwt>0</asrwt>
<pdfrwt beam="1">  1        2 0.40847774E+00 0.24263133E+04</pdfrwt>
<pdfrwt beam="2">  1       -2 0.85278325E-01 0.24263133E+04</pdfrwt>
<totfact> 0.30300863E+00</totfact>
</mgrwt>
</event>
<event>
12    1  0.1755460E-007  0.3015007E+04  0.7818608E-02  0.8239458E-01
          2   -1    0    0  501    0  0.00000000000E+00  0.00000000000E+00  0.22163424805E+04  0.22163424805E+04  0.00000000000E+00 0.  1.
         -2   -1    0    0    0  501 -0.00000000000E+00 -0.00000000000E+00 -0.10253682051E+04  0.10253682051E+04  0.00000000000E+00 0. -1.
         23    2    1    2    0    0  0.34683788148E+03 -0.73729593970E+03 -0.59806086676E+03  0.10149624884E+04  0.92575557067E+02 0.  0.
        254    2    1    2    0    0 -0.34683788148E+03  0.73729593970E+03  0.17890351421E+04  0.22267481972E+04  0.10458771319E+04 0.  0.
        -24    2    4    4    0    0  0.58378046467E+02 -0.76668564949E+02 -0.78837887556E+02  0.14776198727E+03  0.79574664346E+02 0.  0.
         24    2    4    4    0    0 -0.40521592795E+03  0.81396450465E+03  0.18678730297E+04  0.20789862099E+04  0.80596791416E+02 0.  0.
         11    1    3    3    0    0  0.63820679711E+02 -0.83192159888E+02 -0.10454647958E+03  0.14806748805E+03  0.00000000000E+00 0.  1.
        -11    1    3    3    0    0  0.28301720177E+03 -0.65410377981E+03 -0.49351438718E+03  0.86689500034E+03  0.00000000000E+00 0. -1.
          4    1    6    6  502    0 -0.38042140750E+03  0.74388274254E+03  0.16639861671E+04  0.18619699101E+04  0.00000000000E+00 0. -1.
          3    1    5    5  503    0  0.61402317507E+02 -0.90684916265E+02 -0.75558232966E+02  0.13305279103E+03  0.00000000000E+00 0. -1.
         -4    1    5    5    0  503 -0.30242710395E+01  0.14016351316E+02 -0.32796545905E+01  0.14709196231E+02  0.00000000000E+00 0.  1.
         -3    1    6    6    0  502 -0.24794520450E+02  0.70081762111E+02  0.20388686263E+03  0.21701629980E+03  0.00000000000E+00 0.  1.
<mgrwt>
<rscale>  0 0.30150072E+04</rscale>
<asrwt>0</asrwt>
<pdfrwt beam="1">  1        2 0.34097577E+00 0.30150072E+04</pdfrwt>
<pdfrwt beam="2">  1       -2 0.15774895E+00 0.30150072E+04</pdfrwt>
<totfact> 0.11314783E+00</totfact>
</mgrwt>
</event>
<event>
12    1  0.1755460E-007  0.1201835E+04  0.7818608E-02  0.9111252E-01
          2   -1    0    0  501    0  0.00000000000E+00  0.00000000000E+00  0.35337791406E+03  0.35337791406E+03  0.00000000000E+00 0. -1.
         -2   -1    0    0    0  501 -0.00000000000E+00 -0.00000000000E+00 -0.10218571305E+04  0.10218571305E+04  0.00000000000E+00 0.  1.
         23    2    1    2    0    0  0.89623367816E+02  0.19214286778E+03 -0.30450983390E+03  0.38255846249E+03  0.93131673322E+02 0.  0.
        254    2    1    2    0    0 -0.89623367816E+02 -0.19214286778E+03 -0.36396938251E+03  0.99267658204E+03  0.89887810932E+03 0.  0.
        -24    2    4    4    0    0 -0.10846155295E+03  0.34703399399E+03 -0.19915290128E+03  0.42304566990E+03  0.84316423524E+02 0.  0.
         24    2    4    4    0    0  0.18838185133E+02 -0.53917686178E+03 -0.16481648122E+03  0.56963091214E+03  0.79046429940E+02 0.  0.
         13    1    3    3    0    0  0.60895129430E+02  0.33528233862E+02 -0.77078453671E+02  0.10379521798E+03  0.00000000000E+00 0. -1.
        -13    1    3    3    0    0  0.28728238386E+02  0.15861463392E+03 -0.22743138023E+03  0.27876324451E+03  0.00000000000E+00 0.  1.
          2    1    6    6  502    0 -0.19653209294E+02 -0.41869114221E+02 -0.18538584997E+02  0.49829213268E+02  0.00000000000E+00 0. -1.
          1    1    5    5  503    0 -0.15843243942E+02  0.12895306090E+03 -0.10882504296E+03  0.16947799346E+03  0.00000000000E+00 0. -1.
         -2    1    5    5    0  503 -0.92618309007E+02  0.21808093310E+03 -0.90327858324E+02  0.25356767644E+03  0.00000000000E+00 0.  1.
         -1    1    6    6    0  502  0.38491394428E+02 -0.49730774756E+03 -0.14627789623E+03  0.51980169887E+03  0.00000000000E+00 0.  1.
<mgrwt>
<rscale>  0 0.12018348E+04</rscale>
<asrwt>0</asrwt>
<pdfrwt beam="1">  1        2 0.54365834E-01 0.12018348E+04</pdfrwt>
<pdfrwt beam="2">  1       -2 0.15720879E+00 0.12018348E+04</pdfrwt>
<totfact> 0.23805022E+01</totfact>
</mgrwt>
</event>
<event>
12    1  0.1755460E-007  0.1317379E+04  0.7818608E-02  0.9015896E-01
         -2   -1    0    0    0  501 -0.00000000000E+00  0.00000000000E+00  0.89794135102E+03  0.89794135102E+03  0.00000000000E+00 0.  1.
          2   -1    0    0  501    0  0.00000000000E+00 -0.00000000000E+00 -0.48318499943E+03  0.48318499943E+03  0.00000000000E+00 0. -1.
         23    2    1    2    0    0  0.30196482466E+03  0.14807286469E+03  0.20775764293E+03  0.40518898212E+03  0.88918751932E+02 0.  0.
        254    2    1    2    0    0 -0.30196482466E+03 -0.14807286469E+03  0.20699870866E+03  0.97593736834E+03  0.89246677974E+03 0.  0.
        -24    2    4    4    0    0 -0.43168907344E+03 -0.25566634966E+03  0.44362146997E+03  0.67445152569E+03  0.79775393504E+02 0.  0.
         24    2    4    4    0    0  0.12972424878E+03  0.10759348497E+03 -0.23662276131E+03  0.30148584265E+03  0.80614163880E+02 0.  0.
         11    1    3    3    0    0  0.12678338304E+03  0.39242392996E+02  0.37934570972E+02  0.13803268924E+03  0.00000000000E+00 0. -1.
        -11    1    3    3    0    0  0.17518144162E+03  0.10883047169E+03  0.16982307196E+03  0.26715629289E+03  0.00000000000E+00 0.  1.
          2    1    6    6  502    0  0.23408932658E+02 -0.52299356551E+01 -0.80479604598E+01  0.25300198077E+02  0.00000000000E+00 0. -1.
          3    1    5    5  503    0 -0.18611635358E+03 -0.86250788892E+02  0.13721591960E+03  0.24679283669E+03  0.00000000000E+00 0. -1.
         -4    1    5    5    0  503 -0.24557271986E+03 -0.16941556077E+03  0.30640555038E+03  0.42765868899E+03  0.00000000000E+00 0.  1.
         -1    1    6    6    0  502  0.10631531612E+03  0.11282342063E+03 -0.22857480085E+03  0.27618564457E+03  0.00000000000E+00 0.  1.
<mgrwt>
<rscale>  0 0.13173789E+04</rscale>
<asrwt>0</asrwt>
<pdfrwt beam="1">  1        2 0.74336154E-01 0.13173789E+04</pdfrwt>
<pdfrwt beam="2">  1       -2 0.13814482E+00 0.13173789E+04</pdfrwt>
<totfact> 0.23307222E+01</totfact>
</mgrwt>
</event>
<event>
12    1  0.1755460E-007  0.2016309E+04  0.7818608E-02  0.8599034E-01
          2   -1    0    0  501    0  0.00000000000E+00  0.00000000000E+00  0.30095052264E+04  0.30095052264E+04  0.00000000000E+00 0. -1.
         -2   -1    0    0    0  501 -0.00000000000E+00 -0.00000000000E+00 -0.33772164310E+03  0.33772164310E+03  0.00000000000E+00 0.  1.
         23    2    1    2    0    0 -0.57326043021E+03  0.53783735856E+03  0.78806190276E+03  0.11165074524E+04  0.87468757089E+02 0.  0.
        254    2    1    2    0    0  0.57326043021E+03 -0.53783735856E+03  0.18837216806E+04  0.22307194172E+04  0.89989177309E+03 0.  0.
        -24    2    4    4    0    0  0.77204305986E+03 -0.46546617586E+03  0.17443786816E+04  0.19652191800E+04  0.80747713783E+02 0.  0.
         24    2    4    4    0    0 -0.19878262965E+03 -0.72371182702E+02  0.13934299894E+03  0.26550023721E+03  0.79509638853E+02 0.  0.
         11    1    3    3    0    0 -0.99780005263E+01  0.26580625874E+02  0.15737977290E+02  0.32461886814E+02  0.00000000000E+00 0. -1.
        -11    1    3    3    0    0 -0.56328242968E+03  0.51125673268E+03  0.77232392547E+03  0.10840455655E+04  0.00000000000E+00 0.  1.
          2    1    6    6  502    0 -0.10044988382E+03 -0.78417385301E+02  0.76023420468E+02  0.14838809230E+03  0.00000000000E+00 0. -1.
          3    1    5    5  503    0  0.66898881039E+03 -0.37714753684E+03  0.15198052063E+04  0.17028194732E+04  0.00000000000E+00 0. -1.
         -4    1    5    5    0  503  0.10305424947E+03 -0.88318639015E+02  0.22457347529E+03  0.26239970681E+03  0.00000000000E+00 0.  1.
         -1    1    6    6    0  502 -0.98332745828E+02  0.60462025991E+01  0.63319578472E+02  0.11711214491E+03  0.00000000000E+00 0.  1.
<mgrwt>
<rscale>  0 0.20163086E+04</rscale>
<asrwt>0</asrwt>
<pdfrwt beam="1">  1        2 0.46300079E+00 0.20163086E+04</pdfrwt>
<pdfrwt beam="2">  1       -2 0.51957178E-01 0.20163086E+04</pdfrwt>
<totfact> 0.55864746E+00</totfact>
</mgrwt>
</event>
<event>
12    1  0.1755460E-007  0.1648429E+04  0.7818608E-02  0.8791337E-01
          2   -1    0    0  501    0  0.00000000000E+00  0.00000000000E+00  0.13249340184E+04  0.13249340184E+04  0.00000000000E+00 0. -1.
         -2   -1    0    0    0  501 -0.00000000000E+00 -0.00000000000E+00 -0.51272677066E+03  0.51272677066E+03  0.00000000000E+00 0.  1.
         23    2    1    2    0    0 -0.56646968595E+02  0.54738802306E+03  0.10696657554E+03  0.56810533479E+03  0.91974432779E+02 0.  0.
        254    2    1    2    0    0  0.56646968595E+02 -0.54738802306E+03  0.70524067219E+03  0.12695554543E+04  0.90086853586E+03 0.  0.
        -24    2    4    4    0    0 -0.17746967729E+03  0.13335253377E+03 -0.29272317876E+02  0.23805245784E+03  0.80831426237E+02 0.  0.
         24    2    4    4    0    0  0.23411664589E+03 -0.68074055683E+03  0.73451299006E+03  0.10315029964E+04  0.79188316479E+02 0.  0.
         11    1    3    3    0    0 -0.58923167112E+02  0.54919842675E+03  0.11073915783E+03  0.56334182575E+03  0.00000000000E+00 0.  1.
        -11    1    3    3    0    0  0.22761985169E+01 -0.18104036858E+01 -0.37725822871E+01  0.47635090329E+01  0.00000000000E+00 0. -1.
          2    1    6    6  502    0  0.63235740879E+02 -0.23181530213E+03  0.19777953378E+03  0.31121349137E+03  0.00000000000E+00 0. -1.
          1    1    5    5  503    0 -0.37695880015E+02  0.64534121120E+02  0.14699926607E+02  0.76169022582E+02  0.00000000000E+00 0. -1.
         -2    1    5    5    0  503 -0.13977379728E+03  0.68818412648E+02 -0.43972244483E+02  0.16188343526E+03  0.00000000000E+00 0.  1.
         -1    1    6    6    0  502  0.17088090501E+03 -0.44892525470E+03  0.53673345628E+03  0.72028950506E+03  0.00000000000E+00 0.  1.
<mgrwt>
<rscale>  0 0.16484285E+04</rscale>
<asrwt>0</asrwt>
<pdfrwt beam="1">  1        2 0.20383600E+00 0.16484285E+04</pdfrwt>
<pdfrwt beam="2">  1       -2 0.78881042E-01 0.16484285E+04</pdfrwt>
<totfact> 0.21794067E+01</totfact>
</mgrwt>
</event>
<event>
12    1  0.1755460E-007  0.1627536E+04  0.7818608E-02  0.8803808E-01
          2   -1    0    0  501    0  0.00000000000E+00  0.00000000000E+00  0.55127541548E+03  0.55127541548E+03  0.00000000000E+00 0. -1.
         -2   -1    0    0    0  501 -0.00000000000E+00 -0.00000000000E+00 -0.12012481615E+04  0.12012481615E+04  0.00000000000E+00 0.  1.
         23    2    1    2    0    0  0.12854707327E+03  0.21725417981E+03 -0.76766846486E+03  0.81398497764E+03  0.97636792226E+02 0.  0.
        254    2    1    2    0    0 -0.12854707327E+03 -0.21725417981E+03  0.11769571883E+03  0.93853859936E+03  0.89625816123E+03 0.  0.
        -24    2    4    4    0    0  0.56741010186E+02 -0.53919471429E+03  0.30987139182E+02  0.54896119065E+03  0.80297595828E+02 0.  0.
         24    2    4    4    0    0 -0.18528808345E+03  0.32194053448E+03  0.86708579646E+02  0.38957740871E+03  0.79213622447E+02 0.  0.
         13    1    3    3    0    0  0.69379866011E+02  0.48758982982E+02 -0.16647339036E+03  0.18682717663E+03  0.00000000000E+00 0. -1.
        -13    1    3    3    0    0  0.59167207257E+02  0.16849519682E+03 -0.60119507451E+03  0.62715780102E+03  0.00000000000E+00 0.  1.
          4    1    6    6  502    0 -0.15600865101E+03  0.20524425674E+03  0.76069908616E+02  0.26879459651E+03  0.00000000000E+00 0. -1.
          3    1    5    5  503    0  0.41486803792E+02 -0.44782716010E+03 -0.44915285865E+01  0.44976715536E+03  0.00000000000E+00 0. -1.
         -4    1    5    5    0  503  0.15254206394E+02 -0.91367554186E+02  0.35478667769E+02  0.99194035291E+02  0.00000000000E+00 0.  1.
         -3    1    6    6    0  502 -0.29279432448E+02  0.11669627774E+03  0.10638671029E+02  0.12078281220E+03  0.00000000000E+00 0.  1.
<mgrwt>
<rscale>  0 0.16275363E+04</rscale>
<asrwt>0</asrwt>
<pdfrwt beam="1">  1        2 0.84811603E-01 0.16275363E+04</pdfrwt>
<pdfrwt beam="2">  1       -2 0.18480741E+00 0.16275363E+04</pdfrwt>
<totfact> 0.88201481E+00</totfact>
</mgrwt>
</event>
<event>
12    1  0.1755460E-007  0.3500250E+04  0.7818608E-02  0.8113731E-01
         -1   -1    0    0    0  501 -0.00000000000E+00  0.00000000000E+00  0.17123521861E+04  0.17123521861E+04  0.00000000000E+00 0.  1.
          1   -1    0    0  501    0  0.00000000000E+00 -0.00000000000E+00 -0.17887314958E+04  0.17887314958E+04  0.00000000000E+00 0. -1.
         23    2    1    2    0    0  0.67122098304E+03  0.31529047311E+03  0.13705989277E+04  0.15611102264E+04  0.92617644264E+02 0.  0.
        254    2    1    2    0    0 -0.67122098304E+03 -0.31529047311E+03 -0.14469782374E+04  0.19399734555E+04  0.10582085323E+04 0.  0.
        -24    2    4    4    0    0 -0.13380881729E+03 -0.29966150223E+03 -0.13467762119E+04  0.13884787124E+04  0.79781916708E+02 0.  0.
         24    2    4    4    0    0 -0.53741216575E+03 -0.15628970880E+02 -0.10020202554E+03  0.55149474312E+03  0.71062684576E+02 0.  0.
         11    1    3    3    0    0  0.61266874532E+03  0.26044781528E+03  0.12507635352E+04  0.14168999530E+04  0.00000000000E+00 0.  1.
        -11    1    3    3    0    0  0.58552237723E+02  0.54842657827E+02  0.11983539251E+03  0.14421027341E+03  0.00000000000E+00 0. -1.
          2    1    6    6  502    0 -0.49297796365E+03 -0.17711599702E+02 -0.11119595535E+03  0.50567332725E+03  0.00000000000E+00 0. -1.
          1    1    5    5  503    0 -0.95221958096E+02 -0.18475039331E+03 -0.99278369394E+03  0.10143073460E+04  0.00000000000E+00 0. -1.
         -2    1    5    5    0  503 -0.38586859194E+02 -0.11491110892E+03 -0.35399251796E+03  0.37417136639E+03  0.00000000000E+00 0.  1.
         -1    1    6    6    0  502 -0.44434202101E+02  0.20826288211E+01  0.10993929817E+02  0.45821415867E+02  0.00000000000E+00 0.  1.
<mgrwt>
<rscale>  0 0.35002504E+04</rscale>
<asrwt>0</asrwt>
<pdfrwt beam="1">  1        1 0.27518946E+00 0.35002504E+04</pdfrwt>
<pdfrwt beam="2">  1       -1 0.26343880E+00 0.35002504E+04</pdfrwt>
<totfact> 0.19280366E-01</totfact>
</mgrwt>
</event>
<event>
12    1  0.1755460E-007  0.1635352E+04  0.7818608E-02  0.8799120E-01
          2   -1    0    0  501    0  0.00000000000E+00  0.00000000000E+00  0.34366380579E+04  0.34366380579E+04  0.00000000000E+00 0. -1.
         -2   -1    0    0    0  501 -0.00000000000E+00 -0.00000000000E+00 -0.19454881552E+03  0.19454881552E+03  0.00000000000E+00 0.  1.
         23    2    1    2    0    0  0.88644518420E+02  0.23378254332E+03  0.10904425895E+02  0.26724316851E+03  0.93743673937E+02 0.  0.
        254    2    1    2    0    0 -0.88644518420E+02 -0.23378254332E+03  0.32311848164E+04  0.33639437049E+04  0.90169274333E+03 0.  0.
        -24    2    4    4    0    0 -0.17472480834E+03 -0.51519038297E+03  0.26642844556E+04  0.27203456262E+04  0.76933583498E+02 0.  0.
         24    2    4    4    0    0  0.86080289922E+02  0.28140783965E+03  0.56690036080E+03  0.64359807864E+03  0.79008095941E+02 0.  0.
         11    1    3    3    0    0 -0.12112666507E+02  0.17399277237E+02 -0.16662840464E+02  0.26964825061E+02  0.00000000000E+00 0. -1.
        -11    1    3    3    0    0  0.10075718493E+03  0.21638326608E+03  0.27567266359E+02  0.24027834345E+03  0.00000000000E+00 0.  1.
          4    1    6    6  502    0  0.35986298305E+01  0.96934624585E+02  0.12973360337E+03  0.16198789901E+03  0.00000000000E+00 0. -1.
          1    1    5    5  503    0 -0.70244069845E+02 -0.17517168971E+03  0.75678255565E+03  0.77996101618E+03  0.00000000000E+00 0. -1.
         -4    1    5    5    0  503 -0.10448073850E+03 -0.34001869326E+03  0.19075019000E+04  0.19403846101E+04  0.00000000000E+00 0.  1.
         -3    1    6    6    0  502  0.82481660091E+02  0.18447321506E+03  0.43716675743E+03  0.48161017964E+03  0.00000000000E+00 0.  1.
<mgrwt>
<rscale>  0 0.16353518E+04</rscale>
<asrwt>0</asrwt>
<pdfrwt beam="1">  1        2 0.52871350E+00 0.16353518E+04</pdfrwt>
<pdfrwt beam="2">  1       -2 0.29930590E-01 0.16353518E+04</pdfrwt>
<totfact> 0.89539493E+00</totfact>
</mgrwt>
</event>
<event>
12    1  0.1755460E-007  0.2168490E+04  0.7818608E-02  0.8531659E-01
          2   -1    0    0  501    0  0.00000000000E+00  0.00000000000E+00  0.25665689905E+04  0.25665689905E+04  0.00000000000E+00 0. -1.
         -2   -1    0    0    0  501 -0.00000000000E+00 -0.00000000000E+00 -0.45803848161E+03  0.45803848161E+03  0.00000000000E+00 0.  1.
         23    2    1    2    0    0  0.70386584088E+03  0.38705844410E+03  0.14912266010E+04  0.16963264598E+04  0.92332668237E+02 0.  0.
        254    2    1    2    0    0 -0.70386584088E+03 -0.38705844410E+03  0.61730390789E+03  0.13282810123E+04  0.85908379789E+03 0.  0.
        -24    2    4    4    0    0  0.15291333828E+02 -0.41504238485E+03  0.37374685529E+03  0.56430981443E+03  0.79150797293E+02 0.  0.
         24    2    4    4    0    0 -0.71915717471E+03  0.27983940759E+02  0.24355705261E+03  0.76397119786E+03  0.79760957874E+02 0.  0.
         13    1    3    3    0    0  0.63950178884E+03  0.33319880441E+03  0.13793758254E+04  0.15564901699E+04  0.00000000000E+00 0.  1.
        -13    1    3    3    0    0  0.64364052040E+02  0.53859639689E+02  0.11185077554E+03  0.13983628989E+03  0.00000000000E+00 0. -1.
          2    1    6    6  502    0 -0.60052714395E+03  0.40601040985E+02  0.22812230761E+03  0.64367777838E+03  0.00000000000E+00 0. -1.
          3    1    5    5  503    0  0.66642127033E+01 -0.33560693075E+03  0.25663852852E+03  0.42253965260E+03  0.00000000000E+00 0. -1.
         -4    1    5    5    0  503  0.86271211250E+01 -0.79435454102E+02  0.11710832677E+03  0.14177016183E+03  0.00000000000E+00 0.  1.
         -1    1    6    6    0  502 -0.11863003076E+03 -0.12617100227E+02  0.15434744999E+02  0.12029341948E+03  0.00000000000E+00 0.  1.
<mgrwt>
<rscale>  0 0.21684901E+04</rscale>
<asrwt>0</asrwt>
<pdfrwt beam="1">  1        2 0.39485676E+00 0.21684901E+04</pdfrwt>
<pdfrwt beam="2">  1       -2 0.70467460E-01 0.21684901E+04</pdfrwt>
<totfact> 0.53465850E+00</totfact>
</mgrwt>
</event>
<event>
12    1  0.1755460E-007  0.1392404E+04  0.7818608E-02  0.8959335E-01
          2   -1    0    0  501    0  0.00000000000E+00  0.00000000000E+00  0.22358844371E+04  0.22358844371E+04  0.00000000000E+00 0. -1.
         -2   -1    0    0    0  501 -0.00000000000E+00 -0.00000000000E+00 -0.21678107492E+03  0.21678107492E+03  0.00000000000E+00 0.  1.
         23    2    1    2    0    0  0.35644338941E+00  0.18694928936E+03 -0.25189151062E+02  0.20932116022E+03  0.90723155485E+02 0.  0.
        254    2    1    2    0    0 -0.35644338941E+00 -0.18694928936E+03  0.20442925132E+04  0.22433443518E+04  0.90471644020E+03 0.  0.
        -24    2    4    4    0    0 -0.42511623255E+03 -0.22327617501E+03  0.11617010589E+04  0.12599470718E+04  0.85680873761E+02 0.  0.
         24    2    4    4    0    0  0.42475978916E+03  0.36326885645E+02  0.88259145437E+03  0.98339727996E+03  0.79762232883E+02 0.  0.
         11    1    3    3    0    0 -0.93767036448E+01  0.54789407552E+02  0.32941790767E+02  0.64613956155E+02  0.00000000000E+00 0.  1.
        -11    1    3    3    0    0  0.97331470342E+01  0.13215988181E+03 -0.58130941828E+02  0.14470720407E+03  0.00000000000E+00 0. -1.
          4    1    6    6  502    0  0.42164367335E+03  0.38170080436E+02  0.84007057773E+03  0.94072255096E+03  0.00000000000E+00 0. -1.
          3    1    5    5  503    0 -0.28689374636E+03 -0.10665744188E+03  0.69393823323E+03  0.75844189174E+03  0.00000000000E+00 0. -1.
         -4    1    5    5    0  503 -0.13822248619E+03 -0.11661873313E+03  0.46776282565E+03  0.50150518009E+03  0.00000000000E+00 0.  1.
         -3    1    6    6    0  502  0.31161158079E+01 -0.18431947909E+01  0.42520876642E+02  0.42674728999E+02  0.00000000000E+00 0.  1.
<mgrwt>
<rscale>  0 0.13924043E+04</rscale>
<asrwt>0</asrwt>
<pdfrwt beam="1">  1        2 0.34398221E+00 0.13924043E+04</pdfrwt>
<pdfrwt beam="2">  1       -2 0.33350936E-01 0.13924043E+04</pdfrwt>
<totfact> 0.40390025E+01</totfact>
</mgrwt>
</event>
<event>
12    1  0.1755460E-007  0.2007403E+04  0.7818608E-02  0.8603167E-01
         -1   -1    0    0    0  501 -0.00000000000E+00  0.00000000000E+00  0.33495207449E+04  0.33495207449E+04  0.00000000000E+00 0.  1.
          1   -1    0    0  501    0  0.00000000000E+00 -0.00000000000E+00 -0.30076436304E+03  0.30076436304E+03  0.00000000000E+00 0. -1.
         23    2    1    2    0    0  0.75463157260E+03 -0.91365147768E+02  0.74835044503E+03  0.10702129345E+04  0.86665656714E+02 0.  0.
        254    2    1    2    0    0 -0.75463157260E+03  0.91365147768E+02  0.23004059368E+04  0.25800721734E+04  0.88718010864E+03 0.  0.
        -24    2    4    4    0    0 -0.75037796184E+03 -0.21548944319E+03  0.19790163368E+04  0.21289100011E+04  0.79052804951E+02 0.  0.
         24    2    4    4    0    0 -0.42536107657E+01  0.30685459096E+03  0.32138960002E+03  0.45116217224E+03  0.77962795370E+02 0.  0.
         11    1    3    3    0    0  0.73182653066E+03 -0.91692410363E+02  0.70043533857E+03  0.10171466131E+04  0.00000000000E+00 0. -1.
        -11    1    3    3    0    0  0.22805041948E+02  0.32726259445E+00  0.47915106465E+02  0.53066321397E+02  0.00000000000E+00 0.  1.
          4    1    6    6  502    0  0.81706110062E+01  0.33450016215E+02  0.85044543955E+01  0.35468129547E+02  0.00000000000E+00 0. -1.
          3    1    5    5  503    0 -0.11619803987E+03 -0.43038894651E+01  0.29511669701E+03  0.31719768724E+03  0.00000000000E+00 0. -1.
         -4    1    5    5    0  503 -0.63417992197E+03 -0.21118555372E+03  0.16838996398E+04  0.18117123139E+04  0.00000000000E+00 0.  1.
         -3    1    6    6    0  502 -0.12424221772E+02  0.27340457474E+03  0.31288514563E+03  0.41569404269E+03  0.00000000000E+00 0.  1.
<mgrwt>
<rscale>  0 0.20074028E+04</rscale>
<asrwt>0</asrwt>
<pdfrwt beam="1">  1        1 0.46271443E-01 0.20074028E+04</pdfrwt>
<pdfrwt beam="2">  1       -1 0.51531086E+00 0.20074028E+04</pdfrwt>
<totfact> 0.95917898E-02</totfact>
</mgrwt>
</event>
<event>
12    1  0.2212650E-007  0.2420839E+04  0.7818608E-02  0.8431743E-01
         -2   -1    0    0    0  501 -0.00000000000E+00  0.00000000000E+00  0.81768752873E+03  0.81768752873E+03  0.00000000000E+00 0.  1.
          2   -1    0    0  501    0  0.00000000000E+00 -0.00000000000E+00 -0.17917785522E+04  0.17917785522E+04  0.00000000000E+00 0. -1.
         23    2    1    2    0    0 -0.78499807936E+02  0.59926247160E+03 -0.12918201936E+04  0.14290680979E+04  0.90324339313E+02 0.  0.
        254    2    1    2    0    0  0.78499807936E+02 -0.59926247160E+03  0.31772917011E+03  0.11803979830E+04  0.96286543349E+03 0.  0.
        -24    2    4    4    0    0  0.42727333251E+03 -0.31815106249E+03 -0.11586223536E+03  0.55095628977E+03  0.79662892338E+02 0.  0.
         24    2    4    4    0    0 -0.34877352457E+03 -0.28111140911E+03  0.43359140547E+03  0.62944169323E+03  0.86768326673E+02 0.  0.
         13    1    3    3    0    0  0.45320956308E+01  0.17570563870E+02 -0.83572051293E+02  0.85519309883E+02  0.00000000000E+00 0. -1.
        -13    1    3    3    0    0 -0.83031903566E+02  0.58169190773E+03 -0.12082481423E+04  0.13435487880E+04  0.00000000000E+00 0.  1.
          4    1    6    6  502    0 -0.29440114007E+03 -0.25260196099E+03  0.40785380749E+03  0.56287166410E+03  0.00000000000E+00 0. -1.
          1    1    5    5  503    0  0.27737163610E+03 -0.22202374188E+03 -0.11311271359E+03  0.37285929309E+03  0.00000000000E+00 0. -1.
         -2    1    5    5    0  503  0.14990169641E+03 -0.96127320616E+02 -0.27495217648E+01  0.17809699667E+03  0.00000000000E+00 0.  1.
         -3    1    6    6    0  502 -0.54372384504E+02 -0.28509448122E+02  0.25737597980E+02  0.66570029132E+02  0.00000000000E+00 0.  1.
<mgrwt>
<rscale>  0 0.24208387E+04</rscale>
<asrwt>0</asrwt>
<pdfrwt beam="1">  1        2 0.27565823E+00 0.24208387E+04</pdfrwt>
<pdfrwt beam="2">  1       -2 0.12579808E+00 0.24208387E+04</pdfrwt>
<totfact> 0.36941164E+00</totfact>
</mgrwt>
</event>
<event>
12    1  0.1755460E-007  0.1520784E+04  0.7818608E-02  0.8870748E-01
         -1   -1    0    0    0  501 -0.00000000000E+00  0.00000000000E+00  0.66277687330E+03  0.66277687330E+03  0.00000000000E+00 0.  1.
          1   -1    0    0  501    0  0.00000000000E+00 -0.00000000000E+00 -0.87238426030E+03  0.87238426030E+03  0.00000000000E+00 0. -1.
         23    2    1    2    0    0  0.60312480951E+02 -0.26971788313E+03  0.34277916850E+03  0.44949723836E+03  0.90359709504E+02 0.  0.
        254    2    1    2    0    0 -0.60312480951E+02  0.26971788313E+03 -0.55238655550E+03  0.10856638952E+04  0.89283248981E+03 0.  0.
        -24    2    4    4    0    0 -0.50503217567E+02 -0.32250140800E+03 -0.22628424813E+03  0.40472878181E+03  0.77737331633E+02 0.  0.
         24    2    4    4    0    0 -0.98092633846E+01  0.59221929113E+03 -0.32610230737E+03  0.68093511342E+03  0.80684591995E+02 0.  0.
         13    1    3    3    0    0  0.97217540982E+01 -0.13658145124E+02  0.69921083920E+02  0.71902819190E+02  0.00000000000E+00 0. -1.
        -13    1    3    3    0    0  0.50590726853E+02 -0.25605973801E+03  0.27285808458E+03  0.37759441917E+03  0.00000000000E+00 0.  1.
          2    1    6    6  502    0  0.18457571788E+02  0.51832473679E+03 -0.28336885538E+03  0.59101533223E+03  0.00000000000E+00 0. -1.
          3    1    5    5  503    0 -0.46688980156E+02 -0.28193448414E+03 -0.22541039234E+03  0.36397356936E+03  0.00000000000E+00 0. -1.
         -4    1    5    5    0  503 -0.38142374112E+01 -0.40566923855E+02 -0.87385578961E+00  0.40755212453E+02  0.00000000000E+00 0.  1.
         -1    1    6    6    0  502 -0.28266835173E+02  0.73894554337E+02 -0.42733451987E+02  0.89919781195E+02  0.00000000000E+00 0.  1.
<mgrwt>
<rscale>  0 0.15207842E+04</rscale>
<asrwt>0</asrwt>
<pdfrwt beam="1">  1        1 0.13421296E+00 0.15207842E+04</pdfrwt>
<pdfrwt beam="2">  1       -1 0.10196567E+00 0.15207842E+04</pdfrwt>
<totfact> 0.16885713E+01</totfact>
</mgrwt>
</event>
<event>
12    1  0.1755460E-007  0.1485051E+04  0.7818608E-02  0.8894455E-01
          1   -1    0    0  501    0  0.00000000000E+00  0.00000000000E+00  0.64339292926E+03  0.64339292926E+03  0.00000000000E+00 0. -1.
         -1   -1    0    0    0  501 -0.00000000000E+00 -0.00000000000E+00 -0.85693168762E+03  0.85693168762E+03  0.00000000000E+00 0.  1.
         23    2    1    2    0    0  0.42515026213E+02 -0.42055106810E+03 -0.20315830324E+03  0.47772279588E+03  0.90967275407E+02 0.  0.
        254    2    1    2    0    0 -0.42515026213E+02  0.42055106810E+03 -0.10380455113E+02  0.10226018210E+04  0.93109398137E+03 0.  0.
        -24    2    4    4    0    0 -0.67127784956E+02 -0.73792544918E+02  0.37102624078E+03  0.39260734551E+03  0.80799611385E+02 0.  0.
         24    2    4    4    0    0  0.24612758744E+02  0.49434361301E+03 -0.38140669589E+03  0.62999447550E+03  0.80253198482E+02 0.  0.
         13    1    3    3    0    0  0.31924024477E+02 -0.40036523791E+03 -0.21090938655E+03  0.45364549640E+03  0.00000000000E+00 0.  1.
        -13    1    3    3    0    0  0.10591001736E+02 -0.20185830183E+02  0.77510833034E+01  0.24077299482E+02  0.00000000000E+00 0. -1.
          4    1    6    6  502    0  0.32008807017E+02  0.91985109413E+02 -0.95007244042E+02  0.13605954763E+03  0.00000000000E+00 0. -1.
          1    1    5    5  503    0 -0.78631624507E+02 -0.72000896282E+02  0.36333260701E+03  0.37865240624E+03  0.00000000000E+00 0. -1.
         -2    1    5    5    0  503  0.11503839551E+02 -0.17916486357E+01  0.76936337716E+01  0.13954939264E+02  0.00000000000E+00 0.  1.
         -3    1    6    6    0  502 -0.73960482732E+01  0.40235850360E+03 -0.28639945185E+03  0.49393492787E+03  0.00000000000E+00 0.  1.
<mgrwt>
<rscale>  0 0.14850506E+04</rscale>
<asrwt>0</asrwt>
<pdfrwt beam="1">  1        1 0.98983528E-01 0.14850506E+04</pdfrwt>
<pdfrwt beam="2">  1       -1 0.13183564E+00 0.14850506E+04</pdfrwt>
<totfact> 0.14660625E+01</totfact>
</mgrwt>
</event>
<event>
12    1  0.1755460E-007  0.1484233E+04  0.7818608E-02  0.8895006E-01
         -1   -1    0    0    0  501 -0.00000000000E+00  0.00000000000E+00  0.70759193872E+03  0.70759193872E+03  0.00000000000E+00 0.  1.
          1   -1    0    0  501    0  0.00000000000E+00 -0.00000000000E+00 -0.77832606893E+03  0.77832606893E+03  0.00000000000E+00 0. -1.
         23    2    1    2    0    0  0.31872145170E+02 -0.40651676637E+03  0.19939846795E+03  0.46297406391E+03  0.91178505451E+02 0.  0.
        254    2    1    2    0    0 -0.31872145170E+02  0.40651676637E+03 -0.27013259816E+03  0.10229439437E+04  0.89842694554E+03 0.  0.
        -24    2    4    4    0    0  0.78092425872E+02 -0.23025271378E+03 -0.26849207601E+03  0.37174839766E+03  0.83630957783E+02 0.  0.
         24    2    4    4    0    0 -0.10996457104E+03  0.63676948015E+03 -0.16405221507E+01  0.65119554608E+03  0.80531796128E+02 0.  0.
         13    1    3    3    0    0  0.47353459308E+02 -0.29876563895E+03  0.18117614179E+03  0.35260183136E+03  0.00000000000E+00 0.  1.
        -13    1    3    3    0    0 -0.15481314138E+02 -0.10775112742E+03  0.18222326165E+02  0.11037223256E+03  0.00000000000E+00 0. -1.
          4    1    6    6  502    0 -0.11972361892E+03  0.50392115377E+03 -0.41815564899E+01  0.51796501769E+03  0.00000000000E+00 0. -1.
          3    1    5    5  503    0  0.83475726288E+02 -0.13561014219E+03 -0.19525191509E+03  0.25195558714E+03  0.00000000000E+00 0. -1.
         -4    1    5    5    0  503 -0.53833004163E+01 -0.94642571591E+02 -0.73240160923E+02  0.11979281052E+03  0.00000000000E+00 0.  1.
         -3    1    6    6    0  502  0.97590478799E+01  0.13284832639E+03  0.25410343392E+01  0.13323052839E+03  0.00000000000E+00 0.  1.
<mgrwt>
<rscale>  0 0.14842335E+04</rscale>
<asrwt>0</asrwt>
<pdfrwt beam="1">  1        1 0.11974247E+00 0.14842335E+04</pdfrwt>
<pdfrwt beam="2">  1       -1 0.10886030E+00 0.14842335E+04</pdfrwt>
<totfact> 0.17509343E+01</totfact>
</mgrwt>
</event>
<event>
12    1  0.1755460E-007  0.1910047E+04  0.7818608E-02  0.8649871E-01
          1   -1    0    0  501    0  0.00000000000E+00  0.00000000000E+00  0.18079982996E+04  0.18079982996E+04  0.00000000000E+00 0. -1.
         -1   -1    0    0    0  501 -0.00000000000E+00 -0.00000000000E+00 -0.50446391603E+03  0.50446391603E+03  0.00000000000E+00 0.  1.
         23    2    1    2    0    0  0.31118616374E+02  0.76673957971E+02  0.14005009326E+04  0.14061123858E+04  0.94349961587E+02 0.  0.
        254    2    1    2    0    0 -0.31118616374E+02 -0.76673957971E+02 -0.96966549091E+02  0.90634982975E+03  0.89734064776E+03 0.  0.
        -24    2    4    4    0    0 -0.30949441878E+03 -0.25377955963E+03 -0.30423126786E+03  0.50861412189E+03  0.77076588539E+02 0.  0.
         24    2    4    4    0    0  0.27837580241E+03  0.17710560166E+03  0.20726471877E+03  0.39773570785E+03  0.79847029692E+02 0.  0.
         11    1    3    3    0    0 -0.46807392859E+01 -0.59692995671E+01  0.67499041494E+03  0.67503303780E+03  0.00000000000E+00 0.  1.
        -11    1    3    3    0    0  0.35799355660E+02  0.82643257538E+02  0.72551051768E+03  0.73107934805E+03  0.00000000000E+00 0. -1.
          4    1    6    6  502    0  0.25332051376E+03  0.13036846588E+03  0.16030202627E+03  0.32690053413E+03  0.00000000000E+00 0. -1.
          3    1    5    5  503    0 -0.25312722163E+03 -0.23329561608E+03 -0.23390229520E+03  0.41618567793E+03  0.00000000000E+00 0. -1.
         -4    1    5    5    0  503 -0.56367197154E+02 -0.20483943547E+02 -0.70328972658E+02  0.92428443963E+02  0.00000000000E+00 0.  1.
         -3    1    6    6    0  502  0.25055288651E+02  0.46737135780E+02  0.46962692499E+02  0.70835173728E+02  0.00000000000E+00 0.  1.
<mgrwt>
<rscale>  0 0.19100470E+04</rscale>
<asrwt>0</asrwt>
<pdfrwt beam="1">  1        1 0.27815358E+00 0.19100470E+04</pdfrwt>
<pdfrwt beam="2">  1       -1 0.77609834E-01 0.19100470E+04</pdfrwt>
<totfact> 0.62567478E+00</totfact>
</mgrwt>
</event>
<event>
12    1  0.1755460E-007  0.1710311E+04  0.7818608E-02  0.8755505E-01
         -2   -1    0    0    0  501 -0.00000000000E+00  0.00000000000E+00  0.32392100357E+03  0.32392100357E+03  0.00000000000E+00 0.  1.
          2   -1    0    0  501    0  0.00000000000E+00 -0.00000000000E+00 -0.22576208667E+04  0.22576208667E+04  0.00000000000E+00 0. -1.
         23    2    1    2    0    0  0.52256955621E+03 -0.16712389446E+03 -0.11385517885E+04  0.12671273970E+04  0.91117110130E+02 0.  0.
        254    2    1    2    0    0 -0.52256955621E+03  0.16712389446E+03 -0.79514807462E+03  0.13144144733E+04  0.89129995512E+03 0.  0.
        -24    2    4    4    0    0 -0.68150309281E+03  0.28115492522E+02 -0.26122047221E+03  0.73479755974E+03  0.80339108006E+02 0.  0.
         24    2    4    4    0    0  0.15893353659E+03  0.13900840194E+03 -0.53392760241E+03  0.57961691361E+03  0.79333959050E+02 0.  0.
         13    1    3    3    0    0  0.37657333742E+03 -0.11502936006E+03 -0.71738744105E+03  0.81834221002E+03  0.00000000000E+00 0.  1.
        -13    1    3    3    0    0  0.14599621880E+03 -0.52094534395E+02 -0.42116434749E+03  0.44878518694E+03  0.00000000000E+00 0. -1.
          4    1    6    6  502    0  0.46687210240E+02  0.28513086808E+02 -0.65072583304E+02  0.85012545058E+02  0.00000000000E+00 0. -1.
          3    1    5    5  503    0 -0.28472982274E+03  0.38760242486E+02 -0.14092931979E+03  0.32005390410E+03  0.00000000000E+00 0. -1.
         -4    1    5    5    0  503 -0.39677327007E+03 -0.10644749964E+02 -0.12029115242E+03  0.41474365564E+03  0.00000000000E+00 0.  1.
         -3    1    6    6    0  502  0.11224632635E+03  0.11049531513E+03 -0.46885501911E+03  0.49460436855E+03  0.00000000000E+00 0.  1.
<mgrwt>
<rscale>  0 0.17103109E+04</rscale>
<asrwt>0</asrwt>
<pdfrwt beam="1">  1        2 0.34732627E+00 0.17103109E+04</pdfrwt>
<pdfrwt beam="2">  1       -2 0.49834002E-01 0.17103109E+04</pdfrwt>
<totfact> 0.17368177E+01</totfact>
</mgrwt>
</event>
<event>
12    1  0.1755460E-007  0.2239661E+04  0.7818608E-02  0.8502100E-01
          2   -1    0    0  501    0  0.00000000000E+00  0.00000000000E+00  0.35223314387E+04  0.35223314387E+04  0.00000000000E+00 0. -1.
         -2   -1    0    0    0  501 -0.00000000000E+00 -0.00000000000E+00 -0.35601983883E+03  0.35601983883E+03  0.00000000000E+00 0.  1.
         23    2    1    2    0    0  0.65363995244E+03 -0.64898818293E+03  0.16564519600E+04  0.18978628544E+04  0.98078893068E+02 0.  0.
        254    2    1    2    0    0 -0.65363995244E+03  0.64898818293E+03  0.15098596399E+04  0.19804884231E+04  0.89119437445E+03 0.  0.
        -24    2    4    4    0    0  0.21246314273E+03  0.80871346867E+02  0.23963718285E+03  0.33993780367E+03  0.80317925749E+02 0.  0.
         24    2    4    4    0    0 -0.86610309517E+03  0.56811683606E+03  0.12702224570E+04  0.16405506195E+04  0.71062886477E+02 0.  0.
         13    1    3    3    0    0  0.10874156645E+03 -0.62383966022E+02  0.24141212310E+03  0.27202261058E+03  0.00000000000E+00 0.  1.
        -13    1    3    3    0    0  0.54489838600E+03 -0.58660421690E+03  0.14150398369E+04  0.16258402438E+04  0.00000000000E+00 0. -1.
          2    1    6    6  502    0 -0.16229527843E+03  0.12121896338E+03  0.28983764178E+03  0.35360946407E+03  0.00000000000E+00 0. -1.
          3    1    5    5  503    0  0.13365982800E+03  0.26821502630E+02  0.93412554077E+02  0.16525812502E+03  0.00000000000E+00 0. -1.
         -2    1    5    5    0  503  0.78803314726E+02  0.54049844237E+02  0.14622462878E+03  0.17467967865E+03  0.00000000000E+00 0.  1.
         -1    1    6    6    0  502 -0.70380781675E+03  0.44689787268E+03  0.98038481523E+03  0.12869411554E+04  0.00000000000E+00 0.  1.
<mgrwt>
<rscale>  0 0.22396606E+04</rscale>
<asrwt>0</asrwt>
<pdfrwt beam="1">  1        2 0.54189712E+00 0.22396606E+04</pdfrwt>
<pdfrwt beam="2">  1       -2 0.54772285E-01 0.22396606E+04</pdfrwt>
<totfact> 0.22476970E+00</totfact>
</mgrwt>
</event>
<event>
12    1  0.1755460E-007  0.1729035E+04  0.7818608E-02  0.8744976E-01
         -1   -1    0    0    0  501 -0.00000000000E+00  0.00000000000E+00  0.66967951630E+03  0.66967951630E+03  0.00000000000E+00 0.  1.
          1   -1    0    0  501    0  0.00000000000E+00 -0.00000000000E+00 -0.11160422471E+04  0.11160422471E+04  0.00000000000E+00 0. -1.
         23    2    1    2    0    0 -0.27375481635E+02 -0.60526669058E+03 -0.31029897419E+03  0.68671490739E+03  0.90524730998E+02 0.  0.
        254    2    1    2    0    0  0.27375481635E+02  0.60526669058E+03 -0.13606375663E+03  0.10990068560E+04  0.90675550177E+03 0.  0.
        -24    2    4    4    0    0  0.14062550089E+03  0.41903056815E+02  0.32013169685E+03  0.36116196517E+03  0.80139029709E+02 0.  0.
         24    2    4    4    0    0 -0.11325001926E+03  0.56336363377E+03 -0.45619545348E+03  0.73784489085E+03  0.78080986589E+02 0.  0.
         11    1    3    3    0    0 -0.40789347484E+02 -0.14879694683E+03 -0.10072776085E+03  0.18425629992E+03  0.00000000000E+00 0. -1.
        -11    1    3    3    0    0  0.13413865848E+02 -0.45646974375E+03 -0.20957121333E+03  0.50245860746E+03  0.00000000000E+00 0.  1.
          4    1    6    6  502    0 -0.72094050786E+02  0.49391034517E+03 -0.39561330432E+03  0.63691040797E+03  0.00000000000E+00 0. -1.
          1    1    5    5  503    0  0.15084480825E+03  0.41577685571E+02  0.29290221352E+03  0.33207614608E+03  0.00000000000E+00 0. -1.
         -2    1    5    5    0  503 -0.10219307355E+02  0.32537124396E+00  0.27229483332E+02  0.29085819085E+02  0.00000000000E+00 0.  1.
         -3    1    6    6    0  502 -0.41155968473E+02  0.69453288598E+02 -0.60582149159E+02  0.10093448288E+03  0.00000000000E+00 0.  1.
<mgrwt>
<rscale>  0 0.17290351E+04</rscale>
<asrwt>0</asrwt>
<pdfrwt beam="1">  1        1 0.17169880E+00 0.17290351E+04</pdfrwt>
<pdfrwt beam="2">  1       -1 0.10302762E+00 0.17290351E+04</pdfrwt>
<totfact> 0.10417064E+01</totfact>
</mgrwt>
</event>
<event>
12    1  0.1755460E-007  0.2352691E+04  0.7818608E-02  0.8457431E-01
          3   -1    0    0  501    0  0.00000000000E+00  0.00000000000E+00  0.59733848207E+03  0.59733848207E+03  0.00000000000E+00 0. -1.
         -3   -1    0    0    0  501 -0.00000000000E+00 -0.00000000000E+00 -0.23165912483E+04  0.23165912483E+04  0.00000000000E+00 0.  1.
         23    2    1    2    0    0 -0.24358379022E+03  0.14426076573E+03 -0.19254719476E+04  0.19485720877E+04  0.96678482053E+02 0.  0.
        254    2    1    2    0    0  0.24358379022E+03 -0.14426076573E+03  0.20621918136E+03  0.96535764259E+03  0.89958034436E+03 0.  0.
        -24    2    4    4    0    0  0.53513229875E+03 -0.23130308825E+03 -0.15795824508E+01  0.58843718032E+03  0.79925742401E+02 0.  0.
         24    2    4    4    0    0 -0.29154850853E+03  0.87042322523E+02  0.20779876381E+03  0.37692046227E+03  0.79446899852E+02 0.  0.
         11    1    3    3    0    0 -0.19874231725E+03  0.93721923618E+02 -0.16668326024E+04  0.16812534705E+04  0.00000000000E+00 0.  1.
        -11    1    3    3    0    0 -0.44841472972E+02  0.50538842112E+02 -0.25863934516E+03  0.26731861724E+03  0.00000000000E+00 0. -1.
          4    1    6    6  502    0 -0.27294314012E+03  0.10110755162E+03  0.19019779952E+03  0.34770087385E+03  0.00000000000E+00 0. -1.
          3    1    5    5  503    0  0.43931386884E+03 -0.21872859644E+03  0.11676423351E+02  0.49089226223E+03  0.00000000000E+00 0. -1.
         -4    1    5    5    0  503  0.95818429909E+02 -0.12574491814E+02 -0.13256005802E+02  0.97544918086E+02  0.00000000000E+00 0.  1.
         -3    1    6    6    0  502 -0.18605368413E+02 -0.14065229097E+02  0.17600964295E+02  0.29219588420E+02  0.00000000000E+00 0.  1.
<mgrwt>
<rscale>  0 0.23526913E+04</rscale>
<asrwt>0</asrwt>
<pdfrwt beam="1">  1        3 0.91898227E-01 0.23526913E+04</pdfrwt>
<pdfrwt beam="2">  1       -3 0.35639866E+00 0.23526913E+04</pdfrwt>
<totfact> 0.46202367E-02</totfact>
</mgrwt>
</event>
<event>
12    1  0.1755460E-007  0.1256774E+04  0.7818608E-02  0.9064564E-01
         -1   -1    0    0    0  501 -0.00000000000E+00  0.00000000000E+00  0.17174772068E+03  0.17174772068E+03  0.00000000000E+00 0.  1.
          1   -1    0    0  501    0  0.00000000000E+00 -0.00000000000E+00 -0.22991304271E+04  0.22991304271E+04  0.00000000000E+00 0. -1.
         23    2    1    2    0    0  0.58044264557E+02 -0.28823908138E+03 -0.48295202190E+03  0.57276513365E+03  0.91467689322E+02 0.  0.
        254    2    1    2    0    0 -0.58044264557E+02  0.28823908138E+03 -0.16444306846E+04  0.18981130142E+04  0.90123794501E+03 0.  0.
        -24    2    4    4    0    0 -0.25646948537E+03 -0.15500628166E+03 -0.11843386520E+04  0.12243182191E+04  0.80582347586E+02 0.  0.
         24    2    4    4    0    0  0.19842522081E+03  0.44324536304E+03 -0.46009203260E+03  0.67379479509E+03  0.80471903931E+02 0.  0.
         13    1    3    3    0    0  0.98277142781E+01 -0.23740135064E+03 -0.38248966520E+03  0.45028249937E+03  0.00000000000E+00 0.  1.
        -13    1    3    3    0    0  0.48216550279E+02 -0.50837730742E+02 -0.10046235669E+03  0.12248263428E+03  0.00000000000E+00 0. -1.
          4    1    6    6  502    0  0.17226653587E+03  0.29461277176E+03 -0.31426157666E+03  0.46393187348E+03  0.00000000000E+00 0. -1.
          3    1    5    5  503    0 -0.21111834583E+03 -0.10600161470E+03 -0.79726604802E+03  0.83152898302E+03  0.00000000000E+00 0. -1.
         -4    1    5    5    0  503 -0.45351139533E+02 -0.49004666962E+02 -0.38707260395E+03  0.39278923607E+03  0.00000000000E+00 0.  1.
         -3    1    6    6    0  502  0.26158684938E+02  0.14863259128E+03 -0.14583045594E+03  0.20986292162E+03  0.00000000000E+00 0.  1.
<mgrwt>
<rscale>  0 0.12567743E+04</rscale>
<asrwt>0</asrwt>
<pdfrwt beam="1">  1        1 0.35371235E+00 0.12567743E+04</pdfrwt>
<pdfrwt beam="2">  1       -1 0.26422728E-01 0.12567743E+04</pdfrwt>
<totfact> 0.23472038E+01</totfact>
</mgrwt>
</event>
<event>
12    1  0.1755460E-007  0.1928256E+04  0.7818608E-02  0.8640918E-01
          1   -1    0    0  501    0  0.00000000000E+00  0.00000000000E+00  0.62558451763E+03  0.62558451763E+03  0.00000000000E+00 0. -1.
         -1   -1    0    0    0  501 -0.00000000000E+00 -0.00000000000E+00 -0.14858782072E+04  0.14858782072E+04  0.00000000000E+00 0.  1.
         23    2    1    2    0    0  0.65746854323E+03 -0.29338548070E+03 -0.10388773583E+03  0.73367246177E+03  0.95617435029E+02 0.  0.
        254    2    1    2    0    0 -0.65746854323E+03  0.29338548070E+03 -0.75640595378E+03  0.13777902631E+04  0.89878591254E+03 0.  0.
        -24    2    4    4    0    0 -0.26637460733E+03 -0.30238420039E+03 -0.14583660333E+03  0.43605693378E+03  0.80533834797E+02 0.  0.
         24    2    4    4    0    0 -0.39109393590E+03  0.59576968109E+03 -0.61056935045E+03  0.94173332933E+03  0.78554135868E+02 0.  0.
         13    1    3    3    0    0  0.65728456869E+03 -0.29781290318E+03 -0.10172311363E+03  0.72874077791E+03  0.00000000000E+00 0.  1.
        -13    1    3    3    0    0  0.18397453195E+00  0.44274224753E+01 -0.21646221990E+01  0.49316838573E+01  0.00000000000E+00 0. -1.
          2    1    6    6  502    0 -0.13475744911E+03  0.27488216654E+03 -0.25142405297E+03  0.39614874730E+03  0.00000000000E+00 0. -1.
          3    1    5    5  503    0 -0.45848880111E+02 -0.41901995456E+02 -0.54794678233E+02  0.82827252721E+02  0.00000000000E+00 0. -1.
         -2    1    5    5    0  503 -0.22052572722E+03 -0.26048220493E+03 -0.91041925100E+02  0.35322968105E+03  0.00000000000E+00 0.  1.
         -1    1    6    6    0  502 -0.25633648679E+03  0.32088751455E+03 -0.35914529747E+03  0.54558458203E+03  0.00000000000E+00 0.  1.
<mgrwt>
<rscale>  0 0.19282556E+04</rscale>
<asrwt>0</asrwt>
<pdfrwt beam="1">  1        1 0.96243773E-01 0.19282556E+04</pdfrwt>
<pdfrwt beam="2">  1       -1 0.22859665E+00 0.19282556E+04</pdfrwt>
<totfact> 0.29004674E+00</totfact>
</mgrwt>
</event>
<event>
12    1  0.1755460E-007  0.2435207E+04  0.7818608E-02  0.8426439E-01
          2   -1    0    0  501    0  0.00000000000E+00  0.00000000000E+00  0.85835252437E+03  0.85835252437E+03  0.00000000000E+00 0. -1.
         -2   -1    0    0    0  501 -0.00000000000E+00 -0.00000000000E+00 -0.17272136635E+04  0.17272136635E+04  0.00000000000E+00 0.  1.
         23    2    1    2    0    0  0.44429170567E+03 -0.42541118432E+03  0.52030829572E+03  0.81070210870E+03  0.90262899275E+02 0.  0.
        254    2    1    2    0    0 -0.44429170567E+03  0.42541118432E+03 -0.13891694348E+04  0.17748640791E+04  0.91759521865E+03 0.  0.
        -24    2    4    4    0    0 -0.55222031257E+02 -0.20479372749E+03 -0.34807050496E+02  0.22910722151E+03  0.79300974943E+02 0.  0.
         24    2    4    4    0    0 -0.38906967441E+03  0.63020491181E+03 -0.13543623843E+04  0.15457568576E+04  0.80829155814E+02 0.  0.
         13    1    3    3    0    0  0.43920908989E+03 -0.41274351415E+03  0.48757226768E+03  0.77523451247E+03  0.00000000000E+00 0. -1.
        -13    1    3    3    0    0  0.50826157848E+01 -0.12667670176E+02  0.32736028042E+02  0.35467596238E+02  0.00000000000E+00 0.  1.
          2    1    6    6  502    0 -0.54597609072E+02  0.75357052795E+02 -0.22976796821E+03  0.24789696153E+03  0.00000000000E+00 0. -1.
          3    1    5    5  503    0  0.10865174370E+02 -0.85996271285E+00 -0.69590229899E+01  0.12931339874E+02  0.00000000000E+00 0. -1.
         -4    1    5    5    0  503 -0.66087205627E+02 -0.20393376478E+03 -0.27848027506E+02  0.21617588163E+03  0.00000000000E+00 0.  1.
         -1    1    6    6    0  502 -0.33447206534E+03  0.55484785902E+03 -0.11245944161E+04  0.12978598961E+04  0.00000000000E+00 0.  1.
<mgrwt>
<rscale>  0 0.24352069E+04</rscale>
<asrwt>0</asrwt>
<pdfrwt beam="1">  1        2 0.13205424E+00 0.24352069E+04</pdfrwt>
<pdfrwt beam="2">  1       -2 0.26572518E+00 0.24352069E+04</pdfrwt>
<totfact> 0.14452134E+00</totfact>
</mgrwt>
</event>
<event>
12    1  0.1755460E-007  0.1423985E+04  0.7818608E-02  0.8936638E-01
         -1   -1    0    0    0  501 -0.00000000000E+00  0.00000000000E+00  0.22320288506E+03  0.22320288506E+03  0.00000000000E+00 0.  1.
          1   -1    0    0  501    0  0.00000000000E+00 -0.00000000000E+00 -0.22711773547E+04  0.22711773547E+04  0.00000000000E+00 0. -1.
         23    2    1    2    0    0 -0.39071350990E+03 -0.71931680898E+02 -0.89006328348E+03  0.97898875871E+03  0.91515722981E+02 0.  0.
        254    2    1    2    0    0  0.39071350990E+03  0.71931680898E+02 -0.11579111861E+04  0.15153914810E+04  0.89320871705E+03 0.  0.
        -24    2    4    4    0    0  0.29363057718E+03 -0.27034550405E+03 -0.10636961665E+04  0.11389150439E+04  0.79826906736E+02 0.  0.
         24    2    4    4    0    0  0.97082932718E+02  0.34227718495E+03 -0.94215019580E+02  0.37647643713E+03  0.79241849032E+02 0.  0.
         13    1    3    3    0    0 -0.24128265976E+03 -0.20268214040E+02 -0.62617914319E+03  0.67136312214E+03  0.00000000000E+00 0. -1.
        -13    1    3    3    0    0 -0.14943085014E+03 -0.51663466858E+02 -0.26388414029E+03  0.30762563657E+03  0.00000000000E+00 0.  1.
          2    1    6    6  502    0  0.12298184570E+02  0.62996018256E+02 -0.49821946366E+02  0.81252507650E+02  0.00000000000E+00 0. -1.
          1    1    5    5  503    0  0.87247654632E+02 -0.77033056876E+02 -0.21694415901E+03  0.24619304056E+03  0.00000000000E+00 0. -1.
         -2    1    5    5    0  503  0.20638292255E+03 -0.19331244717E+03 -0.84675200753E+03  0.89272200332E+03  0.00000000000E+00 0.  1.
         -1    1    6    6    0  502  0.84784748147E+02  0.27928116669E+03 -0.44393073214E+02  0.29522392948E+03  0.00000000000E+00 0.  1.
<mgrwt>
<rscale>  0 0.14239850E+04</rscale>
<asrwt>0</asrwt>
<pdfrwt beam="1">  1        1 0.34941190E+00 0.14239850E+04</pdfrwt>
<pdfrwt beam="2">  1       -1 0.34338906E-01 0.14239850E+04</pdfrwt>
<totfact> 0.15250920E+01</totfact>
</mgrwt>
</event>
<event>
12    1  0.1755460E-007  0.1349429E+04  0.7818608E-02  0.8991261E-01
         -1   -1    0    0    0  501 -0.00000000000E+00  0.00000000000E+00  0.39529051243E+03  0.39529051243E+03  0.00000000000E+00 0.  1.
          1   -1    0    0  501    0  0.00000000000E+00 -0.00000000000E+00 -0.11516580147E+04  0.11516580147E+04  0.00000000000E+00 0. -1.
         23    2    1    2    0    0 -0.18171000489E+03 -0.29575629867E+03 -0.80998405253E+02  0.36758942027E+03  0.89838333458E+02 0.  0.
        254    2    1    2    0    0  0.18171000489E+03  0.29575629867E+03 -0.67536909701E+03  0.11793591069E+04  0.90237141557E+03 0.  0.
        -24    2    4    4    0    0  0.27329641575E+03 -0.26654626195E+03 -0.24028428819E+03  0.45798589392E+03  0.79225622452E+02 0.  0.
         24    2    4    4    0    0 -0.91586410856E+02  0.56230256062E+03 -0.43508480881E+03  0.72137321294E+03  0.80673918624E+02 0.  0.
         13    1    3    3    0    0 -0.79186897363E+02 -0.76996007295E+02 -0.58410785846E+02  0.12494306606E+03  0.00000000000E+00 0.  1.
        -13    1    3    3    0    0 -0.10252310753E+03 -0.21876029137E+03 -0.22587619407E+02  0.24264635421E+03  0.00000000000E+00 0. -1.
          4    1    6    6  502    0 -0.77907081948E+02  0.25338153885E+03 -0.17882201736E+03  0.31976402477E+03  0.00000000000E+00 0. -1.
          1    1    5    5  503    0  0.26040525756E+03 -0.23035680062E+03 -0.19507869788E+03  0.39866132509E+03  0.00000000000E+00 0. -1.
         -2    1    5    5    0  503  0.12891158186E+02 -0.36189461332E+02 -0.45205590306E+02  0.59324568821E+02  0.00000000000E+00 0.  1.
         -3    1    6    6    0  502 -0.13679328908E+02  0.30892102177E+03 -0.25626279145E+03  0.40160918816E+03  0.00000000000E+00 0.  1.
<mgrwt>
<rscale>  0 0.13494287E+04</rscale>
<asrwt>0</asrwt>
<pdfrwt beam="1">  1        1 0.17717816E+00 0.13494287E+04</pdfrwt>
<pdfrwt beam="2">  1       -1 0.60813924E-01 0.13494287E+04</pdfrwt>
<totfact> 0.31134818E+01</totfact>
</mgrwt>
</event>
<event>
12    1  0.1755460E-007  0.1757915E+04  0.7818608E-02  0.8729006E-01
         -1   -1    0    0    0  501 -0.00000000000E+00  0.00000000000E+00  0.33503491594E+03  0.33503491594E+03  0.00000000000E+00 0.  1.
          1   -1    0    0  501    0  0.00000000000E+00 -0.00000000000E+00 -0.23059273621E+04  0.23059273621E+04  0.00000000000E+00 0. -1.
         23    2    1    2    0    0  0.49146052790E+03  0.13062080875E+03 -0.14622192617E+03  0.53709016445E+03  0.92139822508E+02 0.  0.
        254    2    1    2    0    0 -0.49146052790E+03 -0.13062080875E+03 -0.18246705200E+04  0.21038721136E+04  0.91556546335E+03 0.  0.
        -24    2    4    4    0    0 -0.15867644248E+03 -0.49051402066E+03 -0.68861424025E+03  0.86394829520E+03  0.80217623037E+02 0.  0.
         24    2    4    4    0    0 -0.33278408542E+03  0.35989321191E+03 -0.11360562797E+04  0.12399238184E+04  0.80739291528E+02 0.  0.
         13    1    3    3    0    0  0.26572136259E+03  0.45244855425E+02 -0.36611005225E+02  0.27202078080E+03  0.00000000000E+00 0.  1.
        -13    1    3    3    0    0  0.22573916530E+03  0.85375953326E+02 -0.10961092094E+03  0.26506938365E+03  0.00000000000E+00 0. -1.
          2    1    6    6  502    0 -0.78817130519E+02  0.46582040084E+02 -0.17065435501E+03  0.19366191006E+03  0.00000000000E+00 0. -1.
          3    1    5    5  503    0 -0.96780433309E+01 -0.40859144961E+02 -0.25868984821E+02  0.49318745172E+02  0.00000000000E+00 0. -1.
         -4    1    5    5    0  503 -0.14899839915E+03 -0.44965487570E+03 -0.66274525543E+03  0.81462955003E+03  0.00000000000E+00 0.  1.
         -1    1    6    6    0  502 -0.25396695490E+03  0.31331117182E+03 -0.96540192473E+03  0.10462619083E+04  0.00000000000E+00 0.  1.
<mgrwt>
<rscale>  0 0.17579149E+04</rscale>
<asrwt>0</asrwt>
<pdfrwt beam="1">  1        1 0.35475807E+00 0.17579149E+04</pdfrwt>
<pdfrwt beam="2">  1       -1 0.51543831E-01 0.17579149E+04</pdfrwt>
<totfact> 0.66173834E+00</totfact>
</mgrwt>
</event>
<event>
12    1  0.1755460E-007  0.1338514E+04  0.7818608E-02  0.8999568E-01
          2   -1    0    0  501    0  0.00000000000E+00  0.00000000000E+00  0.26772810976E+04  0.26772810976E+04  0.00000000000E+00 0. -1.
         -2   -1    0    0    0  501 -0.00000000000E+00 -0.00000000000E+00 -0.16729855495E+03  0.16729855495E+03  0.00000000000E+00 0.  1.
         23    2    1    2    0    0  0.84658011836E+02  0.33351608108E+03  0.90571187869E+03  0.97310612669E+03  0.90672880727E+02 0.  0.
        254    2    1    2    0    0 -0.84658011836E+02 -0.33351608108E+03  0.16042706640E+04  0.18714735259E+04  0.90018267005E+03 0.  0.
        -24    2    4    4    0    0  0.36443498878E+03 -0.25908534570E+03  0.50431711474E+03  0.67840899638E+03  0.77233002963E+02 0.  0.
         24    2    4    4    0    0 -0.44909300062E+03 -0.74430735385E+02  0.10999535492E+04  0.11930645295E+04  0.79250889550E+02 0.  0.
         11    1    3    3    0    0  0.49632667499E+02  0.29556530112E+03  0.70930770939E+03  0.77002576289E+03  0.00000000000E+00 0.  1.
        -11    1    3    3    0    0  0.35025344337E+02  0.37950779964E+02  0.19640416929E+03  0.20308036380E+03  0.00000000000E+00 0. -1.
          2    1    6    6  502    0 -0.39344396709E+03 -0.60469153700E+02  0.10176827152E+04  0.10927638275E+04  0.00000000000E+00 0. -1.
          3    1    5    5  503    0  0.27858412883E+03 -0.19854325869E+03  0.43118897461E+03  0.55041118650E+03  0.00000000000E+00 0. -1.
         -4    1    5    5    0  503  0.85850859952E+02 -0.60542087007E+02  0.73128140134E+02  0.12799780988E+03  0.00000000000E+00 0.  1.
         -1    1    6    6    0  502 -0.55649033530E+02 -0.13961581685E+02  0.82270834019E+02  0.10030070202E+03  0.00000000000E+00 0.  1.
<mgrwt>
<rscale>  0 0.13385145E+04</rscale>
<asrwt>0</asrwt>
<pdfrwt beam="1">  1        2 0.41188937E+00 0.13385145E+04</pdfrwt>
<pdfrwt beam="2">  1       -2 0.25738241E-01 0.13385145E+04</pdfrwt>
<totfact> 0.36664376E+01</totfact>
</mgrwt>
</event>
<event>
12    1  0.1755460E-007  0.3096825E+04  0.7818608E-02  0.8216610E-01
          2   -1    0    0  501    0  0.00000000000E+00  0.00000000000E+00  0.17209821410E+04  0.17209821410E+04  0.00000000000E+00 0. -1.
         -2   -1    0    0    0  501 -0.00000000000E+00 -0.00000000000E+00 -0.13931474246E+04  0.13931474246E+04  0.00000000000E+00 0.  1.
         23    2    1    2    0    0  0.98814815990E+03 -0.88241608428E+03 -0.35108312514E+03  0.13735784897E+04  0.91452583260E+02 0.  0.
        254    2    1    2    0    0 -0.98814815990E+03  0.88241608428E+03  0.67891784153E+03  0.17405510758E+04  0.90193884514E+03 0.  0.
        -24    2    4    4    0    0  0.79863595013E+02  0.10704743888E+03 -0.12091218540E+03  0.19515532459E+03  0.75023304093E+02 0.  0.
         24    2    4    4    0    0 -0.10680117549E+04  0.77536864540E+03  0.79983002692E+03  0.15453957513E+04  0.81696457313E+02 0.  0.
         11    1    3    3    0    0  0.77966973269E+03 -0.67235862697E+03 -0.23749131151E+03  0.10565761394E+04  0.00000000000E+00 0. -1.
        -11    1    3    3    0    0  0.20847842720E+03 -0.21005745731E+03 -0.11359181363E+03  0.31700235031E+03  0.00000000000E+00 0.  1.
          4    1    6    6  502    0 -0.73026341156E+03  0.52777886513E+03  0.50108978032E+03  0.10309830981E+04  0.00000000000E+00 0. -1.
          1    1    5    5  503    0  0.64704181971E+02  0.77648564157E+02 -0.41743879765E+02  0.10935484524E+03  0.00000000000E+00 0. -1.
         -2    1    5    5    0  503  0.15159413042E+02  0.29398874725E+02 -0.79168305633E+02  0.85800479344E+02  0.00000000000E+00 0.  1.
         -3    1    6    6    0  502 -0.33774834335E+03  0.24758978027E+03  0.29874024660E+03  0.51441265310E+03  0.00000000000E+00 0.  1.
<mgrwt>
<rscale>  0 0.30968254E+04</rscale>
<asrwt>0</asrwt>
<pdfrwt beam="1">  1        2 0.26476649E+00 0.30968254E+04</pdfrwt>
<pdfrwt beam="2">  1       -2 0.21433037E+00 0.30968254E+04</pdfrwt>
<totfact> 0.87086324E-01</totfact>
</mgrwt>
</event>
<event>
12    1  0.1805636E-007  0.3074872E+04  0.7818608E-02  0.8222668E-01
         -2   -1    0    0    0  501 -0.00000000000E+00  0.00000000000E+00  0.18299093952E+04  0.18299093952E+04  0.00000000000E+00 0.  1.
          2   -1    0    0  501    0  0.00000000000E+00 -0.00000000000E+00 -0.12917082746E+04  0.12917082746E+04  0.00000000000E+00 0. -1.
         23    2    1    2    0    0  0.10554992424E+04 -0.59679391146E+03 -0.47191801685E+03  0.13045884186E+04  0.94882579950E+02 0.  0.
        254    2    1    2    0    0 -0.10554992424E+04  0.59679391146E+03  0.10101191374E+04  0.18170292512E+04  0.90056260435E+03 0.  0.
        -24    2    4    4    0    0  0.14733926286E+03  0.32363149782E+02  0.18237855439E+03  0.24950190132E+03  0.78949539675E+02 0.  0.
         24    2    4    4    0    0 -0.12028385053E+04  0.56443076168E+03  0.82774058306E+03  0.15675273499E+04  0.81147798945E+02 0.  0.
         13    1    3    3    0    0  0.59395741936E+02 -0.13872506698E+02 -0.36325779603E+02  0.70991991562E+02  0.00000000000E+00 0.  1.
        -13    1    3    3    0    0  0.99610350045E+03 -0.58292140476E+03 -0.43559223724E+03  0.12335964271E+04  0.00000000000E+00 0. -1.
          4    1    6    6  502    0 -0.10157025095E+04  0.50783859914E+03  0.70044124431E+03  0.13342299530E+04  0.00000000000E+00 0. -1.
          3    1    5    5  503    0  0.13909319358E+03  0.23263119177E+01  0.14860712314E+03  0.20355934091E+03  0.00000000000E+00 0. -1.
         -4    1    5    5    0  503  0.82460692876E+01  0.30036837864E+02  0.33771431250E+02  0.45942560402E+02  0.00000000000E+00 0.  1.
         -3    1    6    6    0  502 -0.18713599571E+03  0.56592162541E+02  0.12729933876E+03  0.23329739690E+03  0.00000000000E+00 0.  1.
<mgrwt>
<rscale>  0 0.30748718E+04</rscale>
<asrwt>0</asrwt>
<pdfrwt beam="1">  1        2 0.19872435E+00 0.30748718E+04</pdfrwt>
<pdfrwt beam="2">  1       -2 0.28152452E+00 0.30748718E+04</pdfrwt>
<totfact> 0.58622140E-01</totfact>
</mgrwt>
</event>
<event>
12    1  0.1755460E-007  0.1569719E+04  0.7818608E-02  0.8839370E-01
         -1   -1    0    0    0  501 -0.00000000000E+00  0.00000000000E+00  0.51629668255E+03  0.51629668255E+03  0.00000000000E+00 0. -1.
          1   -1    0    0  501    0  0.00000000000E+00 -0.00000000000E+00 -0.11931217324E+04  0.11931217324E+04  0.00000000000E+00 0.  1.
         23    2    1    2    0    0 -0.64774812411E+02  0.36272604200E+03  0.16544459674E+03  0.41410477414E+03  0.91350377714E+02 0.  0.
        254    2    1    2    0    0  0.64774812411E+02 -0.36272604200E+03 -0.84226964662E+03  0.12953136408E+04  0.91249839049E+03 0.  0.
        -24    2    4    4    0    0 -0.38390318488E+03 -0.16589956539E+03 -0.61780206943E+03  0.75043230680E+03  0.81024249092E+02 0.  0.
         24    2    4    4    0    0  0.44867799729E+03 -0.19682647661E+03 -0.22446757719E+03  0.54488133404E+03  0.80357749015E+02 0.  0.
         13    1    3    3    0    0 -0.63681703833E+02  0.35915457435E+03  0.17447119719E+03  0.40433595726E+03  0.00000000000E+00 0. -1.
        -13    1    3    3    0    0 -0.10931085779E+01  0.35714676519E+01 -0.90266004568E+01  0.97688168863E+01  0.00000000000E+00 0.  1.
          4    1    6    6  502    0  0.43029527175E+03 -0.17763422959E+03 -0.22749620075E+03  0.51813363312E+03  0.00000000000E+00 0. -1.
          1    1    5    5  503    0 -0.27391602298E+03 -0.10602451602E+03 -0.36664862029E+03  0.46978973638E+03  0.00000000000E+00 0. -1.
         -2    1    5    5    0  503 -0.10998716190E+03 -0.59875049369E+02 -0.25115344914E+03  0.28064257043E+03  0.00000000000E+00 0.  1.
         -3    1    6    6    0  502  0.18382725540E+02 -0.19192247020E+02  0.30286235558E+01  0.26747700922E+02  0.00000000000E+00 0.  1.
<mgrwt>
<rscale>  0 0.15697195E+04</rscale>
<asrwt>0</asrwt>
<pdfrwt beam="1">  1        1 0.18355719E+00 0.15697195E+04</pdfrwt>
<pdfrwt beam="2">  1       -1 0.79430259E-01 0.15697195E+04</pdfrwt>
<totfact> 0.16471277E+01</totfact>
</mgrwt>
</event>
<event>
12    1  0.1755460E-007  0.1540647E+04  0.7818608E-02  0.8857864E-01
         -2   -1    0    0    0  501 -0.00000000000E+00  0.00000000000E+00  0.48456343153E+03  0.48456343153E+03  0.00000000000E+00 0.  1.
          2   -1    0    0  501    0  0.00000000000E+00 -0.00000000000E+00 -0.12246035065E+04  0.12246035065E+04  0.00000000000E+00 0. -1.
         23    2    1    2    0    0  0.41733788520E+03  0.27972572622E+03 -0.16873631833E+03  0.53854429399E+03  0.95606585167E+02 0.  0.
        254    2    1    2    0    0 -0.41733788520E+03 -0.27972572622E+03 -0.57130375669E+03  0.11706226441E+04  0.88969208162E+03 0.  0.
        -24    2    4    4    0    0 -0.27735489097E+03 -0.19941641097E+03  0.18267162860E+03  0.39549728957E+03  0.79727922654E+02 0.  0.
         24    2    4    4    0    0 -0.13998299423E+03 -0.80309315257E+02 -0.75397538530E+03  0.77512535452E+03  0.79344872460E+02 0.  0.
         13    1    3    3    0    0  0.41501991908E+03  0.28179440656E+03 -0.17520939976E+03  0.53136423908E+03  0.00000000000E+00 0. -1.
        -13    1    3    3    0    0  0.23179661216E+01 -0.20686803375E+01  0.64730814350E+01  0.71800549123E+01  0.00000000000E+00 0.  1.
          4    1    6    6  502    0 -0.14210636389E+03 -0.59450744731E+02 -0.70845800510E+03  0.72501127901E+03  0.00000000000E+00 0. -1.
          3    1    5    5  503    0 -0.18751588907E+03 -0.10555998903E+03  0.14753847269E+03  0.26090749484E+03  0.00000000000E+00 0. -1.
         -4    1    5    5    0  503 -0.89839001903E+02 -0.93856421938E+02  0.35133155911E+02  0.13458979473E+03  0.00000000000E+00 0.  1.
         -3    1    6    6    0  502  0.21233696649E+01 -0.20858570527E+02 -0.45517380201E+02  0.50114075503E+02  0.00000000000E+00 0.  1.
<mgrwt>
<rscale>  0 0.15406467E+04</rscale>
<asrwt>0</asrwt>
<pdfrwt beam="1">  1        2 0.18840054E+00 0.15406467E+04</pdfrwt>
<pdfrwt beam="2">  1       -2 0.74548221E-01 0.15406467E+04</pdfrwt>
<totfact> 0.28548016E+01</totfact>
</mgrwt>
</event>
<event>
12    1  0.1755460E-007  0.1619687E+04  0.7818608E-02  0.8808544E-01
          1   -1    0    0  501    0  0.00000000000E+00  0.00000000000E+00  0.33093683920E+03  0.33093683920E+03  0.00000000000E+00 0. -1.
         -1   -1    0    0    0  501 -0.00000000000E+00 -0.00000000000E+00 -0.19817866691E+04  0.19817866691E+04  0.00000000000E+00 0.  1.
         23    2    1    2    0    0  0.58647771857E+02  0.37392164807E+03 -0.11282251857E+04  0.11940303094E+04  0.97771929522E+02 0.  0.
        254    2    1    2    0    0 -0.58647771857E+02 -0.37392164807E+03 -0.52262464420E+03  0.11186931988E+04  0.91382766120E+03 0.  0.
        -24    2    4    4    0    0  0.31349281213E+02 -0.13006158901E+03 -0.74879375608E+03  0.76482054745E+03  0.79747014362E+02 0.  0.
         24    2    4    4    0    0 -0.89997053070E+02 -0.24386005907E+03  0.22616911188E+03  0.35387265139E+03  0.80660946322E+02 0.  0.
         13    1    3    3    0    0  0.57004453569E+02  0.36283775955E+03 -0.10000127041E+04  0.10653291303E+04  0.00000000000E+00 0.  1.
        -13    1    3    3    0    0  0.16433182873E+01  0.11083888522E+02 -0.12821248161E+03  0.12870117917E+03  0.00000000000E+00 0. -1.
          4    1    6    6  502    0 -0.85576816608E+01 -0.19374119035E+01 -0.44701768030E+01  0.98473326815E+01  0.00000000000E+00 0. -1.
          3    1    5    5  503    0 -0.26783037695E+02 -0.44072890811E+02 -0.22391767925E+03  0.22978006418E+03  0.00000000000E+00 0. -1.
         -4    1    5    5    0  503  0.58132318909E+02 -0.85988698194E+02 -0.52487607683E+03  0.53504048328E+03  0.00000000000E+00 0.  1.
         -3    1    6    6    0  502 -0.81439371409E+02 -0.24192264716E+03  0.23063928868E+03  0.34402531871E+03  0.00000000000E+00 0.  1.
<mgrwt>
<rscale>  0 0.16196867E+04</rscale>
<asrwt>0</asrwt>
<pdfrwt beam="1">  1        1 0.50913359E-01 0.16196867E+04</pdfrwt>
<pdfrwt beam="2">  1       -1 0.30489026E+00 0.16196867E+04</pdfrwt>
<totfact> 0.22719078E+00</totfact>
</mgrwt>
</event>
<event>
12    1  0.1755460E-007  0.3069625E+04  0.7818608E-02  0.8224124E-01
         -1   -1    0    0    0  501 -0.00000000000E+00  0.00000000000E+00  0.65796479642E+03  0.65796479642E+03  0.00000000000E+00 0.  1.
          1   -1    0    0  501    0  0.00000000000E+00 -0.00000000000E+00 -0.35802048276E+04  0.35802048276E+04  0.00000000000E+00 0. -1.
         23    2    1    2    0    0  0.42117728636E+02 -0.12742457726E+04 -0.52968307409E+03  0.13828979043E+04  0.79788863902E+02 0.  0.
        254    2    1    2    0    0 -0.42117728636E+02  0.12742457726E+04 -0.23925569571E+04  0.28552717197E+04  0.89597522754E+03 0.  0.
        -24    2    4    4    0    0 -0.47980839203E+02  0.91821371906E+03 -0.79976210842E+03  0.12210751091E+04  0.77371811200E+02 0.  0.
         24    2    4    4    0    0  0.58631105679E+01  0.35603205351E+03 -0.15927948486E+04  0.16341966106E+04  0.82522318049E+02 0.  0.
         11    1    3    3    0    0  0.34819725346E+01 -0.43037404424E+03 -0.13992439895E+03  0.45256245924E+03  0.00000000000E+00 0. -1.
        -11    1    3    3    0    0  0.38635756101E+02 -0.84387172833E+03 -0.38975867513E+03  0.93033544508E+03  0.00000000000E+00 0.  1.
          2    1    6    6  502    0 -0.45566003568E+00  0.32881771492E+03 -0.13352743262E+04  0.13751650168E+04  0.00000000000E+00 0. -1.
          3    1    5    5  503    0 -0.57701185950E+02  0.67067419065E+03 -0.54973935895E+03  0.86910681716E+03  0.00000000000E+00 0. -1.
         -4    1    5    5    0  503  0.97203467467E+01  0.24753952841E+03 -0.25002274947E+03  0.35196829192E+03  0.00000000000E+00 0.  1.
         -1    1    6    6    0  502  0.63187706035E+01  0.27214338584E+02 -0.25752052248E+03  0.25903159379E+03  0.00000000000E+00 0.  1.
<mgrwt>
<rscale>  0 0.30696246E+04</rscale>
<asrwt>0</asrwt>
<pdfrwt beam="1">  1        1 0.55080075E+00 0.30696246E+04</pdfrwt>
<pdfrwt beam="2">  1       -1 0.10122535E+00 0.30696246E+04</pdfrwt>
<totfact> 0.16900659E-01</totfact>
</mgrwt>
</event>
<event>
12    1  0.1755460E-007  0.1920892E+04  0.7818608E-02  0.8644526E-01
          2   -1    0    0  501    0  0.00000000000E+00  0.00000000000E+00  0.63635874880E+03  0.63635874880E+03  0.00000000000E+00 0. -1.
         -2   -1    0    0    0  501 -0.00000000000E+00 -0.00000000000E+00 -0.14495857243E+04  0.14495857243E+04  0.00000000000E+00 0.  1.
         23    2    1    2    0    0 -0.43519499457E+03 -0.98503407716E+01  0.34487417889E+03  0.56299305698E+03  0.92364876556E+02 0.  0.
        254    2    1    2    0    0  0.43519499457E+03  0.98503407716E+01 -0.11581011544E+04  0.15229514161E+04  0.88808277743E+03 0.  0.
        -24    2    4    4    0    0  0.37330235386E+03 -0.80728907195E+02 -0.12816262923E+04  0.13396823854E+04  0.79442663339E+02 0.  0.
         24    2    4    4    0    0  0.61892640713E+02  0.90579247967E+02  0.12352513795E+03  0.18326903070E+03  0.79333339609E+02 0.  0.
         11    1    3    3    0    0 -0.19008968130E+03  0.58313858847E+01  0.20794092437E+03  0.28179339954E+03  0.00000000000E+00 0.  1.
        -11    1    3    3    0    0 -0.24510531327E+03 -0.15681726656E+02  0.13693325452E+03  0.28119965743E+03  0.00000000000E+00 0. -1.
          2    1    6    6  502    0 -0.16156448029E+01  0.20237503865E+02  0.73206214907E+02  0.75969183041E+02  0.00000000000E+00 0. -1.
          1    1    5    5  503    0  0.22049682378E+03 -0.12218802509E+02 -0.66423233602E+03  0.69998053162E+03  0.00000000000E+00 0. -1.
         -2    1    5    5    0  503  0.15280553008E+03 -0.68510104686E+02 -0.61739395632E+03  0.63970185381E+03  0.00000000000E+00 0.  1.
         -1    1    6    6    0  502  0.63508285516E+02  0.70341744102E+02  0.50318923038E+02  0.10729984766E+03  0.00000000000E+00 0.  1.
<mgrwt>
<rscale>  0 0.19208920E+04</rscale>
<asrwt>0</asrwt>
<pdfrwt beam="1">  1        2 0.97901346E-01 0.19208920E+04</pdfrwt>
<pdfrwt beam="2">  1       -2 0.22301319E+00 0.19208920E+04</pdfrwt>
<totfact> 0.40798614E+00</totfact>
</mgrwt>
</event>
<event>
12    1  0.1755460E-007  0.1738315E+04  0.7818608E-02  0.8739808E-01
          2   -1    0    0  501    0  0.00000000000E+00  0.00000000000E+00  0.15054335945E+04  0.15054335945E+04  0.00000000000E+00 0. -1.
         -2   -1    0    0    0  501 -0.00000000000E+00 -0.00000000000E+00 -0.50180563149E+03  0.50180563149E+03  0.00000000000E+00 0.  1.
         23    2    1    2    0    0 -0.46499700690E+03 -0.20939132319E+03  0.79843968383E+03  0.95189194120E+03  0.92333072852E+02 0.  0.
        254    2    1    2    0    0  0.46499700690E+03  0.20939132319E+03  0.20518827919E+03  0.10553472848E+04  0.90088218928E+03 0.  0.
        -24    2    4    4    0    0  0.19442047379E+03  0.15397887138E+03 -0.34624983603E+03  0.43362787165E+03  0.81457772200E+02 0.  0.
         24    2    4    4    0    0  0.27057653311E+03  0.55412451812E+02  0.55143811522E+03  0.62171941316E+03  0.78541923162E+02 0.  0.
         13    1    3    3    0    0 -0.10754057809E+03 -0.88677737465E+02  0.18349613237E+03  0.23043339092E+03  0.00000000000E+00 0.  1.
        -13    1    3    3    0    0 -0.35745642881E+03 -0.12071358573E+03  0.61494355146E+03  0.72145855028E+03  0.00000000000E+00 0. -1.
          4    1    6    6  502    0  0.88866327891E+02  0.54429862254E+02  0.17405910765E+03  0.20287041946E+03  0.00000000000E+00 0. -1.
          3    1    5    5  503    0  0.61425834494E+02  0.83987245901E+02 -0.95200834826E+02  0.14103258336E+03  0.00000000000E+00 0. -1.
         -4    1    5    5    0  503  0.13299463930E+03  0.69991625482E+02 -0.25104900121E+03  0.29259528829E+03  0.00000000000E+00 0.  1.
         -3    1    6    6    0  502  0.18171020522E+03  0.98258955852E+00  0.37737900758E+03  0.41884899370E+03  0.00000000000E+00 0.  1.
<mgrwt>
<rscale>  0 0.17383153E+04</rscale>
<asrwt>0</asrwt>
<pdfrwt beam="1">  1        2 0.23160517E+00 0.17383153E+04</pdfrwt>
<pdfrwt beam="2">  1       -2 0.77200867E-01 0.17383153E+04</pdfrwt>
<totfact> 0.17902804E+01</totfact>
</mgrwt>
</event>
<event>
12    1  0.1755460E-007  0.1441856E+04  0.7818608E-02  0.8924066E-01
         -2   -1    0    0    0  501 -0.00000000000E+00  0.00000000000E+00  0.37817285939E+03  0.37817285939E+03  0.00000000000E+00 0.  1.
          2   -1    0    0  501    0  0.00000000000E+00 -0.00000000000E+00 -0.13743384050E+04  0.13743384050E+04  0.00000000000E+00 0. -1.
         23    2    1    2    0    0  0.82599214044E+02 -0.31641352597E+03  0.42659696717E+02  0.34109510672E+03  0.87096914561E+02 0.  0.
        254    2    1    2    0    0 -0.82599214044E+02  0.31641352597E+03 -0.10388252424E+04  0.14114161577E+04  0.89777365550E+03 0.  0.
        -24    2    4    4    0    0 -0.23628956859E+03  0.32716957712E+03 -0.11389973274E+04  0.12109804759E+04  0.79284983839E+02 0.  0.
         24    2    4    4    0    0  0.15369035454E+03 -0.10756051154E+02  0.10017208504E+03  0.20043568186E+03  0.80022485742E+02 0.  0.
         13    1    3    3    0    0  0.72358519540E+02 -0.31595447691E+03  0.31066153700E+02  0.32561955213E+03  0.00000000000E+00 0.  1.
        -13    1    3    3    0    0  0.10240694504E+02 -0.45904906299E+00  0.11593543016E+02  0.15475554583E+02  0.00000000000E+00 0. -1.
          4    1    6    6  502    0  0.26360204944E+02  0.21062780362E+02 -0.24525496285E+01  0.33830697907E+02  0.00000000000E+00 0. -1.
          1    1    5    5  503    0 -0.20543583055E+02  0.70969451115E+02 -0.15902857614E+03  0.17535332853E+03  0.00000000000E+00 0. -1.
         -2    1    5    5    0  503 -0.21574598553E+03  0.25620012601E+03 -0.97996875125E+03  0.10356271473E+04  0.00000000000E+00 0.  1.
         -3    1    6    6    0  502  0.12733014960E+03 -0.31818831516E+02  0.10262463467E+03  0.16660498395E+03  0.00000000000E+00 0.  1.
<mgrwt>
<rscale>  0 0.14418564E+04</rscale>
<asrwt>0</asrwt>
<pdfrwt beam="1">  1        2 0.21143668E+00 0.14418564E+04</pdfrwt>
<pdfrwt beam="2">  1       -2 0.58180440E-01 0.14418564E+04</pdfrwt>
<totfact> 0.40144171E+01</totfact>
</mgrwt>
</event>
<event>
12    1  0.1755460E-007  0.1271750E+04  0.7818608E-02  0.9052272E-01
         -2   -1    0    0    0  501 -0.00000000000E+00  0.00000000000E+00  0.28029879528E+03  0.28029879528E+03  0.00000000000E+00 0.  1.
          2   -1    0    0  501    0  0.00000000000E+00 -0.00000000000E+00 -0.14425224468E+04  0.14425224468E+04  0.00000000000E+00 0. -1.
         23    2    1    2    0    0  0.24338894609E+03 -0.73427629816E+02 -0.68124922891E+02  0.27852250476E+03  0.91126201719E+02 0.  0.
        254    2    1    2    0    0 -0.24338894609E+03  0.73427629816E+02 -0.10940987286E+04  0.14442987373E+04  0.90791905957E+03 0.  0.
        -24    2    4    4    0    0 -0.57330523865E+03  0.12074193558E+03 -0.78564628726E+03  0.98295652396E+03  0.75537590878E+02 0.  0.
         24    2    4    4    0    0  0.32991629256E+03 -0.47314305764E+02 -0.30845244132E+03  0.46134221332E+03  0.81303908944E+02 0.  0.
         11    1    3    3    0    0  0.44630338562E+02  0.16778169673E+02 -0.31641641480E+02  0.57223837457E+02  0.00000000000E+00 0. -1.
        -11    1    3    3    0    0  0.19875860752E+03 -0.90205799489E+02 -0.36483281411E+02  0.22129866730E+03  0.00000000000E+00 0.  1.
          2    1    6    6  502    0  0.32494659771E+03 -0.32010662981E+02 -0.29865317870E+03  0.44250276277E+03  0.00000000000E+00 0. -1.
          3    1    5    5  503    0 -0.48810112233E+03  0.96523959984E+02 -0.70683039834E+03  0.86438925981E+03  0.00000000000E+00 0. -1.
         -4    1    5    5    0  503 -0.85204116319E+02  0.24217975597E+02 -0.78815888928E+02  0.11856726415E+03  0.00000000000E+00 0.  1.
         -1    1    6    6    0  502  0.49696948511E+01 -0.15303642784E+02 -0.97992626180E+01  0.18839450555E+02  0.00000000000E+00 0.  1.
<mgrwt>
<rscale>  0 0.12717505E+04</rscale>
<asrwt>0</asrwt>
<pdfrwt beam="1">  1        2 0.22192653E+00 0.12717505E+04</pdfrwt>
<pdfrwt beam="2">  1       -2 0.43122892E-01 0.12717505E+04</pdfrwt>
<totfact> 0.68486720E+01</totfact>
</mgrwt>
</event>
<event>
12    1  0.1755460E-007  0.2775569E+04  0.7818608E-02  0.8310894E-01
         -2   -1    0    0    0  501 -0.00000000000E+00  0.00000000000E+00  0.13104590366E+04  0.13104590366E+04  0.00000000000E+00 0.  1.
          2   -1    0    0  501    0  0.00000000000E+00 -0.00000000000E+00 -0.14696722211E+04  0.14696722211E+04  0.00000000000E+00 0. -1.
         23    2    1    2    0    0  0.77964527569E+03  0.26245970559E+03  0.85645114968E+03  0.11909930752E+04  0.90686715294E+02 0.  0.
        254    2    1    2    0    0 -0.77964527569E+03 -0.26245970559E+03 -0.10156643342E+04  0.15891381825E+04  0.90391054344E+03 0.  0.
        -24    2    4    4    0    0  0.90004106153E+02 -0.15697497584E+03  0.52209715230E+02  0.20579343698E+03  0.82965066004E+02 0.  0.
         24    2    4    4    0    0 -0.86964938184E+03 -0.10548472976E+03 -0.10678740494E+04  0.13833447456E+04  0.76619998203E+02 0.  0.
         11    1    3    3    0    0  0.18457757294E+03  0.93720640312E+02  0.25246742853E+03  0.32648467241E+03  0.00000000000E+00 0. -1.
        -11    1    3    3    0    0  0.59506770275E+03  0.16873906528E+03  0.60398372115E+03  0.86450840275E+03  0.00000000000E+00 0.  1.
          4    1    6    6  502    0 -0.41046605419E+03 -0.79306005020E+02 -0.54726645945E+03  0.68867438003E+03  0.00000000000E+00 0. -1.
          3    1    5    5  503    0 -0.23267562707E+01 -0.48467507859E+02 -0.11273874991E+02  0.49815794384E+02  0.00000000000E+00 0. -1.
         -4    1    5    5    0  503  0.92330862424E+02 -0.10850746798E+03  0.63483590222E+02  0.15597764260E+03  0.00000000000E+00 0.  1.
         -3    1    6    6    0  502 -0.45918332765E+03 -0.26178724738E+02 -0.52060758996E+03  0.69467036553E+03  0.00000000000E+00 0.  1.
<mgrwt>
<rscale>  0 0.27755686E+04</rscale>
<asrwt>0</asrwt>
<pdfrwt beam="1">  1        2 0.22610342E+00 0.27755686E+04</pdfrwt>
<pdfrwt beam="2">  1       -2 0.20160908E+00 0.27755686E+04</pdfrwt>
<totfact> 0.14947538E+00</totfact>
</mgrwt>
</event>
<event>
12    1  0.1755460E-007  0.3497539E+04  0.7818608E-02  0.8114373E-01
         -2   -1    0    0    0  501 -0.00000000000E+00  0.00000000000E+00  0.15579117063E+04  0.15579117063E+04  0.00000000000E+00 0. -1.
          2   -1    0    0  501    0  0.00000000000E+00 -0.00000000000E+00 -0.19630092941E+04  0.19630092941E+04  0.00000000000E+00 0.  1.
         23    2    1    2    0    0 -0.19405719954E+03 -0.12910852580E+03  0.14523386754E+04  0.14737517011E+04  0.91264671734E+02 0.  0.
        254    2    1    2    0    0  0.19405719954E+03  0.12910852580E+03 -0.18574362632E+04  0.20471692994E+04  0.82855625047E+03 0.  0.
        -24    2    4    4    0    0  0.48365784887E+03  0.30959509796E+02 -0.75645828765E+03  0.90175254192E+03  0.77750240368E+02 0.  0.
         24    2    4    4    0    0 -0.28960064933E+03  0.98149016007E+02 -0.11009779756E+04  0.11454167574E+04  0.79531629569E+02 0.  0.
         11    1    3    3    0    0 -0.43356079826E+01 -0.37441907725E+02  0.29382303316E+03  0.29623076944E+03  0.00000000000E+00 0.  1.
        -11    1    3    3    0    0 -0.18972159156E+03 -0.91666618078E+02  0.11585156423E+04  0.11775209317E+04  0.00000000000E+00 0. -1.
          4    1    6    6  502    0 -0.16810934255E+03  0.97411122920E+02 -0.65909569539E+03  0.68713667753E+03  0.00000000000E+00 0. -1.
          3    1    5    5  503    0  0.77717481380E+01 -0.59338541287E+01 -0.37659270603E+02  0.38907985765E+02  0.00000000000E+00 0. -1.
         -4    1    5    5    0  503  0.47588610074E+03  0.36893363925E+02 -0.71879901705E+03  0.86284455615E+03  0.00000000000E+00 0.  1.
         -3    1    6    6    0  502 -0.12149130678E+03  0.73789308625E+00 -0.44188228018E+03  0.45828007991E+03  0.00000000000E+00 0.  1.
<mgrwt>
<rscale>  0 0.34975392E+04</rscale>
<asrwt>0</asrwt>
<pdfrwt beam="1">  1        2 0.30200143E+00 0.34975392E+04</pdfrwt>
<pdfrwt beam="2">  1       -2 0.23967872E+00 0.34975392E+04</pdfrwt>
<totfact> 0.42848265E-01</totfact>
</mgrwt>
</event>
<event>
12    1  0.1755460E-007  0.1972469E+04  0.7818608E-02  0.8619602E-01
          2   -1    0    0  501    0  0.00000000000E+00  0.00000000000E+00  0.28506559176E+04  0.28506559176E+04  0.00000000000E+00 0. -1.
         -2   -1    0    0    0  501 -0.00000000000E+00 -0.00000000000E+00 -0.34120501749E+03  0.34120501749E+03  0.00000000000E+00 0.  1.
         23    2    1    2    0    0 -0.53581254444E+03  0.51429962550E+03  0.13557883943E+04  0.15483983723E+04  0.88182548321E+02 0.  0.
        254    2    1    2    0    0  0.53581254444E+03 -0.51429962550E+03  0.11536625059E+04  0.16434625628E+04  0.90467277526E+03 0.  0.
        -24    2    4    4    0    0  0.15913819828E+03 -0.65451726084E+03  0.99481319721E+03  0.12039717543E+04  0.78593109557E+02 0.  0.
         24    2    4    4    0    0  0.37667434616E+03  0.14021763534E+03  0.15884930868E+03  0.43949080853E+03  0.79840588700E+02 0.  0.
         11    1    3    3    0    0 -0.25423579443E+03  0.19786770512E+03  0.52772427171E+03  0.61828826194E+03  0.00000000000E+00 0. -1.
        -11    1    3    3    0    0 -0.28157675001E+03  0.31643192038E+03  0.82806412256E+03  0.93011011039E+03  0.00000000000E+00 0.  1.
          2    1    6    6  502    0  0.25207627313E+03  0.54870563275E+02  0.87080840117E+02  0.27227981730E+03  0.00000000000E+00 0. -1.
          1    1    5    5  503    0  0.14690865886E+03 -0.62708357802E+03  0.97299169192E+03  0.11668456626E+04  0.00000000000E+00 0. -1.
         -2    1    5    5    0  503  0.12229539418E+02 -0.27433682824E+02  0.21821505292E+02  0.37126091646E+02  0.00000000000E+00 0.  1.
         -1    1    6    6    0  502  0.12459807303E+03  0.85347072061E+02  0.71768468562E+02  0.16721099124E+03  0.00000000000E+00 0.  1.
<mgrwt>
<rscale>  0 0.19724686E+04</rscale>
<asrwt>0</asrwt>
<pdfrwt beam="1">  1        2 0.43856243E+00 0.19724686E+04</pdfrwt>
<pdfrwt beam="2">  1       -2 0.52493081E-01 0.19724686E+04</pdfrwt>
<totfact> 0.68813330E+00</totfact>
</mgrwt>
</event>
<event>
12    1  0.1755460E-007  0.1641863E+04  0.7818608E-02  0.8795235E-01
         -1   -1    0    0    0  501 -0.00000000000E+00  0.00000000000E+00  0.67829600045E+03  0.67829600045E+03  0.00000000000E+00 0.  1.
          1   -1    0    0  501    0  0.00000000000E+00 -0.00000000000E+00 -0.99356066434E+03  0.99356066434E+03  0.00000000000E+00 0. -1.
         23    2    1    2    0    0  0.44430582906E+03  0.35724649980E+03 -0.85027993949E+02  0.58357242157E+03  0.91072938382E+02 0.  0.
        254    2    1    2    0    0 -0.44430582906E+03 -0.35724649980E+03 -0.23023666994E+03  0.10882842432E+04  0.89795375076E+03 0.  0.
        -24    2    4    4    0    0 -0.14792465651E+03 -0.59983718253E+03 -0.29918304102E+03  0.69113177642E+03  0.80413250152E+02 0.  0.
         24    2    4    4    0    0 -0.29638117255E+03  0.24259068273E+03  0.68946371074E+02  0.39715246680E+03  0.79274466335E+02 0.  0.
         11    1    3    3    0    0  0.32380574684E+03  0.23391233241E+03 -0.22263794835E+02  0.40007601465E+03  0.00000000000E+00 0.  1.
        -11    1    3    3    0    0  0.12050008222E+03  0.12333416739E+03 -0.62764199115E+02  0.18349640692E+03  0.00000000000E+00 0. -1.
          2    1    6    6  502    0 -0.39178672757E+02  0.19449276585E+02 -0.15367882778E+02  0.46361779299E+02  0.00000000000E+00 0. -1.
          3    1    5    5  503    0 -0.86223488950E+02 -0.19470877098E+03 -0.92642090226E+02  0.23222521918E+03  0.00000000000E+00 0. -1.
         -4    1    5    5    0  503 -0.61701167555E+02 -0.40512841155E+03 -0.20654095079E+03  0.45890655724E+03  0.00000000000E+00 0.  1.
         -1    1    6    6    0  502 -0.25720249980E+03  0.22314140614E+03  0.84314253852E+02  0.35079068750E+03  0.00000000000E+00 0.  1.
<mgrwt>
<rscale>  0 0.16418626E+04</rscale>
<asrwt>0</asrwt>
<pdfrwt beam="1">  1        1 0.15285549E+00 0.16418626E+04</pdfrwt>
<pdfrwt beam="2">  1       -1 0.10435323E+00 0.16418626E+04</pdfrwt>
<totfact> 0.12645744E+01</totfact>
</mgrwt>
</event>
<event>
12    1  0.2173716E-007  0.2764754E+04  0.7818608E-02  0.8314295E-01
          2   -1    0    0  501    0  0.00000000000E+00  0.00000000000E+00  0.26285278818E+04  0.26285278818E+04  0.00000000000E+00 0.  1.
         -2   -1    0    0    0  501 -0.00000000000E+00 -0.00000000000E+00 -0.72701006483E+03  0.72701006483E+03  0.00000000000E+00 0. -1.
         23    2    1    2    0    0 -0.17511449820E+03  0.12183031105E+04  0.89367087219E+03  0.15238131447E+04  0.91822195192E+02 0.  0.
        254    2    1    2    0    0  0.17511449820E+03 -0.12183031105E+04  0.10078469448E+04  0.18317248019E+04  0.90803784573E+03 0.  0.
        -24    2    4    4    0    0 -0.28690648575E+02 -0.27232737473E+03  0.78539306569E+03  0.83556735426E+03  0.79656660277E+02 0.  0.
         24    2    4    4    0    0  0.20380514677E+03 -0.94597573580E+03  0.22245387907E+03  0.99615744766E+03  0.80232796455E+02 0.  0.
         11    1    3    3    0    0 -0.71005572882E+02  0.32479325641E+03  0.20128143131E+03  0.38864722484E+03  0.00000000000E+00 0. -1.
        -11    1    3    3    0    0 -0.10410892532E+03  0.89350985412E+03  0.69238944088E+03  0.11351659198E+04  0.00000000000E+00 0.  1.
          4    1    6    6  502    0  0.20055246561E+03 -0.79237334192E+03  0.18842486609E+03  0.83879719516E+03  0.00000000000E+00 0. -1.
          1    1    5    5  503    0 -0.47533612505E+02 -0.24801154306E+03  0.72627982535E+03  0.76892883580E+03  0.00000000000E+00 0. -1.
         -2    1    5    5    0  503  0.18842963930E+02 -0.24315831663E+02  0.59113240343E+02  0.66638518463E+02  0.00000000000E+00 0.  1.
         -3    1    6    6    0  502  0.32526811683E+01 -0.15360239388E+03  0.34029012981E+02  0.15736025249E+03  0.00000000000E+00 0.  1.
<mgrwt>
<rscale>  0 0.27647540E+04</rscale>
<asrwt>0</asrwt>
<pdfrwt beam="1">  1        2 0.40438890E+00 0.27647540E+04</pdfrwt>
<pdfrwt beam="2">  1       -2 0.11184770E+00 0.27647540E+04</pdfrwt>
<totfact> 0.16116494E+00</totfact>
</mgrwt>
</event>
<event>
12    1  0.1755460E-007  0.1161504E+04  0.7818608E-02  0.9147236E-01
         -2   -1    0    0    0  501 -0.00000000000E+00  0.00000000000E+00  0.21796852824E+03  0.21796852824E+03  0.00000000000E+00 0.  1.
          2   -1    0    0  501    0  0.00000000000E+00 -0.00000000000E+00 -0.15473473993E+04  0.15473473993E+04  0.00000000000E+00 0. -1.
         23    2    1    2    0    0 -0.42513273276E+02 -0.42673030998E+02  0.47330546901E+02  0.12189971237E+03  0.94820848060E+02 0.  0.
        254    2    1    2    0    0  0.42513273276E+02  0.42673030998E+02 -0.13767094180E+04  0.16434162152E+04  0.89546617402E+03 0.  0.
        -24    2    4    4    0    0  0.23956317546E+03  0.11659571986E+03 -0.33310365939E+02  0.28129506217E+03  0.83858539201E+02 0.  0.
         24    2    4    4    0    0 -0.19704990218E+03 -0.73922688858E+02 -0.13433990521E+04  0.13621211530E+04  0.79748320352E+02 0.  0.
         13    1    3    3    0    0 -0.32781888667E+02 -0.57151960720E+02  0.68113624801E+02  0.94765313919E+02  0.00000000000E+00 0.  1.
        -13    1    3    3    0    0 -0.97313846097E+01  0.14478929722E+02 -0.20783077899E+02  0.27134398451E+02  0.00000000000E+00 0. -1.
          4    1    6    6  502    0 -0.17535617665E+03 -0.90879444300E+02 -0.11850530062E+04  0.12013989718E+04  0.00000000000E+00 0. -1.
          3    1    5    5  503    0  0.24333939194E+03  0.11133257687E+03 -0.41559496147E+02  0.27080656207E+03  0.00000000000E+00 0. -1.
         -4    1    5    5    0  503 -0.37762164840E+01  0.52631429837E+01  0.82491302073E+01  0.10488500092E+02  0.00000000000E+00 0.  1.
         -3    1    6    6    0  502 -0.21693725531E+02  0.16956755443E+02 -0.15834604591E+03  0.16072218123E+03  0.00000000000E+00 0.  1.
<mgrwt>
<rscale>  0 0.11615043E+04</rscale>
<asrwt>0</asrwt>
<pdfrwt beam="1">  1        2 0.23805345E+00 0.11615043E+04</pdfrwt>
<pdfrwt beam="2">  1       -2 0.33533620E-01 0.11615043E+04</pdfrwt>
<totfact> 0.98101154E+01</totfact>
</mgrwt>
</event>
<event>
12    1  0.1755460E-007  0.2043031E+04  0.7818608E-02  0.8586762E-01
         -1   -1    0    0    0  501 -0.00000000000E+00  0.00000000000E+00  0.62873573226E+03  0.62873573226E+03  0.00000000000E+00 0.  1.
          1   -1    0    0  501    0  0.00000000000E+00 -0.00000000000E+00 -0.16596707637E+04  0.16596707637E+04  0.00000000000E+00 0. -1.
         23    2    1    2    0    0  0.29499595953E+03 -0.59431603807E+03  0.12426059775E+03  0.68145094414E+03  0.93276598744E+02 0.  0.
        254    2    1    2    0    0 -0.29499595953E+03  0.59431603807E+03 -0.11551956292E+04  0.16069555518E+04  0.89866291485E+03 0.  0.
        -24    2    4    4    0    0  0.15394105679E+03  0.46036160705E+03 -0.98781173964E+03  0.11036274873E+04  0.81184601241E+02 0.  0.
         24    2    4    4    0    0 -0.44893701632E+03  0.13395443102E+03 -0.16738388952E+03  0.50332806451E+03  0.76377613482E+02 0.  0.
         13    1    3    3    0    0  0.49463895596E+02 -0.60163732593E+02 -0.97326196960E+01  0.78492519218E+02  0.00000000000E+00 0.  1.
        -13    1    3    3    0    0  0.24553206394E+03 -0.53415230548E+03  0.13399321745E+03  0.60295842493E+03  0.00000000000E+00 0. -1.
          4    1    6    6  502    0 -0.19069488441E+03  0.32520762777E+02 -0.10021249306E+03  0.21786390871E+03  0.00000000000E+00 0. -1.
          1    1    5    5  503    0  0.11351278837E+03  0.30113451086E+03 -0.56825581985E+03  0.65305575837E+03  0.00000000000E+00 0. -1.
         -2    1    5    5    0  503  0.40428268413E+02  0.15922709619E+03 -0.41955591979E+03  0.45057172890E+03  0.00000000000E+00 0.  1.
         -3    1    6    6    0  502 -0.25824213191E+03  0.10143366825E+03 -0.67171396460E+02  0.28546415581E+03  0.00000000000E+00 0.  1.
<mgrwt>
<rscale>  0 0.20430314E+04</rscale>
<asrwt>0</asrwt>
<pdfrwt beam="1">  1        1 0.25533396E+00 0.20430314E+04</pdfrwt>
<pdfrwt beam="2">  1       -1 0.96728577E-01 0.20430314E+04</pdfrwt>
<totfact> 0.48248271E+00</totfact>
</mgrwt>
</event>
<event>
12    1  0.1755460E-007  0.1676758E+04  0.7818608E-02  0.8774732E-01
          2   -1    0    0  501    0  0.00000000000E+00  0.00000000000E+00  0.19899603039E+04  0.19899603039E+04  0.00000000000E+00 0. -1.
         -2   -1    0    0    0  501 -0.00000000000E+00 -0.00000000000E+00 -0.35321280019E+03  0.35321280019E+03  0.00000000000E+00 0.  1.
         23    2    1    2    0    0 -0.33707208936E+03 -0.37818800062E+03  0.11389299744E+03  0.52871117727E+03  0.99599883829E+02 0.  0.
        254    2    1    2    0    0  0.33707208936E+03  0.37818800062E+03  0.15228545062E+04  0.18144619268E+04  0.84648832203E+03 0.  0.
        -24    2    4    4    0    0 -0.70784081737E+02  0.33724633388E+03  0.15886582771E+03  0.38789803513E+03  0.80505021584E+02 0.  0.
         24    2    4    4    0    0  0.40785617110E+03  0.40941666740E+02  0.13639886785E+04  0.14265638917E+04  0.81219119878E+02 0.  0.
         13    1    3    3    0    0 -0.19280799799E+03 -0.21236148181E+03  0.11469509518E+03  0.30891307499E+03  0.00000000000E+00 0. -1.
        -13    1    3    3    0    0 -0.14426409138E+03 -0.16582651882E+03 -0.80209773524E+00  0.21979810228E+03  0.00000000000E+00 0.  1.
          2    1    6    6  502    0  0.16805320055E+03  0.43283749217E+01  0.69212446899E+03  0.71224777544E+03  0.00000000000E+00 0. -1.
          1    1    5    5  503    0 -0.15115409770E+02  0.12246843215E+03  0.17043592277E+02  0.12456916362E+03  0.00000000000E+00 0. -1.
         -2    1    5    5    0  503 -0.55668671967E+02  0.21477790173E+03  0.14182223543E+03  0.26332887152E+03  0.00000000000E+00 0.  1.
         -1    1    6    6    0  502  0.23980297055E+03  0.36613291818E+02  0.67186420954E+03  0.71431611621E+03  0.00000000000E+00 0.  1.
<mgrwt>
<rscale>  0 0.16767581E+04</rscale>
<asrwt>0</asrwt>
<pdfrwt beam="1">  1        2 0.30614773E+00 0.16767581E+04</pdfrwt>
<pdfrwt beam="2">  1       -2 0.54340432E-01 0.16767581E+04</pdfrwt>
<totfact> 0.20569471E+01</totfact>
</mgrwt>
</event>
<event>
12    1  0.1755460E-007  0.2120124E+04  0.7818608E-02  0.8552430E-01
          2   -1    0    0  501    0  0.00000000000E+00  0.00000000000E+00  0.19105904876E+04  0.19105904876E+04  0.00000000000E+00 0. -1.
         -2   -1    0    0    0  501 -0.00000000000E+00 -0.00000000000E+00 -0.58815936277E+03  0.58815936277E+03  0.00000000000E+00 0.  1.
         23    2    1    2    0    0 -0.72186480155E+03  0.64426853585E+02  0.10997543744E+04  0.13201821709E+04  0.90452579346E+02 0.  0.
        254    2    1    2    0    0  0.72186480155E+03 -0.64426853585E+02  0.22267675042E+03  0.11785676795E+04  0.90232878083E+03 0.  0.
        -24    2    4    4    0    0  0.90799725593E+03  0.74860803746E+01  0.69377367702E+02  0.91414203873E+03  0.79544890683E+02 0.  0.
         24    2    4    4    0    0 -0.18613245438E+03 -0.71912933960E+02  0.15329938272E+03  0.26442564074E+03  0.81261664371E+02 0.  0.
         11    1    3    3    0    0 -0.64439117641E+01 -0.36187608507E+01  0.33824401264E+02  0.34622385097E+02  0.00000000000E+00 0. -1.
        -11    1    3    3    0    0 -0.71542088979E+03  0.68045614436E+02  0.10659299731E+04  0.12855597858E+04  0.00000000000E+00 0.  1.
          4    1    6    6  502    0 -0.15989809988E+03 -0.85033373568E+02  0.10924879280E+03  0.21150266120E+03  0.00000000000E+00 0. -1.
          1    1    5    5  503    0  0.74422705617E+03 -0.19625298239E+02  0.73390707782E+02  0.74809441881E+03  0.00000000000E+00 0. -1.
         -2    1    5    5    0  503  0.16377019977E+03  0.27111378614E+02 -0.40133400799E+01  0.16604761992E+03  0.00000000000E+00 0.  1.
         -3    1    6    6    0  502 -0.26234354496E+02  0.13120439608E+02  0.44050589921E+02  0.52922979543E+02  0.00000000000E+00 0.  1.
<mgrwt>
<rscale>  0 0.21201242E+04</rscale>
<asrwt>0</asrwt>
<pdfrwt beam="1">  1        2 0.29393700E+00 0.21201242E+04</pdfrwt>
<pdfrwt beam="2">  1       -2 0.90486056E-01 0.21201242E+04</pdfrwt>
<totfact> 0.71932846E+00</totfact>
</mgrwt>
</event>
<event>
12    1  0.1755460E-007  0.1788391E+04  0.7818608E-02  0.8712498E-01
          1   -1    0    0  501    0  0.00000000000E+00  0.00000000000E+00  0.39909878931E+03  0.39909878931E+03  0.00000000000E+00 0. -1.
         -1   -1    0    0    0  501 -0.00000000000E+00 -0.00000000000E+00 -0.20034773423E+04  0.20034773423E+04  0.00000000000E+00 0.  1.
         23    2    1    2    0    0 -0.28110783379E+03 -0.27702605849E+03  0.12404920243E+03  0.42382635843E+03  0.92062620925E+02 0.  0.
        254    2    1    2    0    0  0.28110783379E+03  0.27702605849E+03 -0.17284277554E+04  0.19787497732E+04  0.87876225900E+03 0.  0.
        -24    2    4    4    0    0 -0.30227279727E+03  0.85122053749E+02 -0.41215234129E+03  0.52409321211E+03  0.78673594989E+02 0.  0.
         24    2    4    4    0    0  0.58338063106E+03  0.19190400475E+03 -0.13162754141E+04  0.14546565610E+04  0.79275702978E+02 0.  0.
         13    1    3    3    0    0 -0.72798733066E+02 -0.64142791933E+02  0.73499844952E+02  0.12172173389E+03  0.00000000000E+00 0.  1.
        -13    1    3    3    0    0 -0.20830910073E+03 -0.21288326656E+03  0.50549357480E+02  0.30210462454E+03  0.00000000000E+00 0. -1.
          4    1    6    6  502    0  0.42159476033E+03  0.17501621716E+03 -0.98101203001E+03  0.10820154441E+04  0.00000000000E+00 0. -1.
          3    1    5    5  503    0 -0.27598611404E+03  0.50996663190E+02 -0.35695508310E+03  0.45407700465E+03  0.00000000000E+00 0. -1.
         -4    1    5    5    0  503 -0.26286683227E+02  0.34125390559E+02 -0.55197258188E+02  0.70016207462E+02  0.00000000000E+00 0.  1.
         -3    1    6    6    0  502  0.16178587073E+03  0.16887787585E+02 -0.33526338409E+03  0.37264111696E+03  0.00000000000E+00 0.  1.
<mgrwt>
<rscale>  0 0.17883908E+04</rscale>
<asrwt>0</asrwt>
<pdfrwt beam="1">  1        1 0.61399814E-01 0.17883908E+04</pdfrwt>
<pdfrwt beam="2">  1       -1 0.30822728E+00 0.17883908E+04</pdfrwt>
<totfact> 0.16621946E+00</totfact>
</mgrwt>
</event>
<event>
12    1  0.1755460E-007  0.2387717E+04  0.7818608E-02  0.8444116E-01
          2   -1    0    0  501    0  0.00000000000E+00  0.00000000000E+00  0.10122839807E+04  0.10122839807E+04  0.00000000000E+00 0. -1.
         -2   -1    0    0    0  501 -0.00000000000E+00 -0.00000000000E+00 -0.14080025536E+04  0.14080025536E+04  0.00000000000E+00 0.  1.
         23    2    1    2    0    0 -0.16564213333E+03  0.80799761676E+03  0.45221294219E+03  0.94437456138E+03  0.83960121944E+02 0.  0.
        254    2    1    2    0    0  0.16564213333E+03 -0.80799761676E+03 -0.84793151506E+03  0.14759119730E+04  0.88262723313E+03 0.  0.
        -24    2    4    4    0    0  0.40902984591E+03 -0.10743792172E+03 -0.15403737097E+03  0.45707843994E+03  0.79654671736E+02 0.  0.
         24    2    4    4    0    0 -0.24338771258E+03 -0.70055969503E+03 -0.69389414409E+03  0.10188335330E+04  0.80692130104E+02 0.  0.
         13    1    3    3    0    0 -0.41442578601E+02  0.38063134063E+03  0.23380804357E+03  0.44862445991E+03  0.00000000000E+00 0. -1.
        -13    1    3    3    0    0 -0.12419955473E+03  0.42736627613E+03  0.21840489862E+03  0.49575010147E+03  0.00000000000E+00 0.  1.
          4    1    6    6  502    0 -0.13971051565E+03 -0.49667724193E+03 -0.50834125056E+03  0.72430527947E+03  0.00000000000E+00 0. -1.
          3    1    5    5  503    0  0.57290901506E+02 -0.14942298030E+02  0.64273905285E+01  0.59555276969E+02  0.00000000000E+00 0. -1.
         -4    1    5    5    0  503  0.35173894440E+03 -0.92495623694E+02 -0.16046476150E+03  0.39752316297E+03  0.00000000000E+00 0.  1.
         -3    1    6    6    0  502 -0.10367719692E+03 -0.20388245310E+03 -0.18555289353E+03  0.29452825356E+03  0.00000000000E+00 0.  1.
<mgrwt>
<rscale>  0 0.23877173E+04</rscale>
<asrwt>0</asrwt>
<pdfrwt beam="1">  1        2 0.15573600E+00 0.23877173E+04</pdfrwt>
<pdfrwt beam="2">  1       -2 0.21661578E+00 0.23877173E+04</pdfrwt>
<totfact> 0.23118850E+00</totfact>
</mgrwt>
</event>
<event>
12    1  0.1755460E-007  0.1709910E+04  0.7818608E-02  0.8755732E-01
          2   -1    0    0  501    0  0.00000000000E+00  0.00000000000E+00  0.44869333319E+03  0.44869333319E+03  0.00000000000E+00 0. -1.
         -2   -1    0    0    0  501 -0.00000000000E+00 -0.00000000000E+00 -0.16290591027E+04  0.16290591027E+04  0.00000000000E+00 0.  1.
         23    2    1    2    0    0  0.53293030749E+03  0.16925487326E+03 -0.73866031978E+03  0.93100239928E+03  0.92111208225E+02 0.  0.
        254    2    1    2    0    0 -0.53293030749E+03 -0.16925487326E+03 -0.44170544977E+03  0.11467500367E+04  0.89848206295E+03 0.  0.
        -24    2    4    4    0    0 -0.66615300225E+03 -0.92162782289E+02 -0.60595039813E+03  0.90868930127E+03  0.79287832602E+02 0.  0.
         24    2    4    4    0    0  0.13322269476E+03 -0.77092090974E+02  0.16424494836E+03  0.23806073539E+03  0.77492153030E+02 0.  0.
         13    1    3    3    0    0  0.28895946293E+03  0.43473442499E+02 -0.38066035785E+03  0.47988521488E+03  0.00000000000E+00 0.  1.
        -13    1    3    3    0    0  0.24397084456E+03  0.12578143076E+03 -0.35799996194E+03  0.45111718441E+03  0.00000000000E+00 0. -1.
          4    1    6    6  502    0  0.46764924213E+01 -0.21823097647E+02  0.31983710862E-01  0.22318561674E+02  0.00000000000E+00 0. -1.
          3    1    5    5  503    0 -0.10108699136E+03 -0.32991785715E+02 -0.12661555134E+03  0.16534368929E+03  0.00000000000E+00 0. -1.
         -4    1    5    5    0  503 -0.56506601089E+03 -0.59170996573E+02 -0.47933484678E+03  0.74334561197E+03  0.00000000000E+00 0.  1.
         -3    1    6    6    0  502  0.12854620234E+03 -0.55268993327E+02  0.16421296465E+03  0.21574217371E+03  0.00000000000E+00 0.  1.
<mgrwt>
<rscale>  0 0.17099099E+04</rscale>
<asrwt>0</asrwt>
<pdfrwt beam="1">  1        2 0.69029745E-01 0.17099099E+04</pdfrwt>
<pdfrwt beam="2">  1       -2 0.25062447E+00 0.17099099E+04</pdfrwt>
<totfact> 0.42263877E+00</totfact>
</mgrwt>
</event>
<event>
12    1  0.1755460E-007  0.1278996E+04  0.7818608E-02  0.9046389E-01
         -2   -1    0    0    0  501 -0.00000000000E+00  0.00000000000E+00  0.87930906350E+03  0.87930906350E+03  0.00000000000E+00 0.  1.
          2   -1    0    0  501    0  0.00000000000E+00 -0.00000000000E+00 -0.46508977356E+03  0.46508977356E+03  0.00000000000E+00 0. -1.
         23    2    1    2    0    0 -0.19416392345E+03  0.54678743643E+02 -0.14839586646E+03  0.26617052633E+03  0.90199898739E+02 0.  0.
        254    2    1    2    0    0  0.19416392345E+03 -0.54678743643E+02  0.56261515639E+03  0.10782283107E+04  0.89741355109E+03 0.  0.
        -24    2    4    4    0    0 -0.33591494478E+03 -0.60456822034E+02  0.36655851915E+03  0.50723814351E+03  0.80196688292E+02 0.  0.
         24    2    4    4    0    0  0.53007886823E+03  0.57780783913E+01  0.19605663724E+03  0.57099016722E+03  0.81083742678E+02 0.  0.
         11    1    3    3    0    0 -0.21034699881E+02  0.33201527222E+02 -0.56961127219E+02  0.69205274532E+02  0.00000000000E+00 0.  1.
        -11    1    3    3    0    0 -0.17312922357E+03  0.21477216420E+02 -0.91434739237E+02  0.19696525180E+03  0.00000000000E+00 0. -1.
          4    1    6    6  502    0  0.42067043473E+03  0.27667793732E+02  0.17945670987E+03  0.45818536881E+03  0.00000000000E+00 0. -1.
          1    1    5    5  503    0 -0.16211918094E+03 -0.15777309111E+02  0.12011048272E+03  0.20238102770E+03  0.00000000000E+00 0. -1.
         -2    1    5    5    0  503 -0.17379576384E+03 -0.44679512923E+02  0.24644803642E+03  0.30485711581E+03  0.00000000000E+00 0.  1.
         -3    1    6    6    0  502  0.10940843349E+03 -0.21889715341E+02  0.16599927371E+02  0.11280479842E+03  0.00000000000E+00 0.  1.
<mgrwt>
<rscale>  0 0.12789959E+04</rscale>
<asrwt>0</asrwt>
<pdfrwt beam="1">  1        2 0.71552273E-01 0.12789959E+04</pdfrwt>
<pdfrwt beam="2">  1       -2 0.13527832E+00 0.12789959E+04</pdfrwt>
<totfact> 0.25777032E+01</totfact>
</mgrwt>
</event>
<event>
12    1  0.1755460E-007  0.1883283E+04  0.7818608E-02  0.8663222E-01
         -2   -1    0    0    0  501 -0.00000000000E+00  0.00000000000E+00  0.72031531633E+03  0.72031531633E+03  0.00000000000E+00 0. -1.
          2   -1    0    0  501    0  0.00000000000E+00 -0.00000000000E+00 -0.12309732994E+04  0.12309732994E+04  0.00000000000E+00 0.  1.
         23    2    1    2    0    0  0.25641929156E+03  0.64812525018E+03  0.22806136922E+02  0.70334707796E+03  0.91431937476E+02 0.  0.
        254    2    1    2    0    0 -0.25641929156E+03 -0.64812525018E+03 -0.53346411998E+03  0.12479415378E+04  0.88710592455E+03 0.  0.
        -24    2    4    4    0    0  0.29493235497E+03 -0.38201027092E+03 -0.35778645660E+03  0.60606831695E+03  0.79941948848E+02 0.  0.
         24    2    4    4    0    0 -0.55135164653E+03 -0.26611497926E+03 -0.17567766338E+03  0.64187322082E+03  0.79578702345E+02 0.  0.
         11    1    3    3    0    0  0.84770477336E+02  0.31976505468E+03  0.34790695585E+02  0.33263511017E+03  0.00000000000E+00 0. -1.
        -11    1    3    3    0    0  0.17164881422E+03  0.32836019550E+03 -0.11984558663E+02  0.37071196778E+03  0.00000000000E+00 0.  1.
          4    1    6    6  502    0 -0.10261039022E+03 -0.19474527571E+02 -0.42696645101E+02  0.11283241072E+03  0.00000000000E+00 0. -1.
          1    1    5    5  503    0  0.43999942323E+02 -0.76643903136E+02 -0.32430009663E+02  0.94138134351E+02  0.00000000000E+00 0. -1.
         -2    1    5    5    0  503  0.25093241265E+03 -0.30536636778E+03 -0.32535644694E+03  0.51193018260E+03  0.00000000000E+00 0.  1.
         -3    1    6    6    0  502 -0.44874125631E+03 -0.24664045169E+03 -0.13298101828E+03  0.52904081010E+03  0.00000000000E+00 0.  1.
<mgrwt>
<rscale>  0 0.18832832E+04</rscale>
<asrwt>0</asrwt>
<pdfrwt beam="1">  1        2 0.18938051E+00 0.18832832E+04</pdfrwt>
<pdfrwt beam="2">  1       -2 0.11081774E+00 0.18832832E+04</pdfrwt>
<totfact> 0.10987739E+01</totfact>
</mgrwt>
</event>
<event>
12    1  0.1755460E-007  0.1434976E+04  0.7818608E-02  0.8928883E-01
         -1   -1    0    0    0  501 -0.00000000000E+00  0.00000000000E+00  0.35774302689E+03  0.35774302689E+03  0.00000000000E+00 0.  1.
          1   -1    0    0  501    0  0.00000000000E+00 -0.00000000000E+00 -0.14389912322E+04  0.14389912322E+04  0.00000000000E+00 0. -1.
         23    2    1    2    0    0  0.21839624103E+03 -0.13731845304E+03  0.98608887893E+02  0.29044400493E+03  0.89892889530E+02 0.  0.
        254    2    1    2    0    0 -0.21839624103E+03  0.13731845304E+03 -0.11798570932E+04  0.15062902542E+04  0.90016348168E+03 0.  0.
        -24    2    4    4    0    0 -0.51642967536E+03  0.17747020567E+02 -0.10010474803E+04  0.11297421767E+04  0.84892647147E+02 0.  0.
         24    2    4    4    0    0  0.29803343434E+03  0.11957143247E+03 -0.17880961291E+03  0.37654807752E+03  0.81818833828E+02 0.  0.
         11    1    3    3    0    0  0.13301657620E+03 -0.13237761928E+03  0.68713424208E+02  0.19984688713E+03  0.00000000000E+00 0.  1.
        -11    1    3    3    0    0  0.85379664827E+02 -0.49408337593E+01  0.29895463684E+02  0.90597117797E+02  0.00000000000E+00 0. -1.
          2    1    6    6  502    0  0.55461264036E+02  0.33236195715E+02 -0.74757908627E+02  0.98839978836E+02  0.00000000000E+00 0. -1.
          1    1    5    5  503    0 -0.20438963776E+03 -0.34619671669E+01 -0.31156275226E+03  0.37263716648E+03  0.00000000000E+00 0. -1.
         -2    1    5    5    0  503 -0.31204003760E+03  0.21208987734E+02 -0.68948472804E+03  0.75710501018E+03  0.00000000000E+00 0.  1.
         -1    1    6    6    0  502  0.24257217030E+03  0.86335236754E+02 -0.10405170428E+03  0.27770809868E+03  0.00000000000E+00 0.  1.
<mgrwt>
<rscale>  0 0.14349761E+04</rscale>
<asrwt>0</asrwt>
<pdfrwt beam="1">  1        1 0.22138327E+00 0.14349761E+04</pdfrwt>
<pdfrwt beam="2">  1       -1 0.55037388E-01 0.14349761E+04</pdfrwt>
<totfact> 0.23404540E+01</totfact>
</mgrwt>
</event>
<event>
12    1  0.1755460E-007  0.1795544E+04  0.7818608E-02  0.8708673E-01
          1   -1    0    0  501    0  0.00000000000E+00  0.00000000000E+00  0.15985385269E+04  0.15985385269E+04  0.00000000000E+00 0. -1.
         -1   -1    0    0    0  501 -0.00000000000E+00 -0.00000000000E+00 -0.50420694676E+03  0.50420694676E+03  0.00000000000E+00 0.  1.
         23    2    1    2    0    0  0.56783197581E+03 -0.21730631386E+03  0.73404921972E+03  0.95743197589E+03  0.90512676997E+02 0.  0.
        254    2    1    2    0    0 -0.56783197581E+03  0.21730631386E+03  0.36028236042E+03  0.11453134978E+04  0.90126824095E+03 0.  0.
        -24    2    4    4    0    0 -0.74933826878E+03 -0.41142549380E+02  0.19658332816E+03  0.78061194869E+03  0.86657135286E+02 0.  0.
         24    2    4    4    0    0  0.18150629297E+03  0.25844886324E+03  0.16369903226E+03  0.36470154908E+03  0.80433186215E+02 0.  0.
         13    1    3    3    0    0  0.26536735072E+03 -0.10267418600E+03  0.27370894124E+03  0.39481439160E+03  0.00000000000E+00 0. -1.
        -13    1    3    3    0    0  0.30246462510E+03 -0.11463212786E+03  0.46034027847E+03  0.56261758429E+03  0.00000000000E+00 0.  1.
          2    1    6    6  502    0  0.12027448298E+02  0.67709674031E+02  0.18886907806E+02  0.71316020335E+02  0.00000000000E+00 0. -1.
          1    1    5    5  503    0 -0.30587548621E+02 -0.19112048217E+02  0.47779334209E+01  0.36382649236E+02  0.00000000000E+00 0. -1.
         -2    1    5    5    0  503 -0.71875072016E+03 -0.22030501163E+02  0.19180539474E+03  0.74422929945E+03  0.00000000000E+00 0.  1.
         -1    1    6    6    0  502  0.16947884467E+03  0.19073918920E+03  0.14481212445E+03  0.29338552874E+03  0.00000000000E+00 0.  1.
<mgrwt>
<rscale>  0 0.17955436E+04</rscale>
<asrwt>0</asrwt>
<pdfrwt beam="1">  1        1 0.24592900E+00 0.17955436E+04</pdfrwt>
<pdfrwt beam="2">  1       -1 0.77570300E-01 0.17955436E+04</pdfrwt>
<totfact> 0.87926227E+00</totfact>
</mgrwt>
</event>
<event>
12    1  0.1755460E-007  0.1444246E+04  0.7818608E-02  0.8922399E-01
         -2   -1    0    0    0  501 -0.00000000000E+00  0.00000000000E+00  0.31427951161E+03  0.31427951161E+03  0.00000000000E+00 0.  1.
          2   -1    0    0  501    0  0.00000000000E+00 -0.00000000000E+00 -0.16592293205E+04  0.16592293205E+04  0.00000000000E+00 0. -1.
         23    2    1    2    0    0 -0.33888364877E+03 -0.23725729103E+03 -0.56834455106E+03  0.70875190334E+03  0.90446571081E+02 0.  0.
        254    2    1    2    0    0  0.33888364877E+03  0.23725729103E+03 -0.77660525778E+03  0.12647569287E+04  0.90849392557E+03 0.  0.
        -24    2    4    4    0    0 -0.16936430052E+02 -0.18290898055E+03  0.10149644257E+03  0.22528147214E+03  0.81900402973E+02 0.  0.
         24    2    4    4    0    0  0.35582007883E+03  0.42016627158E+03 -0.87810170035E+03  0.10394754566E+04  0.79366267503E+02 0.  0.
         13    1    3    3    0    0 -0.29120182931E+03 -0.19838973949E+03 -0.42046183641E+03  0.54858467898E+03  0.00000000000E+00 0. -1.
        -13    1    3    3    0    0 -0.47681819464E+02 -0.38867551540E+02 -0.14788271464E+03  0.16016722436E+03  0.00000000000E+00 0.  1.
          4    1    6    6  502    0  0.20732270372E+03  0.19039789758E+03 -0.41093920758E+03  0.49810149087E+03  0.00000000000E+00 0. -1.
          1    1    5    5  503    0 -0.22774953232E+02 -0.19016128714E+03  0.94090364533E+02  0.21338465343E+03  0.00000000000E+00 0. -1.
         -2    1    5    5    0  503  0.58385231805E+01  0.72523065836E+01  0.74060780333E+01  0.11896818715E+02  0.00000000000E+00 0.  1.
         -3    1    6    6    0  502  0.14849737511E+03  0.22976837400E+03 -0.46716249277E+03  0.54137396572E+03  0.00000000000E+00 0.  1.
<mgrwt>
<rscale>  0 0.14442462E+04</rscale>
<asrwt>0</asrwt>
<pdfrwt beam="1">  1        2 0.25526605E+00 0.14442462E+04</pdfrwt>
<pdfrwt beam="2">  1       -2 0.48350694E-01 0.14442462E+04</pdfrwt>
<totfact> 0.40615045E+01</totfact>
</mgrwt>
</event>
<event>
12    1  0.1755460E-007  0.3517335E+04  0.7818608E-02  0.8109694E-01
          1   -1    0    0  501    0  0.00000000000E+00  0.00000000000E+00  0.34734763411E+04  0.34734763411E+04  0.00000000000E+00 0. -1.
         -1   -1    0    0    0  501 -0.00000000000E+00 -0.00000000000E+00 -0.89043690496E+03  0.89043690496E+03  0.00000000000E+00 0.  1.
         23    2    1    2    0    0 -0.36948065669E+03 -0.84461104833E+03  0.28965839283E+04  0.30411308910E+04  0.91623488980E+02 0.  0.
        254    2    1    2    0    0  0.36948065669E+03  0.84461104833E+03 -0.31354449217E+03  0.13227823551E+04  0.89529840373E+03 0.  0.
        -24    2    4    4    0    0 -0.22936464613E+03  0.12435377257E+03 -0.26678887853E+03  0.38147274150E+03  0.79203189041E+02 0.  0.
         24    2    4    4    0    0  0.59884530283E+03  0.72025727576E+03 -0.46755613637E+02  0.94130961358E+03  0.80569604691E+02 0.  0.
         11    1    3    3    0    0 -0.12575850653E+03 -0.37921129318E+03  0.11645606478E+04  0.12311855706E+04  0.00000000000E+00 0. -1.
        -11    1    3    3    0    0 -0.24372215016E+03 -0.46539975514E+03  0.17320232804E+04  0.18099453203E+04  0.00000000000E+00 0.  1.
          2    1    6    6  502    0  0.26298291905E+03  0.31764694258E+03 -0.60643373703E+02  0.41681796341E+03  0.00000000000E+00 0. -1.
          1    1    5    5  503    0 -0.17889610005E+02 -0.56703079973E+01 -0.44304217797E+02  0.48115010688E+02  0.00000000000E+00 0. -1.
         -2    1    5    5    0  503 -0.21147503613E+03  0.13002408056E+03 -0.22248466074E+03  0.33335773082E+03  0.00000000000E+00 0.  1.
         -1    1    6    6    0  502  0.33586238378E+03  0.40261033318E+03  0.13887760066E+02  0.52449165017E+03  0.00000000000E+00 0.  1.
<mgrwt>
<rscale>  0 0.35173351E+04</rscale>
<asrwt>0</asrwt>
<pdfrwt beam="1">  1        1 0.53438097E+00 0.35173351E+04</pdfrwt>
<pdfrwt beam="2">  1       -1 0.13699029E+00 0.35173351E+04</pdfrwt>
<totfact> 0.94613251E-02</totfact>
</mgrwt>
</event>
<event>
12    1  0.1755460E-007  0.2649937E+04  0.7818608E-02  0.8351434E-01
         -2   -1    0    0    0  501 -0.00000000000E+00  0.00000000000E+00  0.11616035441E+04  0.11616035441E+04  0.00000000000E+00 0.  1.
          2   -1    0    0  501    0  0.00000000000E+00 -0.00000000000E+00 -0.15113082063E+04  0.15113082063E+04  0.00000000000E+00 0. -1.
         23    2    1    2    0    0 -0.31579606383E+03  0.10448375401E+04 -0.60704339152E+03  0.12524928350E+04  0.93936059578E+02 0.  0.
        254    2    1    2    0    0  0.31579606383E+03 -0.10448375401E+04  0.25733872935E+03  0.14204189155E+04  0.87175342533E+03 0.  0.
        -24    2    4    4    0    0  0.12093899596E+03 -0.29810179219E+03 -0.31497450130E+03  0.45633233222E+03  0.74426754008E+02 0.  0.
         24    2    4    4    0    0  0.19485706788E+03 -0.74673574794E+03  0.57231323064E+03  0.96408658324E+03  0.79604973860E+02 0.  0.
         13    1    3    3    0    0 -0.13416495660E+03  0.34379120615E+03 -0.16682610785E+03  0.40499824601E+03  0.00000000000E+00 0. -1.
        -13    1    3    3    0    0 -0.18163110723E+03  0.70104633397E+03 -0.44021728366E+03  0.84749458897E+03  0.00000000000E+00 0.  1.
          4    1    6    6  502    0  0.10664394984E+02 -0.17038428162E+03  0.13045614886E+03  0.21485655568E+03  0.00000000000E+00 0. -1.
          1    1    5    5  503    0 -0.33973295106E+01  0.28190436279E+01 -0.61661382093E+01  0.75835423910E+01  0.00000000000E+00 0. -1.
         -2    1    5    5    0  503  0.12433632547E+03 -0.30092083582E+03 -0.30880836309E+03  0.44874878983E+03  0.00000000000E+00 0.  1.
         -3    1    6    6    0  502  0.18419267289E+03 -0.57635146631E+03  0.44185708179E+03  0.74923002756E+03  0.00000000000E+00 0.  1.
<mgrwt>
<rscale>  0 0.26499366E+04</rscale>
<asrwt>0</asrwt>
<pdfrwt beam="1">  1        2 0.23250895E+00 0.26499366E+04</pdfrwt>
<pdfrwt beam="2">  1       -2 0.17870824E+00 0.26499366E+04</pdfrwt>
<totfact> 0.20399501E+00</totfact>
</mgrwt>
</event>
<event>
12    1  0.1755460E-007  0.2047276E+04  0.7818608E-02  0.8584831E-01
         -2   -1    0    0    0  501 -0.00000000000E+00  0.00000000000E+00  0.73871033083E+03  0.73871033083E+03  0.00000000000E+00 0. -1.
          2   -1    0    0  501    0  0.00000000000E+00 -0.00000000000E+00 -0.14184647117E+04  0.14184647117E+04  0.00000000000E+00 0.  1.
         23    2    1    2    0    0  0.62198572872E+03 -0.10954243783E+02  0.28705262392E+03  0.69116802748E+03  0.91256731980E+02 0.  0.
        254    2    1    2    0    0 -0.62198572872E+03  0.10954243783E+02 -0.96680700482E+03  0.14660070151E+04  0.90965627658E+03 0.  0.
        -24    2    4    4    0    0 -0.15175465512E+03  0.10189498598E+03 -0.95992617603E+03  0.98077163572E+03  0.83920644045E+02 0.  0.
         24    2    4    4    0    0 -0.47023107360E+03 -0.90940742202E+02 -0.68808287985E+01  0.48523537937E+03  0.77579291151E+02 0.  0.
         11    1    3    3    0    0  0.13917785749E+03  0.27646708471E-01  0.10779164572E+03  0.17603839259E+03  0.00000000000E+00 0. -1.
        -11    1    3    3    0    0  0.48280787123E+03 -0.10981890492E+02  0.17926097820E+03  0.51512963489E+03  0.00000000000E+00 0.  1.
          4    1    6    6  502    0 -0.80133140416E+02 -0.43817391490E+02 -0.13017166525E+02  0.92253621144E+02  0.00000000000E+00 0. -1.
          1    1    5    5  503    0 -0.26528351909E+02  0.54769899882E+02 -0.19645994685E+03  0.20566965286E+03  0.00000000000E+00 0. -1.
         -2    1    5    5    0  503 -0.12522630321E+03  0.47125086103E+02 -0.76346622917E+03  0.77510198286E+03  0.00000000000E+00 0.  1.
         -3    1    6    6    0  502 -0.39009793318E+03 -0.47123350711E+02  0.61363377264E+01  0.39298175822E+03  0.00000000000E+00 0.  1.
<mgrwt>
<rscale>  0 0.20472758E+04</rscale>
<asrwt>0</asrwt>
<pdfrwt beam="1">  1        2 0.21822534E+00 0.20472758E+04</pdfrwt>
<pdfrwt beam="2">  1       -2 0.11364774E+00 0.20472758E+04</pdfrwt>
<totfact> 0.79343112E+00</totfact>
</mgrwt>
</event>
<event>
12    1  0.1755460E-007  0.1726537E+04  0.7818608E-02  0.8746372E-01
          2   -1    0    0  501    0  0.00000000000E+00  0.00000000000E+00  0.12623331021E+04  0.12623331021E+04  0.00000000000E+00 0. -1.
         -2   -1    0    0    0  501 -0.00000000000E+00 -0.00000000000E+00 -0.59036113751E+03  0.59036113751E+03  0.00000000000E+00 0.  1.
         23    2    1    2    0    0 -0.25497974733E+02  0.14210197319E+03 -0.41111515420E+03  0.44397026553E+03  0.85151683251E+02 0.  0.
        254    2    1    2    0    0  0.25497974733E+02 -0.14210197319E+03  0.10830871188E+04  0.14087239741E+04  0.88914701302E+03 0.  0.
        -24    2    4    4    0    0  0.85821318595E+02 -0.51131044821E+02  0.12138885962E+04  0.12204728573E+04  0.77773961678E+02 0.  0.
         24    2    4    4    0    0 -0.60323343862E+02 -0.90970928364E+02 -0.13080147739E+03  0.18825111673E+03  0.80092701550E+02 0.  0.
         11    1    3    3    0    0  0.17681690548E+02  0.90955245859E+02 -0.16855992232E+03  0.19234850231E+03  0.00000000000E+00 0. -1.
        -11    1    3    3    0    0 -0.43179665282E+02  0.51146727327E+02 -0.24255523188E+03  0.25162176321E+03  0.00000000000E+00 0.  1.
          4    1    6    6  502    0 -0.28864449824E+02 -0.98804623845E+02 -0.97702277369E+02  0.14191985471E+03  0.00000000000E+00 0. -1.
          1    1    5    5  503    0  0.17868491448E+02  0.19293572158E+02  0.36889507407E+03  0.36983117849E+03  0.00000000000E+00 0. -1.
         -2    1    5    5    0  503  0.67952827147E+02 -0.70424616979E+02  0.84499352210E+03  0.85064167884E+03  0.00000000000E+00 0.  1.
         -3    1    6    6    0  502 -0.31458894038E+02  0.78336954802E+01 -0.33099200021E+02  0.46331262027E+02  0.00000000000E+00 0.  1.
<mgrwt>
<rscale>  0 0.17265369E+04</rscale>
<asrwt>0</asrwt>
<pdfrwt beam="1">  1        2 0.19420509E+00 0.17265369E+04</pdfrwt>
<pdfrwt beam="2">  1       -2 0.90824790E-01 0.17265369E+04</pdfrwt>
<totfact> 0.17093178E+01</totfact>
</mgrwt>
</event>
<event>
12    1  0.1755460E-007  0.1829767E+04  0.7818608E-02  0.8690628E-01
         -1   -1    0    0    0  501 -0.00000000000E+00  0.00000000000E+00  0.26524391332E+03  0.26524391332E+03  0.00000000000E+00 0.  1.
          1   -1    0    0  501    0  0.00000000000E+00 -0.00000000000E+00 -0.31556315233E+04  0.31556315233E+04  0.00000000000E+00 0. -1.
         23    2    1    2    0    0 -0.30827570042E+03  0.47281235328E+02  0.48225374745E+02  0.32911269799E+03  0.93381253578E+02 0.  0.
        254    2    1    2    0    0  0.30827570042E+03 -0.47281235328E+02 -0.29386129847E+04  0.30917627386E+04  0.90900007441E+03 0.  0.
        -24    2    4    4    0    0 -0.20575081543E+03  0.27072613049E+03 -0.11664539297E+04  0.12176243329E+04  0.79801066048E+02 0.  0.
         24    2    4    4    0    0  0.51402651586E+03 -0.31800736582E+03 -0.17721590549E+04  0.18741384056E+04  0.80592207057E+02 0.  0.
         11    1    3    3    0    0 -0.29122706314E+03  0.33443508980E+02  0.20656261771E+02  0.29386791548E+03  0.00000000000E+00 0.  1.
        -11    1    3    3    0    0 -0.17048637285E+02  0.13837726348E+02  0.27569112974E+02  0.35244782506E+02  0.00000000000E+00 0. -1.
          4    1    6    6  502    0  0.56130029778E+02 -0.65104207985E+02 -0.28375877273E+03  0.29649313524E+03  0.00000000000E+00 0. -1.
          3    1    5    5  503    0 -0.10729248466E+02 -0.38216371482E+01 -0.23921660617E+02  0.26494669837E+02  0.00000000000E+00 0. -1.
         -4    1    5    5    0  503 -0.19502156697E+03  0.27454776764E+03 -0.11425322691E+04  0.11911296631E+04  0.00000000000E+00 0.  1.
         -3    1    6    6    0  502  0.45789648608E+03 -0.25290315783E+03 -0.14884002822E+04  0.15776452704E+04  0.00000000000E+00 0.  1.
<mgrwt>
<rscale>  0 0.18297673E+04</rscale>
<asrwt>0</asrwt>
<pdfrwt beam="1">  1        1 0.48548178E+00 0.18297673E+04</pdfrwt>
<pdfrwt beam="2">  1       -1 0.40806755E-01 0.18297673E+04</pdfrwt>
<totfact> 0.25453894E+00</totfact>
</mgrwt>
</event>
<event>
12    1  0.1755460E-007  0.2094608E+04  0.7818608E-02  0.8563622E-01
          2   -1    0    0  501    0  0.00000000000E+00  0.00000000000E+00  0.96984261486E+03  0.96984261486E+03  0.00000000000E+00 0. -1.
         -2   -1    0    0    0  501 -0.00000000000E+00 -0.00000000000E+00 -0.11309518973E+04  0.11309518973E+04  0.00000000000E+00 0.  1.
         23    2    1    2    0    0  0.76198228512E+03  0.27934989094E+03 -0.28652549667E+03  0.86571226532E+03  0.93313995117E+02 0.  0.
        254    2    1    2    0    0 -0.76198228512E+03 -0.27934989094E+03  0.12541621419E+03  0.12350822469E+04  0.92252130888E+03 0.  0.
        -24    2    4    4    0    0 -0.66113957469E+03  0.20532232247E+03 -0.62591051966E+02  0.69961849395E+03  0.79281801007E+02 0.  0.
         24    2    4    4    0    0 -0.10084271043E+03 -0.48467221341E+03  0.18800726616E+03  0.53546375291E+03  0.79361778293E+02 0.  0.
         11    1    3    3    0    0  0.73408152586E+03  0.24775968068E+03 -0.27081806894E+03  0.82073319200E+03  0.00000000000E+00 0.  1.
        -11    1    3    3    0    0  0.27900759257E+02  0.31590210257E+02 -0.15707427724E+02  0.44979073322E+02  0.00000000000E+00 0. -1.
          2    1    6    6  502    0 -0.38775532139E+02 -0.56764404601E+02  0.20117996537E+02  0.71627322350E+02  0.00000000000E+00 0. -1.
          1    1    5    5  503    0 -0.22247358391E+03  0.53163754210E+02 -0.54969501766E+02  0.23524992332E+03  0.00000000000E+00 0. -1.
         -2    1    5    5    0  503 -0.43866599078E+03  0.15215856826E+03 -0.76215502001E+01  0.46436857063E+03  0.00000000000E+00 0.  1.
         -1    1    6    6    0  502 -0.62067178288E+02 -0.42790780881E+03  0.16788926962E+03  0.46383643056E+03  0.00000000000E+00 0.  1.
<mgrwt>
<rscale>  0 0.20946077E+04</rscale>
<asrwt>0</asrwt>
<pdfrwt beam="1">  1        2 0.14920656E+00 0.20946077E+04</pdfrwt>
<pdfrwt beam="2">  1       -2 0.17399260E+00 0.20946077E+04</pdfrwt>
<totfact> 0.48502088E+00</totfact>
</mgrwt>
</event>
<event>
12    1  0.1755460E-007  0.3122702E+04  0.7818608E-02  0.8209535E-01
         -1   -1    0    0    0  501 -0.00000000000E+00  0.00000000000E+00  0.17372606397E+04  0.17372606397E+04  0.00000000000E+00 0. -1.
          1   -1    0    0  501    0  0.00000000000E+00 -0.00000000000E+00 -0.14032531917E+04  0.14032531917E+04  0.00000000000E+00 0.  1.
         23    2    1    2    0    0 -0.36096091672E+03  0.13783774128E+04  0.22420156296E+03  0.14453574824E+04  0.92600408356E+02 0.  0.
        254    2    1    2    0    0  0.36096091672E+03 -0.13783774128E+04  0.10980588504E+03  0.16951563490E+04  0.91174592943E+03 0.  0.
        -24    2    4    4    0    0  0.47765824727E+03 -0.23872853690E+03 -0.13227999030E+02  0.54033660306E+03  0.81485883053E+02 0.  0.
         24    2    4    4    0    0 -0.11669733055E+03 -0.11396488759E+04  0.12303388407E+03  0.11548197460E+04  0.77804124673E+02 0.  0.
         11    1    3    3    0    0  0.60381380161E+00  0.27059967685E+02 -0.59109386966E+01  0.27704614029E+02  0.00000000000E+00 0. -1.
        -11    1    3    3    0    0 -0.36156473052E+03  0.13513174451E+04  0.23011250166E+03  0.14176528684E+04  0.00000000000E+00 0.  1.
          2    1    6    6  502    0 -0.78427647196E+02 -0.57980613790E+03  0.28642222851E+02  0.58578701788E+03  0.00000000000E+00 0. -1.
          3    1    5    5  503    0  0.13895665304E+03 -0.11183964797E+03  0.79169592122E+00  0.17837512457E+03  0.00000000000E+00 0. -1.
         -4    1    5    5    0  503  0.33870159423E+03 -0.12688888892E+03 -0.14019694951E+02  0.36196147849E+03  0.00000000000E+00 0.  1.
         -1    1    6    6    0  502 -0.38269683353E+02 -0.55984273799E+03  0.94391661223E+02  0.56903272810E+03  0.00000000000E+00 0.  1.
<mgrwt>
<rscale>  0 0.31227017E+04</rscale>
<asrwt>0</asrwt>
<pdfrwt beam="1">  1        1 0.21588511E+00 0.31227017E+04</pdfrwt>
<pdfrwt beam="2">  1       -1 0.26727087E+00 0.31227017E+04</pdfrwt>
<totfact> 0.34639047E-01</totfact>
</mgrwt>
</event>
<event>
12    1  0.1755460E-007  0.1842035E+04  0.7818608E-02  0.8684260E-01
         -2   -1    0    0    0  501 -0.00000000000E+00  0.00000000000E+00  0.96639991132E+03  0.96639991132E+03  0.00000000000E+00 0.  1.
          2   -1    0    0  501    0  0.00000000000E+00 -0.00000000000E+00 -0.87776598530E+03  0.87776598530E+03  0.00000000000E+00 0. -1.
         23    2    1    2    0    0 -0.28111364462E+03 -0.34385089594E+03  0.56367149966E+03  0.72281025509E+03  0.86433705849E+02 0.  0.
        254    2    1    2    0    0  0.28111364462E+03  0.34385089594E+03 -0.47503757363E+03  0.11213556415E+04  0.91352036573E+03 0.  0.
        -24    2    4    4    0    0 -0.11009470624E+03  0.37516036391E+03 -0.58272905528E+03  0.70662180156E+03  0.82916075535E+02 0.  0.
         24    2    4    4    0    0  0.39120835085E+03 -0.31309467971E+02  0.10769148165E+03  0.41473383997E+03  0.79890213638E+02 0.  0.
         13    1    3    3    0    0 -0.28430023299E+02 -0.19574775713E+02  0.85553915504E+02  0.92254596239E+02  0.00000000000E+00 0. -1.
        -13    1    3    3    0    0 -0.25268362132E+03 -0.32427612023E+03  0.47811758415E+03  0.63055565885E+03  0.00000000000E+00 0.  1.
          4    1    6    6  502    0  0.23763890142E+03 -0.18723295103E+02  0.10538672337E+03  0.26063225187E+03  0.00000000000E+00 0. -1.
          1    1    5    5  503    0  0.95919352127E+01  0.56102697974E+01 -0.19169318304E+02  0.22157236122E+02  0.00000000000E+00 0. -1.
         -2    1    5    5    0  503 -0.11968664145E+03  0.36955009411E+03 -0.56355973698E+03  0.68446456544E+03  0.00000000000E+00 0.  1.
         -3    1    6    6    0  502  0.15356944943E+03 -0.12586172868E+02  0.23047582753E+01  0.15410158811E+03  0.00000000000E+00 0.  1.
<mgrwt>
<rscale>  0 0.18420347E+04</rscale>
<asrwt>0</asrwt>
<pdfrwt beam="1">  1        2 0.13504092E+00 0.18420347E+04</pdfrwt>
<pdfrwt beam="2">  1       -2 0.14867691E+00 0.18420347E+04</pdfrwt>
<totfact> 0.87609989E+00</totfact>
</mgrwt>
</event>
<event>
12    1  0.1755460E-007  0.1506726E+04  0.7818608E-02  0.8879993E-01
         -1   -1    0    0    0  501 -0.00000000000E+00  0.00000000000E+00  0.79521752434E+03  0.79521752434E+03  0.00000000000E+00 0.  1.
          1   -1    0    0  501    0  0.00000000000E+00 -0.00000000000E+00 -0.71371136663E+03  0.71371136663E+03  0.00000000000E+00 0. -1.
         23    2    1    2    0    0 -0.20415270212E+03 -0.38704488507E+03 -0.16280539248E+03  0.47593893921E+03  0.92359131614E+02 0.  0.
        254    2    1    2    0    0  0.20415270212E+03  0.38704488507E+03  0.24431155019E+03  0.10329899518E+04  0.90327074459E+03 0.  0.
        -24    2    4    4    0    0  0.10220744872E+03 -0.12759765522E+03 -0.24835256367E+03  0.30902370886E+03  0.84196986705E+02 0.  0.
         24    2    4    4    0    0  0.10194525341E+03  0.51464254029E+03  0.49266411386E+03  0.72396624289E+03  0.78481926559E+02 0.  0.
         11    1    3    3    0    0 -0.18893041170E+03 -0.35141422728E+03 -0.11666753034E+03  0.41568975479E+03  0.00000000000E+00 0.  1.
        -11    1    3    3    0    0 -0.15222290422E+02 -0.35630657784E+02 -0.46137862143E+02  0.60249184417E+02  0.00000000000E+00 0. -1.
          2    1    6    6  502    0  0.54343411824E+01  0.22287680950E+03  0.19679578596E+03  0.29737549605E+03  0.00000000000E+00 0. -1.
          1    1    5    5  503    0  0.79729593328E+02 -0.40389232156E+02 -0.89910431432E+02  0.12677532807E+03  0.00000000000E+00 0. -1.
         -2    1    5    5    0  503  0.22477855388E+02 -0.87208423062E+02 -0.15844213223E+03  0.18224838080E+03  0.00000000000E+00 0.  1.
         -1    1    6    6    0  502  0.96510912223E+02  0.29176573078E+03  0.29586832790E+03  0.42659074684E+03  0.00000000000E+00 0.  1.
<mgrwt>
<rscale>  0 0.15067260E+04</rscale>
<asrwt>0</asrwt>
<pdfrwt beam="1">  1        1 0.10980175E+00 0.15067260E+04</pdfrwt>
<pdfrwt beam="2">  1       -1 0.12234116E+00 0.15067260E+04</pdfrwt>
<totfact> 0.15099026E+01</totfact>
</mgrwt>
</event>
<event>
12    1  0.1755460E-007  0.1143937E+04  0.7818608E-02  0.9163396E-01
         -2   -1    0    0    0  501 -0.00000000000E+00  0.00000000000E+00  0.14860835614E+03  0.14860835614E+03  0.00000000000E+00 0. -1.
          2   -1    0    0  501    0  0.00000000000E+00 -0.00000000000E+00 -0.22014087735E+04  0.22014087735E+04  0.00000000000E+00 0.  1.
         23    2    1    2    0    0  0.16074675487E+03  0.10870563962E+03 -0.38638524505E+03  0.44181630850E+03  0.90838634830E+02 0.  0.
        254    2    1    2    0    0 -0.16074675487E+03 -0.10870563962E+03 -0.16664151723E+04  0.19082008212E+04  0.90919437528E+03 0.  0.
        -24    2    4    4    0    0 -0.12958588492E+03 -0.46453950781E+03 -0.13055550836E+04  0.13941692703E+04  0.81513324541E+02 0.  0.
         24    2    4    4    0    0 -0.31160869950E+02  0.35583386819E+03 -0.36086008871E+03  0.51403155083E+03  0.80122968371E+02 0.  0.
         13    1    3    3    0    0  0.59422597133E+02  0.34169232073E+02 -0.56725875882E+02  0.88974189881E+02  0.00000000000E+00 0. -1.
        -13    1    3    3    0    0  0.10132415774E+03  0.74536407547E+02 -0.32965936917E+03  0.35284211862E+03  0.00000000000E+00 0.  1.
          2    1    6    6  502    0 -0.13978131295E+01  0.59257337025E+00 -0.22444748634E+02  0.22496038895E+02  0.00000000000E+00 0. -1.
          1    1    5    5  503    0 -0.96601228101E+02 -0.26707227734E+03 -0.86053040096E+03  0.90618539470E+03  0.00000000000E+00 0. -1.
         -2    1    5    5    0  503 -0.32984656821E+02 -0.19746723048E+03 -0.44502468265E+03  0.48798387562E+03  0.00000000000E+00 0.  1.
         -1    1    6    6    0  502 -0.29763056821E+02  0.35524129482E+03 -0.33841534007E+03  0.49153551194E+03  0.00000000000E+00 0.  1.
<mgrwt>
<rscale>  0 0.11439366E+04</rscale>
<asrwt>0</asrwt>
<pdfrwt beam="1">  1        2 0.33867827E+00 0.11439366E+04</pdfrwt>
<pdfrwt beam="2">  1       -2 0.22862824E-01 0.11439366E+04</pdfrwt>
<totfact> 0.86353129E+01</totfact>
</mgrwt>
</event>
<event>
12    1  0.1755460E-007  0.3213386E+04  0.7818608E-02  0.8185291E-01
         -1   -1    0    0    0  501 -0.00000000000E+00  0.00000000000E+00  0.91240090980E+03  0.91240090980E+03  0.00000000000E+00 0.  1.
          1   -1    0    0  501    0  0.00000000000E+00 -0.00000000000E+00 -0.28293074012E+04  0.28293074012E+04  0.00000000000E+00 0. -1.
         23    2    1    2    0    0  0.53340564474E+03  0.45714141302E+03  0.63070892114E+03  0.94851687913E+03  0.91600619282E+02 0.  0.
        254    2    1    2    0    0 -0.53340564474E+03 -0.45714141302E+03 -0.25476154125E+04  0.27931914319E+04  0.90447456103E+03 0.  0.
        -24    2    4    4    0    0 -0.70862091941E+03 -0.20793025440E+03 -0.12177447488E+04  0.14264346974E+04  0.80218916935E+02 0.  0.
         24    2    4    4    0    0  0.17521527466E+03 -0.24921115862E+03 -0.13298706637E+04  0.13667567345E+04  0.81617368703E+02 0.  0.
         11    1    3    3    0    0  0.37802525387E+03  0.27321788137E+03  0.44228636813E+03  0.64278171621E+03  0.00000000000E+00 0.  1.
        -11    1    3    3    0    0  0.15538039088E+03  0.18392353166E+03  0.18842255300E+03  0.30573516292E+03  0.00000000000E+00 0. -1.
          4    1    6    6  502    0 -0.80201715932E+01 -0.20464632043E+02 -0.10960572489E+03  0.11178792084E+03  0.00000000000E+00 0. -1.
          1    1    5    5  503    0 -0.38538805035E+02 -0.31885930269E+02 -0.82450299730E+02  0.96436528184E+02  0.00000000000E+00 0. -1.
         -2    1    5    5    0  503 -0.67008211437E+03 -0.17604432413E+03 -0.11352944491E+04  0.13299981692E+04  0.00000000000E+00 0.  1.
         -3    1    6    6    0  502  0.18323544626E+03 -0.22874652658E+03 -0.12202649388E+04  0.12549688136E+04  0.00000000000E+00 0.  1.
<mgrwt>
<rscale>  0 0.32133862E+04</rscale>
<asrwt>0</asrwt>
<pdfrwt beam="1">  1        1 0.43527806E+00 0.32133862E+04</pdfrwt>
<pdfrwt beam="2">  1       -1 0.14036937E+00 0.32133862E+04</pdfrwt>
<totfact> 0.27608934E-01</totfact>
</mgrwt>
</event>
<event>
12    1  0.1755460E-007  0.1586330E+04  0.7818608E-02  0.8828990E-01
         -2   -1    0    0    0  501 -0.00000000000E+00  0.00000000000E+00  0.41819239949E+03  0.41819239949E+03  0.00000000000E+00 0.  1.
          2   -1    0    0  501    0  0.00000000000E+00 -0.00000000000E+00 -0.15043572089E+04  0.15043572089E+04  0.00000000000E+00 0. -1.
         23    2    1    2    0    0  0.15791076378E+01 -0.14635807240E+03 -0.97079684628E+03  0.98602109069E+03  0.91476202471E+02 0.  0.
        254    2    1    2    0    0 -0.15791076378E+01  0.14635807240E+03 -0.11536796313E+03  0.93652851769E+03  0.91779775473E+03 0.  0.
        -24    2    4    4    0    0  0.21606488587E+03 -0.35691062807E+01  0.33585897728E+03  0.40747438922E+03  0.80853891824E+02 0.  0.
         24    2    4    4    0    0 -0.21764399351E+03  0.14992717868E+03 -0.45122694040E+03  0.52905412847E+03  0.80283574190E+02 0.  0.
         11    1    3    3    0    0  0.40252333974E+01 -0.13193748301E+03 -0.95650930362E+03  0.96557431089E+03  0.00000000000E+00 0. -1.
        -11    1    3    3    0    0 -0.24461257596E+01 -0.14420589384E+02 -0.14287542651E+02  0.20446779806E+02  0.00000000000E+00 0.  1.
          2    1    6    6  502    0 -0.16649361121E+02 -0.71235126632E+01 -0.54237430385E+02  0.57180805461E+02  0.00000000000E+00 0. -1.
          1    1    5    5  503    0  0.63250413598E+02  0.11550641664E+02  0.16844858941E+03  0.18030241102E+03  0.00000000000E+00 0. -1.
         -2    1    5    5    0  503  0.15281447228E+03 -0.15119747944E+02  0.16741038786E+03  0.22717197820E+03  0.00000000000E+00 0.  1.
         -1    1    6    6    0  502 -0.20099463239E+03  0.15705069134E+03 -0.39698951002E+03  0.47187332301E+03  0.00000000000E+00 0.  1.
<mgrwt>
<rscale>  0 0.15863300E+04</rscale>
<asrwt>0</asrwt>
<pdfrwt beam="1">  1        2 0.23143957E+00 0.15863300E+04</pdfrwt>
<pdfrwt beam="2">  1       -2 0.64337292E-01 0.15863300E+04</pdfrwt>
<totfact> 0.27038285E+01</totfact>
</mgrwt>
</event>
<event>
12    1  0.1755460E-007  0.1410735E+04  0.7818608E-02  0.8946085E-01
          1   -1    0    0  501    0  0.00000000000E+00  0.00000000000E+00  0.14163976698E+04  0.14163976698E+04  0.00000000000E+00 0. -1.
         -1   -1    0    0    0  501 -0.00000000000E+00 -0.00000000000E+00 -0.35127355663E+03  0.35127355663E+03  0.00000000000E+00 0.  1.
         23    2    1    2    0    0 -0.26586949508E+03 -0.31150770990E+03  0.38132011597E+03  0.56644008252E+03  0.87895929966E+02 0.  0.
        254    2    1    2    0    0  0.26586949508E+03  0.31150770990E+03  0.68380399717E+03  0.12012311439E+04  0.89869055451E+03 0.  0.
        -24    2    4    4    0    0  0.35758943423E+03  0.53164449780E+03  0.69591688907E+03  0.94936845689E+03  0.80523753919E+02 0.  0.
         24    2    4    4    0    0 -0.91719939149E+02 -0.22013678790E+03 -0.12112891898E+02  0.25186268700E+03  0.80095807165E+02 0.  0.
         11    1    3    3    0    0 -0.11147227484E+03 -0.93318070817E+02  0.89548076629E+02  0.17074304796E+03  0.00000000000E+00 0.  1.
        -11    1    3    3    0    0 -0.15439722024E+03 -0.21818963908E+03  0.29177203934E+03  0.39569703456E+03  0.00000000000E+00 0. -1.
          4    1    6    6  502    0  0.12099695869E+02 -0.55391164475E+02  0.83005947096E+00  0.56703375038E+02  0.00000000000E+00 0. -1.
          3    1    5    5  503    0  0.86606910550E+02  0.15155480684E+03  0.24090543985E+03  0.29749797879E+03  0.00000000000E+00 0. -1.
         -4    1    5    5    0  503  0.27098252368E+03  0.38008969096E+03  0.45501144922E+03  0.65187047811E+03  0.00000000000E+00 0.  1.
         -3    1    6    6    0  502 -0.10381963502E+03 -0.16474562343E+03 -0.12942951369E+02  0.19515931196E+03  0.00000000000E+00 0.  1.
<mgrwt>
<rscale>  0 0.14107346E+04</rscale>
<asrwt>0</asrwt>
<pdfrwt beam="1">  1        1 0.21790733E+00 0.14107346E+04</pdfrwt>
<pdfrwt beam="2">  1       -1 0.54042086E-01 0.14107346E+04</pdfrwt>
<totfact> 0.25195475E+01</totfact>
</mgrwt>
</event>
<event>
12    1  0.1755460E-007  0.1486221E+04  0.7818608E-02  0.8893668E-01
          1   -1    0    0  501    0  0.00000000000E+00  0.00000000000E+00  0.14018846507E+04  0.14018846507E+04  0.00000000000E+00 0. -1.
         -1   -1    0    0    0  501 -0.00000000000E+00 -0.00000000000E+00 -0.39390757881E+03  0.39390757881E+03  0.00000000000E+00 0.  1.
         23    2    1    2    0    0 -0.24313867230E+03  0.83890063831E+01 -0.15828205715E+03  0.30446155272E+03  0.91961068247E+02 0.  0.
        254    2    1    2    0    0  0.24313867230E+03 -0.83890063831E+01  0.11662591290E+04  0.14913306768E+04  0.89706189421E+03 0.  0.
        -24    2    4    4    0    0  0.44887922848E+03  0.26722783346E+03  0.91929887683E+03  0.10604657128E+04  0.81079136368E+02 0.  0.
         24    2    4    4    0    0 -0.20574055618E+03 -0.27561683984E+03  0.24696025220E+03  0.43086496397E+03  0.79758586683E+02 0.  0.
         13    1    3    3    0    0 -0.68105888344E+02  0.28981143575E+02 -0.11093616882E+02  0.74842414750E+02  0.00000000000E+00 0. -1.
        -13    1    3    3    0    0 -0.17503278396E+03 -0.20592137192E+02 -0.14718844027E+03  0.22961913797E+03  0.00000000000E+00 0.  1.
          2    1    6    6  502    0 -0.52144972830E+02 -0.94224398052E+02  0.12057776438E+03  0.16166735182E+03  0.00000000000E+00 0. -1.
          3    1    5    5  503    0  0.20451396031E+02  0.72912685308E+01  0.14326201186E+02  0.26012732206E+02  0.00000000000E+00 0. -1.
         -4    1    5    5    0  503  0.42842783245E+03  0.25993656493E+03  0.90497267564E+03  0.10344529806E+04  0.00000000000E+00 0.  1.
         -1    1    6    6    0  502 -0.15359558335E+03 -0.18139244179E+03  0.12638248782E+03  0.26919761216E+03  0.00000000000E+00 0.  1.
<mgrwt>
<rscale>  0 0.14862207E+04</rscale>
<asrwt>0</asrwt>
<pdfrwt beam="1">  1        1 0.21567456E+00 0.14862207E+04</pdfrwt>
<pdfrwt beam="2">  1       -1 0.60601167E-01 0.14862207E+04</pdfrwt>
<totfact> 0.20481339E+01</totfact>
</mgrwt>
</event>
<event>
12    1  0.1755460E-007  0.1913337E+04  0.7818608E-02  0.8648246E-01
          2   -1    0    0  501    0  0.00000000000E+00  0.00000000000E+00  0.26181607965E+04  0.26181607965E+04  0.00000000000E+00 0. -1.
         -2   -1    0    0    0  501 -0.00000000000E+00 -0.00000000000E+00 -0.34956402638E+03  0.34956402638E+03  0.00000000000E+00 0.  1.
         23    2    1    2    0    0 -0.14944026536E+03  0.31736103009E+03  0.19060240967E+04  0.19401530335E+04  0.90639506623E+02 0.  0.
        254    2    1    2    0    0  0.14944026536E+03 -0.31736103009E+03  0.36257267348E+03  0.10275717894E+04  0.89520635744E+03 0.  0.
        -24    2    4    4    0    0 -0.31573405062E+03 -0.16697547668E+03 -0.66187877016E+02  0.37226355685E+03  0.81428006025E+02 0.  0.
         24    2    4    4    0    0  0.46517431598E+03 -0.15038555341E+03  0.42876055049E+03  0.65530823251E+03  0.81180730541E+02 0.  0.
         11    1    3    3    0    0 -0.12945188671E+03  0.30589259507E+03  0.16504371228E+04  0.16835292593E+04  0.00000000000E+00 0. -1.
        -11    1    3    3    0    0 -0.19988378659E+02  0.11468435023E+02  0.25558697388E+03  0.25662377423E+03  0.00000000000E+00 0.  1.
          2    1    6    6  502    0  0.25037540281E+03 -0.60328654948E+02  0.27183776683E+03  0.37446383058E+03  0.00000000000E+00 0. -1.
          3    1    5    5  503    0 -0.24163767667E+03 -0.10367548620E+03 -0.77581442308E+02  0.27414640872E+03  0.00000000000E+00 0. -1.
         -4    1    5    5    0  503 -0.74096373949E+02 -0.63299990483E+02  0.11393565292E+02  0.98117148132E+02  0.00000000000E+00 0.  1.
         -1    1    6    6    0  502  0.21479891317E+03 -0.90056898467E+02  0.15692278367E+03  0.28084440193E+03  0.00000000000E+00 0.  1.
<mgrwt>
<rscale>  0 0.19133372E+04</rscale>
<asrwt>0</asrwt>
<pdfrwt beam="1">  1        2 0.40279396E+00 0.19133372E+04</pdfrwt>
<pdfrwt beam="2">  1       -2 0.53779083E-01 0.19133372E+04</pdfrwt>
<totfact> 0.90594824E+00</totfact>
</mgrwt>
</event>
<event>
12    1  0.1755460E-007  0.2238002E+04  0.7818608E-02  0.8502775E-01
          1   -1    0    0  501    0  0.00000000000E+00  0.00000000000E+00  0.92345809787E+03  0.92345809787E+03  0.00000000000E+00 0. -1.
         -1   -1    0    0    0  501 -0.00000000000E+00 -0.00000000000E+00 -0.13559506973E+04  0.13559506973E+04  0.00000000000E+00 0.  1.
         23    2    1    2    0    0 -0.54864695265E+03 -0.69732900127E+03 -0.47885525265E+03  0.10124032192E+04  0.91524371286E+02 0.  0.
        254    2    1    2    0    0  0.54864695265E+03  0.69732900127E+03  0.46362653175E+02  0.12670055760E+04  0.90325656347E+03 0.  0.
        -24    2    4    4    0    0  0.68798433195E+03  0.31957068535E+03 -0.19964636116E+03  0.78840800083E+03  0.79250503560E+02 0.  0.
         24    2    4    4    0    0 -0.13933737930E+03  0.37775831592E+03  0.24600901434E+03  0.47859757521E+03  0.80118370808E+02 0.  0.
         13    1    3    3    0    0 -0.36700364698E+03 -0.41613795401E+03 -0.26249605294E+03  0.61381320569E+03  0.00000000000E+00 0.  1.
        -13    1    3    3    0    0 -0.18164330567E+03 -0.28119104726E+03 -0.21635919971E+03  0.39859001349E+03  0.00000000000E+00 0. -1.
          2    1    6    6  502    0 -0.12243655684E+03  0.36389431342E+03  0.21317014718E+03  0.43914837292E+03  0.00000000000E+00 0. -1.
          3    1    5    5  503    0  0.67082426071E+03  0.31837356975E+03 -0.20512886723E+03  0.77035366609E+03  0.00000000000E+00 0. -1.
         -4    1    5    5    0  503  0.17160071232E+02  0.11971155960E+01  0.54825060661E+01  0.18054334748E+02  0.00000000000E+00 0.  1.
         -1    1    6    6    0  502 -0.16900822456E+02  0.13864002506E+02  0.32838867154E+02  0.39449202287E+02  0.00000000000E+00 0.  1.
<mgrwt>
<rscale>  0 0.22380024E+04</rscale>
<asrwt>0</asrwt>
<pdfrwt beam="1">  1        1 0.14207048E+00 0.22380024E+04</pdfrwt>
<pdfrwt beam="2">  1       -1 0.20860780E+00 0.22380024E+04</pdfrwt>
<totfact> 0.20787932E+00</totfact>
</mgrwt>
</event>
<event>
12    1  0.1755460E-007  0.1989938E+04  0.7818608E-02  0.8611339E-01
          2   -1    0    0  501    0  0.00000000000E+00  0.00000000000E+00  0.75730139021E+03  0.75730139021E+03  0.00000000000E+00 0. -1.
         -2   -1    0    0    0  501 -0.00000000000E+00 -0.00000000000E+00 -0.13072250810E+04  0.13072250810E+04  0.00000000000E+00 0.  1.
         23    2    1    2    0    0  0.23811114582E+03 -0.93227114332E+02  0.55281117247E+03  0.61605907127E+03  0.92414145400E+02 0.  0.
        254    2    1    2    0    0 -0.23811114582E+03  0.93227114332E+02 -0.11027348633E+04  0.14484674000E+04  0.90368435721E+03 0.  0.
        -24    2    4    4    0    0 -0.36616193490E+03  0.11675965100E+03 -0.12032071771E+04  0.12655391229E+04  0.78577233921E+02 0.  0.
         24    2    4    4    0    0  0.12805078907E+03 -0.23532536669E+02  0.10047231388E+03  0.18292827710E+03  0.80107951172E+02 0.  0.
         11    1    3    3    0    0  0.19801797690E+03 -0.48152037891E+02  0.35591077295E+03  0.41012463499E+03  0.00000000000E+00 0. -1.
        -11    1    3    3    0    0  0.40093168921E+02 -0.45075076442E+02  0.19690039952E+03  0.20593443627E+03  0.00000000000E+00 0.  1.
          2    1    6    6  502    0  0.36862944500E+02 -0.98975610214E+01 -0.95847329951E+01  0.39353595744E+02  0.00000000000E+00 0. -1.
          1    1    5    5  503    0 -0.23302046013E+02  0.11073594321E+02 -0.16691316232E+03  0.16889527404E+03  0.00000000000E+00 0. -1.
         -2    1    5    5    0  503 -0.34285988888E+03  0.10568605668E+03 -0.10362940148E+04  0.10966438488E+04  0.00000000000E+00 0.  1.
         -1    1    6    6    0  502  0.91187844572E+02 -0.13634975648E+02  0.11005704688E+03  0.14357468135E+03  0.00000000000E+00 0.  1.
<mgrwt>
<rscale>  0 0.19899381E+04</rscale>
<asrwt>0</asrwt>
<pdfrwt beam="1">  1        2 0.11650791E+00 0.19899381E+04</pdfrwt>
<pdfrwt beam="2">  1       -2 0.20111155E+00 0.19899381E+04</pdfrwt>
<totfact> 0.45004510E+00</totfact>
</mgrwt>
</event>
<event>
12    1  0.1755460E-007  0.1662759E+04  0.7818608E-02  0.8782894E-01
         -4   -1    0    0    0  501 -0.00000000000E+00  0.00000000000E+00  0.13183771200E+04  0.13183771200E+04  0.00000000000E+00 0.  1.
          4   -1    0    0  501    0  0.00000000000E+00 -0.00000000000E+00 -0.52427456814E+03  0.52427456814E+03  0.00000000000E+00 0. -1.
         23    2    1    2    0    0 -0.25145860787E+02  0.54265351717E+02 -0.35242948204E+03  0.37267263384E+03  0.10536275189E+03 0.  0.
        254    2    1    2    0    0  0.25145860787E+02 -0.54265351717E+02  0.11465320339E+04  0.14699790543E+04  0.91800091102E+03 0.  0.
        -24    2    4    4    0    0 -0.21933474653E+02  0.41501892856E+03  0.39964287047E+03  0.58236980305E+03  0.81965695365E+02 0.  0.
         24    2    4    4    0    0  0.47079335439E+02 -0.46928428028E+03  0.74688916344E+03  0.88760925126E+03  0.86962985933E+02 0.  0.
         11    1    3    3    0    0 -0.56181663541E+02  0.48532143917E+01 -0.23332736486E+03  0.24004497954E+03  0.00000000000E+00 0.  1.
        -11    1    3    3    0    0  0.31035802755E+02  0.49412137325E+02 -0.11910211718E+03  0.13262765430E+03  0.00000000000E+00 0. -1.
          2    1    6    6  502    0  0.15542337512E+02 -0.42091598195E+03  0.67110394369E+03  0.79233347231E+03  0.00000000000E+00 0. -1.
          1    1    5    5  503    0 -0.24541594149E+02  0.24415056814E+03  0.18124168015E+03  0.30505792301E+03  0.00000000000E+00 0. -1.
         -2    1    5    5    0  503  0.26081194966E+01  0.17086836042E+03  0.21840119033E+03  0.27731188005E+03  0.00000000000E+00 0.  1.
         -1    1    6    6    0  502  0.31536997927E+02 -0.48368298324E+02  0.75785219750E+02  0.95275778945E+02  0.00000000000E+00 0.  1.
<mgrwt>
<rscale>  0 0.16627587E+04</rscale>
<asrwt>0</asrwt>
<pdfrwt beam="1">  1        4 0.80657626E-01 0.16627587E+04</pdfrwt>
<pdfrwt beam="2">  1       -4 0.20282725E+00 0.16627587E+04</pdfrwt>
<totfact> 0.32778131E-01</totfact>
</mgrwt>
</event>
<event>
12    1  0.1755460E-007  0.1583873E+04  0.7818608E-02  0.8830517E-01
          1   -1    0    0  501    0  0.00000000000E+00  0.00000000000E+00  0.14877889219E+04  0.14877889219E+04  0.00000000000E+00 0. -1.
         -1   -1    0    0    0  501 -0.00000000000E+00 -0.00000000000E+00 -0.42154067687E+03  0.42154067687E+03  0.00000000000E+00 0.  1.
         23    2    1    2    0    0 -0.16168741194E+03 -0.71729183380E+02  0.97347238830E+03  0.99360939964E+03  0.91231865837E+02 0.  0.
        254    2    1    2    0    0  0.16168741194E+03  0.71729183380E+02  0.92775856686E+02  0.91572019908E+03  0.89367120827E+03 0.  0.
        -24    2    4    4    0    0  0.18811060991E+03  0.40302574677E+03 -0.17189041299E+03  0.48341456883E+03  0.79548583681E+02 0.  0.
         24    2    4    4    0    0 -0.26423197974E+02 -0.33129656339E+03  0.26466626968E+03  0.43230563024E+03  0.79901973276E+02 0.  0.
         11    1    3    3    0    0 -0.57133526354E+02 -0.70815693426E+02  0.54638994051E+03  0.55391431590E+03  0.00000000000E+00 0.  1.
        -11    1    3    3    0    0 -0.10455388559E+03 -0.91348995360E+00  0.42708244779E+03  0.43969508374E+03  0.00000000000E+00 0. -1.
          2    1    6    6  502    0 -0.39407695669E+02 -0.89594711475E+02  0.97406428575E+02  0.13808762120E+03  0.00000000000E+00 0. -1.
          3    1    5    5  503    0  0.10158976922E+03  0.20201602662E+03 -0.45352157991E+02  0.23062474814E+03  0.00000000000E+00 0. -1.
         -4    1    5    5    0  503  0.86520840696E+02  0.20100972014E+03 -0.12653825500E+03  0.25278982069E+03  0.00000000000E+00 0.  1.
         -1    1    6    6    0  502  0.12984497695E+02 -0.24170185191E+03  0.16725984110E+03  0.29421800904E+03  0.00000000000E+00 0.  1.
<mgrwt>
<rscale>  0 0.15838732E+04</rscale>
<asrwt>0</asrwt>
<pdfrwt beam="1">  1        1 0.22889060E+00 0.15838732E+04</pdfrwt>
<pdfrwt beam="2">  1       -1 0.64852412E-01 0.15838732E+04</pdfrwt>
<totfact> 0.15449963E+01</totfact>
</mgrwt>
</event>
<event>
12    1  0.1755460E-007  0.2785039E+04  0.7818608E-02  0.8307928E-01
          1   -1    0    0  501    0  0.00000000000E+00  0.00000000000E+00  0.16289119263E+04  0.16289119263E+04  0.00000000000E+00 0. -1.
         -1   -1    0    0    0  501 -0.00000000000E+00 -0.00000000000E+00 -0.11904334460E+04  0.11904334460E+04  0.00000000000E+00 0.  1.
         23    2    1    2    0    0 -0.86972201354E+03 -0.84030115319E+03  0.55163621516E+02  0.12140404732E+04  0.91262459572E+02 0.  0.
        254    2    1    2    0    0  0.86972201354E+03  0.84030115319E+03  0.38331485882E+03  0.16053048992E+04  0.98364176883E+03 0.  0.
        -24    2    4    4    0    0  0.89875298373E+03  0.99715510174E+03  0.43780670572E+03  0.14143148716E+04  0.80849376106E+02 0.  0.
         24    2    4    4    0    0 -0.29030970195E+02 -0.15685394855E+03 -0.54491846903E+02  0.19099002761E+03  0.89787921566E+02 0.  0.
         13    1    3    3    0    0 -0.33821648038E+03 -0.33412077375E+03  0.66032009047E+02  0.47998677614E+03  0.00000000000E+00 0.  1.
        -13    1    3    3    0    0 -0.53150553316E+03 -0.50618037944E+03 -0.10868387531E+02  0.73405369705E+03  0.00000000000E+00 0. -1.
          2    1    6    6  502    0  0.88455455407E+01 -0.64925663135E+02 -0.63386939656E+02  0.91167370963E+02  0.00000000000E+00 0. -1.
          1    1    5    5  503    0  0.56112413784E+03  0.57325171553E+03  0.28435236655E+03  0.85107819605E+03  0.00000000000E+00 0. -1.
         -2    1    5    5    0  503  0.33762884589E+03  0.42390338622E+03  0.15345433917E+03  0.56323667550E+03  0.00000000000E+00 0.  1.
         -1    1    6    6    0  502 -0.37876515736E+02 -0.91928285418E+02  0.88950927530E+01  0.99822656642E+02  0.00000000000E+00 0.  1.
<mgrwt>
<rscale>  0 0.27850395E+04</rscale>
<asrwt>0</asrwt>
<pdfrwt beam="1">  1        1 0.25060184E+00 0.27850395E+04</pdfrwt>
<pdfrwt beam="2">  1       -1 0.18314361E+00 0.27850395E+04</pdfrwt>
<totfact> 0.91311834E-01</totfact>
</mgrwt>
</event>
<event>
12    1  0.1755460E-007  0.1160964E+04  0.7818608E-02  0.9147728E-01
          2   -1    0    0  501    0  0.00000000000E+00  0.00000000000E+00  0.61452462674E+03  0.61452462674E+03  0.00000000000E+00 0. -1.
         -2   -1    0    0    0  501 -0.00000000000E+00 -0.00000000000E+00 -0.54832563447E+03  0.54832563447E+03  0.00000000000E+00 0.  1.
         23    2    1    2    0    0 -0.10293970814E+03  0.17916604604E+03  0.85565905885E+02  0.24145633227E+03  0.91008684086E+02 0.  0.
        254    2    1    2    0    0  0.10293970814E+03 -0.17916604604E+03 -0.19366913614E+02  0.92139392894E+03  0.89771634684E+03 0.  0.
        -24    2    4    4    0    0 -0.48818962496E+02  0.31936464368E+03  0.15226343031E+03  0.36640135252E+03  0.81784669624E+02 0.  0.
         24    2    4    4    0    0  0.15175867064E+03 -0.49853068972E+03 -0.17163034393E+03  0.55499257642E+03  0.83643542653E+02 0.  0.
         13    1    3    3    0    0 -0.43704716369E+01 -0.64329284058E+01 -0.82313018456E+01  0.11324218308E+02  0.00000000000E+00 0. -1.
        -13    1    3    3    0    0 -0.98569236503E+02  0.18559897444E+03  0.93797207730E+02  0.23013211396E+03  0.00000000000E+00 0.  1.
          4    1    6    6  502    0  0.13743343058E+03 -0.47503055046E+03 -0.14187687737E+03  0.51446187424E+03  0.00000000000E+00 0. -1.
          3    1    5    5  503    0 -0.33425195573E+02  0.27103793115E+03  0.93217077542E+02  0.28856234572E+03  0.00000000000E+00 0. -1.
         -4    1    5    5    0  503 -0.15393766923E+02  0.48326712526E+02  0.59046352771E+02  0.77839006798E+02  0.00000000000E+00 0.  1.
         -3    1    6    6    0  502  0.14325240059E+02 -0.23500139257E+02 -0.29753466554E+02  0.40530702188E+02  0.00000000000E+00 0.  1.
<mgrwt>
<rscale>  0 0.11609644E+04</rscale>
<asrwt>0</asrwt>
<pdfrwt beam="1">  1        2 0.94542250E-01 0.11609644E+04</pdfrwt>
<pdfrwt beam="2">  1       -2 0.84357790E-01 0.11609644E+04</pdfrwt>
<totfact> 0.58449898E+01</totfact>
</mgrwt>
</event>
<event>
12    1  0.1755460E-007  0.1253435E+04  0.7818608E-02  0.9067329E-01
          2   -1    0    0  501    0  0.00000000000E+00  0.00000000000E+00  0.16171544398E+04  0.16171544398E+04  0.00000000000E+00 0. -1.
         -2   -1    0    0    0  501 -0.00000000000E+00 -0.00000000000E+00 -0.24288035083E+03  0.24288035083E+03  0.00000000000E+00 0.  1.
         23    2    1    2    0    0  0.36523200866E+02 -0.24333568785E+03  0.96837082281E+02  0.28185341880E+03  0.97558843801E+02 0.  0.
        254    2    1    2    0    0 -0.36523200866E+02  0.24333568785E+03  0.12774370067E+04  0.15781813718E+04  0.89345673378E+03 0.  0.
        -24    2    4    4    0    0 -0.43303790907E+03  0.13436137268E+03  0.42063132852E+03  0.62435215189E+03  0.85499040248E+02 0.  0.
         24    2    4    4    0    0  0.39651470820E+03  0.10897431517E+03  0.85680567814E+03  0.95382921991E+03  0.81085729158E+02 0.  0.
         13    1    3    3    0    0  0.60562513065E+02 -0.22795286641E+03  0.82162151263E+02  0.24976177928E+03  0.00000000000E+00 0.  1.
        -13    1    3    3    0    0 -0.24039312199E+02 -0.15382821442E+02  0.14674931018E+02  0.32091639517E+02  0.00000000000E+00 0. -1.
          4    1    6    6  502    0  0.39945449849E+03  0.11047697764E+03  0.85477724434E+03  0.94995431279E+03  0.00000000000E+00 0. -1.
          1    1    5    5  503    0 -0.18870888963E+03  0.80188649145E+02  0.13965487432E+03  0.24808214042E+03  0.00000000000E+00 0. -1.
         -2    1    5    5    0  503 -0.24432901944E+03  0.54172723537E+02  0.28097645420E+03  0.37627001147E+03  0.00000000000E+00 0.  1.
         -3    1    6    6    0  502 -0.29397902925E+01 -0.15026624730E+01  0.20284338025E+01  0.38749071167E+01  0.00000000000E+00 0.  1.
<mgrwt>
<rscale>  0 0.12534353E+04</rscale>
<asrwt>0</asrwt>
<pdfrwt beam="1">  1        2 0.24879298E+00 0.12534353E+04</pdfrwt>
<pdfrwt beam="2">  1       -2 0.37366209E-01 0.12534353E+04</pdfrwt>
<totfact> 0.72413706E+01</totfact>
</mgrwt>
</event>
<event>
12    1  0.1755460E-007  0.2187585E+04  0.7818608E-02  0.8523613E-01
         -2   -1    0    0    0  501 -0.00000000000E+00  0.00000000000E+00  0.31514509401E+03  0.31514509401E+03  0.00000000000E+00 0. -1.
          2   -1    0    0  501    0  0.00000000000E+00 -0.00000000000E+00 -0.37962902569E+04  0.37962902569E+04  0.00000000000E+00 0.  1.
         23    2    1    2    0    0 -0.13541109345E+03 -0.68654910598E+03 -0.25022321407E+04  0.25996044609E+04  0.84212992312E+02 0.  0.
        254    2    1    2    0    0  0.13541109345E+03  0.68654910598E+03 -0.97891302214E+03  0.15118308900E+04  0.91524646722E+03 0.  0.
        -24    2    4    4    0    0 -0.36466800872E+03  0.20810384268E+03 -0.53860080931E+03  0.68766982246E+03  0.80678293297E+02 0.  0.
         24    2    4    4    0    0  0.50007910217E+03  0.47844526329E+03 -0.44031221283E+03  0.82416106750E+03  0.79860140312E+02 0.  0.
         13    1    3    3    0    0 -0.39192849422E+02 -0.67394157658E+02 -0.30048458599E+03  0.31043362954E+03  0.00000000000E+00 0. -1.
        -13    1    3    3    0    0 -0.96218244032E+02 -0.61915494832E+03 -0.22017475547E+04  0.22891708314E+04  0.00000000000E+00 0.  1.
          2    1    6    6  502    0  0.49077392240E+03  0.44699531882E+03 -0.41726021997E+03  0.78407266827E+03  0.00000000000E+00 0. -1.
          1    1    5    5  503    0 -0.21192270528E+03  0.15140292723E+03 -0.37677004444E+03  0.45802810588E+03  0.00000000000E+00 0. -1.
         -2    1    5    5    0  503 -0.15274530344E+03  0.56700915457E+02 -0.16183076487E+03  0.22964171658E+03  0.00000000000E+00 0.  1.
         -1    1    6    6    0  502  0.93051797766E+01  0.31449944473E+02 -0.23051992858E+02  0.40088399229E+02  0.00000000000E+00 0.  1.
<mgrwt>
<rscale>  0 0.21875852E+04</rscale>
<asrwt>0</asrwt>
<pdfrwt beam="1">  1        2 0.58404466E+00 0.21875852E+04</pdfrwt>
<pdfrwt beam="2">  1       -2 0.48483860E-01 0.21875852E+04</pdfrwt>
<totfact> 0.18327703E+00</totfact>
</mgrwt>
</event>
<event>
12    1  0.1755460E-007  0.1399421E+04  0.7818608E-02  0.8954237E-01
         -1   -1    0    0    0  501 -0.00000000000E+00  0.00000000000E+00  0.29871569772E+03  0.29871569772E+03  0.00000000000E+00 0.  1.
          1   -1    0    0  501    0  0.00000000000E+00 -0.00000000000E+00 -0.16390000559E+04  0.16390000559E+04  0.00000000000E+00 0. -1.
         23    2    1    2    0    0  0.82876073274E+02 -0.12789781399E+01  0.14645600161E+03  0.19524694835E+03  0.99004702553E+02 0.  0.
        254    2    1    2    0    0 -0.82876073274E+02  0.12789781399E+01 -0.14867403598E+04  0.17424688053E+04  0.90494782203E+03 0.  0.
        -24    2    4    4    0    0 -0.16583221409E+03 -0.42664558603E+03 -0.81397761570E+03  0.93691491302E+03  0.75651940246E+02 0.  0.
         24    2    4    4    0    0  0.82956140814E+02  0.42792456417E+03 -0.67276274409E+03  0.80555389226E+03  0.79411646358E+02 0.  0.
         13    1    3    3    0    0 -0.10568415035E+02  0.18710543065E+02  0.13876375077E+01  0.21533726012E+02  0.00000000000E+00 0. -1.
        -13    1    3    3    0    0  0.93444488309E+02 -0.19989521205E+02  0.14506836410E+03  0.17371322234E+03  0.00000000000E+00 0.  1.
          2    1    6    6  502    0  0.50718451678E+02  0.32569234336E+03 -0.44454489230E+03  0.55341487613E+03  0.00000000000E+00 0. -1.
          3    1    5    5  503    0 -0.82093918703E+02 -0.30519126373E+03 -0.57251397354E+03  0.65395211510E+03  0.00000000000E+00 0. -1.
         -4    1    5    5    0  503 -0.83738295385E+02 -0.12145432230E+03 -0.24146364216E+03  0.28296279792E+03  0.00000000000E+00 0.  1.
         -1    1    6    6    0  502  0.32237689136E+02  0.10223222081E+03 -0.22821785180E+03  0.25213901612E+03  0.00000000000E+00 0.  1.
<mgrwt>
<rscale>  0 0.13994214E+04</rscale>
<asrwt>0</asrwt>
<pdfrwt beam="1">  1        1 0.25215386E+00 0.13994214E+04</pdfrwt>
<pdfrwt beam="2">  1       -1 0.45956261E-01 0.13994214E+04</pdfrwt>
<totfact> 0.24088224E+01</totfact>
</mgrwt>
</event>
<event>
12    1  0.1755460E-007  0.1240997E+04  0.7818608E-02  0.9077710E-01
         -1   -1    0    0    0  501 -0.00000000000E+00  0.00000000000E+00  0.15931781057E+03  0.15931781057E+03  0.00000000000E+00 0.  1.
          1   -1    0    0  501    0  0.00000000000E+00 -0.00000000000E+00 -0.24166701137E+04  0.24166701137E+04  0.00000000000E+00 0. -1.
         23    2    1    2    0    0 -0.13348878270E+02  0.26103491801E+03 -0.95053940960E+03  0.98981048391E+03  0.88781776751E+02 0.  0.
        254    2    1    2    0    0  0.13348878270E+02 -0.26103491801E+03 -0.13068128936E+04  0.15861774404E+04  0.86016365456E+03 0.  0.
        -24    2    4    4    0    0 -0.30640180974E+03 -0.12002613924E+03 -0.13998649513E+03  0.36602306448E+03  0.78027698930E+02 0.  0.
         24    2    4    4    0    0  0.31975068801E+03 -0.14100877877E+03 -0.11668263984E+04  0.12201543759E+04  0.71894914819E+02 0.  0.
         13    1    3    3    0    0 -0.30527392025E+02  0.43674863734E+02 -0.26957096329E+03  0.27478704415E+03  0.00000000000E+00 0. -1.
        -13    1    3    3    0    0  0.17178513754E+02  0.21736005427E+03 -0.68096844632E+03  0.71502343976E+03  0.00000000000E+00 0.  1.
          2    1    6    6  502    0  0.63649199756E+02 -0.20664401479E+02 -0.33193464878E+03  0.33861312612E+03  0.00000000000E+00 0. -1.
          3    1    5    5  503    0 -0.53058050782E+01 -0.13918658107E-01 -0.19520326141E+02  0.20228566284E+02  0.00000000000E+00 0. -1.
         -4    1    5    5    0  503 -0.30109600467E+03 -0.12001222058E+03 -0.12046616899E+03  0.34579449820E+03  0.00000000000E+00 0.  1.
         -1    1    6    6    0  502  0.25610148826E+03 -0.12034437729E+03 -0.83489174965E+03  0.88154124978E+03  0.00000000000E+00 0.  1.
<mgrwt>
<rscale>  0 0.12409973E+04</rscale>
<asrwt>0</asrwt>
<pdfrwt beam="1">  1        1 0.37179541E+00 0.12409973E+04</pdfrwt>
<pdfrwt beam="2">  1       -1 0.24510432E-01 0.12409973E+04</pdfrwt>
<totfact> 0.22229330E+01</totfact>
</mgrwt>
</event>
<event>
12    1  0.1755460E-007  0.1806148E+04  0.7818608E-02  0.8703037E-01
          2   -1    0    0  501    0  0.00000000000E+00  0.00000000000E+00  0.69331087444E+03  0.69331087444E+03  0.00000000000E+00 0.  1.
         -2   -1    0    0    0  501 -0.00000000000E+00 -0.00000000000E+00 -0.11763019889E+04  0.11763019889E+04  0.00000000000E+00 0. -1.
         23    2    1    2    0    0  0.50830273918E+03 -0.13313274271E+03 -0.61255960097E+03  0.81213656036E+03  0.90777343552E+02 0.  0.
        254    2    1    2    0    0 -0.50830273918E+03  0.13313274271E+03  0.12956848648E+03  0.10574763030E+04  0.90849993775E+03 0.  0.
        -24    2    4    4    0    0 -0.32249028560E+03 -0.17724153766E+03  0.43574271665E+03  0.57657179260E+03  0.84550398736E+02 0.  0.
         24    2    4    4    0    0 -0.18581245357E+03  0.31037428037E+03 -0.30617423017E+03  0.48090451041E+03  0.81657988563E+02 0.  0.
         11    1    3    3    0    0  0.20468052961E+03 -0.81563127316E+02 -0.31074027551E+03  0.38092805327E+03  0.00000000000E+00 0. -1.
        -11    1    3    3    0    0  0.30362220956E+03 -0.51569615393E+02 -0.30181932545E+03  0.43120850709E+03  0.00000000000E+00 0.  1.
          2    1    6    6  502    0 -0.12217608193E+03  0.24761412694E+03 -0.19389358618E+03  0.33739364786E+03  0.00000000000E+00 0. -1.
          3    1    5    5  503    0 -0.28443155062E+03 -0.12973174456E+03  0.39306975194E+03  0.50223048735E+03  0.00000000000E+00 0. -1.
         -2    1    5    5    0  503 -0.38058734982E+02 -0.47509793097E+02  0.42672964709E+02  0.74341305245E+02  0.00000000000E+00 0.  1.
         -1    1    6    6    0  502 -0.63636371648E+02  0.62760153426E+02 -0.11228064399E+03  0.14351086255E+03  0.00000000000E+00 0.  1.
<mgrwt>
<rscale>  0 0.18061483E+04</rscale>
<asrwt>0</asrwt>
<pdfrwt beam="1">  1        2 0.10666321E+00 0.18061483E+04</pdfrwt>
<pdfrwt beam="2">  1       -2 0.18096954E+00 0.18061483E+04</pdfrwt>
<totfact> 0.69826789E+00</totfact>
</mgrwt>
</event>
<event>
12    1  0.1755460E-007  0.1349958E+04  0.7818608E-02  0.8990860E-01
         -2   -1    0    0    0  501 -0.00000000000E+00  0.00000000000E+00  0.82015517237E+03  0.82015517237E+03  0.00000000000E+00 0. -1.
          2   -1    0    0  501    0  0.00000000000E+00 -0.00000000000E+00 -0.55550037784E+03  0.55550037784E+03  0.00000000000E+00 0.  1.
         23    2    1    2    0    0 -0.26983462222E+03 -0.62433931569E+02  0.33734684201E+03  0.44669522615E+03  0.95000074167E+02 0.  0.
        254    2    1    2    0    0  0.26983462222E+03  0.62433931569E+02 -0.72692047473E+02  0.92896032406E+03  0.88372757723E+03 0.  0.
        -24    2    4    4    0    0  0.20833189218E+03 -0.38698201589E+03 -0.12899792063E+03  0.46513733076E+03  0.80963047272E+02 0.  0.
         24    2    4    4    0    0  0.61502730043E+02  0.44941594746E+03  0.56305873156E+02  0.46382299330E+03  0.78766351514E+02 0.  0.
         11    1    3    3    0    0 -0.13803617117E+03 -0.40820662690E+02  0.24555013621E+03  0.28463165749E+03  0.00000000000E+00 0. -1.
        -11    1    3    3    0    0 -0.13179845105E+03 -0.21613268879E+02  0.91796705797E+02  0.16206356865E+03  0.00000000000E+00 0.  1.
          4    1    6    6  502    0  0.43814922999E+02  0.13532719657E+03 -0.90063576356E+01  0.14252828522E+03  0.00000000000E+00 0. -1.
          3    1    5    5  503    0  0.99874937730E+01 -0.80224345216E+02 -0.33920022623E+02  0.87671338144E+02  0.00000000000E+00 0. -1.
         -4    1    5    5    0  503  0.19834439840E+03 -0.30675767067E+03 -0.95077898005E+02  0.37746599262E+03  0.00000000000E+00 0.  1.
         -3    1    6    6    0  502  0.17687807045E+02  0.31408875088E+03  0.65312230791E+02  0.32129470808E+03  0.00000000000E+00 0.  1.
<mgrwt>
<rscale>  0 0.13499578E+04</rscale>
<asrwt>0</asrwt>
<pdfrwt beam="1">  1        2 0.85461597E-01 0.13499578E+04</pdfrwt>
<pdfrwt beam="2">  1       -2 0.12617772E+00 0.13499578E+04</pdfrwt>
<totfact> 0.24876798E+01</totfact>
</mgrwt>
</event>
<event>
12    1  0.1755460E-007  0.2040404E+04  0.7818608E-02  0.8587960E-01
          2   -1    0    0  501    0  0.00000000000E+00  0.00000000000E+00  0.11258695047E+04  0.11258695047E+04  0.00000000000E+00 0.  1.
         -2   -1    0    0    0  501 -0.00000000000E+00 -0.00000000000E+00 -0.92445215818E+03  0.92445215818E+03  0.00000000000E+00 0. -1.
         23    2    1    2    0    0 -0.79822005433E+02  0.17153004315E+03 -0.71721676010E+03  0.74740601534E+03  0.91770161529E+02 0.  0.
        254    2    1    2    0    0  0.79822005433E+02 -0.17153004315E+03  0.91863410657E+03  0.13029156475E+04  0.90438180792E+03 0.  0.
        -24    2    4    4    0    0  0.27339392119E+03  0.29604027831E+03  0.43785295983E+03  0.60035803680E+03  0.79564284625E+02 0.  0.
         24    2    4    4    0    0 -0.19357191576E+03 -0.46757032146E+03  0.48078114673E+03  0.70255761070E+03  0.79652954827E+02 0.  0.
         11    1    3    3    0    0 -0.96064195191E+02  0.16105489152E+03 -0.68108006370E+03  0.70642555223E+03  0.00000000000E+00 0. -1.
        -11    1    3    3    0    0  0.16242189758E+02  0.10475151631E+02 -0.36136696395E+02  0.40980463104E+02  0.00000000000E+00 0.  1.
          4    1    6    6  502    0  0.61328961749E+01 -0.15976837071E+02  0.26804082095E+02  0.31801423792E+02  0.00000000000E+00 0. -1.
          3    1    5    5  503    0  0.37352393201E+02  0.35581097148E+02  0.10147506792E+03  0.11383499093E+03  0.00000000000E+00 0. -1.
         -4    1    5    5    0  503  0.23604152799E+03  0.26045918117E+03  0.33637789192E+03  0.48652304587E+03  0.00000000000E+00 0.  1.
         -3    1    6    6    0  502 -0.19970481194E+03 -0.45159348439E+03  0.45397706464E+03  0.67075618691E+03  0.00000000000E+00 0.  1.
<mgrwt>
<rscale>  0 0.20404044E+04</rscale>
<asrwt>0</asrwt>
<pdfrwt beam="1">  1        2 0.17321069E+00 0.20404044E+04</pdfrwt>
<pdfrwt beam="2">  1       -2 0.14222341E+00 0.20404044E+04</pdfrwt>
<totfact> 0.67044122E+00</totfact>
</mgrwt>
</event>
<event>
12    1  0.1755460E-007  0.2286634E+04  0.7818608E-02  0.8483210E-01
          2   -1    0    0  501    0  0.00000000000E+00  0.00000000000E+00  0.18766548513E+04  0.18766548513E+04  0.00000000000E+00 0. -1.
         -2   -1    0    0    0  501 -0.00000000000E+00 -0.00000000000E+00 -0.69654471118E+03  0.69654471118E+03  0.00000000000E+00 0.  1.
         23    2    1    2    0    0  0.88653797959E+03 -0.37543415998E+03  0.42218569424E+03  0.10552236501E+04  0.91410029840E+02 0.  0.
        254    2    1    2    0    0 -0.88653797959E+03  0.37543415998E+03  0.75792444590E+03  0.15179759124E+04  0.89604743582E+03 0.  0.
        -24    2    4    4    0    0 -0.24222393971E+03  0.53328390021E+03  0.13752078762E+03  0.60619355017E+03  0.74124881423E+02 0.  0.
         24    2    4    4    0    0 -0.64431403987E+03 -0.15784974024E+03  0.62040365828E+03  0.91178236224E+03  0.79932811883E+02 0.  0.
         11    1    3    3    0    0  0.92199601537E+02 -0.34071689245E+02  0.14554435364E+02  0.99365376869E+02  0.00000000000E+00 0. -1.
        -11    1    3    3    0    0  0.79433837805E+03 -0.34136247073E+03  0.40763125888E+03  0.95585827322E+03  0.00000000000E+00 0.  1.
          2    1    6    6  502    0 -0.83090476374E+02  0.46259626421E+01  0.91407887648E+02  0.12361564917E+03  0.00000000000E+00 0. -1.
          3    1    5    5  503    0 -0.83061074376E+02  0.12289345637E+03  0.55911194064E+02  0.15851815454E+03  0.00000000000E+00 0. -1.
         -4    1    5    5    0  503 -0.15916286534E+03  0.41039044384E+03  0.81609593553E+02  0.44767539564E+03  0.00000000000E+00 0.  1.
         -3    1    6    6    0  502 -0.56122356350E+03 -0.16247570288E+03  0.52899577063E+03  0.78816671307E+03  0.00000000000E+00 0.  1.
<mgrwt>
<rscale>  0 0.22866342E+04</rscale>
<asrwt>0</asrwt>
<pdfrwt beam="1">  1        2 0.28871613E+00 0.22866342E+04</pdfrwt>
<pdfrwt beam="2">  1       -2 0.10716073E+00 0.22866342E+04</pdfrwt>
<totfact> 0.49697611E+00</totfact>
</mgrwt>
</event>
<event>
12    1  0.1755460E-007  0.3816410E+04  0.7818608E-02  0.8042643E-01
          1   -1    0    0  501    0  0.00000000000E+00  0.00000000000E+00  0.25308110980E+04  0.25308110980E+04  0.00000000000E+00 0. -1.
         -1   -1    0    0    0  501 -0.00000000000E+00 -0.00000000000E+00 -0.14387663970E+04  0.14387663970E+04  0.00000000000E+00 0.  1.
         23    2    1    2    0    0 -0.70067300026E+02  0.13310939275E+04 -0.74349765134E+03  0.15290685538E+04  0.92419772089E+02 0.  0.
        254    2    1    2    0    0  0.70067300026E+02 -0.13310939275E+04  0.18355423524E+04  0.24405089412E+04  0.90008204874E+03 0.  0.
        -24    2    4    4    0    0 -0.31059740302E+02  0.74258680739E+02  0.44559514350E+03  0.45979520653E+03  0.79859507306E+02 0.  0.
         24    2    4    4    0    0  0.10112704033E+03 -0.14053526082E+04  0.13899472089E+04  0.19807137347E+04  0.77659665027E+02 0.  0.
         11    1    3    3    0    0  0.19987560086E+02  0.18526630282E+03 -0.90383590767E+02  0.20710456055E+03  0.00000000000E+00 0. -1.
        -11    1    3    3    0    0 -0.90054860112E+02  0.11458276247E+04 -0.65311406057E+03  0.13219639932E+04  0.00000000000E+00 0.  1.
          4    1    6    6  502    0  0.45271868836E+02 -0.27960680573E+03  0.30539467684E+03  0.41652781007E+03  0.00000000000E+00 0. -1.
          1    1    5    5  503    0 -0.11863803960E+02 -0.12073356383E+02  0.26314024075E+02  0.31288075073E+02  0.00000000000E+00 0. -1.
         -2    1    5    5    0  503 -0.19195936342E+02  0.86332037122E+02  0.41928111942E+03  0.42850713146E+03  0.00000000000E+00 0.  1.
         -1    1    6    6    0  502  0.55855171492E+02 -0.11257458025E+04  0.10845525321E+04  0.15641859246E+04  0.00000000000E+00 0.  1.
<mgrwt>
<rscale>  0 0.38164098E+04</rscale>
<asrwt>0</asrwt>
<pdfrwt beam="1">  1        1 0.38935555E+00 0.38164098E+04</pdfrwt>
<pdfrwt beam="2">  1       -1 0.22134868E+00 0.38164098E+04</pdfrwt>
<totfact> 0.11043582E-01</totfact>
</mgrwt>
</event>
<event>
12    1  0.1755460E-007  0.2549651E+04  0.7818608E-02  0.8385508E-01
          1   -1    0    0  501    0  0.00000000000E+00  0.00000000000E+00  0.11905976884E+04  0.11905976884E+04  0.00000000000E+00 0. -1.
         -1   -1    0    0    0  501 -0.00000000000E+00 -0.00000000000E+00 -0.13650116233E+04  0.13650116233E+04  0.00000000000E+00 0.  1.
         23    2    1    2    0    0 -0.36327243124E+03 -0.13528007276E+03  0.97420677791E+03  0.10519910805E+04  0.85666971665E+02 0.  0.
        254    2    1    2    0    0  0.36327243124E+03  0.13528007276E+03 -0.11486207128E+04  0.15036182311E+04  0.88953397107E+03 0.  0.
        -24    2    4    4    0    0 -0.22778096406E+03  0.16482290190E+03 -0.12296447184E+03  0.31685843760E+03  0.78919272446E+02 0.  0.
         24    2    4    4    0    0  0.59105339530E+03 -0.29542829143E+02 -0.10256562410E+04  0.11867597935E+04  0.78811090877E+02 0.  0.
         11    1    3    3    0    0 -0.99375180600E+01  0.10748747367E+02  0.38688410961E+02  0.41365238762E+02  0.00000000000E+00 0.  1.
        -11    1    3    3    0    0 -0.35333491318E+03 -0.14602882012E+03  0.93551836695E+03  0.10106258418E+04  0.00000000000E+00 0. -1.
          2    1    6    6  502    0  0.10225957638E+03 -0.92251940517E+01 -0.24277306860E+03  0.26359227607E+03  0.00000000000E+00 0. -1.
          3    1    5    5  503    0 -0.33125843380E+02 -0.93329129370E+00  0.43569288918E-01  0.33139016741E+02  0.00000000000E+00 0. -1.
         -4    1    5    5    0  503 -0.19465512068E+03  0.16575619319E+03 -0.12300804113E+03  0.28371942086E+03  0.00000000000E+00 0.  1.
         -1    1    6    6    0  502  0.48879381891E+03 -0.20317635091E+02 -0.78288317238E+03  0.92316751747E+03  0.00000000000E+00 0.  1.
<mgrwt>
<rscale>  0 0.25496507E+04</rscale>
<asrwt>0</asrwt>
<pdfrwt beam="1">  1        1 0.18316888E+00 0.25496507E+04</pdfrwt>
<pdfrwt beam="2">  1       -1 0.21000179E+00 0.25496507E+04</pdfrwt>
<totfact> 0.12346292E+00</totfact>
</mgrwt>
</event>
<event>
12    1  0.1755460E-007  0.1239144E+04  0.7818608E-02  0.9079267E-01
         -1   -1    0    0    0  501 -0.00000000000E+00  0.00000000000E+00  0.42475071919E+03  0.42475071919E+03  0.00000000000E+00 0.  1.
          1   -1    0    0  501    0  0.00000000000E+00 -0.00000000000E+00 -0.90375223810E+03  0.90375223810E+03  0.00000000000E+00 0. -1.
         23    2    1    2    0    0 -0.15852626369E+03  0.18576382012E+03 -0.27093627713E+03  0.37606184982E+03  0.91527457538E+02 0.  0.
        254    2    1    2    0    0  0.15852626369E+03 -0.18576382012E+03 -0.20806524178E+03  0.95244110747E+03  0.89677987557E+03 0.  0.
        -24    2    4    4    0    0  0.15701184075E+03  0.23443204224E+03  0.20480971703E+03  0.35780133067E+03  0.80396961854E+02 0.  0.
         24    2    4    4    0    0  0.15144229360E+01 -0.42019586236E+03 -0.41287495880E+03  0.59463977680E+03  0.81017753120E+02 0.  0.
         13    1    3    3    0    0 -0.16037517610E+03  0.13693693360E+03 -0.20605888566E+03  0.29484264490E+03  0.00000000000E+00 0.  1.
        -13    1    3    3    0    0  0.18489124109E+01  0.48826886523E+02 -0.64877391471E+02  0.81219204926E+02  0.00000000000E+00 0. -1.
          2    1    6    6  502    0 -0.24025776462E+02 -0.21371300815E+03 -0.25427976593E+03  0.33302955897E+03  0.00000000000E+00 0. -1.
          1    1    5    5  503    0  0.84578172696E+02  0.58061451144E+02  0.76762291033E+02  0.12812903157E+03  0.00000000000E+00 0. -1.
         -2    1    5    5    0  503  0.72433668054E+02  0.17637059110E+03  0.12804742600E+03  0.22967229910E+03  0.00000000000E+00 0.  1.
         -1    1    6    6    0  502  0.25540199398E+02 -0.20648285422E+03 -0.15859519288E+03  0.26161021783E+03  0.00000000000E+00 0.  1.
<mgrwt>
<rscale>  0 0.12391439E+04</rscale>
<asrwt>0</asrwt>
<pdfrwt beam="1">  1        1 0.13903880E+00 0.12391439E+04</pdfrwt>
<pdfrwt beam="2">  1       -1 0.65346265E-01 0.12391439E+04</pdfrwt>
<totfact> 0.42341144E+01</totfact>
</mgrwt>
</event>
<event>
12    1  0.1755460E-007  0.1558955E+04  0.7818608E-02  0.8846168E-01
         -2   -1    0    0    0  501 -0.00000000000E+00  0.00000000000E+00  0.98810423219E+03  0.98810423219E+03  0.00000000000E+00 0.  1.
          2   -1    0    0  501    0  0.00000000000E+00 -0.00000000000E+00 -0.61489978940E+03  0.61489978940E+03  0.00000000000E+00 0. -1.
         23    2    1    2    0    0 -0.18316293733E+03 -0.18661468126E+03  0.58591686745E+03  0.64773140337E+03  0.88790171038E+02 0.  0.
        254    2    1    2    0    0  0.18316293733E+03  0.18661468126E+03 -0.21271242466E+03  0.95527261822E+03  0.89382632465E+03 0.  0.
        -24    2    4    4    0    0  0.26329321202E+03  0.38957809509E+03 -0.42627148254E+03  0.63963420889E+03  0.79562156177E+02 0.  0.
         24    2    4    4    0    0 -0.80130274683E+02 -0.20296341383E+03  0.21355905788E+03  0.31563840933E+03  0.80032030879E+02 0.  0.
         11    1    3    3    0    0 -0.14738807379E+03 -0.11240848716E+03  0.32530334196E+03  0.37440776778E+03  0.00000000000E+00 0.  1.
        -11    1    3    3    0    0 -0.35774863540E+02 -0.74206194094E+02  0.26061352549E+03  0.27332363559E+03  0.00000000000E+00 0. -1.
          2    1    6    6  502    0 -0.24074073836E+02 -0.15540654863E+03  0.12746821861E+03  0.20243246564E+03  0.00000000000E+00 0. -1.
          3    1    5    5  503    0  0.12310148363E+03  0.24747819105E+03 -0.22832258079E+03  0.35851168909E+03  0.00000000000E+00 0. -1.
         -4    1    5    5    0  503  0.14019172839E+03  0.14209990403E+03 -0.19794890175E+03  0.28112251980E+03  0.00000000000E+00 0.  1.
         -1    1    6    6    0  502 -0.56056200847E+02 -0.47556865199E+02  0.86090839268E+02  0.11320594369E+03  0.00000000000E+00 0.  1.
<mgrwt>
<rscale>  0 0.15589549E+04</rscale>
<asrwt>0</asrwt>
<pdfrwt beam="1">  1        2 0.94599968E-01 0.15589549E+04</pdfrwt>
<pdfrwt beam="2">  1       -2 0.15201604E+00 0.15589549E+04</pdfrwt>
<totfact> 0.13380392E+01</totfact>
</mgrwt>
</event>
<event>
12    1  0.1755460E-007  0.2113306E+04  0.7818608E-02  0.8555404E-01
         -2   -1    0    0    0  501 -0.00000000000E+00  0.00000000000E+00  0.68701884901E+03  0.68701884901E+03  0.00000000000E+00 0.  1.
          2   -1    0    0  501    0  0.00000000000E+00 -0.00000000000E+00 -0.16251606974E+04  0.16251606974E+04  0.00000000000E+00 0. -1.
         23    2    1    2    0    0  0.54771510236E+03  0.12322094902E+03  0.32444001320E+03  0.65477217719E+03  0.91049691013E+02 0.  0.
        254    2    1    2    0    0 -0.54771510236E+03 -0.12322094902E+03 -0.12625818615E+04  0.16574073692E+04  0.91526553233E+03 0.  0.
        -24    2    4    4    0    0 -0.34601538513E+03 -0.50877299469E+03 -0.85336937400E+03  0.10546810653E+04  0.74406008597E+02 0.  0.
         24    2    4    4    0    0 -0.20169971723E+03  0.38555204567E+03 -0.40921248754E+03  0.60272630389E+03  0.80566628295E+02 0.  0.
         13    1    3    3    0    0  0.31000570314E+03  0.10025885397E+03  0.14803355385E+03  0.35786772255E+03  0.00000000000E+00 0. -1.
        -13    1    3    3    0    0  0.23770939922E+03  0.22962095047E+02  0.17640645936E+03  0.29690445465E+03  0.00000000000E+00 0.  1.
          4    1    6    6  502    0  0.31938771337E+01  0.23227676377E+02 -0.84832675400E+01  0.24933744788E+02  0.00000000000E+00 0. -1.
          1    1    5    5  503    0 -0.29587759735E+03 -0.40153376530E+03 -0.72567438096E+03  0.88055449830E+03  0.00000000000E+00 0. -1.
         -2    1    5    5    0  503 -0.50137787780E+02 -0.10723922939E+03 -0.12769499305E+03  0.17412656699E+03  0.00000000000E+00 0.  1.
         -3    1    6    6    0  502 -0.20489359436E+03  0.36232436929E+03 -0.40072922000E+03  0.57779255910E+03  0.00000000000E+00 0.  1.
<mgrwt>
<rscale>  0 0.21133064E+04</rscale>
<asrwt>0</asrwt>
<pdfrwt beam="1">  1        2 0.25002472E+00 0.21133064E+04</pdfrwt>
<pdfrwt beam="2">  1       -2 0.10569521E+00 0.21133064E+04</pdfrwt>
<totfact> 0.71912806E+00</totfact>
</mgrwt>
</event>
<event>
12    1  0.1755460E-007  0.1220210E+04  0.7818608E-02  0.9095348E-01
          2   -1    0    0  501    0  0.00000000000E+00  0.00000000000E+00  0.15346036514E+04  0.15346036514E+04  0.00000000000E+00 0. -1.
         -2   -1    0    0    0  501 -0.00000000000E+00 -0.00000000000E+00 -0.24255669791E+03  0.24255669791E+03  0.00000000000E+00 0.  1.
         23    2    1    2    0    0  0.50955118322E+02  0.25254070166E+03  0.36023015455E+03  0.45223473694E+03  0.91527389153E+02 0.  0.
        254    2    1    2    0    0 -0.50955118322E+02 -0.25254070166E+03  0.93181679895E+03  0.13249256124E+04  0.90596473522E+03 0.  0.
        -24    2    4    4    0    0  0.26541002651E+03 -0.47152952122E+03  0.58142282732E+03  0.79828337379E+03  0.80132822129E+02 0.  0.
         24    2    4    4    0    0 -0.31636514483E+03  0.21898881956E+03  0.35039397163E+03  0.52664223860E+03  0.80827620044E+02 0.  0.
         13    1    3    3    0    0  0.13051824263E+01 -0.47033918682E+01 -0.19269385281E+01  0.52477126753E+01  0.00000000000E+00 0.  1.
        -13    1    3    3    0    0  0.49649935895E+02  0.25724409353E+03  0.36215709308E+03  0.44698702426E+03  0.00000000000E+00 0. -1.
          2    1    6    6  502    0 -0.13169997595E+02  0.85143883324E+01 -0.26337740096E+01  0.15902214024E+02  0.00000000000E+00 0. -1.
          3    1    5    5  503    0  0.65992048245E+01 -0.61322674164E+02  0.57602951131E+02  0.84392652820E+02  0.00000000000E+00 0. -1.
         -4    1    5    5    0  503  0.25881082168E+03 -0.41020684706E+03  0.52381987619E+03  0.71389072097E+03  0.00000000000E+00 0.  1.
         -1    1    6    6    0  502 -0.30319514724E+03  0.21047443123E+03  0.35302774564E+03  0.51074002457E+03  0.00000000000E+00 0.  1.
<mgrwt>
<rscale>  0 0.12202105E+04</rscale>
<asrwt>0</asrwt>
<pdfrwt beam="1">  1        2 0.23609286E+00 0.12202105E+04</pdfrwt>
<pdfrwt beam="2">  1       -2 0.37316416E-01 0.12202105E+04</pdfrwt>
<totfact> 0.80938199E+01</totfact>
</mgrwt>
</event>
<event>
12    1  0.1755460E-007  0.2048532E+04  0.7818608E-02  0.8584261E-01
          2   -1    0    0  501    0  0.00000000000E+00  0.00000000000E+00  0.15394409298E+04  0.15394409298E+04  0.00000000000E+00 0. -1.
         -2   -1    0    0    0  501 -0.00000000000E+00 -0.00000000000E+00 -0.68149453708E+03  0.68149453708E+03  0.00000000000E+00 0.  1.
         23    2    1    2    0    0  0.46451415909E+03 -0.62645479224E+03  0.64843224437E+02  0.78784873049E+03  0.91005316696E+02 0.  0.
        254    2    1    2    0    0 -0.46451415909E+03  0.62645479224E+03  0.79310316832E+03  0.14330867364E+04  0.90360718667E+03 0.  0.
        -24    2    4    4    0    0 -0.38949699740E+03  0.58391522228E+03  0.98308419103E+03  0.12109005397E+04  0.84620876158E+02 0.  0.
         24    2    4    4    0    0 -0.75017161694E+02  0.42539569961E+02 -0.18998102271E+03  0.22218619669E+03  0.76398478048E+02 0.  0.
         11    1    3    3    0    0  0.34037595348E+03 -0.51380891373E+03  0.68955811839E+02  0.62016956837E+03  0.00000000000E+00 0.  1.
        -11    1    3    3    0    0  0.12413820561E+03 -0.11264587850E+03 -0.41125874016E+01  0.16767916212E+03  0.00000000000E+00 0. -1.
          2    1    6    6  502    0 -0.69348022849E+02  0.44467086031E+02 -0.19665924941E+03  0.21321662785E+03  0.00000000000E+00 0. -1.
          3    1    5    5  503    0 -0.12674360748E+03  0.26513175121E+03  0.40724679516E+03  0.50220388261E+03  0.00000000000E+00 0. -1.
         -4    1    5    5    0  503 -0.26275338992E+03  0.31878347106E+03  0.57583739587E+03  0.70869665713E+03  0.00000000000E+00 0.  1.
         -1    1    6    6    0  502 -0.56691388455E+01 -0.19275160693E+01  0.66782266952E+01  0.89695688435E+01  0.00000000000E+00 0.  1.
<mgrwt>
<rscale>  0 0.20485318E+04</rscale>
<asrwt>0</asrwt>
<pdfrwt beam="1">  1        2 0.23683707E+00 0.20485318E+04</pdfrwt>
<pdfrwt beam="2">  1       -2 0.10484531E+00 0.20485318E+04</pdfrwt>
<totfact> 0.82339332E+00</totfact>
</mgrwt>
</event>
<event>
12    1  0.1755460E-007  0.3216686E+04  0.7818608E-02  0.8184424E-01
          1   -1    0    0  501    0  0.00000000000E+00  0.00000000000E+00  0.12312857458E+04  0.12312857458E+04  0.00000000000E+00 0. -1.
         -1   -1    0    0    0  501 -0.00000000000E+00 -0.00000000000E+00 -0.21008671126E+04  0.21008671126E+04  0.00000000000E+00 0.  1.
         23    2    1    2    0    0 -0.50402193331E+03 -0.85274273978E+03 -0.15624093354E+04  0.18520749677E+04  0.88602850695E+02 0.  0.
        254    2    1    2    0    0  0.50402193331E+03  0.85274273978E+03  0.69282796854E+03  0.14800778908E+04  0.85405601646E+03 0.  0.
        -24    2    4    4    0    0  0.28995510758E+03  0.22371024521E+03  0.71814025422E+03  0.81037391379E+03  0.82826428136E+02 0.  0.
         24    2    4    4    0    0  0.21406682573E+03  0.62903249457E+03 -0.25312285680E+02  0.66970397698E+03  0.79725904656E+02 0.  0.
         11    1    3    3    0    0 -0.24765573050E+03 -0.48930238087E+03 -0.91041362186E+03  0.10628278994E+04  0.00000000000E+00 0. -1.
        -11    1    3    3    0    0 -0.25636620281E+03 -0.36344035890E+03 -0.65199571350E+03  0.78924706832E+03  0.00000000000E+00 0.  1.
          4    1    6    6  502    0  0.14591180719E+03  0.46572638968E+03  0.14737147892E+02  0.48827093816E+03  0.00000000000E+00 0. -1.
          3    1    5    5  503    0  0.20275641912E+02  0.67458205340E+01  0.13393827857E+02  0.25219087499E+02  0.00000000000E+00 0. -1.
         -4    1    5    5    0  503  0.26967946567E+03  0.21696442468E+03  0.70474642636E+03  0.78515482629E+03  0.00000000000E+00 0.  1.
         -3    1    6    6    0  502  0.68155018542E+02  0.16330610488E+03 -0.40049433572E+02  0.18143303882E+03  0.00000000000E+00 0.  1.
<mgrwt>
<rscale>  0 0.32166863E+04</rscale>
<asrwt>0</asrwt>
<pdfrwt beam="1">  1        1 0.18942858E+00 0.32166863E+04</pdfrwt>
<pdfrwt beam="2">  1       -1 0.32321032E+00 0.32166863E+04</pdfrwt>
<totfact> 0.19749149E-01</totfact>
</mgrwt>
</event>
<event>
12    1  0.1755460E-007  0.1920879E+04  0.7818608E-02  0.8644533E-01
         -2   -1    0    0    0  501 -0.00000000000E+00  0.00000000000E+00  0.20215322856E+04  0.20215322856E+04  0.00000000000E+00 0. -1.
          2   -1    0    0  501    0  0.00000000000E+00 -0.00000000000E+00 -0.45630937551E+03  0.45630937551E+03  0.00000000000E+00 0.  1.
         23    2    1    2    0    0  0.26758257056E+03  0.44841375842E+03 -0.71581614924E+02  0.53494525929E+03  0.91472247367E+02 0.  0.
        254    2    1    2    0    0 -0.26758257056E+03 -0.44841375842E+03  0.16368045250E+04  0.19428964018E+04  0.90721664684E+03 0.  0.
        -24    2    4    4    0    0  0.24321478286E+03 -0.11276083065E+03  0.10678346009E+04  0.11038127100E+04  0.79141192207E+02 0.  0.
         24    2    4    4    0    0 -0.51079735342E+03 -0.33565292777E+03  0.56896992409E+03  0.83908369182E+03  0.82206101867E+02 0.  0.
         11    1    3    3    0    0  0.12542453704E+03  0.22995629748E+03  0.91273247454E+01  0.26209639696E+03  0.00000000000E+00 0. -1.
        -11    1    3    3    0    0  0.14215803352E+03  0.21845746094E+03 -0.80708939669E+02  0.27284886234E+03  0.00000000000E+00 0.  1.
          2    1    6    6  502    0 -0.35727545422E+03 -0.27486914099E+03  0.43524929037E+03  0.62661051669E+03  0.00000000000E+00 0. -1.
          3    1    5    5  503    0  0.87725074195E+02 -0.20573602477E+01  0.29646650488E+03  0.30918006063E+03  0.00000000000E+00 0. -1.
         -4    1    5    5    0  503  0.15548970866E+03 -0.11070347040E+03  0.77136809603E+03  0.79463264936E+03  0.00000000000E+00 0.  1.
         -1    1    6    6    0  502 -0.15352189920E+03 -0.60783786774E+02  0.13372063372E+03  0.21247317513E+03  0.00000000000E+00 0.  1.
<mgrwt>
<rscale>  0 0.19208791E+04</rscale>
<asrwt>0</asrwt>
<pdfrwt beam="1">  1        2 0.70201443E-01 0.19208791E+04</pdfrwt>
<pdfrwt beam="2">  1       -2 0.31100496E+00 0.19208791E+04</pdfrwt>
<totfact> 0.17439034E+00</totfact>
</mgrwt>
</event>
<event>
12    1  0.1755460E-007  0.2719390E+04  0.7818608E-02  0.8328741E-01
         -1   -1    0    0    0  501 -0.00000000000E+00  0.00000000000E+00  0.77257056453E+03  0.77257056453E+03  0.00000000000E+00 0.  1.
          1   -1    0    0  501    0  0.00000000000E+00 -0.00000000000E+00 -0.23930115418E+04  0.23930115418E+04  0.00000000000E+00 0. -1.
         23    2    1    2    0    0  0.90092943802E+03 -0.79382033321E+03 -0.89263141668E+03  0.14987944301E+04  0.88143769351E+02 0.  0.
        254    2    1    2    0    0 -0.90092943802E+03  0.79382033321E+03 -0.72780956063E+03  0.16667876762E+04  0.89813686448E+03 0.  0.
        -24    2    4    4    0    0 -0.64597718876E+03  0.65972323462E+03 -0.51852234271E+02  0.92769019189E+03  0.73478998665E+02 0.  0.
         24    2    4    4    0    0 -0.25495224926E+03  0.13409709859E+03 -0.67595732636E+03  0.73909748433E+03  0.79775328438E+02 0.  0.
         11    1    3    3    0    0  0.88046428362E+03 -0.77274424164E+03 -0.88570121957E+03  0.14686107953E+04  0.00000000000E+00 0. -1.
        -11    1    3    3    0    0  0.20465154395E+02 -0.21076091567E+02 -0.69301971077E+01  0.30183634839E+02  0.00000000000E+00 0.  1.
          2    1    6    6  502    0 -0.25996764710E+03  0.13524157615E+03 -0.65580900578E+03  0.71830280072E+03  0.00000000000E+00 0. -1.
          3    1    5    5  503    0 -0.40419712942E+03  0.45436672924E+03 -0.53333748120E+02  0.61046616020E+03  0.00000000000E+00 0. -1.
         -4    1    5    5    0  503 -0.24178005934E+03  0.20535650538E+03  0.14815138490E+01  0.31722403169E+03  0.00000000000E+00 0.  1.
         -1    1    6    6    0  502  0.50153978371E+01 -0.11444775518E+01 -0.20148320579E+02  0.20794683611E+02  0.00000000000E+00 0.  1.
<mgrwt>
<rscale>  0 0.27193898E+04</rscale>
<asrwt>0</asrwt>
<pdfrwt beam="1">  1        1 0.36815562E+00 0.27193898E+04</pdfrwt>
<pdfrwt beam="2">  1       -1 0.11885701E+00 0.27193898E+04</pdfrwt>
<totfact> 0.88715343E-01</totfact>
</mgrwt>
</event>
<event>
12    1  0.1755460E-007  0.1832155E+04  0.7818608E-02  0.8689384E-01
          2   -1    0    0  501    0  0.00000000000E+00  0.00000000000E+00  0.30224534814E+04  0.30224534814E+04  0.00000000000E+00 0. -1.
         -2   -1    0    0    0  501 -0.00000000000E+00 -0.00000000000E+00 -0.27765464005E+03  0.27765464005E+03  0.00000000000E+00 0.  1.
         23    2    1    2    0    0 -0.31347545903E+03 -0.54695322104E+02 -0.60977826633E+02  0.33642224784E+03  0.90571473588E+02 0.  0.
        254    2    1    2    0    0  0.31347545903E+03  0.54695322104E+02  0.28057766680E+04  0.29636858736E+04  0.89988488437E+03 0.  0.
        -24    2    4    4    0    0 -0.12709124109E+03  0.27531572901E+03  0.40770016493E+03  0.51423154497E+03  0.79143686781E+02 0.  0.
         24    2    4    4    0    0  0.44056670012E+03 -0.22062040690E+03  0.23980765030E+04  0.24494543286E+04  0.79266716625E+02 0.  0.
         13    1    3    3    0    0 -0.55166835857E+02 -0.38089248578E+02  0.10587009631E+02  0.67869399648E+02  0.00000000000E+00 0. -1.
        -13    1    3    3    0    0 -0.25830862317E+03 -0.16606073527E+02 -0.71564836264E+02  0.26855284819E+03  0.00000000000E+00 0.  1.
          4    1    6    6  502    0  0.40972597815E+03 -0.20006256985E+03  0.20901626972E+04  0.21393177674E+04  0.00000000000E+00 0. -1.
          3    1    5    5  503    0 -0.73023946259E+02  0.20351075060E+03  0.33457558920E+03  0.39835906821E+03  0.00000000000E+00 0. -1.
         -4    1    5    5    0  503 -0.54067294834E+02  0.71804978402E+02  0.73124575725E+02  0.11587247675E+03  0.00000000000E+00 0.  1.
         -3    1    6    6    0  502  0.30840721968E+02 -0.20557837047E+02  0.30791380581E+03  0.31013656121E+03  0.00000000000E+00 0.  1.
<mgrwt>
<rscale>  0 0.18321553E+04</rscale>
<asrwt>0</asrwt>
<pdfrwt beam="1">  1        2 0.46499282E+00 0.18321553E+04</pdfrwt>
<pdfrwt beam="2">  1       -2 0.42716100E-01 0.18321553E+04</pdfrwt>
<totfact> 0.82766826E+00</totfact>
</mgrwt>
</event>
<event>
12    1  0.1755460E-007  0.1126458E+04  0.7818608E-02  0.9179781E-01
          1   -1    0    0  501    0  0.00000000000E+00  0.00000000000E+00  0.18375706037E+04  0.18375706037E+04  0.00000000000E+00 0. -1.
         -1   -1    0    0    0  501 -0.00000000000E+00 -0.00000000000E+00 -0.17263373021E+03  0.17263373021E+03  0.00000000000E+00 0.  1.
         23    2    1    2    0    0 -0.47536506949E+02  0.18266539892E+03  0.25473951580E+03  0.33028280942E+03  0.92564279470E+02 0.  0.
        254    2    1    2    0    0  0.47536506949E+02 -0.18266539892E+03  0.14101973577E+04  0.16799215245E+04  0.89322638417E+03 0.  0.
        -24    2    4    4    0    0  0.21008219307E+03  0.29316809451E+03  0.37613646559E+03  0.52733133882E+03  0.80731906148E+02 0.  0.
         24    2    4    4    0    0 -0.16254568613E+03 -0.47583349343E+03  0.10340608921E+04  0.11525901857E+04  0.79646682334E+02 0.  0.
         11    1    3    3    0    0 -0.40769925482E+02  0.10977049195E+03  0.82821201890E+02  0.14342628493E+03  0.00000000000E+00 0. -1.
        -11    1    3    3    0    0 -0.67665814670E+01  0.72894906973E+02  0.17191831391E+03  0.18685652450E+03  0.00000000000E+00 0.  1.
          2    1    6    6  502    0 -0.12598265151E+03 -0.25279119755E+03  0.54565706415E+03  0.61442383556E+03  0.00000000000E+00 0. -1.
          1    1    5    5  503    0  0.32681894452E+02  0.35303093711E+02  0.17188468903E+02  0.51086770438E+02  0.00000000000E+00 0. -1.
         -2    1    5    5    0  503  0.17740029862E+03  0.25786500080E+03  0.35894799669E+03  0.47624456838E+03  0.00000000000E+00 0.  1.
         -1    1    6    6    0  502 -0.36563034617E+02 -0.22304229587E+03  0.48840382794E+03  0.53816635012E+03  0.00000000000E+00 0.  1.
<mgrwt>
<rscale>  0 0.11264576E+04</rscale>
<asrwt>0</asrwt>
<pdfrwt beam="1">  1        1 0.28270316E+00 0.11264576E+04</pdfrwt>
<pdfrwt beam="2">  1       -1 0.26559037E-01 0.11264576E+04</pdfrwt>
<totfact> 0.48288741E+01</totfact>
</mgrwt>
</event>
<event>
12    1  0.1755460E-007  0.2628648E+04  0.7818608E-02  0.8358535E-01
         -1   -1    0    0    0  501 -0.00000000000E+00  0.00000000000E+00  0.72338396601E+03  0.72338396601E+03  0.00000000000E+00 0.  1.
          1   -1    0    0  501    0  0.00000000000E+00 -0.00000000000E+00 -0.23880085130E+04  0.23880085130E+04  0.00000000000E+00 0. -1.
         23    2    1    2    0    0 -0.45814423331E+03  0.57089167676E+03  0.32741892664E+03  0.80684436157E+03  0.89337702882E+02 0.  0.
        254    2    1    2    0    0  0.45814423331E+03 -0.57089167676E+03 -0.19920434737E+04  0.23045481175E+04  0.89827132854E+03 0.  0.
        -24    2    4    4    0    0  0.92561400751E+02 -0.12661108702E+03  0.47940507256E+02  0.18347479185E+03  0.82260116358E+02 0.  0.
         24    2    4    4    0    0  0.36558283256E+03 -0.44428058974E+03 -0.20399839809E+04  0.21210733256E+04  0.79883417427E+02 0.  0.
         11    1    3    3    0    0 -0.17884750116E+03  0.20072213691E+03  0.16536151292E+03  0.31562673345E+03  0.00000000000E+00 0. -1.
        -11    1    3    3    0    0 -0.27929673215E+03  0.37016953986E+03  0.16205741372E+03  0.49121762812E+03  0.00000000000E+00 0.  1.
          2    1    6    6  502    0  0.10951602580E+01 -0.11584252979E+02 -0.87636549588E+02  0.88405650932E+02  0.00000000000E+00 0. -1.
          3    1    5    5  503    0 -0.11060242691E+02 -0.33710994262E+02 -0.22054255673E+01  0.35547489425E+02  0.00000000000E+00 0. -1.
         -4    1    5    5    0  503  0.10362164344E+03 -0.92900092762E+02  0.50145932823E+02  0.14792730243E+03  0.00000000000E+00 0.  1.
         -1    1    6    6    0  502  0.36448767231E+03 -0.43269633676E+03 -0.19523474313E+04  0.20326676747E+04  0.00000000000E+00 0.  1.
<mgrwt>
<rscale>  0 0.26286476E+04</rscale>
<asrwt>0</asrwt>
<pdfrwt beam="1">  1        1 0.36738592E+00 0.26286476E+04</pdfrwt>
<pdfrwt beam="2">  1       -1 0.11128984E+00 0.26286476E+04</pdfrwt>
<totfact> 0.10556725E+00</totfact>
</mgrwt>
</event>
<event>
12    1  0.1755460E-007  0.1557387E+04  0.7818608E-02  0.8847163E-01
          2   -1    0    0  501    0  0.00000000000E+00  0.00000000000E+00  0.25375153687E+04  0.25375153687E+04  0.00000000000E+00 0. -1.
         -2   -1    0    0    0  501 -0.00000000000E+00 -0.00000000000E+00 -0.23895968948E+03  0.23895968948E+03  0.00000000000E+00 0.  1.
         23    2    1    2    0    0 -0.31808630136E+03 -0.13687642181E+03  0.14499763131E+04  0.14934267182E+04  0.89319674001E+02 0.  0.
        254    2    1    2    0    0  0.31808630136E+03  0.13687642181E+03  0.84857936612E+03  0.12830483400E+04  0.89789311844E+03 0.  0.
        -24    2    4    4    0    0 -0.27031379105E+03 -0.11897204823E+03  0.18934990317E+03  0.35973577254E+03  0.79577297764E+02 0.  0.
         24    2    4    4    0    0  0.58840009241E+03  0.25584847003E+03  0.65922946295E+03  0.92331256744E+03  0.79053804467E+02 0.  0.
         11    1    3    3    0    0 -0.13267819094E+03 -0.19112062833E+02  0.66049270258E+03  0.67395799829E+03  0.00000000000E+00 0. -1.
        -11    1    3    3    0    0 -0.18540811042E+03 -0.11776435897E+03  0.78948361050E+03  0.81946871991E+03  0.00000000000E+00 0.  1.
          4    1    6    6  502    0  0.50340233692E+03  0.19008326441E+03  0.53065126162E+03  0.75573561626E+03  0.00000000000E+00 0. -1.
          3    1    5    5  503    0 -0.24704847360E+03 -0.11640536268E+03  0.14408605205E+03  0.30877815202E+03  0.00000000000E+00 0. -1.
         -4    1    5    5    0  503 -0.23265317455E+02 -0.25666855459E+01  0.45263851116E+02  0.50957620518E+02  0.00000000000E+00 0.  1.
         -3    1    6    6    0  502  0.84997755495E+02  0.65765205621E+02  0.12857820133E+03  0.16757695118E+03  0.00000000000E+00 0.  1.
<mgrwt>
<rscale>  0 0.15573874E+04</rscale>
<asrwt>0</asrwt>
<pdfrwt beam="1">  1        2 0.39038696E+00 0.15573874E+04</pdfrwt>
<pdfrwt beam="2">  1       -2 0.36763031E-01 0.15573874E+04</pdfrwt>
<totfact> 0.22256615E+01</totfact>
</mgrwt>
</event>
<event>
12    1  0.1755460E-007  0.1286485E+04  0.7818608E-02  0.9040352E-01
         -2   -1    0    0    0  501 -0.00000000000E+00  0.00000000000E+00  0.17844640759E+03  0.17844640759E+03  0.00000000000E+00 0.  1.
          2   -1    0    0  501    0  0.00000000000E+00 -0.00000000000E+00 -0.23186846109E+04  0.23186846109E+04  0.00000000000E+00 0. -1.
         23    2    1    2    0    0 -0.11742693167E+03  0.16403273250E+03 -0.11014703958E+04  0.11235451381E+04  0.91765042366E+02 0.  0.
        254    2    1    2    0    0  0.11742693167E+03 -0.16403273250E+03 -0.10387678075E+04  0.13735858803E+04  0.87578752626E+03 0.  0.
        -24    2    4    4    0    0 -0.19422883370E+03  0.26686809031E+03 -0.26365434036E+03  0.42994399509E+03  0.79967557538E+02 0.  0.
         24    2    4    4    0    0  0.31165576537E+03 -0.43090082281E+03 -0.77511346715E+03  0.94364188526E+03  0.82790612144E+02 0.  0.
         11    1    3    3    0    0 -0.64976856663E+02  0.66991948302E+02 -0.29091683045E+03  0.30552007345E+03  0.00000000000E+00 0.  1.
        -11    1    3    3    0    0 -0.52450075006E+02  0.97040784198E+02 -0.81055356534E+03  0.81802506469E+03  0.00000000000E+00 0. -1.
          2    1    6    6  502    0  0.77703148850E+02 -0.16201880443E+03 -0.22148942953E+03  0.28521121949E+03  0.00000000000E+00 0. -1.
          1    1    5    5  503    0 -0.90513658186E+01  0.39054132332E+02 -0.61801697450E+02  0.73665475517E+02  0.00000000000E+00 0. -1.
         -2    1    5    5    0  503 -0.18517746789E+03  0.22781395798E+03 -0.20185264291E+03  0.35627851957E+03  0.00000000000E+00 0.  1.
         -1    1    6    6    0  502  0.23395261652E+03 -0.26888201838E+03 -0.55362403762E+03  0.65843066576E+03  0.00000000000E+00 0.  1.
<mgrwt>
<rscale>  0 0.12864850E+04</rscale>
<asrwt>0</asrwt>
<pdfrwt beam="1">  1        2 0.35672070E+00 0.12864850E+04</pdfrwt>
<pdfrwt beam="2">  1       -2 0.27453295E-01 0.12864850E+04</pdfrwt>
<totfact> 0.52637928E+01</totfact>
</mgrwt>
</event>
<event>
12    1  0.1755460E-007  0.1199702E+04  0.7818608E-02  0.9113117E-01
          2   -1    0    0  501    0  0.00000000000E+00  0.00000000000E+00  0.16107379121E+04  0.16107379121E+04  0.00000000000E+00 0. -1.
         -2   -1    0    0    0  501 -0.00000000000E+00 -0.00000000000E+00 -0.22338906892E+03  0.22338906892E+03  0.00000000000E+00 0.  1.
         23    2    1    2    0    0 -0.12154643853E+03  0.10112761543E+03  0.83341115056E+03  0.85321659885E+03  0.91673809526E+02 0.  0.
        254    2    1    2    0    0  0.12154643853E+03 -0.10112761543E+03  0.55393769263E+03  0.98091038218E+03  0.79393820870E+03 0.  0.
        -24    2    4    4    0    0 -0.11883644592E+03  0.14604230748E+03  0.59008395348E+03  0.62505169238E+03  0.83905241446E+02 0.  0.
         24    2    4    4    0    0  0.24038288445E+03 -0.24716992291E+03 -0.36146260854E+02  0.35585868980E+03  0.80324049968E+02 0.  0.
         13    1    3    3    0    0 -0.39336596079E+02  0.67623110042E+02  0.56776214761E+03  0.57312660823E+03  0.00000000000E+00 0. -1.
        -13    1    3    3    0    0 -0.82209842448E+02  0.33504505389E+02  0.26564900295E+03  0.28008999062E+03  0.00000000000E+00 0.  1.
          2    1    6    6  502    0  0.28302029261E+02 -0.16105252150E+02  0.18565022333E+02  0.37483917369E+02  0.00000000000E+00 0. -1.
          3    1    5    5  503    0 -0.53448648615E+02  0.92204268673E+01  0.16936988410E+03  0.17784243574E+03  0.00000000000E+00 0. -1.
         -4    1    5    5    0  503 -0.65387797306E+02  0.13682188061E+03  0.42071406938E+03  0.44720925664E+03  0.00000000000E+00 0.  1.
         -1    1    6    6    0  502  0.21208085519E+03 -0.23106467076E+03 -0.54711283187E+02  0.31837477243E+03  0.00000000000E+00 0.  1.
<mgrwt>
<rscale>  0 0.11997020E+04</rscale>
<asrwt>0</asrwt>
<pdfrwt beam="1">  1        2 0.24780583E+00 0.11997020E+04</pdfrwt>
<pdfrwt beam="2">  1       -2 0.34367550E-01 0.11997020E+04</pdfrwt>
<totfact> 0.86060320E+01</totfact>
</mgrwt>
</event>
<event>
12    1  0.1755460E-007  0.1055324E+04  0.7818608E-02  0.9249864E-01
          2   -1    0    0  501    0  0.00000000000E+00  0.00000000000E+00  0.78061890258E+03  0.78061890258E+03  0.00000000000E+00 0. -1.
         -2   -1    0    0    0  501 -0.00000000000E+00 -0.00000000000E+00 -0.35667517149E+03  0.35667517149E+03  0.00000000000E+00 0.  1.
         23    2    1    2    0    0 -0.91091343389E+02 -0.45924002358E+02  0.54518843400E+02  0.14888888659E+03  0.93749396962E+02 0.  0.
        254    2    1    2    0    0  0.91091343389E+02  0.45924002358E+02  0.36942488769E+03  0.98840518748E+03  0.91107816358E+03 0.  0.
        -24    2    4    4    0    0  0.31568131204E+03  0.28310906364E+02 -0.19070763887E+03  0.37838099275E+03  0.79665387486E+02 0.  0.
         24    2    4    4    0    0 -0.22458996865E+03  0.17613095993E+02  0.56013252656E+03  0.61002419472E+03  0.87350991209E+02 0.  0.
         13    1    3    3    0    0 -0.56546656072E+02 -0.61551887982E+02  0.13604535636E+01  0.83594318353E+02  0.00000000000E+00 0.  1.
        -13    1    3    3    0    0 -0.34544687318E+02  0.15627885624E+02  0.53158389837E+02  0.65294568235E+02  0.00000000000E+00 0. -1.
          4    1    6    6  502    0 -0.21795171230E+03  0.29761596476E+02  0.55139378638E+03  0.59365293664E+03  0.00000000000E+00 0. -1.
          3    1    5    5  503    0  0.18513970368E+03  0.55651190212E+02 -0.10801323393E+03  0.22145117646E+03  0.00000000000E+00 0. -1.
         -4    1    5    5    0  503  0.13054160836E+03 -0.27340283848E+02 -0.82694404938E+02  0.15692981630E+03  0.00000000000E+00 0.  1.
         -3    1    6    6    0  502 -0.66382563500E+01 -0.12148500482E+02  0.87387401824E+01  0.16371258086E+02  0.00000000000E+00 0.  1.
<mgrwt>
<rscale>  0 0.10553244E+04</rscale>
<asrwt>0</asrwt>
<pdfrwt beam="1">  1        2 0.12009522E+00 0.10553244E+04</pdfrwt>
<pdfrwt beam="2">  1       -2 0.54873104E-01 0.10553244E+04</pdfrwt>
<totfact> 0.11068281E+02</totfact>
</mgrwt>
</event>
<event>
12    1  0.1755460E-007  0.1129763E+04  0.7818608E-02  0.9176658E-01
          1   -1    0    0  501    0  0.00000000000E+00  0.00000000000E+00  0.75045938758E+03  0.75045938758E+03  0.00000000000E+00 0.  1.
         -1   -1    0    0    0  501 -0.00000000000E+00 -0.00000000000E+00 -0.42519466643E+03  0.42519466643E+03  0.00000000000E+00 0. -1.
         23    2    1    2    0    0  0.63315997473E+02 -0.94007810635E+02 -0.94569330812E+02  0.17368063226E+03  0.91516226405E+02 0.  0.
        254    2    1    2    0    0 -0.63315997473E+02  0.94007810635E+02  0.41983405196E+03  0.10019734217E+04  0.90268694613E+03 0.  0.
        -24    2    4    4    0    0  0.37592730270E+03  0.29339554607E+02  0.39239147376E+03  0.54977905142E+03  0.78126758038E+02 0.  0.
         24    2    4    4    0    0 -0.43924330017E+03  0.64668256028E+02  0.27442578202E+02  0.45219437033E+03  0.81301865766E+02 0.  0.
         11    1    3    3    0    0  0.28453643135E+02 -0.36282423641E+02  0.11929128943E+02  0.47626969148E+02  0.00000000000E+00 0.  1.
        -11    1    3    3    0    0  0.34862354339E+02 -0.57725386994E+02 -0.10649845976E+03  0.12605366311E+03  0.00000000000E+00 0. -1.
          4    1    6    6  502    0 -0.37880076768E+03  0.42269150034E+02  0.48858233247E+02  0.38427051617E+03  0.00000000000E+00 0. -1.
          1    1    5    5  503    0  0.31515852790E+03 -0.32952265958E+01  0.33598068985E+03  0.46067209615E+03  0.00000000000E+00 0. -1.
         -2    1    5    5    0  503  0.60768774803E+02  0.32634781203E+02  0.56410783910E+02  0.89106955265E+02  0.00000000000E+00 0.  1.
         -3    1    6    6    0  502 -0.60442532490E+02  0.22399105994E+02 -0.21415655045E+02  0.67923854162E+02  0.00000000000E+00 0.  1.
<mgrwt>
<rscale>  0 0.11297634E+04</rscale>
<asrwt>0</asrwt>
<pdfrwt beam="1">  1        1 0.11545529E+00 0.11297634E+04</pdfrwt>
<pdfrwt beam="2">  1       -1 0.65414564E-01 0.11297634E+04</pdfrwt>
<totfact> 0.57665424E+01</totfact>
</mgrwt>
</event>
<event>
12    1  0.1755460E-007  0.1271289E+04  0.7818608E-02  0.9052649E-01
         -1   -1    0    0    0  501 -0.00000000000E+00  0.00000000000E+00  0.33694246705E+03  0.33694246705E+03  0.00000000000E+00 0.  1.
          1   -1    0    0  501    0  0.00000000000E+00 -0.00000000000E+00 -0.11991471969E+04  0.11991471969E+04  0.00000000000E+00 0. -1.
         23    2    1    2    0    0 -0.12234274044E+03  0.23546525273E+03 -0.38778619756E+02  0.28232206821E+03  0.88262888405E+02 0.  0.
        254    2    1    2    0    0  0.12234274044E+03 -0.23546525273E+03 -0.82342611005E+03  0.12537675957E+04  0.90746404552E+03 0.  0.
        -24    2    4    4    0    0  0.29374035754E+03 -0.23653401202E+03 -0.95032748339E+03  0.10258819945E+04  0.84141573738E+02 0.  0.
         24    2    4    4    0    0 -0.17139761710E+03  0.10687592961E+01  0.12690137334E+03  0.22788560121E+03  0.80309422161E+02 0.  0.
         13    1    3    3    0    0  0.83263796949E-01 -0.54647567395E+01  0.62970930850E+01  0.83380981286E+01  0.00000000000E+00 0. -1.
        -13    1    3    3    0    0 -0.12242600423E+03  0.24093000947E+03 -0.45075712841E+02  0.27398397008E+03  0.00000000000E+00 0.  1.
          4    1    6    6  502    0 -0.27691806156E+02  0.27642283029E+02  0.90871012958E+01  0.40168487016E+02  0.00000000000E+00 0. -1.
          1    1    5    5  503    0  0.13952978322E+03 -0.16590868565E+03 -0.53736332880E+03  0.57944249026E+03  0.00000000000E+00 0. -1.
         -2    1    5    5    0  503  0.15421057432E+03 -0.70625326377E+02 -0.41296415459E+03  0.44643950422E+03  0.00000000000E+00 0.  1.
         -3    1    6    6    0  502 -0.14370581095E+03 -0.26573523733E+02  0.11781427204E+03  0.18771711419E+03  0.00000000000E+00 0.  1.
<mgrwt>
<rscale>  0 0.12712885E+04</rscale>
<asrwt>0</asrwt>
<pdfrwt beam="1">  1        1 0.18448419E+00 0.12712885E+04</pdfrwt>
<pdfrwt beam="2">  1       -1 0.51837302E-01 0.12712885E+04</pdfrwt>
<totfact> 0.39461832E+01</totfact>
</mgrwt>
</event>
<event>
12    1  0.1755460E-007  0.2523059E+04  0.7818608E-02  0.8394816E-01
         -1   -1    0    0    0  501 -0.00000000000E+00  0.00000000000E+00  0.10632135502E+04  0.10632135502E+04  0.00000000000E+00 0.  1.
          1   -1    0    0  501    0  0.00000000000E+00 -0.00000000000E+00 -0.14968365091E+04  0.14968365091E+04  0.00000000000E+00 0. -1.
         23    2    1    2    0    0 -0.14688034488E+03 -0.85120227172E+03  0.50250752736E+03  0.10035517119E+04  0.92103638480E+02 0.  0.
        254    2    1    2    0    0  0.14688034488E+03  0.85120227172E+03 -0.93613048624E+03  0.15564983475E+04  0.89455445635E+03 0.  0.
        -24    2    4    4    0    0  0.31859538594E+03 -0.38896922254E+02 -0.30043420662E+03  0.44677021259E+03  0.79541937655E+02 0.  0.
         24    2    4    4    0    0 -0.17171504106E+03  0.89009919397E+03 -0.63569627962E+03  0.11097281349E+04  0.74994286639E+02 0.  0.
         13    1    3    3    0    0 -0.59597249215E+02 -0.51163750818E+03  0.25790331281E+03  0.57605458999E+03  0.00000000000E+00 0.  1.
        -13    1    3    3    0    0 -0.87283095660E+02 -0.33956476354E+03  0.24460421456E+03  0.42749712186E+03  0.00000000000E+00 0. -1.
          2    1    6    6  502    0  0.73532111890E+01  0.43155325547E+02 -0.26192957933E+02  0.51014928042E+02  0.00000000000E+00 0. -1.
          3    1    5    5  503    0  0.64693033935E+02  0.12731042897E+02 -0.97301720303E+02  0.11753677240E+03  0.00000000000E+00 0. -1.
         -4    1    5    5    0  503  0.25390235201E+03 -0.51627965151E+02 -0.20313248632E+03  0.32923344019E+03  0.00000000000E+00 0.  1.
         -1    1    6    6    0  502 -0.17906825225E+03  0.84694386843E+03 -0.60950332169E+03  0.10587132069E+04  0.00000000000E+00 0.  1.
<mgrwt>
<rscale>  0 0.25230591E+04</rscale>
<asrwt>0</asrwt>
<pdfrwt beam="1">  1        1 0.23028254E+00 0.25230591E+04</pdfrwt>
<pdfrwt beam="2">  1       -1 0.16357132E+00 0.25230591E+04</pdfrwt>
<totfact> 0.16012318E+00</totfact>
</mgrwt>
</event>
<event>
12    1  0.1755460E-007  0.1328435E+04  0.7818608E-02  0.9007315E-01
         -1   -1    0    0    0  501 -0.00000000000E+00  0.00000000000E+00  0.28475142811E+03  0.28475142811E+03  0.00000000000E+00 0.  1.
          1   -1    0    0  501    0  0.00000000000E+00 -0.00000000000E+00 -0.15493677465E+04  0.15493677465E+04  0.00000000000E+00 0. -1.
         23    2    1    2    0    0 -0.20121097628E+03  0.28405107295E+03 -0.25967828660E+03  0.44255588199E+03  0.85158834742E+02 0.  0.
        254    2    1    2    0    0  0.20121097628E+03 -0.28405107295E+03 -0.10049380318E+04  0.13915632927E+04  0.89742803647E+03 0.  0.
        -24    2    4    4    0    0  0.10340478527E+03 -0.56614914523E+03 -0.37925962032E+03  0.69380907813E+03  0.79471838031E+02 0.  0.
         24    2    4    4    0    0  0.97806191003E+02  0.28209807228E+03 -0.62567841151E+03  0.69775421452E+03  0.79006935641E+02 0.  0.
         13    1    3    3    0    0 -0.13136703679E+03  0.17012300768E+03 -0.20851834877E+03  0.29946458533E+03  0.00000000000E+00 0.  1.
        -13    1    3    3    0    0 -0.69843939491E+02  0.11392806527E+03 -0.51159937831E+02  0.14309129666E+03  0.00000000000E+00 0. -1.
          2    1    6    6  502    0  0.33682382709E+01  0.10714632982E+03 -0.26594336936E+03  0.28673604017E+03  0.00000000000E+00 0. -1.
          1    1    5    5  503    0  0.32082933893E+02 -0.20794797194E+03 -0.18476791184E+03  0.28001938312E+03  0.00000000000E+00 0. -1.
         -2    1    5    5    0  503  0.71321851380E+02 -0.35820117329E+03 -0.19449170848E+03  0.41378969501E+03  0.00000000000E+00 0.  1.
         -1    1    6    6    0  502  0.94437952732E+02  0.17495174246E+03 -0.35973504214E+03  0.41101817435E+03  0.00000000000E+00 0.  1.
<mgrwt>
<rscale>  0 0.13284347E+04</rscale>
<asrwt>0</asrwt>
<pdfrwt beam="1">  1        1 0.23836427E+00 0.13284347E+04</pdfrwt>
<pdfrwt beam="2">  1       -1 0.43807912E-01 0.13284347E+04</pdfrwt>
<totfact> 0.30523199E+01</totfact>
</mgrwt>
</event>
<event>
12    1  0.1755460E-007  0.1920245E+04  0.7818608E-02  0.8644844E-01
          1   -1    0    0  501    0  0.00000000000E+00  0.00000000000E+00  0.18626527544E+04  0.18626527544E+04  0.00000000000E+00 0. -1.
         -1   -1    0    0    0  501 -0.00000000000E+00 -0.00000000000E+00 -0.49490435425E+03  0.49490435425E+03  0.00000000000E+00 0.  1.
         23    2    1    2    0    0  0.50310105084E+03 -0.19110567421E+03  0.11609876115E+04  0.12828766735E+04  0.90820037745E+02 0.  0.
        254    2    1    2    0    0 -0.50310105084E+03  0.19110567421E+03  0.20676078868E+03  0.10746804352E+04  0.90694871297E+03 0.  0.
        -24    2    4    4    0    0 -0.73300365430E+03  0.88735377611E+02  0.29046687692E+03  0.79731774553E+03  0.78589161451E+02 0.  0.
         24    2    4    4    0    0  0.22990260345E+03  0.10237029660E+03 -0.83706088242E+02  0.27736268965E+03  0.81169376626E+02 0.  0.
         11    1    3    3    0    0  0.28062231262E+03 -0.14708860778E+03  0.73209557659E+03  0.79771415566E+03  0.00000000000E+00 0. -1.
        -11    1    3    3    0    0  0.22247873822E+03 -0.44017066431E+02  0.42889203492E+03  0.48516251784E+03  0.00000000000E+00 0.  1.
          2    1    6    6  502    0  0.22629427253E+03  0.11113499266E+03 -0.87903532949E+02  0.26699647091E+03  0.00000000000E+00 0. -1.
          3    1    5    5  503    0 -0.62595483907E+03  0.50899102317E+02  0.23107184805E+03  0.66918187224E+03  0.00000000000E+00 0. -1.
         -4    1    5    5    0  503 -0.10704881522E+03  0.37836275294E+02  0.59395028870E+02  0.12813587329E+03  0.00000000000E+00 0.  1.
         -1    1    6    6    0  502  0.36083309256E+01 -0.87646960564E+01  0.41974447061E+01  0.10366218746E+02  0.00000000000E+00 0.  1.
<mgrwt>
<rscale>  0 0.19202447E+04</rscale>
<asrwt>0</asrwt>
<pdfrwt beam="1">  1        1 0.28656196E+00 0.19202447E+04</pdfrwt>
<pdfrwt beam="2">  1       -1 0.76139132E-01 0.19202447E+04</pdfrwt>
<totfact> 0.59753575E+00</totfact>
</mgrwt>
</event>
<event>
12    1  0.1755460E-007  0.1515994E+04  0.7818608E-02  0.8873886E-01
          2   -1    0    0  501    0  0.00000000000E+00  0.00000000000E+00  0.39193665712E+03  0.39193665712E+03  0.00000000000E+00 0. -1.
         -2   -1    0    0    0  501 -0.00000000000E+00 -0.00000000000E+00 -0.14659490056E+04  0.14659490056E+04  0.00000000000E+00 0.  1.
         23    2    1    2    0    0  0.24676440977E+03 -0.95994347062E+02  0.15305875932E+03  0.31868482274E+03  0.89584841592E+02 0.  0.
        254    2    1    2    0    0 -0.24676440977E+03  0.95994347062E+02 -0.12270711077E+04  0.15392008399E+04  0.89068969546E+03 0.  0.
        -24    2    4    4    0    0 -0.30651808579E+03 -0.34552496077E+03 -0.52138247900E+03  0.70085981485E+03  0.77614143219E+02 0.  0.
         24    2    4    4    0    0  0.59753676021E+02  0.44151930783E+03 -0.70568862875E+03  0.83834102509E+03  0.79431937058E+02 0.  0.
         13    1    3    3    0    0  0.13418603114E+03 -0.11442873817E+02  0.10191829383E+03  0.16889099719E+03  0.00000000000E+00 0. -1.
        -13    1    3    3    0    0  0.11257837863E+03 -0.84551473245E+02  0.51140465493E+02  0.14979382555E+03  0.00000000000E+00 0.  1.
          4    1    6    6  502    0 -0.11479246657E+02  0.14498480811E+03 -0.19077363561E+03  0.23988944898E+03  0.00000000000E+00 0. -1.
          3    1    5    5  503    0 -0.16259647299E+03 -0.22600170361E+03 -0.34920067915E+03  0.44660440815E+03  0.00000000000E+00 0. -1.
         -4    1    5    5    0  503 -0.14392161280E+03 -0.11952325715E+03 -0.17218179985E+03  0.25425540669E+03  0.00000000000E+00 0.  1.
         -3    1    6    6    0  502  0.71232922678E+02  0.29653449972E+03 -0.51491499314E+03  0.59845157611E+03  0.00000000000E+00 0.  1.
<mgrwt>
<rscale>  0 0.15159936E+04</rscale>
<asrwt>0</asrwt>
<pdfrwt beam="1">  1        2 0.60297948E-01 0.15159936E+04</pdfrwt>
<pdfrwt beam="2">  1       -2 0.22553061E+00 0.15159936E+04</pdfrwt>
<totfact> 0.71582213E+00</totfact>
</mgrwt>
</event>
<event>
12    1  0.1755460E-007  0.1690817E+04  0.7818608E-02  0.8766619E-01
          1   -1    0    0  501    0  0.00000000000E+00  0.00000000000E+00  0.17153880649E+04  0.17153880649E+04  0.00000000000E+00 0. -1.
         -1   -1    0    0    0  501 -0.00000000000E+00 -0.00000000000E+00 -0.41664930173E+03  0.41664930173E+03  0.00000000000E+00 0.  1.
         23    2    1    2    0    0  0.30312147363E+02 -0.50066787220E+03  0.49747208168E+02  0.51217413043E+03  0.90886801207E+02 0.  0.
        254    2    1    2    0    0 -0.30312147363E+02  0.50066787220E+03  0.12489915550E+04  0.16198632362E+04  0.90132671935E+03 0.  0.
        -24    2    4    4    0    0 -0.38527041440E+03  0.70076673784E+02  0.81782147413E+03  0.91021036871E+03  0.79416115094E+02 0.  0.
         24    2    4    4    0    0  0.35495826704E+03  0.43059119841E+03  0.43117008090E+03  0.70965286752E+03  0.79343570781E+02 0.  0.
         13    1    3    3    0    0  0.46388480239E+02 -0.16003371329E+03  0.38311361773E+02  0.17096912274E+03  0.00000000000E+00 0. -1.
        -13    1    3    3    0    0 -0.16076332875E+02 -0.34063415891E+03  0.11435846395E+02  0.34120500769E+03  0.00000000000E+00 0.  1.
          2    1    6    6  502    0  0.11696031956E+03  0.18579644503E+03  0.20295712216E+03  0.29898432864E+03  0.00000000000E+00 0. -1.
          1    1    5    5  503    0 -0.32276504678E+03  0.37246912687E+02  0.61664759202E+03  0.69700707361E+03  0.00000000000E+00 0. -1.
         -2    1    5    5    0  503 -0.62505367622E+02  0.32829761097E+02  0.20117388212E+03  0.21320329510E+03  0.00000000000E+00 0.  1.
         -1    1    6    6    0  502  0.23799794747E+03  0.24479475338E+03  0.22821295874E+03  0.41066853888E+03  0.00000000000E+00 0.  1.
<mgrwt>
<rscale>  0 0.16908167E+04</rscale>
<asrwt>0</asrwt>
<pdfrwt beam="1">  1        1 0.26390585E+00 0.16908167E+04</pdfrwt>
<pdfrwt beam="2">  1       -1 0.64099894E-01 0.16908167E+04</pdfrwt>
<totfact> 0.10934668E+01</totfact>
</mgrwt>
</event>
<event>
12    1  0.1755460E-007  0.1829903E+04  0.7818608E-02  0.8690557E-01
         -2   -1    0    0    0  501 -0.00000000000E+00  0.00000000000E+00  0.42931483647E+03  0.42931483647E+03  0.00000000000E+00 0.  1.
          2   -1    0    0  501    0  0.00000000000E+00 -0.00000000000E+00 -0.19499349523E+04  0.19499349523E+04  0.00000000000E+00 0. -1.
         23    2    1    2    0    0  0.65693293829E+03 -0.53110771708E+01 -0.84714438364E+03  0.10755085008E+04  0.86462914218E+02 0.  0.
        254    2    1    2    0    0 -0.65693293829E+03  0.53110771708E+01 -0.67347573217E+03  0.13037412880E+04  0.90254234871E+03 0.  0.
        -24    2    4    4    0    0 -0.66016852675E+03 -0.14268638822E+02 -0.41324799395E+02  0.66635071992E+03  0.79306148123E+02 0.  0.
         24    2    4    4    0    0  0.32355884584E+01  0.19579715993E+02 -0.63215093278E+03  0.63739056806E+03  0.79108154669E+02 0.  0.
         13    1    3    3    0    0  0.57854658702E+03 -0.10399447051E+02 -0.69556334849E+03  0.90478321912E+03  0.00000000000E+00 0.  1.
        -13    1    3    3    0    0  0.78386351274E+02  0.50883698801E+01 -0.15158103515E+03  0.17072528164E+03  0.00000000000E+00 0. -1.
          4    1    6    6  502    0  0.15664809300E+02  0.44453393824E+02 -0.50708842470E+03  0.50927415106E+03  0.00000000000E+00 0. -1.
          3    1    5    5  503    0 -0.64626686732E+03 -0.11707627280E+02 -0.28084579234E+02  0.64698274778E+03  0.00000000000E+00 0. -1.
         -4    1    5    5    0  503 -0.13901659428E+02 -0.25610115422E+01 -0.13240220161E+02  0.19367972142E+02  0.00000000000E+00 0.  1.
         -3    1    6    6    0  502 -0.12429220841E+02 -0.24873677830E+02 -0.12506250808E+03  0.12811641700E+03  0.00000000000E+00 0.  1.
<mgrwt>
<rscale>  0 0.18299027E+04</rscale>
<asrwt>0</asrwt>
<pdfrwt beam="1">  1        2 0.29998999E+00 0.18299027E+04</pdfrwt>
<pdfrwt beam="2">  1       -2 0.66048437E-01 0.18299027E+04</pdfrwt>
<totfact> 0.14149418E+01</totfact>
</mgrwt>
</event>
<event>
12    1  0.1755460E-007  0.1241641E+04  0.7818608E-02  0.9077169E-01
         -1   -1    0    0    0  501 -0.00000000000E+00  0.00000000000E+00  0.22069957337E+03  0.22069957337E+03  0.00000000000E+00 0.  1.
          1   -1    0    0  501    0  0.00000000000E+00 -0.00000000000E+00 -0.17463467198E+04  0.17463467198E+04  0.00000000000E+00 0. -1.
         23    2    1    2    0    0 -0.79482824536E+02  0.24485501102E+03 -0.54742238160E+03  0.61192536465E+03  0.92249077035E+02 0.  0.
        254    2    1    2    0    0  0.79482824536E+02 -0.24485501102E+03 -0.97822476488E+03  0.13551209286E+04  0.90175248521E+03 0.  0.
        -24    2    4    4    0    0  0.42691784576E+03  0.31507229938E+02 -0.70256221985E+03  0.82642979391E+03  0.78364398388E+02 0.  0.
         24    2    4    4    0    0 -0.34743502123E+03 -0.27636224096E+03 -0.27566254503E+03  0.52869113465E+03  0.80232754687E+02 0.  0.
         11    1    3    3    0    0 -0.72210995024E+02  0.18099483577E+03 -0.31172831236E+03  0.36762494353E+03  0.00000000000E+00 0. -1.
        -11    1    3    3    0    0 -0.72718295113E+01  0.63860175249E+02 -0.23569406924E+03  0.24430042112E+03  0.00000000000E+00 0.  1.
          4    1    6    6  502    0 -0.13015628372E+03 -0.14217443333E+03 -0.14900462762E+03  0.24363211351E+03  0.00000000000E+00 0. -1.
          3    1    5    5  503    0  0.54714833258E+02 -0.21407087394E+02 -0.82068988682E+02  0.10093213201E+03  0.00000000000E+00 0. -1.
         -4    1    5    5    0  503  0.37220301250E+03  0.52914317332E+02 -0.62049323117E+03  0.72549766190E+03  0.00000000000E+00 0.  1.
         -3    1    6    6    0  502 -0.21727873750E+03 -0.13418780763E+03 -0.12665791741E+03  0.28505902113E+03  0.00000000000E+00 0.  1.
<mgrwt>
<rscale>  0 0.12416408E+04</rscale>
<asrwt>0</asrwt>
<pdfrwt beam="1">  1        1 0.26866872E+00 0.12416408E+04</pdfrwt>
<pdfrwt beam="2">  1       -1 0.33953781E-01 0.12416408E+04</pdfrwt>
<totfact> 0.35842380E+01</totfact>
</mgrwt>
</event>
<event>
12    1  0.1755460E-007  0.1873357E+04  0.7818608E-02  0.8668233E-01
         -2   -1    0    0    0  501 -0.00000000000E+00  0.00000000000E+00  0.28120985969E+03  0.28120985969E+03  0.00000000000E+00 0.  1.
          2   -1    0    0  501    0  0.00000000000E+00 -0.00000000000E+00 -0.31199724519E+04  0.31199724519E+04  0.00000000000E+00 0. -1.
         23    2    1    2    0    0 -0.33599454258E+03  0.61404543782E+03 -0.85027283653E+03  0.11050779155E+04  0.91044881571E+02 0.  0.
        254    2    1    2    0    0  0.33599454258E+03 -0.61404543782E+03 -0.19884897556E+04  0.22961043960E+04  0.90997788812E+03 0.  0.
        -24    2    4    4    0    0  0.14946723731E+03  0.17886521623E+03 -0.16313612328E+03  0.29560976210E+03  0.80240364665E+02 0.  0.
         24    2    4    4    0    0  0.18652730527E+03 -0.79291065405E+03 -0.18253536324E+04  0.20004946339E+04  0.81013309704E+02 0.  0.
         13    1    3    3    0    0 -0.33265697608E+03  0.59917926001E+03 -0.80448650160E+03  0.10568230602E+04  0.00000000000E+00 0. -1.
        -13    1    3    3    0    0 -0.33375664980E+01  0.14866177815E+02 -0.45786334928E+02  0.48254855290E+02  0.00000000000E+00 0.  1.
          4    1    6    6  502    0  0.75677732624E+02 -0.49344145524E+03 -0.11224096090E+04  0.12284196837E+04  0.00000000000E+00 0. -1.
          1    1    5    5  503    0  0.14101397851E+03  0.16304621958E+03 -0.17183634646E+03  0.27567506565E+03  0.00000000000E+00 0. -1.
         -2    1    5    5    0  503  0.84532587965E+01  0.15818996649E+02  0.87002231749E+01  0.19934696450E+02  0.00000000000E+00 0.  1.
         -3    1    6    6    0  502  0.11084957264E+03 -0.29946919881E+03 -0.70294402334E+03  0.77207495021E+03  0.00000000000E+00 0.  1.
<mgrwt>
<rscale>  0 0.18733574E+04</rscale>
<asrwt>0</asrwt>
<pdfrwt beam="1">  1        2 0.47999580E+00 0.18733574E+04</pdfrwt>
<pdfrwt beam="2">  1       -2 0.43263052E-01 0.18733574E+04</pdfrwt>
<totfact> 0.69753462E+00</totfact>
</mgrwt>
</event>
<event>
12    1  0.1755460E-007  0.1337125E+04  0.7818608E-02  0.9000632E-01
         -2   -1    0    0    0  501 -0.00000000000E+00  0.00000000000E+00  0.19171426515E+03  0.19171426515E+03  0.00000000000E+00 0.  1.
          2   -1    0    0  501    0  0.00000000000E+00 -0.00000000000E+00 -0.23314681171E+04  0.23314681171E+04  0.00000000000E+00 0. -1.
         23    2    1    2    0    0 -0.19569531001E+03  0.27800566164E+03 -0.41255086110E+03  0.54244299192E+03  0.91991218204E+02 0.  0.
        254    2    1    2    0    0  0.19569531001E+03 -0.27800566164E+03 -0.17272029908E+04  0.19807393903E+04  0.90802784016E+03 0.  0.
        -24    2    4    4    0    0  0.38571682085E+03 -0.11074926627E+03 -0.24942142120E+03  0.47931498966E+03  0.80554007287E+02 0.  0.
         24    2    4    4    0    0 -0.19002151083E+03 -0.16725639537E+03 -0.14777815696E+04  0.15014244006E+04  0.79711899735E+02 0.  0.
         13    1    3    3    0    0 -0.84778509718E+02  0.76147673515E+02 -0.19364415984E+03  0.22468628025E+03  0.00000000000E+00 0. -1.
        -13    1    3    3    0    0 -0.11091680030E+03  0.20185798813E+03 -0.21890670126E+03  0.31775671168E+03  0.00000000000E+00 0.  1.
          2    1    6    6  502    0 -0.19226614447E+03 -0.17016705462E+03 -0.14738308984E+04  0.14960282797E+04  0.00000000000E+00 0. -1.
          3    1    5    5  503    0  0.31645943492E+03 -0.10175061444E+03 -0.16935651225E+03  0.37307022091E+03  0.00000000000E+00 0. -1.
         -4    1    5    5    0  503  0.69257385926E+02 -0.89986518394E+01 -0.80064908955E+02  0.10624476875E+03  0.00000000000E+00 0.  1.
         -1    1    6    6    0  502  0.22446336388E+01  0.29106592528E+01 -0.39506712496E+01  0.53961209012E+01  0.00000000000E+00 0.  1.
<mgrwt>
<rscale>  0 0.13371248E+04</rscale>
<asrwt>0</asrwt>
<pdfrwt beam="1">  1        2 0.35868737E+00 0.13371248E+04</pdfrwt>
<pdfrwt beam="2">  1       -2 0.29494505E-01 0.13371248E+04</pdfrwt>
<totfact> 0.45149712E+01</totfact>
</mgrwt>
</event>
<event>
12    1  0.1755460E-007  0.1471848E+04  0.7818608E-02  0.8903392E-01
         -2   -1    0    0    0  501 -0.00000000000E+00  0.00000000000E+00  0.26540537278E+03  0.26540537278E+03  0.00000000000E+00 0.  1.
          2   -1    0    0  501    0  0.00000000000E+00 -0.00000000000E+00 -0.20405928438E+04  0.20405928438E+04  0.00000000000E+00 0. -1.
         23    2    1    2    0    0 -0.13653162518E+03  0.18488999282E+02 -0.12306563941E+04  0.12415952942E+04  0.89782996267E+02 0.  0.
        254    2    1    2    0    0  0.13653162518E+03 -0.18488999282E+02 -0.54453107690E+03  0.10644029224E+04  0.90413315375E+03 0.  0.
        -24    2    4    4    0    0 -0.49036232167E+02 -0.41402207497E+03 -0.10126451466E+03  0.43671517529E+03  0.81527981523E+02 0.  0.
         24    2    4    4    0    0  0.18556785735E+03  0.39553307569E+03 -0.44326656223E+03  0.62768774709E+03  0.81392991169E+02 0.  0.
         11    1    3    3    0    0 -0.12468020493E+03 -0.17996956204E+02 -0.96254339597E+03  0.97075168455E+03  0.00000000000E+00 0. -1.
        -11    1    3    3    0    0 -0.11851420249E+02  0.36485955485E+02 -0.26811299815E+03  0.27084360965E+03  0.00000000000E+00 0.  1.
          4    1    6    6  502    0  0.10013154827E+03  0.25419077028E+03 -0.22468824874E+03  0.35372882802E+03  0.00000000000E+00 0. -1.
          1    1    5    5  503    0 -0.13687568608E+02 -0.30993109311E+03 -0.10265758308E+03  0.32677700558E+03  0.00000000000E+00 0. -1.
         -2    1    5    5    0  503 -0.35348663558E+02 -0.10409098186E+03  0.13930684181E+01  0.10993816971E+03  0.00000000000E+00 0.  1.
         -3    1    6    6    0  502  0.85436309079E+02  0.14134230541E+03 -0.21857831349E+03  0.27395891907E+03  0.00000000000E+00 0.  1.
<mgrwt>
<rscale>  0 0.14718482E+04</rscale>
<asrwt>0</asrwt>
<pdfrwt beam="1">  1        2 0.31393736E+00 0.14718482E+04</pdfrwt>
<pdfrwt beam="2">  1       -2 0.40831595E-01 0.14718482E+04</pdfrwt>
<totfact> 0.34898822E+01</totfact>
</mgrwt>
</event>
<event>
12    1  0.1755460E-007  0.1618496E+04  0.7818608E-02  0.8809265E-01
         -2   -1    0    0    0  501 -0.00000000000E+00  0.00000000000E+00  0.72506900592E+03  0.72506900592E+03  0.00000000000E+00 0.  1.
          2   -1    0    0  501    0  0.00000000000E+00 -0.00000000000E+00 -0.90319954210E+03  0.90319954210E+03  0.00000000000E+00 0. -1.
         23    2    1    2    0    0  0.51828945910E+03 -0.15501687502E+03  0.36404268154E+02  0.54977414182E+03  0.90951312868E+02 0.  0.
        254    2    1    2    0    0 -0.51828945910E+03  0.15501687502E+03 -0.21453480433E+03  0.10784944062E+04  0.90800374834E+03 0.  0.
        -24    2    4    4    0    0 -0.51366163745E+03  0.27304859940E+03 -0.49107030068E+03  0.76547969937E+03  0.80033208781E+02 0.  0.
         24    2    4    4    0    0 -0.46278216502E+01 -0.11803172438E+03  0.27653549634E+03  0.31301470684E+03  0.86910420931E+02 0.  0.
         11    1    3    3    0    0  0.13551175833E+03 -0.86195808061E+01 -0.15561561382E+02  0.13667441608E+03  0.00000000000E+00 0. -1.
        -11    1    3    3    0    0  0.38277770078E+03 -0.14639729421E+03  0.51965829537E+02  0.41309972574E+03  0.00000000000E+00 0.  1.
          2    1    6    6  502    0  0.17101378221E+02 -0.28241854673E+02  0.16460921289E+03  0.16788761854E+03  0.00000000000E+00 0. -1.
          1    1    5    5  503    0 -0.76516625453E+02  0.61191267806E+02 -0.53214142138E+02  0.11149399154E+03  0.00000000000E+00 0. -1.
         -2    1    5    5    0  503 -0.43714501200E+03  0.21185733159E+03 -0.43785615854E+03  0.65398570782E+03  0.00000000000E+00 0.  1.
         -1    1    6    6    0  502 -0.21729199871E+02 -0.89789869710E+02  0.11192628346E+03  0.14512708830E+03  0.00000000000E+00 0.  1.
<mgrwt>
<rscale>  0 0.16184956E+04</rscale>
<asrwt>0</asrwt>
<pdfrwt beam="1">  1        2 0.13895378E+00 0.16184956E+04</pdfrwt>
<pdfrwt beam="2">  1       -2 0.11154908E+00 0.16184956E+04</pdfrwt>
<totfact> 0.17744901E+01</totfact>
</mgrwt>
</event>
<event>
12    1  0.1755460E-007  0.1751613E+04  0.7818608E-02  0.8732463E-01
         -2   -1    0    0    0  501 -0.00000000000E+00  0.00000000000E+00  0.38479286306E+03  0.38479286306E+03  0.00000000000E+00 0.  1.
          2   -1    0    0  501    0  0.00000000000E+00 -0.00000000000E+00 -0.19933753036E+04  0.19933753036E+04  0.00000000000E+00 0. -1.
         23    2    1    2    0    0 -0.52658373242E+03  0.11523133130E+03 -0.12735943269E+03  0.56125766738E+03  0.90670045375E+02 0.  0.
        254    2    1    2    0    0  0.52658373242E+03 -0.11523133130E+03 -0.14812230078E+04  0.18169104992E+04  0.90364455205E+03 0.  0.
        -24    2    4    4    0    0  0.61186956239E+03 -0.14801549722E+03 -0.44977053565E+03  0.77834159566E+03  0.85024443566E+02 0.  0.
         24    2    4    4    0    0 -0.85285829966E+02  0.32784165919E+02 -0.10314524721E+04  0.10385689036E+04  0.79891744553E+02 0.  0.
         11    1    3    3    0    0 -0.44369879256E+03  0.11082621018E+03 -0.13770730558E+03  0.47761320060E+03  0.00000000000E+00 0. -1.
        -11    1    3    3    0    0 -0.82884939867E+02  0.44051211180E+01  0.10347872889E+02  0.83644466775E+02  0.00000000000E+00 0.  1.
          2    1    6    6  502    0 -0.80215017462E+02  0.55503272174E+02 -0.86888111916E+03  0.87433944294E+03  0.00000000000E+00 0. -1.
          3    1    5    5  503    0  0.38568810380E+03 -0.54457623523E+02 -0.25530616831E+03  0.46572758749E+03  0.00000000000E+00 0. -1.
         -4    1    5    5    0  503  0.22618145859E+03 -0.93557873693E+02 -0.19446436734E+03  0.31261400817E+03  0.00000000000E+00 0.  1.
         -1    1    6    6    0  502 -0.50708125039E+01 -0.22719106255E+02 -0.16257135298E+03  0.16422946063E+03  0.00000000000E+00 0.  1.
<mgrwt>
<rscale>  0 0.17516125E+04</rscale>
<asrwt>0</asrwt>
<pdfrwt beam="1">  1        2 0.30667313E+00 0.17516125E+04</pdfrwt>
<pdfrwt beam="2">  1       -2 0.59198901E-01 0.17516125E+04</pdfrwt>
<totfact> 0.17016188E+01</totfact>
</mgrwt>
</event>
<event>
12    1  0.1755460E-007  0.2233000E+04  0.7818608E-02  0.8504817E-01
          2   -1    0    0  501    0  0.00000000000E+00  0.00000000000E+00  0.25009371601E+04  0.25009371601E+04  0.00000000000E+00 0. -1.
         -2   -1    0    0    0  501 -0.00000000000E+00 -0.00000000000E+00 -0.49844191830E+03  0.49844191830E+03  0.00000000000E+00 0.  1.
         23    2    1    2    0    0  0.74927975404E+02  0.49825409634E+03  0.18983158379E+04  0.19661682445E+04  0.91341113867E+02 0.  0.
        254    2    1    2    0    0 -0.74927975404E+02 -0.49825409634E+03  0.10417940382E+03  0.10332108339E+04  0.89599103400E+03 0.  0.
        -24    2    4    4    0    0 -0.42117649827E+03 -0.43449563977E+03 -0.99426781110E+02  0.61859799573E+03  0.81250795988E+02 0.  0.
         24    2    4    4    0    0  0.34624852287E+03 -0.63758456568E+02  0.20360618492E+03  0.41461283812E+03  0.80592472508E+02 0.  0.
         13    1    3    3    0    0  0.23129443683E+02  0.38960038981E+03  0.15101181138E+04  0.15597372063E+04  0.00000000000E+00 0.  1.
        -13    1    3    3    0    0  0.51798531721E+02  0.10865370653E+03  0.38819772410E+03  0.40643103822E+03  0.00000000000E+00 0. -1.
          2    1    6    6  502    0  0.30192722508E+02 -0.31891660716E+01  0.48879432404E+02  0.57541030446E+02  0.00000000000E+00 0. -1.
          3    1    5    5  503    0 -0.12510481084E+03 -0.14855119222E+03  0.37671556905E+01  0.19424948357E+03  0.00000000000E+00 0. -1.
         -4    1    5    5    0  503 -0.29607168743E+03 -0.28594444755E+03 -0.10319393680E+03  0.42434851216E+03  0.00000000000E+00 0.  1.
         -1    1    6    6    0  502  0.31605580036E+03 -0.60569290496E+02  0.15472675252E+03  0.35707180768E+03  0.00000000000E+00 0.  1.
<mgrwt>
<rscale>  0 0.22329997E+04</rscale>
<asrwt>0</asrwt>
<pdfrwt beam="1">  1        2 0.38475956E+00 0.22329997E+04</pdfrwt>
<pdfrwt beam="2">  1       -2 0.76683374E-01 0.22329997E+04</pdfrwt>
<totfact> 0.48171824E+00</totfact>
</mgrwt>
</event>
<event>
12    1  0.1755460E-007  0.1349799E+04  0.7818608E-02  0.8990980E-01
         -1   -1    0    0    0  501 -0.00000000000E+00  0.00000000000E+00  0.61236540008E+03  0.61236540008E+03  0.00000000000E+00 0.  1.
          1   -1    0    0  501    0  0.00000000000E+00 -0.00000000000E+00 -0.74381932858E+03  0.74381932858E+03  0.00000000000E+00 0. -1.
         23    2    1    2    0    0  0.13069985496E+03 -0.18893347995E+03  0.25911029722E+03  0.35751499793E+03  0.88884845095E+02 0.  0.
        254    2    1    2    0    0 -0.13069985496E+03  0.18893347995E+03 -0.39056422573E+03  0.99866973073E+03  0.88995646226E+03 0.  0.
        -24    2    4    4    0    0  0.30660181531E+03  0.30393847849E+03 -0.83900878997E+02  0.44653591010E+03  0.77276708359E+02 0.  0.
         24    2    4    4    0    0 -0.43730167027E+03 -0.11500499854E+03 -0.30666334673E+03  0.55213382063E+03  0.79689692834E+02 0.  0.
         13    1    3    3    0    0  0.15277350916E+02 -0.16078505562E+02 -0.36593783791E+01  0.22479031168E+02  0.00000000000E+00 0. -1.
        -13    1    3    3    0    0  0.11542250405E+03 -0.17285497439E+03  0.26276967560E+03  0.33503596677E+03  0.00000000000E+00 0.  1.
          4    1    6    6  502    0 -0.10470747059E+03 -0.57372583275E+01 -0.10365400354E+03  0.14744735664E+03  0.00000000000E+00 0. -1.
          1    1    5    5  503    0  0.50964909172E+02  0.87373460073E+02 -0.39406512090E+02  0.10855605320E+03  0.00000000000E+00 0. -1.
         -2    1    5    5    0  503  0.25563690613E+03  0.21656501842E+03 -0.44494366907E+02  0.33797985689E+03  0.00000000000E+00 0.  1.
         -3    1    6    6    0  502 -0.33259419968E+03 -0.10926774021E+03 -0.20300934319E+03  0.40468646399E+03  0.00000000000E+00 0.  1.
<mgrwt>
<rscale>  0 0.13497988E+04</rscale>
<asrwt>0</asrwt>
<pdfrwt beam="1">  1        1 0.11443374E+00 0.13497988E+04</pdfrwt>
<pdfrwt beam="2">  1       -1 0.94210062E-01 0.13497988E+04</pdfrwt>
<totfact> 0.26509146E+01</totfact>
</mgrwt>
</event>
<event>
12    1  0.1755460E-007  0.1432917E+04  0.7818608E-02  0.8930330E-01
         -2   -1    0    0    0  501 -0.00000000000E+00  0.00000000000E+00  0.18030200818E+03  0.18030200818E+03  0.00000000000E+00 0.  1.
          2   -1    0    0  501    0  0.00000000000E+00 -0.00000000000E+00 -0.28469609128E+04  0.28469609128E+04  0.00000000000E+00 0. -1.
         23    2    1    2    0    0  0.84296825775E+02 -0.22710086795E+03 -0.16042011753E+04  0.16249454760E+04  0.91135229674E+02 0.  0.
        254    2    1    2    0    0 -0.84296825775E+02  0.22710086795E+03 -0.10624577293E+04  0.14023174450E+04  0.88260808449E+03 0.  0.
        -24    2    4    4    0    0 -0.42878416875E+03  0.27118619293E+03 -0.40518749222E+03  0.65453839372E+03  0.82739291744E+02 0.  0.
         24    2    4    4    0    0  0.34448734297E+03 -0.44085324979E+02 -0.65727023708E+03  0.74777905124E+03  0.80958628727E+02 0.  0.
         11    1    3    3    0    0  0.36738470396E+02 -0.19497811663E+03 -0.13377675429E+04  0.13524008947E+04  0.00000000000E+00 0. -1.
        -11    1    3    3    0    0  0.47558355379E+02 -0.32122751328E+02 -0.26643363235E+03  0.27254458125E+03  0.00000000000E+00 0.  1.
          4    1    6    6  502    0  0.23742543052E+02  0.12960052329E+02 -0.85912097178E+02  0.90069749352E+02  0.00000000000E+00 0. -1.
          1    1    5    5  503    0 -0.82062810799E+02  0.16956375381E+02 -0.74655048530E+02  0.11222833801E+03  0.00000000000E+00 0. -1.
         -4    1    5    5    0  503 -0.34672135795E+03  0.25422981755E+03 -0.33053244369E+03  0.54231005571E+03  0.00000000000E+00 0.  1.
         -3    1    6    6    0  502  0.32074479992E+03 -0.57045377308E+02 -0.57135813991E+03  0.65770930188E+03  0.00000000000E+00 0.  1.
<mgrwt>
<rscale>  0 0.14329170E+04</rscale>
<asrwt>0</asrwt>
<pdfrwt beam="1">  1        2 0.43799397E+00 0.14329170E+04</pdfrwt>
<pdfrwt beam="2">  1       -2 0.27738772E-01 0.14329170E+04</pdfrwt>
<totfact> 0.25103906E+01</totfact>
</mgrwt>
</event>
<event>
12    1  0.1755460E-007  0.1415111E+04  0.7818608E-02  0.8942953E-01
          1   -1    0    0  501    0  0.00000000000E+00  0.00000000000E+00  0.46880182089E+03  0.46880182089E+03  0.00000000000E+00 0. -1.
         -1   -1    0    0    0  501 -0.00000000000E+00 -0.00000000000E+00 -0.10679026759E+04  0.10679026759E+04  0.00000000000E+00 0.  1.
         23    2    1    2    0    0 -0.15476556286E+02  0.32653971389E+03 -0.46742917525E+03  0.57789176173E+03  0.92742362796E+02 0.  0.
        254    2    1    2    0    0  0.15476556286E+02 -0.32653971389E+03 -0.13167167972E+03  0.95881273501E+03  0.89169317651E+03 0.  0.
        -24    2    4    4    0    0 -0.24651869529E+03 -0.37113317721E+03  0.22621224264E+03  0.50611674375E+03  0.80441762990E+02 0.  0.
         24    2    4    4    0    0  0.26199525157E+03  0.44593463318E+02 -0.35788392236E+03  0.45269599126E+03  0.78883900816E+02 0.  0.
         13    1    3    3    0    0 -0.10033437656E+02  0.20944429181E+03 -0.21900953522E+03  0.30320415195E+03  0.00000000000E+00 0. -1.
        -13    1    3    3    0    0 -0.54431186304E+01  0.11709542208E+03 -0.24841964003E+03  0.27468760978E+03  0.00000000000E+00 0.  1.
          4    1    6    6  502    0  0.23204048013E+03  0.28154974678E+02 -0.26305886276E+03  0.35190261763E+03  0.00000000000E+00 0. -1.
          3    1    5    5  503    0 -0.20482246273E+03 -0.35111589874E+03  0.20226242496E+03  0.45403161138E+03  0.00000000000E+00 0. -1.
         -4    1    5    5    0  503 -0.41696232560E+02 -0.20017278478E+02  0.23949817676E+02  0.52085132370E+02  0.00000000000E+00 0.  1.
         -3    1    6    6    0  502  0.29954771441E+02  0.16438488640E+02 -0.94825059598E+02  0.10079337363E+03  0.00000000000E+00 0.  1.
<mgrwt>
<rscale>  0 0.14151109E+04</rscale>
<asrwt>0</asrwt>
<pdfrwt beam="1">  1        1 0.72123356E-01 0.14151109E+04</pdfrwt>
<pdfrwt beam="2">  1       -1 0.16429272E+00 0.14151109E+04</pdfrwt>
<totfact> 0.12793582E+01</totfact>
</mgrwt>
</event>
<event>
12    1  0.1755460E-007  0.1323460E+04  0.7818608E-02  0.9011165E-01
         -1   -1    0    0    0  501 -0.00000000000E+00  0.00000000000E+00  0.88213052922E+03  0.88213052922E+03  0.00000000000E+00 0.  1.
          1   -1    0    0  501    0  0.00000000000E+00 -0.00000000000E+00 -0.49639675288E+03  0.49639675288E+03  0.00000000000E+00 0. -1.
         23    2    1    2    0    0 -0.40566366798E+02  0.33044476869E+03  0.25064645395E+03  0.42684878291E+03  0.92395147720E+02 0.  0.
        254    2    1    2    0    0  0.40566366798E+02 -0.33044476869E+03  0.13508732239E+03  0.95167849920E+03  0.88125138632E+03 0.  0.
        -24    2    4    4    0    0 -0.39261362125E+03 -0.24238906289E+03 -0.39437545726E+02  0.46971808047E+03  0.78624688913E+02 0.  0.
         24    2    4    4    0    0  0.43317998805E+03 -0.88055705800E+02  0.17452486812E+03  0.48196041873E+03  0.80176095325E+02 0.  0.
         13    1    3    3    0    0  0.19325480331E+02  0.15506310363E+03  0.14684473836E+03  0.21443278080E+03  0.00000000000E+00 0.  1.
        -13    1    3    3    0    0 -0.59891847129E+02  0.17538166506E+03  0.10380171558E+03  0.21241600210E+03  0.00000000000E+00 0. -1.
          4    1    6    6  502    0  0.25042807204E+03 -0.10445082990E+02  0.10118603573E+03  0.27029970931E+03  0.00000000000E+00 0. -1.
          3    1    5    5  503    0 -0.34295212671E+03 -0.22106351430E+03 -0.58938613134E+02  0.41226083817E+03  0.00000000000E+00 0. -1.
         -4    1    5    5    0  503 -0.49661494539E+02 -0.21325548588E+02  0.19501067408E+02  0.57457242298E+02  0.00000000000E+00 0.  1.
         -3    1    6    6    0  502  0.18275191600E+03 -0.77610622810E+02  0.73338832388E+02  0.21166070942E+03  0.00000000000E+00 0.  1.
<mgrwt>
<rscale>  0 0.13234602E+04</rscale>
<asrwt>0</asrwt>
<pdfrwt beam="1">  1        1 0.76368731E-01 0.13234602E+04</pdfrwt>
<pdfrwt beam="2">  1       -1 0.13571239E+00 0.13234602E+04</pdfrwt>
<totfact> 0.19958517E+01</totfact>
</mgrwt>
</event>
<event>
12    1  0.1755460E-007  0.1272965E+04  0.7818608E-02  0.9051284E-01
          2   -1    0    0  501    0  0.00000000000E+00  0.00000000000E+00  0.35882321282E+03  0.35882321282E+03  0.00000000000E+00 0. -1.
         -2   -1    0    0    0  501 -0.00000000000E+00 -0.00000000000E+00 -0.11289952536E+04  0.11289952536E+04  0.00000000000E+00 0.  1.
         23    2    1    2    0    0  0.80788266307E+02 -0.31142180921E+02  0.14312779246E+03  0.19062896457E+03  0.91418038449E+02 0.  0.
        254    2    1    2    0    0 -0.80788266307E+02  0.31142180921E+02 -0.91329983319E+03  0.12971895018E+04  0.91710819367E+03 0.  0.
        -24    2    4    4    0    0  0.39545697977E+03  0.12396708383E+03 -0.50519424400E+03  0.65845620365E+03  0.81174424721E+02 0.  0.
         24    2    4    4    0    0 -0.47624524608E+03 -0.92824902905E+02 -0.40810558919E+03  0.63873329816E+03  0.77485851880E+02 0.  0.
         11    1    3    3    0    0  0.82920237276E+02 -0.56576020216E+02  0.11489695349E+03  0.15257103832E+03  0.00000000000E+00 0. -1.
        -11    1    3    3    0    0 -0.21319709683E+01  0.25433839295E+02  0.28230838963E+02  0.38057926245E+02  0.00000000000E+00 0.  1.
          2    1    6    6  502    0 -0.43962925596E+03 -0.10475960074E+03 -0.38589612449E+03  0.59427626197E+03  0.00000000000E+00 0. -1.
          1    1    5    5  503    0  0.89983916012E+02  0.64519748142E+02 -0.14506385184E+03  0.18249225779E+03  0.00000000000E+00 0. -1.
         -2    1    5    5    0  503  0.30547306376E+03  0.59447335684E+02 -0.36013039216E+03  0.47596394586E+03  0.00000000000E+00 0.  1.
         -1    1    6    6    0  502 -0.36615990119E+02  0.11934697839E+02 -0.22209464705E+02  0.44457036197E+02  0.00000000000E+00 0.  1.
<mgrwt>
<rscale>  0 0.12729646E+04</rscale>
<asrwt>0</asrwt>
<pdfrwt beam="1">  1        2 0.55203572E-01 0.12729646E+04</pdfrwt>
<pdfrwt beam="2">  1       -2 0.17369157E+00 0.12729646E+04</pdfrwt>
<totfact> 0.17688582E+01</totfact>
</mgrwt>
</event>
<event>
12    1  0.1755460E-007  0.1994842E+04  0.7818608E-02  0.8609036E-01
          2   -1    0    0  501    0  0.00000000000E+00  0.00000000000E+00  0.18870619824E+04  0.18870619824E+04  0.00000000000E+00 0.  1.
         -2   -1    0    0    0  501 -0.00000000000E+00 -0.00000000000E+00 -0.52719431399E+03  0.52719431399E+03  0.00000000000E+00 0. -1.
         23    2    1    2    0    0  0.58551528249E+03 -0.23720829798E+03 -0.41836441597E+02  0.63919468107E+03  0.87884183999E+02 0.  0.
        254    2    1    2    0    0 -0.58551528249E+03  0.23720829798E+03  0.14017041100E+04  0.17750616153E+04  0.88711521433E+03 0.  0.
        -24    2    4    4    0    0 -0.13499834951E+03  0.50627716547E+03  0.49631566454E+03  0.72568041608E+03  0.75774037523E+02 0.  0.
         24    2    4    4    0    0 -0.45051693299E+03 -0.26906886749E+03  0.90538844543E+03  0.10493811992E+04  0.78160743259E+02 0.  0.
         11    1    3    3    0    0  0.57455106698E+03 -0.23369685879E+03 -0.27584532606E+02  0.62087362387E+03  0.00000000000E+00 0. -1.
        -11    1    3    3    0    0  0.10964215512E+02 -0.35114391824E+01 -0.14251908991E+02  0.18321057197E+02  0.00000000000E+00 0.  1.
          2    1    6    6  502    0 -0.36226050222E+03 -0.24845850785E+03  0.73053221937E+03  0.85243276868E+03  0.00000000000E+00 0. -1.
          3    1    5    5  503    0 -0.66916648892E+02  0.12304275515E+03  0.13822245123E+03  0.19678110559E+03  0.00000000000E+00 0. -1.
         -4    1    5    5    0  503 -0.68081700616E+02  0.38323441032E+03  0.35809321331E+03  0.52889931049E+03  0.00000000000E+00 0.  1.
         -1    1    6    6    0  502 -0.88256430762E+02 -0.20610359645E+02  0.17485622607E+03  0.19694843053E+03  0.00000000000E+00 0.  1.
<mgrwt>
<rscale>  0 0.19948417E+04</rscale>
<asrwt>0</asrwt>
<pdfrwt beam="1">  1        2 0.29031723E+00 0.19948417E+04</pdfrwt>
<pdfrwt beam="2">  1       -2 0.81106818E-01 0.19948417E+04</pdfrwt>
<totfact> 0.96152327E+00</totfact>
</mgrwt>
</event>
<event>
12    1  0.1755460E-007  0.1544596E+04  0.7818608E-02  0.8855327E-01
         -2   -1    0    0    0  501 -0.00000000000E+00  0.00000000000E+00  0.70020595186E+03  0.70020595186E+03  0.00000000000E+00 0.  1.
          2   -1    0    0  501    0  0.00000000000E+00 -0.00000000000E+00 -0.85181235538E+03  0.85181235538E+03  0.00000000000E+00 0. -1.
         23    2    1    2    0    0  0.16804422492E+03 -0.20095226228E+03 -0.48741205338E+03  0.56077529658E+03  0.90982142355E+02 0.  0.
        254    2    1    2    0    0 -0.16804422492E+03  0.20095226228E+03  0.33580564986E+03  0.99124301066E+03  0.89508468787E+03 0.  0.
        -24    2    4    4    0    0  0.10640235202E+03  0.39445270350E+03  0.46247058669E+03  0.62240528640E+03  0.81208996870E+02 0.  0.
         24    2    4    4    0    0 -0.27444657694E+03 -0.19350044121E+03 -0.12666493683E+03  0.36883772426E+03  0.85052432518E+02 0.  0.
         13    1    3    3    0    0  0.26227108316E+02 -0.14331754891E+02 -0.15064484190E+02  0.33469375447E+02  0.00000000000E+00 0.  1.
        -13    1    3    3    0    0  0.14181711660E+03 -0.18662050739E+03 -0.47234756919E+03  0.52730592113E+03  0.00000000000E+00 0. -1.
          2    1    6    6  502    0 -0.24635564985E+03 -0.14526883952E+03 -0.82487760956E+02  0.29765478773E+03  0.00000000000E+00 0. -1.
          3    1    5    5  503    0  0.85108086753E+02  0.21028920948E+03  0.20966443910E+03  0.30890793949E+03  0.00000000000E+00 0. -1.
         -4    1    5    5    0  503  0.21294265267E+02  0.18416349401E+03  0.25280614759E+03  0.31349734691E+03  0.00000000000E+00 0.  1.
         -1    1    6    6    0  502 -0.28090927088E+02 -0.48231601689E+02 -0.44177175872E+02  0.71182936538E+02  0.00000000000E+00 0.  1.
<mgrwt>
<rscale>  0 0.15445958E+04</rscale>
<asrwt>0</asrwt>
<pdfrwt beam="1">  1        2 0.13104805E+00 0.15445958E+04</pdfrwt>
<pdfrwt beam="2">  1       -2 0.10772399E+00 0.15445958E+04</pdfrwt>
<totfact> 0.21063797E+01</totfact>
</mgrwt>
</event>
<event>
12    1  0.1755460E-007  0.1597243E+04  0.7818608E-02  0.8822243E-01
          2   -1    0    0  501    0  0.00000000000E+00  0.00000000000E+00  0.12698867721E+04  0.12698867721E+04  0.00000000000E+00 0. -1.
         -2   -1    0    0    0  501 -0.00000000000E+00 -0.00000000000E+00 -0.50224663049E+03  0.50224663049E+03  0.00000000000E+00 0.  1.
         23    2    1    2    0    0  0.23464282686E+03 -0.48088474821E+03  0.21025697018E+03  0.58199467936E+03  0.90567190682E+02 0.  0.
        254    2    1    2    0    0 -0.23464282686E+03  0.48088474821E+03  0.55738317138E+03  0.11901387232E+04  0.90523299952E+03 0.  0.
        -24    2    4    4    0    0 -0.47538481104E+02 -0.34270410400E+02  0.62450951181E+03  0.63225168477E+03  0.79345411646E+02 0.  0.
         24    2    4    4    0    0 -0.18710434576E+03  0.51515515861E+03 -0.67126340424E+02  0.55788703841E+03  0.79618643550E+02 0.  0.
         11    1    3    3    0    0  0.10091859563E+03 -0.11539764241E+03  0.52262973010E+02  0.16196480224E+03  0.00000000000E+00 0. -1.
        -11    1    3    3    0    0  0.13372423124E+03 -0.36548710581E+03  0.15799399717E+03  0.42002987712E+03  0.00000000000E+00 0.  1.
          4    1    6    6  502    0  0.45987432972E+01  0.10592891603E+01  0.14640220703E+01  0.49410417991E+01  0.00000000000E+00 0. -1.
          1    1    5    5  503    0 -0.21455156765E+02  0.25557138070E+02  0.20802265786E+03  0.21068202876E+03  0.00000000000E+00 0. -1.
         -2    1    5    5    0  503 -0.26083324339E+02 -0.59827548470E+02  0.41648685394E+03  0.42156965601E+03  0.00000000000E+00 0.  1.
         -3    1    6    6    0  502 -0.19170308906E+03  0.51409586945E+03 -0.68590362494E+02  0.55294599661E+03  0.00000000000E+00 0.  1.
<mgrwt>
<rscale>  0 0.15972431E+04</rscale>
<asrwt>0</asrwt>
<pdfrwt beam="1">  1        2 0.19536719E+00 0.15972431E+04</pdfrwt>
<pdfrwt beam="2">  1       -2 0.77268713E-01 0.15972431E+04</pdfrwt>
<totfact> 0.24677468E+01</totfact>
</mgrwt>
</event>
<event>
12    1  0.1755460E-007  0.1343839E+04  0.7818608E-02  0.8995505E-01
         -2   -1    0    0    0  501 -0.00000000000E+00  0.00000000000E+00  0.36552065515E+03  0.36552065515E+03  0.00000000000E+00 0.  1.
          2   -1    0    0  501    0  0.00000000000E+00 -0.00000000000E+00 -0.12351590519E+04  0.12351590519E+04  0.00000000000E+00 0. -1.
         23    2    1    2    0    0  0.10118665137E+03 -0.36261395541E+02  0.16952403323E+03  0.22017404340E+03  0.90468692489E+02 0.  0.
        254    2    1    2    0    0 -0.10118665137E+03  0.36261395541E+02 -0.10391624300E+04  0.13805056636E+04  0.90243210508E+03 0.  0.
        -24    2    4    4    0    0  0.10316840933E+03  0.40409513764E+02  0.13148483342E+03  0.18953803078E+03  0.79748067114E+02 0.  0.
         24    2    4    4    0    0 -0.20435506070E+03 -0.41481182232E+01 -0.11706472634E+04  0.11909676329E+04  0.78807928199E+02 0.  0.
         13    1    3    3    0    0  0.74140755004E+02 -0.18608793523E+02  0.17155382017E+03  0.18781334341E+03  0.00000000000E+00 0.  1.
        -13    1    3    3    0    0  0.27045896368E+02 -0.17652602018E+02 -0.20297869413E+01  0.32360699983E+02  0.00000000000E+00 0. -1.
          2    1    6    6  502    0 -0.10963537594E+03 -0.16785381046E+02 -0.82248175192E+03  0.82992644067E+03  0.00000000000E+00 0. -1.
          1    1    5    5  503    0  0.17528184370E+00  0.29184961632E+02  0.49320553103E+02  0.57308896932E+02  0.00000000000E+00 0. -1.
         -2    1    5    5    0  503  0.10299312748E+03  0.11224552132E+02  0.82164280314E+02  0.13222913385E+03  0.00000000000E+00 0.  1.
         -1    1    6    6    0  502 -0.94719684754E+02  0.12637262823E+02 -0.34816551145E+03  0.36104119218E+03  0.00000000000E+00 0.  1.
<mgrwt>
<rscale>  0 0.13438395E+04</rscale>
<asrwt>0</asrwt>
<pdfrwt beam="1">  1        2 0.19002447E+00 0.13438395E+04</pdfrwt>
<pdfrwt beam="2">  1       -2 0.56233948E-01 0.13438395E+04</pdfrwt>
<totfact> 0.52349090E+01</totfact>
</mgrwt>
</event>
<event>
12    1  0.1755460E-007  0.2206277E+04  0.7818608E-02  0.8515820E-01
          2   -1    0    0  501    0  0.00000000000E+00  0.00000000000E+00  0.24710659959E+04  0.24710659959E+04  0.00000000000E+00 0. -1.
         -2   -1    0    0    0  501 -0.00000000000E+00 -0.00000000000E+00 -0.49246537584E+03  0.49246537584E+03  0.00000000000E+00 0.  1.
         23    2    1    2    0    0  0.78658831241E+03 -0.16638776886E+03  0.14361090111E+04  0.16488878818E+04  0.10008042848E+03 0.  0.
        254    2    1    2    0    0 -0.78658831241E+03  0.16638776886E+03  0.54249160895E+03  0.13146434899E+04  0.88745946215E+03 0.  0.
        -24    2    4    4    0    0  0.11307077524E+03 -0.93130299668E+02 -0.83054634869E+02  0.18581126311E+03  0.78546166017E+02 0.  0.
         24    2    4    4    0    0 -0.89965908765E+03  0.25951806853E+03  0.62554624382E+03  0.11288322268E+04  0.78854240421E+02 0.  0.
         13    1    3    3    0    0  0.17799123583E+03 -0.84375691273E+01  0.38162360864E+03  0.42117532131E+03  0.00000000000E+00 0.  1.
        -13    1    3    3    0    0  0.60859707657E+03 -0.15795019974E+03  0.10544854025E+04  0.12277125605E+04  0.00000000000E+00 0. -1.
          2    1    6    6  502    0 -0.57039762326E+03  0.19817752221E+03  0.37872516450E+03  0.71278364821E+03  0.00000000000E+00 0. -1.
          1    1    5    5  503    0  0.55488671181E+02 -0.74779691438E+02 -0.83943206798E+02  0.12536928192E+03  0.00000000000E+00 0. -1.
         -2    1    5    5    0  503  0.57582104064E+02 -0.18350608230E+02  0.88857192903E+00  0.60441981196E+02  0.00000000000E+00 0.  1.
         -1    1    6    6    0  502 -0.32926146439E+03  0.61340546325E+02  0.24682107932E+03  0.41604857860E+03  0.00000000000E+00 0.  1.
<mgrwt>
<rscale>  0 0.22062769E+04</rscale>
<asrwt>0</asrwt>
<pdfrwt beam="1">  1        2 0.38016399E+00 0.22062769E+04</pdfrwt>
<pdfrwt beam="2">  1       -2 0.75763906E-01 0.22062769E+04</pdfrwt>
<totfact> 0.51607639E+00</totfact>
</mgrwt>
</event>
<event>
12    1  0.1755460E-007  0.1263689E+04  0.7818608E-02  0.9058866E-01
         -1   -1    0    0    0  501 -0.00000000000E+00  0.00000000000E+00  0.49003251767E+03  0.49003251767E+03  0.00000000000E+00 0.  1.
          1   -1    0    0  501    0  0.00000000000E+00 -0.00000000000E+00 -0.81469633159E+03  0.81469633159E+03  0.00000000000E+00 0. -1.
         23    2    1    2    0    0 -0.13833586384E+03  0.19953468466E+03 -0.26335509433E+03  0.36891929570E+03  0.88287255160E+02 0.  0.
        254    2    1    2    0    0  0.13833586384E+03 -0.19953468466E+03 -0.61308719590E+02  0.93580955356E+03  0.90168168432E+03 0.  0.
        -24    2    4    4    0    0  0.51673807927E+03 -0.14046273169E+03 -0.57996856928E+02  0.54459423834E+03  0.80443939822E+02 0.  0.
         24    2    4    4    0    0 -0.37840221543E+03 -0.59071952970E+02 -0.33118626619E+01  0.39121531522E+03  0.79754135700E+02 0.  0.
         13    1    3    3    0    0 -0.18903531959E+02  0.41379973616E+02 -0.88407264581E+01  0.46344408306E+02  0.00000000000E+00 0.  1.
        -13    1    3    3    0    0 -0.11943233188E+03  0.15815471105E+03 -0.25451436787E+03  0.32257488740E+03  0.00000000000E+00 0. -1.
          4    1    6    6  502    0 -0.31157250400E+03 -0.55660914656E+02  0.27197587105E+02  0.31767164087E+03  0.00000000000E+00 0. -1.
          1    1    5    5  503    0  0.43503114214E+03 -0.14742311904E+03 -0.53984892983E+02  0.46249328571E+03  0.00000000000E+00 0. -1.
         -2    1    5    5    0  503  0.81706937137E+02  0.69603873450E+01 -0.40119639450E+01  0.82100952632E+02  0.00000000000E+00 0.  1.
         -3    1    6    6    0  502 -0.66829711428E+02 -0.34110383140E+01 -0.30509449767E+02  0.73543674351E+02  0.00000000000E+00 0.  1.
<mgrwt>
<rscale>  0 0.12636894E+04</rscale>
<asrwt>0</asrwt>
<pdfrwt beam="1">  1        1 0.12533790E+00 0.12636894E+04</pdfrwt>
<pdfrwt beam="2">  1       -1 0.75389618E-01 0.12636894E+04</pdfrwt>
<totfact> 0.37419695E+01</totfact>
</mgrwt>
</event>
<event>
12    1  0.1755460E-007  0.3940371E+04  0.7818608E-02  0.8016685E-01
          1   -1    0    0  501    0  0.00000000000E+00  0.00000000000E+00  0.26285181142E+04  0.26285181142E+04  0.00000000000E+00 0. -1.
         -1   -1    0    0    0  501 -0.00000000000E+00 -0.00000000000E+00 -0.14767372950E+04  0.14767372950E+04  0.00000000000E+00 0.  1.
         23    2    1    2    0    0 -0.81032173430E+03  0.41307257296E+03  0.22410548637E+04  0.24203040900E+04  0.91075368036E+02 0.  0.
        254    2    1    2    0    0  0.81032173430E+03 -0.41307257296E+03 -0.10892740444E+04  0.16849513192E+04  0.90845624028E+03 0.  0.
        -24    2    4    4    0    0  0.39866026539E+03 -0.58890022197E+03 -0.98760112016E+03  0.12193368213E+04  0.75450862822E+02 0.  0.
         24    2    4    4    0    0  0.41166146891E+03  0.17582764902E+03 -0.10167292428E+03  0.46561449783E+03  0.77967620938E+02 0.  0.
         11    1    3    3    0    0 -0.54031002640E+03  0.22662631262E+03  0.14257456414E+04  0.15414425205E+04  0.00000000000E+00 0. -1.
        -11    1    3    3    0    0 -0.27001170791E+03  0.18644626033E+03  0.81530922232E+03  0.87886156953E+03  0.00000000000E+00 0.  1.
          2    1    6    6  502    0  0.38394251858E+03  0.15134012484E+03 -0.11121736844E+03  0.42741665153E+03  0.00000000000E+00 0. -1.
          1    1    5    5  503    0  0.35886505279E+03 -0.56303168409E+03 -0.92124876367E+03  0.11377557242E+04  0.00000000000E+00 0. -1.
         -2    1    5    5    0  503  0.39795212599E+02 -0.25868537883E+02 -0.66352356486E+02  0.81581097132E+02  0.00000000000E+00 0.  1.
         -1    1    6    6    0  502  0.27718950332E+02  0.24487524182E+02  0.95444441633E+01  0.38197846307E+02  0.00000000000E+00 0.  1.
<mgrwt>
<rscale>  0 0.39403709E+04</rscale>
<asrwt>0</asrwt>
<pdfrwt beam="1">  1        1 0.40438740E+00 0.39403709E+04</pdfrwt>
<pdfrwt beam="2">  1       -1 0.22719035E+00 0.39403709E+04</pdfrwt>
<totfact> 0.85388776E-02</totfact>
</mgrwt>
</event>
<event>
12    1  0.1755460E-007  0.1493526E+04  0.7818608E-02  0.8888770E-01
          2   -1    0    0  501    0  0.00000000000E+00  0.00000000000E+00  0.13891747475E+04  0.13891747475E+04  0.00000000000E+00 0. -1.
         -2   -1    0    0    0  501 -0.00000000000E+00 -0.00000000000E+00 -0.40142870503E+03  0.40142870503E+03  0.00000000000E+00 0.  1.
         23    2    1    2    0    0  0.18270725491E+03 -0.32259739351E+03 -0.24113172853E+02  0.38238672182E+03  0.90482819516E+02 0.  0.
        254    2    1    2    0    0 -0.18270725491E+03  0.32259739351E+03  0.10118592153E+04  0.14082167307E+04  0.90651214538E+03 0.  0.
        -24    2    4    4    0    0  0.22553090877E+02 -0.28483131236E+03  0.50706557101E+03  0.58819487256E+03  0.84971738754E+02 0.  0.
         24    2    4    4    0    0 -0.20526034578E+03  0.60742870587E+03  0.50479364433E+03  0.82002185817E+03  0.80732783029E+02 0.  0.
         11    1    3    3    0    0 -0.59052773283E+01  0.15952159074E+01  0.19355905480E+01  0.64158806788E+01  0.00000000000E+00 0. -1.
        -11    1    3    3    0    0  0.18861253223E+03 -0.32419260942E+03 -0.26048763401E+02  0.37597084114E+03  0.00000000000E+00 0.  1.
          2    1    6    6  502    0 -0.10231830312E+02  0.61362850341E+01  0.20424110743E+02  0.23653512323E+02  0.00000000000E+00 0. -1.
          1    1    5    5  503    0 -0.10786539823E+02 -0.10083496542E+03  0.25434440013E+03  0.27381583879E+03  0.00000000000E+00 0. -1.
         -2    1    5    5    0  503  0.33339630699E+02 -0.18399634694E+03  0.25272117088E+03  0.31437903377E+03  0.00000000000E+00 0.  1.
         -1    1    6    6    0  502 -0.19502851547E+03  0.60129242083E+03  0.48436953359E+03  0.79636834585E+03  0.00000000000E+00 0.  1.
<mgrwt>
<rscale>  0 0.14935255E+04</rscale>
<asrwt>0</asrwt>
<pdfrwt beam="1">  1        2 0.21371919E+00 0.14935255E+04</pdfrwt>
<pdfrwt beam="2">  1       -2 0.61758263E-01 0.14935255E+04</pdfrwt>
<totfact> 0.34561066E+01</totfact>
</mgrwt>
</event>
<event>
12    1  0.1755460E-007  0.2929338E+04  0.7818608E-02  0.8264202E-01
          1   -1    0    0  501    0  0.00000000000E+00  0.00000000000E+00  0.15033093168E+04  0.15033093168E+04  0.00000000000E+00 0. -1.
         -1   -1    0    0    0  501 -0.00000000000E+00 -0.00000000000E+00 -0.14270214260E+04  0.14270214260E+04  0.00000000000E+00 0.  1.
         23    2    1    2    0    0  0.79350320537E+03  0.86812259754E+03 -0.57520348206E+03  0.13124246659E+04  0.91188138361E+02 0.  0.
        254    2    1    2    0    0 -0.79350320537E+03 -0.86812259754E+03  0.65149137288E+03  0.16179060769E+04  0.89994160010E+03 0.  0.
        -24    2    4    4    0    0 -0.39750812179E+03 -0.86582220719E+03  0.14042705568E+03  0.96646099681E+03  0.81647406801E+02 0.  0.
         24    2    4    4    0    0 -0.39599508358E+03 -0.23003903446E+01  0.51106431720E+03  0.65144508013E+03  0.79853353678E+02 0.  0.
         13    1    3    3    0    0  0.30129482737E+03  0.32143568775E+03 -0.26460632960E+03  0.51392215755E+03  0.00000000000E+00 0.  1.
        -13    1    3    3    0    0  0.49220837800E+03  0.54668690979E+03 -0.31059715246E+03  0.79850250834E+03  0.00000000000E+00 0. -1.
          2    1    6    6  502    0 -0.21254666016E+03  0.30688860583E+02  0.23494665319E+03  0.31830460059E+03  0.00000000000E+00 0. -1.
          3    1    5    5  503    0 -0.21907750172E+03 -0.49505683480E+03  0.11989593409E+03  0.55448287300E+03  0.00000000000E+00 0. -1.
         -4    1    5    5    0  503 -0.17843062007E+03 -0.37076537240E+03  0.20531121584E+02  0.41197812381E+03  0.00000000000E+00 0.  1.
         -3    1    6    6    0  502 -0.18344842343E+03 -0.32989250928E+02  0.27611766401E+03  0.33314047954E+03  0.00000000000E+00 0.  1.
<mgrwt>
<rscale>  0 0.29293375E+04</rscale>
<asrwt>0</asrwt>
<pdfrwt beam="1">  1        1 0.23127836E+00 0.29293375E+04</pdfrwt>
<pdfrwt beam="2">  1       -1 0.21954176E+00 0.29293375E+04</pdfrwt>
<totfact> 0.61752542E-01</totfact>
</mgrwt>
</event>
<event>
12    1  0.2266186E-007  0.2200723E+04  0.7818608E-02  0.8518127E-01
         -2   -1    0    0    0  501 -0.00000000000E+00  0.00000000000E+00  0.62156843807E+03  0.62156843807E+03  0.00000000000E+00 0.  1.
          2   -1    0    0  501    0  0.00000000000E+00 -0.00000000000E+00 -0.19479684813E+04  0.19479684813E+04  0.00000000000E+00 0. -1.
         23    2    1    2    0    0 -0.43095989767E+03 -0.76227450709E+03 -0.87366482541E+03  0.12436145031E+04  0.12844433660E+03 0.  0.
        254    2    1    2    0    0  0.43095989767E+03  0.76227450709E+03 -0.45273521778E+03  0.13259224162E+04  0.88674247607E+03 0.  0.
        -24    2    4    4    0    0 -0.20795374498E+02 -0.12241689170E+03  0.10766248266E+03  0.18254125102E+03  0.79446555470E+02 0.  0.
         24    2    4    4    0    0  0.45175527217E+03  0.88469139879E+03 -0.56039770044E+03  0.11433811652E+04  0.80704456243E+02 0.  0.
         13    1    3    3    0    0 -0.17764685658E+03 -0.23713121057E+03 -0.22957803103E+03  0.37482754570E+03  0.00000000000E+00 0.  1.
        -13    1    3    3    0    0 -0.25331304109E+03 -0.52514329652E+03 -0.64408679438E+03  0.86878695741E+03  0.00000000000E+00 0. -1.
          2    1    6    6  502    0  0.11935256101E+02  0.55259313879E+01 -0.11529627680E+02  0.17490528018E+02  0.00000000000E+00 0. -1.
          3    1    5    5  503    0  0.11462223947E+02 -0.10343240614E+02 -0.87613447440E+01  0.17751798949E+02  0.00000000000E+00 0. -1.
         -4    1    5    5    0  503 -0.32257598445E+02 -0.11207365109E+03  0.11642382740E+03  0.16478945207E+03  0.00000000000E+00 0.  1.
         -1    1    6    6    0  502  0.43982001607E+03  0.87916546741E+03 -0.54886807276E+03  0.11258906372E+04  0.00000000000E+00 0.  1.
<mgrwt>
<rscale>  0 0.22007233E+04</rscale>
<asrwt>0</asrwt>
<pdfrwt beam="1">  1        2 0.29968746E+00 0.22007233E+04</pdfrwt>
<pdfrwt beam="2">  1       -2 0.95625914E-01 0.22007233E+04</pdfrwt>
<totfact> 0.59903051E+00</totfact>
</mgrwt>
</event>
<event>
12    1  0.1755460E-007  0.2548080E+04  0.7818608E-02  0.8386054E-01
          2   -1    0    0  501    0  0.00000000000E+00  0.00000000000E+00  0.25567181618E+04  0.25567181618E+04  0.00000000000E+00 0. -1.
         -2   -1    0    0    0  501 -0.00000000000E+00 -0.00000000000E+00 -0.63486767881E+03  0.63486767881E+03  0.00000000000E+00 0.  1.
         23    2    1    2    0    0 -0.59554465551E+03 -0.38312890621E+02  0.20287428209E+04  0.21167623724E+04  0.93510392664E+02 0.  0.
        254    2    1    2    0    0  0.59554465551E+03  0.38312890621E+02 -0.10689233792E+03  0.10748234682E+04  0.88751236701E+03 0.  0.
        -24    2    4    4    0    0  0.82058305176E+03  0.11747644941E+02 -0.33474460422E+02  0.82460419873E+03  0.73191482195E+02 0.  0.
         24    2    4    4    0    0 -0.22503839624E+03  0.26565245680E+02 -0.73417877503E+02  0.25021926948E+03  0.76625752973E+02 0.  0.
         13    1    3    3    0    0 -0.53645112314E+03 -0.55341685427E+02  0.18795892485E+04  0.19554278950E+04  0.00000000000E+00 0. -1.
        -13    1    3    3    0    0 -0.59093532378E+02  0.17028794807E+02  0.14915357245E+03  0.16133447740E+03  0.00000000000E+00 0.  1.
          2    1    6    6  502    0 -0.11981856661E+03  0.21644009492E+02  0.11384830938E+00  0.12175781294E+03  0.00000000000E+00 0. -1.
          1    1    5    5  503    0  0.22652292717E+03  0.13013927825E+02 -0.40598702560E+02  0.23050000759E+03  0.00000000000E+00 0. -1.
         -2    1    5    5    0  503  0.59406012459E+03 -0.12662828840E+01  0.71242421386E+01  0.59410419114E+03  0.00000000000E+00 0.  1.
         -1    1    6    6    0  502 -0.10521982963E+03  0.49212361880E+01 -0.73531725812E+02  0.12846145653E+03  0.00000000000E+00 0.  1.
<mgrwt>
<rscale>  0 0.25480798E+04</rscale>
<asrwt>0</asrwt>
<pdfrwt beam="1">  1        2 0.39334125E+00 0.25480798E+04</pdfrwt>
<pdfrwt beam="2">  1       -2 0.97671952E-01 0.25480798E+04</pdfrwt>
<totfact> 0.25023481E+00</totfact>
</mgrwt>
</event>
<event>
12    1  0.1755460E-007  0.1692220E+04  0.7818608E-02  0.8765814E-01
         -2   -1    0    0    0  501 -0.00000000000E+00  0.00000000000E+00  0.46456801672E+03  0.46456801672E+03  0.00000000000E+00 0.  1.
          2   -1    0    0  501    0  0.00000000000E+00 -0.00000000000E+00 -0.15410068204E+04  0.15410068204E+04  0.00000000000E+00 0. -1.
         23    2    1    2    0    0 -0.27766774606E+03  0.32522286904E+03  0.11286788533E+03  0.45481021787E+03  0.10603717739E+03 0.  0.
        254    2    1    2    0    0  0.27766774606E+03 -0.32522286904E+03 -0.11893066890E+04  0.15507646192E+04  0.89863853248E+03 0.  0.
        -24    2    4    4    0    0  0.46765147999E+03 -0.52034831449E+03 -0.76104608995E+03  0.10368778922E+04  0.80401101534E+02 0.  0.
         24    2    4    4    0    0 -0.18998373393E+03  0.19512544545E+03 -0.42826059905E+03  0.51388672707E+03  0.80651527819E+02 0.  0.
         13    1    3    3    0    0 -0.17700008772E+03  0.21920943893E+03  0.12475663709E+03  0.30813313303E+03  0.00000000000E+00 0.  1.
        -13    1    3    3    0    0 -0.10066765834E+03  0.10601343011E+03 -0.11888751766E+02  0.14667708484E+03  0.00000000000E+00 0. -1.
          4    1    6    6  502    0 -0.26072041945E+02  0.50323138780E+02 -0.44029779121E+02  0.71769012236E+02  0.00000000000E+00 0. -1.
          3    1    5    5  503    0  0.24115554472E+03 -0.30855319550E+03 -0.46787897498E+03  0.61014080869E+03  0.00000000000E+00 0. -1.
         -4    1    5    5    0  503  0.22649593527E+03 -0.21179511899E+03 -0.29316711497E+03  0.42673708349E+03  0.00000000000E+00 0.  1.
         -3    1    6    6    0  502 -0.16391169199E+03  0.14480230667E+03 -0.38423081993E+03  0.44211771484E+03  0.00000000000E+00 0.  1.
<mgrwt>
<rscale>  0 0.16922204E+04</rscale>
<asrwt>0</asrwt>
<pdfrwt beam="1">  1        2 0.23707797E+00 0.16922204E+04</pdfrwt>
<pdfrwt beam="2">  1       -2 0.71472004E-01 0.16922204E+04</pdfrwt>
<totfact> 0.20350883E+01</totfact>
</mgrwt>
</event>
<event>
12    1  0.1755460E-007  0.2663422E+04  0.7818608E-02  0.8346972E-01
          1   -1    0    0  501    0  0.00000000000E+00  0.00000000000E+00  0.11905124651E+04  0.11905124651E+04  0.00000000000E+00 0. -1.
         -1   -1    0    0    0  501 -0.00000000000E+00 -0.00000000000E+00 -0.14896559310E+04  0.14896559310E+04  0.00000000000E+00 0.  1.
         23    2    1    2    0    0  0.25026078374E+02  0.91736639720E+03 -0.87884272838E+03  0.12738975221E+04  0.90900737976E+02 0.  0.
        254    2    1    2    0    0 -0.25026078374E+02 -0.91736639720E+03  0.57969926239E+03  0.14062708740E+04  0.89406885923E+03 0.  0.
        -24    2    4    4    0    0  0.26322126696E+03 -0.65739123255E+03  0.11567951560E+02  0.71309206793E+03  0.83173384162E+02 0.  0.
         24    2    4    4    0    0 -0.28824734533E+03 -0.25997516466E+03  0.56813131083E+03  0.69317880611E+03  0.83964591118E+02 0.  0.
         13    1    3    3    0    0  0.33385380617E+01  0.79698815583E+03 -0.72556076426E+03  0.10777938991E+04  0.00000000000E+00 0.  1.
        -13    1    3    3    0    0  0.21687540312E+02  0.12037824137E+03 -0.15328196412E+03  0.19610362293E+03  0.00000000000E+00 0. -1.
          2    1    6    6  502    0 -0.17838751125E+03 -0.16917241222E+03  0.28640463776E+03  0.37745069314E+03  0.00000000000E+00 0. -1.
          1    1    5    5  503    0  0.19572533117E+03 -0.54524783535E+03 -0.15119855641E+02  0.57951032540E+03  0.00000000000E+00 0. -1.
         -2    1    5    5    0  503  0.67495935793E+02 -0.11214339719E+03  0.26687807201E+02  0.13358174252E+03  0.00000000000E+00 0.  1.
         -1    1    6    6    0  502 -0.10985983408E+03 -0.90802752444E+02  0.28172667308E+03  0.31572811297E+03  0.00000000000E+00 0.  1.
<mgrwt>
<rscale>  0 0.26634218E+04</rscale>
<asrwt>0</asrwt>
<pdfrwt beam="1">  1        1 0.18315576E+00 0.26634218E+04</pdfrwt>
<pdfrwt beam="2">  1       -1 0.22917784E+00 0.26634218E+04</pdfrwt>
<totfact> 0.90909337E-01</totfact>
</mgrwt>
</event>
<event>
12    1  0.3524195E-007  0.1918945E+04  0.7818608E-02  0.8645483E-01
         -2   -1    0    0    0  501 -0.00000000000E+00  0.00000000000E+00  0.66517292980E+03  0.66517292980E+03  0.00000000000E+00 0.  1.
          2   -1    0    0  501    0  0.00000000000E+00 -0.00000000000E+00 -0.13839824407E+04  0.13839824407E+04  0.00000000000E+00 0. -1.
         23    2    1    2    0    0  0.61215813083E+02  0.68296265095E+03  0.33713737421E+02  0.69244828968E+03  0.90347437284E+02 0.  0.
        254    2    1    2    0    0 -0.61215813083E+02 -0.68296265095E+03 -0.75252324827E+03  0.13567070808E+04  0.89675944683E+03 0.  0.
        -24    2    4    4    0    0  0.29962426866E+02 -0.88596486128E+03 -0.55387301269E+03  0.10481899494E+04  0.78072872879E+02 0.  0.
         24    2    4    4    0    0 -0.91178239950E+02  0.20300221033E+03 -0.19865023558E+03  0.30851713133E+03  0.78724426890E+02 0.  0.
         11    1    3    3    0    0  0.16071827127E+02  0.24409535208E+02  0.13101914419E+02  0.32027944013E+02  0.00000000000E+00 0. -1.
        -11    1    3    3    0    0  0.45143985957E+02  0.65855311574E+03  0.20611823002E+02  0.66042034567E+03  0.00000000000E+00 0.  1.
          4    1    6    6  502    0 -0.28101134731E+02  0.22907931454E+02 -0.49149494250E+01  0.36586935162E+02  0.00000000000E+00 0. -1.
          3    1    5    5  503    0  0.61434024311E+01 -0.24956010194E+03 -0.19820896066E+03  0.31875504382E+03  0.00000000000E+00 0. -1.
         -4    1    5    5    0  503  0.23819024435E+02 -0.63640475935E+03 -0.35566405203E+03  0.72943490563E+03  0.00000000000E+00 0.  1.
         -3    1    6    6    0  502 -0.63077105218E+02  0.18009427888E+03 -0.19373528616E+03  0.27193019617E+03  0.00000000000E+00 0.  1.
<mgrwt>
<rscale>  0 0.19189452E+04</rscale>
<asrwt>0</asrwt>
<pdfrwt beam="1">  1        2 0.21292038E+00 0.19189452E+04</pdfrwt>
<pdfrwt beam="2">  1       -2 0.10233430E+00 0.19189452E+04</pdfrwt>
<totfact> 0.10807398E+01</totfact>
</mgrwt>
</event>
<event>
12    1  0.1755460E-007  0.1266571E+04  0.7818608E-02  0.9056503E-01
         -2   -1    0    0    0  501 -0.00000000000E+00  0.00000000000E+00  0.67282428891E+03  0.67282428891E+03  0.00000000000E+00 0.  1.
          2   -1    0    0  501    0  0.00000000000E+00 -0.00000000000E+00 -0.59606984481E+03  0.59606984481E+03  0.00000000000E+00 0. -1.
         23    2    1    2    0    0 -0.11115673642E+03 -0.18829047377E+03 -0.19567882489E+03  0.30693563480E+03  0.90056420298E+02 0.  0.
        254    2    1    2    0    0  0.11115673642E+03  0.18829047377E+03  0.27243326899E+03  0.96195849892E+03  0.89628965465E+03 0.  0.
        -24    2    4    4    0    0 -0.37821221989E+03  0.15984865234E+03  0.18396575544E+03  0.45670875457E+03  0.78379923474E+02 0.  0.
         24    2    4    4    0    0  0.48936895630E+03  0.28441821424E+02  0.88467513551E+02  0.50524974435E+03  0.84616136842E+02 0.  0.
         13    1    3    3    0    0 -0.12537074247E+03 -0.16030426559E+03 -0.15644762076E+03  0.25669269307E+03  0.00000000000E+00 0. -1.
        -13    1    3    3    0    0  0.14214006053E+02 -0.27986208180E+02 -0.39231204128E+02  0.50242941730E+02  0.00000000000E+00 0.  1.
          4    1    6    6  502    0  0.31224079255E+03  0.89751446675E+01  0.15681854666E+02  0.31276314732E+03  0.00000000000E+00 0. -1.
          3    1    5    5  503    0 -0.27598381624E+03  0.12493112821E+03  0.17108821301E+03  0.34791670016E+03  0.00000000000E+00 0. -1.
         -4    1    5    5    0  503 -0.10222840365E+03  0.34917524131E+02  0.12877542426E+02  0.10879205441E+03  0.00000000000E+00 0.  1.
         -3    1    6    6    0  502  0.17712816375E+03  0.19466676757E+02  0.72785658884E+02  0.19248659703E+03  0.00000000000E+00 0.  1.
<mgrwt>
<rscale>  0 0.12665706E+04</rscale>
<asrwt>0</asrwt>
<pdfrwt beam="1">  1        2 0.91703054E-01 0.12665706E+04</pdfrwt>
<pdfrwt beam="2">  1       -2 0.10351143E+00 0.12665706E+04</pdfrwt>
<totfact> 0.37366809E+01</totfact>
</mgrwt>
</event>
<event>
12    1  0.1755460E-007  0.1802386E+04  0.7818608E-02  0.8705031E-01
          2   -1    0    0  501    0  0.00000000000E+00  0.00000000000E+00  0.54573280310E+03  0.54573280310E+03  0.00000000000E+00 0. -1.
         -2   -1    0    0    0  501 -0.00000000000E+00 -0.00000000000E+00 -0.14881811257E+04  0.14881811257E+04  0.00000000000E+00 0.  1.
         23    2    1    2    0    0 -0.84508046347E+02 -0.13917215933E+02 -0.11120798991E+04  0.11185489078E+04  0.84229795731E+02 0.  0.
        254    2    1    2    0    0  0.84508046347E+02  0.13917215933E+02  0.16963157649E+03  0.91536502096E+03  0.89542333623E+03 0.  0.
        -24    2    4    4    0    0 -0.16902602173E+03 -0.19660789707E+03  0.41639819500E+03  0.49639337246E+03  0.76121365063E+02 0.  0.
         24    2    4    4    0    0  0.25353406807E+03  0.21052511300E+03 -0.24676661851E+03  0.41897164850E+03  0.77737580075E+02 0.  0.
         11    1    3    3    0    0  0.77247889881E+01  0.13734517754E+02 -0.58731885983E+02  0.60809076411E+02  0.00000000000E+00 0. -1.
        -11    1    3    3    0    0 -0.92232835335E+02 -0.27651733687E+02 -0.10533480131E+04  0.10577398314E+04  0.00000000000E+00 0.  1.
          4    1    6    6  502    0  0.22012061375E+03  0.17441778837E+03 -0.17155125383E+03  0.32909646334E+03  0.00000000000E+00 0. -1.
          3    1    5    5  503    0 -0.17214548627E+03 -0.16503010107E+03  0.36924025183E+03  0.43955359887E+03  0.00000000000E+00 0. -1.
         -4    1    5    5    0  503  0.31194645467E+01 -0.31577795994E+02  0.47157943162E+02  0.56839773593E+02  0.00000000000E+00 0.  1.
         -3    1    6    6    0  502  0.33413454325E+02  0.36107324633E+02 -0.75215364680E+02  0.89875185151E+02  0.00000000000E+00 0.  1.
<mgrwt>
<rscale>  0 0.18023865E+04</rscale>
<asrwt>0</asrwt>
<pdfrwt beam="1">  1        2 0.83958893E-01 0.18023865E+04</pdfrwt>
<pdfrwt beam="2">  1       -2 0.22895094E+00 0.18023865E+04</pdfrwt>
<totfact> 0.45499056E+00</totfact>
</mgrwt>
</event>
<event>
12    1  0.1755460E-007  0.1612159E+04  0.7818608E-02  0.8813113E-01
          2   -1    0    0  501    0  0.00000000000E+00  0.00000000000E+00  0.10456342317E+04  0.10456342317E+04  0.00000000000E+00 0. -1.
         -2   -1    0    0    0  501 -0.00000000000E+00 -0.00000000000E+00 -0.62140683157E+03  0.62140683157E+03  0.00000000000E+00 0.  1.
         23    2    1    2    0    0  0.51446051952E+03  0.10072178506E+03  0.15133941269E+03  0.55343403887E+03  0.92580307942E+02 0.  0.
        254    2    1    2    0    0 -0.51446051952E+03 -0.10072178506E+03  0.27288798748E+03  0.11136070244E+04  0.94384227869E+03 0.  0.
        -24    2    4    4    0    0 -0.67818039886E+03 -0.31019050625E+02  0.47434500248E+03  0.83216266297E+03  0.81244577471E+02 0.  0.
         24    2    4    4    0    0  0.16371987934E+03 -0.69702734432E+02 -0.20145701500E+03  0.28144436147E+03  0.83446567522E+02 0.  0.
         11    1    3    3    0    0  0.27902023890E+03  0.45105281524E+02  0.12836320346E+03  0.31042534069E+03  0.00000000000E+00 0. -1.
        -11    1    3    3    0    0  0.23544028062E+03  0.55616503532E+02  0.22976209232E+02  0.24300869819E+03  0.00000000000E+00 0.  1.
          2    1    6    6  502    0  0.88203501345E+02 -0.53441003641E+02 -0.57513321808E+02  0.11808293994E+03  0.00000000000E+00 0. -1.
          1    1    5    5  503    0 -0.50580041256E+03  0.91810764193E+01  0.33298877813E+03  0.60564005471E+03  0.00000000000E+00 0. -1.
         -2    1    5    5    0  503 -0.17237998630E+03 -0.40200127044E+02  0.14135622435E+03  0.22652260826E+03  0.00000000000E+00 0.  1.
         -1    1    6    6    0  502  0.75516377996E+02 -0.16261730791E+02 -0.14394369319E+03  0.16336142153E+03  0.00000000000E+00 0.  1.
<mgrwt>
<rscale>  0 0.16121591E+04</rscale>
<asrwt>0</asrwt>
<pdfrwt beam="1">  1        2 0.16086681E+00 0.16121591E+04</pdfrwt>
<pdfrwt beam="2">  1       -2 0.95601051E-01 0.16121591E+04</pdfrwt>
<totfact> 0.20730177E+01</totfact>
</mgrwt>
</event>
<event>
12    1  0.1755460E-007  0.1279988E+04  0.7818608E-02  0.9045587E-01
         -1   -1    0    0    0  501 -0.00000000000E+00  0.00000000000E+00  0.21231886463E+03  0.21231886463E+03  0.00000000000E+00 0.  1.
          1   -1    0    0  501    0  0.00000000000E+00 -0.00000000000E+00 -0.19291379676E+04  0.19291379676E+04  0.00000000000E+00 0. -1.
         23    2    1    2    0    0  0.15787831599E+03  0.23862329398E+03 -0.19896475702E+03  0.35940582191E+03  0.87857448164E+02 0.  0.
        254    2    1    2    0    0 -0.15787831599E+03 -0.23862329398E+03 -0.15178543460E+04  0.17820510103E+04  0.88879544820E+03 0.  0.
        -24    2    4    4    0    0 -0.23782798903E+02  0.32263255089E+03 -0.72210761316E+03  0.79529960984E+03  0.80029244769E+02 0.  0.
         24    2    4    4    0    0 -0.13409551709E+03 -0.56125584487E+03 -0.79574673281E+03  0.98675140048E+03  0.86462318187E+02 0.  0.
         13    1    3    3    0    0  0.16892837851E+03  0.21802492827E+03 -0.18058977364E+03  0.32967306950E+03  0.00000000000E+00 0.  1.
        -13    1    3    3    0    0 -0.11050062517E+02  0.20598365710E+02 -0.18374983376E+02  0.29732752406E+02  0.00000000000E+00 0. -1.
          4    1    6    6  502    0 -0.93540369513E+02 -0.50441058797E+03 -0.68453479087E+03  0.85543423002E+03  0.00000000000E+00 0. -1.
          1    1    5    5  503    0  0.46676132435E+01  0.28800222877E+03 -0.63758055645E+03  0.69962564014E+03  0.00000000000E+00 0. -1.
         -2    1    5    5    0  503 -0.28450412147E+02  0.34630322123E+02 -0.84527056710E+02  0.95673969698E+02  0.00000000000E+00 0.  1.
         -3    1    6    6    0  502 -0.40555147572E+02 -0.56845256907E+02 -0.11121194194E+03  0.13131717046E+03  0.00000000000E+00 0.  1.
<mgrwt>
<rscale>  0 0.12799881E+04</rscale>
<asrwt>0</asrwt>
<pdfrwt beam="1">  1        1 0.29679045E+00 0.12799881E+04</pdfrwt>
<pdfrwt beam="2">  1       -1 0.32664441E-01 0.12799881E+04</pdfrwt>
<totfact> 0.28786410E+01</totfact>
</mgrwt>
</event>
<event>
12    1  0.1755460E-007  0.1278483E+04  0.7818608E-02  0.9046804E-01
          1   -1    0    0  501    0  0.00000000000E+00  0.00000000000E+00  0.19880657305E+04  0.19880657305E+04  0.00000000000E+00 0. -1.
         -1   -1    0    0    0  501 -0.00000000000E+00 -0.00000000000E+00 -0.20554149756E+03  0.20554149756E+03  0.00000000000E+00 0.  1.
         23    2    1    2    0    0  0.73306401054E+01  0.22339291033E+03  0.78899483033E+02  0.25375207808E+03  0.90591710659E+02 0.  0.
        254    2    1    2    0    0 -0.73306401054E+01 -0.22339291033E+03  0.17036247499E+04  0.19398551500E+04  0.90041245201E+03 0.  0.
        -24    2    4    4    0    0 -0.21641046417E+03 -0.28394943810E+03  0.16647295350E+04  0.17044248342E+04  0.79238994766E+02 0.  0.
         24    2    4    4    0    0  0.20907982407E+03  0.60556527768E+02  0.38895214925E+02  0.23543031581E+03  0.80827779703E+02 0.  0.
         11    1    3    3    0    0  0.30141831173E+02  0.21343183263E+03  0.76595919990E+02  0.22875448001E+03  0.00000000000E+00 0.  1.
        -11    1    3    3    0    0 -0.22811191068E+02  0.99610777020E+01  0.23035630435E+01  0.24997598077E+02  0.00000000000E+00 0. -1.
          4    1    6    6  502    0  0.10880595240E+03  0.47463561237E+02 -0.16947064329E+02  0.11991133355E+03  0.00000000000E+00 0. -1.
          3    1    5    5  503    0 -0.14138262479E+03 -0.12985718541E+03  0.97517914842E+03  0.99389451488E+03  0.00000000000E+00 0. -1.
         -4    1    5    5    0  503 -0.75027839382E+02 -0.15409225269E+03  0.68955038654E+03  0.71053031927E+03  0.00000000000E+00 0.  1.
         -3    1    6    6    0  502  0.10027387167E+03  0.13092966531E+02  0.55842279254E+02  0.11551898227E+03  0.00000000000E+00 0.  1.
<mgrwt>
<rscale>  0 0.12784835E+04</rscale>
<asrwt>0</asrwt>
<pdfrwt beam="1">  1        1 0.30585625E+00 0.12784835E+04</pdfrwt>
<pdfrwt beam="2">  1       -1 0.31621770E-01 0.12784835E+04</pdfrwt>
<totfact> 0.27820153E+01</totfact>
</mgrwt>
</event>
<event>
12    1  0.1755460E-007  0.1129963E+04  0.7818608E-02  0.9176470E-01
          1   -1    0    0  501    0  0.00000000000E+00  0.00000000000E+00  0.63944192910E+03  0.63944192910E+03  0.00000000000E+00 0. -1.
         -1   -1    0    0    0  501 -0.00000000000E+00 -0.00000000000E+00 -0.49919188007E+03  0.49919188007E+03  0.00000000000E+00 0.  1.
         23    2    1    2    0    0 -0.16445483257E+03  0.53426948873E+02 -0.31205207785E+02  0.19799641780E+03  0.91263276543E+02 0.  0.
        254    2    1    2    0    0  0.16445483257E+03 -0.53426948873E+02  0.17145525681E+03  0.94063739137E+03  0.90857138747E+03 0.  0.
        -24    2    4    4    0    0 -0.34552412517E+03 -0.16394658670E+03  0.18923200071E+02  0.39149423022E+03  0.81512210274E+02 0.  0.
         24    2    4    4    0    0  0.50997895775E+03  0.11051963783E+03  0.15253205674E+03  0.54914316115E+03  0.77453569387E+02 0.  0.
         11    1    3    3    0    0 -0.10628628582E+03  0.74679628080E+02 -0.29678375376E+01  0.12993317307E+03  0.00000000000E+00 0. -1.
        -11    1    3    3    0    0 -0.58168546748E+02 -0.21252679207E+02 -0.28237370247E+02  0.68063244727E+02  0.00000000000E+00 0.  1.
          4    1    6    6  502    0  0.21294394014E+03  0.36837067917E+02  0.10197383664E+03  0.23895764180E+03  0.00000000000E+00 0. -1.
          3    1    5    5  503    0 -0.12719167634E+03 -0.24203486089E+02 -0.13823150543E+02  0.13020987198E+03  0.00000000000E+00 0. -1.
         -4    1    5    5    0  503 -0.21833244883E+03 -0.13974310061E+03  0.32746350614E+02  0.26128435824E+03  0.00000000000E+00 0.  1.
         -3    1    6    6    0  502  0.29703501760E+03  0.73682569913E+02  0.50558220101E+02  0.31018551934E+03  0.00000000000E+00 0.  1.
<mgrwt>
<rscale>  0 0.11299632E+04</rscale>
<asrwt>0</asrwt>
<pdfrwt beam="1">  1        1 0.98375682E-01 0.11299632E+04</pdfrwt>
<pdfrwt beam="2">  1       -1 0.76798750E-01 0.11299632E+04</pdfrwt>
<totfact> 0.52813807E+01</totfact>
</mgrwt>
</event>
<event>
12    1  0.1755460E-007  0.1256111E+04  0.7818608E-02  0.9065112E-01
          1   -1    0    0  501    0  0.00000000000E+00  0.00000000000E+00  0.13260700881E+04  0.13260700881E+04  0.00000000000E+00 0. -1.
         -1   -1    0    0    0  501 -0.00000000000E+00 -0.00000000000E+00 -0.29746063838E+03  0.29746063838E+03  0.00000000000E+00 0.  1.
         23    2    1    2    0    0 -0.93573630896E+02 -0.18636083355E+03 -0.23300746914E+02  0.22895826479E+03  0.91611012052E+02 0.  0.
        254    2    1    2    0    0  0.93573630896E+02  0.18636083355E+03  0.10519101966E+04  0.13945724617E+04  0.89153289587E+03 0.  0.
        -24    2    4    4    0    0  0.12177802002E+03 -0.24599964113E+03  0.87399292251E+03  0.91950416833E+03  0.79237474649E+02 0.  0.
         24    2    4    4    0    0 -0.28204389122E+02  0.43236047468E+03  0.17791727411E+03  0.47506829334E+03  0.79399365734E+02 0.  0.
         13    1    3    3    0    0 -0.83471236529E+02 -0.99895383951E+02 -0.47548523094E+02  0.13859075406E+03  0.00000000000E+00 0.  1.
        -13    1    3    3    0    0 -0.10102394367E+02 -0.86465449597E+02  0.24247776180E+02  0.90367510730E+02  0.00000000000E+00 0. -1.
          4    1    6    6  502    0 -0.19326505705E+02  0.43024656758E+03  0.17780865257E+03  0.46594156250E+03  0.00000000000E+00 0. -1.
          3    1    5    5  503    0  0.27578866169E+02 -0.13946170694E+03  0.39266727885E+03  0.41760957058E+03  0.00000000000E+00 0. -1.
         -4    1    5    5    0  503  0.94199153849E+02 -0.10653793419E+03  0.48132564366E+03  0.50189459776E+03  0.00000000000E+00 0.  1.
         -3    1    6    6    0  502 -0.88778834178E+01  0.21139070996E+01  0.10862154626E+00  0.91267308411E+01  0.00000000000E+00 0.  1.
<mgrwt>
<rscale>  0 0.12561109E+04</rscale>
<asrwt>0</asrwt>
<pdfrwt beam="1">  1        1 0.20401078E+00 0.12561109E+04</pdfrwt>
<pdfrwt beam="2">  1       -1 0.45763176E-01 0.12561109E+04</pdfrwt>
<totfact> 0.40526370E+01</totfact>
</mgrwt>
</event>
<event>
12    1  0.1755460E-007  0.1543275E+04  0.7818608E-02  0.8856175E-01
          2   -1    0    0  501    0  0.00000000000E+00  0.00000000000E+00  0.75126948144E+03  0.75126948144E+03  0.00000000000E+00 0. -1.
         -2   -1    0    0    0  501 -0.00000000000E+00 -0.00000000000E+00 -0.79255752917E+03  0.79255752917E+03  0.00000000000E+00 0.  1.
         23    2    1    2    0    0 -0.26238328764E+03 -0.17715165351E+03 -0.39851178405E+03  0.51747637903E+03  0.93501138291E+02 0.  0.
        254    2    1    2    0    0  0.26238328764E+03  0.17715165351E+03  0.35722373632E+03  0.10263506316E+04  0.90860284128E+03 0.  0.
        -24    2    4    4    0    0  0.34818962297E+03  0.89816369051E+02 -0.22142443157E+03  0.42976040258E+03  0.79763594686E+02 0.  0.
         24    2    4    4    0    0 -0.85806335331E+02  0.87335284457E+02  0.57864816789E+03  0.59659022900E+03  0.78077013523E+02 0.  0.
         13    1    3    3    0    0 -0.12531647560E+03 -0.30227046325E+02 -0.16588795859E+03  0.21008738227E+03  0.00000000000E+00 0. -1.
        -13    1    3    3    0    0 -0.13706681204E+03 -0.14692460718E+03 -0.23262382546E+03  0.30738899676E+03  0.00000000000E+00 0.  1.
          4    1    6    6  502    0 -0.30847546578E+02  0.19275758892E+01  0.54154435760E+02  0.62353745607E+02  0.00000000000E+00 0. -1.
          1    1    5    5  503    0  0.52994291737E+02 -0.13831118008E+02 -0.23864789351E+02  0.59742974088E+02  0.00000000000E+00 0. -1.
         -2    1    5    5    0  503  0.29519533123E+03  0.10364748706E+03 -0.19755964222E+03  0.37001742849E+03  0.00000000000E+00 0.  1.
         -3    1    6    6    0  502 -0.54958788753E+02  0.85407708568E+02  0.52449373213E+03  0.53423648339E+03  0.00000000000E+00 0.  1.
<mgrwt>
<rscale>  0 0.15432748E+04</rscale>
<asrwt>0</asrwt>
<pdfrwt beam="1">  1        2 0.11557992E+00 0.15432748E+04</pdfrwt>
<pdfrwt beam="2">  1       -2 0.12193193E+00 0.15432748E+04</pdfrwt>
<totfact> 0.18385854E+01</totfact>
</mgrwt>
</event>
<event>
12    1  0.1755460E-007  0.1328115E+04  0.7818608E-02  0.9007562E-01
          2   -1    0    0  501    0  0.00000000000E+00  0.00000000000E+00  0.32395982414E+04  0.32395982414E+04  0.00000000000E+00 0. -1.
         -2   -1    0    0    0  501 -0.00000000000E+00 -0.00000000000E+00 -0.13611949309E+03  0.13611949309E+03  0.00000000000E+00 0.  1.
         23    2    1    2    0    0 -0.20972177100E+03 -0.12632487076E+03  0.27902700994E+03  0.38229697891E+03  0.91398652094E+02 0.  0.
        254    2    1    2    0    0  0.20972177100E+03  0.12632487076E+03  0.28244517383E+04  0.29934207555E+04  0.96078041372E+03 0.  0.
        -24    2    4    4    0    0  0.46889342024E+03 -0.11747172458E+03  0.23191025137E+04  0.23703235079E+04  0.80848113809E+02 0.  0.
         24    2    4    4    0    0 -0.25917164924E+03  0.24379659534E+03  0.50534922468E+03  0.62309724768E+03  0.79155653721E+02 0.  0.
         13    1    3    3    0    0 -0.42107763673E+02 -0.73462789547E+02  0.76156265831E+02  0.11388424841E+03  0.00000000000E+00 0.  1.
        -13    1    3    3    0    0 -0.16761400732E+03 -0.52862081213E+02  0.20287074411E+03  0.26841273050E+03  0.00000000000E+00 0. -1.
          4    1    6    6  502    0 -0.17586961945E+03  0.21079073436E+03  0.39315315417E+03  0.47951252264E+03  0.00000000000E+00 0. -1.
          3    1    5    5  503    0 -0.29099402027E+01 -0.21236992218E+01  0.86264036688E+01  0.93484057799E+01  0.00000000000E+00 0. -1.
         -4    1    5    5    0  503  0.47180336044E+03 -0.11534802535E+03  0.23104761100E+04  0.23609751021E+04  0.00000000000E+00 0.  1.
         -3    1    6    6    0  502 -0.83302029795E+02  0.33005860972E+02  0.11219607051E+03  0.14358472504E+03  0.00000000000E+00 0.  1.
<mgrwt>
<rscale>  0 0.13281152E+04</rscale>
<asrwt>0</asrwt>
<pdfrwt beam="1">  1        2 0.49839967E+00 0.13281152E+04</pdfrwt>
<pdfrwt beam="2">  1       -2 0.20941463E-01 0.13281152E+04</pdfrwt>
<totfact> 0.23899587E+01</totfact>
</mgrwt>
</event>
<event>
12    1  0.1755460E-007  0.1664951E+04  0.7818608E-02  0.8781610E-01
          2   -1    0    0  501    0  0.00000000000E+00  0.00000000000E+00  0.26964883574E+04  0.26964883574E+04  0.00000000000E+00 0. -1.
         -2   -1    0    0    0  501 -0.00000000000E+00 -0.00000000000E+00 -0.25700678997E+03  0.25700678997E+03  0.00000000000E+00 0.  1.
         23    2    1    2    0    0  0.11986828098E+03  0.20470941868E+03 -0.81148923939E+02  0.26612160896E+03  0.89225624216E+02 0.  0.
        254    2    1    2    0    0 -0.11986828098E+03 -0.20470941868E+03  0.25206304913E+04  0.26873735384E+04  0.90117928850E+03 0.  0.
        -24    2    4    4    0    0  0.38588857048E+02  0.50151546876E+02 -0.38656194977E+02  0.10936101496E+03  0.80381917374E+02 0.  0.
         24    2    4    4    0    0 -0.15845713803E+03 -0.25486096556E+03  0.25592866863E+04  0.25780125234E+04  0.78341890392E+02 0.  0.
         13    1    3    3    0    0  0.44699355857E+01  0.34707143035E+02  0.16430213802E+02  0.38658996720E+02  0.00000000000E+00 0. -1.
        -13    1    3    3    0    0  0.11539834540E+03  0.17000227565E+03 -0.97579137741E+02  0.22746261224E+03  0.00000000000E+00 0.  1.
          2    1    6    6  502    0 -0.12042975417E+03 -0.18564019429E+03  0.21350883648E+04  0.21465246173E+04  0.00000000000E+00 0. -1.
          1    1    5    5  503    0 -0.66994249805E+01  0.54778524114E+02 -0.30686881360E+02  0.63144704344E+02  0.00000000000E+00 0. -1.
         -2    1    5    5    0  503  0.45288282028E+02 -0.46269772374E+01 -0.79693136172E+01  0.46216310616E+02  0.00000000000E+00 0.  1.
         -1    1    6    6    0  502 -0.38027383865E+02 -0.69220771270E+02  0.42419832153E+03  0.43148790608E+03  0.00000000000E+00 0.  1.
<mgrwt>
<rscale>  0 0.16649514E+04</rscale>
<asrwt>0</asrwt>
<pdfrwt beam="1">  1        2 0.41484434E+00 0.16649514E+04</pdfrwt>
<pdfrwt beam="2">  1       -2 0.39539508E-01 0.16649514E+04</pdfrwt>
<totfact> 0.15448350E+01</totfact>
</mgrwt>
</event>
<event>
12    1  0.1755460E-007  0.1533120E+04  0.7818608E-02  0.8862722E-01
         -1   -1    0    0    0  501 -0.00000000000E+00  0.00000000000E+00  0.50130680404E+03  0.50130680404E+03  0.00000000000E+00 0.  1.
          1   -1    0    0  501    0  0.00000000000E+00 -0.00000000000E+00 -0.11721656441E+04  0.11721656441E+04  0.00000000000E+00 0. -1.
         23    2    1    2    0    0  0.32560383030E+03  0.87832172587E+02 -0.61344053928E+03  0.70642010448E+03  0.94803607249E+02 0.  0.
        254    2    1    2    0    0 -0.32560383030E+03 -0.87832172587E+02 -0.57418300790E+02  0.96705234367E+03  0.90452254216E+03 0.  0.
        -24    2    4    4    0    0 -0.34062008371E+03  0.40298633759E+02 -0.43517410218E+03  0.56019799707E+03  0.82457718843E+02 0.  0.
         24    2    4    4    0    0  0.15016253415E+02 -0.12813080635E+03  0.37775580139E+03  0.40685434660E+03  0.78663984537E+02 0.  0.
         11    1    3    3    0    0 -0.66481370127E+01  0.13638617971E+00 -0.13051660524E+02  0.14647940789E+02  0.00000000000E+00 0.  1.
        -11    1    3    3    0    0  0.33225196731E+03  0.87695786407E+02 -0.60038887875E+03  0.69177216369E+03  0.00000000000E+00 0. -1.
          2    1    6    6  502    0  0.27034189966E+02 -0.67744280289E+02  0.29393744905E+03  0.30285204126E+03  0.00000000000E+00 0. -1.
          1    1    5    5  503    0 -0.27050470060E+03  0.12599822789E+02 -0.38070370287E+03  0.46719038727E+03  0.00000000000E+00 0. -1.
         -2    1    5    5    0  503 -0.70115383117E+02  0.27698810970E+02 -0.54470399308E+02  0.93007609794E+02  0.00000000000E+00 0.  1.
         -1    1    6    6    0  502 -0.12017936551E+02 -0.60386526057E+02  0.83818352340E+02  0.10400230535E+03  0.00000000000E+00 0.  1.
<mgrwt>
<rscale>  0 0.15331205E+04</rscale>
<asrwt>0</asrwt>
<pdfrwt beam="1">  1        1 0.18033317E+00 0.15331205E+04</pdfrwt>
<pdfrwt beam="2">  1       -1 0.77124125E-01 0.15331205E+04</pdfrwt>
<totfact> 0.18220451E+01</totfact>
</mgrwt>
</event>
<event>
12    1  0.1755460E-007  0.2137710E+04  0.7818608E-02  0.8544811E-01
         -2   -1    0    0    0  501 -0.00000000000E+00  0.00000000000E+00  0.78033707143E+03  0.78033707143E+03  0.00000000000E+00 0.  1.
          2   -1    0    0  501    0  0.00000000000E+00 -0.00000000000E+00 -0.14640479808E+04  0.14640479808E+04  0.00000000000E+00 0. -1.
         23    2    1    2    0    0 -0.14798217078E+02 -0.52417995318E+03  0.45075887654E+03  0.69788614225E+03  0.94222567445E+02 0.  0.
        254    2    1    2    0    0  0.14798217078E+02  0.52417995318E+03 -0.11344697859E+04  0.15464989099E+04  0.91085321149E+03 0.  0.
        -24    2    4    4    0    0  0.34281365981E+03  0.17144719801E+03 -0.94429675537E+03  0.10222573146E+04  0.79989424838E+02 0.  0.
         24    2    4    4    0    0 -0.32801544274E+03  0.35273275517E+03 -0.19017303050E+03  0.52424159530E+03  0.81541041655E+02 0.  0.
         11    1    3    3    0    0  0.18873073664E+02 -0.12158844244E+03  0.64390473602E+02  0.13887431488E+03  0.00000000000E+00 0. -1.
        -11    1    3    3    0    0 -0.33671290743E+02 -0.40259151074E+03  0.38636840294E+03  0.55901182736E+03  0.00000000000E+00 0.  1.
          4    1    6    6  502    0 -0.24991971160E+03  0.30662554511E+03 -0.13444578144E+03  0.41779750515E+03  0.00000000000E+00 0. -1.
          3    1    5    5  503    0  0.23905271683E+03  0.14575644193E+03 -0.60774180753E+03  0.66913469975E+03  0.00000000000E+00 0. -1.
         -4    1    5    5    0  503  0.10376094299E+03  0.25690756076E+02 -0.33655494783E+03  0.35312261489E+03  0.00000000000E+00 0.  1.
         -3    1    6    6    0  502 -0.78095731140E+02  0.46107210055E+02 -0.55727249057E+02  0.10644409015E+03  0.00000000000E+00 0.  1.
<mgrwt>
<rscale>  0 0.21377099E+04</rscale>
<asrwt>0</asrwt>
<pdfrwt beam="1">  1        2 0.22523815E+00 0.21377099E+04</pdfrwt>
<pdfrwt beam="2">  1       -2 0.12005186E+00 0.21377099E+04</pdfrwt>
<totfact> 0.64840273E+00</totfact>
</mgrwt>
</event>
<event>
12    1  0.1755460E-007  0.4171656E+04  0.7818608E-02  0.7970786E-01
          1   -1    0    0  501    0  0.00000000000E+00  0.00000000000E+00  0.37805396212E+04  0.37805396212E+04  0.00000000000E+00 0. -1.
         -1   -1    0    0    0  501 -0.00000000000E+00 -0.00000000000E+00 -0.11508088393E+04  0.11508088393E+04  0.00000000000E+00 0.  1.
         23    2    1    2    0    0 -0.11870777221E+04 -0.15472184176E+04  0.79410416617E+03  0.21076539160E+04  0.92548651708E+02 0.  0.
        254    2    1    2    0    0  0.11870777221E+04  0.15472184176E+04  0.18356266157E+04  0.28236945446E+04  0.89481140957E+03 0.  0.
        -24    2    4    4    0    0  0.11094597237E+04  0.12772339025E+04  0.18772455409E+04  0.25285329996E+04  0.84858641555E+02 0.  0.
         24    2    4    4    0    0  0.77617998366E+02  0.26998451508E+03 -0.41618925175E+02  0.29516154496E+03  0.80448807554E+02 0.  0.
         13    1    3    3    0    0 -0.41174126321E+03 -0.56060997811E+03  0.32863120877E+03  0.76929375843E+03  0.00000000000E+00 0. -1.
        -13    1    3    3    0    0 -0.77533645884E+03 -0.98660843949E+03  0.46547295740E+03  0.13383601576E+04  0.00000000000E+00 0.  1.
          2    1    6    6  502    0  0.16001988759E+02  0.14733030847E+03 -0.53096536854E+02  0.15742149048E+03  0.00000000000E+00 0. -1.
          3    1    5    5  503    0  0.10686652803E+04  0.12085376879E+04  0.18042064403E+04  0.24202829801E+04  0.00000000000E+00 0. -1.
         -4    1    5    5    0  503  0.40794443412E+02  0.68696214594E+02  0.73039100576E+02  0.10825001952E+03  0.00000000000E+00 0.  1.
         -1    1    6    6    0  502  0.61616009607E+02  0.12265420661E+03  0.11477611678E+02  0.13774005448E+03  0.00000000000E+00 0.  1.
<mgrwt>
<rscale>  0 0.41716560E+04</rscale>
<asrwt>0</asrwt>
<pdfrwt beam="1">  1        1 0.58162147E+00 0.41716560E+04</pdfrwt>
<pdfrwt beam="2">  1       -1 0.17704752E+00 0.41716560E+04</pdfrwt>
<totfact> 0.24900344E-02</totfact>
</mgrwt>
</event>
<event>
12    1  0.1755460E-007  0.2807885E+04  0.7818608E-02  0.8300825E-01
          1   -1    0    0  501    0  0.00000000000E+00  0.00000000000E+00  0.23656053086E+04  0.23656053086E+04  0.00000000000E+00 0. -1.
         -1   -1    0    0    0  501 -0.00000000000E+00 -0.00000000000E+00 -0.83321336688E+03  0.83321336688E+03  0.00000000000E+00 0.  1.
         23    2    1    2    0    0 -0.98480335656E+03 -0.66012694036E+03  0.11679065707E+04  0.16657555881E+04  0.71628855610E+02 0.  0.
        254    2    1    2    0    0  0.98480335656E+03  0.66012694036E+03  0.36448537096E+03  0.15330630873E+04  0.90101476992E+03 0.  0.
        -24    2    4    4    0    0  0.10862290543E+04  0.64085268006E+03  0.48656480836E+03  0.13541378898E+04  0.79739549786E+02 0.  0.
         24    2    4    4    0    0 -0.10142569776E+03  0.19274260306E+02 -0.12207943739E+03  0.17892519757E+03  0.80325388353E+02 0.  0.
         13    1    3    3    0    0 -0.57564698155E+02 -0.20455342379E+02  0.66565909471E+02  0.90350073654E+02  0.00000000000E+00 0.  1.
        -13    1    3    3    0    0 -0.92723865840E+03 -0.63967159798E+03  0.11013406613E+04  0.15754055145E+04  0.00000000000E+00 0. -1.
          2    1    6    6  502    0  0.73001049112E+01  0.20128668970E+02 -0.13780493781E+02  0.25462852454E+02  0.00000000000E+00 0. -1.
          1    1    5    5  503    0  0.15286456961E+03  0.11700472366E+03  0.92562706556E+02  0.21360134982E+03  0.00000000000E+00 0. -1.
         -2    1    5    5    0  503  0.93336448470E+03  0.52384795640E+03  0.39400210180E+03  0.11405365399E+04  0.00000000000E+00 0.  1.
         -1    1    6    6    0  502 -0.10872580267E+03 -0.85440866420E+00 -0.10829894361E+03  0.15346234511E+03  0.00000000000E+00 0.  1.
<mgrwt>
<rscale>  0 0.28078846E+04</rscale>
<asrwt>0</asrwt>
<pdfrwt beam="1">  1        1 0.36393927E+00 0.28078846E+04</pdfrwt>
<pdfrwt beam="2">  1       -1 0.12818667E+00 0.28078846E+04</pdfrwt>
<totfact> 0.76241089E-01</totfact>
</mgrwt>
</event>
<event>
12    1  0.1755460E-007  0.1761716E+04  0.7818608E-02  0.8726927E-01
          1   -1    0    0  501    0  0.00000000000E+00  0.00000000000E+00  0.15709725124E+04  0.15709725124E+04  0.00000000000E+00 0. -1.
         -1   -1    0    0    0  501 -0.00000000000E+00 -0.00000000000E+00 -0.49390501950E+03  0.49390501950E+03  0.00000000000E+00 0.  1.
         23    2    1    2    0    0 -0.22313609904E+03 -0.24916914332E+02  0.10924581444E+04  0.11189592683E+04  0.90523342812E+02 0.  0.
        254    2    1    2    0    0  0.22313609904E+03  0.24916914332E+02 -0.15390651507E+02  0.94591826357E+03  0.91875672400E+03 0.  0.
        -24    2    4    4    0    0  0.50886741586E+03 -0.46225193381E+02  0.21881052924E+03  0.56137242732E+03  0.78601138809E+02 0.  0.
         24    2    4    4    0    0 -0.28573131682E+03  0.71142107713E+02 -0.23420118075E+03  0.38454583625E+03  0.79509258654E+02 0.  0.
         13    1    3    3    0    0 -0.75795419475E+02  0.35137660909E+01  0.58127076959E+03  0.58620218334E+03  0.00000000000E+00 0. -1.
        -13    1    3    3    0    0 -0.14734067957E+03 -0.28430680423E+02  0.51118737478E+03  0.53275708496E+03  0.00000000000E+00 0.  1.
          4    1    6    6  502    0  0.15861634137E+01  0.28202082175E+01 -0.18630763508E+02  0.18909649327E+02  0.00000000000E+00 0. -1.
          1    1    5    5  503    0  0.26533436429E+02 -0.18432817037E+02  0.24845684644E+02  0.40756595026E+02  0.00000000000E+00 0. -1.
         -2    1    5    5    0  503  0.48233397944E+03 -0.27792376344E+02  0.19396484460E+03  0.52061583230E+03  0.00000000000E+00 0.  1.
         -3    1    6    6    0  502 -0.28731748023E+03  0.68321899495E+02 -0.21557041724E+03  0.36563618692E+03  0.00000000000E+00 0.  1.
<mgrwt>
<rscale>  0 0.17617164E+04</rscale>
<asrwt>0</asrwt>
<pdfrwt beam="1">  1        1 0.24168808E+00 0.17617164E+04</pdfrwt>
<pdfrwt beam="2">  1       -1 0.75985388E-01 0.17617164E+04</pdfrwt>
<totfact> 0.96215258E+00</totfact>
</mgrwt>
</event>
<event>
12    1  0.1755460E-007  0.2528672E+04  0.7818608E-02  0.8392842E-01
         -2   -1    0    0    0  501 -0.00000000000E+00  0.00000000000E+00  0.90861828982E+03  0.90861828982E+03  0.00000000000E+00 0.  1.
          2   -1    0    0  501    0  0.00000000000E+00 -0.00000000000E+00 -0.17593143687E+04  0.17593143687E+04  0.00000000000E+00 0. -1.
         23    2    1    2    0    0  0.51299009663E+03  0.34504833734E+03  0.56773155324E+03  0.84381203692E+03  0.86501114152E+02 0.  0.
        254    2    1    2    0    0 -0.51299009663E+03 -0.34504833734E+03 -0.14184276321E+04  0.18241206216E+04  0.96605481226E+03 0.  0.
        -24    2    4    4    0    0 -0.50733896725E+03  0.22828140827E+02 -0.13459374758E+04  0.14407375199E+04  0.79138869398E+02 0.  0.
         24    2    4    4    0    0 -0.56511293819E+01 -0.36787647817E+03 -0.72490156300E+02  0.38338310173E+03  0.79766794356E+02 0.  0.
         13    1    3    3    0    0  0.45837707426E+03  0.29814994074E+03  0.46174052915E+03  0.71568655544E+03  0.00000000000E+00 0.  1.
        -13    1    3    3    0    0  0.54613022374E+02  0.46898396600E+02  0.10599102409E+03  0.12812548148E+03  0.00000000000E+00 0. -1.
          4    1    6    6  502    0  0.60941223531E+01 -0.56273210595E+02 -0.41166486204E+02  0.69989228773E+02  0.00000000000E+00 0. -1.
          1    1    5    5  503    0 -0.50667860918E+02 -0.21745355776E+02 -0.14595126730E+03  0.15601879712E+03  0.00000000000E+00 0. -1.
         -2    1    5    5    0  503 -0.45667110633E+03  0.44573496604E+02 -0.11999862085E+04  0.12847187228E+04  0.00000000000E+00 0.  1.
         -3    1    6    6    0  502 -0.11745251735E+02 -0.31160326757E+03 -0.31323670095E+02  0.31339387296E+03  0.00000000000E+00 0.  1.
<mgrwt>
<rscale>  0 0.25286718E+04</rscale>
<asrwt>0</asrwt>
<pdfrwt beam="1">  1        2 0.27066375E+00 0.25286718E+04</pdfrwt>
<pdfrwt beam="2">  1       -2 0.13978743E+00 0.25286718E+04</pdfrwt>
<totfact> 0.29167054E+00</totfact>
</mgrwt>
</event>
<event>
12    1  0.1755460E-007  0.2471601E+04  0.7818608E-02  0.8413173E-01
          2   -1    0    0  501    0  0.00000000000E+00  0.00000000000E+00  0.25942640923E+04  0.25942640923E+04  0.00000000000E+00 0. -1.
         -2   -1    0    0    0  501 -0.00000000000E+00 -0.00000000000E+00 -0.58868453103E+03  0.58868453103E+03  0.00000000000E+00 0.  1.
         23    2    1    2    0    0  0.59756582200E+03  0.80788205827E+03  0.40930828496E+03  0.10880395435E+04  0.80860648430E+02 0.  0.
        254    2    1    2    0    0 -0.59756582200E+03 -0.80788205827E+03  0.15962712764E+04  0.20949090798E+04  0.91148435716E+03 0.  0.
        -24    2    4    4    0    0 -0.51442744768E+03 -0.22500511308E+03  0.13256816936E+04  0.14420563089E+04  0.82653164362E+02 0.  0.
         24    2    4    4    0    0 -0.83138374320E+02 -0.58287694519E+03  0.27058958280E+03  0.65285277093E+03  0.79627229453E+02 0.  0.
         13    1    3    3    0    0  0.33382856967E+03  0.45907471358E+03  0.18804497681E+03  0.59795653678E+03  0.00000000000E+00 0. -1.
        -13    1    3    3    0    0  0.26373725234E+03  0.34880734469E+03  0.22126330815E+03  0.49008300676E+03  0.00000000000E+00 0.  1.
          2    1    6    6  502    0 -0.31809151725E+02 -0.34639935248E+03  0.19778318102E+03  0.40015312097E+03  0.00000000000E+00 0. -1.
          3    1    5    5  503    0 -0.49388218622E+03 -0.22751616456E+03  0.12994984803E+04  0.14086800628E+04  0.00000000000E+00 0. -1.
         -4    1    5    5    0  503 -0.20545261469E+02  0.25110514756E+01  0.26183213248E+02  0.33376246109E+02  0.00000000000E+00 0.  1.
         -1    1    6    6    0  502 -0.51329222595E+02 -0.23647759271E+03  0.72806401781E+02  0.25269964995E+03  0.00000000000E+00 0.  1.
<mgrwt>
<rscale>  0 0.24716012E+04</rscale>
<asrwt>0</asrwt>
<pdfrwt beam="1">  1        2 0.39911755E+00 0.24716012E+04</pdfrwt>
<pdfrwt beam="2">  1       -2 0.90566852E-01 0.24716012E+04</pdfrwt>
<totfact> 0.28553663E+00</totfact>
</mgrwt>
</event>
<event>
12    1  0.1755460E-007  0.1779775E+04  0.7818608E-02  0.8717130E-01
          2   -1    0    0  501    0  0.00000000000E+00  0.00000000000E+00  0.10332924204E+04  0.10332924204E+04  0.00000000000E+00 0. -1.
         -2   -1    0    0    0  501 -0.00000000000E+00 -0.00000000000E+00 -0.76638462046E+03  0.76638462046E+03  0.00000000000E+00 0.  1.
         23    2    1    2    0    0  0.61979816821E+03 -0.78072651841E+02 -0.11165365001E+03  0.64154965783E+03  0.94203596683E+02 0.  0.
        254    2    1    2    0    0 -0.61979816821E+03  0.78072651841E+02  0.37856144993E+03  0.11581273830E+04  0.89872418217E+03 0.  0.
        -24    2    4    4    0    0 -0.32911172579E+03 -0.36845116870E+03  0.16381711196E+01  0.50074906240E+03  0.81707699271E+02 0.  0.
         24    2    4    4    0    0 -0.29068644242E+03  0.44652382054E+03  0.37692327881E+03  0.65737832061E+03  0.78695413957E+02 0.  0.
         13    1    3    3    0    0  0.18941076135E+03  0.90954236320E+01 -0.51794342332E+01  0.18969973586E+03  0.00000000000E+00 0.  1.
        -13    1    3    3    0    0  0.43038740686E+03 -0.87168075473E+02 -0.10647421578E+03  0.45184992198E+03  0.00000000000E+00 0. -1.
          4    1    6    6  502    0 -0.14411292070E+03  0.29118608935E+03  0.22073129150E+03  0.39278515195E+03  0.00000000000E+00 0. -1.
          3    1    5    5  503    0 -0.23732615246E+03 -0.26621729819E+03 -0.35555127577E+02  0.35841249922E+03  0.00000000000E+00 0. -1.
         -4    1    5    5    0  503 -0.91785573324E+02 -0.10223387051E+03  0.37193298696E+02  0.14233656318E+03  0.00000000000E+00 0.  1.
         -3    1    6    6    0  502 -0.14657352172E+03  0.15533773119E+03  0.15619198731E+03  0.26459316866E+03  0.00000000000E+00 0.  1.
<mgrwt>
<rscale>  0 0.17797746E+04</rscale>
<asrwt>0</asrwt>
<pdfrwt beam="1">  1        2 0.15896807E+00 0.17797746E+04</pdfrwt>
<pdfrwt beam="2">  1       -2 0.11790533E+00 0.17797746E+04</pdfrwt>
<totfact> 0.12581190E+01</totfact>
</mgrwt>
</event>
<event>
12    1  0.1755460E-007  0.1504772E+04  0.7818608E-02  0.8881286E-01
          1   -1    0    0  501    0  0.00000000000E+00  0.00000000000E+00  0.50466301561E+03  0.50466301561E+03  0.00000000000E+00 0. -1.
         -1   -1    0    0    0  501 -0.00000000000E+00 -0.00000000000E+00 -0.11217085496E+04  0.11217085496E+04  0.00000000000E+00 0.  1.
         23    2    1    2    0    0 -0.31579443351E+02 -0.32642871280E+03  0.18231263018E+03  0.38610787361E+03  0.91040810423E+02 0.  0.
        254    2    1    2    0    0  0.31579443351E+02  0.32642871280E+03 -0.79935816413E+03  0.12402636916E+04  0.88979075310E+03 0.  0.
        -24    2    4    4    0    0 -0.11688981080E+03  0.46830847486E+03 -0.89501376476E+02  0.49699915239E+03  0.77599005085E+02 0.  0.
         24    2    4    4    0    0  0.14846925415E+03 -0.14187976206E+03 -0.70985678766E+03  0.74326453919E+03  0.79828127357E+02 0.  0.
         11    1    3    3    0    0  0.66637098403E+01 -0.17265189691E+03  0.13922499978E+03  0.22189340481E+03  0.00000000000E+00 0. -1.
        -11    1    3    3    0    0 -0.38243153192E+02 -0.15377681588E+03  0.43087630399E+02  0.16421446880E+03  0.00000000000E+00 0.  1.
          2    1    6    6  502    0  0.50336175404E+02 -0.35247714408E+02 -0.10849935519E+03  0.12469259001E+03  0.00000000000E+00 0. -1.
          3    1    5    5  503    0 -0.10976940362E+03  0.45792087465E+03 -0.73435214381E+02  0.47658533352E+03  0.00000000000E+00 0. -1.
         -4    1    5    5    0  503 -0.71204071775E+01  0.10387600208E+02 -0.16066162095E+02  0.20413818871E+02  0.00000000000E+00 0.  1.
         -1    1    6    6    0  502  0.98133078749E+02 -0.10663204766E+03 -0.60135743247E+03  0.61857194918E+03  0.00000000000E+00 0.  1.
<mgrwt>
<rscale>  0 0.15047722E+04</rscale>
<asrwt>0</asrwt>
<pdfrwt beam="1">  1        1 0.77640464E-01 0.15047722E+04</pdfrwt>
<pdfrwt beam="2">  1       -1 0.17257055E+00 0.15047722E+04</pdfrwt>
<totfact> 0.99679071E+00</totfact>
</mgrwt>
</event>
<event>
12    1  0.1755460E-007  0.1273492E+04  0.7818608E-02  0.9050855E-01
         -1   -1    0    0    0  501 -0.00000000000E+00  0.00000000000E+00  0.16404169024E+03  0.16404169024E+03  0.00000000000E+00 0.  1.
          1   -1    0    0  501    0  0.00000000000E+00 -0.00000000000E+00 -0.24715984354E+04  0.24715984354E+04  0.00000000000E+00 0. -1.
         23    2    1    2    0    0 -0.12446522344E+03 -0.11982645005E+02  0.45834671387E+01  0.15558693573E+03  0.92472216216E+02 0.  0.
        254    2    1    2    0    0  0.12446522344E+03  0.11982645005E+02 -0.23121402123E+04  0.24800531899E+04  0.88827714586E+03 0.  0.
        -24    2    4    4    0    0  0.24826917478E+03  0.69246011002E+02 -0.14417139869E+03  0.30618060813E+03  0.80799625051E+02 0.  0.
         24    2    4    4    0    0 -0.12380395135E+03 -0.57263365997E+02 -0.21679688136E+04  0.21738725818E+04  0.83825495006E+02 0.  0.
         11    1    3    3    0    0 -0.47282069671E+02  0.39859045221E+02 -0.53923584437E+01  0.62075882014E+02  0.00000000000E+00 0. -1.
        -11    1    3    3    0    0 -0.77183153765E+02 -0.51841690225E+02  0.99758255824E+01  0.93511053713E+02  0.00000000000E+00 0.  1.
          2    1    6    6  502    0 -0.42390264841E+02 -0.31922097409E+02 -0.14316687458E+04  0.14326518602E+04  0.00000000000E+00 0. -1.
          3    1    5    5  503    0  0.10525263632E+03  0.54067579659E+02 -0.28743170090E+02  0.12176859386E+03  0.00000000000E+00 0. -1.
         -4    1    5    5    0  503  0.14301653846E+03  0.15178431342E+02 -0.11542822860E+03  0.18441201427E+03  0.00000000000E+00 0.  1.
         -1    1    6    6    0  502 -0.81413686505E+02 -0.25341268588E+02 -0.73630006780E+03  0.74122072157E+03  0.00000000000E+00 0.  1.
<mgrwt>
<rscale>  0 0.12734916E+04</rscale>
<asrwt>0</asrwt>
<pdfrwt beam="1">  1        1 0.38024588E+00 0.12734916E+04</pdfrwt>
<pdfrwt beam="2">  1       -1 0.25237185E-01 0.12734916E+04</pdfrwt>
<totfact> 0.19325021E+01</totfact>
</mgrwt>
</event>
<event>
12    1  0.1755460E-007  0.1992334E+04  0.7818608E-02  0.8610213E-01
         -2   -1    0    0    0  501 -0.00000000000E+00  0.00000000000E+00  0.60890584750E+03  0.60890584750E+03  0.00000000000E+00 0.  1.
          2   -1    0    0  501    0  0.00000000000E+00 -0.00000000000E+00 -0.16297235768E+04  0.16297235768E+04  0.00000000000E+00 0. -1.
         23    2    1    2    0    0  0.58986483256E+02  0.34460268681E+03  0.38528966121E+03  0.52907781424E+03  0.96149849295E+02 0.  0.
        254    2    1    2    0    0 -0.58986483256E+02 -0.34460268681E+03 -0.14061073905E+04  0.17095516100E+04  0.90730275920E+03 0.  0.
        -24    2    4    4    0    0  0.61644008441E+02 -0.97760100245E+02  0.10255166702E+03  0.17397593214E+03  0.79960987859E+02 0.  0.
         24    2    4    4    0    0 -0.12063049170E+03 -0.24684258657E+03 -0.15086590575E+04  0.15355756779E+04  0.80358774895E+02 0.  0.
         11    1    3    3    0    0  0.22979676744E+02  0.27339391993E+03  0.24571790168E+03  0.36830637818E+03  0.00000000000E+00 0.  1.
        -11    1    3    3    0    0  0.36006806512E+02  0.71208766879E+02  0.13957175952E+03  0.16077143606E+03  0.00000000000E+00 0. -1.
          4    1    6    6  502    0 -0.28606880354E+02 -0.10434550565E+03 -0.41657801619E+03  0.43039932821E+03  0.00000000000E+00 0. -1.
          3    1    5    5  503    0 -0.17987522945E+02 -0.14038742877E+02  0.29425620083E+02  0.37235794614E+02  0.00000000000E+00 0. -1.
         -4    1    5    5    0  503  0.79631531386E+02 -0.83721357368E+02  0.73126046934E+02  0.13674013753E+03  0.00000000000E+00 0.  1.
         -3    1    6    6    0  502 -0.92023611342E+02 -0.14249708092E+03 -0.10920810413E+04  0.11051763497E+04  0.00000000000E+00 0.  1.
<mgrwt>
<rscale>  0 0.19923335E+04</rscale>
<asrwt>0</asrwt>
<pdfrwt beam="1">  1        2 0.25072670E+00 0.19923335E+04</pdfrwt>
<pdfrwt beam="2">  1       -2 0.93677825E-01 0.19923335E+04</pdfrwt>
<totfact> 0.96091594E+00</totfact>
</mgrwt>
</event>
<event>
12    1  0.1755460E-007  0.1283423E+04  0.7818608E-02  0.9042815E-01
          1   -1    0    0  501    0  0.00000000000E+00  0.00000000000E+00  0.29647854487E+04  0.29647854487E+04  0.00000000000E+00 0. -1.
         -1   -1    0    0    0  501 -0.00000000000E+00 -0.00000000000E+00 -0.13889488420E+03  0.13889488420E+03  0.00000000000E+00 0.  1.
         23    2    1    2    0    0  0.21976682346E+03  0.18061423175E+03  0.47818705890E+03  0.56335554641E+03  0.88247668368E+02 0.  0.
        254    2    1    2    0    0 -0.21976682346E+03 -0.18061423175E+03  0.23477035056E+04  0.25403247864E+04  0.92769570074E+03 0.  0.
        -24    2    4    4    0    0 -0.13709660661E+03 -0.12068948907E+03  0.23935964704E+04  0.24018430392E+04  0.78641525605E+02 0.  0.
         24    2    4    4    0    0 -0.82670216852E+02 -0.59924742681E+02 -0.45892964792E+02  0.13848174728E+03  0.81521105077E+02 0.  0.
         11    1    3    3    0    0  0.67369433753E+02  0.98031956611E+02  0.14302016481E+03  0.18602062430E+03  0.00000000000E+00 0.  1.
        -11    1    3    3    0    0  0.15239738971E+03  0.82582275137E+02  0.33516689408E+03  0.37733492211E+03  0.00000000000E+00 0. -1.
          4    1    6    6  502    0 -0.24936358147E+02 -0.24339934880E+02  0.23044460544E+02  0.41776806357E+02  0.00000000000E+00 0. -1.
          1    1    5    5  503    0  0.10461619769E+02 -0.70955172114E+01  0.15541256985E+03  0.15592581159E+03  0.00000000000E+00 0. -1.
         -2    1    5    5    0  503 -0.14755822638E+03 -0.11359397186E+03  0.22381839005E+04  0.22459172276E+04  0.00000000000E+00 0.  1.
         -3    1    6    6    0  502 -0.57733858705E+02 -0.35584807801E+02 -0.68937425336E+02  0.96704940925E+02  0.00000000000E+00 0.  1.
<mgrwt>
<rscale>  0 0.12834228E+04</rscale>
<asrwt>0</asrwt>
<pdfrwt beam="1">  1        1 0.45612079E+00 0.12834228E+04</pdfrwt>
<pdfrwt beam="2">  1       -1 0.21368446E-01 0.12834228E+04</pdfrwt>
<totfact> 0.11530763E+01</totfact>
</mgrwt>
</event>
<event>
12    1  0.1755460E-007  0.2698741E+04  0.7818608E-02  0.8335414E-01
         -3   -1    0    0    0  501 -0.00000000000E+00  0.00000000000E+00  0.19150250561E+04  0.19150250561E+04  0.00000000000E+00 0.  1.
          3   -1    0    0  501    0  0.00000000000E+00 -0.00000000000E+00 -0.95079705184E+03  0.95079705184E+03  0.00000000000E+00 0. -1.
         23    2    1    2    0    0  0.67840970012E+03 -0.46680592031E+03 -0.49641671100E+03  0.96580079817E+03  0.90521502029E+02 0.  0.
        254    2    1    2    0    0 -0.67840970012E+03  0.46680592031E+03  0.14606447153E+04  0.19000213098E+04  0.89356057707E+03 0.  0.
        -24    2    4    4    0    0 -0.32981031665E+03 -0.16527619247E+03  0.91942815575E+03  0.99389465831E+03  0.79921170338E+02 0.  0.
         24    2    4    4    0    0 -0.34859938347E+03  0.63208211278E+03  0.54121655952E+03  0.90612665146E+03  0.84266344001E+02 0.  0.
         11    1    3    3    0    0  0.26983315826E+03 -0.16935191766E+03 -0.14358668711E+03  0.34943832364E+03  0.00000000000E+00 0.  1.
        -11    1    3    3    0    0  0.40857654186E+03 -0.29745400265E+03 -0.35283002389E+03  0.61636247453E+03  0.00000000000E+00 0. -1.
          2    1    6    6  502    0 -0.68907655295E+02  0.20177596723E+03  0.17091152793E+03  0.27326279712E+03  0.00000000000E+00 0. -1.
          3    1    5    5  503    0 -0.29555879559E+03 -0.12962745390E+03  0.73071102429E+03  0.79880966411E+03  0.00000000000E+00 0. -1.
         -4    1    5    5    0  503 -0.34251521060E+02 -0.35648738573E+02  0.18871713145E+03  0.19508499420E+03  0.00000000000E+00 0.  1.
         -1    1    6    6    0  502 -0.27969172818E+03  0.43030614555E+03  0.37030503159E+03  0.63286385434E+03  0.00000000000E+00 0.  1.
<mgrwt>
<rscale>  0 0.26987406E+04</rscale>
<asrwt>0</asrwt>
<pdfrwt beam="1">  1        3 0.14627647E+00 0.26987406E+04</pdfrwt>
<pdfrwt beam="2">  1       -3 0.29461924E+00 0.26987406E+04</pdfrwt>
<totfact> 0.32083522E-02</totfact>
</mgrwt>
</event>
<event>
12    1  0.1755460E-007  0.2684738E+04  0.7818608E-02  0.8339974E-01
          2   -1    0    0  501    0  0.00000000000E+00  0.00000000000E+00  0.38329919039E+04  0.38329919039E+04  0.00000000000E+00 0.  1.
         -2   -1    0    0    0  501 -0.00000000000E+00 -0.00000000000E+00 -0.47011714047E+03  0.47011714047E+03  0.00000000000E+00 0. -1.
         23    2    1    2    0    0 -0.47943050773E+03 -0.63739367719E+03  0.79724852313E+02  0.80664212021E+03  0.90504953216E+02 0.  0.
        254    2    1    2    0    0  0.47943050773E+03  0.63739367719E+03  0.32831499111E+04  0.34964669242E+04  0.90004627739E+03 0.  0.
        -24    2    4    4    0    0  0.21364642320E+02 -0.14986047026E+03  0.13520958494E+03  0.21842712187E+03  0.80710391032E+02 0.  0.
         24    2    4    4    0    0  0.45806586541E+03  0.78725414744E+03  0.31479403262E+04  0.32780398023E+04  0.80144984571E+02 0.  0.
         11    1    3    3    0    0 -0.13399561997E+03 -0.11636717405E+03  0.22534020387E+02  0.17889641540E+03  0.00000000000E+00 0.  1.
        -11    1    3    3    0    0 -0.34543488777E+03 -0.52102650313E+03  0.57190831926E+02  0.62774570481E+03  0.00000000000E+00 0. -1.
          4    1    6    6  502    0  0.21250763459E+03  0.36352230749E+03  0.13129997131E+04  0.13788677273E+04  0.00000000000E+00 0. -1.
          1    1    5    5  503    0 -0.25936059067E+02 -0.68295599742E+02  0.83292543697E+02  0.11079086578E+03  0.00000000000E+00 0. -1.
         -2    1    5    5    0  503  0.47300701388E+02 -0.81564870516E+02  0.51917041247E+02  0.10763625609E+03  0.00000000000E+00 0.  1.
         -3    1    6    6    0  502  0.24555823083E+03  0.42373183995E+03  0.18349406130E+04  0.18991720749E+04  0.00000000000E+00 0.  1.
<mgrwt>
<rscale>  0 0.26847385E+04</rscale>
<asrwt>0</asrwt>
<pdfrwt beam="1">  1        2 0.58969104E+00 0.26847385E+04</pdfrwt>
<pdfrwt beam="2">  1       -2 0.72325716E-01 0.26847385E+04</pdfrwt>
<totfact> 0.70504583E-01</totfact>
</mgrwt>
</event>
<event>
12    1  0.1755460E-007  0.1162749E+04  0.7818608E-02  0.9146102E-01
         -2   -1    0    0    0  501 -0.00000000000E+00  0.00000000000E+00  0.70106786821E+03  0.70106786821E+03  0.00000000000E+00 0.  1.
          2   -1    0    0  501    0  0.00000000000E+00 -0.00000000000E+00 -0.48211673629E+03  0.48211673629E+03  0.00000000000E+00 0. -1.
         23    2    1    2    0    0  0.45510612408E+02  0.52032657522E+02  0.24843959545E+03  0.27485063290E+03  0.95089560578E+02 0.  0.
        254    2    1    2    0    0 -0.45510612408E+02 -0.52032657522E+02 -0.29488463532E+02  0.90833397160E+03  0.90521954308E+03 0.  0.
        -24    2    4    4    0    0 -0.49274452697E+02 -0.21227086411E+03  0.38860073293E+03  0.45334911523E+03  0.83833162903E+02 0.  0.
         24    2    4    4    0    0  0.37638402891E+01  0.16023820659E+03 -0.41808919646E+03  0.45498485637E+03  0.80760101402E+02 0.  0.
         11    1    3    3    0    0  0.21950691368E+01 -0.15001276736E+02  0.13668367188E+03  0.13752193567E+03  0.00000000000E+00 0. -1.
        -11    1    3    3    0    0  0.43315543271E+02  0.67033934258E+02  0.11175592357E+03  0.13732869723E+03  0.00000000000E+00 0.  1.
          4    1    6    6  502    0  0.14929641904E+02  0.10995285199E+03 -0.36293160128E+03  0.37951531073E+03  0.00000000000E+00 0. -1.
          1    1    5    5  503    0 -0.67847614199E+02 -0.18386324243E+03  0.35548703466E+03  0.40593105631E+03  0.00000000000E+00 0. -1.
         -2    1    5    5    0  503  0.18573161502E+02 -0.28407621684E+02  0.33113698276E+02  0.47418058917E+02  0.00000000000E+00 0.  1.
         -3    1    6    6    0  502 -0.11165801614E+02  0.50285354597E+02 -0.55157595186E+02  0.75469545642E+02  0.00000000000E+00 0.  1.
<mgrwt>
<rscale>  0 0.11627494E+04</rscale>
<asrwt>0</asrwt>
<pdfrwt beam="1">  1        2 0.74171805E-01 0.11627494E+04</pdfrwt>
<pdfrwt beam="2">  1       -2 0.10785660E+00 0.11627494E+04</pdfrwt>
<totfact> 0.43783436E+01</totfact>
</mgrwt>
</event>
<event>
12    1  0.1755460E-007  0.1730471E+04  0.7818608E-02  0.8744174E-01
         -1   -1    0    0    0  501 -0.00000000000E+00  0.00000000000E+00  0.21929924375E+04  0.21929924375E+04  0.00000000000E+00 0.  1.
          1   -1    0    0  501    0  0.00000000000E+00 -0.00000000000E+00 -0.34137496912E+03  0.34137496912E+03  0.00000000000E+00 0. -1.
         23    2    1    2    0    0  0.95330549615E+02 -0.56746407630E+03  0.29817823753E+03  0.65431140013E+03  0.90054180497E+02 0.  0.
        254    2    1    2    0    0 -0.95330549615E+02  0.56746407630E+03  0.15534392308E+04  0.18800560065E+04  0.88900717207E+03 0.  0.
        -24    2    4    4    0    0  0.39024726920E+03  0.22606382669E+03  0.63843780287E+03  0.78645519113E+03  0.86666917956E+02 0.  0.
         24    2    4    4    0    0 -0.48557781881E+03  0.34140024961E+03  0.91500142795E+03  0.10936008153E+04  0.79969879200E+02 0.  0.
         13    1    3    3    0    0  0.46459698517E+02 -0.12093443915E+03  0.37118956003E+02  0.13476445768E+03  0.00000000000E+00 0. -1.
        -13    1    3    3    0    0  0.48870851097E+02 -0.44652963715E+03  0.26105928153E+03  0.51954694246E+03  0.00000000000E+00 0.  1.
          2    1    6    6  502    0 -0.22484618494E+03  0.18404225847E+03  0.50873469026E+03  0.58586546652E+03  0.00000000000E+00 0. -1.
          1    1    5    5  503    0  0.14794878998E+03  0.90043469948E+02  0.17579209239E+03  0.24677830270E+03  0.00000000000E+00 0. -1.
         -2    1    5    5    0  503  0.24229847922E+03  0.13602035675E+03  0.46264571048E+03  0.53967688843E+03  0.00000000000E+00 0.  1.
         -1    1    6    6    0  502 -0.26073163387E+03  0.15735799114E+03  0.40626673769E+03  0.50773534881E+03  0.00000000000E+00 0.  1.
<mgrwt>
<rscale>  0 0.17304713E+04</rscale>
<asrwt>0</asrwt>
<pdfrwt beam="1">  1        1 0.52519227E-01 0.17304713E+04</pdfrwt>
<pdfrwt beam="2">  1       -1 0.33738344E+00 0.17304713E+04</pdfrwt>
<totfact> 0.13260078E+00</totfact>
</mgrwt>
</event>
<event>
12    1  0.1755460E-007  0.2770230E+04  0.7818608E-02  0.8312571E-01
          1   -1    0    0  501    0  0.00000000000E+00  0.00000000000E+00  0.12090058412E+04  0.12090058412E+04  0.00000000000E+00 0. -1.
         -1   -1    0    0    0  501 -0.00000000000E+00 -0.00000000000E+00 -0.15868769772E+04  0.15868769772E+04  0.00000000000E+00 0.  1.
         23    2    1    2    0    0 -0.82660759205E+03  0.89772536219E+03 -0.33579421942E+03  0.12688437222E+04  0.89530421547E+02 0.  0.
        254    2    1    2    0    0  0.82660759205E+03 -0.89772536219E+03 -0.42076916575E+02  0.15270390962E+04  0.91699890801E+03 0.  0.
        -24    2    4    4    0    0 -0.12167011626E+03  0.73552707242E+02  0.26538742509E+02  0.16518697412E+03  0.79804847176E+02 0.  0.
         24    2    4    4    0    0  0.94827770831E+03 -0.97127806943E+03 -0.68615659084E+02  0.13618521221E+04  0.85565141979E+02 0.  0.
         11    1    3    3    0    0 -0.56484938346E+03  0.56480824548E+03 -0.24734248632E+03  0.83620660467E+03  0.00000000000E+00 0.  1.
        -11    1    3    3    0    0 -0.26175820858E+03  0.33291711671E+03 -0.88451733100E+02  0.43263711751E+03  0.00000000000E+00 0. -1.
          4    1    6    6  502    0  0.33011472461E+03 -0.28152646637E+03 -0.16741752446E+02  0.43418103246E+03  0.00000000000E+00 0. -1.
          3    1    5    5  503    0 -0.28856722983E+02 -0.14711742017E+02  0.17428128593E+02  0.36781591602E+02  0.00000000000E+00 0. -1.
         -4    1    5    5    0  503 -0.92813393277E+02  0.88264449260E+02  0.91106139159E+01  0.12840538252E+03  0.00000000000E+00 0.  1.
         -3    1    6    6    0  502  0.61816298370E+03 -0.68975160306E+03 -0.51873906638E+02  0.92767108963E+03  0.00000000000E+00 0.  1.
<mgrwt>
<rscale>  0 0.27702300E+04</rscale>
<asrwt>0</asrwt>
<pdfrwt beam="1">  1        1 0.18600090E+00 0.27702300E+04</pdfrwt>
<pdfrwt beam="2">  1       -1 0.24413492E+00 0.27702300E+04</pdfrwt>
<totfact> 0.69570601E-01</totfact>
</mgrwt>
</event>
<event>
12    1  0.3504485E-007  0.2301012E+04  0.7818608E-02  0.8477522E-01
         -2   -1    0    0    0  501 -0.00000000000E+00  0.00000000000E+00  0.66968537830E+03  0.66968537830E+03  0.00000000000E+00 0.  1.
          2   -1    0    0  501    0  0.00000000000E+00 -0.00000000000E+00 -0.19765454345E+04  0.19765454345E+04  0.00000000000E+00 0. -1.
         23    2    1    2    0    0  0.28338158677E+03  0.92210237399E+03 -0.69980765207E+03  0.11956667770E+04  0.96490309256E+02 0.  0.
        254    2    1    2    0    0 -0.28338158677E+03 -0.92210237399E+03 -0.60705240413E+03  0.14505640358E+04  0.89724327184E+03 0.  0.
        -24    2    4    4    0    0 -0.38057899233E+03 -0.99778818280E+03 -0.30265308771E+03  0.11127289971E+04  0.78391978713E+02 0.  0.
         24    2    4    4    0    0  0.97197405563E+02  0.75685808813E+02 -0.30439931642E+03  0.33783503875E+03  0.79359260711E+02 0.  0.
         13    1    3    3    0    0  0.27727545347E+03  0.89042113749E+03 -0.69492348781E+03  0.11630348804E+04  0.00000000000E+00 0. -1.
        -13    1    3    3    0    0  0.61061332953E+01  0.31681236504E+02 -0.48841642524E+01  0.32631896523E+02  0.00000000000E+00 0.  1.
          2    1    6    6  502    0  0.69727050616E+01  0.20079018538E+02 -0.74237135999E+01  0.22514375962E+02  0.00000000000E+00 0. -1.
          1    1    5    5  503    0 -0.65799599335E+02 -0.22464970158E+03 -0.94215911878E+02  0.25233650894E+03  0.00000000000E+00 0. -1.
         -2    1    5    5    0  503 -0.31477939299E+03 -0.77313848122E+03 -0.20843717583E+03  0.86039248815E+03  0.00000000000E+00 0.  1.
         -1    1    6    6    0  502  0.90224700501E+02  0.55606790275E+02 -0.29697560282E+03  0.31532066278E+03  0.00000000000E+00 0.  1.
<mgrwt>
<rscale>  0 0.23010116E+04</rscale>
<asrwt>0</asrwt>
<pdfrwt beam="1">  1        2 0.30408391E+00 0.23010116E+04</pdfrwt>
<pdfrwt beam="2">  1       -2 0.10302852E+00 0.23010116E+04</pdfrwt>
<totfact> 0.48011815E+00</totfact>
</mgrwt>
</event>
<event>
12    1  0.1755460E-007  0.1316109E+04  0.7818608E-02  0.9016887E-01
          1   -1    0    0  501    0  0.00000000000E+00  0.00000000000E+00  0.16698225979E+04  0.16698225979E+04  0.00000000000E+00 0. -1.
         -1   -1    0    0    0  501 -0.00000000000E+00 -0.00000000000E+00 -0.25933031339E+03  0.25933031339E+03  0.00000000000E+00 0.  1.
         23    2    1    2    0    0 -0.22853044546E+03 -0.30803122990E+02  0.53052282717E+01  0.24774711362E+03  0.90418416117E+02 0.  0.
        254    2    1    2    0    0  0.22853044546E+03  0.30803122990E+02  0.14051870563E+04  0.16814057977E+04  0.89409160411E+03 0.  0.
        -24    2    4    4    0    0  0.26556558684E+03 -0.14030718021E+03  0.14504923214E+04  0.14835035705E+04  0.81508793671E+02 0.  0.
         24    2    4    4    0    0 -0.37035141375E+02  0.17111030320E+03 -0.45305265145E+02  0.19790222721E+03  0.80388972675E+02 0.  0.
         11    1    3    3    0    0 -0.14109360153E+03 -0.35825155220E+02  0.43890034451E+02  0.15204335324E+03  0.00000000000E+00 0. -1.
        -11    1    3    3    0    0 -0.87436843927E+02  0.50220322301E+01 -0.38584806179E+02  0.95703760383E+02  0.00000000000E+00 0.  1.
          2    1    6    6  502    0  0.18136971529E+02  0.21488387083E+02  0.88635776357E+01  0.29483275330E+02  0.00000000000E+00 0. -1.
          1    1    5    5  503    0  0.11114960331E+03 -0.14700947459E+02  0.51034345634E+03  0.52251391905E+03  0.00000000000E+00 0. -1.
         -2    1    5    5    0  503  0.15441598352E+03 -0.12560623275E+03  0.94014886507E+03  0.96098965144E+03  0.00000000000E+00 0.  1.
         -1    1    6    6    0  502 -0.55172112904E+02  0.14962191612E+03 -0.54168842781E+02  0.16841895188E+03  0.00000000000E+00 0.  1.
<mgrwt>
<rscale>  0 0.13161088E+04</rscale>
<asrwt>0</asrwt>
<pdfrwt beam="1">  1        1 0.25689578E+00 0.13161088E+04</pdfrwt>
<pdfrwt beam="2">  1       -1 0.39896972E-01 0.13161088E+04</pdfrwt>
<totfact> 0.30018261E+01</totfact>
</mgrwt>
</event>
<event>
12    1  0.1755460E-007  0.2044026E+04  0.7818608E-02  0.8586309E-01
         -3   -1    0    0    0  501 -0.00000000000E+00  0.00000000000E+00  0.44176933961E+03  0.44176933961E+03  0.00000000000E+00 0. -1.
          3   -1    0    0  501    0  0.00000000000E+00 -0.00000000000E+00 -0.23643799118E+04  0.23643799118E+04  0.00000000000E+00 0.  1.
         23    2    1    2    0    0 -0.71557675171E+03 -0.30008989676E+03 -0.11576769849E+04  0.13965622402E+04  0.89811222868E+02 0.  0.
        254    2    1    2    0    0  0.71557675171E+03  0.30008989676E+03 -0.76493358726E+03  0.14095870111E+04  0.89426400763E+03 0.  0.
        -24    2    4    4    0    0  0.16328456154E+03  0.22458351365E+03 -0.79467429694E+03  0.84565935238E+03  0.80826353409E+02 0.  0.
         24    2    4    4    0    0  0.55229219017E+03  0.75506383109E+02  0.29740709677E+02  0.56392765877E+03  0.80012607142E+02 0.  0.
         13    1    3    3    0    0 -0.63437317567E+02 -0.21336119991E+02 -0.61091326043E+02  0.90618283994E+02  0.00000000000E+00 0.  1.
        -13    1    3    3    0    0 -0.65213943414E+03 -0.27875377677E+03 -0.10965856588E+04  0.13059439562E+04  0.00000000000E+00 0. -1.
          2    1    6    6  502    0  0.12670218853E+03 -0.15391301819E+02  0.14721806752E+02  0.12847983634E+03  0.00000000000E+00 0. -1.
          1    1    5    5  503    0  0.73731854521E+02  0.66048959783E+02 -0.19105887917E+03  0.21517980103E+03  0.00000000000E+00 0. -1.
         -2    1    5    5    0  503  0.89552707023E+02  0.15853455387E+03 -0.60361541777E+03  0.63047955135E+03  0.00000000000E+00 0.  1.
         -1    1    6    6    0  502  0.42559000163E+03  0.90897684928E+02  0.15018902925E+02  0.43544782243E+03  0.00000000000E+00 0.  1.
<mgrwt>
<rscale>  0 0.20440260E+04</rscale>
<asrwt>0</asrwt>
<pdfrwt beam="1">  1        3 0.36375076E+00 0.20440260E+04</pdfrwt>
<pdfrwt beam="2">  1       -3 0.67964513E-01 0.20440260E+04</pdfrwt>
<totfact> 0.87668468E-02</totfact>
</mgrwt>
</event>
<event>
12    1  0.1755460E-007  0.1917633E+04  0.7818608E-02  0.8646129E-01
         -1   -1    0    0    0  501 -0.00000000000E+00  0.00000000000E+00  0.30016566970E+03  0.30016566970E+03  0.00000000000E+00 0.  1.
          1   -1    0    0  501    0  0.00000000000E+00 -0.00000000000E+00 -0.30627400822E+04  0.30627400822E+04  0.00000000000E+00 0. -1.
         23    2    1    2    0    0  0.38995811602E+03  0.29975113071E+03 -0.20355073662E+04  0.20960188207E+04  0.89925447434E+02 0.  0.
        254    2    1    2    0    0 -0.38995811602E+03 -0.29975113071E+03 -0.72706704623E+03  0.12668869312E+04  0.91348669069E+03 0.  0.
        -24    2    4    4    0    0 -0.24788838491E+03 -0.92357022950E+02  0.17602801078E+03  0.32633978844E+03  0.74386328560E+02 0.  0.
         24    2    4    4    0    0 -0.14206973111E+03 -0.20739410776E+03 -0.90309505701E+03  0.94054714274E+03  0.76499158713E+02 0.  0.
         11    1    3    3    0    0  0.74805717202E+01  0.27490024528E+02 -0.79288131589E+02  0.84251220838E+02  0.00000000000E+00 0.  1.
        -11    1    3    3    0    0  0.38247754430E+03  0.27226110618E+03 -0.19562192346E+04  0.20117675998E+04  0.00000000000E+00 0. -1.
          4    1    6    6  502    0 -0.13494335344E+03 -0.16216049301E+03 -0.65107505789E+03  0.68440080738E+03  0.00000000000E+00 0. -1.
          3    1    5    5  503    0 -0.17584846217E+03 -0.83202332275E+02  0.16021179518E+03  0.25201811256E+03  0.00000000000E+00 0. -1.
         -4    1    5    5    0  503 -0.72039922732E+02 -0.91546906754E+01  0.15816215604E+02  0.74321675873E+02  0.00000000000E+00 0.  1.
         -3    1    6    6    0  502 -0.71263776681E+01 -0.45233614750E+02 -0.25201999913E+03  0.25614633537E+03  0.00000000000E+00 0.  1.
<mgrwt>
<rscale>  0 0.19176334E+04</rscale>
<asrwt>0</asrwt>
<pdfrwt beam="1">  1        1 0.47119077E+00 0.19176334E+04</pdfrwt>
<pdfrwt beam="2">  1       -1 0.46179335E-01 0.19176334E+04</pdfrwt>
<totfact> 0.23496735E+00</totfact>
</mgrwt>
</event>
<event>
12    1  0.1755460E-007  0.1520676E+04  0.7818608E-02  0.8870819E-01
          2   -1    0    0  501    0  0.00000000000E+00  0.00000000000E+00  0.86176949034E+03  0.86176949034E+03  0.00000000000E+00 0. -1.
         -2   -1    0    0    0  501 -0.00000000000E+00 -0.00000000000E+00 -0.67084540835E+03  0.67084540835E+03  0.00000000000E+00 0.  1.
         23    2    1    2    0    0 -0.65342861052E+02 -0.29615378192E+03 -0.34310298194E+03  0.46704924666E+03  0.91861801366E+02 0.  0.
        254    2    1    2    0    0  0.65342861052E+02  0.29615378192E+03  0.53402706393E+03  0.10655656520E+04  0.87078614007E+03 0.  0.
        -24    2    4    4    0    0  0.37220259190E+02  0.30627749316E+02 -0.23256896345E+03  0.24986434738E+03  0.77591640046E+02 0.  0.
         24    2    4    4    0    0  0.28122601862E+02  0.26552603261E+03  0.76659602739E+03  0.81570130465E+03  0.80026211213E+02 0.  0.
         11    1    3    3    0    0 -0.80514177500E+02 -0.23742015605E+03 -0.23790777957E+03  0.34561680349E+03  0.00000000000E+00 0.  1.
        -11    1    3    3    0    0  0.15171316448E+02 -0.58733625874E+02 -0.10519520238E+03  0.12143244317E+03  0.00000000000E+00 0. -1.
          4    1    6    6  502    0  0.38437544527E+02  0.12148692984E+03  0.45063538770E+03  0.46830414433E+03  0.00000000000E+00 0. -1.
          3    1    5    5  503    0 -0.30326283847E+01  0.37220930260E+02 -0.47862074345E+02  0.60707270116E+02  0.00000000000E+00 0. -1.
         -4    1    5    5    0  503  0.40252887575E+02 -0.65931809435E+01 -0.18470688911E+03  0.18915707726E+03  0.00000000000E+00 0.  1.
         -3    1    6    6    0  502 -0.10314942665E+02  0.14403910277E+03  0.31596063969E+03  0.34739716032E+03  0.00000000000E+00 0.  1.
<mgrwt>
<rscale>  0 0.15206763E+04</rscale>
<asrwt>0</asrwt>
<pdfrwt beam="1">  1        2 0.13257992E+00 0.15206763E+04</pdfrwt>
<pdfrwt beam="2">  1       -2 0.10320699E+00 0.15206763E+04</pdfrwt>
<totfact> 0.23021988E+01</totfact>
</mgrwt>
</event>
<event>
12    1  0.1755460E-007  0.1168078E+04  0.7818608E-02  0.9141266E-01
         -2   -1    0    0    0  501 -0.00000000000E+00  0.00000000000E+00  0.44031551094E+03  0.44031551094E+03  0.00000000000E+00 0. -1.
          2   -1    0    0  501    0  0.00000000000E+00 -0.00000000000E+00 -0.77467595785E+03  0.77467595785E+03  0.00000000000E+00 0.  1.
         23    2    1    2    0    0  0.58931052582E+02  0.19032655645E+03 -0.17562084583E+03  0.28019923975E+03  0.89285303480E+02 0.  0.
        254    2    1    2    0    0 -0.58931052582E+02 -0.19032655645E+03 -0.15873960108E+03  0.93479222903E+03  0.89941157623E+03 0.  0.
        -24    2    4    4    0    0 -0.25339813886E+03  0.12407915175E+03  0.24459919219E+03  0.38188850883E+03  0.80023844437E+02 0.  0.
         24    2    4    4    0    0  0.19446708628E+03 -0.31440570820E+03 -0.40333879327E+03  0.55290372021E+03  0.79699088234E+02 0.  0.
         11    1    3    3    0    0  0.84593789488E+01  0.11538676356E+03 -0.51412408842E+02  0.12660530036E+03  0.00000000000E+00 0. -1.
        -11    1    3    3    0    0  0.50471673633E+02  0.74939792893E+02 -0.12420843699E+03  0.15359393939E+03  0.00000000000E+00 0.  1.
          4    1    6    6  502    0  0.13930666190E+03 -0.28060934145E+03 -0.32732204358E+03  0.45308682255E+03  0.00000000000E+00 0. -1.
          3    1    5    5  503    0 -0.24822629926E+03  0.12935769694E+03  0.24779771788E+03  0.37383608492E+03  0.00000000000E+00 0. -1.
         -4    1    5    5    0  503 -0.51718395965E+01 -0.52785451924E+01 -0.31985256900E+01  0.80524239052E+01  0.00000000000E+00 0.  1.
         -3    1    6    6    0  502  0.55160424381E+02 -0.33796366751E+02 -0.76016749694E+02  0.99816897655E+02  0.00000000000E+00 0.  1.
<mgrwt>
<rscale>  0 0.11680785E+04</rscale>
<asrwt>0</asrwt>
<pdfrwt beam="1">  1        2 0.11918092E+00 0.11680785E+04</pdfrwt>
<pdfrwt beam="2">  1       -2 0.67740848E-01 0.11680785E+04</pdfrwt>
<totfact> 0.70996939E+01</totfact>
</mgrwt>
</event>
<event>
12    1  0.1755460E-007  0.2330629E+04  0.7818608E-02  0.8465942E-01
          1   -1    0    0  501    0  0.00000000000E+00  0.00000000000E+00  0.42344338827E+03  0.42344338827E+03  0.00000000000E+00 0. -1.
         -1   -1    0    0    0  501 -0.00000000000E+00 -0.00000000000E+00 -0.32069404935E+04  0.32069404935E+04  0.00000000000E+00 0.  1.
         23    2    1    2    0    0  0.26342570482E+03 -0.50596753412E+03 -0.24610923801E+04  0.25279841739E+04  0.91279967957E+02 0.  0.
        254    2    1    2    0    0 -0.26342570482E+03  0.50596753412E+03 -0.32240472511E+03  0.11023997079E+04  0.88653486201E+03 0.  0.
        -24    2    4    4    0    0 -0.23641740540E+03  0.21818180151E+03 -0.60518921918E+03  0.69007533485E+03  0.80333608619E+02 0.  0.
         24    2    4    4    0    0 -0.27008299420E+02  0.28778573261E+03  0.28278449407E+03  0.41232437300E+03  0.80586862170E+02 0.  0.
         11    1    3    3    0    0  0.12995398535E+02 -0.78291040517E+02 -0.26303372312E+03  0.27474553118E+03  0.00000000000E+00 0. -1.
        -11    1    3    3    0    0  0.25043030629E+03 -0.42767649361E+03 -0.21980586570E+04  0.22532386427E+04  0.00000000000E+00 0.  1.
          4    1    6    6  502    0 -0.25611288405E+02  0.28841087525E+03  0.28709494732E+03  0.40775026650E+03  0.00000000000E+00 0. -1.
          1    1    5    5  503    0 -0.21328833292E+03  0.21731573037E+03 -0.58437416895E+03  0.65894704564E+03  0.00000000000E+00 0. -1.
         -2    1    5    5    0  503 -0.23129072485E+02  0.86607114515E+00 -0.20815050232E+02  0.31128289215E+02  0.00000000000E+00 0.  1.
         -3    1    6    6    0  502 -0.13970110155E+01 -0.62514264091E+00 -0.43104532468E+01  0.45741065020E+01  0.00000000000E+00 0.  1.
<mgrwt>
<rscale>  0 0.23306289E+04</rscale>
<asrwt>0</asrwt>
<pdfrwt beam="1">  1        1 0.65145134E-01 0.23306289E+04</pdfrwt>
<pdfrwt beam="2">  1       -1 0.49337548E+00 0.23306289E+04</pdfrwt>
<totfact> 0.82184486E-02</totfact>
</mgrwt>
</event>
<event>
12    1  0.1755460E-007  0.1873471E+04  0.7818608E-02  0.8668175E-01
          1   -1    0    0  501    0  0.00000000000E+00  0.00000000000E+00  0.19835243630E+04  0.19835243630E+04  0.00000000000E+00 0. -1.
         -1   -1    0    0    0  501 -0.00000000000E+00 -0.00000000000E+00 -0.44238101982E+03  0.44238101982E+03  0.00000000000E+00 0.  1.
         23    2    1    2    0    0 -0.32987358151E+03 -0.55029335819E+03  0.18498497506E+03  0.67381141406E+03  0.90349437635E+02 0.  0.
        254    2    1    2    0    0  0.32987358151E+03  0.55029335819E+03  0.13561583682E+04  0.17520939688E+04  0.90500187628E+03 0.  0.
        -24    2    4    4    0    0  0.35501159751E+03  0.37697856290E+03  0.17043805200E+03  0.55087899028E+03  0.79198870593E+02 0.  0.
         24    2    4    4    0    0 -0.25138016005E+02  0.17331479529E+03  0.11857203162E+04  0.12012149785E+04  0.79465831086E+02 0.  0.
         13    1    3    3    0    0 -0.18208364405E+03 -0.35807207069E+03  0.15015149902E+03  0.42885374418E+03  0.00000000000E+00 0.  1.
        -13    1    3    3    0    0 -0.14778993746E+03 -0.19222128750E+03  0.34833476036E+02  0.24495766989E+03  0.00000000000E+00 0. -1.
          4    1    6    6  502    0 -0.51125431239E+02  0.10303679490E+03  0.80672247418E+03  0.81488130496E+03  0.00000000000E+00 0. -1.
          1    1    5    5  503    0  0.29857544498E+03  0.27038229007E+03  0.14046636864E+03  0.42659662428E+03  0.00000000000E+00 0. -1.
         -2    1    5    5    0  503  0.56436152531E+02  0.10659627283E+03  0.29971683357E+02  0.12428236599E+03  0.00000000000E+00 0.  1.
         -3    1    6    6    0  502  0.25987415235E+02  0.70278000387E+02  0.37899784198E+03  0.38633367354E+03  0.00000000000E+00 0.  1.
<mgrwt>
<rscale>  0 0.18734711E+04</rscale>
<asrwt>0</asrwt>
<pdfrwt beam="1">  1        1 0.30515759E+00 0.18734711E+04</pdfrwt>
<pdfrwt beam="2">  1       -1 0.68058619E-01 0.18734711E+04</pdfrwt>
<totfact> 0.62671864E+00</totfact>
</mgrwt>
</event>
<event>
12    1  0.1755460E-007  0.1857974E+04  0.7818608E-02  0.8676063E-01
          2   -1    0    0  501    0  0.00000000000E+00  0.00000000000E+00  0.11369879935E+04  0.11369879935E+04  0.00000000000E+00 0. -1.
         -2   -1    0    0    0  501 -0.00000000000E+00 -0.00000000000E+00 -0.75903764614E+03  0.75903764614E+03  0.00000000000E+00 0.  1.
         23    2    1    2    0    0 -0.56547246837E+03  0.27003462785E+03  0.48133970936E+03  0.79525099598E+03  0.89768692042E+02 0.  0.
        254    2    1    2    0    0  0.56547246837E+03 -0.27003462785E+03 -0.10338936203E+03  0.11007746436E+04  0.89907599410E+03 0.  0.
        -24    2    4    4    0    0  0.12343417567E+02 -0.51504638068E+01 -0.40553965656E+03  0.41243241100E+03  0.73886354393E+02 0.  0.
         24    2    4    4    0    0  0.55312905081E+03 -0.26488416405E+03  0.30215029453E+03  0.68834223264E+03  0.80030378867E+02 0.  0.
         11    1    3    3    0    0 -0.27514867511E+03  0.13414994984E+03  0.17895048289E+03  0.35457901486E+03  0.00000000000E+00 0.  1.
        -11    1    3    3    0    0 -0.29032379327E+03  0.13588467802E+03  0.30238922647E+03  0.44067198112E+03  0.00000000000E+00 0. -1.
          4    1    6    6  502    0  0.49726708274E+03 -0.24301610662E+03  0.29701884052E+03  0.62813340246E+03  0.00000000000E+00 0. -1.
          3    1    5    5  503    0  0.18377521157E+02 -0.10078627660E+00 -0.40399644839E+03  0.40441423535E+03  0.00000000000E+00 0. -1.
         -4    1    5    5    0  503 -0.60341035896E+01 -0.50496775302E+01 -0.15432081694E+01  0.80181756493E+01  0.00000000000E+00 0.  1.
         -3    1    6    6    0  502  0.55861968064E+02 -0.21868057428E+02  0.51314540031E+01  0.60208830182E+02  0.00000000000E+00 0.  1.
<mgrwt>
<rscale>  0 0.18579738E+04</rscale>
<asrwt>0</asrwt>
<pdfrwt beam="1">  1        2 0.17492123E+00 0.18579738E+04</pdfrwt>
<pdfrwt beam="2">  1       -2 0.11677502E+00 0.18579738E+04</pdfrwt>
<totfact> 0.11036724E+01</totfact>
</mgrwt>
</event>
<event>
12    1  0.1755460E-007  0.2072275E+04  0.7818608E-02  0.8573556E-01
         -2   -1    0    0    0  501 -0.00000000000E+00  0.00000000000E+00  0.11979558640E+04  0.11979558640E+04  0.00000000000E+00 0.  1.
          2   -1    0    0  501    0  0.00000000000E+00 -0.00000000000E+00 -0.89617737075E+03  0.89617737075E+03  0.00000000000E+00 0. -1.
         23    2    1    2    0    0 -0.57009048603E+03 -0.25164675035E+03  0.69705043533E+03  0.93981056142E+03  0.95054367334E+02 0.  0.
        254    2    1    2    0    0  0.57009048603E+03  0.25164675035E+03 -0.39527194204E+03  0.11543226734E+04  0.88763262495E+03 0.  0.
        -24    2    4    4    0    0  0.51351291236E+03  0.50620529477E+03 -0.69625444860E+02  0.72887128167E+03  0.80413500500E+02 0.  0.
         24    2    4    4    0    0  0.56577573665E+02 -0.25455854442E+03 -0.32564649718E+03  0.42545139169E+03  0.83439626016E+02 0.  0.
         13    1    3    3    0    0 -0.10552756637E+03 -0.66022696013E+02  0.92360345867E+02  0.15500160368E+03  0.00000000000E+00 0. -1.
        -13    1    3    3    0    0 -0.46456291965E+03 -0.18562405433E+03  0.60469008946E+03  0.78480895775E+03  0.00000000000E+00 0.  1.
          2    1    6    6  502    0  0.22901960052E+02 -0.23115249862E+03 -0.28555046280E+03  0.36809651479E+03  0.00000000000E+00 0. -1.
          3    1    5    5  503    0  0.51637153254E+03  0.50351924834E+03 -0.70999058432E+02  0.72471515740E+03  0.00000000000E+00 0. -1.
         -4    1    5    5    0  503 -0.28586201777E+01  0.26860464259E+01  0.13736135723E+01  0.41561242726E+01  0.00000000000E+00 0.  1.
         -1    1    6    6    0  502  0.33675613613E+02 -0.23406045805E+02 -0.40096034376E+02  0.57354876908E+02  0.00000000000E+00 0.  1.
<mgrwt>
<rscale>  0 0.20722750E+04</rscale>
<asrwt>0</asrwt>
<pdfrwt beam="1">  1        2 0.13787344E+00 0.20722750E+04</pdfrwt>
<pdfrwt beam="2">  1       -2 0.18430090E+00 0.20722750E+04</pdfrwt>
<totfact> 0.46135767E+00</totfact>
</mgrwt>
</event>
<event>
12    1  0.1755460E-007  0.2405706E+04  0.7818608E-02  0.8437371E-01
          1   -1    0    0  501    0  0.00000000000E+00  0.00000000000E+00  0.16830440253E+04  0.16830440253E+04  0.00000000000E+00 0. -1.
         -1   -1    0    0    0  501 -0.00000000000E+00 -0.00000000000E+00 -0.85966544087E+03  0.85966544087E+03  0.00000000000E+00 0.  1.
         23    2    1    2    0    0  0.27862165269E+03  0.55291360595E+03  0.12039489972E+04  0.13568710476E+04  0.90897585606E+02 0.  0.
        254    2    1    2    0    0 -0.27862165269E+03 -0.55291360595E+03 -0.38057041277E+03  0.11858384185E+04  0.93703545011E+03 0.  0.
        -24    2    4    4    0    0 -0.43346951648E+02  0.18853977070E+03  0.13506130681E+03  0.24889125313E+03  0.79240746671E+02 0.  0.
         24    2    4    4    0    0 -0.23527470104E+03 -0.74145337665E+03 -0.51563171958E+03  0.93694716539E+03  0.82985696338E+02 0.  0.
         13    1    3    3    0    0  0.19925837092E+03  0.45178936547E+03  0.10091953874E+04  0.11235180725E+04  0.00000000000E+00 0. -1.
        -13    1    3    3    0    0  0.79363281775E+02  0.10112424048E+03  0.19475360977E+03  0.23335297518E+03  0.00000000000E+00 0.  1.
          4    1    6    6  502    0  0.44727669688E+01 -0.29350908623E+01 -0.66476965668E+01  0.85330107448E+01  0.00000000000E+00 0. -1.
          3    1    5    5  503    0 -0.33623687665E+02  0.25135544987E+02  0.46983725520E+02  0.63006495362E+02  0.00000000000E+00 0. -1.
         -4    1    5    5    0  503 -0.97232639831E+01  0.16340422572E+03  0.88077581290E+02  0.18588475777E+03  0.00000000000E+00 0.  1.
         -1    1    6    6    0  502 -0.23974746801E+03 -0.73851828579E+03 -0.50898402302E+03  0.92841415465E+03  0.00000000000E+00 0.  1.
<mgrwt>
<rscale>  0 0.24057055E+04</rscale>
<asrwt>0</asrwt>
<pdfrwt beam="1">  1        1 0.25892985E+00 0.24057055E+04</pdfrwt>
<pdfrwt beam="2">  1       -1 0.13225622E+00 0.24057055E+04</pdfrwt>
<totfact> 0.21283210E+00</totfact>
</mgrwt>
</event>
<event>
12    1  0.1755460E-007  0.1118742E+04  0.7818608E-02  0.9187115E-01
          1   -1    0    0  501    0  0.00000000000E+00  0.00000000000E+00  0.74162287951E+03  0.74162287951E+03  0.00000000000E+00 0. -1.
         -1   -1    0    0    0  501 -0.00000000000E+00 -0.00000000000E+00 -0.42190690251E+03  0.42190690251E+03  0.00000000000E+00 0.  1.
         23    2    1    2    0    0 -0.12135105374E+03 -0.11374053568E+03  0.20296994223E+03  0.27767066895E+03  0.90781139273E+02 0.  0.
        254    2    1    2    0    0  0.12135105374E+03  0.11374053568E+03  0.11674603477E+03  0.88585911307E+03  0.86223763771E+03 0.  0.
        -24    2    4    4    0    0  0.14432995789E+03  0.26617663502E+03  0.42760442217E+03  0.52984871980E+03  0.78822498293E+02 0.  0.
         24    2    4    4    0    0 -0.22978904150E+02 -0.15243609934E+03 -0.31085838741E+03  0.35601039327E+03  0.79659705473E+02 0.  0.
         13    1    3    3    0    0 -0.11556166683E+03 -0.12800765808E+03  0.19505231945E+03  0.26035719059E+03  0.00000000000E+00 0. -1.
        -13    1    3    3    0    0 -0.57893869063E+01  0.14267122407E+02  0.79176227839E+01  0.17313478364E+02  0.00000000000E+00 0.  1.
          2    1    6    6  502    0 -0.33446312387E+02 -0.93263667932E+02 -0.11838886926E+03  0.15437840501E+03  0.00000000000E+00 0. -1.
          3    1    5    5  503    0  0.50493928428E+02  0.67394192258E+02  0.67372718450E+02  0.10784570993E+03  0.00000000000E+00 0. -1.
         -4    1    5    5    0  503  0.93836029461E+02  0.19878244276E+03  0.36023170372E+03  0.42200300987E+03  0.00000000000E+00 0.  1.
         -1    1    6    6    0  502  0.10467408237E+02 -0.59172431413E+02 -0.19246951815E+03  0.20163198826E+03  0.00000000000E+00 0.  1.
<mgrwt>
<rscale>  0 0.11187418E+04</rscale>
<asrwt>0</asrwt>
<pdfrwt beam="1">  1        1 0.11409583E+00 0.11187418E+04</pdfrwt>
<pdfrwt beam="2">  1       -1 0.64908754E-01 0.11187418E+04</pdfrwt>
<totfact> 0.59713468E+01</totfact>
</mgrwt>
</event>
<event>
12    1  0.2085910E-007  0.2362852E+04  0.7818608E-02  0.8453544E-01
          2   -1    0    0  501    0  0.00000000000E+00  0.00000000000E+00  0.11074939386E+04  0.11074939386E+04  0.00000000000E+00 0. -1.
         -2   -1    0    0    0  501 -0.00000000000E+00 -0.00000000000E+00 -0.12602932145E+04  0.12602932145E+04  0.00000000000E+00 0.  1.
         23    2    1    2    0    0  0.47621746399E+03  0.77018885219E+03 -0.49468336877E+03  0.10358636670E+04  0.91257658960E+02 0.  0.
        254    2    1    2    0    0 -0.47621746399E+03 -0.77018885219E+03  0.34188409280E+03  0.13319234861E+04  0.91496529925E+03 0.  0.
        -24    2    4    4    0    0  0.11068110215E+03 -0.63542007301E+03  0.31944160971E+03  0.72401430180E+03  0.78388721386E+02 0.  0.
         24    2    4    4    0    0 -0.58689856614E+03 -0.13476877918E+03  0.22442483081E+02  0.60790918428E+03  0.80233163387E+02 0.  0.
         11    1    3    3    0    0  0.30129233482E+03  0.53718109592E+03 -0.37348691576E+03  0.72030068519E+03  0.00000000000E+00 0. -1.
        -11    1    3    3    0    0  0.17492512917E+03  0.23300775626E+03 -0.12119645301E+03  0.31556298185E+03  0.00000000000E+00 0.  1.
          2    1    6    6  502    0 -0.55406520361E+03 -0.12359860415E+03  0.20714925335E+01  0.56768755128E+03  0.00000000000E+00 0. -1.
          3    1    5    5  503    0  0.93837549311E+02 -0.54244370922E+03  0.30210427359E+03  0.62794717569E+03  0.00000000000E+00 0. -1.
         -4    1    5    5    0  503  0.16843552843E+02 -0.92976363790E+02  0.17337336121E+02  0.96067126113E+02  0.00000000000E+00 0.  1.
         -1    1    6    6    0  502 -0.32833362534E+02 -0.11170175031E+02  0.20370990548E+02  0.40221633003E+02  0.00000000000E+00 0.  1.
<mgrwt>
<rscale>  0 0.23628517E+04</rscale>
<asrwt>0</asrwt>
<pdfrwt beam="1">  1        2 0.17038368E+00 0.23628517E+04</pdfrwt>
<pdfrwt beam="2">  1       -2 0.19389126E+00 0.23628517E+04</pdfrwt>
<totfact> 0.28378711E+00</totfact>
</mgrwt>
</event>
<event>
12    1  0.1755460E-007  0.1330797E+04  0.7818608E-02  0.9005493E-01
          2   -1    0    0  501    0  0.00000000000E+00  0.00000000000E+00  0.19129330088E+03  0.19129330088E+03  0.00000000000E+00 0. -1.
         -2   -1    0    0    0  501 -0.00000000000E+00 -0.00000000000E+00 -0.23145362569E+04  0.23145362569E+04  0.00000000000E+00 0.  1.
         23    2    1    2    0    0 -0.15771058361E+03  0.21794399302E+03 -0.14685137791E+03  0.31992264347E+03  0.91722180175E+02 0.  0.
        254    2    1    2    0    0  0.15771058361E+03 -0.21794399302E+03 -0.19763915781E+04  0.21859069143E+04  0.89425564339E+03 0.  0.
        -24    2    4    4    0    0 -0.92887624970E+01 -0.20881980629E+03 -0.24552140263E+02  0.22533756053E+03  0.80512210175E+02 0.  0.
         24    2    4    4    0    0  0.16699934610E+03 -0.91241867337E+01 -0.19518394378E+04  0.19605693538E+04  0.78631847779E+02 0.  0.
         13    1    3    3    0    0 -0.15676384548E+03  0.15814824692E+03 -0.12974950781E+03  0.25772214889E+03  0.00000000000E+00 0. -1.
        -13    1    3    3    0    0 -0.94673813186E+00  0.59795746107E+02 -0.17101870100E+02  0.62200494584E+02  0.00000000000E+00 0.  1.
          4    1    6    6  502    0  0.15629103232E+03 -0.10008195800E+02 -0.19287993556E+04  0.19351470241E+04  0.00000000000E+00 0. -1.
          3    1    5    5  503    0  0.18402539296E+02 -0.13969791476E+03 -0.45354039021E+02  0.14802415241E+03  0.00000000000E+00 0. -1.
         -2    1    5    5    0  503 -0.27691301793E+02 -0.69121891529E+02  0.20801898758E+02  0.77313408122E+02  0.00000000000E+00 0.  1.
         -3    1    6    6    0  502  0.10708313785E+02  0.88400906613E+00 -0.23040082262E+02  0.25422329688E+02  0.00000000000E+00 0.  1.
<mgrwt>
<rscale>  0 0.13307972E+04</rscale>
<asrwt>0</asrwt>
<pdfrwt beam="1">  1        2 0.29429740E-01 0.13307972E+04</pdfrwt>
<pdfrwt beam="2">  1       -2 0.35608249E+00 0.13307972E+04</pdfrwt>
<totfact> 0.25633730E+00</totfact>
</mgrwt>
</event>
<event>
12    1  0.1755460E-007  0.1729344E+04  0.7818608E-02  0.8744803E-01
         -1   -1    0    0    0  501 -0.00000000000E+00  0.00000000000E+00  0.75622336463E+03  0.75622336463E+03  0.00000000000E+00 0.  1.
          1   -1    0    0  501    0  0.00000000000E+00 -0.00000000000E+00 -0.98867254327E+03  0.98867254327E+03  0.00000000000E+00 0. -1.
         23    2    1    2    0    0 -0.67057632958E+02  0.59138966221E+03  0.11348642513E+03  0.61313748302E+03  0.93914565909E+02 0.  0.
        254    2    1    2    0    0  0.67057632958E+02 -0.59138966221E+03 -0.34593560377E+03  0.11317584249E+04  0.89831354862E+03 0.  0.
        -24    2    4    4    0    0  0.43137526096E+02  0.47538814085E+01  0.26164730025E+03  0.27656300634E+03  0.78385848238E+02 0.  0.
         24    2    4    4    0    0  0.23920106862E+02 -0.59614354362E+03 -0.60758290402E+03  0.85519541854E+03  0.79012166898E+02 0.  0.
         13    1    3    3    0    0  0.15872294697E+02  0.16157427898E+03  0.55471784630E+02  0.17156717709E+03  0.00000000000E+00 0. -1.
        -13    1    3    3    0    0 -0.82929927655E+02  0.42981538323E+03  0.58014640502E+02  0.44157030593E+03  0.00000000000E+00 0.  1.
          4    1    6    6  502    0  0.49638119589E+02 -0.49260716721E+03 -0.50396259769E+03  0.70647297470E+03  0.00000000000E+00 0. -1.
          3    1    5    5  503    0 -0.11510412529E+02  0.82665615983E+01  0.16398164787E+03  0.16459285062E+03  0.00000000000E+00 0. -1.
         -4    1    5    5    0  503  0.54647938626E+02 -0.35126801898E+01  0.97665652385E+02  0.11197015573E+03  0.00000000000E+00 0.  1.
         -3    1    6    6    0  502 -0.25718012727E+02 -0.10353637641E+03 -0.10362030633E+03  0.14872244384E+03  0.00000000000E+00 0.  1.
<mgrwt>
<rscale>  0 0.17293435E+04</rscale>
<asrwt>0</asrwt>
<pdfrwt beam="1">  1        1 0.15210347E+00 0.17293435E+04</pdfrwt>
<pdfrwt beam="2">  1       -1 0.11634206E+00 0.17293435E+04</pdfrwt>
<totfact> 0.97876876E+00</totfact>
</mgrwt>
</event>
<event>
12    1  0.1755460E-007  0.1911299E+04  0.7818608E-02  0.8649253E-01
          2   -1    0    0  501    0  0.00000000000E+00  0.00000000000E+00  0.19600362647E+04  0.19600362647E+04  0.00000000000E+00 0. -1.
         -2   -1    0    0    0  501 -0.00000000000E+00 -0.00000000000E+00 -0.46594336011E+03  0.46594336011E+03  0.00000000000E+00 0.  1.
         23    2    1    2    0    0 -0.16566402098E+03  0.68819099419E+03  0.87981811529E+03  0.11328391209E+04  0.90515995868E+02 0.  0.
        254    2    1    2    0    0  0.16566402098E+03 -0.68819099419E+03  0.61427478927E+03  0.12931405039E+04  0.89096993984E+03 0.  0.
        -24    2    4    4    0    0  0.44670578904E+03 -0.45511042809E+03  0.65364978281E+03  0.91722718484E+03  0.85884261225E+02 0.  0.
         24    2    4    4    0    0 -0.28104176806E+03 -0.23308056609E+03 -0.39374993549E+02  0.37591331903E+03  0.80308203936E+02 0.  0.
         13    1    3    3    0    0 -0.15014030052E+03  0.48264536753E+03  0.58520962900E+03  0.77327806804E+03  0.00000000000E+00 0.  1.
        -13    1    3    3    0    0 -0.15523720457E+02  0.20554562665E+03  0.29460848628E+03  0.35956105285E+03  0.00000000000E+00 0. -1.
          4    1    6    6  502    0 -0.16595935700E+03 -0.18611141537E+03 -0.20652358578E+02  0.25021288341E+03  0.00000000000E+00 0. -1.
          3    1    5    5  503    0  0.72463413640E+02 -0.10644412968E+03  0.96659186253E+02  0.16101023988E+03  0.00000000000E+00 0. -1.
         -4    1    5    5    0  503  0.37424237540E+03 -0.34866629841E+03  0.55699059656E+03  0.75621694496E+03  0.00000000000E+00 0.  1.
         -3    1    6    6    0  502 -0.11508241106E+03 -0.46969150724E+02 -0.18722634971E+02  0.12570043562E+03  0.00000000000E+00 0.  1.
<mgrwt>
<rscale>  0 0.19112989E+04</rscale>
<asrwt>0</asrwt>
<pdfrwt beam="1">  1        2 0.30154404E+00 0.19112989E+04</pdfrwt>
<pdfrwt beam="2">  1       -2 0.71683595E-01 0.19112989E+04</pdfrwt>
<totfact> 0.11609893E+01</totfact>
</mgrwt>
</event>
<event>
12    1  0.1755460E-007  0.3293409E+04  0.7818608E-02  0.8164574E-01
         -1   -1    0    0    0  501 -0.00000000000E+00  0.00000000000E+00  0.26349779135E+04  0.26349779135E+04  0.00000000000E+00 0.  1.
          1   -1    0    0  501    0  0.00000000000E+00 -0.00000000000E+00 -0.10290926971E+04  0.10290926971E+04  0.00000000000E+00 0. -1.
         23    2    1    2    0    0 -0.11219099804E+04  0.96974384531E+03  0.35467181582E+03  0.15274426501E+04  0.90574956415E+02 0.  0.
        254    2    1    2    0    0  0.11219099804E+04 -0.96974384531E+03  0.12512134005E+04  0.21366279605E+04  0.89473959244E+03 0.  0.
        -24    2    4    4    0    0 -0.98897644253E+02 -0.32510458330E+03  0.24725660810E+03  0.42780286055E+03  0.80035761530E+02 0.  0.
         24    2    4    4    0    0  0.12208076247E+04 -0.64463926201E+03  0.10039567924E+04  0.17088250999E+04  0.78885655314E+02 0.  0.
         11    1    3    3    0    0 -0.63109713727E+03  0.57993092562E+03  0.24218914436E+03  0.89065091748E+03  0.00000000000E+00 0.  1.
        -11    1    3    3    0    0 -0.49081284314E+03  0.38981291969E+03  0.11248267147E+03  0.63679173261E+03  0.00000000000E+00 0. -1.
          4    1    6    6  502    0  0.77355524937E+03 -0.37175455027E+03  0.64832160769E+03  0.10755975439E+04  0.00000000000E+00 0. -1.
          1    1    5    5  503    0 -0.55909568662E+02 -0.27941994381E+03  0.18711979273E+03  0.34090350790E+03  0.00000000000E+00 0. -1.
         -2    1    5    5    0  503 -0.42988075591E+02 -0.45684639493E+02  0.60136815367E+02  0.86899352651E+02  0.00000000000E+00 0.  1.
         -3    1    6    6    0  502  0.44725237528E+03 -0.27288471174E+03  0.35563518472E+03  0.63322755602E+03  0.00000000000E+00 0.  1.
<mgrwt>
<rscale>  0 0.32934095E+04</rscale>
<asrwt>0</asrwt>
<pdfrwt beam="1">  1        1 0.15832195E+00 0.32934095E+04</pdfrwt>
<pdfrwt beam="2">  1       -1 0.40538122E+00 0.32934095E+04</pdfrwt>
<totfact> 0.78277507E-02</totfact>
</mgrwt>
</event>
<event>
12    1  0.1755460E-007  0.2736689E+04  0.7818608E-02  0.8323198E-01
         -2   -1    0    0    0  501 -0.00000000000E+00  0.00000000000E+00  0.11002843287E+04  0.11002843287E+04  0.00000000000E+00 0.  1.
          2   -1    0    0  501    0  0.00000000000E+00 -0.00000000000E+00 -0.17017122269E+04  0.17017122269E+04  0.00000000000E+00 0. -1.
         23    2    1    2    0    0  0.11006476965E+04  0.49675883570E+03 -0.15811603569E+03  0.12213404397E+04  0.92071147710E+02 0.  0.
        254    2    1    2    0    0 -0.11006476965E+04 -0.49675883570E+03 -0.44331186246E+03  0.15806561160E+04  0.91856064413E+03 0.  0.
        -24    2    4    4    0    0 -0.35102948766E+03 -0.37874372902E+03  0.22255671058E+03  0.56795339133E+03  0.79818868816E+02 0.  0.
         24    2    4    4    0    0 -0.74961820881E+03 -0.11801510669E+03 -0.66586857304E+03  0.10127027246E+04  0.79566497534E+02 0.  0.
         11    1    3    3    0    0  0.88898527279E+03  0.42469171191E+03 -0.99770769758E+02  0.99025858840E+03  0.00000000000E+00 0.  1.
        -11    1    3    3    0    0  0.21166242368E+03  0.72067123792E+02 -0.58345265936E+02  0.23108185127E+03  0.00000000000E+00 0. -1.
          2    1    6    6  502    0 -0.27300491645E+03 -0.22300487694E+02 -0.19784047923E+03  0.33789029489E+03  0.00000000000E+00 0. -1.
          1    1    5    5  503    0 -0.19708260204E+02 -0.53426219556E+00  0.77975779575E+01  0.21201490003E+02  0.00000000000E+00 0. -1.
         -2    1    5    5    0  503 -0.33132122745E+03 -0.37820946682E+03  0.21475913263E+03  0.54675190132E+03  0.00000000000E+00 0.  1.
         -1    1    6    6    0  502 -0.47661329236E+03 -0.95714618991E+02 -0.46802809381E+03  0.67481242975E+03  0.00000000000E+00 0.  1.
<mgrwt>
<rscale>  0 0.27366895E+04</rscale>
<asrwt>0</asrwt>
<pdfrwt beam="1">  1        2 0.26180188E+00 0.27366895E+04</pdfrwt>
<pdfrwt beam="2">  1       -2 0.16927451E+00 0.27366895E+04</pdfrwt>
<totfact> 0.18463643E+00</totfact>
</mgrwt>
</event>
<event>
12    1  0.1806806E-007  0.1793177E+04  0.7818608E-02  0.8709936E-01
          2   -1    0    0  501    0  0.00000000000E+00  0.00000000000E+00  0.29437620514E+04  0.29437620514E+04  0.00000000000E+00 0. -1.
         -2   -1    0    0    0  501 -0.00000000000E+00 -0.00000000000E+00 -0.27307601355E+03  0.27307601355E+03  0.00000000000E+00 0.  1.
         23    2    1    2    0    0  0.42525554024E+03  0.43660815026E+03  0.14886864774E+04  0.16112759865E+04  0.92487432792E+02 0.  0.
        254    2    1    2    0    0 -0.42525554024E+03 -0.43660815026E+03  0.11819995605E+04  0.16055620785E+04  0.89957638673E+03 0.  0.
        -24    2    4    4    0    0  0.21379633835E+03 -0.11075621608E+03  0.43079761675E+02  0.25696317581E+03  0.78729880997E+02 0.  0.
         24    2    4    4    0    0 -0.63905187859E+03 -0.32585193417E+03  0.11389197988E+04  0.13485989027E+04  0.83749063842E+02 0.  0.
         13    1    3    3    0    0  0.40023386853E+03  0.43306762769E+03  0.14467701906E+04  0.15623311762E+04  0.00000000000E+00 0. -1.
        -13    1    3    3    0    0  0.25021671711E+02  0.35405225685E+01  0.41916286789E+02  0.48944810281E+02  0.00000000000E+00 0.  1.
          2    1    6    6  502    0 -0.16767686910E+02  0.35791579594E+01  0.39212115903E+02  0.42796678955E+02  0.00000000000E+00 0. -1.
          3    1    5    5  503    0  0.26100933101E+02 -0.29466712853E+02  0.34334326540E+02  0.52234010511E+02  0.00000000000E+00 0. -1.
         -4    1    5    5    0  503  0.18769540525E+03 -0.81289503231E+02  0.87454351348E+01  0.20472916530E+03  0.00000000000E+00 0.  1.
         -1    1    6    6    0  502 -0.62228419168E+03 -0.32943109213E+03  0.10997076829E+04  0.13058022237E+04  0.00000000000E+00 0.  1.
<mgrwt>
<rscale>  0 0.17931769E+04</rscale>
<asrwt>0</asrwt>
<pdfrwt beam="1">  1        2 0.45288645E+00 0.17931769E+04</pdfrwt>
<pdfrwt beam="2">  1       -2 0.42011696E-01 0.17931769E+04</pdfrwt>
<totfact> 0.96082758E+00</totfact>
</mgrwt>
</event>
<event>
12    1  0.1755460E-007  0.2031337E+04  0.7818608E-02  0.8592108E-01
          2   -1    0    0  501    0  0.00000000000E+00  0.00000000000E+00  0.94416568403E+03  0.94416568403E+03  0.00000000000E+00 0. -1.
         -2   -1    0    0    0  501 -0.00000000000E+00 -0.00000000000E+00 -0.10925864259E+04  0.10925864259E+04  0.00000000000E+00 0.  1.
         23    2    1    2    0    0 -0.27436485579E+03  0.75884949455E+03 -0.12522856426E+03  0.82224177292E+03  0.96284528107E+02 0.  0.
        254    2    1    2    0    0  0.27436485579E+03 -0.75884949455E+03 -0.23192177594E+02  0.12145103370E+04  0.90739674460E+03 0.  0.
        -24    2    4    4    0    0 -0.10933093212E+03 -0.66490031828E+03 -0.28278688841E+03  0.73497134898E+03  0.78541540549E+02 0.  0.
         24    2    4    4    0    0  0.38369578790E+03 -0.93949176267E+02  0.25959471081E+03  0.47953898802E+03  0.80742317114E+02 0.  0.
         13    1    3    3    0    0 -0.21457338821E+03  0.57627998601E+03 -0.53794621994E+02  0.61727969557E+03  0.00000000000E+00 0.  1.
        -13    1    3    3    0    0 -0.59791467574E+02  0.18256950854E+03 -0.71433942269E+02  0.20496207735E+03  0.00000000000E+00 0. -1.
          2    1    6    6  502    0 -0.68794410396E+00  0.54483564196E+01  0.72861805117E+01  0.91239400050E+01  0.00000000000E+00 0. -1.
          1    1    5    5  503    0 -0.43897264164E+02 -0.45555687044E+03 -0.21300219328E+03  0.50480586996E+03  0.00000000000E+00 0. -1.
         -2    1    5    5    0  503 -0.65433667951E+02 -0.20934344785E+03 -0.69784695133E+02  0.23016547902E+03  0.00000000000E+00 0.  1.
         -1    1    6    6    0  502  0.38438373201E+03 -0.99397532687E+02  0.25230853030E+03  0.47041504802E+03  0.00000000000E+00 0.  1.
<mgrwt>
<rscale>  0 0.20313371E+04</rscale>
<asrwt>0</asrwt>
<pdfrwt beam="1">  1        2 0.14525626E+00 0.20313371E+04</pdfrwt>
<pdfrwt beam="2">  1       -2 0.16809022E+00 0.20313371E+04</pdfrwt>
<totfact> 0.55814936E+00</totfact>
</mgrwt>
</event>
<event>
12    1  0.1929746E-007  0.1760273E+04  0.7818608E-02  0.8727716E-01
          2   -1    0    0  501    0  0.00000000000E+00  0.00000000000E+00  0.17037309138E+04  0.17037309138E+04  0.00000000000E+00 0. -1.
         -2   -1    0    0    0  501 -0.00000000000E+00 -0.00000000000E+00 -0.45467268617E+03  0.45467268617E+03  0.00000000000E+00 0.  1.
         23    2    1    2    0    0 -0.15000345375E+03  0.36687937289E+03 -0.15341854129E+03  0.43430448914E+03  0.89339969156E+02 0.  0.
        254    2    1    2    0    0  0.15000345375E+03 -0.36687937289E+03  0.14024767690E+04  0.17240991109E+04  0.92112710644E+03 0.  0.
        -24    2    4    4    0    0  0.29268721791E+03 -0.62403158341E+03  0.10431012195E+04  0.12529281484E+04  0.81777540878E+02 0.  0.
         24    2    4    4    0    0 -0.14268376415E+03  0.25715221052E+03  0.35937554943E+03  0.47117096249E+03  0.79783296706E+02 0.  0.
         11    1    3    3    0    0 -0.11342524792E+02 -0.17654598631E+01 -0.97446330149E+01  0.15057476209E+02  0.00000000000E+00 0. -1.
        -11    1    3    3    0    0 -0.13866092896E+03  0.36864483275E+03 -0.14367390828E+03  0.41924701294E+03  0.00000000000E+00 0.  1.
          4    1    6    6  502    0 -0.14123025140E+03  0.26302687048E+03  0.35394174562E+03  0.46303766348E+03  0.00000000000E+00 0. -1.
          3    1    5    5  503    0  0.25272787089E+03 -0.58228388367E+03  0.97733067225E+03  0.11653759654E+04  0.00000000000E+00 0. -1.
         -4    1    5    5    0  503  0.39959347017E+02 -0.41747699742E+02  0.65770547291E+02  0.87552182946E+02  0.00000000000E+00 0.  1.
         -3    1    6    6    0  502 -0.14535127511E+01 -0.58746599576E+01  0.54338038044E+01  0.81332990059E+01  0.00000000000E+00 0.  1.
<mgrwt>
<rscale>  0 0.17602726E+04</rscale>
<asrwt>0</asrwt>
<pdfrwt beam="1">  1        2 0.26211245E+00 0.17602726E+04</pdfrwt>
<pdfrwt beam="2">  1       -2 0.69949645E-01 0.17602726E+04</pdfrwt>
<totfact> 0.17207876E+01</totfact>
</mgrwt>
</event>
<event>
12    1  0.1755460E-007  0.1774601E+04  0.7818608E-02  0.8719924E-01
          1   -1    0    0  501    0  0.00000000000E+00  0.00000000000E+00  0.11353562546E+04  0.11353562546E+04  0.00000000000E+00 0. -1.
         -1   -1    0    0    0  501 -0.00000000000E+00 -0.00000000000E+00 -0.69344089911E+03  0.69344089911E+03  0.00000000000E+00 0.  1.
         23    2    1    2    0    0  0.50855502400E+03 -0.87725256237E+02 -0.23300845629E+03  0.57335765388E+03  0.90122835852E+02 0.  0.
        254    2    1    2    0    0 -0.50855502400E+03  0.87725256237E+02  0.67492381177E+03  0.12554394998E+04  0.92427390584E+03 0.  0.
        -24    2    4    4    0    0 -0.72639814385E+03  0.70268890850E+02  0.25829066070E+03  0.77816787956E+03  0.78988625556E+02 0.  0.
         24    2    4    4    0    0  0.21784311985E+03  0.17456365387E+02  0.41663315108E+03  0.47727162027E+03  0.80278685726E+02 0.  0.
         11    1    3    3    0    0  0.10093484534E+03 -0.27129860967E+02 -0.87547633237E+02  0.13633950435E+03  0.00000000000E+00 0. -1.
        -11    1    3    3    0    0  0.40762017866E+03 -0.60595395270E+02 -0.14546082305E+03  0.43701814953E+03  0.00000000000E+00 0.  1.
          4    1    6    6  502    0  0.89819517247E+02 -0.15012989373E+02  0.10612554750E+03  0.13984122196E+03  0.00000000000E+00 0. -1.
          1    1    5    5  503    0 -0.51874711257E+03  0.71615780549E+02  0.21478781907E+03  0.56600458837E+03  0.00000000000E+00 0. -1.
         -2    1    5    5    0  503 -0.20765103128E+03 -0.13468896982E+01  0.43502841621E+02  0.21216329120E+03  0.00000000000E+00 0.  1.
         -3    1    6    6    0  502  0.12802360260E+03  0.32469354759E+02  0.31050760358E+03  0.33743039831E+03  0.00000000000E+00 0.  1.
<mgrwt>
<rscale>  0 0.17746013E+04</rscale>
<asrwt>0</asrwt>
<pdfrwt beam="1">  1        1 0.17467019E+00 0.17746013E+04</pdfrwt>
<pdfrwt beam="2">  1       -1 0.10668322E+00 0.17746013E+04</pdfrwt>
<totfact> 0.92536583E+00</totfact>
</mgrwt>
</event>
<event>
12    1  0.1755460E-007  0.1141465E+04  0.7818608E-02  0.9165693E-01
         -1   -1    0    0    0  501 -0.00000000000E+00  0.00000000000E+00  0.87155431866E+03  0.87155431866E+03  0.00000000000E+00 0.  1.
          1   -1    0    0  501    0  0.00000000000E+00 -0.00000000000E+00 -0.37374117057E+03  0.37374117057E+03  0.00000000000E+00 0. -1.
         23    2    1    2    0    0 -0.13451892124E+03 -0.26812339664E+02  0.27865931823E+03  0.31962998466E+03  0.75485559712E+02 0.  0.
        254    2    1    2    0    0  0.13451892124E+03  0.26812339664E+02  0.21915382986E+03  0.92566550457E+03  0.88882730802E+03 0.  0.
        -24    2    4    4    0    0  0.50556896509E+03  0.62740044862E+02  0.92265929923E+02  0.52385100733E+03  0.79815940529E+02 0.  0.
         24    2    4    4    0    0 -0.37105004385E+03 -0.35927705198E+02  0.12688789993E+03  0.40181449724E+03  0.79908798003E+02 0.  0.
         13    1    3    3    0    0 -0.64920663882E+02  0.48784334793E+01  0.62127750562E+02  0.89990827877E+02  0.00000000000E+00 0. -1.
        -13    1    3    3    0    0 -0.69598257363E+02 -0.31690773144E+02  0.21653156767E+03  0.22963915678E+03  0.00000000000E+00 0.  1.
          2    1    6    6  502    0 -0.22140607476E+03 -0.14819878312E+02  0.34178002141E+02  0.22451818315E+03  0.00000000000E+00 0. -1.
          3    1    5    5  503    0  0.80316517529E+02  0.14096213250E+02  0.45232040130E+02  0.93249041123E+02  0.00000000000E+00 0. -1.
         -4    1    5    5    0  503  0.42525244757E+03  0.48643831612E+02  0.47033889792E+02  0.43060196621E+03  0.00000000000E+00 0.  1.
         -1    1    6    6    0  502 -0.14964396909E+03 -0.21107826885E+02  0.92709897793E+02  0.17729631409E+03  0.00000000000E+00 0.  1.
<mgrwt>
<rscale>  0 0.11414653E+04</rscale>
<asrwt>0</asrwt>
<pdfrwt beam="1">  1        1 0.57498642E-01 0.11414653E+04</pdfrwt>
<pdfrwt beam="2">  1       -1 0.13408528E+00 0.11414653E+04</pdfrwt>
<totfact> 0.30595024E+01</totfact>
</mgrwt>
</event>
<event>
12    1  0.1755460E-007  0.2022756E+04  0.7818608E-02  0.8596055E-01
         -2   -1    0    0    0  501 -0.00000000000E+00  0.00000000000E+00  0.39020852269E+03  0.39020852269E+03  0.00000000000E+00 0.  1.
          2   -1    0    0  501    0  0.00000000000E+00 -0.00000000000E+00 -0.26213808163E+04  0.26213808163E+04  0.00000000000E+00 0. -1.
         23    2    1    2    0    0 -0.26748087716E+03  0.14987580416E+03 -0.20074113613E+04  0.20328048859E+04  0.92663662864E+02 0.  0.
        254    2    1    2    0    0  0.26748087716E+03 -0.14987580416E+03 -0.22376093230E+03  0.97878445306E+03  0.90218693984E+03 0.  0.
        -24    2    4    4    0    0  0.44036883946E+03 -0.28611804625E+03  0.13774509823E+03  0.54831335624E+03  0.76717490697E+02 0.  0.
         24    2    4    4    0    0 -0.17288796231E+03  0.13624224209E+03 -0.36150603052E+03  0.43047109683E+03  0.78527441449E+02 0.  0.
         13    1    3    3    0    0 -0.26369181070E+03  0.13624982428E+03 -0.19782756962E+04  0.20004179853E+04  0.00000000000E+00 0. -1.
        -13    1    3    3    0    0 -0.37890664604E+01  0.13625979880E+02 -0.29135665113E+02  0.32386900653E+02  0.00000000000E+00 0.  1.
          4    1    6    6  502    0 -0.33872559052E+02  0.73350318014E+02 -0.11438377872E+03  0.14004023795E+03  0.00000000000E+00 0. -1.
          3    1    5    5  503    0  0.33320319713E+03 -0.25284774025E+03  0.11531225380E+03  0.43388162695E+03  0.00000000000E+00 0. -1.
         -4    1    5    5    0  503  0.10716564234E+03 -0.33270306002E+02  0.22432844423E+02  0.11443172929E+03  0.00000000000E+00 0.  1.
         -3    1    6    6    0  502 -0.13901540326E+03  0.62891924077E+02 -0.24712225180E+03  0.29043085888E+03  0.00000000000E+00 0.  1.
<mgrwt>
<rscale>  0 0.20227557E+04</rscale>
<asrwt>0</asrwt>
<pdfrwt beam="1">  1        2 0.40328936E+00 0.20227557E+04</pdfrwt>
<pdfrwt beam="2">  1       -2 0.60032079E-01 0.20227557E+04</pdfrwt>
<totfact> 0.70981464E+00</totfact>
</mgrwt>
</event>
<event>
12    1  0.1755460E-007  0.3471625E+04  0.7818608E-02  0.8120548E-01
          1   -1    0    0  501    0  0.00000000000E+00  0.00000000000E+00  0.90147537305E+03  0.90147537305E+03  0.00000000000E+00 0. -1.
         -1   -1    0    0    0  501 -0.00000000000E+00 -0.00000000000E+00 -0.33423485164E+04  0.33423485164E+04  0.00000000000E+00 0.  1.
         23    2    1    2    0    0 -0.13128929991E+04  0.39399932644E+03 -0.21916734212E+04  0.25866619337E+04  0.92000423080E+02 0.  0.
        254    2    1    2    0    0  0.13128929991E+04 -0.39399932644E+03 -0.24919972213E+03  0.16571619557E+04  0.89730805715E+03 0.  0.
        -24    2    4    4    0    0 -0.10451827124E+03 -0.88091387624E+02 -0.12135151803E+03  0.19901415012E+03  0.78716449506E+02 0.  0.
         24    2    4    4    0    0  0.14174112704E+04 -0.30590793882E+03 -0.12784820411E+03  0.14581478056E+04  0.84944000027E+02 0.  0.
         11    1    3    3    0    0 -0.97221197109E+03  0.28019373405E+03 -0.16886031702E+04  0.19685236376E+04  0.00000000000E+00 0.  1.
        -11    1    3    3    0    0 -0.34068102806E+03  0.11380559239E+03 -0.50307025104E+03  0.61813829619E+03  0.00000000000E+00 0. -1.
          2    1    6    6  502    0  0.10732379526E+04 -0.23666745210E+03 -0.13299788909E+03  0.11070409316E+04  0.00000000000E+00 0. -1.
          3    1    5    5  503    0 -0.10297639550E+03 -0.76486945044E+02 -0.69570122197E+02  0.14592598362E+03  0.00000000000E+00 0. -1.
         -4    1    5    5    0  503 -0.15418757444E+01 -0.11604442579E+02 -0.51781395831E+02  0.53088166503E+02  0.00000000000E+00 0.  1.
         -1    1    6    6    0  502  0.34417331781E+03 -0.69240486717E+02  0.51496849795E+01  0.35110687397E+03  0.00000000000E+00 0.  1.
<mgrwt>
<rscale>  0 0.34716249E+04</rscale>
<asrwt>0</asrwt>
<pdfrwt beam="1">  1        1 0.13868852E+00 0.34716249E+04</pdfrwt>
<pdfrwt beam="2">  1       -1 0.51420745E+00 0.34716249E+04</pdfrwt>
<totfact> 0.17942697E-02</totfact>
</mgrwt>
</event>
<event>
12    1  0.1755460E-007  0.1049067E+04  0.7818608E-02  0.9256308E-01
         -1   -1    0    0    0  501 -0.00000000000E+00  0.00000000000E+00  0.16079702562E+03  0.16079702562E+03  0.00000000000E+00 0.  1.
          1   -1    0    0  501    0  0.00000000000E+00 -0.00000000000E+00 -0.17110733302E+04  0.17110733302E+04  0.00000000000E+00 0. -1.
         23    2    1    2    0    0  0.90541668386E+02 -0.58687904279E+02 -0.12884351403E+03  0.18944320147E+03  0.87441475593E+02 0.  0.
        254    2    1    2    0    0 -0.90541668386E+02  0.58687904279E+02 -0.14214327905E+04  0.16824271543E+04  0.89355911266E+03 0.  0.
        -24    2    4    4    0    0 -0.88888691631E+02  0.46802237602E+03 -0.75758075064E+03  0.89847689775E+03  0.79912440206E+02 0.  0.
         24    2    4    4    0    0 -0.16529767558E+01 -0.40933447174E+03 -0.66385203988E+03  0.78395025658E+03  0.79504917121E+02 0.  0.
         13    1    3    3    0    0 -0.16192144360E+02 -0.19090431907E+02 -0.23940791923E+02  0.34638008708E+02  0.00000000000E+00 0. -1.
        -13    1    3    3    0    0  0.10673381275E+03 -0.39597472373E+02 -0.10490272211E+03  0.15480519277E+03  0.00000000000E+00 0.  1.
          4    1    6    6  502    0 -0.33254722956E+02 -0.18074101062E+03 -0.25262322321E+03  0.31239667480E+03  0.00000000000E+00 0. -1.
          1    1    5    5  503    0 -0.29375995621E+02  0.34599244626E+03 -0.54973515123E+03  0.65021723945E+03  0.00000000000E+00 0. -1.
         -2    1    5    5    0  503 -0.59512696009E+02  0.12202992976E+03 -0.20784559941E+03  0.24825965829E+03  0.00000000000E+00 0.  1.
         -3    1    6    6    0  502  0.31601746200E+02 -0.22859346112E+03 -0.41122881667E+03  0.47155358178E+03  0.00000000000E+00 0.  1.
<mgrwt>
<rscale>  0 0.10490672E+04</rscale>
<asrwt>0</asrwt>
<pdfrwt beam="1">  1        1 0.26324204E+00 0.10490672E+04</pdfrwt>
<pdfrwt beam="2">  1       -1 0.24738005E-01 0.10490672E+04</pdfrwt>
<totfact> 0.66853845E+01</totfact>
</mgrwt>
</event>
<event>
12    1  0.1755460E-007  0.1484027E+04  0.7818608E-02  0.8895144E-01
         -2   -1    0    0    0  501 -0.00000000000E+00  0.00000000000E+00  0.32096169355E+03  0.32096169355E+03  0.00000000000E+00 0.  1.
          2   -1    0    0  501    0  0.00000000000E+00 -0.00000000000E+00 -0.17154208368E+04  0.17154208368E+04  0.00000000000E+00 0. -1.
         23    2    1    2    0    0 -0.90613895401E+02  0.64474013739E+02  0.17278944172E+03  0.22425447493E+03  0.89811479607E+02 0.  0.
        254    2    1    2    0    0  0.90613895401E+02 -0.64474013739E+02 -0.15672485849E+04  0.18121280554E+04  0.90286886406E+03 0.  0.
        -24    2    4    4    0    0  0.33618702249E+03 -0.38290951348E+02 -0.16405110477E+03  0.38523952750E+03  0.83718680881E+02 0.  0.
         24    2    4    4    0    0 -0.24557312709E+03 -0.26183062391E+02 -0.14031974801E+04  0.14268885279E+04  0.77820236441E+02 0.  0.
         13    1    3    3    0    0  0.14200389274E+01  0.28215760343E+02  0.92910066820E+02  0.97110381313E+02  0.00000000000E+00 0. -1.
        -13    1    3    3    0    0 -0.92033934328E+02  0.36258253397E+02  0.79879374896E+02  0.12714409361E+03  0.00000000000E+00 0.  1.
          2    1    6    6  502    0 -0.22786184953E+03 -0.43864625078E+02 -0.12071664018E+04  0.12292663867E+04  0.00000000000E+00 0. -1.
          3    1    5    5  503    0  0.26105028742E+03 -0.37672546717E+02 -0.87290257244E+02  0.27782379730E+03  0.00000000000E+00 0. -1.
         -4    1    5    5    0  503  0.75136735072E+02 -0.61840463066E+00 -0.76760847529E+02  0.10741573020E+03  0.00000000000E+00 0.  1.
         -1    1    6    6    0  502 -0.17711277561E+02  0.17681562686E+02 -0.19603107832E+03  0.19762214117E+03  0.00000000000E+00 0.  1.
<mgrwt>
<rscale>  0 0.14840275E+04</rscale>
<asrwt>0</asrwt>
<pdfrwt beam="1">  1        2 0.26391090E+00 0.14840275E+04</pdfrwt>
<pdfrwt beam="2">  1       -2 0.49378722E-01 0.14840275E+04</pdfrwt>
<totfact> 0.36103026E+01</totfact>
</mgrwt>
</event>
<event>
12    1  0.1755460E-007  0.2985226E+04  0.7818608E-02  0.8247962E-01
          2   -1    0    0  501    0  0.00000000000E+00  0.00000000000E+00  0.48692288009E+04  0.48692288009E+04  0.00000000000E+00 0. -1.
         -2   -1    0    0    0  501 -0.00000000000E+00 -0.00000000000E+00 -0.45754556166E+03  0.45754556166E+03  0.00000000000E+00 0.  1.
         23    2    1    2    0    0 -0.10035850398E+03  0.87027424964E+03  0.16813232261E+03  0.89659267226E+03  0.90337385078E+02 0.  0.
        254    2    1    2    0    0  0.10035850398E+03 -0.87027424964E+03  0.42435509167E+04  0.44301816903E+04  0.92267888675E+03 0.  0.
        -24    2    4    4    0    0  0.27358846551E+03  0.67539943897E+02  0.68093943094E+03  0.74125470581E+03  0.79798106499E+02 0.  0.
         24    2    4    4    0    0 -0.17322996153E+03 -0.93781419354E+03  0.35626114857E+04  0.36889269845E+04  0.80483648425E+02 0.  0.
         13    1    3    3    0    0 -0.75389283352E+02  0.75890558140E+03  0.17425414711E+03  0.78229517019E+03  0.00000000000E+00 0.  1.
        -13    1    3    3    0    0 -0.24969220627E+02  0.11136866824E+03 -0.61218244953E+01  0.11429750207E+03  0.00000000000E+00 0. -1.
          4    1    6    6  502    0 -0.86506978163E+01 -0.22336452436E+03  0.87694744610E+03  0.90498804883E+03  0.00000000000E+00 0. -1.
          3    1    5    5  503    0  0.22773755830E+02  0.27379225798E+02  0.12615599473E+03  0.13108623484E+03  0.00000000000E+00 0. -1.
         -4    1    5    5    0  503  0.25081470968E+03  0.40160718099E+02  0.55478343621E+03  0.61016847097E+03  0.00000000000E+00 0.  1.
         -3    1    6    6    0  502 -0.16457926371E+03 -0.71444966918E+03  0.26856640396E+04  0.27839389357E+04  0.00000000000E+00 0.  1.
<mgrwt>
<rscale>  0 0.29852263E+04</rscale>
<asrwt>0</asrwt>
<pdfrwt beam="1">  1        2 0.74911209E+00 0.29852263E+04</pdfrwt>
<pdfrwt beam="2">  1       -2 0.70391628E-01 0.29852263E+04</pdfrwt>
<totfact> 0.77930311E-02</totfact>
</mgrwt>
</event>
<event>
12    1  0.1755460E-007  0.1396177E+04  0.7818608E-02  0.8956590E-01
         -1   -1    0    0    0  501 -0.00000000000E+00  0.00000000000E+00  0.98509117945E+03  0.98509117945E+03  0.00000000000E+00 0.  1.
          1   -1    0    0  501    0  0.00000000000E+00 -0.00000000000E+00 -0.49470310819E+03  0.49470310819E+03  0.00000000000E+00 0. -1.
         23    2    1    2    0    0  0.26296223855E+03  0.13284736341E+02  0.46669815381E+03  0.54191676389E+03  0.80876381555E+02 0.  0.
        254    2    1    2    0    0 -0.26296223855E+03 -0.13284736341E+02  0.23689917453E+02  0.93787752375E+03  0.89984855072E+03 0.  0.
        -24    2    4    4    0    0  0.33228717244E+02 -0.41834261550E+03  0.40819784763E+02  0.42930001593E+03  0.80731389541E+02 0.  0.
         24    2    4    4    0    0 -0.29619095580E+03  0.40505787916E+03 -0.17129867310E+02  0.50857750781E+03  0.80973337170E+02 0.  0.
         11    1    3    3    0    0  0.97959244209E+02  0.98931457506E+01  0.25597280879E+03  0.27425529475E+03  0.00000000000E+00 0.  1.
        -11    1    3    3    0    0  0.16500299434E+03  0.33915905905E+01  0.21072534501E+03  0.26766146914E+03  0.00000000000E+00 0. -1.
          2    1    6    6  502    0 -0.14839317980E+03  0.14619108194E+03 -0.28639020240E+02  0.21026783332E+03  0.00000000000E+00 0. -1.
          1    1    5    5  503    0 -0.27027435363E+01 -0.10147702603E+03  0.43379863076E+02  0.11039340630E+03  0.00000000000E+00 0. -1.
         -2    1    5    5    0  503  0.35931460781E+02 -0.31686558947E+03 -0.25600783128E+01  0.31890660963E+03  0.00000000000E+00 0.  1.
         -1    1    6    6    0  502 -0.14779777600E+03  0.25886679723E+03  0.11509152930E+02  0.29830967450E+03  0.00000000000E+00 0.  1.
<mgrwt>
<rscale>  0 0.13961772E+04</rscale>
<asrwt>0</asrwt>
<pdfrwt beam="1">  1        1 0.76108171E-01 0.13961772E+04</pdfrwt>
<pdfrwt beam="2">  1       -1 0.15155249E+00 0.13961772E+04</pdfrwt>
<totfact> 0.14886800E+01</totfact>
</mgrwt>
</event>
<event>
12    1  0.1755460E-007  0.1451393E+04  0.7818608E-02  0.8917436E-01
          2   -1    0    0  501    0  0.00000000000E+00  0.00000000000E+00  0.99908576380E+03  0.99908576380E+03  0.00000000000E+00 0.  1.
         -2   -1    0    0    0  501 -0.00000000000E+00 -0.00000000000E+00 -0.52711697901E+03  0.52711697901E+03  0.00000000000E+00 0. -1.
         23    2    1    2    0    0 -0.17516178578E+03  0.24973235850E+03  0.55873540790E+03  0.64326126278E+03  0.92476451417E+02 0.  0.
        254    2    1    2    0    0  0.17516178578E+03 -0.24973235850E+03 -0.86766623115E+02  0.88294148003E+03  0.82402021104E+03 0.  0.
        -24    2    4    4    0    0  0.22256654049E+03 -0.45962717011E+03 -0.27581040707E+03  0.58572253136E+03  0.78781359772E+02 0.  0.
         24    2    4    4    0    0 -0.47404754710E+02  0.20989481161E+03  0.18904378395E+03  0.29721894867E+03  0.79363143126E+02 0.  0.
         11    1    3    3    0    0 -0.13371814719E+01  0.17064684523E+02  0.91725909343E+02  0.93309345496E+02  0.00000000000E+00 0. -1.
        -11    1    3    3    0    0 -0.17382460431E+03  0.23266767397E+03  0.46700949856E+03  0.54995191728E+03  0.00000000000E+00 0.  1.
          4    1    6    6  502    0 -0.20865428755E+02  0.61625665401E+01  0.73941125772E+01  0.22978604055E+02  0.00000000000E+00 0. -1.
          3    1    5    5  503    0  0.52642869902E+02 -0.47377546931E+02 -0.38009514906E+02  0.80378025157E+02  0.00000000000E+00 0. -1.
         -4    1    5    5    0  503  0.16992367059E+03 -0.41224962318E+03 -0.23780089216E+03  0.50534450620E+03  0.00000000000E+00 0.  1.
         -3    1    6    6    0  502 -0.26539325955E+02  0.20373224507E+03  0.18164967138E+03  0.27424034462E+03  0.00000000000E+00 0.  1.
<mgrwt>
<rscale>  0 0.14513925E+04</rscale>
<asrwt>0</asrwt>
<pdfrwt beam="1">  1        2 0.15370550E+00 0.14513925E+04</pdfrwt>
<pdfrwt beam="2">  1       -2 0.81094920E-01 0.14513925E+04</pdfrwt>
<totfact> 0.32795955E+01</totfact>
</mgrwt>
</event>
<event>
12    1  0.1755460E-007  0.1127939E+04  0.7818608E-02  0.9178380E-01
          1   -1    0    0  501    0  0.00000000000E+00  0.00000000000E+00  0.31777467259E+03  0.31777467259E+03  0.00000000000E+00 0. -1.
         -1   -1    0    0    0  501 -0.00000000000E+00 -0.00000000000E+00 -0.10009032019E+04  0.10009032019E+04  0.00000000000E+00 0.  1.
         23    2    1    2    0    0  0.16676511071E+03  0.31336204785E+02 -0.32867727910E+03  0.38100688158E+03  0.91350589139E+02 0.  0.
        254    2    1    2    0    0 -0.16676511071E+03 -0.31336204785E+02 -0.35445125024E+03  0.93767099294E+03  0.85135106879E+03 0.  0.
        -24    2    4    4    0    0 -0.21778199929E+03 -0.69120713801E+02 -0.61347987075E+03  0.65953297671E+03  0.80121927468E+02 0.  0.
         24    2    4    4    0    0  0.51016888584E+02  0.37784509016E+02  0.25902862051E+03  0.27813801623E+03  0.78959089319E+02 0.  0.
         11    1    3    3    0    0  0.96387918305E+02 -0.16729824899E+02 -0.11512700452E+03  0.15107860539E+03  0.00000000000E+00 0. -1.
        -11    1    3    3    0    0  0.70377192403E+02  0.48066029684E+02 -0.21355027457E+03  0.22992827619E+03  0.00000000000E+00 0.  1.
          2    1    6    6  502    0  0.42544221437E+02  0.15000709413E+02  0.24687148278E+03  0.25095928170E+03  0.00000000000E+00 0. -1.
          1    1    5    5  503    0 -0.17589559465E+03 -0.67269387985E+02 -0.56436730361E+03  0.59495788436E+03  0.00000000000E+00 0. -1.
         -2    1    5    5    0  503 -0.41886404641E+02 -0.18513258164E+01 -0.49112567139E+02  0.64575092349E+02  0.00000000000E+00 0.  1.
         -1    1    6    6    0  502  0.84726671462E+01  0.22783799603E+02  0.12157137731E+02  0.27178734532E+02  0.00000000000E+00 0.  1.
<mgrwt>
<rscale>  0 0.11279392E+04</rscale>
<asrwt>0</asrwt>
<pdfrwt beam="1">  1        1 0.48888411E-01 0.11279392E+04</pdfrwt>
<pdfrwt beam="2">  1       -1 0.15398511E+00 0.11279392E+04</pdfrwt>
<totfact> 0.26280513E+01</totfact>
</mgrwt>
</event>
<event>
12    1  0.1755460E-007  0.1555705E+04  0.7818608E-02  0.8848232E-01
          1   -1    0    0  501    0  0.00000000000E+00  0.00000000000E+00  0.10273060865E+04  0.10273060865E+04  0.00000000000E+00 0. -1.
         -1   -1    0    0    0  501 -0.00000000000E+00 -0.00000000000E+00 -0.58897218299E+03  0.58897218299E+03  0.00000000000E+00 0.  1.
         23    2    1    2    0    0  0.41232186630E+03 -0.23839976059E+03 -0.50193921665E+02  0.48749584104E+03  0.91043934368E+02 0.  0.
        254    2    1    2    0    0 -0.41232186630E+03  0.23839976059E+03  0.48852782518E+03  0.11287824284E+04  0.89924777871E+03 0.  0.
        -24    2    4    4    0    0  0.26784477166E+03  0.72385618848E+02  0.25741112983E+03  0.38680534966E+03  0.79858557694E+02 0.  0.
         24    2    4    4    0    0 -0.68016663796E+03  0.16601414174E+03  0.23111669535E+03  0.74197707879E+03  0.83232853657E+02 0.  0.
         11    1    3    3    0    0  0.35774428529E+03 -0.19490849289E+03 -0.11188348463E+02  0.40754812403E+03  0.00000000000E+00 0. -1.
        -11    1    3    3    0    0  0.54577581007E+02 -0.43491267704E+02 -0.39005573202E+02  0.79947717015E+02  0.00000000000E+00 0.  1.
          2    1    6    6  502    0 -0.29426331685E+03  0.42546390078E+02  0.12920277048E+03  0.32418274298E+03  0.00000000000E+00 0. -1.
          3    1    5    5  503    0  0.53765087531E+02 -0.32841564581E+01  0.17873201773E+02  0.56753164339E+02  0.00000000000E+00 0. -1.
         -4    1    5    5    0  503  0.21407968413E+03  0.75669775306E+02  0.23953792806E+03  0.33005218532E+03  0.00000000000E+00 0.  1.
         -1    1    6    6    0  502 -0.38590332111E+03  0.12346775167E+03  0.10191392487E+03  0.41779433580E+03  0.00000000000E+00 0.  1.
<mgrwt>
<rscale>  0 0.15557053E+04</rscale>
<asrwt>0</asrwt>
<pdfrwt beam="1">  1        1 0.15804709E+00 0.15557053E+04</pdfrwt>
<pdfrwt beam="2">  1       -1 0.90611105E-01 0.15557053E+04</pdfrwt>
<totfact> 0.16514869E+01</totfact>
</mgrwt>
</event>
<event>
12    1  0.1755460E-007  0.2519441E+04  0.7818608E-02  0.8396092E-01
         -2   -1    0    0    0  501 -0.00000000000E+00  0.00000000000E+00  0.74380351441E+03  0.74380351441E+03  0.00000000000E+00 0.  1.
          2   -1    0    0  501    0  0.00000000000E+00 -0.00000000000E+00 -0.21334883093E+04  0.21334883093E+04  0.00000000000E+00 0. -1.
         23    2    1    2    0    0  0.91071954300E+03  0.33563634786E+03 -0.11760344810E+04  0.15276536996E+04  0.92773280574E+02 0.  0.
        254    2    1    2    0    0 -0.91071954300E+03 -0.33563634786E+03 -0.21365031390E+03  0.13496381241E+04  0.91313458224E+03 0.  0.
        -24    2    4    4    0    0  0.74507947826E+02 -0.20023000083E+03  0.16551919456E+03  0.28224870263E+03  0.81389427118E+02 0.  0.
         24    2    4    4    0    0 -0.98522749082E+03 -0.13540634703E+03 -0.37916950847E+03  0.10673894214E+04  0.80886175157E+02 0.  0.
         13    1    3    3    0    0  0.87342662572E+03  0.32801961878E+03 -0.11528624109E+04  0.14830922693E+04  0.00000000000E+00 0. -1.
        -13    1    3    3    0    0  0.37292917277E+02  0.76167290785E+01 -0.23172070039E+02  0.44561430304E+02  0.00000000000E+00 0.  1.
          4    1    6    6  502    0 -0.93596208573E+01 -0.26268836957E+01 -0.13927477030E+02  0.16984629432E+02  0.00000000000E+00 0. -1.
          1    1    5    5  503    0  0.12640255039E+02 -0.15690217450E+02 -0.78238769402E+01  0.21614162520E+02  0.00000000000E+00 0. -1.
         -2    1    5    5    0  503  0.61867692788E+02 -0.18453978338E+03  0.17334307150E+03  0.26063454011E+03  0.00000000000E+00 0.  1.
         -3    1    6    6    0  502 -0.97586786997E+03 -0.13277946334E+03 -0.36524203144E+03  0.10504047920E+04  0.00000000000E+00 0.  1.
<mgrwt>
<rscale>  0 0.25194413E+04</rscale>
<asrwt>0</asrwt>
<pdfrwt beam="1">  1        2 0.32822897E+00 0.25194413E+04</pdfrwt>
<pdfrwt beam="2">  1       -2 0.11443131E+00 0.25194413E+04</pdfrwt>
<totfact> 0.29905865E+00</totfact>
</mgrwt>
</event>
<event>
12    1  0.1755460E-007  0.1803373E+04  0.7818608E-02  0.8704508E-01
         -2   -1    0    0    0  501 -0.00000000000E+00  0.00000000000E+00  0.37359428166E+03  0.37359428166E+03  0.00000000000E+00 0.  1.
          2   -1    0    0  501    0  0.00000000000E+00 -0.00000000000E+00 -0.21762605004E+04  0.21762605004E+04  0.00000000000E+00 0. -1.
         23    2    1    2    0    0  0.26597989165E+03  0.56396401272E+03 -0.10444339352E+04  0.12198139183E+04  0.91121018542E+02 0.  0.
        254    2    1    2    0    0 -0.26597989165E+03 -0.56396401272E+03 -0.75823228359E+03  0.13300408638E+04  0.89738051738E+03 0.  0.
        -24    2    4    4    0    0 -0.27986847789E+03 -0.27551539330E+02 -0.73064895441E+03  0.78688457737E+03  0.79082180588E+02 0.  0.
         24    2    4    4    0    0  0.13888586241E+02 -0.53641247339E+03 -0.27583329173E+02  0.54315628638E+03  0.79540410765E+02 0.  0.
         13    1    3    3    0    0  0.78529412179E+02  0.19812812985E+03 -0.43928175573E+03  0.48825207151E+03  0.00000000000E+00 0. -1.
        -13    1    3    3    0    0  0.18745047947E+03  0.36583588288E+03 -0.60515217945E+03  0.73156184684E+03  0.00000000000E+00 0.  1.
          2    1    6    6  502    0  0.10132915253E+02 -0.53153318358E+03 -0.18210076062E+02  0.53194154574E+03  0.00000000000E+00 0. -1.
          1    1    5    5  503    0 -0.18881301347E+03 -0.54606387174E+02 -0.51548186855E+03  0.55168267000E+03  0.00000000000E+00 0. -1.
         -2    1    5    5    0  503 -0.91055464416E+02  0.27054847844E+02 -0.21516708587E+03  0.23520190738E+03  0.00000000000E+00 0.  1.
         -1    1    6    6    0  502  0.37556709875E+01 -0.48792898159E+01 -0.93732531113E+01  0.11214740637E+02  0.00000000000E+00 0.  1.
<mgrwt>
<rscale>  0 0.18033729E+04</rscale>
<asrwt>0</asrwt>
<pdfrwt beam="1">  1        2 0.33480930E+00 0.18033729E+04</pdfrwt>
<pdfrwt beam="2">  1       -2 0.57476044E-01 0.18033729E+04</pdfrwt>
<totfact> 0.14254416E+01</totfact>
</mgrwt>
</event>
<event>
12    1  0.1755460E-007  0.1737250E+04  0.7818608E-02  0.8740400E-01
          1   -1    0    0  501    0  0.00000000000E+00  0.00000000000E+00  0.26773687029E+04  0.26773687029E+04  0.00000000000E+00 0. -1.
         -1   -1    0    0    0  501 -0.00000000000E+00 -0.00000000000E+00 -0.28181003688E+03  0.28181003688E+03  0.00000000000E+00 0.  1.
         23    2    1    2    0    0  0.13249042345E+03 -0.42343507954E+03  0.16484122693E+04  0.17095363421E+04  0.91654330578E+02 0.  0.
        254    2    1    2    0    0 -0.13249042345E+03  0.42343507954E+03  0.74714639670E+03  0.12496423977E+04  0.89806870848E+03 0.  0.
        -24    2    4    4    0    0 -0.40803968793E+03  0.11296530897E+03  0.70559856887E+03  0.82664108267E+03  0.78794614074E+02 0.  0.
         24    2    4    4    0    0  0.27554926448E+03  0.31046977057E+03  0.41547827825E+02  0.42300131504E+03  0.69892881866E+02 0.  0.
         11    1    3    3    0    0  0.50595770952E+02 -0.21437855619E+03  0.65419258793E+03  0.69027968208E+03  0.00000000000E+00 0.  1.
        -11    1    3    3    0    0  0.81894652500E+02 -0.20905652335E+03  0.99421968139E+03  0.10192566600E+04  0.00000000000E+00 0. -1.
          4    1    6    6  502    0  0.15272122185E+03  0.12438001165E+03  0.47894388604E+01  0.19702055128E+03  0.00000000000E+00 0. -1.
          3    1    5    5  503    0 -0.62853425137E+02  0.43183212462E+02  0.16019672165E+03  0.17742134178E+03  0.00000000000E+00 0. -1.
         -4    1    5    5    0  503 -0.34518626279E+03  0.69782096512E+02  0.54540184722E+03  0.64921974089E+03  0.00000000000E+00 0.  1.
         -3    1    6    6    0  502  0.12282804262E+03  0.18608975891E+03  0.36758388965E+02  0.22598076375E+03  0.00000000000E+00 0.  1.
<mgrwt>
<rscale>  0 0.17372500E+04</rscale>
<asrwt>0</asrwt>
<pdfrwt beam="1">  1        1 0.41190286E+00 0.17372500E+04</pdfrwt>
<pdfrwt beam="2">  1       -1 0.43355392E-01 0.17372500E+04</pdfrwt>
<totfact> 0.50804991E+00</totfact>
</mgrwt>
</event>
<event>
12    1  0.1873560E-007  0.2506279E+04  0.7818608E-02  0.8400752E-01
         -1   -1    0    0    0  501 -0.00000000000E+00  0.00000000000E+00  0.73931857941E+03  0.73931857941E+03  0.00000000000E+00 0. -1.
          1   -1    0    0  501    0  0.00000000000E+00 -0.00000000000E+00 -0.21240623356E+04  0.21240623356E+04  0.00000000000E+00 0.  1.
         23    2    1    2    0    0  0.69657088115E+03  0.65362276451E+02  0.33580623667E+03  0.78139474969E+03  0.91261747727E+02 0.  0.
        254    2    1    2    0    0 -0.69657088115E+03 -0.65362276451E+02 -0.17205499929E+04  0.20819861654E+04  0.94068639570E+03 0.  0.
        -24    2    4    4    0    0 -0.58079612677E+03  0.21054334618E+03 -0.43523326016E+03  0.75989249883E+03  0.79724384768E+02 0.  0.
         24    2    4    4    0    0 -0.11577475438E+03 -0.27590562263E+03 -0.12853167327E+04  0.13220936665E+04  0.79780030713E+02 0.  0.
         11    1    3    3    0    0  0.93842842550E+02  0.96354771938E+00  0.13314026308E+02  0.94787503493E+02  0.00000000000E+00 0.  1.
        -11    1    3    3    0    0  0.60272803860E+03  0.64398728732E+02  0.32249221036E+03  0.68660724619E+03  0.00000000000E+00 0. -1.
          4    1    6    6  502    0 -0.11832166451E+02 -0.48405411466E+02 -0.11474405298E+03  0.12509708916E+03  0.00000000000E+00 0. -1.
          1    1    5    5  503    0 -0.36455738429E+01 -0.24818809830E+01 -0.12997296282E+02  0.13725146720E+02  0.00000000000E+00 0. -1.
         -2    1    5    5    0  503 -0.57715055293E+03  0.21302522717E+03 -0.42223596388E+03  0.74616735211E+03  0.00000000000E+00 0.  1.
         -3    1    6    6    0  502 -0.10394258793E+03 -0.22750021117E+03 -0.11705726797E+04  0.11969965774E+04  0.00000000000E+00 0.  1.
<mgrwt>
<rscale>  0 0.25062791E+04</rscale>
<asrwt>0</asrwt>
<pdfrwt beam="1">  1        1 0.32677882E+00 0.25062791E+04</pdfrwt>
<pdfrwt beam="2">  1       -1 0.11374132E+00 0.25062791E+04</pdfrwt>
<totfact> 0.15353990E+00</totfact>
</mgrwt>
</event>
<event>
12    1  0.1755460E-007  0.2464809E+04  0.7818608E-02  0.8415631E-01
         -2   -1    0    0    0  501 -0.00000000000E+00  0.00000000000E+00  0.30791719595E+04  0.30791719595E+04  0.00000000000E+00 0.  1.
          2   -1    0    0  501    0  0.00000000000E+00 -0.00000000000E+00 -0.49325642392E+03  0.49325642392E+03  0.00000000000E+00 0. -1.
         23    2    1    2    0    0 -0.75902247175E+03 -0.73590303292E+03  0.92294826811E+03  0.14063696784E+04  0.91508361077E+02 0.  0.
        254    2    1    2    0    0  0.75902247175E+03  0.73590303292E+03  0.16629672675E+04  0.21660587051E+04  0.89926736548E+03 0.  0.
        -24    2    4    4    0    0  0.84161572018E+03  0.42000181156E+03  0.15428584267E+04  0.18087730129E+04  0.80803126963E+02 0.  0.
         24    2    4    4    0    0 -0.82593248426E+02  0.31590122135E+03  0.12010884082E+03  0.35728569217E+03  0.81312396625E+02 0.  0.
         13    1    3    3    0    0 -0.74318043803E+03 -0.73456093496E+03  0.90467624376E+03  0.13821490646E+04  0.00000000000E+00 0.  1.
        -13    1    3    3    0    0 -0.15842033724E+02 -0.13420979551E+01  0.18272024352E+02  0.24220613810E+02  0.00000000000E+00 0. -1.
          4    1    6    6  502    0 -0.94021821289E+02  0.23517377417E+03  0.75185447748E+02  0.26419624995E+03  0.00000000000E+00 0. -1.
          3    1    5    5  503    0  0.74812724513E+03  0.34390342630E+03  0.13357028841E+04  0.15690972360E+04  0.00000000000E+00 0. -1.
         -4    1    5    5    0  503  0.93488475051E+02  0.76098385258E+02  0.20715554261E+03  0.23967577692E+03  0.00000000000E+00 0.  1.
         -3    1    6    6    0  502  0.11428572863E+02  0.80727447186E+02  0.44923393073E+02  0.93089442216E+02  0.00000000000E+00 0.  1.
<mgrwt>
<rscale>  0 0.24648094E+04</rscale>
<asrwt>0</asrwt>
<pdfrwt beam="1">  1        2 0.75885606E-01 0.24648094E+04</pdfrwt>
<pdfrwt beam="2">  1       -2 0.47371875E+00 0.24648094E+04</pdfrwt>
<totfact> 0.13542418E-01</totfact>
</mgrwt>
</event>
<event>
12    1  0.1755460E-007  0.1339264E+04  0.7818608E-02  0.8998995E-01
         -2   -1    0    0    0  501 -0.00000000000E+00  0.00000000000E+00  0.20241821511E+03  0.20241821511E+03  0.00000000000E+00 0. -1.
          2   -1    0    0  501    0  0.00000000000E+00 -0.00000000000E+00 -0.22152492724E+04  0.22152492724E+04  0.00000000000E+00 0.  1.
         23    2    1    2    0    0  0.35271603487E+03  0.50960261324E+02 -0.58972792412E+03  0.69506389361E+03  0.91264682196E+02 0.  0.
        254    2    1    2    0    0 -0.35271603487E+03 -0.50960261324E+02 -0.14231031331E+04  0.17226035939E+04  0.90284830652E+03 0.  0.
        -24    2    4    4    0    0  0.23053084460E+03 -0.25000635183E+03 -0.53119536312E+03  0.63558626261E+03  0.78445759270E+02 0.  0.
         24    2    4    4    0    0 -0.58324687947E+03  0.19904609051E+03 -0.89190777001E+03  0.10870173313E+04  0.79441422981E+02 0.  0.
         11    1    3    3    0    0  0.16078376497E+03 -0.19466742097E+02 -0.29183104552E+03  0.33375999199E+03  0.00000000000E+00 0.  1.
        -11    1    3    3    0    0  0.19193226990E+03  0.70427003420E+02 -0.29789687861E+03  0.36130390162E+03  0.00000000000E+00 0. -1.
          4    1    6    6  502    0 -0.47628638983E+03  0.19155069657E+03 -0.71632074536E+03  0.88128077519E+03  0.00000000000E+00 0. -1.
          1    1    5    5  503    0  0.20364056799E+03 -0.20101951589E+03 -0.48483495985E+03  0.56297714429E+03  0.00000000000E+00 0. -1.
         -2    1    5    5    0  503  0.26890276610E+02 -0.48986835941E+02 -0.46360403275E+02  0.72609118322E+02  0.00000000000E+00 0.  1.
         -3    1    6    6    0  502 -0.10696048964E+03  0.74953939407E+01 -0.17558702465E+03  0.20573655606E+03  0.00000000000E+00 0.  1.
<mgrwt>
<rscale>  0 0.13392637E+04</rscale>
<asrwt>0</asrwt>
<pdfrwt beam="1">  1        2 0.34080761E+00 0.13392637E+04</pdfrwt>
<pdfrwt beam="2">  1       -2 0.31141262E-01 0.13392637E+04</pdfrwt>
<totfact> 0.47412149E+01</totfact>
</mgrwt>
</event>
<event>
12    1  0.1755460E-007  0.1413816E+04  0.7818608E-02  0.8943878E-01
         -2   -1    0    0    0  501 -0.00000000000E+00  0.00000000000E+00  0.45372118145E+03  0.45372118145E+03  0.00000000000E+00 0. -1.
          2   -1    0    0  501    0  0.00000000000E+00 -0.00000000000E+00 -0.11013783571E+04  0.11013783571E+04  0.00000000000E+00 0.  1.
         23    2    1    2    0    0  0.21431549671E+02 -0.26668762650E+03  0.15361685467E+03  0.32111212256E+03  0.89068826001E+02 0.  0.
        254    2    1    2    0    0 -0.21431549671E+02  0.26668762650E+03 -0.80127403033E+03  0.12339874160E+04  0.89950167855E+03 0.  0.
        -24    2    4    4    0    0 -0.23025314230E+03  0.40478375862E+03 -0.84410032209E+03  0.96727962345E+03  0.79108251152E+02 0.  0.
         24    2    4    4    0    0  0.20882159263E+03 -0.13809613212E+03  0.42826291767E+02  0.26670779255E+03  0.81375402200E+02 0.  0.
         13    1    3    3    0    0 -0.10305430700E+02 -0.18351120726E+01  0.20447209880E+02  0.22970806040E+02  0.00000000000E+00 0.  1.
        -13    1    3    3    0    0  0.31736980371E+02 -0.26485251442E+03  0.13316964479E+03  0.29814131652E+03  0.00000000000E+00 0. -1.
          2    1    6    6  502    0  0.91904039650E+02 -0.25479557196E+02 -0.10244476540E+02  0.95919287104E+02  0.00000000000E+00 0. -1.
          1    1    5    5  503    0 -0.11540747120E+03  0.14289176281E+03 -0.38175655272E+03  0.42364490536E+03  0.00000000000E+00 0. -1.
         -2    1    5    5    0  503 -0.11484567110E+03  0.26189199581E+03 -0.46234376937E+03  0.54363471810E+03  0.00000000000E+00 0.  1.
         -1    1    6    6    0  502  0.11691755298E+03 -0.11261657493E+03  0.53070768307E+02  0.17078850545E+03  0.00000000000E+00 0.  1.
<mgrwt>
<rscale>  0 0.14138157E+04</rscale>
<asrwt>0</asrwt>
<pdfrwt beam="1">  1        2 0.16944282E+00 0.14138157E+04</pdfrwt>
<pdfrwt beam="2">  1       -2 0.69803258E-01 0.14138157E+04</pdfrwt>
<totfact> 0.39549992E+01</totfact>
</mgrwt>
</event>
<event>
12    1  0.1755460E-007  0.1458925E+04  0.7818608E-02  0.8912236E-01
          1   -1    0    0  501    0  0.00000000000E+00  0.00000000000E+00  0.15849595673E+04  0.15849595673E+04  0.00000000000E+00 0. -1.
         -1   -1    0    0    0  501 -0.00000000000E+00 -0.00000000000E+00 -0.33572816390E+03  0.33572816390E+03  0.00000000000E+00 0.  1.
         23    2    1    2    0    0 -0.20032644049E+03 -0.39529029262E+03  0.24284908236E+03  0.51330602647E+03  0.90123813741E+02 0.  0.
        254    2    1    2    0    0  0.20032644049E+03  0.39529029262E+03  0.10063823211E+04  0.14073817048E+04  0.87836939185E+03 0.  0.
        -24    2    4    4    0    0  0.53141747849E+03  0.14856154130E+03  0.49517595921E+03  0.74555154696E+03  0.78567236235E+02 0.  0.
         24    2    4    4    0    0 -0.33109103799E+03  0.24672875132E+03  0.51120636186E+03  0.66183015780E+03  0.78682025863E+02 0.  0.
         13    1    3    3    0    0 -0.19864238615E+03 -0.36436256826E+03  0.24558054553E+03  0.48221228009E+03  0.00000000000E+00 0. -1.
        -13    1    3    3    0    0 -0.16840543474E+01 -0.30927724358E+02 -0.27314631649E+01  0.31093746381E+02  0.00000000000E+00 0.  1.
          4    1    6    6  502    0 -0.15720614677E+03  0.16561793969E+03  0.26986612961E+03  0.35351209660E+03  0.00000000000E+00 0. -1.
          3    1    5    5  503    0  0.33974604914E+03  0.13024895713E+03  0.34432913255E+03  0.50095381051E+03  0.00000000000E+00 0. -1.
         -4    1    5    5    0  503  0.19167142935E+03  0.18312584165E+02  0.15084682666E+03  0.24459773645E+03  0.00000000000E+00 0.  1.
         -3    1    6    6    0  502 -0.17388489122E+03  0.81110811632E+02  0.24134023225E+03  0.30831806120E+03  0.00000000000E+00 0.  1.
<mgrwt>
<rscale>  0 0.14589250E+04</rscale>
<asrwt>0</asrwt>
<pdfrwt beam="1">  1        1 0.24383993E+00 0.14589250E+04</pdfrwt>
<pdfrwt beam="2">  1       -1 0.51650488E-01 0.14589250E+04</pdfrwt>
<totfact> 0.20920774E+01</totfact>
</mgrwt>
</event>
<event>
12    1  0.1755460E-007  0.2656661E+04  0.7818608E-02  0.8349205E-01
         -1   -1    0    0    0  501 -0.00000000000E+00  0.00000000000E+00  0.11877155916E+04  0.11877155916E+04  0.00000000000E+00 0.  1.
          1   -1    0    0  501    0  0.00000000000E+00 -0.00000000000E+00 -0.14855933987E+04  0.14855933987E+04  0.00000000000E+00 0. -1.
         23    2    1    2    0    0  0.36145672740E+03  0.31163275615E+03  0.93588864186E+03  0.10544787068E+04  0.90949726186E+02 0.  0.
        254    2    1    2    0    0 -0.36145672740E+03 -0.31163275615E+03 -0.12337664489E+04  0.16188302835E+04  0.93309479460E+03 0.  0.
        -24    2    4    4    0    0 -0.79408039183E+02 -0.60433797122E+03 -0.88291313403E+03  0.10760268972E+04  0.82269442657E+02 0.  0.
         24    2    4    4    0    0 -0.28204868821E+03  0.29270521506E+03 -0.35085331491E+03  0.54280338625E+03  0.79433381461E+02 0.  0.
         13    1    3    3    0    0  0.18302201381E+03  0.19212795996E+03  0.43579075996E+03  0.51021936165E+03  0.00000000000E+00 0.  1.
        -13    1    3    3    0    0  0.17843471359E+03  0.11950479619E+03  0.50009788191E+03  0.54425934518E+03  0.00000000000E+00 0. -1.
          2    1    6    6  502    0 -0.14708915035E+03  0.10110823107E+03 -0.13034568620E+03  0.22101604116E+03  0.00000000000E+00 0. -1.
          3    1    5    5  503    0 -0.28208273890E+02 -0.39377727417E+03 -0.62399516469E+03  0.73839434851E+03  0.00000000000E+00 0. -1.
         -4    1    5    5    0  503 -0.51199765293E+02 -0.21056069705E+03 -0.25891796934E+03  0.33763254872E+03  0.00000000000E+00 0.  1.
         -1    1    6    6    0  502 -0.13495953786E+03  0.19159698399E+03 -0.22050762871E+03  0.32178734508E+03  0.00000000000E+00 0.  1.
<mgrwt>
<rscale>  0 0.26566614E+04</rscale>
<asrwt>0</asrwt>
<pdfrwt beam="1">  1        1 0.22855283E+00 0.26566614E+04</pdfrwt>
<pdfrwt beam="2">  1       -1 0.18272547E+00 0.26566614E+04</pdfrwt>
<totfact> 0.11673331E+00</totfact>
</mgrwt>
</event>
<event>
12    1  0.1755460E-007  0.2719209E+04  0.7818608E-02  0.8328799E-01
          2   -1    0    0  501    0  0.00000000000E+00  0.00000000000E+00  0.19118281985E+04  0.19118281985E+04  0.00000000000E+00 0. -1.
         -2   -1    0    0    0  501 -0.00000000000E+00 -0.00000000000E+00 -0.96688821198E+03  0.96688821198E+03  0.00000000000E+00 0.  1.
         23    2    1    2    0    0  0.55168135437E+03  0.15052140515E+03  0.15518337252E+04  0.16563826321E+04  0.91686983844E+02 0.  0.
        254    2    1    2    0    0 -0.55168135437E+03 -0.15052140515E+03 -0.60689373875E+03  0.12223337783E+04  0.89373980853E+03 0.  0.
        -24    2    4    4    0    0  0.11894885403E+03 -0.25467771860E+03 -0.42401582176E+03  0.51481038771E+03  0.78935087019E+02 0.  0.
         24    2    4    4    0    0 -0.67063020840E+03  0.10415631345E+03 -0.18287791699E+03  0.70752339063E+03  0.80941965043E+02 0.  0.
         11    1    3    3    0    0  0.47544107494E+02  0.24004006162E+02  0.22867637226E+03  0.23479675828E+03  0.00000000000E+00 0.  1.
        -11    1    3    3    0    0  0.50413724688E+03  0.12651739898E+03  0.13231573530E+04  0.14215858738E+04  0.00000000000E+00 0. -1.
          2    1    6    6  502    0 -0.14781813603E+03  0.35930267749E+02 -0.73948092748E+02  0.16914344770E+03  0.00000000000E+00 0. -1.
          1    1    5    5  503    0  0.42021493618E+02 -0.58187371838E+02 -0.57810583612E+02  0.92160944792E+02  0.00000000000E+00 0. -1.
         -2    1    5    5    0  503  0.76927360415E+02 -0.19649034676E+03 -0.36620523814E+03  0.42264944291E+03  0.00000000000E+00 0.  1.
         -1    1    6    6    0  502 -0.52281207238E+03  0.68226045706E+02 -0.10892982424E+03  0.53837994293E+03  0.00000000000E+00 0.  1.
<mgrwt>
<rscale>  0 0.27192088E+04</rscale>
<asrwt>0</asrwt>
<pdfrwt beam="1">  1        2 0.29412741E+00 0.27192088E+04</pdfrwt>
<pdfrwt beam="2">  1       -2 0.14875203E+00 0.27192088E+04</pdfrwt>
<totfact> 0.20070886E+00</totfact>
</mgrwt>
</event>
<event>
12    1  0.1755460E-007  0.3677257E+04  0.7818608E-02  0.8073021E-01
         -2   -1    0    0    0  501 -0.00000000000E+00  0.00000000000E+00  0.21680436293E+04  0.21680436293E+04  0.00000000000E+00 0.  1.
          2   -1    0    0  501    0  0.00000000000E+00 -0.00000000000E+00 -0.15592647482E+04  0.15592647482E+04  0.00000000000E+00 0. -1.
         23    2    1    2    0    0  0.24957142617E+03 -0.10620295281E+03 -0.14401436031E+04  0.14705619218E+04  0.12236749702E+03 0.  0.
        254    2    1    2    0    0 -0.24957142617E+03  0.10620295281E+03  0.20489224841E+04  0.22567464557E+04  0.90623189955E+03 0.  0.
        -24    2    4    4    0    0  0.83047077627E+02  0.27072290816E+03  0.17091987521E+03  0.34067171443E+03  0.81583718765E+02 0.  0.
         24    2    4    4    0    0 -0.33261850380E+03 -0.16451995535E+03  0.18780026089E+04  0.19160747413E+04  0.82138483923E+02 0.  0.
         11    1    3    3    0    0  0.12347522727E+03 -0.11217174807E+03 -0.69061827120E+03  0.71048028075E+03  0.00000000000E+00 0. -1.
        -11    1    3    3    0    0  0.12609619890E+03  0.59687952623E+01 -0.74952533186E+03  0.76008164101E+03  0.00000000000E+00 0.  1.
          2    1    6    6  502    0 -0.20720634137E+03 -0.93967041747E+02  0.13391597020E+04  0.13583493587E+04  0.00000000000E+00 0. -1.
          3    1    5    5  503    0 -0.59576078598E+01  0.11373020857E+03  0.58220539137E+02  0.12790498274E+03  0.00000000000E+00 0. -1.
         -4    1    5    5    0  503  0.89004685487E+02  0.15699269959E+03  0.11269933607E+03  0.21276673169E+03  0.00000000000E+00 0.  1.
         -1    1    6    6    0  502 -0.12541216243E+03 -0.70552913608E+02  0.53884290691E+03  0.55772538263E+03  0.00000000000E+00 0.  1.
<mgrwt>
<rscale>  0 0.36772566E+04</rscale>
<asrwt>0</asrwt>
<pdfrwt beam="1">  1        2 0.23988688E+00 0.36772566E+04</pdfrwt>
<pdfrwt beam="2">  1       -2 0.33354517E+00 0.36772566E+04</pdfrwt>
<totfact> 0.18777776E-01</totfact>
</mgrwt>
</event>
<event>
12    1  0.1755460E-007  0.1700734E+04  0.7818608E-02  0.8760946E-01
         -1   -1    0    0    0  501 -0.00000000000E+00  0.00000000000E+00  0.26277711810E+03  0.26277711810E+03  0.00000000000E+00 0.  1.
          1   -1    0    0  501    0  0.00000000000E+00 -0.00000000000E+00 -0.27518541845E+04  0.27518541845E+04  0.00000000000E+00 0. -1.
         23    2    1    2    0    0  0.48166517204E+03 -0.77115314206E+02 -0.26707189559E+03  0.56494927257E+03  0.99459406430E+02 0.  0.
        254    2    1    2    0    0 -0.48166517204E+03  0.77115314206E+02 -0.22220051708E+04  0.24496820300E+04  0.90867318630E+03 0.  0.
        -24    2    4    4    0    0 -0.54934640481E+02  0.13872052047E+03 -0.18946381801E+04  0.19022149632E+04  0.80664335824E+02 0.  0.
         24    2    4    4    0    0 -0.42673053156E+03 -0.61605206260E+02 -0.32736699069E+03  0.54746706685E+03  0.81589795240E+02 0.  0.
         13    1    3    3    0    0  0.16454434752E+03 -0.74672841513E+02 -0.95232759609E+02  0.20425512004E+03  0.00000000000E+00 0. -1.
        -13    1    3    3    0    0  0.31712082452E+03 -0.24424726934E+01 -0.17183913598E+03  0.36069415253E+03  0.00000000000E+00 0.  1.
          4    1    6    6  502    0 -0.34405561218E+03 -0.18038784409E+02 -0.24338930808E+03  0.42182699926E+03  0.00000000000E+00 0. -1.
          1    1    5    5  503    0 -0.73058439826E+02  0.12646331351E+03 -0.17249808358E+04  0.17311526186E+04  0.00000000000E+00 0. -1.
         -2    1    5    5    0  503  0.18123799345E+02  0.12257206960E+02 -0.16965734432E+03  0.17106234450E+03  0.00000000000E+00 0.  1.
         -3    1    6    6    0  502 -0.82674919375E+02 -0.43566421852E+02 -0.83977682617E+02  0.12564006759E+03  0.00000000000E+00 0.  1.
<mgrwt>
<rscale>  0 0.17007343E+04</rscale>
<asrwt>0</asrwt>
<pdfrwt beam="1">  1        1 0.42336217E+00 0.17007343E+04</pdfrwt>
<pdfrwt beam="2">  1       -1 0.40427250E-01 0.17007343E+04</pdfrwt>
<totfact> 0.51392388E+00</totfact>
</mgrwt>
</event>
<event>
12    1  0.1755460E-007  0.1958953E+04  0.7818608E-02  0.8626056E-01
          1   -1    0    0  501    0  0.00000000000E+00  0.00000000000E+00  0.63146718641E+03  0.63146718641E+03  0.00000000000E+00 0. -1.
         -1   -1    0    0    0  501 -0.00000000000E+00 -0.00000000000E+00 -0.15192781064E+04  0.15192781064E+04  0.00000000000E+00 0.  1.
         23    2    1    2    0    0 -0.11561508887E+03 -0.71418819328E+03 -0.57958903410E+02  0.73146562436E+03  0.90835570919E+02 0.  0.
        254    2    1    2    0    0  0.11561508887E+03  0.71418819328E+03 -0.82985201661E+03  0.14192796685E+04  0.89569458170E+03 0.  0.
        -24    2    4    4    0    0 -0.84287622064E+02  0.65430358192E+03 -0.95475282249E+03  0.11633701294E+04  0.81605915377E+02 0.  0.
         24    2    4    4    0    0  0.19990271093E+03  0.59884611361E+02  0.12490080588E+03  0.25590953906E+03  0.79638058474E+02 0.  0.
         11    1    3    3    0    0 -0.76603173979E+02 -0.36850902726E+03 -0.72424859757E+02  0.38329141622E+03  0.00000000000E+00 0. -1.
        -11    1    3    3    0    0 -0.39011914890E+02 -0.34567916602E+03  0.14465956347E+02  0.34817420814E+03  0.00000000000E+00 0.  1.
          2    1    6    6  502    0 -0.39417336163E+01  0.12455336758E+02  0.20392283347E+01  0.13222372324E+02  0.00000000000E+00 0. -1.
          1    1    5    5  503    0  0.48305544082E+01  0.23481531935E+03 -0.30742398438E+03  0.38687346075E+03  0.00000000000E+00 0. -1.
         -2    1    5    5    0  503 -0.89118176472E+02  0.41948826257E+03 -0.64732883810E+03  0.77649666867E+03  0.00000000000E+00 0.  1.
         -1    1    6    6    0  502  0.20384444455E+03  0.47429274603E+02  0.12286157754E+03  0.24268716674E+03  0.00000000000E+00 0.  1.
<mgrwt>
<rscale>  0 0.19589531E+04</rscale>
<asrwt>0</asrwt>
<pdfrwt beam="1">  1        1 0.97148798E-01 0.19589531E+04</pdfrwt>
<pdfrwt beam="2">  1       -1 0.23373509E+00 0.19589531E+04</pdfrwt>
<totfact> 0.26381639E+00</totfact>
</mgrwt>
</event>
<event>
12    1  0.1755460E-007  0.1619291E+04  0.7818608E-02  0.8808784E-01
         -2   -1    0    0    0  501 -0.00000000000E+00  0.00000000000E+00  0.11196835463E+04  0.11196835463E+04  0.00000000000E+00 0. -1.
          2   -1    0    0  501    0  0.00000000000E+00 -0.00000000000E+00 -0.58545624940E+03  0.58545624940E+03  0.00000000000E+00 0.  1.
         23    2    1    2    0    0  0.70788765065E+02 -0.54520124682E+03  0.24818858683E+03  0.60972980576E+03  0.88979843832E+02 0.  0.
        254    2    1    2    0    0 -0.70788765065E+02  0.54520124682E+03  0.28603871002E+03  0.10954099899E+04  0.90324385054E+03 0.  0.
        -24    2    4    4    0    0 -0.37991324205E+03  0.24992727184E+03 -0.14410241522E+03  0.48366824766E+03  0.79823273728E+02 0.  0.
         24    2    4    4    0    0  0.30912447699E+03  0.29527397497E+03  0.43014112524E+03  0.61174174223E+03  0.80385999983E+02 0.  0.
         11    1    3    3    0    0  0.10560961919E+02 -0.10323949904E+03  0.10506238044E+02  0.10430872024E+03  0.00000000000E+00 0. -1.
        -11    1    3    3    0    0  0.60227803146E+02 -0.44196174777E+03  0.23768234879E+03  0.50542108552E+03  0.00000000000E+00 0.  1.
          4    1    6    6  502    0  0.27107878132E+03  0.25267104205E+03  0.40610986076E+03  0.54977411742E+03  0.00000000000E+00 0. -1.
          1    1    5    5  503    0 -0.24358063929E+03  0.13652103652E+03 -0.12286642178E+03  0.30506667935E+03  0.00000000000E+00 0. -1.
         -2    1    5    5    0  503 -0.13633260277E+03  0.11340623532E+03 -0.21235993434E+02  0.17860156831E+03  0.00000000000E+00 0.  1.
         -3    1    6    6    0  502  0.38045695663E+02  0.42602932927E+02  0.24031264478E+02  0.61967624812E+02  0.00000000000E+00 0.  1.
<mgrwt>
<rscale>  0 0.16192909E+04</rscale>
<asrwt>0</asrwt>
<pdfrwt beam="1">  1        2 0.90070193E-01 0.16192909E+04</pdfrwt>
<pdfrwt beam="2">  1       -2 0.17225901E+00 0.16192909E+04</pdfrwt>
<totfact> 0.10039200E+01</totfact>
</mgrwt>
</event>
<event>
12    1  0.1755460E-007  0.1819130E+04  0.7818608E-02  0.8696192E-01
          1   -1    0    0  501    0  0.00000000000E+00  0.00000000000E+00  0.19559066231E+04  0.19559066231E+04  0.00000000000E+00 0. -1.
         -1   -1    0    0    0  501 -0.00000000000E+00 -0.00000000000E+00 -0.42297940704E+03  0.42297940704E+03  0.00000000000E+00 0.  1.
         23    2    1    2    0    0 -0.66573226276E+03  0.62008093395E+02  0.74678378993E+03  0.10066800072E+04  0.93135162942E+02 0.  0.
        254    2    1    2    0    0  0.66573226276E+03 -0.62008093395E+02  0.78614342611E+03  0.13722060230E+04  0.90436908047E+03 0.  0.
        -24    2    4    4    0    0  0.43422233960E+03 -0.19273551597E+03 -0.56278210512E+02  0.48501953298E+03  0.79879228015E+02 0.  0.
         24    2    4    4    0    0  0.23150992316E+03  0.13072742257E+03  0.84242163662E+03  0.88718648998E+03  0.82092329878E+02 0.  0.
         13    1    3    3    0    0 -0.32168053771E+03  0.28217800042E+02  0.43026084292E+03  0.53795818195E+03  0.00000000000E+00 0.  1.
        -13    1    3    3    0    0 -0.34405172506E+03  0.33790293353E+02  0.31652294701E+03  0.46872182520E+03  0.00000000000E+00 0. -1.
          4    1    6    6  502    0  0.30793891847E+02  0.53926473196E+02  0.15586634849E+03  0.16778154510E+03  0.00000000000E+00 0. -1.
          1    1    5    5  503    0  0.12598213279E+03 -0.29756332251E+02  0.10992554696E+02  0.12991448475E+03  0.00000000000E+00 0. -1.
         -2    1    5    5    0  503  0.30824020682E+03 -0.16297918372E+03 -0.67270765208E+02  0.35510504823E+03  0.00000000000E+00 0.  1.
         -3    1    6    6    0  502  0.20071603132E+03  0.76800949377E+02  0.68655528813E+03  0.71940494488E+03  0.00000000000E+00 0.  1.
<mgrwt>
<rscale>  0 0.18191297E+04</rscale>
<asrwt>0</asrwt>
<pdfrwt beam="1">  1        1 0.30090871E+00 0.18191297E+04</pdfrwt>
<pdfrwt beam="2">  1       -1 0.65073756E-01 0.18191297E+04</pdfrwt>
<totfact> 0.72012486E+00</totfact>
</mgrwt>
</event>
<event>
12    1  0.1755460E-007  0.2790162E+04  0.7818608E-02  0.8306329E-01
          2   -1    0    0  501    0  0.00000000000E+00  0.00000000000E+00  0.18234960759E+04  0.18234960759E+04  0.00000000000E+00 0. -1.
         -2   -1    0    0    0  501 -0.00000000000E+00 -0.00000000000E+00 -0.10673187017E+04  0.10673187017E+04  0.00000000000E+00 0.  1.
         23    2    1    2    0    0 -0.61415733410E+03  0.89046180773E+03 -0.29883023412E+03  0.11268012919E+04  0.10134189981E+03 0.  0.
        254    2    1    2    0    0  0.61415733410E+03 -0.89046180773E+03  0.10550076083E+04  0.17640134857E+04  0.91026977441E+03 0.  0.
        -24    2    4    4    0    0 -0.21765187289E+03 -0.27061100712E+03  0.15240888827E+03  0.38661484590E+03  0.75099366867E+02 0.  0.
         24    2    4    4    0    0  0.83180920699E+03 -0.61985080061E+03  0.90259872003E+03  0.13773986398E+04  0.80131090910E+02 0.  0.
         11    1    3    3    0    0 -0.27341728055E+03  0.32627419079E+03 -0.86914432476E+02  0.43447206521E+03  0.00000000000E+00 0. -1.
        -11    1    3    3    0    0 -0.34074005355E+03  0.56418761695E+03 -0.21191580164E+03  0.69232922674E+03  0.00000000000E+00 0.  1.
          4    1    6    6  502    0  0.74501750267E+03 -0.55022426938E+03  0.77119182576E+03  0.12052114578E+04  0.00000000000E+00 0. -1.
          1    1    5    5  503    0 -0.18866782641E+03 -0.18232576940E+03  0.11100313593E+03  0.28488582116E+03  0.00000000000E+00 0. -1.
         -2    1    5    5    0  503 -0.28984046480E+02 -0.88285237719E+02  0.41405752335E+02  0.10172902475E+03  0.00000000000E+00 0.  1.
         -3    1    6    6    0  502  0.86791704323E+02 -0.69626531230E+02  0.13140689427E+03  0.17218718202E+03  0.00000000000E+00 0.  1.
<mgrwt>
<rscale>  0 0.27901623E+04</rscale>
<asrwt>0</asrwt>
<pdfrwt beam="1">  1        2 0.28053786E+00 0.27901623E+04</pdfrwt>
<pdfrwt beam="2">  1       -2 0.16420288E+00 0.27901623E+04</pdfrwt>
<totfact> 0.17111548E+00</totfact>
</mgrwt>
</event>
<event>
12    1  0.1755460E-007  0.1416376E+04  0.7818608E-02  0.8942049E-01
          2   -1    0    0  501    0  0.00000000000E+00  0.00000000000E+00  0.29019679183E+04  0.29019679183E+04  0.00000000000E+00 0. -1.
         -2   -1    0    0    0  501 -0.00000000000E+00 -0.00000000000E+00 -0.17282422242E+03  0.17282422242E+03  0.00000000000E+00 0.  1.
         23    2    1    2    0    0  0.38256040802E+02  0.17681346793E+03 -0.66047604528E-01  0.20258063976E+03  0.91172277290E+02 0.  0.
        254    2    1    2    0    0 -0.38256040802E+02 -0.17681346793E+03  0.27292097435E+04  0.28722115010E+04  0.87651956922E+03 0.  0.
        -24    2    4    4    0    0  0.10904960186E+03 -0.20104801887E+03  0.26867628669E+04  0.26976666780E+04  0.79991758279E+02 0.  0.
         24    2    4    4    0    0 -0.14730564267E+03  0.24234550946E+02  0.42446876592E+02  0.17454482291E+03  0.79861705794E+02 0.  0.
         13    1    3    3    0    0 -0.27328635136E+01  0.66210001254E+02  0.40715694197E+02  0.77775321040E+02  0.00000000000E+00 0. -1.
        -13    1    3    3    0    0  0.40988904315E+02  0.11060346667E+03 -0.40781741801E+02  0.12480531872E+03  0.00000000000E+00 0.  1.
          4    1    6    6  502    0 -0.12803069083E+03  0.41925578408E+02  0.13295925323E+02  0.13537501080E+03  0.00000000000E+00 0. -1.
          1    1    5    5  503    0  0.10910328445E+03 -0.17408830183E+03  0.20345995896E+04  0.20449463938E+04  0.00000000000E+00 0. -1.
         -2    1    5    5    0  503 -0.53682582230E-01 -0.26959717043E+02  0.65216327723E+03  0.65272028419E+03  0.00000000000E+00 0.  1.
         -3    1    6    6    0  502 -0.19274951835E+02 -0.17691027462E+02  0.29150951269E+02  0.39169812110E+02  0.00000000000E+00 0.  1.
<mgrwt>
<rscale>  0 0.14163761E+04</rscale>
<asrwt>0</asrwt>
<pdfrwt beam="1">  1        2 0.44645657E+00 0.14163761E+04</pdfrwt>
<pdfrwt beam="2">  1       -2 0.26588344E-01 0.14163761E+04</pdfrwt>
<totfact> 0.25162548E+01</totfact>
</mgrwt>
</event>
<event>
12    1  0.1755460E-007  0.1667795E+04  0.7818608E-02  0.8779948E-01
         -1   -1    0    0    0  501 -0.00000000000E+00  0.00000000000E+00  0.11710422379E+04  0.11710422379E+04  0.00000000000E+00 0.  1.
          1   -1    0    0  501    0  0.00000000000E+00 -0.00000000000E+00 -0.59381737564E+03  0.59381737564E+03  0.00000000000E+00 0. -1.
         23    2    1    2    0    0  0.39956131863E+03 -0.32194286684E+03 -0.99889355396E+02  0.53000405097E+03  0.87349607179E+02 0.  0.
        254    2    1    2    0    0 -0.39956131863E+03  0.32194286684E+03  0.67711421768E+03  0.12348555626E+04  0.89615185087E+03 0.  0.
        -24    2    4    4    0    0 -0.44257176158E+03  0.45442993747E+03  0.80617123988E+03  0.10289311249E+04  0.80067844119E+02 0.  0.
         24    2    4    4    0    0  0.43010442951E+02 -0.13248707063E+03 -0.12905702219E+03  0.20592443764E+03  0.79664527560E+02 0.  0.
         13    1    3    3    0    0  0.70893316332E+02 -0.64678330942E+02 -0.53980973882E+02  0.11010492421E+03  0.00000000000E+00 0.  1.
        -13    1    3    3    0    0  0.32866800230E+03 -0.25726453589E+03 -0.45908381514E+02  0.41989912676E+03  0.00000000000E+00 0. -1.
          2    1    6    6  502    0  0.49219160276E+02 -0.85774339892E+02 -0.43055891705E+02  0.10785904196E+03  0.00000000000E+00 0. -1.
          1    1    5    5  503    0 -0.39536611552E+03  0.41572153240E+03  0.68710173961E+03  0.89512432565E+03  0.00000000000E+00 0. -1.
         -2    1    5    5    0  503 -0.47205646056E+02  0.38708405071E+02  0.11906950027E+03  0.13380679929E+03  0.00000000000E+00 0.  1.
         -1    1    6    6    0  502 -0.62087173249E+01 -0.46712730742E+02 -0.86001130489E+02  0.98065395679E+02  0.00000000000E+00 0.  1.
<mgrwt>
<rscale>  0 0.16677952E+04</rscale>
<asrwt>0</asrwt>
<pdfrwt beam="1">  1        1 0.91356519E-01 0.16677952E+04</pdfrwt>
<pdfrwt beam="2">  1       -1 0.18016034E+00 0.16677952E+04</pdfrwt>
<totfact> 0.68842843E+00</totfact>
</mgrwt>
</event>
<event>
12    1  0.1755460E-007  0.1381914E+04  0.7818608E-02  0.8967015E-01
         -2   -1    0    0    0  501 -0.00000000000E+00  0.00000000000E+00  0.42734552930E+03  0.42734552930E+03  0.00000000000E+00 0.  1.
          2   -1    0    0  501    0  0.00000000000E+00 -0.00000000000E+00 -0.11171800202E+04  0.11171800202E+04  0.00000000000E+00 0. -1.
         23    2    1    2    0    0 -0.17715624392E+03  0.23935875605E+03  0.68836653546E+02  0.31905437477E+03  0.91543761846E+02 0.  0.
        254    2    1    2    0    0  0.17715624392E+03 -0.23935875605E+03 -0.75867114444E+03  0.12254711747E+04  0.91516159547E+03 0.  0.
        -24    2    4    4    0    0 -0.26587474366E+03  0.19279603618E+03 -0.24639593422E+03  0.41822108058E+03  0.79612969791E+02 0.  0.
         24    2    4    4    0    0  0.44303098758E+03 -0.43215479224E+03 -0.51227521023E+03  0.80725009415E+03  0.78693094240E+02 0.  0.
         11    1    3    3    0    0 -0.10774654830E+03  0.74791305705E+02  0.46005837162E+02  0.13899494643E+03  0.00000000000E+00 0.  1.
        -11    1    3    3    0    0 -0.69409695620E+02  0.16456745035E+03  0.22830816384E+02  0.18005942835E+03  0.00000000000E+00 0. -1.
          4    1    6    6  502    0  0.26119691205E+02 -0.55070245561E+02 -0.62675542889E+02  0.87425361830E+02  0.00000000000E+00 0. -1.
          1    1    5    5  503    0 -0.21594411381E+02  0.24337723023E+02 -0.19645635424E-01  0.32536806094E+02  0.00000000000E+00 0. -1.
         -2    1    5    5    0  503 -0.24428033228E+03  0.16845831316E+03 -0.24637628858E+03  0.38568427449E+03  0.00000000000E+00 0.  1.
         -3    1    6    6    0  502  0.41691129638E+03 -0.37708454668E+03 -0.44959966734E+03  0.71982473232E+03  0.00000000000E+00 0.  1.
<mgrwt>
<rscale>  0 0.13819145E+04</rscale>
<asrwt>0</asrwt>
<pdfrwt beam="1">  1        2 0.17187385E+00 0.13819145E+04</pdfrwt>
<pdfrwt beam="2">  1       -2 0.65745467E-01 0.13819145E+04</pdfrwt>
<totfact> 0.44143605E+01</totfact>
</mgrwt>
</event>
<event>
12    1  0.1755460E-007  0.1166570E+04  0.7818608E-02  0.9142632E-01
          1   -1    0    0  501    0  0.00000000000E+00  0.00000000000E+00  0.72257098163E+03  0.72257098163E+03  0.00000000000E+00 0. -1.
         -1   -1    0    0    0  501 -0.00000000000E+00 -0.00000000000E+00 -0.47084805112E+03  0.47084805112E+03  0.00000000000E+00 0.  1.
         23    2    1    2    0    0  0.13872410537E+03  0.17182193307E+03  0.62296640891E+02  0.24727736128E+03  0.92184965394E+02 0.  0.
        254    2    1    2    0    0 -0.13872410537E+03 -0.17182193307E+03  0.18942628962E+03  0.94614167146E+03  0.90029694500E+03 0.  0.
        -24    2    4    4    0    0  0.10778293517E+03 -0.48494611237E+03  0.19437625180E+03  0.53952020068E+03  0.80684736270E+02 0.  0.
         24    2    4    4    0    0 -0.24650704053E+03  0.31312417930E+03 -0.49499621836E+01  0.40662147078E+03  0.80647663808E+02 0.  0.
         11    1    3    3    0    0  0.87978343986E+02  0.42439615670E+02  0.77794953495E+01  0.97988930684E+02  0.00000000000E+00 0.  1.
        -11    1    3    3    0    0  0.50745761381E+02  0.12938231740E+03  0.54517145542E+02  0.14928843060E+03  0.00000000000E+00 0. -1.
          4    1    6    6  502    0 -0.20511967856E+03  0.22531898409E+03 -0.30559491638E+02  0.30622966814E+03  0.00000000000E+00 0. -1.
          1    1    5    5  503    0  0.11548842509E+03 -0.37724696877E+03  0.16482633629E+03  0.42757522486E+03  0.00000000000E+00 0. -1.
         -2    1    5    5    0  503 -0.77054899205E+01 -0.10769914359E+03  0.29549915517E+02  0.11194497583E+03  0.00000000000E+00 0.  1.
         -3    1    6    6    0  502 -0.41387361977E+02  0.87805195212E+02  0.25609529454E+02  0.10039180264E+03  0.00000000000E+00 0.  1.
<mgrwt>
<rscale>  0 0.11665696E+04</rscale>
<asrwt>0</asrwt>
<pdfrwt beam="1">  1        1 0.11116477E+00 0.11665696E+04</pdfrwt>
<pdfrwt beam="2">  1       -1 0.72438161E-01 0.11665696E+04</pdfrwt>
<totfact> 0.49507876E+01</totfact>
</mgrwt>
</event>
<event>
12    1  0.1755460E-007  0.1387413E+04  0.7818608E-02  0.8962980E-01
         -2   -1    0    0    0  501 -0.00000000000E+00  0.00000000000E+00  0.35854515728E+03  0.35854515728E+03  0.00000000000E+00 0.  1.
          2   -1    0    0  501    0  0.00000000000E+00 -0.00000000000E+00 -0.13421702370E+04  0.13421702370E+04  0.00000000000E+00 0. -1.
         23    2    1    2    0    0  0.28002443712E+03 -0.27995965133E+03 -0.26276094079E+03  0.48282284586E+03  0.85343404666E+02 0.  0.
        254    2    1    2    0    0 -0.28002443712E+03  0.27995965133E+03 -0.72086413893E+03  0.12178925484E+04  0.89823496978E+03 0.  0.
        -24    2    4    4    0    0 -0.55917029371E+03  0.27757138631E+03 -0.67638436253E+03  0.92386987673E+03  0.79513844120E+02 0.  0.
         24    2    4    4    0    0  0.27914585659E+03  0.23882650271E+01 -0.44479776407E+02  0.29402267169E+03  0.80887377871E+02 0.  0.
         13    1    3    3    0    0  0.10958349428E+03 -0.73122129532E+02 -0.12443779377E+03  0.18121852159E+03  0.00000000000E+00 0. -1.
        -13    1    3    3    0    0  0.17044094284E+03 -0.20683752180E+03 -0.13832314702E+03  0.30160432427E+03  0.00000000000E+00 0.  1.
          4    1    6    6  502    0  0.94422802915E+02 -0.34968233890E+02 -0.14019741587E+01  0.10069959594E+03  0.00000000000E+00 0. -1.
          3    1    5    5  503    0 -0.46080528032E+03  0.23844340716E+03 -0.51637074463E+03  0.73200786246E+03  0.00000000000E+00 0. -1.
         -4    1    5    5    0  503 -0.98365013386E+02  0.39127979151E+02 -0.16001361789E+03  0.19186201428E+03  0.00000000000E+00 0.  1.
         -3    1    6    6    0  502  0.18472305367E+03  0.37356498917E+02 -0.43077802248E+02  0.19332307574E+03  0.00000000000E+00 0.  1.
<mgrwt>
<rscale>  0 0.13874129E+04</rscale>
<asrwt>0</asrwt>
<pdfrwt beam="1">  1        2 0.20648773E+00 0.13874129E+04</pdfrwt>
<pdfrwt beam="2">  1       -2 0.55160792E-01 0.13874129E+04</pdfrwt>
<totfact> 0.47026915E+01</totfact>
</mgrwt>
</event>
<event>
12    1  0.1755460E-007  0.2767232E+04  0.7818608E-02  0.8313514E-01
          1   -1    0    0  501    0  0.00000000000E+00  0.00000000000E+00  0.21634177546E+04  0.21634177546E+04  0.00000000000E+00 0. -1.
         -1   -1    0    0    0  501 -0.00000000000E+00 -0.00000000000E+00 -0.88489331947E+03  0.88489331947E+03  0.00000000000E+00 0.  1.
         23    2    1    2    0    0 -0.29584571259E+02  0.12328140804E+04  0.48233702781E+03  0.13273284524E+04  0.91902168104E+02 0.  0.
        254    2    1    2    0    0  0.29584571259E+02 -0.12328140804E+04  0.79618740730E+03  0.17209826216E+04  0.89842138930E+03 0.  0.
        -24    2    4    4    0    0 -0.29635115400E+03 -0.28442299996E+03  0.53876477635E+03  0.68220991278E+03  0.80140074102E+02 0.  0.
         24    2    4    4    0    0  0.32593572526E+03 -0.94839108044E+03  0.25742263095E+03  0.10387727089E+04  0.84276872743E+02 0.  0.
         13    1    3    3    0    0 -0.99669682826E+01  0.43082871335E+03  0.12191322059E+03  0.44785662221E+03  0.00000000000E+00 0. -1.
        -13    1    3    3    0    0 -0.19617602976E+02  0.80198536705E+03  0.36042380722E+03  0.87947183020E+03  0.00000000000E+00 0.  1.
          4    1    6    6  502    0  0.86436652949E+02 -0.17999609541E+03  0.76548871141E+02  0.21384484798E+03  0.00000000000E+00 0. -1.
          3    1    5    5  503    0 -0.18141017471E+02 -0.32472887542E+02  0.88638327643E+02  0.96126677190E+02  0.00000000000E+00 0. -1.
         -4    1    5    5    0  503 -0.27821013653E+03 -0.25195011241E+03  0.45012644871E+03  0.58608323559E+03  0.00000000000E+00 0.  1.
         -3    1    6    6    0  502  0.23949907231E+03 -0.76839498503E+03  0.18087375981E+03  0.82492786087E+03  0.00000000000E+00 0.  1.
<mgrwt>
<rscale>  0 0.27672325E+04</rscale>
<asrwt>0</asrwt>
<pdfrwt beam="1">  1        1 0.33283350E+00 0.27672325E+04</pdfrwt>
<pdfrwt beam="2">  1       -1 0.13613743E+00 0.27672325E+04</pdfrwt>
<totfact> 0.90282553E-01</totfact>
</mgrwt>
</event>
<event>
12    1  0.1755460E-007  0.2283778E+04  0.7818608E-02  0.8484345E-01
         -2   -1    0    0    0  501 -0.00000000000E+00  0.00000000000E+00  0.45417696327E+03  0.45417696327E+03  0.00000000000E+00 0.  1.
          2   -1    0    0  501    0  0.00000000000E+00 -0.00000000000E+00 -0.28709312908E+04  0.28709312908E+04  0.00000000000E+00 0. -1.
         23    2    1    2    0    0  0.90411356915E+03 -0.20503846138E+03 -0.13978923221E+04  0.16799660570E+04  0.93385715071E+02 0.  0.
        254    2    1    2    0    0 -0.90411356915E+03  0.20503846138E+03 -0.10188620054E+04  0.16451421971E+04  0.89941700343E+03 0.  0.
        -24    2    4    4    0    0 -0.58937678124E+03  0.45508658552E+03 -0.27831964851E+03  0.79883500934E+03  0.78782960182E+02 0.  0.
         24    2    4    4    0    0 -0.31473678791E+03 -0.25004812414E+03 -0.74054235693E+03  0.84630718778E+03  0.79054181597E+02 0.  0.
         13    1    3    3    0    0  0.13868078295E+02 -0.11626200259E+02 -0.12947490173E+02  0.22251508485E+02  0.00000000000E+00 0.  1.
        -13    1    3    3    0    0  0.89024549085E+03 -0.19341226112E+03 -0.13849448319E+04  0.16577145485E+04  0.00000000000E+00 0. -1.
          2    1    6    6  502    0 -0.97304933537E+02 -0.10522497698E+03 -0.32879992539E+03  0.35867804060E+03  0.00000000000E+00 0. -1.
          1    1    5    5  503    0 -0.57025762943E+03  0.44173571082E+03 -0.28332936506E+03  0.77498369741E+03  0.00000000000E+00 0. -1.
         -2    1    5    5    0  503 -0.19119151808E+02  0.13350874702E+02  0.50097165484E+01  0.23851311936E+02  0.00000000000E+00 0.  1.
         -1    1    6    6    0  502 -0.21743185437E+03 -0.14482314716E+03 -0.41174243155E+03  0.48762914719E+03  0.00000000000E+00 0.  1.
<mgrwt>
<rscale>  0 0.22837783E+04</rscale>
<asrwt>0</asrwt>
<pdfrwt beam="1">  1        2 0.44168173E+00 0.22837783E+04</pdfrwt>
<pdfrwt beam="2">  1       -2 0.69873379E-01 0.22837783E+04</pdfrwt>
<totfact> 0.35487117E+00</totfact>
</mgrwt>
</event>
<event>
12    1  0.1755460E-007  0.2154935E+04  0.7818608E-02  0.8537423E-01
          2   -1    0    0  501    0  0.00000000000E+00  0.00000000000E+00  0.70928240081E+03  0.70928240081E+03  0.00000000000E+00 0. -1.
         -2   -1    0    0    0  501 -0.00000000000E+00 -0.00000000000E+00 -0.16367757095E+04  0.16367757095E+04  0.00000000000E+00 0.  1.
         23    2    1    2    0    0 -0.80566738142E+03  0.34815961873E+03 -0.25727263610E+03  0.91934305088E+03  0.93206149540E+02 0.  0.
        254    2    1    2    0    0  0.80566738142E+03 -0.34815961873E+03 -0.67022067263E+03  0.14267150595E+04  0.90332998474E+03 0.  0.
        -24    2    4    4    0    0  0.75178818100E+03  0.13267979238E+03 -0.37530388134E+03  0.85438345358E+03  0.79553038995E+02 0.  0.
         24    2    4    4    0    0  0.53879200425E+02 -0.48083941111E+03 -0.29491679130E+03  0.57233160590E+03  0.80486308207E+02 0.  0.
         11    1    3    3    0    0 -0.23625036337E+03  0.71710456451E+02 -0.39994168692E+02  0.25011228935E+03  0.00000000000E+00 0. -1.
        -11    1    3    3    0    0 -0.56941701806E+03  0.27644916228E+03 -0.21727846741E+03  0.66923076153E+03  0.00000000000E+00 0.  1.
          2    1    6    6  502    0  0.52576613519E+02 -0.47019611906E+03 -0.26892392780E+03  0.54421390061E+03  0.00000000000E+00 0. -1.
          3    1    5    5  503    0  0.56378567600E+03  0.13093253119E+03 -0.29923952466E+03  0.65156880627E+03  0.00000000000E+00 0. -1.
         -4    1    5    5    0  503  0.18800250499E+03  0.17472611920E+01 -0.76064356673E+02  0.20281464730E+03  0.00000000000E+00 0.  1.
         -1    1    6    6    0  502  0.13025869066E+01 -0.10643292048E+02 -0.25992863495E+02  0.28117705293E+02  0.00000000000E+00 0.  1.
<mgrwt>
<rscale>  0 0.21549350E+04</rscale>
<asrwt>0</asrwt>
<pdfrwt beam="1">  1        2 0.10912037E+00 0.21549350E+04</pdfrwt>
<pdfrwt beam="2">  1       -2 0.25181164E+00 0.21549350E+04</pdfrwt>
<totfact> 0.23148420E+00</totfact>
</mgrwt>
</event>
<event>
12    1  0.1755460E-007  0.1160758E+04  0.7818608E-02  0.9147916E-01
         -2   -1    0    0    0  501 -0.00000000000E+00  0.00000000000E+00  0.57498009209E+03  0.57498009209E+03  0.00000000000E+00 0.  1.
          2   -1    0    0  501    0  0.00000000000E+00 -0.00000000000E+00 -0.58582857204E+03  0.58582857204E+03  0.00000000000E+00 0. -1.
         23    2    1    2    0    0 -0.16502925233E+03  0.12566740284E+03 -0.41341659672E+02  0.23005324052E+03  0.90489835834E+02 0.  0.
        254    2    1    2    0    0  0.16502925233E+03 -0.12566740284E+03  0.30493179727E+02  0.93075542361E+03  0.90683453524E+03 0.  0.
        -24    2    4    4    0    0  0.41404682120E+03  0.19369033113E+03 -0.13913834858E+03  0.48457279822E+03  0.80626312152E+02 0.  0.
         24    2    4    4    0    0 -0.24901756886E+03 -0.31935773397E+03  0.16963152831E+03  0.44618262539E+03  0.79403828321E+02 0.  0.
         11    1    3    3    0    0 -0.19348324733E+02  0.33276558132E+02 -0.42767888535E+02  0.57539371571E+02  0.00000000000E+00 0.  1.
        -11    1    3    3    0    0 -0.14568092760E+03  0.92390844703E+02  0.14262288635E+01  0.17251386895E+03  0.00000000000E+00 0. -1.
          2    1    6    6  502    0 -0.23086773187E+02 -0.76761399701E+02  0.20894752374E+02  0.82836599744E+02  0.00000000000E+00 0. -1.
          1    1    5    5  503    0  0.16686175110E+03  0.10715967016E+03 -0.28812577763E+02  0.20039012832E+03  0.00000000000E+00 0. -1.
         -2    1    5    5    0  503  0.24718507009E+03  0.86530660971E+02 -0.11032577082E+03  0.28418266990E+03  0.00000000000E+00 0.  1.
         -1    1    6    6    0  502 -0.22593079568E+03 -0.24259633427E+03  0.14873677594E+03  0.36334602564E+03  0.00000000000E+00 0.  1.
<mgrwt>
<rscale>  0 0.11607580E+04</rscale>
<asrwt>0</asrwt>
<pdfrwt beam="1">  1        2 0.90127473E-01 0.11607580E+04</pdfrwt>
<pdfrwt beam="2">  1       -2 0.88458475E-01 0.11607580E+04</pdfrwt>
<totfact> 0.55562320E+01</totfact>
</mgrwt>
</event>
<event>
12    1  0.1755460E-007  0.3091758E+04  0.7818608E-02  0.8218003E-01
          1   -1    0    0  501    0  0.00000000000E+00  0.00000000000E+00  0.18985003501E+04  0.18985003501E+04  0.00000000000E+00 0. -1.
         -1   -1    0    0    0  501 -0.00000000000E+00 -0.00000000000E+00 -0.12587526087E+04  0.12587526087E+04  0.00000000000E+00 0.  1.
         23    2    1    2    0    0 -0.25019212069E+03 -0.96368719823E+03  0.13156171418E+04  0.16523451160E+04  0.90037798117E+02 0.  0.
        254    2    1    2    0    0  0.25019212069E+03  0.96368719823E+03 -0.67586940038E+03  0.15049078428E+04  0.90369190307E+03 0.  0.
        -24    2    4    4    0    0  0.24795093528E+03  0.74658909491E+03 -0.13593967890E+01  0.79067177109E+03  0.79278362090E+02 0.  0.
         24    2    4    4    0    0  0.22411854050E+01  0.21709810332E+03 -0.67451000360E+03  0.71423607171E+03  0.89625954990E+02 0.  0.
         13    1    3    3    0    0 -0.21810975086E+03 -0.69722236406E+03  0.99036957651E+03  0.12306594925E+04  0.00000000000E+00 0. -1.
        -13    1    3    3    0    0 -0.32082369829E+02 -0.26646483417E+03  0.32524756530E+03  0.42168562347E+03  0.00000000000E+00 0.  1.
          2    1    6    6  502    0 -0.23725488794E+02  0.93834348874E+01 -0.69436733604E+02  0.73975723332E+02  0.00000000000E+00 0. -1.
          3    1    5    5  503    0  0.11070605107E+03  0.31864005279E+03 -0.39548129062E+02  0.33963416715E+03  0.00000000000E+00 0. -1.
         -4    1    5    5    0  503  0.13724488421E+03  0.42794904212E+03  0.38188732273E+02  0.45103760394E+03  0.00000000000E+00 0.  1.
         -1    1    6    6    0  502  0.25966674199E+02  0.20771466843E+03 -0.60507326999E+03  0.64026034838E+03  0.00000000000E+00 0.  1.
<mgrwt>
<rscale>  0 0.30917582E+04</rscale>
<asrwt>0</asrwt>
<pdfrwt beam="1">  1        1 0.29207698E+00 0.30917582E+04</pdfrwt>
<pdfrwt beam="2">  1       -1 0.19365425E+00 0.30917582E+04</pdfrwt>
<totfact> 0.49126238E-01</totfact>
</mgrwt>
</event>
<event>
12    1  0.1878019E-007  0.2068527E+04  0.7818608E-02  0.8575236E-01
          1   -1    0    0  501    0  0.00000000000E+00  0.00000000000E+00  0.71312548954E+03  0.71312548954E+03  0.00000000000E+00 0. -1.
         -1   -1    0    0    0  501 -0.00000000000E+00 -0.00000000000E+00 -0.15000180900E+04  0.15000180900E+04  0.00000000000E+00 0.  1.
         23    2    1    2    0    0 -0.27171048911E+03  0.27785134899E+02 -0.11770392815E+04  0.12116520983E+04  0.89892900110E+02 0.  0.
        254    2    1    2    0    0  0.27171048911E+03 -0.27785134899E+02  0.39014668101E+03  0.10014914813E+04  0.88100632844E+03 0.  0.
        -24    2    4    4    0    0  0.14090511648E+03  0.99710201986E+02 -0.25929619580E+03  0.32154264519E+03  0.79741954382E+02 0.  0.
         24    2    4    4    0    0  0.13080537263E+03 -0.12749533688E+03  0.64944287681E+03  0.67994883608E+03  0.84789521790E+02 0.  0.
         11    1    3    3    0    0 -0.24226378322E+03  0.91100621410E+01 -0.11090962549E+04  0.11352837692E+04  0.00000000000E+00 0.  1.
        -11    1    3    3    0    0 -0.29446705886E+02  0.18675072758E+02 -0.67943026571E+02  0.76368329101E+02  0.00000000000E+00 0. -1.
          4    1    6    6  502    0  0.33879839342E+02 -0.35431364911E+01  0.52242525064E+02  0.62367289143E+02  0.00000000000E+00 0. -1.
          1    1    5    5  503    0  0.30539875035E+02  0.11761429532E+02 -0.85712855807E+01  0.33830195511E+02  0.00000000000E+00 0. -1.
         -2    1    5    5    0  503  0.11036524145E+03  0.87948772454E+02 -0.25072491022E+03  0.28771244968E+03  0.00000000000E+00 0.  1.
         -3    1    6    6    0  502  0.96925533284E+02 -0.12395220039E+03  0.59720035175E+03  0.61758154694E+03  0.00000000000E+00 0.  1.
<mgrwt>
<rscale>  0 0.20685271E+04</rscale>
<asrwt>0</asrwt>
<pdfrwt beam="1">  1        1 0.10971161E+00 0.20685271E+04</pdfrwt>
<pdfrwt beam="2">  1       -1 0.23077201E+00 0.20685271E+04</pdfrwt>
<totfact> 0.22778486E+00</totfact>
</mgrwt>
</event>
<event>
12    1  0.1755460E-007  0.1730511E+04  0.7818608E-02  0.8744151E-01
         -2   -1    0    0    0  501 -0.00000000000E+00  0.00000000000E+00  0.30476739530E+03  0.30476739530E+03  0.00000000000E+00 0.  1.
          2   -1    0    0  501    0  0.00000000000E+00 -0.00000000000E+00 -0.24565208745E+04  0.24565208745E+04  0.00000000000E+00 0. -1.
         23    2    1    2    0    0 -0.22883609751E+03  0.20685866445E+03 -0.16325026501E+04  0.16642429384E+04  0.97381665749E+02 0.  0.
        254    2    1    2    0    0  0.22883609751E+03 -0.20685866445E+03 -0.51925082908E+03  0.10970453314E+04  0.91582234579E+03 0.  0.
        -24    2    4    4    0    0  0.52149504400E+02 -0.73887332905E+02 -0.75494065449E+03  0.76450508226E+03  0.79710226653E+02 0.  0.
         24    2    4    4    0    0  0.17668659311E+03 -0.13297133155E+03  0.23568982541E+03  0.33254024913E+03  0.78318556483E+02 0.  0.
         13    1    3    3    0    0 -0.10540157536E+03  0.10134657300E+03 -0.10264572792E+04  0.10368197365E+04  0.00000000000E+00 0.  1.
        -13    1    3    3    0    0 -0.12343452215E+03  0.10551209145E+03 -0.60604537094E+03  0.62742320195E+03  0.00000000000E+00 0. -1.
          4    1    6    6  502    0  0.17595267538E+02 -0.56629303681E+01  0.62328298754E+02  0.65011376278E+02  0.00000000000E+00 0. -1.
          3    1    5    5  503    0  0.20402290682E+02 -0.73996185554E+02 -0.34980296553E+03  0.35812540211E+03  0.00000000000E+00 0. -1.
         -4    1    5    5    0  503  0.31747213718E+02  0.10885264929E+00 -0.40513768896E+03  0.40637968016E+03  0.00000000000E+00 0.  1.
         -3    1    6    6    0  502  0.15909132558E+03 -0.12730840118E+03  0.17336152666E+03  0.26752887285E+03  0.00000000000E+00 0.  1.
<mgrwt>
<rscale>  0 0.17305114E+04</rscale>
<asrwt>0</asrwt>
<pdfrwt beam="1">  1        2 0.37792628E+00 0.17305114E+04</pdfrwt>
<pdfrwt beam="2">  1       -2 0.46887292E-01 0.17305114E+04</pdfrwt>
<totfact> 0.15118226E+01</totfact>
</mgrwt>
</event>
<event>
12    1  0.1755460E-007  0.1816414E+04  0.7818608E-02  0.8697619E-01
         -2   -1    0    0    0  501 -0.00000000000E+00  0.00000000000E+00  0.82232989717E+03  0.82232989717E+03  0.00000000000E+00 0.  1.
          2   -1    0    0  501    0  0.00000000000E+00 -0.00000000000E+00 -0.10030521489E+04  0.10030521489E+04  0.00000000000E+00 0. -1.
         23    2    1    2    0    0 -0.48077984576E+03  0.23037481765E+03 -0.49690545499E+03  0.73447311536E+03  0.91180640982E+02 0.  0.
        254    2    1    2    0    0  0.48077984576E+03 -0.23037481765E+03  0.31618320330E+03  0.10909089307E+04  0.89771301666E+03 0.  0.
        -24    2    4    4    0    0 -0.31861601725E+01  0.21258437468E+03 -0.15857844292E+03  0.27714830280E+03  0.80385267367E+02 0.  0.
         24    2    4    4    0    0  0.48396600593E+03 -0.44295919232E+03  0.47476164622E+03  0.81376062788E+03  0.79823541630E+02 0.  0.
         13    1    3    3    0    0 -0.40611118833E+03  0.22170431442E+03 -0.39848885237E+03  0.61063284041E+03  0.00000000000E+00 0. -1.
        -13    1    3    3    0    0 -0.74668657431E+02  0.86705032235E+01 -0.98416602622E+02  0.12384027495E+03  0.00000000000E+00 0.  1.
          4    1    6    6  502    0  0.12467126941E+03 -0.80953647585E+02  0.80082328970E+02  0.16884785425E+03  0.00000000000E+00 0. -1.
          3    1    5    5  503    0  0.80493222596E+01  0.24831259962E+01 -0.28650024821E+02  0.29862709619E+02  0.00000000000E+00 0. -1.
         -4    1    5    5    0  503 -0.11235482432E+02  0.21010124868E+03 -0.12992841810E+03  0.24728559318E+03  0.00000000000E+00 0.  1.
         -3    1    6    6    0  502  0.35929473653E+03 -0.36200554474E+03  0.39467931725E+03  0.64491277363E+03  0.00000000000E+00 0.  1.
<mgrwt>
<rscale>  0 0.18164138E+04</rscale>
<asrwt>0</asrwt>
<pdfrwt beam="1">  1        2 0.15431571E+00 0.18164138E+04</pdfrwt>
<pdfrwt beam="2">  1       -2 0.12651229E+00 0.18164138E+04</pdfrwt>
<totfact> 0.10998170E+01</totfact>
</mgrwt>
</event>
<event>
12    1  0.1755460E-007  0.1271628E+04  0.7818608E-02  0.9052372E-01
          2   -1    0    0  501    0  0.00000000000E+00  0.00000000000E+00  0.31310724489E+04  0.31310724489E+04  0.00000000000E+00 0. -1.
         -2   -1    0    0    0  501 -0.00000000000E+00 -0.00000000000E+00 -0.12911211474E+03  0.12911211474E+03  0.00000000000E+00 0.  1.
         23    2    1    2    0    0  0.13740667451E+03  0.17549380530E+03  0.21252310936E+03  0.32102233098E+03  0.90612334048E+02 0.  0.
        254    2    1    2    0    0 -0.13740667451E+03 -0.17549380530E+03  0.27894372248E+04  0.29391622327E+04  0.89890818714E+03 0.  0.
        -24    2    4    4    0    0 -0.14613837982E+03  0.25317632806E+03  0.21139711473E+04  0.21355896101E+04  0.80089273630E+02 0.  0.
         24    2    4    4    0    0  0.87317053138E+01 -0.42867013336E+03  0.67546607751E+03  0.80357262263E+03  0.75101345256E+02 0.  0.
         13    1    3    3    0    0  0.41999611223E+02  0.12548026600E+03  0.10623262986E+03  0.16968982334E+03  0.00000000000E+00 0. -1.
        -13    1    3    3    0    0  0.95407063283E+02  0.50013539297E+02  0.10629047950E+03  0.15133250764E+03  0.00000000000E+00 0.  1.
          4    1    6    6  502    0  0.89376389656E+01 -0.21046253866E+03  0.26318001450E+03  0.33710247938E+03  0.00000000000E+00 0. -1.
          1    1    5    5  503    0 -0.65454878903E+02  0.65011463169E+02  0.87075544312E+03  0.87562884445E+03  0.00000000000E+00 0. -1.
         -2    1    5    5    0  503 -0.80683500917E+02  0.18816486490E+03  0.12432157042E+04  0.12599607656E+04  0.00000000000E+00 0.  1.
         -3    1    6    6    0  502 -0.20593365174E+00 -0.21820759470E+03  0.41228606301E+03  0.46647014325E+03  0.00000000000E+00 0.  1.
<mgrwt>
<rscale>  0 0.12716279E+04</rscale>
<asrwt>0</asrwt>
<pdfrwt beam="1">  1        2 0.48170340E+00 0.12716279E+04</pdfrwt>
<pdfrwt beam="2">  1       -2 0.19863405E-01 0.12716279E+04</pdfrwt>
<totfact> 0.30983478E+01</totfact>
</mgrwt>
</event>
<event>
12    1  0.2288140E-007  0.2783549E+04  0.7818608E-02  0.8308394E-01
         -1   -1    0    0    0  501 -0.00000000000E+00  0.00000000000E+00  0.19438923731E+04  0.19438923731E+04  0.00000000000E+00 0.  1.
          1   -1    0    0  501    0  0.00000000000E+00 -0.00000000000E+00 -0.99647296257E+03  0.99647296257E+03  0.00000000000E+00 0. -1.
         23    2    1    2    0    0  0.33769485289E+03  0.10926064596E+04 -0.95319161394E+02  0.11512593949E+04  0.92118198619E+02 0.  0.
        254    2    1    2    0    0 -0.33769485289E+03 -0.10926064596E+04  0.10427385719E+04  0.17891059407E+04  0.89764672816E+03 0.  0.
        -24    2    4    4    0    0  0.34745712804E+02 -0.63246321332E+03  0.10047043411E+04  0.11903406922E+04  0.79140189221E+02 0.  0.
         24    2    4    4    0    0 -0.37244056569E+03 -0.46014324631E+03  0.38034230744E+02  0.59876524857E+03  0.81421361337E+02 0.  0.
         13    1    3    3    0    0  0.98604499468E+01  0.11487128978E+03 -0.22416449050E+02  0.11745270911E+03  0.00000000000E+00 0.  1.
        -13    1    3    3    0    0  0.32783440294E+03  0.97773516985E+03 -0.72902712345E+02  0.10338066858E+04  0.00000000000E+00 0. -1.
          4    1    6    6  502    0 -0.39474948897E+02 -0.35951368985E+02  0.25954481063E+02  0.59366721398E+02  0.00000000000E+00 0. -1.
          3    1    5    5  503    0  0.77782410137E+00 -0.78244628532E+02  0.81220427219E+02  0.11278113629E+03  0.00000000000E+00 0. -1.
         -4    1    5    5    0  503  0.33967888703E+02 -0.55421858479E+03  0.92348391393E+03  0.10775595559E+04  0.00000000000E+00 0.  1.
         -3    1    6    6    0  502 -0.33296561680E+03 -0.42419187733E+03  0.12079749681E+02  0.53939852717E+03  0.00000000000E+00 0.  1.
<mgrwt>
<rscale>  0 0.27835490E+04</rscale>
<asrwt>0</asrwt>
<pdfrwt beam="1">  1        1 0.15330353E+00 0.27835490E+04</pdfrwt>
<pdfrwt beam="2">  1       -1 0.29906036E+00 0.27835490E+04</pdfrwt>
<totfact> 0.44211007E-01</totfact>
</mgrwt>
</event>
<event>
12    1  0.1755460E-007  0.1106746E+04  0.7818608E-02  0.9198641E-01
          1   -1    0    0  501    0  0.00000000000E+00  0.00000000000E+00  0.22915496447E+04  0.22915496447E+04  0.00000000000E+00 0. -1.
         -1   -1    0    0    0  501 -0.00000000000E+00 -0.00000000000E+00 -0.13363088394E+03  0.13363088394E+03  0.00000000000E+00 0.  1.
         23    2    1    2    0    0 -0.11021760566E+03  0.98018141458E+02  0.19711710685E+03  0.26333540998E+03  0.93460728041E+02 0.  0.
        254    2    1    2    0    0  0.11021760566E+03 -0.98018141458E+02  0.19608016539E+04  0.21618451186E+04  0.89837392797E+03 0.  0.
        -24    2    4    4    0    0 -0.34854109444E+02  0.38338085892E+03  0.99550044535E+03  0.10703803130E+04  0.80605123092E+02 0.  0.
         24    2    4    4    0    0  0.14507171510E+03 -0.48139900038E+03  0.96530120854E+03  0.10914648056E+04  0.81842523290E+02 0.  0.
         11    1    3    3    0    0  0.74846044977E+01  0.22674282438E+02  0.71656142278E+02  0.75529763105E+02  0.00000000000E+00 0. -1.
        -11    1    3    3    0    0 -0.11770221016E+03  0.75343859021E+02  0.12546096457E+03  0.18780564688E+03  0.00000000000E+00 0.  1.
          2    1    6    6  502    0  0.25353390243E+01 -0.72995642402E+02  0.97419508832E+02  0.12175940397E+03  0.00000000000E+00 0. -1.
          1    1    5    5  503    0  0.13899180104E+00  0.26344019349E+02  0.14404618012E+03  0.14643540788E+03  0.00000000000E+00 0. -1.
         -2    1    5    5    0  503 -0.34993101245E+02  0.35703683958E+03  0.85145426523E+03  0.92394490514E+03  0.00000000000E+00 0.  1.
         -1    1    6    6    0  502  0.14253637608E+03 -0.40840335798E+03  0.86788169971E+03  0.96970540166E+03  0.00000000000E+00 0.  1.
<mgrwt>
<rscale>  0 0.11067462E+04</rscale>
<asrwt>0</asrwt>
<pdfrwt beam="1">  1        1 0.35254607E+00 0.11067462E+04</pdfrwt>
<pdfrwt beam="2">  1       -1 0.20558599E-01 0.11067462E+04</pdfrwt>
<totfact> 0.36909296E+01</totfact>
</mgrwt>
</event>
<event>
12    1  0.1755460E-007  0.1988265E+04  0.7818608E-02  0.8612127E-01
         -1   -1    0    0    0  501 -0.00000000000E+00  0.00000000000E+00  0.39752149516E+03  0.39752149516E+03  0.00000000000E+00 0.  1.
          1   -1    0    0  501    0  0.00000000000E+00 -0.00000000000E+00 -0.24861532446E+04  0.24861532446E+04  0.00000000000E+00 0. -1.
         23    2    1    2    0    0  0.25370594937E+02 -0.16234946766E+03  0.28261961231E+03  0.33925170678E+03  0.90646889375E+02 0.  0.
        254    2    1    2    0    0 -0.25370594937E+02  0.16234946766E+03 -0.23712513617E+04  0.25444230330E+04  0.90788464764E+03 0.  0.
        -24    2    4    4    0    0  0.20378933866E+03  0.13235883044E+03 -0.12448803050E+03  0.28402025152E+03  0.78238602937E+02 0.  0.
         24    2    4    4    0    0 -0.22915993360E+03  0.29990637217E+02 -0.22467633312E+04  0.22604027815E+04  0.89786158565E+02 0.  0.
         13    1    3    3    0    0  0.82758784999E+01 -0.15424539447E+03  0.19072807219E+03  0.24543294278E+03  0.00000000000E+00 0. -1.
        -13    1    3    3    0    0  0.17094716437E+02 -0.81040731851E+01  0.91891540119E+02  0.93818763996E+02  0.00000000000E+00 0.  1.
          4    1    6    6  502    0  0.28709801693E+01  0.34304017251E+01 -0.59101640175E+01  0.74121671488E+01  0.00000000000E+00 0. -1.
          1    1    5    5  503    0  0.44002720565E+01  0.91596570022E-01  0.90095775584E+01  0.10027126801E+02  0.00000000000E+00 0. -1.
         -2    1    5    5    0  503  0.19938906661E+03  0.13226723387E+03 -0.13349760806E+03  0.27399312472E+03  0.00000000000E+00 0.  1.
         -3    1    6    6    0  502 -0.23203091377E+03  0.26560235492E+02 -0.22408531672E+04  0.22529906143E+04  0.00000000000E+00 0.  1.
<mgrwt>
<rscale>  0 0.19882649E+04</rscale>
<asrwt>0</asrwt>
<pdfrwt beam="1">  1        1 0.38248510E+00 0.19882649E+04</pdfrwt>
<pdfrwt beam="2">  1       -1 0.61157156E-01 0.19882649E+04</pdfrwt>
<totfact> 0.34892248E+00</totfact>
</mgrwt>
</event>
<event>
12    1  0.1755460E-007  0.1991293E+04  0.7818608E-02  0.8610702E-01
          1   -1    0    0  501    0  0.00000000000E+00  0.00000000000E+00  0.19480921295E+04  0.19480921295E+04  0.00000000000E+00 0. -1.
         -1   -1    0    0    0  501 -0.00000000000E+00 -0.00000000000E+00 -0.50886314330E+03  0.50886314330E+03  0.00000000000E+00 0.  1.
         23    2    1    2    0    0 -0.56206458737E+03 -0.31529963571E+03  0.11404556914E+04  0.13160785320E+04  0.12685841537E+03 0.  0.
        254    2    1    2    0    0  0.56206458737E+03  0.31529963571E+03  0.29877329481E+03  0.11408767409E+04  0.89275069057E+03 0.  0.
        -24    2    4    4    0    0  0.51485923073E+03  0.46895722139E+03 -0.95038953049E+02  0.70693160889E+03  0.75624031165E+02 0.  0.
         24    2    4    4    0    0  0.47205356638E+02 -0.15365758568E+03  0.39381224786E+03  0.43394513198E+03  0.85914443900E+02 0.  0.
         11    1    3    3    0    0 -0.39498662109E+03 -0.27283670414E+03  0.90259468616E+03  0.10223167148E+04  0.00000000000E+00 0. -1.
        -11    1    3    3    0    0 -0.16707796628E+03 -0.42462931568E+02  0.23786100526E+03  0.29376181712E+03  0.00000000000E+00 0.  1.
          2    1    6    6  502    0 -0.10652845302E+02 -0.21220337806E+01  0.37338853447E+01  0.11485993216E+02  0.00000000000E+00 0. -1.
          3    1    5    5  503    0  0.16355721247E+03  0.11699117210E+03 -0.24909247993E+01  0.20110718735E+03  0.00000000000E+00 0. -1.
         -4    1    5    5    0  503  0.35130201827E+03  0.35196604930E+03 -0.92548028250E+02  0.50582442154E+03  0.00000000000E+00 0.  1.
         -1    1    6    6    0  502  0.57858201940E+02 -0.15153555190E+03  0.39007836252E+03  0.42245913877E+03  0.00000000000E+00 0.  1.
<mgrwt>
<rscale>  0 0.19912933E+04</rscale>
<asrwt>0</asrwt>
<pdfrwt beam="1">  1        1 0.29970648E+00 0.19912933E+04</pdfrwt>
<pdfrwt beam="2">  1       -1 0.78286639E-01 0.19912933E+04</pdfrwt>
<totfact> 0.49001708E+00</totfact>
</mgrwt>
</event>
<event>
12    1  0.1755460E-007  0.1706730E+04  0.7818608E-02  0.8757535E-01
         -1   -1    0    0    0  501 -0.00000000000E+00  0.00000000000E+00  0.66475946497E+03  0.66475946497E+03  0.00000000000E+00 0.  1.
          1   -1    0    0  501    0  0.00000000000E+00 -0.00000000000E+00 -0.10954812425E+04  0.10954812425E+04  0.00000000000E+00 0. -1.
         23    2    1    2    0    0  0.69143624859E+02  0.31065526893E+03 -0.69755902095E+03  0.77199702999E+03  0.90018273865E+02 0.  0.
        254    2    1    2    0    0 -0.69143624859E+02 -0.31065526893E+03  0.26683724344E+03  0.98824367747E+03  0.89673625699E+03 0.  0.
        -24    2    4    4    0    0  0.18731510240E+03 -0.17776561046E+03  0.52582909341E+03  0.59116604105E+03  0.79331537021E+02 0.  0.
         24    2    4    4    0    0 -0.25645872726E+03 -0.13288965846E+03 -0.25899184997E+03  0.39707763642E+03  0.84635281533E+02 0.  0.
         11    1    3    3    0    0  0.86772894781E+02  0.21368410671E+03 -0.45315848032E+03  0.50847127846E+03  0.00000000000E+00 0. -1.
        -11    1    3    3    0    0 -0.17629269923E+02  0.96971162219E+02 -0.24440054063E+03  0.26352575153E+03  0.00000000000E+00 0.  1.
          2    1    6    6  502    0  0.25824647661E+01  0.47276214211E+01  0.54466485262E+00  0.54144425725E+01  0.00000000000E+00 0. -1.
          1    1    5    5  503    0  0.30617942242E+02 -0.75925168996E+02  0.13354834589E+03  0.15664370515E+03  0.00000000000E+00 0. -1.
         -2    1    5    5    0  503  0.15669716016E+03 -0.10184044147E+03  0.39228074752E+03  0.43452233590E+03  0.00000000000E+00 0.  1.
         -1    1    6    6    0  502 -0.25904119203E+03 -0.13761727989E+03 -0.25953651482E+03  0.39166319385E+03  0.00000000000E+00 0.  1.
<mgrwt>
<rscale>  0 0.17067297E+04</rscale>
<asrwt>0</asrwt>
<pdfrwt beam="1">  1        1 0.16853557E+00 0.17067297E+04</pdfrwt>
<pdfrwt beam="2">  1       -1 0.10227069E+00 0.17067297E+04</pdfrwt>
<totfact> 0.11001635E+01</totfact>
</mgrwt>
</event>
<event>
12    1  0.1755460E-007  0.2794663E+04  0.7818608E-02  0.8304927E-01
         -2   -1    0    0    0  501 -0.00000000000E+00  0.00000000000E+00  0.87223180300E+03  0.87223180300E+03  0.00000000000E+00 0.  1.
          2   -1    0    0  501    0  0.00000000000E+00 -0.00000000000E+00 -0.22385514901E+04  0.22385514901E+04  0.00000000000E+00 0. -1.
         23    2    1    2    0    0  0.10012568837E+04  0.70456263750E+03 -0.91948368071E+03  0.15339804181E+04  0.93390720258E+02 0.  0.
        254    2    1    2    0    0 -0.10012568837E+04 -0.70456263750E+03 -0.44683600642E+03  0.15768028750E+04  0.88753649652E+03 0.  0.
        -24    2    4    4    0    0 -0.11478869394E+04 -0.51988281247E+03 -0.36449609943E+03  0.13148855969E+04  0.90245011799E+02 0.  0.
         24    2    4    4    0    0  0.14663005562E+03 -0.18467982503E+03 -0.82339906990E+02  0.26191727813E+03  0.78827592357E+02 0.  0.
         13    1    3    3    0    0  0.11788439865E+03  0.92114483917E+02 -0.15140509786E+03  0.21285044808E+03  0.00000000000E+00 0. -1.
        -13    1    3    3    0    0  0.88337248510E+03  0.61244815358E+03 -0.76807858285E+03  0.13211299700E+04  0.00000000000E+00 0.  1.
          4    1    6    6  502    0  0.64259404245E+02 -0.13037089548E+03 -0.24054887123E+02  0.14732440061E+03  0.00000000000E+00 0. -1.
          3    1    5    5  503    0 -0.52793848625E+03 -0.27643476474E+03 -0.14138638816E+03  0.61247476289E+03  0.00000000000E+00 0. -1.
         -4    1    5    5    0  503 -0.61994845312E+03 -0.24344804773E+03 -0.22310971127E+03  0.70241083401E+03  0.00000000000E+00 0.  1.
         -3    1    6    6    0  502  0.82370651375E+02 -0.54308929550E+02 -0.58285019867E+02  0.11459287752E+03  0.00000000000E+00 0.  1.
<mgrwt>
<rscale>  0 0.27946633E+04</rscale>
<asrwt>0</asrwt>
<pdfrwt beam="1">  1        2 0.34439254E+00 0.27946633E+04</pdfrwt>
<pdfrwt beam="2">  1       -2 0.13418951E+00 0.27946633E+04</pdfrwt>
<totfact> 0.17129168E+00</totfact>
</mgrwt>
</event>
<event>
12    1  0.1755460E-007  0.2840889E+04  0.7818608E-02  0.8290685E-01
         -1   -1    0    0    0  501 -0.00000000000E+00  0.00000000000E+00  0.10079016883E+04  0.10079016883E+04  0.00000000000E+00 0.  1.
          1   -1    0    0  501    0  0.00000000000E+00 -0.00000000000E+00 -0.20018440804E+04  0.20018440804E+04  0.00000000000E+00 0. -1.
         23    2    1    2    0    0  0.52079982468E+03 -0.11931736052E+03 -0.16653714810E+04  0.17515382969E+04  0.94631633235E+02 0.  0.
        254    2    1    2    0    0 -0.52079982468E+03  0.11931736052E+03  0.67142908889E+03  0.12582074719E+04  0.92021732809E+03 0.  0.
        -24    2    4    4    0    0 -0.10436718124E+03 -0.32051184001E+03 -0.56653987597E+01  0.34614755990E+03  0.78521897405E+02 0.  0.
         24    2    4    4    0    0 -0.41643264344E+03  0.43982920054E+03  0.67709448765E+03  0.91205991195E+03  0.80811296383E+02 0.  0.
         13    1    3    3    0    0  0.49541713676E+03 -0.12303737588E+03 -0.16284214010E+04  0.17065557695E+04  0.00000000000E+00 0. -1.
        -13    1    3    3    0    0  0.25382687923E+02  0.37200153597E+01 -0.36950079972E+02  0.44982527390E+02  0.00000000000E+00 0.  1.
          2    1    6    6  502    0 -0.20554776980E+03  0.27534857641E+03  0.38323190811E+03  0.51471683438E+03  0.00000000000E+00 0. -1.
          3    1    5    5  503    0 -0.71428840680E+02 -0.14275786529E+03  0.28535308156E+02  0.16216088059E+03  0.00000000000E+00 0. -1.
         -4    1    5    5    0  503 -0.32938340563E+02 -0.17775397472E+03 -0.34200706915E+02  0.18398667931E+03  0.00000000000E+00 0.  1.
         -1    1    6    6    0  502 -0.21088487364E+03  0.16448062413E+03  0.29386257953E+03  0.39734307757E+03  0.00000000000E+00 0.  1.
<mgrwt>
<rscale>  0 0.28408886E+04</rscale>
<asrwt>0</asrwt>
<pdfrwt beam="1">  1        1 0.30797601E+00 0.28408886E+04</pdfrwt>
<pdfrwt beam="2">  1       -1 0.15506180E+00 0.28408886E+04</pdfrwt>
<totfact> 0.81711028E-01</totfact>
</mgrwt>
</event>
<event>
12    1  0.1755460E-007  0.1297170E+04  0.7818608E-02  0.9031812E-01
         -1   -1    0    0    0  501 -0.00000000000E+00  0.00000000000E+00  0.20556063808E+03  0.20556063808E+03  0.00000000000E+00 0.  1.
          1   -1    0    0  501    0  0.00000000000E+00 -0.00000000000E+00 -0.20464155621E+04  0.20464155621E+04  0.00000000000E+00 0. -1.
         23    2    1    2    0    0  0.31608877148E+03 -0.99381182294E+02 -0.47361192408E+03  0.58506508997E+03  0.90576895646E+02 0.  0.
        254    2    1    2    0    0 -0.31608877148E+03  0.99381182294E+02 -0.13672430000E+04  0.16669111102E+04  0.89411995706E+03 0.  0.
        -24    2    4    4    0    0 -0.16247165872E+02  0.40066715475E+03 -0.27627463264E+03  0.49335523149E+03  0.79205886797E+02 0.  0.
         24    2    4    4    0    0 -0.29984160561E+03 -0.30128597246E+03 -0.10909683673E+04  0.11735558787E+04  0.79644186062E+02 0.  0.
         13    1    3    3    0    0  0.12779887364E+03 -0.29590367011E+01 -0.13595343429E+03  0.18661362302E+03  0.00000000000E+00 0.  1.
        -13    1    3    3    0    0  0.18828989784E+03 -0.96422145592E+02 -0.33765848979E+03  0.39845146695E+03  0.00000000000E+00 0. -1.
          4    1    6    6  502    0 -0.19191731190E+03 -0.24346886408E+03 -0.78551043878E+03  0.84447379582E+03  0.00000000000E+00 0. -1.
          3    1    5    5  503    0 -0.42463866818E+02  0.26977781647E+03 -0.20884976862E+03  0.34380441547E+03  0.00000000000E+00 0. -1.
         -4    1    5    5    0  503  0.26216700946E+02  0.13088933828E+03 -0.67424864024E+02  0.14955081602E+03  0.00000000000E+00 0.  1.
         -3    1    6    6    0  502 -0.10792429371E+03 -0.57817108377E+02 -0.30545792853E+03  0.32908208291E+03  0.00000000000E+00 0.  1.
<mgrwt>
<rscale>  0 0.12971700E+04</rscale>
<asrwt>0</asrwt>
<pdfrwt beam="1">  1        1 0.31483317E+00 0.12971700E+04</pdfrwt>
<pdfrwt beam="2">  1       -1 0.31624713E-01 0.12971700E+04</pdfrwt>
<totfact> 0.25360439E+01</totfact>
</mgrwt>
</event>
<event>
12    1  0.1755460E-007  0.1590722E+04  0.7818608E-02  0.8826268E-01
          3   -1    0    0  501    0  0.00000000000E+00  0.00000000000E+00  0.13867904993E+04  0.13867904993E+04  0.00000000000E+00 0. -1.
         -3   -1    0    0    0  501 -0.00000000000E+00 -0.00000000000E+00 -0.45616032360E+03  0.45616032360E+03  0.00000000000E+00 0.  1.
         23    2    1    2    0    0 -0.20114726119E+03 -0.28901388450E+03  0.79169482137E+03  0.87158096202E+03  0.94251986973E+02 0.  0.
        254    2    1    2    0    0  0.20114726119E+03  0.28901388450E+03  0.13893535432E+03  0.97136986087E+03  0.89457650752E+03 0.  0.
        -24    2    4    4    0    0  0.42408683457E+03  0.46318633253E+03  0.21408828040E+03  0.66833785822E+03  0.80314874306E+02 0.  0.
         24    2    4    4    0    0 -0.22293957338E+03 -0.17417244803E+03 -0.75152926079E+02  0.30303200264E+03  0.78373064864E+02 0.  0.
         13    1    3    3    0    0 -0.18851712414E+03 -0.29523318621E+03  0.76565149104E+03  0.84197597713E+03  0.00000000000E+00 0. -1.
        -13    1    3    3    0    0 -0.12630137046E+02  0.62193017045E+01  0.26043330335E+02  0.29604984892E+02  0.00000000000E+00 0.  1.
          4    1    6    6  502    0  0.13401755424E+01  0.14206850692E+01  0.64445625269E+01  0.67340034684E+01  0.00000000000E+00 0. -1.
          1    1    5    5  503    0  0.16142529059E+03  0.15881761021E+03  0.11634558155E+03  0.25459271809E+03  0.00000000000E+00 0. -1.
         -2    1    5    5    0  503  0.26266154398E+03  0.30436872232E+03  0.97742698848E+02  0.41374514014E+03  0.00000000000E+00 0.  1.
         -3    1    6    6    0  502 -0.22427974892E+03 -0.17559313310E+03 -0.81597488606E+02  0.29629799917E+03  0.00000000000E+00 0.  1.
<mgrwt>
<rscale>  0 0.15907216E+04</rscale>
<asrwt>0</asrwt>
<pdfrwt beam="1">  1        3 0.21335238E+00 0.15907216E+04</pdfrwt>
<pdfrwt beam="2">  1       -3 0.70178512E-01 0.15907216E+04</pdfrwt>
<totfact> 0.59373641E-01</totfact>
</mgrwt>
</event>
<event>
12    1  0.1755460E-007  0.1611946E+04  0.7818608E-02  0.8813242E-01
         -1   -1    0    0    0  501 -0.00000000000E+00  0.00000000000E+00  0.60336594126E+03  0.60336594126E+03  0.00000000000E+00 0.  1.
          1   -1    0    0  501    0  0.00000000000E+00 -0.00000000000E+00 -0.10766147461E+04  0.10766147461E+04  0.00000000000E+00 0. -1.
         23    2    1    2    0    0 -0.50644149479E+03 -0.19299482562E+03 -0.21188528004E+03  0.58940180812E+03  0.93643628467E+02 0.  0.
        254    2    1    2    0    0  0.50644149479E+03  0.19299482562E+03 -0.26136352481E+03  0.10905788793E+04  0.90957210238E+03 0.  0.
        -24    2    4    4    0    0  0.74138738897E+03  0.14114029352E+03 -0.33132487353E+03  0.82805338421E+03  0.79500895041E+02 0.  0.
         24    2    4    4    0    0 -0.23494589417E+03  0.51854532097E+02  0.69961348716E+02  0.26252549505E+03  0.78336323299E+02 0.  0.
         11    1    3    3    0    0 -0.15552143090E+03 -0.62124774733E+02 -0.11303451915E+03  0.20204753308E+03  0.00000000000E+00 0. -1.
        -11    1    3    3    0    0 -0.35092006389E+03 -0.13087005089E+03 -0.98850760889E+02  0.38735427504E+03  0.00000000000E+00 0.  1.
          4    1    6    6  502    0 -0.15201998655E+03  0.51341662700E+02  0.11114737439E+02  0.16084023137E+03  0.00000000000E+00 0. -1.
          3    1    5    5  503    0  0.74116934858E+03  0.13824281161E+03 -0.32485136818E+03  0.82095766617E+03  0.00000000000E+00 0. -1.
         -4    1    5    5    0  503  0.21804038801E+00  0.28974819179E+01 -0.64735053459E+01  0.70957180425E+01  0.00000000000E+00 0.  1.
         -3    1    6    6    0  502 -0.82925907626E+02  0.51286939772E+00  0.58846611277E+02  0.10168526368E+03  0.00000000000E+00 0.  1.
<mgrwt>
<rscale>  0 0.16119462E+04</rscale>
<asrwt>0</asrwt>
<pdfrwt beam="1">  1        1 0.16563304E+00 0.16119462E+04</pdfrwt>
<pdfrwt beam="2">  1       -1 0.92825531E-01 0.16119462E+04</pdfrwt>
<totfact> 0.14279794E+01</totfact>
</mgrwt>
</event>
<event>
12    1  0.1755460E-007  0.1603082E+04  0.7818608E-02  0.8818657E-01
          2   -1    0    0  501    0  0.00000000000E+00  0.00000000000E+00  0.34399771814E+04  0.34399771814E+04  0.00000000000E+00 0. -1.
         -2   -1    0    0    0  501 -0.00000000000E+00 -0.00000000000E+00 -0.18676522260E+03  0.18676522260E+03  0.00000000000E+00 0.  1.
         23    2    1    2    0    0 -0.27120717085E+03 -0.21350733664E+03  0.20382813476E+04  0.20693912447E+04  0.93008382514E+02 0.  0.
        254    2    1    2    0    0  0.27120717085E+03  0.21350733664E+03  0.12149306112E+04  0.15573511593E+04  0.91112432251E+03 0.  0.
        -24    2    4    4    0    0  0.29666219123E+03 -0.15496679081E+03  0.11149328608E+04  0.11667609237E+04  0.78946861279E+02 0.  0.
         24    2    4    4    0    0 -0.25455020383E+02  0.36847412744E+03  0.99997750316E+02  0.39059023559E+03  0.78358416356E+02 0.  0.
         13    1    3    3    0    0 -0.17275350668E+03 -0.17351835618E+03  0.15863191261E+04  0.16051045959E+04  0.00000000000E+00 0. -1.
        -13    1    3    3    0    0 -0.98453664172E+02 -0.39988980459E+02  0.45196222155E+03  0.46428664880E+03  0.00000000000E+00 0.  1.
          2    1    6    6  502    0 -0.16032799050E+02  0.28696134016E+03  0.11038933751E+03  0.30787930627E+03  0.00000000000E+00 0. -1.
          1    1    5    5  503    0  0.17021031712E+03 -0.12898402043E+03  0.64615134432E+03  0.68052919801E+03  0.00000000000E+00 0. -1.
         -2    1    5    5    0  503  0.12645187411E+03 -0.25982770372E+02  0.46878151652E+03  0.48623172567E+03  0.00000000000E+00 0.  1.
         -1    1    6    6    0  502 -0.94222213327E+01  0.81512787277E+02 -0.10391587192E+02  0.82710929320E+02  0.00000000000E+00 0.  1.
<mgrwt>
<rscale>  0 0.16030822E+04</rscale>
<asrwt>0</asrwt>
<pdfrwt beam="1">  1        2 0.52922721E+00 0.16030822E+04</pdfrwt>
<pdfrwt beam="2">  1       -2 0.28733114E-01 0.16030822E+04</pdfrwt>
<totfact> 0.96400934E+00</totfact>
</mgrwt>
</event>
<event>
12    1  0.1755460E-007  0.1543834E+04  0.7818608E-02  0.8855816E-01
          2   -1    0    0  501    0  0.00000000000E+00  0.00000000000E+00  0.17379404407E+04  0.17379404407E+04  0.00000000000E+00 0. -1.
         -2   -1    0    0    0  501 -0.00000000000E+00 -0.00000000000E+00 -0.34285156531E+03  0.34285156531E+03  0.00000000000E+00 0.  1.
         23    2    1    2    0    0  0.18035822476E+03  0.10725329586E+03  0.10498951120E+04  0.10748822715E+04  0.95182943104E+02 0.  0.
        254    2    1    2    0    0 -0.18035822476E+03 -0.10725329586E+03  0.34519376332E+03  0.10059097344E+04  0.92122923364E+03 0.  0.
        -24    2    4    4    0    0  0.19614162024E+03  0.15096921961E+03  0.45877775973E+03  0.52825645709E+03  0.85525500125E+02 0.  0.
         24    2    4    4    0    0 -0.37649984500E+03 -0.25822251547E+03 -0.11358399641E+03  0.47765327736E+03  0.82585279262E+02 0.  0.
         13    1    3    3    0    0  0.47196449160E+02  0.85636381037E+01  0.10339749008E+03  0.11398193570E+03  0.00000000000E+00 0.  1.
        -13    1    3    3    0    0  0.13316177560E+03  0.98689657759E+02  0.94649762197E+03  0.96090033584E+03  0.00000000000E+00 0. -1.
          2    1    6    6  502    0 -0.23023065976E+03 -0.16191404179E+03 -0.11084191913E+03  0.30250329694E+03  0.00000000000E+00 0. -1.
          3    1    5    5  503    0  0.35832081747E+02  0.40133128545E+02  0.18171479609E+03  0.18951219804E+03  0.00000000000E+00 0. -1.
         -4    1    5    5    0  503  0.16030953850E+03  0.11083609106E+03  0.27706296364E+03  0.33874425904E+03  0.00000000000E+00 0.  1.
         -1    1    6    6    0  502 -0.14626918524E+03 -0.96308473683E+02 -0.27420772807E+01  0.17514998042E+03  0.00000000000E+00 0.  1.
<mgrwt>
<rscale>  0 0.15438337E+04</rscale>
<asrwt>0</asrwt>
<pdfrwt beam="1">  1        2 0.26737545E+00 0.15438337E+04</pdfrwt>
<pdfrwt beam="2">  1       -2 0.52746396E-01 0.15438337E+04</pdfrwt>
<totfact> 0.30500120E+01</totfact>
</mgrwt>
</event>
<event>
12    1  0.1755460E-007  0.3010715E+04  0.7818608E-02  0.8240678E-01
         -3   -1    0    0    0  501 -0.00000000000E+00  0.00000000000E+00  0.54113481438E+03  0.54113481438E+03  0.00000000000E+00 0.  1.
          3   -1    0    0  501    0  0.00000000000E+00 -0.00000000000E+00 -0.41876823860E+04  0.41876823860E+04  0.00000000000E+00 0. -1.
         23    2    1    2    0    0 -0.27966934552E+02 -0.99790774680E+03 -0.19035255845E+03  0.10204062433E+04  0.91612141004E+02 0.  0.
        254    2    1    2    0    0  0.27966934552E+02  0.99790774680E+03 -0.34561950132E+04  0.37084109570E+04  0.90023654481E+03 0.  0.
        -24    2    4    4    0    0  0.32627423025E+03  0.92320646762E+03 -0.29637459002E+04  0.31223245014E+04  0.79721237921E+02 0.  0.
         24    2    4    4    0    0 -0.29830729570E+03  0.74701279187E+02 -0.49244911297E+03  0.58608645566E+03  0.80147868688E+02 0.  0.
         13    1    3    3    0    0 -0.18382127899E+01 -0.86251044864E+03 -0.14109235547E+03  0.87397637600E+03  0.00000000000E+00 0.  1.
        -13    1    3    3    0    0 -0.26128721763E+02 -0.13539729817E+03 -0.49260202973E+02  0.14642986734E+03  0.00000000000E+00 0. -1.
          4    1    6    6  502    0 -0.68572091841E+02  0.53533316822E+02 -0.12872666722E+03  0.15536570614E+03  0.00000000000E+00 0. -1.
          3    1    5    5  503    0  0.20146872027E+03  0.47441968150E+03 -0.16324325354E+04  0.17118702235E+04  0.00000000000E+00 0. -1.
         -4    1    5    5    0  503  0.12480550998E+03  0.44878678612E+03 -0.13313133648E+04  0.14104542779E+04  0.00000000000E+00 0.  1.
         -3    1    6    6    0  502 -0.22973520386E+03  0.21167962365E+02 -0.36372244575E+03  0.43072074952E+03  0.00000000000E+00 0.  1.
<mgrwt>
<rscale>  0 0.30107147E+04</rscale>
<asrwt>0</asrwt>
<pdfrwt beam="1">  1        3 0.64425881E+00 0.30107147E+04</pdfrwt>
<pdfrwt beam="2">  1       -3 0.83251512E-01 0.30107147E+04</pdfrwt>
<totfact> 0.19944464E-03</totfact>
</mgrwt>
</event>
<event>
12    1  0.1755460E-007  0.2466332E+04  0.7818608E-02  0.8415079E-01
          2   -1    0    0  501    0  0.00000000000E+00  0.00000000000E+00  0.22460647345E+04  0.22460647345E+04  0.00000000000E+00 0. -1.
         -2   -1    0    0    0  501 -0.00000000000E+00 -0.00000000000E+00 -0.67705031745E+03  0.67705031745E+03  0.00000000000E+00 0.  1.
         23    2    1    2    0    0  0.57348118750E+03  0.79288425586E+03  0.18107380948E+03  0.99881572586E+03  0.85434267893E+02 0.  0.
        254    2    1    2    0    0 -0.57348118750E+03 -0.79288425586E+03  0.13879406076E+04  0.19242993261E+04  0.90498765220E+03 0.  0.
        -24    2    4    4    0    0 -0.41267750210E+03 -0.49108957372E+03  0.14313931242E+04  0.15706037866E+04  0.80238944891E+02 0.  0.
         24    2    4    4    0    0 -0.16080368540E+03 -0.30179468214E+03 -0.43452516588E+02  0.35369553954E+03  0.79212108204E+02 0.  0.
         13    1    3    3    0    0  0.19310307697E+02  0.71047338779E+01  0.63389386690E+01  0.21530150261E+02  0.00000000000E+00 0. -1.
        -13    1    3    3    0    0  0.55417087980E+03  0.78577952198E+03  0.17473487081E+03  0.97728557560E+03  0.00000000000E+00 0.  1.
          4    1    6    6  502    0 -0.16374419495E+03 -0.26690689894E+03 -0.52575973744E+02  0.31751486122E+03  0.00000000000E+00 0. -1.
          1    1    5    5  503    0 -0.35621419709E+03 -0.38874498083E+03  0.12196052657E+04  0.13287017041E+04  0.00000000000E+00 0. -1.
         -2    1    5    5    0  503 -0.56463305008E+02 -0.10234459290E+03  0.21178785844E+03  0.24190208244E+03  0.00000000000E+00 0.  1.
         -3    1    6    6    0  502  0.29405095507E+01 -0.34887783201E+02  0.91234571557E+01  0.36180678318E+02  0.00000000000E+00 0.  1.
<mgrwt>
<rscale>  0 0.24663324E+04</rscale>
<asrwt>0</asrwt>
<pdfrwt beam="1">  1        2 0.34554842E+00 0.24663324E+04</pdfrwt>
<pdfrwt beam="2">  1       -2 0.10416159E+00 0.24663324E+04</pdfrwt>
<totfact> 0.32593701E+00</totfact>
</mgrwt>
</event>
<event>
12    1  0.1755460E-007  0.2573317E+04  0.7818608E-02  0.8377322E-01
         -1   -1    0    0    0  501 -0.00000000000E+00  0.00000000000E+00  0.13286141058E+04  0.13286141058E+04  0.00000000000E+00 0.  1.
          1   -1    0    0  501    0  0.00000000000E+00 -0.00000000000E+00 -0.12460274058E+04  0.12460274058E+04  0.00000000000E+00 0. -1.
         23    2    1    2    0    0  0.30343042314E+03 -0.84210334193E+03  0.71956674597E+03  0.11521164422E+04  0.91585666981E+02 0.  0.
        254    2    1    2    0    0 -0.30343042314E+03  0.84210334193E+03 -0.63698004600E+03  0.14225250694E+04  0.90367357707E+03 0.  0.
        -24    2    4    4    0    0  0.58446439982E+02  0.68499541817E+03 -0.28127762685E+02  0.69269626449E+03  0.80013964701E+02 0.  0.
         24    2    4    4    0    0 -0.36187686312E+03  0.15710792377E+03 -0.60885228331E+03  0.72982880491E+03  0.79443173470E+02 0.  0.
         13    1    3    3    0    0  0.22871963192E+03 -0.61361193487E+03  0.47344780363E+03  0.80807493427E+03  0.00000000000E+00 0.  1.
        -13    1    3    3    0    0  0.74710791222E+02 -0.22849140707E+03  0.24611894234E+03  0.34404150797E+03  0.00000000000E+00 0. -1.
          4    1    6    6  502    0 -0.29516853879E+03  0.96175323684E+02 -0.44269974324E+03  0.54070067676E+03  0.00000000000E+00 0. -1.
          3    1    5    5  503    0  0.51723632270E+02  0.59303042617E+03 -0.51693895390E+02  0.59752211617E+03  0.00000000000E+00 0. -1.
         -4    1    5    5    0  503  0.67228077119E+01  0.91964992001E+02  0.23566132705E+02  0.95174148317E+02  0.00000000000E+00 0.  1.
         -3    1    6    6    0  502 -0.66708324332E+02  0.60932600083E+02 -0.16615254007E+03  0.18912812816E+03  0.00000000000E+00 0.  1.
<mgrwt>
<rscale>  0 0.25733166E+04</rscale>
<asrwt>0</asrwt>
<pdfrwt beam="1">  1        1 0.19169652E+00 0.25733166E+04</pdfrwt>
<pdfrwt beam="2">  1       -1 0.20440217E+00 0.25733166E+04</pdfrwt>
<totfact> 0.12258182E+00</totfact>
</mgrwt>
</event>
<event>
12    1  0.1755460E-007  0.1799740E+04  0.7818608E-02  0.8706438E-01
         -2   -1    0    0    0  501 -0.00000000000E+00  0.00000000000E+00  0.39407961766E+03  0.39407961766E+03  0.00000000000E+00 0.  1.
          2   -1    0    0  501    0  0.00000000000E+00 -0.00000000000E+00 -0.20548294143E+04  0.20548294143E+04  0.00000000000E+00 0. -1.
         23    2    1    2    0    0 -0.41305706600E+02 -0.63666743662E+03 -0.33549407355E+03  0.72659850703E+03  0.91310080429E+02 0.  0.
        254    2    1    2    0    0  0.41305706600E+02  0.63666743662E+03 -0.13252557231E+04  0.17223105250E+04  0.89610224107E+03 0.  0.
        -24    2    4    4    0    0 -0.21330066194E+02 -0.35255953669E+02  0.10567788542E+03  0.13828875668E+03  0.79107589795E+02 0.  0.
         24    2    4    4    0    0  0.62635772794E+02  0.67192339029E+03 -0.14309336086E+04  0.15840217683E+04  0.78419945546E+02 0.  0.
         11    1    3    3    0    0 -0.55578098465E+01 -0.13837144234E+03 -0.11716258763E+03  0.18139629887E+03  0.00000000000E+00 0. -1.
        -11    1    3    3    0    0 -0.35747896753E+02 -0.49829599428E+03 -0.21833148592E+03  0.54520220816E+03  0.00000000000E+00 0.  1.
          2    1    6    6  502    0  0.77292835017E+02  0.58839682044E+03 -0.12200738648E+04  0.13567480371E+04  0.00000000000E+00 0. -1.
          1    1    5    5  503    0 -0.36340289040E+02 -0.30299509253E+02  0.20343717545E+02  0.51502851495E+02  0.00000000000E+00 0. -1.
         -2    1    5    5    0  503  0.15010222846E+02 -0.49564444156E+01  0.85334167877E+02  0.86785905183E+02  0.00000000000E+00 0.  1.
         -1    1    6    6    0  502 -0.14657062223E+02  0.83526569847E+02 -0.21085974373E+03  0.22727373115E+03  0.00000000000E+00 0.  1.
<mgrwt>
<rscale>  0 0.17997404E+04</rscale>
<asrwt>0</asrwt>
<pdfrwt beam="1">  1        2 0.31612760E+00 0.17997404E+04</pdfrwt>
<pdfrwt beam="2">  1       -2 0.60627635E-01 0.17997404E+04</pdfrwt>
<totfact> 0.14895382E+01</totfact>
</mgrwt>
</event>
<event>
12    1  0.1755460E-007  0.1391256E+04  0.7818608E-02  0.8960172E-01
          1   -1    0    0  501    0  0.00000000000E+00  0.00000000000E+00  0.32792305851E+04  0.32792305851E+04  0.00000000000E+00 0.  1.
         -1   -1    0    0    0  501 -0.00000000000E+00 -0.00000000000E+00 -0.14756456956E+03  0.14756456956E+03  0.00000000000E+00 0. -1.
         23    2    1    2    0    0 -0.17836142818E+03  0.32989570063E+03  0.12536672311E+04  0.13116414234E+04  0.89876164520E+02 0.  0.
        254    2    1    2    0    0  0.17836142818E+03 -0.32989570063E+03  0.18779987844E+04  0.21151537313E+04  0.89797099068E+03 0.  0.
        -24    2    4    4    0    0 -0.18589030672E+03 -0.43850020174E+03  0.55161213972E+03  0.73311461823E+03  0.79645826695E+02 0.  0.
         24    2    4    4    0    0  0.36425173489E+03  0.10860450112E+03  0.13263866447E+04  0.13820391130E+04  0.79096868429E+02 0.  0.
         11    1    3    3    0    0 -0.14896297356E+03  0.26810806556E+03  0.88404286127E+03  0.93573697313E+03  0.00000000000E+00 0.  1.
        -11    1    3    3    0    0 -0.29398454620E+02  0.61787635064E+02  0.36962436982E+03  0.37590445029E+03  0.00000000000E+00 0. -1.
          2    1    6    6  502    0  0.11061469601E+03  0.70745672506E+02  0.41683485501E+03  0.43702615196E+03  0.00000000000E+00 0. -1.
          1    1    5    5  503    0  0.35951159841E+00 -0.48824390806E+02  0.79096525910E+02  0.92952734210E+02  0.00000000000E+00 0. -1.
         -2    1    5    5    0  503 -0.18624981832E+03 -0.38967581094E+03  0.47251561381E+03  0.64016188402E+03  0.00000000000E+00 0.  1.
         -1    1    6    6    0  502  0.25363703889E+03  0.37858828610E+02  0.90955178972E+03  0.94501296106E+03  0.00000000000E+00 0.  1.
<mgrwt>
<rscale>  0 0.13912559E+04</rscale>
<asrwt>0</asrwt>
<pdfrwt beam="1">  1        1 0.50449696E+00 0.13912559E+04</pdfrwt>
<pdfrwt beam="2">  1       -1 0.22702244E-01 0.13912559E+04</pdfrwt>
<totfact> 0.60375058E+00</totfact>
</mgrwt>
</event>
<event>
12    1  0.1755460E-007  0.1176310E+04  0.7818608E-02  0.9133849E-01
         -2   -1    0    0    0  501 -0.00000000000E+00  0.00000000000E+00  0.13574636935E+03  0.13574636935E+03  0.00000000000E+00 0.  1.
          2   -1    0    0  501    0  0.00000000000E+00 -0.00000000000E+00 -0.25483291716E+04  0.25483291716E+04  0.00000000000E+00 0. -1.
         23    2    1    2    0    0 -0.86444712235E+02  0.20965465432E+03 -0.60154002691E+03  0.64923245639E+03  0.90689669288E+02 0.  0.
        254    2    1    2    0    0  0.86444712235E+02 -0.20965465432E+03 -0.18110427753E+04  0.20348430845E+04  0.89960140186E+03 0.  0.
        -24    2    4    4    0    0  0.44903252919E+03 -0.22409423812E+03 -0.13502837925E+04  0.14431436381E+04  0.86883831769E+02 0.  0.
         24    2    4    4    0    0 -0.36258781696E+03  0.14439583804E+02 -0.46075898285E+03  0.59169944640E+03  0.78300498112E+02 0.  0.
         11    1    3    3    0    0 -0.24833625564E+02  0.60945951123E+02 -0.80958635933E+02  0.10433320971E+03  0.00000000000E+00 0.  1.
        -11    1    3    3    0    0 -0.61611086671E+02  0.14870870320E+03 -0.52058139097E+03  0.54489924668E+03  0.00000000000E+00 0. -1.
          4    1    6    6  502    0 -0.62581353648E-02 -0.79013427322E+01 -0.11365865138E+02  0.13842476168E+02  0.00000000000E+00 0. -1.
          1    1    5    5  503    0  0.22286827413E+03 -0.15913232286E+03 -0.70861522833E+03  0.75969000626E+03  0.00000000000E+00 0. -1.
         -2    1    5    5    0  503  0.22616425506E+03 -0.64961915260E+02 -0.64166856412E+03  0.68345363184E+03  0.00000000000E+00 0.  1.
         -3    1    6    6    0  502 -0.36258155882E+03  0.22340926536E+02 -0.44939311771E+03  0.57785697023E+03  0.00000000000E+00 0.  1.
<mgrwt>
<rscale>  0 0.11763102E+04</rscale>
<asrwt>0</asrwt>
<pdfrwt beam="1">  1        2 0.39205065E+00 0.11763102E+04</pdfrwt>
<pdfrwt beam="2">  1       -2 0.20884056E-01 0.11763102E+04</pdfrwt>
<totfact> 0.64345542E+01</totfact>
</mgrwt>
</event>
<event>
12    1  0.1755460E-007  0.1421269E+04  0.7818608E-02  0.8938566E-01
         -1   -1    0    0    0  501 -0.00000000000E+00  0.00000000000E+00  0.76396312245E+03  0.76396312245E+03  0.00000000000E+00 0.  1.
          1   -1    0    0  501    0  0.00000000000E+00 -0.00000000000E+00 -0.66102808696E+03  0.66102808696E+03  0.00000000000E+00 0. -1.
         23    2    1    2    0    0  0.29207339587E+03  0.28063189211E+03  0.34158672288E+02  0.41677578332E+03  0.92054935918E+02 0.  0.
        254    2    1    2    0    0 -0.29207339587E+03 -0.28063189211E+03  0.68776363201E+02  0.10082154261E+04  0.92071006827E+03 0.  0.
        -24    2    4    4    0    0 -0.60428226191E+03 -0.96911149519E+02 -0.48029768172E+02  0.61936380589E+03  0.82193931960E+02 0.  0.
         24    2    4    4    0    0  0.31220886604E+03 -0.18372074259E+03  0.11680613137E+03  0.38885162019E+03  0.79587831381E+02 0.  0.
         13    1    3    3    0    0  0.15534797262E+03  0.13805279951E+03 -0.27958676131E+02  0.20969801053E+03  0.00000000000E+00 0. -1.
        -13    1    3    3    0    0  0.13672542325E+03  0.14257909260E+03  0.62117348419E+02  0.20707777279E+03  0.00000000000E+00 0.  1.
          4    1    6    6  502    0  0.14880154066E+02 -0.34768009048E+02  0.57963447015E+01  0.38260045088E+02  0.00000000000E+00 0. -1.
          3    1    5    5  503    0 -0.21352141711E+03 -0.13508841709E+02  0.16671619250E+02  0.21459689480E+03  0.00000000000E+00 0. -1.
         -4    1    5    5    0  503 -0.39076084481E+03 -0.83402307809E+02 -0.64701387422E+02  0.40476691109E+03  0.00000000000E+00 0.  1.
         -3    1    6    6    0  502  0.29732871198E+03 -0.14895273354E+03  0.11100978667E+03  0.35059157510E+03  0.00000000000E+00 0.  1.
<mgrwt>
<rscale>  0 0.14212686E+04</rscale>
<asrwt>0</asrwt>
<pdfrwt beam="1">  1        1 0.10169663E+00 0.14212686E+04</pdfrwt>
<pdfrwt beam="2">  1       -1 0.11753279E+00 0.14212686E+04</pdfrwt>
<totfact> 0.18837545E+01</totfact>
</mgrwt>
</event>
<event>
12    1  0.1755460E-007  0.2021880E+04  0.7818608E-02  0.8596459E-01
          1   -1    0    0  501    0  0.00000000000E+00  0.00000000000E+00  0.70029732790E+03  0.70029732790E+03  0.00000000000E+00 0. -1.
         -1   -1    0    0    0  501 -0.00000000000E+00 -0.00000000000E+00 -0.14593795821E+04  0.14593795821E+04  0.00000000000E+00 0.  1.
         23    2    1    2    0    0  0.19905960270E+03  0.17092624552E+02 -0.11254816596E+04  0.11467924568E+04  0.92233885862E+02 0.  0.
        254    2    1    2    0    0 -0.19905960270E+03 -0.17092624552E+02  0.36639940541E+03  0.10128844532E+04  0.92291359722E+03 0.  0.
        -24    2    4    4    0    0 -0.44428617533E+03 -0.27324014579E+03  0.37970934078E+03  0.65008249796E+03  0.79860427110E+02 0.  0.
         24    2    4    4    0    0  0.24522657263E+03  0.25614752123E+03 -0.13309935365E+02  0.36280195521E+03  0.75501521614E+02 0.  0.
         13    1    3    3    0    0  0.18343200412E+03  0.42678837792E+02 -0.10144770222E+04  0.10318102597E+04  0.00000000000E+00 0.  1.
        -13    1    3    3    0    0  0.15627598584E+02 -0.25586213240E+02 -0.11100463735E+03  0.11498219714E+03  0.00000000000E+00 0. -1.
          2    1    6    6  502    0  0.18742434665E+03  0.19404486115E+03 -0.42444924588E+02  0.27309863690E+03  0.00000000000E+00 0. -1.
          3    1    5    5  503    0 -0.34665033379E+03 -0.17250227237E+03  0.28605683225E+03  0.48140627246E+03  0.00000000000E+00 0. -1.
         -4    1    5    5    0  503 -0.97635841543E+02 -0.10073787342E+03  0.93652508528E+02  0.16867622550E+03  0.00000000000E+00 0.  1.
         -1    1    6    6    0  502  0.57802225973E+02  0.62102660088E+02  0.29134989224E+02  0.89703318303E+02  0.00000000000E+00 0.  1.
<mgrwt>
<rscale>  0 0.20218799E+04</rscale>
<asrwt>0</asrwt>
<pdfrwt beam="1">  1        1 0.10773805E+00 0.20218799E+04</pdfrwt>
<pdfrwt beam="2">  1       -1 0.22451993E+00 0.20218799E+04</pdfrwt>
<totfact> 0.25874665E+00</totfact>
</mgrwt>
</event>
<event>
12    1  0.1755460E-007  0.1334879E+04  0.7818608E-02  0.9002354E-01
          2   -1    0    0  501    0  0.00000000000E+00  0.00000000000E+00  0.15246443144E+04  0.15246443144E+04  0.00000000000E+00 0.  1.
         -2   -1    0    0    0  501 -0.00000000000E+00 -0.00000000000E+00 -0.29218322396E+03  0.29218322396E+03  0.00000000000E+00 0. -1.
         23    2    1    2    0    0  0.36989660321E+02  0.13788545171E+03  0.80359808691E+03  0.82059885354E+03  0.85040933546E+02 0.  0.
        254    2    1    2    0    0 -0.36989660321E+02 -0.13788545171E+03  0.42886300352E+03  0.99622868481E+03  0.88778797237E+03 0.  0.
        -24    2    4    4    0    0  0.19133818778E+03  0.29984693700E+03  0.48857536003E+02  0.36763613779E+03  0.79061895105E+02 0.  0.
         24    2    4    4    0    0 -0.22832784810E+03 -0.43773238871E+03  0.38000546752E+03  0.62859254702E+03  0.83553482768E+02 0.  0.
         13    1    3    3    0    0  0.20634851255E+01  0.54543668147E+02  0.13039660208E+03  0.14135962486E+03  0.00000000000E+00 0. -1.
        -13    1    3    3    0    0  0.34926175195E+02  0.83341783559E+02  0.67320148483E+03  0.67923922868E+03  0.00000000000E+00 0.  1.
          4    1    6    6  502    0 -0.22751084356E+03 -0.39719928723E+03  0.33040502538E+03  0.56453160984E+03  0.00000000000E+00 0. -1.
          1    1    5    5  503    0  0.92458360656E+02  0.20765178481E+03  0.48598892441E+02  0.23244281993E+03  0.00000000000E+00 0. -1.
         -2    1    5    5    0  503  0.98879827119E+02  0.92195152188E+02  0.25864356166E+00  0.13519331786E+03  0.00000000000E+00 0.  1.
         -3    1    6    6    0  502 -0.81700453695E+00 -0.40533101482E+02  0.49600442135E+02  0.64060937179E+02  0.00000000000E+00 0.  1.
<mgrwt>
<rscale>  0 0.13348790E+04</rscale>
<asrwt>0</asrwt>
<pdfrwt beam="1">  1        2 0.23456066E+00 0.13348790E+04</pdfrwt>
<pdfrwt beam="2">  1       -2 0.44951266E-01 0.13348790E+04</pdfrwt>
<totfact> 0.56400738E+01</totfact>
</mgrwt>
</event>
<event>
12    1  0.1755460E-007  0.2474862E+04  0.7818608E-02  0.8411996E-01
          2   -1    0    0  501    0  0.00000000000E+00  0.00000000000E+00  0.18103875759E+04  0.18103875759E+04  0.00000000000E+00 0. -1.
         -2   -1    0    0    0  501 -0.00000000000E+00 -0.00000000000E+00 -0.84580523318E+03  0.84580523318E+03  0.00000000000E+00 0.  1.
         23    2    1    2    0    0  0.85000452908E+03  0.53166741642E+03  0.13279688286E+02  0.10064488632E+04  0.87092037020E+02 0.  0.
        254    2    1    2    0    0 -0.85000452908E+03 -0.53166741642E+03  0.95130265442E+03  0.16497439459E+04  0.90083317302E+03 0.  0.
        -24    2    4    4    0    0 -0.10060437952E+04 -0.29615400071E+03  0.70210076826E+03  0.12646531557E+04  0.81060505466E+02 0.  0.
         24    2    4    4    0    0  0.15603926608E+03 -0.23551341571E+03  0.24920188616E+03  0.38509079020E+03  0.79865606408E+02 0.  0.
         13    1    3    3    0    0  0.76128231265E+03  0.44313930599E+03  0.56736548748E+01  0.88088330352E+03  0.00000000000E+00 0.  1.
        -13    1    3    3    0    0  0.88722216427E+02  0.88528110429E+02  0.76060334112E+01  0.12556555964E+03  0.00000000000E+00 0. -1.
          2    1    6    6  502    0  0.85249267252E+01 -0.75092121104E+02  0.68079159935E+02  0.10171663111E+03  0.00000000000E+00 0. -1.
          3    1    5    5  503    0 -0.43305462161E+03 -0.93074086543E+02  0.26882059495E+03  0.51813473455E+03  0.00000000000E+00 0. -1.
         -4    1    5    5    0  503 -0.57298917355E+03 -0.20307991416E+03  0.43328017331E+03  0.74651842116E+03  0.00000000000E+00 0.  1.
         -3    1    6    6    0  502  0.14751433936E+03 -0.16042129461E+03  0.18112272623E+03  0.28337415908E+03  0.00000000000E+00 0.  1.
<mgrwt>
<rscale>  0 0.24748618E+04</rscale>
<asrwt>0</asrwt>
<pdfrwt beam="1">  1        2 0.27852116E+00 0.24748618E+04</pdfrwt>
<pdfrwt beam="2">  1       -2 0.13012388E+00 0.24748618E+04</pdfrwt>
<totfact> 0.32974181E+00</totfact>
</mgrwt>
</event>
<event>
12    1  0.1755460E-007  0.1203587E+04  0.7818608E-02  0.9109722E-01
         -1   -1    0    0    0  501 -0.00000000000E+00  0.00000000000E+00  0.41969967216E+03  0.41969967216E+03  0.00000000000E+00 0.  1.
          1   -1    0    0  501    0  0.00000000000E+00 -0.00000000000E+00 -0.86289212092E+03  0.86289212092E+03  0.00000000000E+00 0. -1.
         23    2    1    2    0    0  0.17644218893E+03  0.16664296895E+03 -0.14245561439E+03  0.29583763323E+03  0.91239125510E+02 0.  0.
        254    2    1    2    0    0 -0.17644218893E+03 -0.16664296895E+03 -0.30073683437E+03  0.98675415985E+03  0.90793138689E+03 0.  0.
        -24    2    4    4    0    0  0.27253432502E+03  0.18117428705E+03  0.30578475075E+01  0.33681181340E+03  0.79584964729E+02 0.  0.
         24    2    4    4    0    0 -0.44897651395E+03 -0.34781725600E+03 -0.30379468188E+03  0.64994234645E+03  0.87046489433E+02 0.  0.
         11    1    3    3    0    0  0.53315692712E+02  0.69141017732E+02 -0.10079073454E+03  0.13334847427E+03  0.00000000000E+00 0. -1.
        -11    1    3    3    0    0  0.12312649622E+03  0.97501951216E+02 -0.41664879854E+02  0.16248915895E+03  0.00000000000E+00 0.  1.
          4    1    6    6  502    0 -0.98498934337E+02 -0.12420724778E+03 -0.93549496666E+02  0.18406789180E+03  0.00000000000E+00 0. -1.
          1    1    5    5  503    0  0.37589398056E+02  0.55365307711E+02 -0.18506761392E+02  0.69431839680E+02  0.00000000000E+00 0. -1.
         -2    1    5    5    0  503  0.23494492696E+03  0.12580897934E+03  0.21564608899E+02  0.26737997372E+03  0.00000000000E+00 0.  1.
         -3    1    6    6    0  502 -0.35047757962E+03 -0.22361000822E+03 -0.21024518521E+03  0.46587445465E+03  0.00000000000E+00 0.  1.
<mgrwt>
<rscale>  0 0.12035872E+04</rscale>
<asrwt>0</asrwt>
<pdfrwt beam="1">  1        1 0.13275263E+00 0.12035872E+04</pdfrwt>
<pdfrwt beam="2">  1       -1 0.64569181E-01 0.12035872E+04</pdfrwt>
<totfact> 0.47015262E+01</totfact>
</mgrwt>
</event>
<event>
12    1  0.1755460E-007  0.1790349E+04  0.7818608E-02  0.8711448E-01
         -2   -1    0    0    0  501 -0.00000000000E+00  0.00000000000E+00  0.85337268044E+03  0.85337268044E+03  0.00000000000E+00 0.  1.
          2   -1    0    0  501    0  0.00000000000E+00 -0.00000000000E+00 -0.93902438659E+03  0.93902438659E+03  0.00000000000E+00 0. -1.
         23    2    1    2    0    0  0.10205258679E+03 -0.65030461796E+03  0.51308530766E+02  0.66638450115E+03  0.90138290617E+02 0.  0.
        254    2    1    2    0    0 -0.10205258679E+03  0.65030461796E+03 -0.13696023692E+03  0.11260125659E+04  0.90323605188E+03 0.  0.
        -24    2    4    4    0    0 -0.16796663675E+03 -0.18989956510E+03  0.16048587313E+02  0.26586543457E+03  0.78436192300E+02 0.  0.
         24    2    4    4    0    0  0.65914049959E+02  0.84020418306E+03 -0.15300882423E+03  0.86014713131E+03  0.78445242017E+02 0.  0.
         11    1    3    3    0    0  0.24416061785E+02 -0.95183544625E+02  0.39011775244E+02  0.10572591853E+03  0.00000000000E+00 0. -1.
        -11    1    3    3    0    0  0.77636525002E+02 -0.55512107334E+03  0.12296755522E+02  0.56065858263E+03  0.00000000000E+00 0.  1.
          4    1    6    6  502    0  0.65573219842E+01  0.58229730562E+01  0.29304950995E+01  0.92462580726E+01  0.00000000000E+00 0. -1.
          3    1    5    5  503    0  0.22804480245E+01 -0.31634627982E+02  0.10298428792E+02  0.33346780449E+02  0.00000000000E+00 0. -1.
         -4    1    5    5    0  503 -0.17024708477E+03 -0.15826493711E+03  0.57501585215E+01  0.23251865412E+03  0.00000000000E+00 0.  1.
         -3    1    6    6    0  502  0.59356727975E+02  0.83438121000E+03 -0.15593931933E+03  0.85090087324E+03  0.00000000000E+00 0.  1.
<mgrwt>
<rscale>  0 0.17903494E+04</rscale>
<asrwt>0</asrwt>
<pdfrwt beam="1">  1        2 0.14446529E+00 0.17903494E+04</pdfrwt>
<pdfrwt beam="2">  1       -2 0.13128811E+00 0.17903494E+04</pdfrwt>
<totfact> 0.11047514E+01</totfact>
</mgrwt>
</event>
<event>
12    1  0.1755460E-007  0.1813053E+04  0.7818608E-02  0.8699389E-01
         -1   -1    0    0    0  501 -0.00000000000E+00  0.00000000000E+00  0.10348080454E+04  0.10348080454E+04  0.00000000000E+00 0.  1.
          1   -1    0    0  501    0  0.00000000000E+00 -0.00000000000E+00 -0.79414713329E+03  0.79414713329E+03  0.00000000000E+00 0. -1.
         23    2    1    2    0    0 -0.13590870224E+03 -0.26009047181E+03  0.71088449251E+03  0.77437550158E+03  0.90456768061E+02 0.  0.
        254    2    1    2    0    0  0.13590870224E+03  0.26009047181E+03 -0.47022358045E+03  0.10545796771E+04  0.89716768264E+03 0.  0.
        -24    2    4    4    0    0  0.18201373939E+03 -0.19575327207E+03  0.11947955413E+03  0.30368607573E+03  0.80632027658E+02 0.  0.
         24    2    4    4    0    0 -0.46105037147E+02  0.45584374388E+03 -0.58970313458E+03  0.75089360133E+03  0.78563479399E+02 0.  0.
         13    1    3    3    0    0 -0.13780842776E+03 -0.25558220023E+03  0.71235970331E+03  0.76926573480E+03  0.00000000000E+00 0.  1.
        -13    1    3    3    0    0  0.18997255157E+01 -0.45082715814E+01 -0.14752107996E+01  0.51097667843E+01  0.00000000000E+00 0. -1.
          2    1    6    6  502    0 -0.54019503420E+02  0.40212572408E+03 -0.48015377656E+03  0.62862616384E+03  0.00000000000E+00 0. -1.
          3    1    5    5  503    0  0.17495203238E+03 -0.19704090343E+03  0.98161772070E+02  0.28119222029E+03  0.00000000000E+00 0. -1.
         -4    1    5    5    0  503  0.70617070114E+01  0.12876313579E+01  0.21317782062E+02  0.22493855438E+02  0.00000000000E+00 0.  1.
         -1    1    6    6    0  502  0.79144662724E+01  0.53718019801E+02 -0.10954935802E+03  0.12226743749E+03  0.00000000000E+00 0.  1.
<mgrwt>
<rscale>  0 0.18130525E+04</rscale>
<asrwt>0</asrwt>
<pdfrwt beam="1">  1        1 0.12217648E+00 0.18130525E+04</pdfrwt>
<pdfrwt beam="2">  1       -1 0.15920124E+00 0.18130525E+04</pdfrwt>
<totfact> 0.62492561E+00</totfact>
</mgrwt>
</event>
<event>
12    1  0.1755460E-007  0.1841658E+04  0.7818608E-02  0.8684455E-01
         -2   -1    0    0    0  501 -0.00000000000E+00  0.00000000000E+00  0.62808563798E+03  0.62808563798E+03  0.00000000000E+00 0. -1.
          2   -1    0    0  501    0  0.00000000000E+00 -0.00000000000E+00 -0.13500162413E+04  0.13500162413E+04  0.00000000000E+00 0.  1.
         23    2    1    2    0    0 -0.20443618071E+03  0.59350703270E+03  0.51856164179E+02  0.63711916797E+03  0.95848957094E+02 0.  0.
        254    2    1    2    0    0  0.20443618071E+03 -0.59350703270E+03 -0.77378676751E+03  0.13409827113E+04  0.89746527544E+03 0.  0.
        -24    2    4    4    0    0  0.97254272592E+02  0.15926820133E+03  0.57847574742E+02  0.21126046480E+03  0.80373432125E+02 0.  0.
         24    2    4    4    0    0  0.10718190812E+03 -0.75277523404E+03 -0.83163434226E+03  0.11297222465E+04  0.80611169452E+02 0.  0.
         11    1    3    3    0    0 -0.17470660774E+02  0.79787220545E+02  0.38437142196E+02  0.90269809185E+02  0.00000000000E+00 0.  1.
        -11    1    3    3    0    0 -0.18696551994E+03  0.51371981216E+03  0.13419021984E+02  0.54684935878E+03  0.00000000000E+00 0. -1.
          2    1    6    6  502    0  0.11390344160E+02 -0.12870473156E+03 -0.10043480543E+03  0.16365145281E+03  0.00000000000E+00 0. -1.
          1    1    5    5  503    0  0.30929328791E+02  0.74379295944E+02  0.64693917762E+02  0.10331604929E+03  0.00000000000E+00 0. -1.
         -2    1    5    5    0  503  0.66324943801E+02  0.84888905390E+02 -0.68463430202E+01  0.10794441552E+03  0.00000000000E+00 0.  1.
         -1    1    6    6    0  502  0.95791563963E+02 -0.62407050248E+03 -0.73119953682E+03  0.96607079370E+03  0.00000000000E+00 0.  1.
<mgrwt>
<rscale>  0 0.18416577E+04</rscale>
<asrwt>0</asrwt>
<pdfrwt beam="1">  1        2 0.20769480E+00 0.18416577E+04</pdfrwt>
<pdfrwt beam="2">  1       -2 0.96628561E-01 0.18416577E+04</pdfrwt>
<totfact> 0.13031262E+01</totfact>
</mgrwt>
</event>
<event>
12    1  0.1755460E-007  0.1641137E+04  0.7818608E-02  0.8795667E-01
          1   -1    0    0  501    0  0.00000000000E+00  0.00000000000E+00  0.30373065459E+03  0.30373065459E+03  0.00000000000E+00 0. -1.
         -1   -1    0    0    0  501 -0.00000000000E+00 -0.00000000000E+00 -0.22168732530E+04  0.22168732530E+04  0.00000000000E+00 0.  1.
         23    2    1    2    0    0  0.10509298097E+03  0.46156915731E+03 -0.18602665149E+03  0.51616239280E+03  0.87903805668E+02 0.  0.
        254    2    1    2    0    0 -0.10509298097E+03 -0.46156915731E+03 -0.17271159469E+04  0.20044415148E+04  0.90042527200E+03 0.  0.
        -24    2    4    4    0    0 -0.65920889875E+02 -0.70976484115E+03 -0.99782714022E+03  0.12289453067E+04  0.80844738298E+02 0.  0.
         24    2    4    4    0    0 -0.39172091091E+02  0.24819568384E+03 -0.72928880671E+03  0.77549620807E+03  0.79979090653E+02 0.  0.
         11    1    3    3    0    0  0.64301146587E+02  0.41178808818E+03 -0.15447008156E+03  0.44448292781E+03  0.00000000000E+00 0. -1.
        -11    1    3    3    0    0  0.40791834379E+02  0.49781069133E+02 -0.31556569924E+02  0.71679464991E+02  0.00000000000E+00 0.  1.
          2    1    6    6  502    0 -0.70082694101E+01  0.18575486457E+03 -0.43711455926E+03  0.47499802470E+03  0.00000000000E+00 0. -1.
          3    1    5    5  503    0 -0.61212394520E+02 -0.67645297881E+03 -0.97511384955E+03  0.11883528977E+04  0.00000000000E+00 0. -1.
         -4    1    5    5    0  503 -0.47084953553E+01 -0.33311862333E+02 -0.22713290664E+02  0.40592409061E+02  0.00000000000E+00 0.  1.
         -1    1    6    6    0  502 -0.32163821681E+02  0.62440819271E+02 -0.29217424745E+03  0.30049818337E+03  0.00000000000E+00 0.  1.
<mgrwt>
<rscale>  0 0.16411366E+04</rscale>
<asrwt>0</asrwt>
<pdfrwt beam="1">  1        1 0.46727794E-01 0.16411366E+04</pdfrwt>
<pdfrwt beam="2">  1       -1 0.34105741E+00 0.16411366E+04</pdfrwt>
<totfact> 0.14738087E+00</totfact>
</mgrwt>
</event>
<event>
12    1  0.1755460E-007  0.1861151E+04  0.7818608E-02  0.8674440E-01
          1   -1    0    0  501    0  0.00000000000E+00  0.00000000000E+00  0.27614572256E+04  0.27614572256E+04  0.00000000000E+00 0. -1.
         -1   -1    0    0    0  501 -0.00000000000E+00 -0.00000000000E+00 -0.31359179642E+03  0.31359179642E+03  0.00000000000E+00 0.  1.
         23    2    1    2    0    0  0.47365865465E+03 -0.49940910557E+03  0.12509288676E+04  0.14308794376E+04  0.93973173770E+02 0.  0.
        254    2    1    2    0    0 -0.47365865465E+03  0.49940910557E+03  0.11969365616E+04  0.16441695844E+04  0.89267828133E+03 0.  0.
        -24    2    4    4    0    0 -0.20452852517E+03 -0.11359777501E+03  0.85122839262E+03  0.88643992360E+03  0.80309337299E+02 0.  0.
         24    2    4    4    0    0 -0.26913012948E+03  0.61300688057E+03  0.34570816900E+03  0.75772966083E+03  0.80197497180E+02 0.  0.
         11    1    3    3    0    0 -0.41903327157E+01 -0.16586847913E+01  0.57630353805E+01  0.73159210153E+01  0.00000000000E+00 0.  1.
        -11    1    3    3    0    0  0.47784898737E+03 -0.49775042077E+03  0.12451658322E+04  0.14235635166E+04  0.00000000000E+00 0. -1.
          4    1    6    6  502    0 -0.83375625907E+02  0.11227564381E+03  0.61980493191E+02  0.15296697919E+03  0.00000000000E+00 0. -1.
          3    1    5    5  503    0  0.43765107696E+01  0.54592998402E+00  0.27467802083E+01  0.51958336748E+01  0.00000000000E+00 0. -1.
         -4    1    5    5    0  503 -0.20890503594E+03 -0.11414370499E+03  0.84848161241E+03  0.88124408993E+03  0.00000000000E+00 0.  1.
         -3    1    6    6    0  502 -0.18575450358E+03  0.50073123677E+03  0.28372767581E+03  0.60476268163E+03  0.00000000000E+00 0.  1.
<mgrwt>
<rscale>  0 0.18611505E+04</rscale>
<asrwt>0</asrwt>
<pdfrwt beam="1">  1        1 0.42483956E+00 0.18611505E+04</pdfrwt>
<pdfrwt beam="2">  1       -1 0.48244894E-01 0.18611505E+04</pdfrwt>
<totfact> 0.35860451E+00</totfact>
</mgrwt>
</event>
<event>
12    1  0.1755460E-007  0.1990409E+04  0.7818608E-02  0.8611118E-01
         -2   -1    0    0    0  501 -0.00000000000E+00  0.00000000000E+00  0.35315973378E+03  0.35315973378E+03  0.00000000000E+00 0.  1.
          2   -1    0    0  501    0  0.00000000000E+00 -0.00000000000E+00 -0.28044862153E+04  0.28044862153E+04  0.00000000000E+00 0. -1.
         23    2    1    2    0    0  0.57867235912E+02 -0.34754414834E+03  0.14592224265E+03  0.39192714183E+03  0.90432469620E+02 0.  0.
        254    2    1    2    0    0 -0.57867235912E+02  0.34754414834E+03 -0.25972487242E+04  0.27657188073E+04  0.88281596808E+03 0.  0.
        -24    2    4    4    0    0 -0.36603722090E+03 -0.68952577988E+02 -0.69407013104E+03  0.79168530370E+03  0.79338314815E+02 0.  0.
         24    2    4    4    0    0  0.30816998499E+03  0.41649672633E+03 -0.19031785931E+04  0.19740335035E+04  0.79254356749E+02 0.  0.
         13    1    3    3    0    0  0.51851203112E+01 -0.26919192187E+03  0.11186222214E+03  0.29155502571E+03  0.00000000000E+00 0. -1.
        -13    1    3    3    0    0  0.52682115601E+02 -0.78352226473E+02  0.34060020511E+02  0.10037211612E+03  0.00000000000E+00 0.  1.
          2    1    6    6  502    0  0.83923372606E+02  0.13470659270E+03 -0.71884395555E+03  0.73615598280E+03  0.00000000000E+00 0. -1.
          1    1    5    5  503    0 -0.36466889753E+03 -0.57400921601E+02 -0.67082983594E+03  0.76569637547E+03  0.00000000000E+00 0. -1.
         -2    1    5    5    0  503 -0.13683233744E+01 -0.11551656386E+02 -0.23240295102E+02  0.25988928230E+02  0.00000000000E+00 0.  1.
         -1    1    6    6    0  502  0.22424661238E+03  0.28179013364E+03 -0.11843346376E+04  0.12378775207E+04  0.00000000000E+00 0.  1.
<mgrwt>
<rscale>  0 0.19904086E+04</rscale>
<asrwt>0</asrwt>
<pdfrwt beam="1">  1        2 0.43145942E+00 0.19904086E+04</pdfrwt>
<pdfrwt beam="2">  1       -2 0.54332266E-01 0.19904086E+04</pdfrwt>
<totfact> 0.68242713E+00</totfact>
</mgrwt>
</event>
<event>
12    1  0.1755460E-007  0.1148793E+04  0.7818608E-02  0.9158898E-01
          2   -1    0    0  501    0  0.00000000000E+00  0.00000000000E+00  0.15952808690E+04  0.15952808690E+04  0.00000000000E+00 0. -1.
         -2   -1    0    0    0  501 -0.00000000000E+00 -0.00000000000E+00 -0.20681711990E+03  0.20681711990E+03  0.00000000000E+00 0.  1.
         23    2    1    2    0    0  0.79866907086E+02  0.15051414931E+03  0.99825997881E+02  0.21788678339E+03  0.92066218200E+02 0.  0.
        254    2    1    2    0    0 -0.79866907086E+02 -0.15051414931E+03  0.12886377512E+04  0.15842112055E+04  0.90559629957E+03 0.  0.
        -24    2    4    4    0    0  0.30479033232E+03  0.18157629912E+03  0.30542767362E+03  0.47469888909E+03  0.78650317302E+02 0.  0.
         24    2    4    4    0    0 -0.38465723941E+03 -0.33209044843E+03  0.98321007757E+03  0.11095123164E+04  0.77911910691E+02 0.  0.
         13    1    3    3    0    0  0.63425557833E+02  0.16109012956E+03  0.82560085232E+02  0.19180458519E+03  0.00000000000E+00 0.  1.
        -13    1    3    3    0    0  0.16441349253E+02 -0.10575980245E+02  0.17265912649E+02  0.26082198201E+02  0.00000000000E+00 0. -1.
          2    1    6    6  502    0 -0.35968296505E+03 -0.30241637426E+03  0.85580853820E+03  0.97633792963E+03  0.00000000000E+00 0. -1.
          3    1    5    5  503    0  0.24355550896E+03  0.17592517757E+03  0.26868024714E+03  0.40306082574E+03  0.00000000000E+00 0. -1.
         -4    1    5    5    0  503  0.61234823365E+02  0.56511215526E+01  0.36747426484E+02  0.71638063351E+02  0.00000000000E+00 0.  1.
         -1    1    6    6    0  502 -0.24974274358E+02 -0.29674074166E+02  0.12740153937E+03  0.13317438676E+03  0.00000000000E+00 0.  1.
<mgrwt>
<rscale>  0 0.11487931E+04</rscale>
<asrwt>0</asrwt>
<pdfrwt beam="1">  1        2 0.24542782E+00 0.11487931E+04</pdfrwt>
<pdfrwt beam="2">  1       -2 0.31818020E-01 0.11487931E+04</pdfrwt>
<totfact> 0.10194173E+02</totfact>
</mgrwt>
</event>
<event>
12    1  0.1755460E-007  0.2122316E+04  0.7818608E-02  0.8551476E-01
         -2   -1    0    0    0  501 -0.00000000000E+00  0.00000000000E+00  0.30299611796E+03  0.30299611796E+03  0.00000000000E+00 0.  1.
          2   -1    0    0  501    0  0.00000000000E+00 -0.00000000000E+00 -0.37164067850E+04  0.37164067850E+04  0.00000000000E+00 0. -1.
         23    2    1    2    0    0 -0.25336159436E+03  0.70515539267E+03 -0.22277631727E+04  0.23520140377E+04  0.87206962522E+02 0.  0.
        254    2    1    2    0    0  0.25336159436E+03 -0.70515539267E+03 -0.11856474943E+04  0.16673888653E+04  0.90165926049E+03 0.  0.
        -24    2    4    4    0    0  0.26738637247E+03 -0.39666536452E+03 -0.49459883939E+02  0.48728533896E+03  0.78497374783E+02 0.  0.
         24    2    4    4    0    0 -0.14024778108E+02 -0.30849002814E+03 -0.11361876104E+04  0.11801035263E+04  0.79744937381E+02 0.  0.
         13    1    3    3    0    0  0.24893144653E+01  0.62152944862E+02 -0.19509762863E+03  0.20477370422E+03  0.00000000000E+00 0.  1.
        -13    1    3    3    0    0 -0.25585090883E+03  0.64300244781E+03 -0.20326655441E+04  0.21472403334E+04  0.00000000000E+00 0. -1.
          2    1    6    6  502    0 -0.20886341786E+02 -0.73315543369E+02 -0.40117615680E+03  0.40835489094E+03  0.00000000000E+00 0. -1.
          3    1    5    5  503    0  0.18882288837E+03 -0.29563367369E+03 -0.20271865853E+01  0.35079546987E+03  0.00000000000E+00 0. -1.
         -4    1    5    5    0  503  0.78563484100E+02 -0.10103169083E+03 -0.47432697354E+02  0.13648986909E+03  0.00000000000E+00 0.  1.
         -1    1    6    6    0  502  0.68615636775E+01 -0.23517448478E+03 -0.73501145358E+03  0.77174863540E+03  0.00000000000E+00 0.  1.
<mgrwt>
<rscale>  0 0.21223165E+04</rscale>
<asrwt>0</asrwt>
<pdfrwt beam="1">  1        2 0.57175489E+00 0.21223165E+04</pdfrwt>
<pdfrwt beam="2">  1       -2 0.46614787E-01 0.21223165E+04</pdfrwt>
<totfact> 0.22913720E+00</totfact>
</mgrwt>
</event>
<event>
12    1  0.1755460E-007  0.1732450E+04  0.7818608E-02  0.8743070E-01
          1   -1    0    0  501    0  0.00000000000E+00  0.00000000000E+00  0.21386218069E+04  0.21386218069E+04  0.00000000000E+00 0. -1.
         -1   -1    0    0    0  501 -0.00000000000E+00 -0.00000000000E+00 -0.35085484967E+03  0.35085484967E+03  0.00000000000E+00 0.  1.
         23    2    1    2    0    0  0.20590265155E+03 -0.34396197292E+03 -0.39647578542E+02  0.41342030178E+03  0.92944471136E+02 0.  0.
        254    2    1    2    0    0 -0.20590265155E+03  0.34396197292E+03  0.18274145358E+04  0.20760563548E+04  0.89992241996E+03 0.  0.
        -24    2    4    4    0    0 -0.32353624236E+03 -0.12038888406E+03  0.13475980758E+04  0.13933468755E+04  0.78903473507E+02 0.  0.
         24    2    4    4    0    0  0.11763359081E+03  0.46435085698E+03  0.47981646005E+03  0.68270947932E+03  0.80056341112E+02 0.  0.
         13    1    3    3    0    0  0.93867439127E+02 -0.17716278136E+03  0.25687251030E+02  0.20213258543E+03  0.00000000000E+00 0. -1.
        -13    1    3    3    0    0  0.11203521242E+03 -0.16679919156E+03 -0.65334829571E+02  0.21128771636E+03  0.00000000000E+00 0.  1.
          2    1    6    6  502    0  0.10361659094E+03  0.38250954989E+03  0.35064228902E+03  0.52915023247E+03  0.00000000000E+00 0. -1.
          3    1    5    5  503    0 -0.32562820093E+03 -0.11270362179E+03  0.12911580805E+04  0.13363476421E+04  0.00000000000E+00 0. -1.
         -4    1    5    5    0  503  0.20919585703E+01 -0.76852622744E+01  0.56439995255E+02  0.56999233427E+02  0.00000000000E+00 0.  1.
         -3    1    6    6    0  502  0.14016999878E+02  0.81841307088E+02  0.12917417102E+03  0.15355924684E+03  0.00000000000E+00 0.  1.
<mgrwt>
<rscale>  0 0.17324501E+04</rscale>
<asrwt>0</asrwt>
<pdfrwt beam="1">  1        1 0.32901873E+00 0.17324501E+04</pdfrwt>
<pdfrwt beam="2">  1       -1 0.53977670E-01 0.17324501E+04</pdfrwt>
<totfact> 0.78914796E+00</totfact>
</mgrwt>
</event>
<event>
12    1  0.1755460E-007  0.1562093E+04  0.7818608E-02  0.8844180E-01
          1   -1    0    0  501    0  0.00000000000E+00  0.00000000000E+00  0.11092545286E+04  0.11092545286E+04  0.00000000000E+00 0. -1.
         -1   -1    0    0    0  501 -0.00000000000E+00 -0.00000000000E+00 -0.54994950262E+03  0.54994950262E+03  0.00000000000E+00 0.  1.
         23    2    1    2    0    0  0.26347132260E+02 -0.14650777607E+03 -0.33435360978E+03  0.37930977081E+03  0.99623621875E+02 0.  0.
        254    2    1    2    0    0 -0.26347132260E+02  0.14650777607E+03  0.89365863579E+03  0.12798942604E+04  0.90407126972E+03 0.  0.
        -24    2    4    4    0    0 -0.37503216858E+03 -0.87422407976E+02  0.71440308590E+03  0.81551090691E+03  0.79965400400E+02 0.  0.
         24    2    4    4    0    0  0.34868503632E+03  0.23393018404E+03  0.17925554989E+03  0.46438335352E+03  0.84939750987E+02 0.  0.
         13    1    3    3    0    0  0.18176922832E+02 -0.19338539551E+02 -0.61613369251E+01  0.27245948475E+02  0.00000000000E+00 0. -1.
        -13    1    3    3    0    0  0.81702094279E+01 -0.12716923652E+03 -0.32819227285E+03  0.35206382234E+03  0.00000000000E+00 0.  1.
          4    1    6    6  502    0  0.60956516370E+01 -0.56065519633E+01 -0.23572768808E+01  0.86108738285E+01  0.00000000000E+00 0. -1.
          3    1    5    5  503    0 -0.26072414021E+03 -0.22236191358E+02  0.46967538813E+03  0.53764904511E+03  0.00000000000E+00 0. -1.
         -4    1    5    5    0  503 -0.11430802837E+03 -0.65186216618E+02  0.24472769777E+03  0.27786186180E+03  0.00000000000E+00 0.  1.
         -3    1    6    6    0  502  0.34258938469E+03  0.23953673601E+03  0.18161282677E+03  0.45577247969E+03  0.00000000000E+00 0.  1.
<mgrwt>
<rscale>  0 0.15620934E+04</rscale>
<asrwt>0</asrwt>
<pdfrwt beam="1">  1        1 0.17065454E+00 0.15620934E+04</pdfrwt>
<pdfrwt beam="2">  1       -1 0.84607616E-01 0.15620934E+04</pdfrwt>
<totfact> 0.16610086E+01</totfact>
</mgrwt>
</event>
<event>
12    1  0.1755460E-007  0.2292201E+04  0.7818608E-02  0.8481003E-01
          2   -1    0    0  501    0  0.00000000000E+00  0.00000000000E+00  0.39020797120E+04  0.39020797120E+04  0.00000000000E+00 0. -1.
         -2   -1    0    0    0  501 -0.00000000000E+00 -0.00000000000E+00 -0.33662717074E+03  0.33662717074E+03  0.00000000000E+00 0.  1.
         23    2    1    2    0    0 -0.80061115637E+03 -0.51772664255E+02  0.51403008815E+03  0.95716350889E+03  0.90974824910E+02 0.  0.
        254    2    1    2    0    0  0.80061115637E+03  0.51772664255E+02  0.30514224531E+04  0.32815433739E+04  0.90204727963E+03 0.  0.
        -24    2    4    4    0    0  0.83078854665E+03  0.27046236290E+03  0.28138391308E+04  0.29474561294E+04  0.80296211194E+02 0.  0.
         24    2    4    4    0    0 -0.30177390281E+02 -0.21868969865E+03  0.23758332233E+03  0.33408724450E+03  0.80203445768E+02 0.  0.
         13    1    3    3    0    0 -0.47594877836E+03  0.96535598925E+01  0.32621553110E+03  0.57709358303E+03  0.00000000000E+00 0.  1.
        -13    1    3    3    0    0 -0.32466237801E+03 -0.61426224147E+02  0.18781455705E+03  0.38006992587E+03  0.00000000000E+00 0. -1.
          2    1    6    6  502    0 -0.20929340311E+02 -0.98464023500E+02  0.53419356826E+02  0.11395976875E+03  0.00000000000E+00 0. -1.
          1    1    5    5  503    0  0.58991258104E+03  0.18940285331E+03  0.21127672445E+04  0.22017392496E+04  0.00000000000E+00 0. -1.
         -2    1    5    5    0  503  0.24087596562E+03  0.81059509595E+02  0.70107188635E+03  0.74571687974E+03  0.00000000000E+00 0.  1.
         -1    1    6    6    0  502 -0.92480499701E+01 -0.12022567515E+03  0.18416396550E+03  0.22012747575E+03  0.00000000000E+00 0.  1.
<mgrwt>
<rscale>  0 0.22922007E+04</rscale>
<asrwt>0</asrwt>
<pdfrwt beam="1">  1        2 0.60031992E+00 0.22922007E+04</pdfrwt>
<pdfrwt beam="2">  1       -2 0.51788798E-01 0.22922007E+04</pdfrwt>
<totfact> 0.13149907E+00</totfact>
</mgrwt>
</event>
<event>
12    1  0.1755460E-007  0.1846216E+04  0.7818608E-02  0.8682101E-01
         -2   -1    0    0    0  501 -0.00000000000E+00  0.00000000000E+00  0.57153315500E+03  0.57153315500E+03  0.00000000000E+00 0.  1.
          2   -1    0    0  501    0  0.00000000000E+00 -0.00000000000E+00 -0.14909520135E+04  0.14909520135E+04  0.00000000000E+00 0. -1.
         23    2    1    2    0    0 -0.40669577882E+03  0.51874140480E+03 -0.95728220072E+02  0.67227839393E+03  0.91105681841E+02 0.  0.
        254    2    1    2    0    0  0.40669577882E+03 -0.51874140480E+03 -0.82369063838E+03  0.13902067745E+04  0.90538086272E+03 0.  0.
        -24    2    4    4    0    0 -0.19332398202E+03 -0.38256325646E+03 -0.12089447458E+03  0.45280960051E+03  0.81806192415E+02 0.  0.
         24    2    4    4    0    0  0.60001976084E+03 -0.13617814835E+03 -0.70279616380E+03  0.93739717401E+03  0.78884805218E+02 0.  0.
         11    1    3    3    0    0 -0.36085287052E+03  0.46287558645E+03 -0.55408103452E+02  0.58952409673E+03  0.00000000000E+00 0.  1.
        -11    1    3    3    0    0 -0.45842908298E+02  0.55865818350E+02 -0.40320116620E+02  0.82754297202E+02  0.00000000000E+00 0. -1.
          2    1    6    6  502    0  0.98708956815E+02 -0.52726153244E+02 -0.11787541307E+03  0.16253651405E+03  0.00000000000E+00 0. -1.
          3    1    5    5  503    0 -0.43564097639E+02 -0.17116903199E+03 -0.61453541267E+02  0.18701124525E+03  0.00000000000E+00 0. -1.
         -4    1    5    5    0  503 -0.14975988438E+03 -0.21139422447E+03 -0.59440933316E+02  0.26579835527E+03  0.00000000000E+00 0.  1.
         -1    1    6    6    0  502  0.50131080403E+03 -0.83451995103E+02 -0.58492075073E+03  0.77486065996E+03  0.00000000000E+00 0.  1.
<mgrwt>
<rscale>  0 0.18462161E+04</rscale>
<asrwt>0</asrwt>
<pdfrwt beam="1">  1        2 0.22937723E+00 0.18462161E+04</pdfrwt>
<pdfrwt beam="2">  1       -2 0.87928178E-01 0.18462161E+04</pdfrwt>
<totfact> 0.13471665E+01</totfact>
</mgrwt>
</event>
<event>
12    1  0.1755460E-007  0.1303875E+04  0.7818608E-02  0.9026497E-01
         -2   -1    0    0    0  501 -0.00000000000E+00  0.00000000000E+00  0.17333892837E+03  0.17333892837E+03  0.00000000000E+00 0.  1.
          2   -1    0    0  501    0  0.00000000000E+00 -0.00000000000E+00 -0.24519756256E+04  0.24519756256E+04  0.00000000000E+00 0. -1.
         23    2    1    2    0    0 -0.13194801798E+01  0.27625969272E+03 -0.97594025949E+03  0.10197885149E+04  0.10577365579E+03 0.  0.
        254    2    1    2    0    0  0.13194801798E+01 -0.27625969272E+03 -0.13026964378E+04  0.16055260391E+04  0.89686938530E+03 0.  0.
        -24    2    4    4    0    0 -0.35815004581E+03  0.36320682181E+02 -0.24462678874E+03  0.44243134634E+03  0.79451766452E+02 0.  0.
         24    2    4    4    0    0  0.35946952599E+03 -0.31258037490E+03 -0.10580696490E+04  0.11630946927E+04  0.79706029505E+02 0.  0.
         13    1    3    3    0    0  0.19716692083E+02  0.18395809891E+03 -0.47068258506E+03  0.50573849565E+03  0.00000000000E+00 0.  1.
        -13    1    3    3    0    0 -0.21036172263E+02  0.92301593808E+02 -0.50525767442E+03  0.51405001928E+03  0.00000000000E+00 0. -1.
          4    1    6    6  502    0  0.44615598563E+02 -0.17446431843E+02 -0.69242608103E+02  0.84198980968E+02  0.00000000000E+00 0. -1.
          1    1    5    5  503    0 -0.21757696520E+03 -0.87795647431E+01 -0.17421714876E+03  0.27886991854E+03  0.00000000000E+00 0. -1.
         -2    1    5    5    0  503 -0.14057308061E+03  0.45100246924E+02 -0.70409639977E+02  0.16356142780E+03  0.00000000000E+00 0.  1.
         -3    1    6    6    0  502  0.31485392743E+03 -0.29513394306E+03 -0.98882704095E+03  0.10788957118E+04  0.00000000000E+00 0.  1.
<mgrwt>
<rscale>  0 0.13038755E+04</rscale>
<asrwt>0</asrwt>
<pdfrwt beam="1">  1        2 0.37722700E+00 0.13038755E+04</pdfrwt>
<pdfrwt beam="2">  1       -2 0.26667528E-01 0.13038755E+04</pdfrwt>
<totfact> 0.46569163E+01</totfact>
</mgrwt>
</event>
<event>
12    1  0.1755460E-007  0.1745059E+04  0.7818608E-02  0.8736075E-01
         -2   -1    0    0    0  501 -0.00000000000E+00  0.00000000000E+00  0.29329429818E+03  0.29329429818E+03  0.00000000000E+00 0.  1.
          2   -1    0    0  501    0  0.00000000000E+00 -0.00000000000E+00 -0.25957112852E+04  0.25957112852E+04  0.00000000000E+00 0. -1.
         23    2    1    2    0    0 -0.65857747720E+02 -0.32920486866E+02  0.19741333600E+03  0.23167573413E+03  0.96335970247E+02 0.  0.
        254    2    1    2    0    0  0.65857747720E+02  0.32920486866E+02 -0.24998303230E+04  0.26573298492E+04  0.89823676304E+03 0.  0.
        -24    2    4    4    0    0  0.23106635962E+03  0.38907250678E+03 -0.17216049563E+04  0.17817832212E+04  0.77837932152E+02 0.  0.
         24    2    4    4    0    0 -0.16520861190E+03 -0.35615201992E+03 -0.77822536664E+03  0.87554662799E+03  0.82516845351E+02 0.  0.
         13    1    3    3    0    0 -0.88817406499E+02 -0.33398651109E+02  0.17753596663E+03  0.20130330608E+03  0.00000000000E+00 0.  1.
        -13    1    3    3    0    0  0.22959658779E+02  0.47816424245E+00  0.19877369367E+02  0.30372428043E+02  0.00000000000E+00 0. -1.
          2    1    6    6  502    0 -0.12146025638E+03 -0.24132971258E+03 -0.61067457763E+03  0.66776946907E+03  0.00000000000E+00 0. -1.
          3    1    5    5  503    0  0.77223240588E+02  0.13698853988E+03 -0.46230606967E+03  0.48831976307E+03  0.00000000000E+00 0. -1.
         -4    1    5    5    0  503  0.15384311904E+03  0.25208396690E+03 -0.12592988867E+04  0.12934634581E+04  0.00000000000E+00 0.  1.
         -1    1    6    6    0  502 -0.43748355525E+02 -0.11482230734E+03 -0.16755078901E+03  0.20777715893E+03  0.00000000000E+00 0.  1.
<mgrwt>
<rscale>  0 0.17450585E+04</rscale>
<asrwt>0</asrwt>
<pdfrwt beam="1">  1        2 0.39934019E+00 0.17450585E+04</pdfrwt>
<pdfrwt beam="2">  1       -2 0.45122200E-01 0.17450585E+04</pdfrwt>
<totfact> 0.13543804E+01</totfact>
</mgrwt>
</event>
<event>
12    1  0.1755460E-007  0.1315535E+04  0.7818608E-02  0.9017335E-01
         -2   -1    0    0    0  501 -0.00000000000E+00  0.00000000000E+00  0.34677940392E+03  0.34677940392E+03  0.00000000000E+00 0.  1.
          2   -1    0    0  501    0  0.00000000000E+00 -0.00000000000E+00 -0.12476471970E+04  0.12476471970E+04  0.00000000000E+00 0. -1.
         23    2    1    2    0    0 -0.11899565996E+03 -0.56929017667E+02  0.13613955935E+03  0.21172504979E+03  0.94300779151E+02 0.  0.
        254    2    1    2    0    0  0.11899565996E+03  0.56929017667E+02 -0.10370073524E+04  0.13827015511E+04  0.90502953009E+03 0.  0.
        -24    2    4    4    0    0  0.35492270654E+03 -0.28319113319E+03 -0.72103245662E+03  0.85582964260E+03  0.79932647330E+02 0.  0.
         24    2    4    4    0    0 -0.23592704658E+03  0.34012015086E+03 -0.31597489577E+03  0.52687190850E+03  0.80066128153E+02 0.  0.
         11    1    3    3    0    0 -0.11271356909E+03 -0.42345925746E+02  0.61094951229E+02  0.13501895849E+03  0.00000000000E+00 0. -1.
        -11    1    3    3    0    0 -0.62820908656E+01 -0.14583091921E+02  0.75044608121E+02  0.76706091308E+02  0.00000000000E+00 0.  1.
          4    1    6    6  502    0 -0.94561276960E+02  0.73508212851E+02 -0.93972379108E+02  0.15223698792E+03  0.00000000000E+00 0. -1.
          3    1    5    5  503    0  0.19239261545E+03 -0.11965570805E+03 -0.41301101713E+03  0.47107378108E+03  0.00000000000E+00 0. -1.
         -4    1    5    5    0  503  0.16253009109E+03 -0.16353542514E+03 -0.30802143949E+03  0.38475586152E+03  0.00000000000E+00 0.  1.
         -3    1    6    6    0  502 -0.14136576962E+03  0.26661193801E+03 -0.22200251666E+03  0.37463492057E+03  0.00000000000E+00 0.  1.
<mgrwt>
<rscale>  0 0.13155354E+04</rscale>
<asrwt>0</asrwt>
<pdfrwt beam="1">  1        2 0.19194573E+00 0.13155354E+04</pdfrwt>
<pdfrwt beam="2">  1       -2 0.53350676E-01 0.13155354E+04</pdfrwt>
<totfact> 0.57529001E+01</totfact>
</mgrwt>
</event>
<event>
12    1  0.1755460E-007  0.1749907E+04  0.7818608E-02  0.8733402E-01
         -2   -1    0    0    0  501 -0.00000000000E+00  0.00000000000E+00  0.36409009388E+03  0.36409009388E+03  0.00000000000E+00 0.  1.
          2   -1    0    0  501    0  0.00000000000E+00 -0.00000000000E+00 -0.21026213131E+04  0.21026213131E+04  0.00000000000E+00 0. -1.
         23    2    1    2    0    0 -0.33167942985E+03  0.94858608860E+02  0.11986148699E+03  0.37639561906E+03  0.91090538052E+02 0.  0.
        254    2    1    2    0    0  0.33167942985E+03 -0.94858608860E+02 -0.18583927063E+04  0.20903157880E+04  0.89262939842E+03 0.  0.
        -24    2    4    4    0    0  0.13686939250E+03 -0.20364058195E+03 -0.18344047300E+04  0.18523404782E+04  0.76953341318E+02 0.  0.
         24    2    4    4    0    0  0.19481003735E+03  0.10878197309E+03 -0.23987976298E+02  0.23797530975E+03  0.79198211621E+02 0.  0.
         11    1    3    3    0    0 -0.22347398930E+02  0.20796189912E+02 -0.11007129586E+02  0.32450649539E+02  0.00000000000E+00 0. -1.
        -11    1    3    3    0    0 -0.30933203092E+03  0.74062418949E+02  0.13086861658E+03  0.34394496952E+03  0.00000000000E+00 0.  1.
          2    1    6    6  502    0  0.13731644183E+03  0.91165534439E+02 -0.50314865397E+02  0.17233265954E+03  0.00000000000E+00 0. -1.
          1    1    5    5  503    0  0.13027020244E+03 -0.20024397297E+03 -0.18239019184E+04  0.18394798673E+04  0.00000000000E+00 0. -1.
         -2    1    5    5    0  503  0.65991900582E+01 -0.33966089835E+01 -0.10502811571E+02  0.12860610907E+02  0.00000000000E+00 0.  1.
         -1    1    6    6    0  502  0.57493595519E+02  0.17616438650E+02  0.26326889100E+02  0.65642650206E+02  0.00000000000E+00 0.  1.
<mgrwt>
<rscale>  0 0.17499070E+04</rscale>
<asrwt>0</asrwt>
<pdfrwt beam="1">  1        2 0.32348020E+00 0.17499070E+04</pdfrwt>
<pdfrwt beam="2">  1       -2 0.56013860E-01 0.17499070E+04</pdfrwt>
<totfact> 0.16614836E+01</totfact>
</mgrwt>
</event>
<event>
12    1  0.1755460E-007  0.1430102E+04  0.7818608E-02  0.8932313E-01
          2   -1    0    0  501    0  0.00000000000E+00  0.00000000000E+00  0.35245067936E+04  0.35245067936E+04  0.00000000000E+00 0. -1.
         -2   -1    0    0    0  501 -0.00000000000E+00 -0.00000000000E+00 -0.14506925951E+03  0.14506925951E+03  0.00000000000E+00 0.  1.
         23    2    1    2    0    0 -0.26564933507E+03  0.27951680200E+03  0.15273235010E+04  0.15777199245E+04  0.88226252394E+02 0.  0.
        254    2    1    2    0    0  0.26564933507E+03 -0.27951680200E+03  0.18521140331E+04  0.20918561286E+04  0.89265696628E+03 0.  0.
        -24    2    4    4    0    0 -0.12264486863E+03 -0.45061634126E+03  0.58505569443E+03  0.75315621032E+03  0.82808578961E+02 0.  0.
         24    2    4    4    0    0  0.38829420370E+03  0.17109953925E+03  0.12670583386E+04  0.13386999183E+04  0.81444439472E+02 0.  0.
         13    1    3    3    0    0 -0.25031327293E+03  0.22501517258E+03  0.12398726534E+04  0.12847461847E+04  0.00000000000E+00 0. -1.
        -13    1    3    3    0    0 -0.15336062138E+02  0.54501629419E+02  0.28745084767E+03  0.29297373984E+03  0.00000000000E+00 0.  1.
          2    1    6    6  502    0  0.20591532653E+03  0.13412061134E+03  0.74271157987E+03  0.78231064863E+03  0.00000000000E+00 0. -1.
          1    1    5    5  503    0 -0.22596474261E+02 -0.22967218622E+03  0.26120717681E+03  0.34855286972E+03  0.00000000000E+00 0. -1.
         -2    1    5    5    0  503 -0.10004839437E+03 -0.22094415504E+03  0.32384851761E+03  0.40460334060E+03  0.00000000000E+00 0.  1.
         -1    1    6    6    0  502  0.18237887718E+03  0.36978927916E+02  0.52434675878E+03  0.55638926966E+03  0.00000000000E+00 0.  1.
<mgrwt>
<rscale>  0 0.14301015E+04</rscale>
<asrwt>0</asrwt>
<pdfrwt beam="1">  1        2 0.54223175E+00 0.14301015E+04</pdfrwt>
<pdfrwt beam="2">  1       -2 0.22318350E-01 0.14301015E+04</pdfrwt>
<totfact> 0.13579704E+01</totfact>
</mgrwt>
</event>
<event>
12    1  0.1755460E-007  0.2749712E+04  0.7818608E-02  0.8319053E-01
          2   -1    0    0  501    0  0.00000000000E+00  0.00000000000E+00  0.13315212355E+04  0.13315212355E+04  0.00000000000E+00 0. -1.
         -2   -1    0    0    0  501 -0.00000000000E+00 -0.00000000000E+00 -0.14196013900E+04  0.14196013900E+04  0.00000000000E+00 0.  1.
         23    2    1    2    0    0 -0.10210603541E+02 -0.10007966843E+04  0.67270092112E+03  0.12092895672E+04  0.90313167156E+02 0.  0.
        254    2    1    2    0    0  0.10210603541E+02  0.10007966843E+04 -0.76078107556E+03  0.15418330584E+04  0.89261586089E+03 0.  0.
        -24    2    4    4    0    0 -0.10484241509E+03  0.28472490020E+03  0.17206278067E+03  0.35764852634E+03  0.79035859620E+02 0.  0.
         24    2    4    4    0    0  0.11505301863E+03  0.71607178413E+03 -0.93284385622E+03  0.11841845320E+04  0.78098326715E+02 0.  0.
         13    1    3    3    0    0  0.18235701519E+01 -0.40094032230E+02  0.51042734936E+02  0.64932408074E+02  0.00000000000E+00 0.  1.
        -13    1    3    3    0    0 -0.12034173693E+02 -0.96070265210E+03  0.62165818619E+03  0.11443571591E+04  0.00000000000E+00 0. -1.
          2    1    6    6  502    0  0.74477158934E+01  0.12648974697E+03 -0.20925541768E+03  0.24462819623E+03  0.00000000000E+00 0. -1.
          3    1    5    5  503    0 -0.82482798995E+02  0.27793664786E+03  0.16290233157E+03  0.33254978873E+03  0.00000000000E+00 0. -1.
         -2    1    5    5    0  503 -0.22359616096E+02  0.67882523360E+01  0.91604490946E+01  0.25098737605E+02  0.00000000000E+00 0.  1.
         -1    1    6    6    0  502  0.10760530274E+03  0.58958203716E+03 -0.72358843855E+03  0.93955633579E+03  0.00000000000E+00 0.  1.
<mgrwt>
<rscale>  0 0.27497123E+04</rscale>
<asrwt>0</asrwt>
<pdfrwt beam="1">  1        2 0.20484942E+00 0.27497123E+04</pdfrwt>
<pdfrwt beam="2">  1       -2 0.21840021E+00 0.27497123E+04</pdfrwt>
<totfact> 0.14009743E+00</totfact>
</mgrwt>
</event>
<event>
12    1  0.1755460E-007  0.1540229E+04  0.7818608E-02  0.8858133E-01
         -2   -1    0    0    0  501 -0.00000000000E+00  0.00000000000E+00  0.48183415624E+03  0.48183415624E+03  0.00000000000E+00 0.  1.
          2   -1    0    0  501    0  0.00000000000E+00 -0.00000000000E+00 -0.12308720797E+04  0.12308720797E+04  0.00000000000E+00 0. -1.
         23    2    1    2    0    0 -0.18068393362E+03  0.30257542245E+03 -0.65671438216E+03  0.75155365198E+03  0.96749893643E+02 0.  0.
        254    2    1    2    0    0  0.18068393362E+03 -0.30257542245E+03 -0.92323541319E+02  0.96115258398E+03  0.88943357440E+03 0.  0.
        -24    2    4    4    0    0  0.18228793591E+03 -0.60886283620E+03 -0.76312460677E+02  0.64425560978E+03  0.72793229007E+02 0.  0.
         24    2    4    4    0    0 -0.16040022882E+01  0.30628741375E+03 -0.16011080642E+02  0.31689697420E+03  0.79704359396E+02 0.  0.
         13    1    3    3    0    0 -0.59721506198E+02  0.38476966581E+02 -0.17727752300E+03  0.19098286682E+03  0.00000000000E+00 0.  1.
        -13    1    3    3    0    0 -0.12096242742E+03  0.26409845587E+03 -0.47943685916E+03  0.56057078515E+03  0.00000000000E+00 0. -1.
          2    1    6    6  502    0 -0.38066501137E+02  0.11238207804E+03  0.28952950607E+01  0.11868939593E+03  0.00000000000E+00 0. -1.
          1    1    5    5  503    0  0.27605672849E+02 -0.65222163476E+02  0.13051869762E+02  0.72016352908E+02  0.00000000000E+00 0. -1.
         -2    1    5    5    0  503  0.15468226306E+03 -0.54364067273E+03 -0.89364330439E+02  0.57223925687E+03  0.00000000000E+00 0.  1.
         -1    1    6    6    0  502  0.36462498849E+02  0.19390533571E+03 -0.18906375703E+02  0.19820757826E+03  0.00000000000E+00 0.  1.
<mgrwt>
<rscale>  0 0.15402288E+04</rscale>
<asrwt>0</asrwt>
<pdfrwt beam="1">  1        2 0.18936494E+00 0.15402288E+04</pdfrwt>
<pdfrwt beam="2">  1       -2 0.74128330E-01 0.15402288E+04</pdfrwt>
<totfact> 0.28661366E+01</totfact>
</mgrwt>
</event>
<event>
12    1  0.1755460E-007  0.2525030E+04  0.7818608E-02  0.8394122E-01
          2   -1    0    0  501    0  0.00000000000E+00  0.00000000000E+00  0.21928697062E+04  0.21928697062E+04  0.00000000000E+00 0. -1.
         -2   -1    0    0    0  501 -0.00000000000E+00 -0.00000000000E+00 -0.72687598125E+03  0.72687598125E+03  0.00000000000E+00 0.  1.
         23    2    1    2    0    0  0.68608809844E+03 -0.18128323219E+03  0.16028551069E+04  0.17553334647E+04  0.92035806556E+02 0.  0.
        254    2    1    2    0    0 -0.68608809844E+03  0.18128323219E+03 -0.13686138191E+03  0.11644122227E+04  0.91298647169E+03 0.  0.
        -24    2    4    4    0    0 -0.80563499999E+03  0.14779431813E+03 -0.35875281336E+03  0.89769953544E+03  0.79183086343E+02 0.  0.
         24    2    4    4    0    0  0.11954690155E+03  0.33488914053E+02  0.22189143145E+03  0.26671268729E+03  0.80541176899E+02 0.  0.
         13    1    3    3    0    0  0.30750376998E+03 -0.93684495011E+02  0.83527404781E+03  0.89499613859E+03  0.00000000000E+00 0.  1.
        -13    1    3    3    0    0  0.37858432846E+03 -0.87598737177E+02  0.76758105904E+03  0.86033732612E+03  0.00000000000E+00 0. -1.
          2    1    6    6  502    0  0.79433228325E+02  0.10098517744E+01  0.68582683543E+02  0.10494875914E+03  0.00000000000E+00 0. -1.
          1    1    5    5  503    0 -0.25263449960E+03  0.60180004374E+02 -0.76831816198E+02  0.27083011519E+03  0.00000000000E+00 0. -1.
         -2    1    5    5    0  503 -0.55300050039E+03  0.87614313760E+02 -0.28192099716E+03  0.62686942025E+03  0.00000000000E+00 0.  1.
         -1    1    6    6    0  502  0.40113673221E+02  0.32479062279E+02  0.15330874791E+03  0.16176392815E+03  0.00000000000E+00 0.  1.
<mgrwt>
<rscale>  0 0.25250302E+04</rscale>
<asrwt>0</asrwt>
<pdfrwt beam="1">  1        2 0.33736457E+00 0.25250302E+04</pdfrwt>
<pdfrwt beam="2">  1       -2 0.11182708E+00 0.25250302E+04</pdfrwt>
<totfact> 0.29279089E+00</totfact>
</mgrwt>
</event>
<event>
12    1  0.1755460E-007  0.1472447E+04  0.7818608E-02  0.8902985E-01
         -2   -1    0    0    0  501 -0.00000000000E+00  0.00000000000E+00  0.29550919609E+03  0.29550919609E+03  0.00000000000E+00 0.  1.
          2   -1    0    0  501    0  0.00000000000E+00 -0.00000000000E+00 -0.18342065494E+04  0.18342065494E+04  0.00000000000E+00 0. -1.
         23    2    1    2    0    0 -0.19576159763E+03 -0.42672201135E+03 -0.48183827462E+03  0.67866687728E+03  0.89478094250E+02 0.  0.
        254    2    1    2    0    0  0.19576159763E+03  0.42672201135E+03 -0.10568590787E+04  0.14510488682E+04  0.87645731652E+03 0.  0.
        -24    2    4    4    0    0 -0.14440401891E+03 -0.17483175409E+03 -0.81693855456E+02  0.25318995091E+03  0.77540971800E+02 0.  0.
         24    2    4    4    0    0  0.34016561653E+03  0.60155376544E+03 -0.97516522327E+03  0.11978589173E+04  0.79619054174E+02 0.  0.
         13    1    3    3    0    0 -0.17869983319E+03 -0.42464904884E+03 -0.46308644777E+03  0.65323005379E+03  0.00000000000E+00 0. -1.
        -13    1    3    3    0    0 -0.17061764436E+02 -0.20729625144E+01 -0.18751826851E+02  0.25436823495E+02  0.00000000000E+00 0.  1.
          2    1    6    6  502    0  0.30482455919E+03  0.47642895078E+03 -0.78904540488E+03  0.97082192393E+03  0.00000000000E+00 0. -1.
          1    1    5    5  503    0 -0.13624463738E+03 -0.11807654408E+03 -0.75702340647E+02  0.19553903921E+03  0.00000000000E+00 0. -1.
         -2    1    5    5    0  503 -0.81593815305E+01 -0.56755210006E+02 -0.59915148087E+01  0.57650911697E+02  0.00000000000E+00 0.  1.
         -1    1    6    6    0  502  0.35341057349E+02  0.12512481466E+03 -0.18611981839E+03  0.22703699341E+03  0.00000000000E+00 0.  1.
<mgrwt>
<rscale>  0 0.14724468E+04</rscale>
<asrwt>0</asrwt>
<pdfrwt beam="1">  1        2 0.28218563E+00 0.14724468E+04</pdfrwt>
<pdfrwt beam="2">  1       -2 0.45462953E-01 0.14724468E+04</pdfrwt>
<totfact> 0.36691396E+01</totfact>
</mgrwt>
</event>
<event>
12    1  0.1755460E-007  0.3085362E+04  0.7818608E-02  0.8219767E-01
         -2   -1    0    0    0  501 -0.00000000000E+00  0.00000000000E+00  0.89499316721E+03  0.89499316721E+03  0.00000000000E+00 0.  1.
          2   -1    0    0  501    0  0.00000000000E+00 -0.00000000000E+00 -0.26590862807E+04  0.26590862807E+04  0.00000000000E+00 0. -1.
         23    2    1    2    0    0  0.80908889703E+02  0.32088475952E+03 -0.23880120644E+04  0.24124308793E+04  0.87794362480E+02 0.  0.
        254    2    1    2    0    0 -0.80908889703E+02 -0.32088475952E+03  0.62391895100E+03  0.11416485686E+04  0.89698011092E+03 0.  0.
        -24    2    4    4    0    0 -0.25848705731E+03 -0.57318221351E+03  0.36669195240E+03  0.73198579108E+03  0.77374425428E+02 0.  0.
         24    2    4    4    0    0  0.17757816760E+03  0.25229745399E+03  0.25722699860E+03  0.40966277750E+03  0.80435387506E+02 0.  0.
         11    1    3    3    0    0  0.50275324880E+02  0.57490450978E+02 -0.60736513539E+03  0.61214799513E+03  0.00000000000E+00 0.  1.
        -11    1    3    3    0    0  0.30633564822E+02  0.26339430854E+03 -0.17806469290E+04  0.18002828842E+04  0.00000000000E+00 0. -1.
          2    1    6    6  502    0  0.76388373312E+02  0.87471921064E+02  0.14599290251E+03  0.18654878219E+03  0.00000000000E+00 0. -1.
          1    1    5    5  503    0 -0.20974016301E+03 -0.50498502961E+03  0.29294983451E+03  0.62033895706E+03  0.00000000000E+00 0. -1.
         -2    1    5    5    0  503 -0.48746894292E+02 -0.68197183897E+02  0.73742117891E+02  0.11164683402E+03  0.00000000000E+00 0.  1.
         -1    1    6    6    0  502  0.10118979429E+03  0.16482553292E+03  0.11123409609E+03  0.22311399531E+03  0.00000000000E+00 0.  1.
<mgrwt>
<rscale>  0 0.30853616E+04</rscale>
<asrwt>0</asrwt>
<pdfrwt beam="1">  1        2 0.40909019E+00 0.30853616E+04</pdfrwt>
<pdfrwt beam="2">  1       -2 0.13769126E+00 0.30853616E+04</pdfrwt>
<totfact> 0.89492536E-01</totfact>
</mgrwt>
</event>
<event>
12    1  0.1755460E-007  0.1909630E+04  0.7818608E-02  0.8650078E-01
         -1   -1    0    0    0  501 -0.00000000000E+00  0.00000000000E+00  0.33368155893E+03  0.33368155893E+03  0.00000000000E+00 0.  1.
          1   -1    0    0  501    0  0.00000000000E+00 -0.00000000000E+00 -0.27321594277E+04  0.27321594277E+04  0.00000000000E+00 0. -1.
         23    2    1    2    0    0  0.62423833674E+02  0.39978357608E+03 -0.19223501459E+04  0.19664546194E+04  0.88261227055E+02 0.  0.
        254    2    1    2    0    0 -0.62423833674E+02 -0.39978357608E+03 -0.47612772291E+03  0.10993863672E+04  0.90456018771E+03 0.  0.
        -24    2    4    4    0    0 -0.29945364460E+03 -0.46791008618E+03 -0.39794514460E+01  0.56083573760E+03  0.76867122543E+02 0.  0.
         24    2    4    4    0    0  0.23702981092E+03  0.68126510106E+02 -0.47214827146E+03  0.53855062961E+03  0.79299670664E+02 0.  0.
         13    1    3    3    0    0  0.64608923187E+01  0.28828829659E+03 -0.14035960105E+04  0.14329108994E+04  0.00000000000E+00 0. -1.
        -13    1    3    3    0    0  0.55962941355E+02  0.11149527948E+03 -0.51875413540E+03  0.53354371999E+03  0.00000000000E+00 0.  1.
          2    1    6    6  502    0  0.74251993985E+02  0.60903544430E+02 -0.16830954910E+03  0.19378004193E+03  0.00000000000E+00 0. -1.
          3    1    5    5  503    0 -0.81418480260E+02 -0.18459832768E+03  0.18688117801E+02  0.20261973560E+03  0.00000000000E+00 0. -1.
         -4    1    5    5    0  503 -0.21803516434E+03 -0.28331175850E+03 -0.22667569247E+02  0.35821600200E+03  0.00000000000E+00 0.  1.
         -1    1    6    6    0  502  0.16277781694E+03  0.72229656757E+01 -0.30383872236E+03  0.34477058768E+03  0.00000000000E+00 0.  1.
<mgrwt>
<rscale>  0 0.19096295E+04</rscale>
<asrwt>0</asrwt>
<pdfrwt beam="1">  1        1 0.42033221E+00 0.19096295E+04</pdfrwt>
<pdfrwt beam="2">  1       -1 0.51335626E-01 0.19096295E+04</pdfrwt>
<totfact> 0.33273850E+00</totfact>
</mgrwt>
</event>
<event>
12    1  0.1755460E-007  0.1901929E+04  0.7818608E-02  0.8653897E-01
         -1   -1    0    0    0  501 -0.00000000000E+00  0.00000000000E+00  0.29143336960E+03  0.29143336960E+03  0.00000000000E+00 0.  1.
          1   -1    0    0  501    0  0.00000000000E+00 -0.00000000000E+00 -0.31030536237E+04  0.31030536237E+04  0.00000000000E+00 0. -1.
         23    2    1    2    0    0 -0.12864528075E+03  0.59483912668E+03 -0.35813822750E+03  0.71186977090E+03  0.90068783918E+02 0.  0.
        254    2    1    2    0    0  0.12864528075E+03 -0.59483912668E+03 -0.24534820266E+04  0.26826172224E+04  0.89804115286E+03 0.  0.
        -24    2    4    4    0    0 -0.16164458717E+02 -0.62635492446E+03 -0.79542327713E+03  0.10159449036E+04  0.82849721228E+02 0.  0.
         24    2    4    4    0    0  0.14480973946E+03  0.31515797778E+02 -0.16580587495E+04  0.16666723188E+04  0.81698808496E+02 0.  0.
         11    1    3    3    0    0  0.10009096202E+02  0.67683465480E+02 -0.23924499532E+02  0.72481826578E+02  0.00000000000E+00 0. -1.
        -11    1    3    3    0    0 -0.13865437695E+03  0.52715566120E+03 -0.33421372797E+03  0.63938794432E+03  0.00000000000E+00 0.  1.
          4    1    6    6  502    0  0.11942107779E+03  0.86328476675E+01 -0.15091102838E+04  0.15138526244E+04  0.00000000000E+00 0. -1.
          1    1    5    5  503    0 -0.41260638156E+02 -0.29832880952E+03 -0.41920589852E+03  0.51617449007E+03  0.00000000000E+00 0. -1.
         -2    1    5    5    0  503  0.25096179439E+02 -0.32802611494E+03 -0.37621737861E+03  0.49977041356E+03  0.00000000000E+00 0.  1.
         -3    1    6    6    0  502  0.25388661671E+02  0.22882950111E+02 -0.14894846568E+03  0.15281969433E+03  0.00000000000E+00 0.  1.
<mgrwt>
<rscale>  0 0.19019289E+04</rscale>
<asrwt>0</asrwt>
<pdfrwt beam="1">  1        1 0.47739285E+00 0.19019289E+04</pdfrwt>
<pdfrwt beam="2">  1       -1 0.44835904E-01 0.19019289E+04</pdfrwt>
<totfact> 0.23226320E+00</totfact>
</mgrwt>
</event>
<event>
12    1  0.1755460E-007  0.2589357E+04  0.7818608E-02  0.8371825E-01
         -1   -1    0    0    0  501 -0.00000000000E+00  0.00000000000E+00  0.61898166974E+03  0.61898166974E+03  0.00000000000E+00 0.  1.
          1   -1    0    0  501    0  0.00000000000E+00 -0.00000000000E+00 -0.27079845885E+04  0.27079845885E+04  0.00000000000E+00 0. -1.
         23    2    1    2    0    0 -0.72456713213E+03 -0.36219262913E+03 -0.19454800843E+04  0.21093177024E+04  0.90262848038E+02 0.  0.
        254    2    1    2    0    0  0.72456713213E+03  0.36219262913E+03 -0.14352283441E+03  0.12176485558E+04  0.89771274462E+03 0.  0.
        -24    2    4    4    0    0 -0.20089277724E+03  0.75504045875E+02 -0.83856687884E+02  0.24365059239E+03  0.79214254893E+02 0.  0.
         24    2    4    4    0    0  0.92545990937E+03  0.28668858326E+03 -0.59666146530E+02  0.97399796340E+03  0.80284469569E+02 0.  0.
         13    1    3    3    0    0 -0.56279673469E+03 -0.27519664469E+03 -0.15950364226E+04  0.17136553175E+04  0.00000000000E+00 0. -1.
        -13    1    3    3    0    0 -0.16177039744E+03 -0.86995984439E+02 -0.35044366172E+03  0.39566238491E+03  0.00000000000E+00 0.  1.
          4    1    6    6  502    0  0.15757009193E+03  0.73636331376E+02  0.89087928178E+01  0.17415513130E+03  0.00000000000E+00 0. -1.
          1    1    5    5  503    0 -0.72121313943E+02  0.65818272517E+02 -0.52089275685E+02  0.11066535846E+03  0.00000000000E+00 0. -1.
         -2    1    5    5    0  503 -0.12877146329E+03  0.96857733579E+01 -0.31767412199E+02  0.13298523393E+03  0.00000000000E+00 0.  1.
         -1    1    6    6    0  502  0.76788981744E+03  0.21305225188E+03 -0.68574939348E+02  0.79984283210E+03  0.00000000000E+00 0.  1.
<mgrwt>
<rscale>  0 0.25893573E+04</rscale>
<asrwt>0</asrwt>
<pdfrwt beam="1">  1        1 0.41661302E+00 0.25893573E+04</pdfrwt>
<pdfrwt beam="2">  1       -1 0.95227948E-01 0.25893573E+04</pdfrwt>
<totfact> 0.90913914E-01</totfact>
</mgrwt>
</event>
<event>
12    1  0.1755460E-007  0.2292736E+04  0.7818608E-02  0.8480791E-01
          2   -1    0    0  501    0  0.00000000000E+00  0.00000000000E+00  0.14950756628E+04  0.14950756628E+04  0.00000000000E+00 0. -1.
         -2   -1    0    0    0  501 -0.00000000000E+00 -0.00000000000E+00 -0.87899171190E+03  0.87899171190E+03  0.00000000000E+00 0.  1.
         23    2    1    2    0    0  0.86333173792E+03 -0.24934747368E+03  0.60442568702E+03  0.10867884703E+04  0.90900581709E+02 0.  0.
        254    2    1    2    0    0 -0.86333173792E+03  0.24934747368E+03  0.11658263904E+02  0.12872789044E+04  0.92164809459E+03 0.  0.
        -24    2    4    4    0    0  0.11966529903E+03  0.61721088048E+02  0.21334915802E+03  0.26390321876E+03  0.77445265442E+02 0.  0.
         24    2    4    4    0    0 -0.98299703695E+03  0.18762638563E+03 -0.20169089412E+03  0.10233756856E+04  0.71636177660E+02 0.  0.
         11    1    3    3    0    0  0.55179877832E+03 -0.15438581291E+03  0.43682770009E+03  0.72051045137E+03  0.00000000000E+00 0. -1.
        -11    1    3    3    0    0  0.31153295961E+03 -0.94961660768E+02  0.16759798694E+03  0.36627801895E+03  0.00000000000E+00 0.  1.
          4    1    6    6  502    0 -0.53404752162E+03  0.13760780264E+03 -0.10423488663E+03  0.56125535569E+03  0.00000000000E+00 0. -1.
          3    1    5    5  503    0  0.97183715048E+02  0.85324739565E+01  0.13165299359E+03  0.16385966039E+03  0.00000000000E+00 0. -1.
         -4    1    5    5    0  503  0.22481583981E+02  0.53188614092E+02  0.81696164432E+02  0.10004355836E+03  0.00000000000E+00 0.  1.
         -3    1    6    6    0  502 -0.44894951533E+03  0.50018582984E+02 -0.97456007487E+02  0.46212032995E+03  0.00000000000E+00 0.  1.
<mgrwt>
<rscale>  0 0.22927356E+04</rscale>
<asrwt>0</asrwt>
<pdfrwt beam="1">  1        2 0.23001164E+00 0.22927356E+04</pdfrwt>
<pdfrwt beam="2">  1       -2 0.13522949E+00 0.22927356E+04</pdfrwt>
<totfact> 0.45531138E+00</totfact>
</mgrwt>
</event>
<event>
12    1  0.1755460E-007  0.1538989E+04  0.7818608E-02  0.8858932E-01
          2   -1    0    0  501    0  0.00000000000E+00  0.00000000000E+00  0.10558574497E+04  0.10558574497E+04  0.00000000000E+00 0. -1.
         -2   -1    0    0    0  501 -0.00000000000E+00 -0.00000000000E+00 -0.56079676441E+03  0.56079676441E+03  0.00000000000E+00 0.  1.
         23    2    1    2    0    0 -0.16816018784E+02 -0.15679740242E+03 -0.34119302436E+03  0.38665018961E+03  0.90650346713E+02 0.  0.
        254    2    1    2    0    0  0.16816018784E+02  0.15679740242E+03  0.83625370961E+03  0.12300040245E+04  0.88809989836E+03 0.  0.
        -24    2    4    4    0    0 -0.80776633832E+02  0.50553689050E+03  0.58865184780E+03  0.78408994998E+03  0.78699679224E+02 0.  0.
         24    2    4    4    0    0  0.97592652617E+02 -0.34873948808E+03  0.24760186182E+03  0.44591407449E+03  0.79931992754E+02 0.  0.
         13    1    3    3    0    0  0.79723670104E+01 -0.15269073246E+03 -0.25965196958E+03  0.30132567717E+03  0.00000000000E+00 0.  1.
        -13    1    3    3    0    0 -0.24788385795E+02 -0.41066699616E+01 -0.81541054780E+02  0.85324512440E+02  0.00000000000E+00 0. -1.
          2    1    6    6  502    0  0.45321235954E+02 -0.10234897931E+03  0.11802805633E+03  0.16266514708E+03  0.00000000000E+00 0. -1.
          1    1    5    5  503    0  0.97098974581E+01  0.15893482848E+03  0.16525576360E+03  0.22948644669E+03  0.00000000000E+00 0. -1.
         -2    1    5    5    0  503 -0.90486531290E+02  0.34660206202E+03  0.42339608420E+03  0.55460350328E+03  0.00000000000E+00 0.  1.
         -1    1    6    6    0  502  0.52271416663E+02 -0.24639050876E+03  0.12957380548E+03  0.28324892741E+03  0.00000000000E+00 0.  1.
<mgrwt>
<rscale>  0 0.15389886E+04</rscale>
<asrwt>0</asrwt>
<pdfrwt beam="1">  1        2 0.16243961E+00 0.15389886E+04</pdfrwt>
<pdfrwt beam="2">  1       -2 0.86276425E-01 0.15389886E+04</pdfrwt>
<totfact> 0.26046399E+01</totfact>
</mgrwt>
</event>
<event>
12    1  0.1755460E-007  0.1814301E+04  0.7818608E-02  0.8698731E-01
         -2   -1    0    0    0  501 -0.00000000000E+00  0.00000000000E+00  0.27599645891E+03  0.27599645891E+03  0.00000000000E+00 0.  1.
          2   -1    0    0  501    0  0.00000000000E+00 -0.00000000000E+00 -0.29816389577E+04  0.29816389577E+04  0.00000000000E+00 0. -1.
         23    2    1    2    0    0  0.18457589265E+03  0.25838210014E+03  0.51739749647E+02  0.33416207733E+03  0.90320110802E+02 0.  0.
        254    2    1    2    0    0 -0.18457589265E+03 -0.25838210014E+03 -0.27573822485E+04  0.29234733393E+04  0.91799233746E+03 0.  0.
        -24    2    4    4    0    0  0.34460790621E+03 -0.25094329207E+03 -0.13434163524E+04  0.14115952721E+04  0.78144554565E+02 0.  0.
         24    2    4    4    0    0 -0.52918379885E+03 -0.74388080653E+01 -0.14139658961E+04  0.15118780672E+04  0.79905607261E+02 0.  0.
         11    1    3    3    0    0  0.53869439542E+02  0.14943543513E+03  0.11205498184E+02  0.15924330121E+03  0.00000000000E+00 0.  1.
        -11    1    3    3    0    0  0.13070645311E+03  0.10894666500E+03  0.40534251463E+02  0.17491877613E+03  0.00000000000E+00 0. -1.
          2    1    6    6  502    0 -0.35463239373E+03  0.26822762051E+02 -0.88414050881E+03  0.95298900023E+03  0.00000000000E+00 0. -1.
          1    1    5    5  503    0  0.14805084071E+03 -0.14648374614E+03 -0.72586076115E+03  0.75514924611E+03  0.00000000000E+00 0. -1.
         -2    1    5    5    0  503  0.19655706550E+03 -0.10445954593E+03 -0.61755559126E+03  0.65644602599E+03  0.00000000000E+00 0.  1.
         -1    1    6    6    0  502 -0.17455140512E+03 -0.34261570116E+02 -0.52982538725E+03  0.55888906698E+03  0.00000000000E+00 0.  1.
<mgrwt>
<rscale>  0 0.18143007E+04</rscale>
<asrwt>0</asrwt>
<pdfrwt beam="1">  1        2 0.45871371E+00 0.18143007E+04</pdfrwt>
<pdfrwt beam="2">  1       -2 0.42460992E-01 0.18143007E+04</pdfrwt>
<totfact> 0.88961101E+00</totfact>
</mgrwt>
</event>
<event>
12    1  0.1755460E-007  0.2162157E+04  0.7818608E-02  0.8534347E-01
         -2   -1    0    0    0  501 -0.00000000000E+00  0.00000000000E+00  0.49900855452E+03  0.49900855452E+03  0.00000000000E+00 0. -1.
          2   -1    0    0  501    0  0.00000000000E+00 -0.00000000000E+00 -0.23421045898E+04  0.23421045898E+04  0.00000000000E+00 0.  1.
         23    2    1    2    0    0 -0.74214838485E+03 -0.30300677466E+03 -0.12814531533E+04  0.15142527423E+04  0.90784650746E+02 0.  0.
        254    2    1    2    0    0  0.74214838485E+03  0.30300677466E+03 -0.56164288206E+03  0.13268604021E+04  0.89583395173E+03 0.  0.
        -24    2    4    4    0    0  0.59638383753E+03  0.30271932128E+02 -0.74563793154E+03  0.95849258770E+03  0.78371194930E+02 0.  0.
         24    2    4    4    0    0  0.14576454732E+03  0.27273484253E+03  0.18399504948E+03  0.36836781440E+03  0.78797657723E+02 0.  0.
         11    1    3    3    0    0 -0.30231611460E+03 -0.16550842979E+03 -0.50664974271E+03  0.61276588945E+03  0.00000000000E+00 0.  1.
        -11    1    3    3    0    0 -0.43983227025E+03 -0.13749834486E+03 -0.77480341055E+03  0.90148685281E+03  0.00000000000E+00 0. -1.
          2    1    6    6  502    0  0.14370733121E+03  0.25000938533E+03  0.14400543054E+03  0.32232600550E+03  0.00000000000E+00 0. -1.
          3    1    5    5  503    0  0.56511017467E+03  0.38843894263E+02 -0.67799922994E+03  0.88348249187E+03  0.00000000000E+00 0. -1.
         -2    1    5    5    0  503  0.31273662857E+02 -0.85719621349E+01 -0.67638701600E+02  0.75010095837E+02  0.00000000000E+00 0.  1.
         -1    1    6    6    0  502  0.20572161116E+01  0.22725457201E+02  0.39989618946E+02  0.46041808898E+02  0.00000000000E+00 0.  1.
<mgrwt>
<rscale>  0 0.21621565E+04</rscale>
<asrwt>0</asrwt>
<pdfrwt beam="1">  1        2 0.36032378E+00 0.21621565E+04</pdfrwt>
<pdfrwt beam="2">  1       -2 0.76770548E-01 0.21621565E+04</pdfrwt>
<totfact> 0.59635290E+00</totfact>
</mgrwt>
</event>
<event>
12    1  0.1755460E-007  0.1227672E+04  0.7818608E-02  0.9088974E-01
          2   -1    0    0  501    0  0.00000000000E+00  0.00000000000E+00  0.45745560793E+03  0.45745560793E+03  0.00000000000E+00 0. -1.
         -2   -1    0    0    0  501 -0.00000000000E+00 -0.00000000000E+00 -0.82367445347E+03  0.82367445347E+03  0.00000000000E+00 0.  1.
         23    2    1    2    0    0 -0.22918008799E+03  0.11978862874E+03  0.38454431442E+01  0.27706522628E+03  0.99385732729E+02 0.  0.
        254    2    1    2    0    0  0.22918008799E+03 -0.11978862874E+03 -0.37006428868E+03  0.10040648351E+04  0.89684211936E+03 0.  0.
        -24    2    4    4    0    0  0.33379413824E+03 -0.33221380402E+03 -0.52522436807E+03  0.71005986044E+03  0.80869217238E+02 0.  0.
         24    2    4    4    0    0 -0.10461405024E+03  0.21242517528E+03  0.15516007939E+03  0.29400497468E+03  0.79345575188E+02 0.  0.
         13    1    3    3    0    0 -0.21522395019E+03  0.13680610305E+03  0.30411317056E+01  0.25504216720E+03  0.00000000000E+00 0. -1.
        -13    1    3    3    0    0 -0.13956137801E+02 -0.17017474308E+02  0.80431143860E+00  0.22023059076E+02  0.00000000000E+00 0.  1.
          4    1    6    6  502    0 -0.81836137402E+02  0.20856028927E+03  0.12683401350E+03  0.25745177145E+03  0.00000000000E+00 0. -1.
          1    1    5    5  503    0  0.10193983760E+03 -0.85528076561E+02 -0.20272538784E+03  0.24249611388E+03  0.00000000000E+00 0. -1.
         -2    1    5    5    0  503  0.23185430063E+03 -0.24668572746E+03 -0.32249898023E+03  0.46756374657E+03  0.00000000000E+00 0.  1.
         -3    1    6    6    0  502 -0.22777912841E+02  0.38648860059E+01  0.28326065891E+02  0.36553203226E+02  0.00000000000E+00 0.  1.
<mgrwt>
<rscale>  0 0.12276718E+04</rscale>
<asrwt>0</asrwt>
<pdfrwt beam="1">  1        2 0.70377788E-01 0.12276718E+04</pdfrwt>
<pdfrwt beam="2">  1       -2 0.12671914E+00 0.12276718E+04</pdfrwt>
<totfact> 0.31127594E+01</totfact>
</mgrwt>
</event>
<event>
12    1  0.1755460E-007  0.2427674E+04  0.7818608E-02  0.8429215E-01
          1   -1    0    0  501    0  0.00000000000E+00  0.00000000000E+00  0.97180782954E+03  0.97180782954E+03  0.00000000000E+00 0. -1.
         -1   -1    0    0    0  501 -0.00000000000E+00 -0.00000000000E+00 -0.15161435373E+04  0.15161435373E+04  0.00000000000E+00 0.  1.
         23    2    1    2    0    0 -0.73141320170E+03 -0.19674600495E+03  0.49810490585E+03  0.91099526424E+03  0.90164361862E+02 0.  0.
        254    2    1    2    0    0  0.73141320170E+03  0.19674600495E+03 -0.10424406136E+04  0.15769561026E+04  0.90908407453E+03 0.  0.
        -24    2    4    4    0    0  0.57653932713E+03  0.51958911168E+03 -0.51690952188E+03  0.93593915695E+03  0.80101254667E+02 0.  0.
         24    2    4    4    0    0  0.15487387457E+03 -0.32284310673E+03 -0.52553109177E+03  0.64101694568E+03  0.80661066526E+02 0.  0.
         13    1    3    3    0    0 -0.28205051148E+03 -0.51454009898E+02  0.23274010836E+03  0.36928033281E+03  0.00000000000E+00 0.  1.
        -13    1    3    3    0    0 -0.44936269021E+03 -0.14529199505E+03  0.26536479750E+03  0.54171493143E+03  0.00000000000E+00 0. -1.
          2    1    6    6  502    0  0.86633740130E+02 -0.14446496737E+03 -0.18217902325E+03  0.24812240575E+03  0.00000000000E+00 0. -1.
          3    1    5    5  503    0  0.20223573739E+02  0.11130505157E+02 -0.20033499692E+01  0.23170983815E+02  0.00000000000E+00 0. -1.
         -4    1    5    5    0  503  0.55631575339E+03  0.50845860652E+03 -0.51490617191E+03  0.91276817313E+03  0.00000000000E+00 0.  1.
         -1    1    6    6    0  502  0.68240134442E+02 -0.17837813936E+03 -0.34335206852E+03  0.39289453993E+03  0.00000000000E+00 0.  1.
<mgrwt>
<rscale>  0 0.24276739E+04</rscale>
<asrwt>0</asrwt>
<pdfrwt beam="1">  1        1 0.14950890E+00 0.24276739E+04</pdfrwt>
<pdfrwt beam="2">  1       -1 0.23325285E+00 0.24276739E+04</pdfrwt>
<totfact> 0.12786731E+00</totfact>
</mgrwt>
</event>
<event>
12    1  0.1755460E-007  0.1508977E+04  0.7818608E-02  0.8878505E-01
          2   -1    0    0  501    0  0.00000000000E+00  0.00000000000E+00  0.25596430126E+03  0.25596430126E+03  0.00000000000E+00 0. -1.
         -2   -1    0    0    0  501 -0.00000000000E+00 -0.00000000000E+00 -0.22239546411E+04  0.22239546411E+04  0.00000000000E+00 0.  1.
         23    2    1    2    0    0  0.42347822067E+03 -0.98775761036E+02 -0.94673943372E+03  0.10458843646E+04  0.92022250019E+02 0.  0.
        254    2    1    2    0    0 -0.42347822067E+03  0.98775761036E+02 -0.10212509061E+04  0.14340345777E+04  0.90797098107E+03 0.  0.
        -24    2    4    4    0    0  0.89740166159E+02  0.38560315750E+03 -0.51552613991E+03  0.65426108195E+03  0.74479996798E+02 0.  0.
         24    2    4    4    0    0 -0.51321838683E+03 -0.28682739646E+03 -0.50572476622E+03  0.77977349577E+03  0.81400845184E+02 0.  0.
         13    1    3    3    0    0  0.13240822017E+03 -0.75426007334E+02 -0.33447206850E+03  0.36754943063E+03  0.00000000000E+00 0. -1.
        -13    1    3    3    0    0  0.29107000051E+03 -0.23349753701E+02 -0.61226736522E+03  0.67833493402E+03  0.00000000000E+00 0.  1.
          2    1    6    6  502    0 -0.15180765884E+03 -0.99494965516E+02 -0.20407375563E+03  0.27311336690E+03  0.00000000000E+00 0. -1.
          3    1    5    5  503    0  0.58999549717E+02  0.33421839118E+03 -0.40363652714E+03  0.52735692459E+03  0.00000000000E+00 0. -1.
         -4    1    5    5    0  503  0.30740616442E+02  0.51384766321E+02 -0.11188961277E+03  0.12690415736E+03  0.00000000000E+00 0.  1.
         -1    1    6    6    0  502 -0.36141072800E+03 -0.18733243095E+03 -0.30165101058E+03  0.50666012887E+03  0.00000000000E+00 0.  1.
<mgrwt>
<rscale>  0 0.15089771E+04</rscale>
<asrwt>0</asrwt>
<pdfrwt beam="1">  1        2 0.39379124E-01 0.15089771E+04</pdfrwt>
<pdfrwt beam="2">  1       -2 0.34214686E+00 0.15089771E+04</pdfrwt>
<totfact> 0.22207929E+00</totfact>
</mgrwt>
</event>
<event>
12    1  0.2266059E-007  0.1614493E+04  0.7818608E-02  0.8811693E-01
         -2   -1    0    0    0  501 -0.00000000000E+00  0.00000000000E+00  0.60477370313E+03  0.60477370313E+03  0.00000000000E+00 0.  1.
          2   -1    0    0  501    0  0.00000000000E+00 -0.00000000000E+00 -0.10775057241E+04  0.10775057241E+04  0.00000000000E+00 0. -1.
         23    2    1    2    0    0 -0.40466441173E+03  0.37303480751E+03 -0.17081888042E+03  0.58354859109E+03  0.91878259254E+02 0.  0.
        254    2    1    2    0    0  0.40466441173E+03 -0.37303480751E+03 -0.30191314057E+03  0.10987308362E+04  0.90174810904E+03 0.  0.
        -24    2    4    4    0    0 -0.15690492815E+03  0.11580495519E+03 -0.27860964036E+03  0.34923210809E+03  0.79434183413E+02 0.  0.
         24    2    4    4    0    0  0.56156933987E+03 -0.48883976270E+03 -0.23303500211E+02  0.74949872808E+03  0.82950908245E+02 0.  0.
         11    1    3    3    0    0 -0.11719190695E+03  0.99799096769E+02 -0.91552105067E+02  0.17909659604E+03  0.00000000000E+00 0. -1.
        -11    1    3    3    0    0 -0.28747250478E+03  0.27323571074E+03 -0.79266775358E+02  0.40445199506E+03  0.00000000000E+00 0.  1.
          2    1    6    6  502    0  0.43245163229E+03 -0.36205649818E+03  0.16383981300E+02  0.56424086788E+03  0.00000000000E+00 0. -1.
          1    1    5    5  503    0 -0.13697248803E+03  0.10439869577E+03 -0.27704659311E+03  0.32621367983E+03  0.00000000000E+00 0. -1.
         -2    1    5    5    0  503 -0.19932440116E+02  0.11406259421E+02 -0.15630472582E+01  0.23018428262E+02  0.00000000000E+00 0.  1.
         -1    1    6    6    0  502  0.12911770759E+03 -0.12678326453E+03 -0.39687481511E+02  0.18525786020E+03  0.00000000000E+00 0.  1.
<mgrwt>
<rscale>  0 0.16144933E+04</rscale>
<asrwt>0</asrwt>
<pdfrwt beam="1">  1        2 0.16577011E+00 0.16144933E+04</pdfrwt>
<pdfrwt beam="2">  1       -2 0.93042109E-01 0.16144933E+04</pdfrwt>
<totfact> 0.21088973E+01</totfact>
</mgrwt>
</event>
<event>
12    1  0.1755460E-007  0.1416124E+04  0.7818608E-02  0.8942229E-01
         -2   -1    0    0    0  501 -0.00000000000E+00  0.00000000000E+00  0.76399633963E+03  0.76399633963E+03  0.00000000000E+00 0. -1.
          2   -1    0    0  501    0  0.00000000000E+00 -0.00000000000E+00 -0.65622301691E+03  0.65622301691E+03  0.00000000000E+00 0.  1.
         23    2    1    2    0    0 -0.37218540476E+03 -0.10482439283E+03 -0.11109702631E+03  0.41268578419E+03  0.91961287331E+02 0.  0.
        254    2    1    2    0    0  0.37218540476E+03  0.10482439283E+03  0.21887034904E+03  0.10075335724E+04  0.90427293496E+03 0.  0.
        -24    2    4    4    0    0  0.22285968857E+03  0.49773866904E+03  0.18128008376E+03  0.57973872401E+03  0.76317074747E+02 0.  0.
         24    2    4    4    0    0  0.14932571619E+03 -0.39291427621E+03  0.37590265279E+02  0.42779484835E+03  0.70111384740E+02 0.  0.
         13    1    3    3    0    0 -0.28678329615E+03 -0.54544523193E+02 -0.49756228407E+02  0.29613416930E+03  0.00000000000E+00 0. -1.
        -13    1    3    3    0    0 -0.85402108609E+02 -0.50279869638E+02 -0.61340797906E+02  0.11655161489E+03  0.00000000000E+00 0.  1.
          4    1    6    6  502    0  0.10101519952E+03 -0.24116662729E+03 -0.97678538770E+01  0.26165019324E+03  0.00000000000E+00 0. -1.
          1    1    5    5  503    0  0.19128197314E+03  0.34301917493E+03  0.12768814839E+03  0.41298330578E+03  0.00000000000E+00 0. -1.
         -2    1    5    5    0  503  0.31577715430E+02  0.15471949411E+03  0.53591935365E+02  0.16675541822E+03  0.00000000000E+00 0.  1.
         -3    1    6    6    0  502  0.48310516667E+02 -0.15174764892E+03  0.47358119156E+02  0.16614465511E+03  0.00000000000E+00 0.  1.
<mgrwt>
<rscale>  0 0.14161243E+04</rscale>
<asrwt>0</asrwt>
<pdfrwt beam="1">  1        2 0.10095739E+00 0.14161243E+04</pdfrwt>
<pdfrwt beam="2">  1       -2 0.11753790E+00 0.14161243E+04</pdfrwt>
<totfact> 0.24142501E+01</totfact>
</mgrwt>
</event>
<event>
12    1  0.1755460E-007  0.1403624E+04  0.7818608E-02  0.8951200E-01
          2   -1    0    0  501    0  0.00000000000E+00  0.00000000000E+00  0.59798017960E+03  0.59798017960E+03  0.00000000000E+00 0. -1.
         -2   -1    0    0    0  501 -0.00000000000E+00 -0.00000000000E+00 -0.82367239033E+03  0.82367239033E+03  0.00000000000E+00 0.  1.
         23    2    1    2    0    0 -0.40313473238E+02 -0.34525859865E+03  0.14524501966E+03  0.38751563534E+03  0.90794139873E+02 0.  0.
        254    2    1    2    0    0  0.40313473238E+02  0.34525859865E+03 -0.37093723040E+03  0.10341369346E+04  0.90056432003E+03 0.  0.
        -24    2    4    4    0    0  0.37499002721E+03  0.11437660163E+03 -0.46142526946E+03  0.61049593665E+03  0.78054351966E+02 0.  0.
         24    2    4    4    0    0 -0.33467655397E+03  0.23088199702E+03  0.90488039058E+02  0.42364099794E+03  0.77257475998E+02 0.  0.
         11    1    3    3    0    0 -0.57678405255E+01 -0.99384541881E+02 -0.61329019962E+00  0.99553660274E+02  0.00000000000E+00 0.  1.
        -11    1    3    3    0    0 -0.34545632712E+02 -0.24587405677E+03  0.14585830986E+03  0.28796197507E+03  0.00000000000E+00 0. -1.
          2    1    6    6  502    0 -0.80497581642E+02  0.84495847972E+02  0.52161568331E+02  0.12782894111E+03  0.00000000000E+00 0. -1.
          1    1    5    5  503    0  0.31128935418E+03  0.90078945370E+02 -0.42084613201E+03  0.53115604605E+03  0.00000000000E+00 0. -1.
         -2    1    5    5    0  503  0.63700673031E+02  0.24297656259E+02 -0.40579137445E+02  0.79339890598E+02  0.00000000000E+00 0.  1.
         -1    1    6    6    0  502 -0.25417897233E+03  0.14638614904E+03  0.38326470727E+02  0.29581205683E+03  0.00000000000E+00 0.  1.
<mgrwt>
<rscale>  0 0.14036235E+04</rscale>
<asrwt>0</asrwt>
<pdfrwt beam="1">  1        2 0.91996951E-01 0.14036235E+04</pdfrwt>
<pdfrwt beam="2">  1       -2 0.12671883E+00 0.14036235E+04</pdfrwt>
<totfact> 0.22441857E+01</totfact>
</mgrwt>
</event>
<event>
12    1  0.1755460E-007  0.2886891E+04  0.7818608E-02  0.8276789E-01
         -2   -1    0    0    0  501 -0.00000000000E+00  0.00000000000E+00  0.67873663677E+03  0.67873663677E+03  0.00000000000E+00 0. -1.
          2   -1    0    0  501    0  0.00000000000E+00 -0.00000000000E+00 -0.30697243429E+04  0.30697243429E+04  0.00000000000E+00 0.  1.
         23    2    1    2    0    0  0.10848881530E+02 -0.90237956590E+03  0.13524144128E+03  0.91680570982E+03  0.88520522594E+02 0.  0.
        254    2    1    2    0    0 -0.10848881530E+02  0.90237956590E+03 -0.25262291475E+04  0.28316552699E+04  0.90665940843E+03 0.  0.
        -24    2    4    4    0    0  0.24613788763E+03  0.95836112305E+03 -0.18070451406E+04  0.20617193820E+04  0.78960545746E+02 0.  0.
         24    2    4    4    0    0 -0.25698676916E+03 -0.55981557142E+02 -0.71918400681E+03  0.76993588792E+03  0.79996884939E+02 0.  0.
         13    1    3    3    0    0  0.40659776289E+02 -0.73772872944E+03  0.12315381679E+03  0.74904189351E+03  0.00000000000E+00 0. -1.
        -13    1    3    3    0    0 -0.29810894759E+02 -0.16465083647E+03  0.12087624496E+02  0.16776381631E+03  0.00000000000E+00 0.  1.
          4    1    6    6  502    0 -0.24240541273E+01 -0.45286484411E+01 -0.77745209355E+02  0.77914711529E+02  0.00000000000E+00 0. -1.
          1    1    5    5  503    0  0.98834696031E+02  0.54244686018E+03 -0.10066574884E+04  0.11477700955E+04  0.00000000000E+00 0. -1.
         -2    1    5    5    0  503  0.14730319160E+03  0.41591426287E+03 -0.80038765223E+03  0.91394928643E+03  0.00000000000E+00 0.  1.
         -3    1    6    6    0  502 -0.25456271503E+03 -0.51452908701E+02 -0.64143879745E+03  0.69202117639E+03  0.00000000000E+00 0.  1.
<mgrwt>
<rscale>  0 0.28868906E+04</rscale>
<asrwt>0</asrwt>
<pdfrwt beam="1">  1        2 0.47226528E+00 0.28868906E+04</pdfrwt>
<pdfrwt beam="2">  1       -2 0.10442102E+00 0.28868906E+04</pdfrwt>
<totfact> 0.10120112E+00</totfact>
</mgrwt>
</event>
<event>
12    1  0.1755460E-007  0.9764496E+03  0.7818608E-02  0.9334758E-01
          2   -1    0    0  501    0  0.00000000000E+00  0.00000000000E+00  0.32397118291E+04  0.32397118291E+04  0.00000000000E+00 0. -1.
         -2   -1    0    0    0  501 -0.00000000000E+00 -0.00000000000E+00 -0.73575517720E+02  0.73575517720E+02  0.00000000000E+00 0.  1.
         23    2    1    2    0    0  0.97424842928E+02 -0.30068898109E+02  0.59966076446E+03  0.61500972989E+03  0.90819583656E+02 0.  0.
        254    2    1    2    0    0 -0.97424842928E+02  0.30068898109E+02  0.25664755470E+04  0.26982776170E+04  0.82674640999E+03 0.  0.
        -24    2    4    4    0    0 -0.19602670844E+03  0.25900378394E+03  0.23018607022E+04  0.23260572305E+04  0.80437034745E+02 0.  0.
         24    2    4    4    0    0  0.98601865510E+02 -0.22893488583E+03  0.26461484476E+03  0.37222038650E+03  0.79959303574E+02 0.  0.
         11    1    3    3    0    0  0.63248756418E+02 -0.50237703893E+01  0.14369140916E+03  0.15707598328E+03  0.00000000000E+00 0.  1.
        -11    1    3    3    0    0  0.34176086510E+02 -0.25045127720E+02  0.45596935530E+03  0.45793374661E+03  0.00000000000E+00 0. -1.
          4    1    6    6  502    0  0.90192608616E+02 -0.11413416056E+03  0.16525463963E+03  0.22015996270E+03  0.00000000000E+00 0. -1.
          3    1    5    5  503    0 -0.20139000703E+03  0.24305503242E+03  0.22314269230E+04  0.22536414525E+04  0.00000000000E+00 0. -1.
         -4    1    5    5    0  503  0.53632985896E+01  0.15948751519E+02  0.70433779171E+02  0.72415777943E+02  0.00000000000E+00 0.  1.
         -3    1    6    6    0  502  0.84092568939E+01 -0.11480072527E+03  0.99360205130E+02  0.15206042380E+03  0.00000000000E+00 0.  1.
<mgrwt>
<rscale>  0 0.97644964E+03</rscale>
<asrwt>0</asrwt>
<pdfrwt beam="1">  1        2 0.49841709E+00 0.97644964E+03</pdfrwt>
<pdfrwt beam="2">  1       -2 0.11319313E-01 0.97644964E+03</pdfrwt>
<totfact> 0.70863388E+01</totfact>
</mgrwt>
</event>
<event>
12    1  0.1755460E-007  0.3911365E+04  0.7818608E-02  0.8022670E-01
         -1   -1    0    0    0  501 -0.00000000000E+00  0.00000000000E+00  0.23061699496E+04  0.23061699496E+04  0.00000000000E+00 0. -1.
          1   -1    0    0  501    0  0.00000000000E+00 -0.00000000000E+00 -0.16584614515E+04  0.16584614515E+04  0.00000000000E+00 0.  1.
         23    2    1    2    0    0 -0.25829784098E+03  0.21687707251E+03  0.21570114541E+04  0.21851003764E+04  0.90618996588E+02 0.  0.
        254    2    1    2    0    0  0.25829784098E+03 -0.21687707251E+03 -0.15093029560E+04  0.17795310246E+04  0.88033051480E+03 0.  0.
        -24    2    4    4    0    0  0.14379106448E+03  0.30665175056E+03 -0.32274599749E+03  0.47515155249E+03  0.83023205127E+02 0.  0.
         24    2    4    4    0    0  0.11450677650E+03 -0.52352882307E+03 -0.11865569585E+04  0.13043794721E+04  0.79335748721E+02 0.  0.
         13    1    3    3    0    0 -0.16623686517E+03  0.16918794772E+03  0.12612969759E+04  0.12834053602E+04  0.00000000000E+00 0.  1.
        -13    1    3    3    0    0 -0.92060975809E+02  0.47689124791E+02  0.89571447821E+03  0.90169501627E+03  0.00000000000E+00 0. -1.
          4    1    6    6  502    0  0.11426282390E+03 -0.49677060978E+03 -0.11580894411E+04  0.12653095215E+04  0.00000000000E+00 0. -1.
          1    1    5    5  503    0  0.32970047959E+02  0.14189419633E+03 -0.99682085375E+02  0.17651488651E+03  0.00000000000E+00 0. -1.
         -2    1    5    5    0  503  0.11082101652E+03  0.16475755423E+03 -0.22306391211E+03  0.29863666598E+03  0.00000000000E+00 0.  1.
         -3    1    6    6    0  502  0.24395260032E+00 -0.26758213294E+02 -0.28467517406E+02  0.39069950586E+02  0.00000000000E+00 0.  1.
<mgrwt>
<rscale>  0 0.39113650E+04</rscale>
<asrwt>0</asrwt>
<pdfrwt beam="1">  1        1 0.25514791E+00 0.39113650E+04</pdfrwt>
<pdfrwt beam="2">  1       -1 0.35479538E+00 0.39113650E+04</pdfrwt>
<totfact> 0.57890826E-02</totfact>
</mgrwt>
</event>
<event>
12    1  0.1755460E-007  0.1747542E+04  0.7818608E-02  0.8734705E-01
          2   -1    0    0  501    0  0.00000000000E+00  0.00000000000E+00  0.13279193458E+04  0.13279193458E+04  0.00000000000E+00 0. -1.
         -2   -1    0    0    0  501 -0.00000000000E+00 -0.00000000000E+00 -0.57494103831E+03  0.57494103831E+03  0.00000000000E+00 0.  1.
         23    2    1    2    0    0  0.26128806188E+03 -0.46474635279E+03 -0.10342388490E+03  0.55078242778E+03  0.91674200678E+02 0.  0.
        254    2    1    2    0    0 -0.26128806188E+03  0.46474635279E+03  0.85640219242E+03  0.13520779564E+04  0.90023855793E+03 0.  0.
        -24    2    4    4    0    0 -0.23896541710E+03  0.72558975412E+03  0.57444642123E+03  0.95954547575E+03  0.84580537492E+02 0.  0.
         24    2    4    4    0    0 -0.22322644788E+02 -0.26084340133E+03  0.28195577119E+03  0.39253248061E+03  0.77750311519E+02 0.  0.
         11    1    3    3    0    0  0.26076488533E+03 -0.46805662815E+03 -0.10645075094E+03  0.54626650543E+03  0.00000000000E+00 0.  1.
        -11    1    3    3    0    0  0.52317655177E+00  0.33102753632E+01  0.30268660349E+01  0.45159223507E+01  0.00000000000E+00 0. -1.
          2    1    6    6  502    0 -0.25146988108E+02 -0.24067227344E+03  0.28273633136E+03  0.37214963023E+03  0.00000000000E+00 0. -1.
          1    1    5    5  503    0 -0.81453779833E+02  0.19882705498E+03  0.11912356446E+03  0.24567730797E+03  0.00000000000E+00 0. -1.
         -2    1    5    5    0  503 -0.15751163726E+03  0.52676269914E+03  0.45532285677E+03  0.71386816778E+03  0.00000000000E+00 0.  1.
         -1    1    6    6    0  502  0.28243433201E+01 -0.20171127887E+02 -0.78056016427E+00  0.20382850380E+02  0.00000000000E+00 0.  1.
<mgrwt>
<rscale>  0 0.17475415E+04</rscale>
<asrwt>0</asrwt>
<pdfrwt beam="1">  1        2 0.20429528E+00 0.17475415E+04</pdfrwt>
<pdfrwt beam="2">  1       -2 0.88452468E-01 0.17475415E+04</pdfrwt>
<totfact> 0.16606193E+01</totfact>
</mgrwt>
</event>
<event>
12    1  0.1755460E-007  0.1745234E+04  0.7818608E-02  0.8735978E-01
          1   -1    0    0  501    0  0.00000000000E+00  0.00000000000E+00  0.47863812473E+03  0.47863812473E+03  0.00000000000E+00 0. -1.
         -1   -1    0    0    0  501 -0.00000000000E+00 -0.00000000000E+00 -0.15908895365E+04  0.15908895365E+04  0.00000000000E+00 0.  1.
         23    2    1    2    0    0  0.15535559864E+03  0.41878644758E+03 -0.96278751095E+03  0.10652266108E+04  0.90722050538E+02 0.  0.
        254    2    1    2    0    0 -0.15535559864E+03 -0.41878644758E+03 -0.14946390083E+03  0.10043010504E+04  0.88699700761E+03 0.  0.
        -24    2    4    4    0    0 -0.28154371685E+03 -0.93279618030E+01  0.27054951174E+03  0.39900809277E+03  0.81587648742E+02 0.  0.
         24    2    4    4    0    0  0.12618811822E+03 -0.40945848578E+03 -0.42001341257E+03  0.60529295764E+03  0.79928750005E+02 0.  0.
         13    1    3    3    0    0 -0.83801304916E+01  0.15474847242E+02 -0.67143776601E+02  0.69411700890E+02  0.00000000000E+00 0. -1.
        -13    1    3    3    0    0  0.16373572913E+03  0.40331160034E+03 -0.89564373435E+03  0.99581490993E+03  0.00000000000E+00 0.  1.
          2    1    6    6  502    0  0.53328333806E+02 -0.28225725590E+03 -0.24997317501E+03  0.38078820612E+03  0.00000000000E+00 0. -1.
          1    1    5    5  503    0 -0.24637921996E+03 -0.30186831294E+02  0.25325428939E+03  0.35461486137E+03  0.00000000000E+00 0. -1.
         -2    1    5    5    0  503 -0.35164496892E+02  0.20858869491E+02  0.17295222344E+02  0.44393231398E+02  0.00000000000E+00 0.  1.
         -1    1    6    6    0  502  0.72859784409E+02 -0.12720122987E+03 -0.17004023756E+03  0.22450475152E+03  0.00000000000E+00 0.  1.
<mgrwt>
<rscale>  0 0.17452339E+04</rscale>
<asrwt>0</asrwt>
<pdfrwt beam="1">  1        1 0.73636634E-01 0.17452339E+04</pdfrwt>
<pdfrwt beam="2">  1       -1 0.24475224E+00 0.17452339E+04</pdfrwt>
<totfact> 0.33673749E+00</totfact>
</mgrwt>
</event>
<event>
12    1  0.1755460E-007  0.1632153E+04  0.7818608E-02  0.8801035E-01
         -1   -1    0    0    0  501 -0.00000000000E+00  0.00000000000E+00  0.11519605993E+04  0.11519605993E+04  0.00000000000E+00 0.  1.
          1   -1    0    0  501    0  0.00000000000E+00 -0.00000000000E+00 -0.57812796992E+03  0.57812796992E+03  0.00000000000E+00 0. -1.
         23    2    1    2    0    0  0.94137544581E+02 -0.55144011197E+03  0.24067282199E+03  0.61574626837E+03  0.90950455637E+02 0.  0.
        254    2    1    2    0    0 -0.94137544581E+02  0.55144011197E+03  0.33315980739E+03  0.11143423008E+04  0.90433137278E+03 0.  0.
        -24    2    4    4    0    0 -0.34823446310E+03  0.39059800376E+03 -0.14074679910E+03  0.54764090570E+03  0.79163490979E+02 0.  0.
         24    2    4    4    0    0  0.25409691852E+03  0.16084210821E+03  0.47390660649E+03  0.56670139514E+03  0.78278808156E+02 0.  0.
         13    1    3    3    0    0 -0.53873844629E+01 -0.16647911097E+02  0.25137637039E+02  0.30628053336E+02  0.00000000000E+00 0.  1.
        -13    1    3    3    0    0  0.99524929043E+02 -0.53479220087E+03  0.21553518495E+03  0.58511821503E+03  0.00000000000E+00 0. -1.
          4    1    6    6  502    0  0.64002577330E+02  0.69354005297E+02  0.19838570185E+03  0.21968885874E+03  0.00000000000E+00 0. -1.
          1    1    5    5  503    0 -0.18748086564E+01  0.86890982747E+01 -0.14213441566E+02  0.16764165875E+02  0.00000000000E+00 0. -1.
         -2    1    5    5    0  503 -0.34635965444E+03  0.38190890548E+03 -0.12653335753E+03  0.53087673982E+03  0.00000000000E+00 0.  1.
         -3    1    6    6    0  502  0.19009434119E+03  0.91488102910E+02  0.27552090464E+03  0.34701253640E+03  0.00000000000E+00 0.  1.
<mgrwt>
<rscale>  0 0.16321527E+04</rscale>
<asrwt>0</asrwt>
<pdfrwt beam="1">  1        1 0.88942765E-01 0.16321527E+04</pdfrwt>
<pdfrwt beam="2">  1       -1 0.17722471E+00 0.16321527E+04</pdfrwt>
<totfact> 0.75344906E+00</totfact>
</mgrwt>
</event>
<event>
12    1  0.1755460E-007  0.1179152E+04  0.7818608E-02  0.9131303E-01
          1   -1    0    0  501    0  0.00000000000E+00  0.00000000000E+00  0.25468569459E+04  0.25468569459E+04  0.00000000000E+00 0. -1.
         -1   -1    0    0    0  501 -0.00000000000E+00 -0.00000000000E+00 -0.13648193218E+03  0.13648193218E+03  0.00000000000E+00 0.  1.
         23    2    1    2    0    0 -0.10644808770E+03  0.99287209984E+02  0.11690668042E+03  0.20746006865E+03  0.90461940694E+02 0.  0.
        254    2    1    2    0    0  0.10644808770E+03 -0.99287209984E+02  0.22934683333E+04  0.24758788094E+04  0.92129785505E+03 0.  0.
        -24    2    4    4    0    0  0.38978571127E+03  0.10737135942E+03  0.18934151193E+04  0.19378118413E+04  0.81439602286E+02 0.  0.
         24    2    4    4    0    0 -0.28333762357E+03 -0.20665856941E+03  0.40005321399E+03  0.53806696811E+03  0.80532694659E+02 0.  0.
         13    1    3    3    0    0 -0.32606521521E+01  0.23292302660E+02 -0.11382429264E+02  0.26128966907E+02  0.00000000000E+00 0.  1.
        -13    1    3    3    0    0 -0.10318743555E+03  0.75994907325E+02  0.12828910968E+03  0.18133110174E+03  0.00000000000E+00 0. -1.
          4    1    6    6  502    0 -0.16896170186E+03 -0.87584723618E+02  0.25572537398E+03  0.31877046194E+03  0.00000000000E+00 0. -1.
          1    1    5    5  503    0  0.20409785884E+03  0.88435488950E+02  0.11507735871E+04  0.11720736413E+04  0.00000000000E+00 0. -1.
         -2    1    5    5    0  503  0.18568785243E+03  0.18935870474E+02  0.74264153218E+03  0.76573820007E+03  0.00000000000E+00 0.  1.
         -3    1    6    6    0  502 -0.11437592171E+03 -0.11907384579E+03  0.14432784001E+03  0.21929650618E+03  0.00000000000E+00 0.  1.
<mgrwt>
<rscale>  0 0.11791522E+04</rscale>
<asrwt>0</asrwt>
<pdfrwt beam="1">  1        1 0.39182411E+00 0.11791522E+04</pdfrwt>
<pdfrwt beam="2">  1       -1 0.20997222E-01 0.11791522E+04</pdfrwt>
<totfact> 0.23653191E+01</totfact>
</mgrwt>
</event>
<event>
12    1  0.1755460E-007  0.2738658E+04  0.7818608E-02  0.8322570E-01
          1   -1    0    0  501    0  0.00000000000E+00  0.00000000000E+00  0.19673694421E+04  0.19673694421E+04  0.00000000000E+00 0. -1.
         -1   -1    0    0    0  501 -0.00000000000E+00 -0.00000000000E+00 -0.95308095431E+03  0.95308095431E+03  0.00000000000E+00 0.  1.
         23    2    1    2    0    0  0.86969451203E+03 -0.27915958819E+03  0.13136977419E+04  0.16026295931E+04  0.91220806762E+02 0.  0.
        254    2    1    2    0    0 -0.86969451203E+03  0.27915958819E+03 -0.29940925417E+03  0.13178208033E+04  0.90150271666E+03 0.  0.
        -24    2    4    4    0    0 -0.26270614148E+03  0.58095145504E+02  0.31533420339E+03  0.42242630278E+03  0.81355754241E+02 0.  0.
         24    2    4    4    0    0 -0.60698837055E+03  0.22106444269E+03 -0.61474345756E+03  0.89539450051E+03  0.80730558745E+02 0.  0.
         13    1    3    3    0    0  0.45514216715E+03 -0.10360090606E+03  0.70543854833E+03  0.84589070543E+03  0.00000000000E+00 0.  1.
        -13    1    3    3    0    0  0.41455234488E+03 -0.17555868213E+03  0.60825919359E+03  0.75673888767E+03  0.00000000000E+00 0. -1.
          4    1    6    6  502    0 -0.13935080043E+03  0.20520914666E+02 -0.11033171255E+03  0.17892132437E+03  0.00000000000E+00 0. -1.
          1    1    5    5  503    0 -0.20230593173E+03  0.38087965810E+02  0.18236967133E+03  0.27502196307E+03  0.00000000000E+00 0. -1.
         -2    1    5    5    0  503 -0.60400209754E+02  0.20007179694E+02  0.13296453207E+03  0.14740433971E+03  0.00000000000E+00 0.  1.
         -3    1    6    6    0  502 -0.46763757012E+03  0.20054352802E+03 -0.50441174501E+03  0.71647317614E+03  0.00000000000E+00 0.  1.
<mgrwt>
<rscale>  0 0.27386583E+04</rscale>
<asrwt>0</asrwt>
<pdfrwt beam="1">  1        1 0.30267222E+00 0.27386583E+04</pdfrwt>
<pdfrwt beam="2">  1       -1 0.14662784E+00 0.27386583E+04</pdfrwt>
<totfact> 0.10120616E+00</totfact>
</mgrwt>
</event>
<event>
12    1  0.1755460E-007  0.1448325E+04  0.7818608E-02  0.8919563E-01
         -3   -1    0    0    0  501 -0.00000000000E+00  0.00000000000E+00  0.56733479936E+03  0.56733479936E+03  0.00000000000E+00 0.  1.
          3   -1    0    0  501    0  0.00000000000E+00 -0.00000000000E+00 -0.92434196117E+03  0.92434196117E+03  0.00000000000E+00 0. -1.
         23    2    1    2    0    0  0.16110437060E+03 -0.40351971093E+03 -0.65281276121E+02  0.44868108586E+03  0.90941170316E+02 0.  0.
        254    2    1    2    0    0 -0.16110437060E+03  0.40351971093E+03 -0.29172588569E+03  0.10429956747E+04  0.90219355444E+03 0.  0.
        -24    2    4    4    0    0  0.15255697809E+03  0.98029356134E+02 -0.51051537037E+03  0.54705505752E+03  0.75894046815E+02 0.  0.
         24    2    4    4    0    0 -0.31366134870E+03  0.30549035480E+03  0.21878948468E+03  0.49594061716E+03  0.79877772879E+02 0.  0.
         11    1    3    3    0    0  0.13513670100E+03 -0.39113695003E+03 -0.52287779076E+02  0.41711395743E+03  0.00000000000E+00 0. -1.
        -11    1    3    3    0    0  0.25967669605E+02 -0.12382760898E+02 -0.12993497045E+02  0.31567128435E+02  0.00000000000E+00 0.  1.
          2    1    6    6  502    0 -0.21270763909E+02  0.87261495916E+00  0.22249364817E+01  0.21404606899E+02  0.00000000000E+00 0. -1.
          1    1    5    5  503    0  0.81391406790E+02  0.83027695186E+02 -0.23624732873E+03  0.26330772795E+03  0.00000000000E+00 0. -1.
         -2    1    5    5    0  503  0.71165571304E+02  0.15001660947E+02 -0.27426804164E+03  0.28374732957E+03  0.00000000000E+00 0.  1.
         -3    1    6    6    0  502 -0.29239058479E+03  0.30461773984E+03  0.21656454819E+03  0.47453601026E+03  0.00000000000E+00 0.  1.
<mgrwt>
<rscale>  0 0.14483250E+04</rscale>
<asrwt>0</asrwt>
<pdfrwt beam="1">  1        3 0.14220646E+00 0.14483250E+04</pdfrwt>
<pdfrwt beam="2">  1       -3 0.87282277E-01 0.14483250E+04</pdfrwt>
<totfact> 0.11271796E+00</totfact>
</mgrwt>
</event>
<event>
12    1  0.1755460E-007  0.1499300E+04  0.7818608E-02  0.8884919E-01
          2   -1    0    0  501    0  0.00000000000E+00  0.00000000000E+00  0.32446715462E+04  0.32446715462E+04  0.00000000000E+00 0. -1.
         -2   -1    0    0    0  501 -0.00000000000E+00 -0.00000000000E+00 -0.17319927768E+03  0.17319927768E+03  0.00000000000E+00 0.  1.
         23    2    1    2    0    0 -0.16101136101E+03 -0.19892065234E+03  0.79726510759E+02  0.28419746752E+03  0.94434102564E+02 0.  0.
        254    2    1    2    0    0  0.16101136101E+03  0.19892065234E+03  0.29917457578E+04  0.31336733564E+04  0.89658905913E+03 0.  0.
        -24    2    4    4    0    0  0.29986993711E+03 -0.14615213303E+02  0.31157990646E+03  0.43992912364E+03  0.79498503589E+02 0.  0.
         24    2    4    4    0    0 -0.13885857610E+03  0.21353586564E+03  0.26801658513E+04  0.26937442327E+04  0.89942930433E+02 0.  0.
         11    1    3    3    0    0 -0.13424096380E+03 -0.18379515120E+03  0.35527400213E+02  0.23035513915E+03  0.00000000000E+00 0.  1.
        -11    1    3    3    0    0 -0.26770397209E+02 -0.15125501137E+02  0.44199110546E+02  0.53842328371E+02  0.00000000000E+00 0. -1.
          2    1    6    6  502    0 -0.10744838144E+03  0.20771210588E+03  0.24851732701E+04  0.24961521701E+04  0.00000000000E+00 0. -1.
          3    1    5    5  503    0  0.23241257984E+03 -0.44736585659E+02  0.23548491496E+03  0.33387140419E+03  0.00000000000E+00 0. -1.
         -4    1    5    5    0  503  0.67457357278E+02  0.30121372356E+02  0.76094991506E+02  0.10605771945E+03  0.00000000000E+00 0.  1.
         -1    1    6    6    0  502 -0.31410194665E+02  0.58237597573E+01  0.19499258120E+03  0.19759206266E+03  0.00000000000E+00 0.  1.
<mgrwt>
<rscale>  0 0.14992995E+04</rscale>
<asrwt>0</asrwt>
<pdfrwt beam="1">  1        2 0.49918019E+00 0.14992995E+04</pdfrwt>
<pdfrwt beam="2">  1       -2 0.26646045E-01 0.14992995E+04</pdfrwt>
<totfact> 0.15113422E+01</totfact>
</mgrwt>
</event>
<event>
12    1  0.1755460E-007  0.1664353E+04  0.7818608E-02  0.8781960E-01
          2   -1    0    0  501    0  0.00000000000E+00  0.00000000000E+00  0.51815015345E+03  0.51815015345E+03  0.00000000000E+00 0.  1.
         -2   -1    0    0    0  501 -0.00000000000E+00 -0.00000000000E+00 -0.13365192351E+04  0.13365192351E+04  0.00000000000E+00 0. -1.
         23    2    1    2    0    0  0.54136970610E+03  0.19490334038E+03 -0.16109073045E+03  0.60197920853E+03  0.73213887293E+02 0.  0.
        254    2    1    2    0    0 -0.54136970610E+03 -0.19490334038E+03 -0.65727835122E+03  0.12526901800E+04  0.89785822121E+03 0.  0.
        -24    2    4    4    0    0  0.20051172227E+02  0.26081014284E+03 -0.39511060433E+03  0.47942279413E+03  0.72868688447E+02 0.  0.
         24    2    4    4    0    0 -0.56142087832E+03 -0.45571348322E+03 -0.26216774688E+03  0.77326738591E+03  0.79638817135E+02 0.  0.
         13    1    3    3    0    0  0.22087774024E+03  0.88401722521E+02 -0.30383171677E+02  0.23984365282E+03  0.00000000000E+00 0.  1.
        -13    1    3    3    0    0  0.32049196586E+03  0.10650161786E+03 -0.13070755878E+03  0.36213555571E+03  0.00000000000E+00 0. -1.
          2    1    6    6  502    0 -0.49054313593E+03 -0.37929409971E+03 -0.19824038383E+03  0.65099603076E+03  0.00000000000E+00 0. -1.
          3    1    5    5  503    0 -0.96556454903E+01  0.20684555280E+03 -0.33161318901E+03  0.39095475611E+03  0.00000000000E+00 0. -1.
         -4    1    5    5    0  503  0.29706817717E+02  0.53964590038E+02 -0.63497415323E+02  0.88468038011E+02  0.00000000000E+00 0.  1.
         -1    1    6    6    0  502 -0.70877742395E+02 -0.76419383513E+02 -0.63927363050E+02  0.12227135515E+03  0.00000000000E+00 0.  1.
<mgrwt>
<rscale>  0 0.16643529E+04</rscale>
<asrwt>0</asrwt>
<pdfrwt beam="1">  1        2 0.79715409E-01 0.16643529E+04</pdfrwt>
<pdfrwt beam="2">  1       -2 0.20561834E+00 0.16643529E+04</pdfrwt>
<totfact> 0.68824078E+00</totfact>
</mgrwt>
</event>
<event>
12    1  0.1755460E-007  0.1704146E+04  0.7818608E-02  0.8759003E-01
          2   -1    0    0  501    0  0.00000000000E+00  0.00000000000E+00  0.22203482314E+04  0.22203482314E+04  0.00000000000E+00 0. -1.
         -2   -1    0    0    0  501 -0.00000000000E+00 -0.00000000000E+00 -0.32698861650E+03  0.32698861650E+03  0.00000000000E+00 0.  1.
         23    2    1    2    0    0 -0.18841597751E+02 -0.45240778068E+03  0.70930730133E+02  0.46822730137E+03  0.95800999199E+02 0.  0.
        254    2    1    2    0    0  0.18841597751E+02  0.45240778068E+03  0.18224288848E+04  0.20791095466E+04  0.89242459662E+03 0.  0.
        -24    2    4    4    0    0  0.38522923145E+03  0.46591043686E+03  0.94020335572E+03  0.11205223217E+04  0.78190966977E+02 0.  0.
         24    2    4    4    0    0 -0.36638763370E+03 -0.13502656180E+02  0.88222552909E+03  0.95858722490E+03  0.78392370265E+02 0.  0.
         11    1    3    3    0    0  0.68460388440E+01 -0.14248538082E+03  0.66061830398E+02  0.15720406302E+03  0.00000000000E+00 0. -1.
        -11    1    3    3    0    0 -0.25687636595E+02 -0.30992239986E+03  0.48688997343E+01  0.31102323835E+03  0.00000000000E+00 0.  1.
          4    1    6    6  502    0 -0.21741788409E+03  0.27988870508E+02  0.55253470403E+03  0.59443125116E+03  0.00000000000E+00 0. -1.
          1    1    5    5  503    0  0.21235469031E+03  0.19621315219E+03  0.45649250483E+03  0.54035129551E+03  0.00000000000E+00 0. -1.
         -2    1    5    5    0  503  0.17287454114E+03  0.26969728466E+03  0.48371085089E+03  0.58017102616E+03  0.00000000000E+00 0.  1.
         -3    1    6    6    0  502 -0.14896974961E+03 -0.41491526687E+02  0.32969082506E+03  0.36415597374E+03  0.00000000000E+00 0.  1.
<mgrwt>
<rscale>  0 0.17041462E+04</rscale>
<asrwt>0</asrwt>
<pdfrwt beam="1">  1        2 0.34159203E+00 0.17041462E+04</pdfrwt>
<pdfrwt beam="2">  1       -2 0.50305942E-01 0.17041462E+04</pdfrwt>
<totfact> 0.17889803E+01</totfact>
</mgrwt>
</event>
<event>
12    1  0.1755460E-007  0.2071113E+04  0.7818608E-02  0.8574076E-01
         -1   -1    0    0    0  501 -0.00000000000E+00  0.00000000000E+00  0.13482651993E+04  0.13482651993E+04  0.00000000000E+00 0.  1.
          1   -1    0    0  501    0  0.00000000000E+00 -0.00000000000E+00 -0.79537582687E+03  0.79537582687E+03  0.00000000000E+00 0. -1.
         23    2    1    2    0    0  0.55191459162E+03  0.63072398782E+03  0.29342963318E+03  0.89294514276E+03  0.93955378252E+02 0.  0.
        254    2    1    2    0    0 -0.55191459162E+03 -0.63072398782E+03  0.25945973929E+03  0.12506958835E+04  0.89134638122E+03 0.  0.
        -24    2    4    4    0    0 -0.63160442620E+02 -0.71339007310E+03  0.17008411305E+03  0.74061205484E+03  0.81627032013E+02 0.  0.
         24    2    4    4    0    0 -0.48875414900E+03  0.82666085278E+02  0.89375626239E+02  0.51008382861E+03  0.80518381921E+02 0.  0.
         11    1    3    3    0    0  0.49423389147E+03  0.56118199424E+03  0.22933053082E+03  0.78216677410E+03  0.00000000000E+00 0.  1.
        -11    1    3    3    0    0  0.57680700154E+02  0.69541993578E+02  0.64099102360E+02  0.11077836867E+03  0.00000000000E+00 0. -1.
          4    1    6    6  502    0 -0.30471637254E+03  0.56287433313E+02  0.94916884760E+02  0.32408264047E+03  0.00000000000E+00 0. -1.
          1    1    5    5  503    0 -0.70402347541E+00 -0.62868526051E+02 -0.77156545690E+01  0.63344127923E+02  0.00000000000E+00 0. -1.
         -2    1    5    5    0  503 -0.62456419144E+02 -0.65052154704E+03  0.17779976762E+03  0.67726792692E+03  0.00000000000E+00 0.  1.
         -3    1    6    6    0  502 -0.18403777646E+03  0.26378651965E+02 -0.55412585211E+01  0.18600118814E+03  0.00000000000E+00 0.  1.
<mgrwt>
<rscale>  0 0.20711133E+04</rscale>
<asrwt>0</asrwt>
<pdfrwt beam="1">  1        1 0.12236551E+00 0.20711133E+04</pdfrwt>
<pdfrwt beam="2">  1       -1 0.20742542E+00 0.20711133E+04</pdfrwt>
<totfact> 0.27536788E+00</totfact>
</mgrwt>
</event>
<event>
12    1  0.1755460E-007  0.1193344E+04  0.7818608E-02  0.9118702E-01
         -1   -1    0    0    0  501 -0.00000000000E+00  0.00000000000E+00  0.68003628158E+03  0.68003628158E+03  0.00000000000E+00 0.  1.
          1   -1    0    0  501    0  0.00000000000E+00 -0.00000000000E+00 -0.52352736233E+03  0.52352736233E+03  0.00000000000E+00 0. -1.
         23    2    1    2    0    0 -0.19738600791E+03  0.36386883557E+02  0.16621725452E+03  0.27709787662E+03  0.94179701184E+02 0.  0.
        254    2    1    2    0    0  0.19738600791E+03 -0.36386883557E+02 -0.97083352779E+01  0.92646576728E+03  0.90441103751E+03 0.  0.
        -24    2    4    4    0    0 -0.20353532601E+02  0.84673639419E+02  0.41258483234E+03  0.42971887128E+03  0.82753688468E+02 0.  0.
         24    2    4    4    0    0  0.21773954051E+03 -0.12106052298E+03 -0.42229316761E+03  0.49674689601E+03  0.79748363983E+02 0.  0.
         13    1    3    3    0    0 -0.66357202040E+01 -0.11701453418E+01 -0.11739695611E+02  0.13535969702E+02  0.00000000000E+00 0. -1.
        -13    1    3    3    0    0 -0.19075028770E+03  0.37557028899E+02  0.17795695014E+03  0.26356190692E+03  0.00000000000E+00 0.  1.
          4    1    6    6  502    0  0.78706218147E+02 -0.15770722354E+02 -0.84258578774E+02  0.11637393418E+03  0.00000000000E+00 0. -1.
          3    1    5    5  503    0 -0.33169440546E+02  0.56317002116E+01  0.19471106549E+03  0.19759637360E+03  0.00000000000E+00 0. -1.
         -4    1    5    5    0  503  0.12815907945E+02  0.79041939207E+02  0.21787376684E+03  0.23212249768E+03  0.00000000000E+00 0.  1.
         -3    1    6    6    0  502  0.13903332236E+03 -0.10528980062E+03 -0.33803458884E+03  0.38037296183E+03  0.00000000000E+00 0.  1.
<mgrwt>
<rscale>  0 0.11933442E+04</rscale>
<asrwt>0</asrwt>
<pdfrwt beam="1">  1        1 0.80542671E-01 0.11933442E+04</pdfrwt>
<pdfrwt beam="2">  1       -1 0.10462097E+00 0.11933442E+04</pdfrwt>
<totfact> 0.35365551E+01</totfact>
</mgrwt>
</event>
<event>
12    1  0.1755460E-007  0.1403264E+04  0.7818608E-02  0.8951460E-01
          2   -1    0    0  501    0  0.00000000000E+00  0.00000000000E+00  0.32523093467E+04  0.32523093467E+04  0.00000000000E+00 0. -1.
         -2   -1    0    0    0  501 -0.00000000000E+00 -0.00000000000E+00 -0.15136542120E+03  0.15136542120E+03  0.00000000000E+00 0.  1.
         23    2    1    2    0    0  0.34545522133E+03 -0.17482394884E+03  0.11321658737E+04  0.11991368429E+04  0.78910579464E+02 0.  0.
        254    2    1    2    0    0 -0.34545522133E+03  0.17482394884E+03  0.19687780518E+04  0.22045379250E+04  0.91323475742E+03 0.  0.
        -24    2    4    4    0    0 -0.28979609912E+03 -0.23308272227E+03  0.30153268194E+03  0.48540575940E+03  0.79921577131E+02 0.  0.
         24    2    4    4    0    0 -0.55659122207E+02  0.40790667112E+03  0.16672453699E+04  0.17191321656E+04  0.78882754801E+02 0.  0.
         11    1    3    3    0    0  0.46055639715E+02 -0.15649458878E+02  0.79436997746E+02  0.93146465975E+02  0.00000000000E+00 0. -1.
        -11    1    3    3    0    0  0.29939958161E+03 -0.15917448997E+03  0.10527288759E+04  0.11059903770E+04  0.00000000000E+00 0.  1.
          2    1    6    6  502    0 -0.54074026135E+01 -0.22744548693E+01  0.27044723236E+02  0.27673637326E+02  0.00000000000E+00 0. -1.
          3    1    5    5  503    0 -0.22305952261E+02 -0.20427907312E+01  0.39523113815E+02  0.45429120901E+02  0.00000000000E+00 0. -1.
         -4    1    5    5    0  503 -0.26749014686E+03 -0.23103993154E+03  0.26200956813E+03  0.43997663850E+03  0.00000000000E+00 0.  1.
         -1    1    6    6    0  502 -0.50251719593E+02  0.41018112599E+03  0.16402006466E+04  0.16914585282E+04  0.00000000000E+00 0.  1.
<mgrwt>
<rscale>  0 0.14032636E+04</rscale>
<asrwt>0</asrwt>
<pdfrwt beam="1">  1        2 0.50035523E+00 0.14032636E+04</pdfrwt>
<pdfrwt beam="2">  1       -2 0.23286990E-01 0.14032636E+04</pdfrwt>
<totfact> 0.19258787E+01</totfact>
</mgrwt>
</event>
<event>
12    1  0.1755460E-007  0.1730389E+04  0.7818608E-02  0.8744220E-01
         -2   -1    0    0    0  501 -0.00000000000E+00  0.00000000000E+00  0.10152153944E+04  0.10152153944E+04  0.00000000000E+00 0.  1.
          2   -1    0    0  501    0  0.00000000000E+00 -0.00000000000E+00 -0.73734218175E+03  0.73734218175E+03  0.00000000000E+00 0. -1.
         23    2    1    2    0    0  0.20972410965E+03 -0.59001256685E+03  0.17928245156E+02  0.63292400540E+03  0.90401014508E+02 0.  0.
        254    2    1    2    0    0 -0.20972410965E+03  0.59001256685E+03  0.25994496754E+03  0.11196335708E+04  0.89101566513E+03 0.  0.
        -24    2    4    4    0    0  0.18616948843E+03 -0.12698368798E+03 -0.41240595892E+02  0.24319503424E+03  0.81603324039E+02 0.  0.
         24    2    4    4    0    0 -0.39589359808E+03  0.71699625483E+03  0.30118556343E+03  0.87643853656E+03  0.81341221422E+02 0.  0.
         13    1    3    3    0    0  0.50632557603E+02 -0.10319101354E+03 -0.29223904312E+02  0.11860049641E+03  0.00000000000E+00 0. -1.
        -13    1    3    3    0    0  0.15909155205E+03 -0.48682155331E+03  0.47152149468E+02  0.51432350899E+03  0.00000000000E+00 0.  1.
          4    1    6    6  502    0 -0.38795041019E+03  0.66140686732E+03  0.27682192676E+03  0.81522692794E+03  0.00000000000E+00 0. -1.
          1    1    5    5  503    0  0.17811870524E+03 -0.13674971429E+03 -0.30549921995E+02  0.22662756949E+03  0.00000000000E+00 0. -1.
         -2    1    5    5    0  503  0.80507831898E+01  0.97660263181E+01 -0.10690673898E+02  0.16567464755E+02  0.00000000000E+00 0.  1.
         -3    1    6    6    0  502 -0.79431878926E+01  0.55589387516E+02  0.24363636674E+02  0.61211608623E+02  0.00000000000E+00 0.  1.
<mgrwt>
<rscale>  0 0.17303886E+04</rscale>
<asrwt>0</asrwt>
<pdfrwt beam="1">  1        2 0.11343726E+00 0.17303886E+04</pdfrwt>
<pdfrwt beam="2">  1       -2 0.15618698E+00 0.17303886E+04</pdfrwt>
<totfact> 0.97816226E+00</totfact>
</mgrwt>
</event>
<event>
12    1  0.1755460E-007  0.1851405E+04  0.7818608E-02  0.8679431E-01
         -2   -1    0    0    0  501 -0.00000000000E+00  0.00000000000E+00  0.78920987534E+03  0.78920987534E+03  0.00000000000E+00 0.  1.
          2   -1    0    0  501    0  0.00000000000E+00 -0.00000000000E+00 -0.10858014418E+04  0.10858014418E+04  0.00000000000E+00 0. -1.
         23    2    1    2    0    0  0.52168071426E+02  0.33844897870E+03 -0.73086280451E+03  0.81198597321E+03  0.88834468654E+02 0.  0.
        254    2    1    2    0    0 -0.52168071426E+02 -0.33844897870E+03  0.43427123805E+03  0.10630253439E+04  0.90783377046E+03 0.  0.
        -24    2    4    4    0    0 -0.35994094588E+03  0.13916203330E+03  0.21242514045E+03  0.44765798638E+03  0.79684857042E+02 0.  0.
         24    2    4    4    0    0  0.30777287446E+03 -0.47761101200E+03  0.22184609759E+03  0.61536735755E+03  0.81393320850E+02 0.  0.
         13    1    3    3    0    0  0.32645361650E+02  0.25642766223E+03 -0.62709155622E+03  0.67828068340E+03  0.00000000000E+00 0. -1.
        -13    1    3    3    0    0  0.19522709776E+02  0.82021316466E+02 -0.10377124829E+03  0.13370528981E+03  0.00000000000E+00 0.  1.
          2    1    6    6  502    0  0.24663960657E+03 -0.35051665346E+03  0.13331274697E+03  0.44884887032E+03  0.00000000000E+00 0. -1.
          3    1    5    5  503    0 -0.23220987302E+03  0.12966363384E+03  0.14439931074E+03  0.30263054044E+03  0.00000000000E+00 0. -1.
         -4    1    5    5    0  503 -0.12773107287E+03  0.94983994599E+01  0.68025829714E+02  0.14502744594E+03  0.00000000000E+00 0.  1.
         -1    1    6    6    0  502  0.61133267882E+02 -0.12709435854E+03  0.88533350622E+02  0.16651848723E+03  0.00000000000E+00 0.  1.
<mgrwt>
<rscale>  0 0.18514051E+04</rscale>
<asrwt>0</asrwt>
<pdfrwt beam="1">  1        2 0.16704638E+00 0.18514051E+04</pdfrwt>
<pdfrwt beam="2">  1       -2 0.12141690E+00 0.18514051E+04</pdfrwt>
<totfact> 0.10780561E+01</totfact>
</mgrwt>
</event>
<event>
12    1  0.1755460E-007  0.2042487E+04  0.7818608E-02  0.8587010E-01
          2   -1    0    0  501    0  0.00000000000E+00  0.00000000000E+00  0.50272675010E+03  0.50272675010E+03  0.00000000000E+00 0. -1.
         -2   -1    0    0    0  501 -0.00000000000E+00 -0.00000000000E+00 -0.20745635654E+04  0.20745635654E+04  0.00000000000E+00 0.  1.
         23    2    1    2    0    0 -0.30918766466E+03  0.74439290562E+03 -0.90754228636E+03  0.12174222899E+04  0.93628096267E+02 0.  0.
        254    2    1    2    0    0  0.30918766466E+03 -0.74439290562E+03 -0.66429452897E+03  0.13598680257E+04  0.87076748684E+03 0.  0.
        -24    2    4    4    0    0  0.12008816212E+03  0.10762243025E+03 -0.40841776498E+03  0.44639142199E+03  0.80352204077E+02 0.  0.
         24    2    4    4    0    0  0.18909950254E+03 -0.85201533587E+03 -0.25587676399E+03  0.91347660369E+03  0.85310214567E+02 0.  0.
         11    1    3    3    0    0 -0.30472302942E+03  0.74233962343E+03 -0.90877937438E+03  0.12123548129E+04  0.00000000000E+00 0. -1.
        -11    1    3    3    0    0 -0.44646352403E+01  0.20532821869E+01  0.12370880165E+01  0.50674769194E+01  0.00000000000E+00 0.  1.
          4    1    6    6  502    0  0.16130727045E+03 -0.67300439366E+03 -0.16816480028E+03  0.71220386789E+03  0.00000000000E+00 0. -1.
          1    1    5    5  503    0  0.11176974417E+03  0.10901099552E+03 -0.40914971128E+03  0.43792620280E+03  0.00000000000E+00 0. -1.
         -2    1    5    5    0  503  0.83184179462E+01 -0.13885652629E+01  0.73194629849E+00  0.84652191939E+01  0.00000000000E+00 0.  1.
         -3    1    6    6    0  502  0.27792232088E+02 -0.17901094222E+03 -0.87711963714E+02  0.20127273580E+03  0.00000000000E+00 0.  1.
<mgrwt>
<rscale>  0 0.20424873E+04</rscale>
<asrwt>0</asrwt>
<pdfrwt beam="1">  1        2 0.77342579E-01 0.20424873E+04</pdfrwt>
<pdfrwt beam="2">  1       -2 0.31916362E+00 0.20424873E+04</pdfrwt>
<totfact> 0.13747408E+00</totfact>
</mgrwt>
</event>
<event>
12    1  0.1755460E-007  0.1968122E+04  0.7818608E-02  0.8621671E-01
         -2   -1    0    0    0  501 -0.00000000000E+00  0.00000000000E+00  0.28605825643E+04  0.28605825643E+04  0.00000000000E+00 0.  1.
          2   -1    0    0  501    0  0.00000000000E+00 -0.00000000000E+00 -0.33852423937E+03  0.33852423937E+03  0.00000000000E+00 0. -1.
         23    2    1    2    0    0 -0.20197862941E+03 -0.22643340408E+03 -0.15963483526E+03  0.35640676550E+03  0.97339861533E+02 0.  0.
        254    2    1    2    0    0  0.20197862941E+03  0.22643340408E+03  0.26816931602E+04  0.28427000381E+04  0.89297135919E+03 0.  0.
        -24    2    4    4    0    0  0.50639922821E+03  0.11609245627E+03  0.21636724110E+04  0.22265335184E+04  0.77817541404E+02 0.  0.
         24    2    4    4    0    0 -0.30442059880E+03  0.11034094782E+03  0.51802074919E+03  0.61616651975E+03  0.80427966105E+02 0.  0.
         11    1    3    3    0    0 -0.18510680886E+03 -0.19758735614E+03 -0.17201245716E+03  0.32077029072E+03  0.00000000000E+00 0.  1.
        -11    1    3    3    0    0 -0.16871820550E+02 -0.28846047939E+02  0.12377621902E+02  0.35636474774E+02  0.00000000000E+00 0. -1.
          4    1    6    6  502    0 -0.66320531091E+02  0.60118142923E+02  0.15864914604E+03  0.18215969777E+03  0.00000000000E+00 0. -1.
          1    1    5    5  503    0  0.22688118912E+03  0.17973032521E+02  0.85751855912E+03  0.88720695619E+03  0.00000000000E+00 0. -1.
         -2    1    5    5    0  503  0.27951803909E+03  0.98119423746E+02  0.13061538519E+04  0.13393265622E+04  0.00000000000E+00 0.  1.
         -3    1    6    6    0  502 -0.23810006771E+03  0.50222804893E+02  0.35937160314E+03  0.43400682197E+03  0.00000000000E+00 0.  1.
<mgrwt>
<rscale>  0 0.19681225E+04</rscale>
<asrwt>0</asrwt>
<pdfrwt beam="1">  1        2 0.52080654E-01 0.19681225E+04</pdfrwt>
<pdfrwt beam="2">  1       -2 0.44008961E+00 0.19681225E+04</pdfrwt>
<totfact> 0.36153540E-01</totfact>
</mgrwt>
</event>
<event>
12    1  0.1755460E-007  0.1560636E+04  0.7818608E-02  0.8845102E-01
         -2   -1    0    0    0  501 -0.00000000000E+00  0.00000000000E+00  0.42747415003E+03  0.42747415003E+03  0.00000000000E+00 0.  1.
          2   -1    0    0  501    0  0.00000000000E+00 -0.00000000000E+00 -0.14244049413E+04  0.14244049413E+04  0.00000000000E+00 0. -1.
         23    2    1    2    0    0 -0.25802590011E+02 -0.51290005397E+03 -0.33281445829E+03  0.61868164193E+03  0.90935534293E+02 0.  0.
        254    2    1    2    0    0  0.25802590011E+02  0.51290005397E+03 -0.66411633293E+03  0.12331974493E+04  0.90332342292E+03 0.  0.
        -24    2    4    4    0    0 -0.24184950267E+02  0.13440704450E+02 -0.71736757150E+03  0.72184587556E+03  0.75363592477E+02 0.  0.
         24    2    4    4    0    0  0.49987540279E+02  0.49945934952E+03  0.53251238573E+02  0.51135157378E+03  0.81770053149E+02 0.  0.
         11    1    3    3    0    0  0.17599466707E+02 -0.23182868969E+03 -0.19095674098E+03  0.30086335689E+03  0.00000000000E+00 0. -1.
        -11    1    3    3    0    0 -0.43402056718E+02 -0.28107136428E+03 -0.14185771731E+03  0.31781828504E+03  0.00000000000E+00 0.  1.
          2    1    6    6  502    0  0.70480197297E+02  0.30511680886E+03  0.32783000647E+02  0.31486258970E+03  0.00000000000E+00 0. -1.
          3    1    5    5  503    0 -0.25502380044E+02  0.20769327067E+02 -0.71177242208E+03  0.71253190607E+03  0.00000000000E+00 0. -1.
         -4    1    5    5    0  503  0.13174297770E+01 -0.73286226173E+01 -0.55951494228E+01  0.93139694947E+01  0.00000000000E+00 0.  1.
         -1    1    6    6    0  502 -0.20492657018E+02  0.19434254066E+03  0.20468237926E+02  0.19648898409E+03  0.00000000000E+00 0.  1.
<mgrwt>
<rscale>  0 0.15606361E+04</rscale>
<asrwt>0</asrwt>
<pdfrwt beam="1">  1        2 0.21913922E+00 0.15606361E+04</pdfrwt>
<pdfrwt beam="2">  1       -2 0.65765253E-01 0.15606361E+04</pdfrwt>
<totfact> 0.28688868E+01</totfact>
</mgrwt>
</event>
<event>
12    1  0.1755460E-007  0.2110401E+04  0.7818608E-02  0.8556675E-01
          2   -1    0    0  501    0  0.00000000000E+00  0.00000000000E+00  0.12215594608E+04  0.12215594608E+04  0.00000000000E+00 0. -1.
         -2   -1    0    0    0  501 -0.00000000000E+00 -0.00000000000E+00 -0.91149741048E+03  0.91149741048E+03  0.00000000000E+00 0.  1.
         23    2    1    2    0    0 -0.55594550225E+03  0.37257698489E+03 -0.41713048243E+03  0.79380969440E+03  0.90812886784E+02 0.  0.
        254    2    1    2    0    0  0.55594550225E+03 -0.37257698489E+03  0.72719253276E+03  0.13392471769E+04  0.90381691174E+03 0.  0.
        -24    2    4    4    0    0  0.76850922646E+03 -0.32848052777E+03  0.37889211115E+03  0.92108201680E+03  0.79542199504E+02 0.  0.
         24    2    4    4    0    0 -0.21256372421E+03 -0.44096457124E+02  0.34830042160E+03  0.41816516008E+03  0.80131660652E+02 0.  0.
         13    1    3    3    0    0 -0.49426899174E+02  0.65565961283E+02 -0.65182149385E+02  0.10483618764E+03  0.00000000000E+00 0. -1.
        -13    1    3    3    0    0 -0.50651860308E+03  0.30701102361E+03 -0.35194833305E+03  0.68897350676E+03  0.00000000000E+00 0.  1.
          2    1    6    6  502    0 -0.21182298792E+03 -0.47013451984E+02  0.30252569922E+03  0.37229160824E+03  0.00000000000E+00 0. -1.
          1    1    5    5  503    0  0.53977833573E+03 -0.20133648073E+03  0.28776333402E+03  0.64397575001E+03  0.00000000000E+00 0. -1.
         -2    1    5    5    0  503  0.22873089073E+03 -0.12714404704E+03  0.91128777130E+02  0.27710626679E+03  0.00000000000E+00 0.  1.
         -1    1    6    6    0  502 -0.74073628814E+00  0.29169948594E+01  0.45774722389E+02  0.45873551847E+02  0.00000000000E+00 0.  1.
<mgrwt>
<rscale>  0 0.21104012E+04</rscale>
<asrwt>0</asrwt>
<pdfrwt beam="1">  1        2 0.18793222E+00 0.21104012E+04</pdfrwt>
<pdfrwt beam="2">  1       -2 0.14023037E+00 0.21104012E+04</pdfrwt>
<totfact> 0.60557306E+00</totfact>
</mgrwt>
</event>
<event>
12    1  0.1755460E-007  0.1965944E+04  0.7818608E-02  0.8622710E-01
         -2   -1    0    0    0  501 -0.00000000000E+00  0.00000000000E+00  0.11317388418E+04  0.11317388418E+04  0.00000000000E+00 0.  1.
          2   -1    0    0  501    0  0.00000000000E+00 -0.00000000000E+00 -0.85376084626E+03  0.85376084626E+03  0.00000000000E+00 0. -1.
         23    2    1    2    0    0  0.19118999585E+03  0.37552176055E+03 -0.54322431773E+03  0.69338697554E+03  0.90125641797E+02 0.  0.
        254    2    1    2    0    0 -0.19118999585E+03 -0.37552176055E+03  0.82120231326E+03  0.12921127125E+04  0.90421889793E+03 0.  0.
        -24    2    4    4    0    0 -0.11845712533E+03 -0.43651918451E+03  0.98490097063E+03  0.10867875473E+04  0.80598772079E+02 0.  0.
         24    2    4    4    0    0 -0.72732870524E+02  0.60997423958E+02 -0.16369865737E+03  0.20532516520E+03  0.79689502777E+02 0.  0.
         13    1    3    3    0    0  0.48710524851E+02  0.19459582428E+03 -0.24890040712E+03  0.31967430727E+03  0.00000000000E+00 0. -1.
        -13    1    3    3    0    0  0.14247947100E+03  0.18092593627E+03 -0.29432391061E+03  0.37371266827E+03  0.00000000000E+00 0.  1.
          2    1    6    6  502    0 -0.59413675258E+01 -0.16869100470E+02 -0.45080350913E+02  0.48498499330E+02  0.00000000000E+00 0. -1.
          1    1    5    5  503    0 -0.11794836661E+03 -0.33271039346E+03  0.80673427252E+03  0.88058401618E+03  0.00000000000E+00 0. -1.
         -2    1    5    5    0  503 -0.50875871987E+00 -0.10380879104E+03  0.17816669811E+03  0.20620353113E+03  0.00000000000E+00 0.  1.
         -1    1    6    6    0  502 -0.66791502998E+02  0.77866524429E+02 -0.11861830646E+03  0.15682666587E+03  0.00000000000E+00 0.  1.
<mgrwt>
<rscale>  0 0.19659444E+04</rscale>
<asrwt>0</asrwt>
<pdfrwt beam="1">  1        2 0.13134782E+00 0.19659444E+04</pdfrwt>
<pdfrwt beam="2">  1       -2 0.17411367E+00 0.19659444E+04</pdfrwt>
<totfact> 0.58556170E+00</totfact>
</mgrwt>
</event>
<event>
12    1  0.1755460E-007  0.2019305E+04  0.7818608E-02  0.8597648E-01
          1   -1    0    0  501    0  0.00000000000E+00  0.00000000000E+00  0.22478458470E+04  0.22478458470E+04  0.00000000000E+00 0. -1.
         -1   -1    0    0    0  501 -0.00000000000E+00 -0.00000000000E+00 -0.45349984708E+03  0.45349984708E+03  0.00000000000E+00 0.  1.
         23    2    1    2    0    0  0.69265878263E+02  0.73083083709E+03  0.25528717883E+03  0.78258543570E+03  0.91416334212E+02 0.  0.
        254    2    1    2    0    0 -0.69265878263E+02 -0.73083083709E+03  0.15390588210E+04  0.19187602583E+04  0.87978826996E+03 0.  0.
        -24    2    4    4    0    0  0.24563505938E+03 -0.69111524941E+03  0.69565191111E+03  0.10141348328E+04  0.81000044983E+02 0.  0.
         24    2    4    4    0    0 -0.31490093764E+03 -0.39715587682E+02  0.84340690994E+03  0.90462542553E+03  0.79196062765E+02 0.  0.
         13    1    3    3    0    0  0.54845045980E+02  0.26084661616E+03  0.12660586796E+03  0.29508978639E+03  0.00000000000E+00 0. -1.
        -13    1    3    3    0    0  0.14420832283E+02  0.46998422094E+03  0.12868131087E+03  0.48749564932E+03  0.00000000000E+00 0.  1.
          4    1    6    6  502    0  0.47170880939E+01  0.11705295512E+01  0.14444152306E+02  0.15239901422E+02  0.00000000000E+00 0. -1.
          3    1    5    5  503    0  0.90616502811E+02 -0.23510376631E+03  0.18810261137E+03  0.31443238370E+03  0.00000000000E+00 0. -1.
         -4    1    5    5    0  503  0.15501855657E+03 -0.45601148310E+03  0.50754929974E+03  0.69970244909E+03  0.00000000000E+00 0.  1.
         -3    1    6    6    0  502 -0.31961802574E+03 -0.40886117233E+02  0.82896275763E+03  0.88938552411E+03  0.00000000000E+00 0.  1.
<mgrwt>
<rscale>  0 0.20193046E+04</rscale>
<asrwt>0</asrwt>
<pdfrwt beam="1">  1        1 0.34582243E+00 0.20193046E+04</pdfrwt>
<pdfrwt beam="2">  1       -1 0.69769209E-01 0.20193046E+04</pdfrwt>
<totfact> 0.38876176E+00</totfact>
</mgrwt>
</event>
<event>
12    1  0.1755460E-007  0.1689836E+04  0.7818608E-02  0.8767183E-01
         -2   -1    0    0    0  501 -0.00000000000E+00  0.00000000000E+00  0.82221998903E+03  0.82221998903E+03  0.00000000000E+00 0.  1.
          2   -1    0    0  501    0  0.00000000000E+00 -0.00000000000E+00 -0.86824255375E+03  0.86824255375E+03  0.00000000000E+00 0. -1.
         23    2    1    2    0    0 -0.89967204104E+02 -0.47742834708E+03 -0.37823269101E+03  0.62261613335E+03  0.92514628873E+02 0.  0.
        254    2    1    2    0    0  0.89967204104E+02  0.47742834708E+03  0.33221012630E+03  0.10678464094E+04  0.89101092120E+03 0.  0.
        -24    2    4    4    0    0 -0.23169451312E+03  0.60248723947E+03  0.28575306988E+03  0.71037526750E+03  0.79403920571E+02 0.  0.
         24    2    4    4    0    0  0.32166171723E+03 -0.12505889239E+03  0.46457056421E+02  0.35747114192E+03  0.80755014196E+02 0.  0.
         11    1    3    3    0    0 -0.65433651573E+02 -0.40593316313E+03 -0.35587223200E+03  0.54379071452E+03  0.00000000000E+00 0. -1.
        -11    1    3    3    0    0 -0.24533552530E+02 -0.71495183946E+02 -0.22360459009E+02  0.78825418834E+02  0.00000000000E+00 0.  1.
          4    1    6    6  502    0  0.11450139423E+03 -0.86593608832E+02  0.13239393034E+02  0.14416762431E+03  0.00000000000E+00 0. -1.
          3    1    5    5  503    0 -0.23594355395E+01  0.16209078678E+02  0.22927253936E+02  0.28177298322E+02  0.00000000000E+00 0. -1.
         -4    1    5    5    0  503 -0.22933507758E+03  0.58627816079E+03  0.26282581594E+03  0.68219796918E+03  0.00000000000E+00 0.  1.
         -3    1    6    6    0  502  0.20716032300E+03 -0.38465283560E+02  0.33217663387E+02  0.21330351761E+03  0.00000000000E+00 0.  1.
<mgrwt>
<rscale>  0 0.16898359E+04</rscale>
<asrwt>0</asrwt>
<pdfrwt beam="1">  1        2 0.13357578E+00 0.16898359E+04</pdfrwt>
<pdfrwt beam="2">  1       -2 0.12649538E+00 0.16898359E+04</pdfrwt>
<totfact> 0.13659488E+01</totfact>
</mgrwt>
</event>
<event>
12    1  0.1755460E-007  0.1580040E+04  0.7818608E-02  0.8832905E-01
         -1   -1    0    0    0  501 -0.00000000000E+00  0.00000000000E+00  0.44835473967E+03  0.44835473967E+03  0.00000000000E+00 0.  1.
          1   -1    0    0  501    0  0.00000000000E+00 -0.00000000000E+00 -0.13920489370E+04  0.13920489370E+04  0.00000000000E+00 0. -1.
         23    2    1    2    0    0 -0.43808267397E+02  0.15475004451E+03  0.26916291391E+03  0.32674122440E+03  0.91893486874E+02 0.  0.
        254    2    1    2    0    0  0.43808267397E+02 -0.15475004451E+03 -0.12128571112E+04  0.15136624522E+04  0.89122663027E+03 0.  0.
        -24    2    4    4    0    0 -0.28171270555E+02 -0.99008285621E+02 -0.13348871957E+04  0.13412564598E+04  0.80304449839E+02 0.  0.
         24    2    4    4    0    0  0.71979537952E+02 -0.55741758884E+02  0.12203008450E+03  0.17240599239E+03  0.80896768300E+02 0.  0.
         13    1    3    3    0    0 -0.49847281104E+02  0.16166088998E+03  0.22427093440E+03  0.28092071266E+03  0.00000000000E+00 0.  1.
        -13    1    3    3    0    0  0.60390137066E+01 -0.69108454769E+01  0.44891979516E+02  0.45820511745E+02  0.00000000000E+00 0. -1.
          2    1    6    6  502    0  0.57463319149E+02 -0.59078034063E+02  0.13118336698E+03  0.15492360352E+03  0.00000000000E+00 0. -1.
          3    1    5    5  503    0  0.17693651857E+02 -0.73198679407E+01 -0.45740855539E+03  0.45780916584E+03  0.00000000000E+00 0. -1.
         -4    1    5    5    0  503 -0.45864922412E+02 -0.91688417680E+02 -0.87747864031E+03  0.88344729399E+03  0.00000000000E+00 0.  1.
         -1    1    6    6    0  502  0.14516218802E+02  0.33362751792E+01 -0.91532824779E+01  0.17482388867E+02  0.00000000000E+00 0.  1.
<mgrwt>
<rscale>  0 0.15800402E+04</rscale>
<asrwt>0</asrwt>
<pdfrwt beam="1">  1        1 0.21416137E+00 0.15800402E+04</pdfrwt>
<pdfrwt beam="2">  1       -1 0.68977653E-01 0.15800402E+04</pdfrwt>
<totfact> 0.15905356E+01</totfact>
</mgrwt>
</event>
<event>
12    1  0.1755460E-007  0.1227762E+04  0.7818608E-02  0.9088898E-01
          2   -1    0    0  501    0  0.00000000000E+00  0.00000000000E+00  0.17768643151E+04  0.17768643151E+04  0.00000000000E+00 0. -1.
         -2   -1    0    0    0  501 -0.00000000000E+00 -0.00000000000E+00 -0.21208707556E+03  0.21208707556E+03  0.00000000000E+00 0.  1.
         23    2    1    2    0    0 -0.19139748361E+03  0.11161876572E+03  0.10861254481E+03  0.26239374851E+03  0.89230313082E+02 0.  0.
        254    2    1    2    0    0  0.19139748361E+03 -0.11161876572E+03  0.14561646948E+04  0.17265576422E+04  0.90082957763E+03 0.  0.
        -24    2    4    4    0    0 -0.35102601747E+03  0.71884252063E+01  0.46538559658E+03  0.58800504099E+03  0.76780442293E+02 0.  0.
         24    2    4    4    0    0  0.54242350109E+03 -0.11880719092E+03  0.99077909818E+03  0.11385526012E+04  0.79500950785E+02 0.  0.
         13    1    3    3    0    0 -0.11344051686E+03  0.54090834142E+02  0.13121473483E+02  0.12635957530E+03  0.00000000000E+00 0.  1.
        -13    1    3    3    0    0 -0.77956966749E+02  0.57527931575E+02  0.95491071332E+02  0.13603417321E+03  0.00000000000E+00 0. -1.
          2    1    6    6  502    0  0.53747781384E+03 -0.11097718538E+03  0.98517754145E+03  0.11277291892E+04  0.00000000000E+00 0. -1.
          1    1    5    5  503    0 -0.31490707223E+03  0.12483181742E+02  0.37089917299E+03  0.48671191736E+03  0.00000000000E+00 0. -1.
         -2    1    5    5    0  503 -0.36118945239E+02 -0.52947565354E+01  0.94486423592E+02  0.10129312363E+03  0.00000000000E+00 0.  1.
         -1    1    6    6    0  502  0.49456872409E+01 -0.78300055469E+01  0.56015567330E+01  0.10823411984E+02  0.00000000000E+00 0.  1.
<mgrwt>
<rscale>  0 0.12277621E+04</rscale>
<asrwt>0</asrwt>
<pdfrwt beam="1">  1        2 0.27336373E+00 0.12277621E+04</pdfrwt>
<pdfrwt beam="2">  1       -2 0.32628782E-01 0.12277621E+04</pdfrwt>
<totfact> 0.76657451E+01</totfact>
</mgrwt>
</event>
<event>
12    1  0.1755460E-007  0.2036922E+04  0.7818608E-02  0.8589550E-01
          2   -1    0    0  501    0  0.00000000000E+00  0.00000000000E+00  0.12602872189E+04  0.12602872189E+04  0.00000000000E+00 0. -1.
         -2   -1    0    0    0  501 -0.00000000000E+00 -0.00000000000E+00 -0.82303677395E+03  0.82303677395E+03  0.00000000000E+00 0.  1.
         23    2    1    2    0    0 -0.77783713184E+03 -0.19332816711E+03  0.16137535475E+03  0.82452361820E+03  0.10672772830E+03 0.  0.
        254    2    1    2    0    0  0.77783713184E+03  0.19332816711E+03  0.27587509020E+03  0.12588003747E+04  0.93062609784E+03 0.  0.
        -24    2    4    4    0    0 -0.12716203452E+03  0.26507885873E+03 -0.53744779550E+01  0.30509088420E+03  0.81330057437E+02 0.  0.
         24    2    4    4    0    0  0.90499916636E+03 -0.71750691616E+02  0.28124956815E+03  0.95370949045E+03  0.79302079048E+02 0.  0.
         13    1    3    3    0    0 -0.13024225484E+03 -0.23998054801E+02  0.67378096630E+02  0.14858923072E+03  0.00000000000E+00 0. -1.
        -13    1    3    3    0    0 -0.64759487699E+03 -0.16933011231E+03  0.93997258121E+02  0.67593438748E+03  0.00000000000E+00 0.  1.
          4    1    6    6  502    0  0.53559767771E+03 -0.77746766953E+01  0.18434109667E+03  0.56648650283E+03  0.00000000000E+00 0. -1.
          1    1    5    5  503    0 -0.11826697083E+03  0.16628418641E+03 -0.19129574242E+02  0.20494742655E+03  0.00000000000E+00 0. -1.
         -2    1    5    5    0  503 -0.88950636876E+01  0.98794672314E+02  0.13755096287E+02  0.10014345765E+03  0.00000000000E+00 0.  1.
         -3    1    6    6    0  502  0.36940148865E+03 -0.63976014921E+02  0.96908471481E+02  0.38722298763E+03  0.00000000000E+00 0.  1.
<mgrwt>
<rscale>  0 0.20369219E+04</rscale>
<asrwt>0</asrwt>
<pdfrwt beam="1">  1        2 0.19389034E+00 0.20369219E+04</pdfrwt>
<pdfrwt beam="2">  1       -2 0.12662104E+00 0.20369219E+04</pdfrwt>
<totfact> 0.75009067E+00</totfact>
</mgrwt>
</event>
<event>
12    1  0.1755460E-007  0.1654976E+04  0.7818608E-02  0.8787468E-01
          1   -1    0    0  501    0  0.00000000000E+00  0.00000000000E+00  0.17302070956E+04  0.17302070956E+04  0.00000000000E+00 0. -1.
         -1   -1    0    0    0  501 -0.00000000000E+00 -0.00000000000E+00 -0.39575420564E+03  0.39575420564E+03  0.00000000000E+00 0.  1.
         23    2    1    2    0    0 -0.10550077761E+03 -0.40633432030E+03  0.98277991019E+03  0.10724433712E+04  0.89668492561E+02 0.  0.
        254    2    1    2    0    0  0.10550077761E+03  0.40633432030E+03  0.35167297980E+03  0.10535179301E+04  0.89999341688E+03 0.  0.
        -24    2    4    4    0    0 -0.10589842390E+03  0.39393731601E+03  0.59172729046E+03  0.72315672863E+03  0.80083598589E+02 0.  0.
         24    2    4    4    0    0  0.21139920151E+03  0.12397004289E+02 -0.24005431065E+03  0.33036120148E+03  0.81664822717E+02 0.  0.
         13    1    3    3    0    0 -0.11491721937E+03 -0.33954939337E+03  0.87115376799E+03  0.94202369680E+03  0.00000000000E+00 0. -1.
        -13    1    3    3    0    0  0.94164417615E+01 -0.66784926921E+02  0.11162614220E+03  0.13041967436E+03  0.00000000000E+00 0.  1.
          2    1    6    6  502    0  0.44647493039E+02 -0.27440828511E+02 -0.81151955021E+02  0.96602471541E+02  0.00000000000E+00 0. -1.
          1    1    5    5  503    0  0.35867991949E+01  0.62703934561E+01 -0.12222837097E+00  0.72248115777E+01  0.00000000000E+00 0. -1.
         -2    1    5    5    0  503 -0.10948522309E+03  0.38766692255E+03  0.59184951883E+03  0.71593191705E+03  0.00000000000E+00 0.  1.
         -1    1    6    6    0  502  0.16675170847E+03  0.39837832800E+02 -0.15890235563E+03  0.23375872994E+03  0.00000000000E+00 0.  1.
<mgrwt>
<rscale>  0 0.16549764E+04</rscale>
<asrwt>0</asrwt>
<pdfrwt beam="1">  1        1 0.26618570E+00 0.16549764E+04</pdfrwt>
<pdfrwt beam="2">  1       -1 0.60885263E-01 0.16549764E+04</pdfrwt>
<totfact> 0.11877399E+01</totfact>
</mgrwt>
</event>
<event>
12    1  0.1755460E-007  0.1348671E+04  0.7818608E-02  0.8991834E-01
         -1   -1    0    0    0  501 -0.00000000000E+00  0.00000000000E+00  0.52066433572E+03  0.52066433572E+03  0.00000000000E+00 0.  1.
          1   -1    0    0  501    0  0.00000000000E+00 -0.00000000000E+00 -0.87336240992E+03  0.87336240992E+03  0.00000000000E+00 0. -1.
         23    2    1    2    0    0  0.21028419124E+03  0.22855938915E+03  0.10797507211E+03  0.34050250506E+03  0.88456228175E+02 0.  0.
        254    2    1    2    0    0 -0.21028419124E+03 -0.22855938915E+03 -0.46067314631E+03  0.10535242406E+04  0.89511716680E+03 0.  0.
        -24    2    4    4    0    0 -0.38335760631E+03  0.10140194167E+02 -0.60090080294E+03  0.71730761314E+03  0.79890919680E+02 0.  0.
         24    2    4    4    0    0  0.17307341507E+03 -0.23869958332E+03  0.14022765662E+03  0.33621662744E+03  0.80286529442E+02 0.  0.
         11    1    3    3    0    0  0.10732242140E+03  0.17348921237E+03  0.87418163315E+02  0.22194265976E+03  0.00000000000E+00 0.  1.
        -11    1    3    3    0    0  0.10296176984E+03  0.55070176778E+02  0.20556908799E+02  0.11855984530E+03  0.00000000000E+00 0. -1.
          2    1    6    6  502    0  0.12401661996E+03 -0.16142071741E+03  0.54320833344E+02  0.21068346630E+03  0.00000000000E+00 0. -1.
          1    1    5    5  503    0 -0.26815195972E+03  0.41922617900E+02 -0.43791890129E+03  0.51520475881E+03  0.00000000000E+00 0. -1.
         -2    1    5    5    0  503 -0.11520564659E+03 -0.31782423733E+02 -0.16298190164E+03  0.20210285432E+03  0.00000000000E+00 0.  1.
         -1    1    6    6    0  502  0.49056795103E+02 -0.77278865910E+02  0.85906823279E+02  0.12553316115E+03  0.00000000000E+00 0.  1.
<mgrwt>
<rscale>  0 0.13486714E+04</rscale>
<asrwt>0</asrwt>
<pdfrwt beam="1">  1        1 0.13436345E+00 0.13486714E+04</pdfrwt>
<pdfrwt beam="2">  1       -1 0.80102206E-01 0.13486714E+04</pdfrwt>
<totfact> 0.29163520E+01</totfact>
</mgrwt>
</event>
<event>
12    1  0.1755460E-007  0.1472738E+04  0.7818608E-02  0.8902787E-01
         -2   -1    0    0    0  501 -0.00000000000E+00  0.00000000000E+00  0.75825288565E+03  0.75825288565E+03  0.00000000000E+00 0.  1.
          2   -1    0    0  501    0  0.00000000000E+00 -0.00000000000E+00 -0.71511687718E+03  0.71511687718E+03  0.00000000000E+00 0. -1.
         23    2    1    2    0    0  0.20416277189E+03 -0.20009590066E+03  0.37567501786E+03  0.48047712346E+03  0.89474802239E+02 0.  0.
        254    2    1    2    0    0 -0.20416277189E+03  0.20009590066E+03 -0.33253900939E+03  0.99289263937E+03  0.89080457659E+03 0.  0.
        -24    2    4    4    0    0 -0.20957058485E+03  0.19434115384E+03  0.26049849470E+03  0.39455197151E+03  0.78252657239E+02 0.  0.
         24    2    4    4    0    0  0.54078129678E+01  0.57547468185E+01 -0.59303750409E+03  0.59834066787E+03  0.79093059201E+02 0.  0.
         11    1    3    3    0    0  0.44055055030E+02 -0.11017444975E+01  0.58948500162E+02  0.73600186046E+02  0.00000000000E+00 0. -1.
        -11    1    3    3    0    0  0.16010771686E+03 -0.19899415616E+03  0.31672651770E+03  0.40687693741E+03  0.00000000000E+00 0.  1.
          2    1    6    6  502    0  0.24392273970E+02 -0.25856128552E+02 -0.16870730824E+03  0.17241136351E+03  0.00000000000E+00 0. -1.
          3    1    5    5  503    0 -0.15623798521E+03  0.11828504897E+03  0.13312889103E+03  0.23690707558E+03  0.00000000000E+00 0. -1.
         -4    1    5    5    0  503 -0.53332599646E+02  0.76056104867E+02  0.12736960367E+03  0.15764489592E+03  0.00000000000E+00 0.  1.
         -1    1    6    6    0  502 -0.18984461002E+02  0.31610875371E+02 -0.42433019585E+03  0.42592930436E+03  0.00000000000E+00 0.  1.
<mgrwt>
<rscale>  0 0.14727382E+04</rscale>
<asrwt>0</asrwt>
<pdfrwt beam="1">  1        2 0.11001798E+00 0.14727382E+04</pdfrwt>
<pdfrwt beam="2">  1       -2 0.11665429E+00 0.14727382E+04</pdfrwt>
<totfact> 0.21979390E+01</totfact>
</mgrwt>
</event>
<event>
12    1  0.1755460E-007  0.2716150E+04  0.7818608E-02  0.8329784E-01
         -2   -1    0    0    0  501 -0.00000000000E+00  0.00000000000E+00  0.33678965353E+04  0.33678965353E+04  0.00000000000E+00 0.  1.
          2   -1    0    0  501    0  0.00000000000E+00 -0.00000000000E+00 -0.54763194638E+03  0.54763194638E+03  0.00000000000E+00 0. -1.
         23    2    1    2    0    0  0.56909729933E+03 -0.27163185662E+03 -0.22767447163E+03  0.67676993974E+03  0.92337883168E+02 0.  0.
        254    2    1    2    0    0 -0.56909729933E+03  0.27163185662E+03  0.30479390605E+04  0.32387585419E+04  0.89552709313E+03 0.  0.
        -24    2    4    4    0    0 -0.90473516219E+02  0.52507230114E+03  0.13011062730E+04  0.14081830529E+04  0.78839066256E+02 0.  0.
         24    2    4    4    0    0 -0.47862378311E+03 -0.25344044452E+03  0.17468327875E+04  0.18305754890E+04  0.79177323912E+02 0.  0.
         11    1    3    3    0    0  0.19798688812E+03 -0.14413231374E+03 -0.90610605042E+02  0.26111915571E+03  0.00000000000E+00 0.  1.
        -11    1    3    3    0    0  0.37111041121E+03 -0.12749954288E+03 -0.13706386659E+03  0.41565078403E+03  0.00000000000E+00 0. -1.
          4    1    6    6  502    0 -0.33824746960E+03 -0.21067337704E+03  0.13447807932E+04  0.14025797675E+04  0.00000000000E+00 0. -1.
          3    1    5    5  503    0 -0.89564537876E+02  0.46968743251E+03  0.12160780796E+04  0.13067034807E+04  0.00000000000E+00 0. -1.
         -4    1    5    5    0  503 -0.90897834287E+00  0.55384868627E+02  0.85028193405E+02  0.10147957227E+03  0.00000000000E+00 0.  1.
         -3    1    6    6    0  502 -0.14037631351E+03 -0.42767067478E+02  0.40205199434E+03  0.42799572148E+03  0.00000000000E+00 0.  1.
<mgrwt>
<rscale>  0 0.27161500E+04</rscale>
<asrwt>0</asrwt>
<pdfrwt beam="1">  1        2 0.84251071E-01 0.27161500E+04</pdfrwt>
<pdfrwt beam="2">  1       -2 0.51813792E+00 0.27161500E+04</pdfrwt>
<totfact> 0.61759095E-02</totfact>
</mgrwt>
</event>
<event>
12    1  0.1755460E-007  0.1168535E+04  0.7818608E-02  0.9140853E-01
         -2   -1    0    0    0  501 -0.00000000000E+00  0.00000000000E+00  0.19352766375E+03  0.19352766375E+03  0.00000000000E+00 0.  1.
          2   -1    0    0  501    0  0.00000000000E+00 -0.00000000000E+00 -0.17639257986E+04  0.17639257986E+04  0.00000000000E+00 0. -1.
         23    2    1    2    0    0  0.11708257089E+03 -0.73834275078E+02 -0.65969483585E+03  0.68024599200E+03  0.91528709171E+02 0.  0.
        254    2    1    2    0    0 -0.11708257089E+03  0.73834275078E+02 -0.91070329905E+03  0.12772074704E+04  0.88471384919E+03 0.  0.
        -24    2    4    4    0    0 -0.33154336646E+03  0.23685189963E+03 -0.90596302557E+03  0.99662826029E+03  0.80492603968E+02 0.  0.
         24    2    4    4    0    0  0.21446079557E+03 -0.16301762456E+03 -0.47402734747E+01  0.28057921011E+03  0.78320139169E+02 0.  0.
         11    1    3    3    0    0  0.98900295188E+02 -0.53693820391E+02 -0.63019938475E+03  0.64016838354E+03  0.00000000000E+00 0. -1.
        -11    1    3    3    0    0  0.18182275703E+02 -0.20140454687E+02 -0.29495451095E+02  0.40077608462E+02  0.00000000000E+00 0.  1.
          2    1    6    6  502    0  0.11417806657E+03 -0.10023999343E+03 -0.40021351971E+02  0.15711904971E+03  0.00000000000E+00 0. -1.
          1    1    5    5  503    0 -0.17980030869E+03  0.15630575655E+03 -0.44625841132E+03  0.50587173296E+03  0.00000000000E+00 0. -1.
         -2    1    5    5    0  503 -0.15174305776E+03  0.80546143085E+02 -0.45970461425E+03  0.49075652732E+03  0.00000000000E+00 0.  1.
         -1    1    6    6    0  502  0.10028272900E+03 -0.62777631131E+02  0.35281078496E+02  0.12346016040E+03  0.00000000000E+00 0.  1.
<mgrwt>
<rscale>  0 0.11685349E+04</rscale>
<asrwt>0</asrwt>
<pdfrwt beam="1">  1        2 0.27137320E+00 0.11685349E+04</pdfrwt>
<pdfrwt beam="2">  1       -2 0.29773487E-01 0.11685349E+04</pdfrwt>
<totfact> 0.92934780E+01</totfact>
</mgrwt>
</event>
<event>
12    1  0.1755460E-007  0.1821934E+04  0.7818608E-02  0.8694721E-01
          1   -1    0    0  501    0  0.00000000000E+00  0.00000000000E+00  0.86921517937E+03  0.86921517937E+03  0.00000000000E+00 0. -1.
         -1   -1    0    0    0  501 -0.00000000000E+00 -0.00000000000E+00 -0.95472426595E+03  0.95472426595E+03  0.00000000000E+00 0.  1.
         23    2    1    2    0    0  0.21938403892E+03 -0.40626716058E+03  0.46844812572E+03  0.66412177345E+03  0.91824404063E+02 0.  0.
        254    2    1    2    0    0 -0.21938403892E+03  0.40626716058E+03 -0.55395721230E+03  0.11598176719E+04  0.90836450647E+03 0.  0.
        -24    2    4    4    0    0  0.29606260228E+03 -0.66895836354E+02 -0.19309884140E+03  0.36849291620E+03  0.79823238185E+02 0.  0.
         24    2    4    4    0    0 -0.51544664120E+03  0.47316299694E+03 -0.36085837090E+03  0.79132475566E+03  0.80047757471E+02 0.  0.
         11    1    3    3    0    0  0.25231629363E+02 -0.13396545297E+03  0.13744162603E+03  0.19358093468E+03  0.00000000000E+00 0.  1.
        -11    1    3    3    0    0  0.19415240956E+03 -0.27230170762E+03  0.33100649969E+03  0.47054083877E+03  0.00000000000E+00 0. -1.
          4    1    6    6  502    0 -0.28035257928E+03  0.23741922940E+03 -0.23098149626E+03  0.43395611623E+03  0.00000000000E+00 0. -1.
          1    1    5    5  503    0 -0.31756411965E+01  0.17124647448E+01  0.25762810535E+01  0.44333347017E+01  0.00000000000E+00 0. -1.
         -4    1    5    5    0  503  0.29923824347E+03 -0.68608301099E+02 -0.19567512245E+03  0.36405958150E+03  0.00000000000E+00 0.  1.
         -3    1    6    6    0  502 -0.23509406192E+03  0.23574376753E+03 -0.12987687464E+03  0.35736863943E+03  0.00000000000E+00 0.  1.
<mgrwt>
<rscale>  0 0.18219339E+04</rscale>
<asrwt>0</asrwt>
<pdfrwt beam="1">  1        1 0.13372541E+00 0.18219339E+04</pdfrwt>
<pdfrwt beam="2">  1       -1 0.14688066E+00 0.18219339E+04</pdfrwt>
<totfact> 0.67102461E+00</totfact>
</mgrwt>
</event>
<event>
12    1  0.1755460E-007  0.1946816E+04  0.7818608E-02  0.8631898E-01
          1   -1    0    0  501    0  0.00000000000E+00  0.00000000000E+00  0.20315376359E+04  0.20315376359E+04  0.00000000000E+00 0. -1.
         -1   -1    0    0    0  501 -0.00000000000E+00 -0.00000000000E+00 -0.46640677454E+03  0.46640677454E+03  0.00000000000E+00 0.  1.
         23    2    1    2    0    0 -0.53514082162E+03  0.93240737458E+02 -0.66269664582E+02  0.55400250812E+03  0.86357260716E+02 0.  0.
        254    2    1    2    0    0  0.53514082162E+03 -0.93240737458E+02  0.16314005259E+04  0.19439419023E+04  0.90684778734E+03 0.  0.
        -24    2    4    4    0    0  0.12816375429E+03 -0.44204691719E+03  0.10483397254E+04  0.11476186797E+04  0.78619521900E+02 0.  0.
         24    2    4    4    0    0  0.40697706733E+03  0.34880617973E+03  0.58306080050E+03  0.79632322258E+03  0.82913770751E+02 0.  0.
         11    1    3    3    0    0 -0.31984617405E+02 -0.14008107919E+02  0.23012267094E+01  0.34993406270E+02  0.00000000000E+00 0. -1.
        -11    1    3    3    0    0 -0.50315620422E+03  0.10724884538E+03 -0.68570891291E+02  0.51900910185E+03  0.00000000000E+00 0.  1.
          4    1    6    6  502    0  0.33948105358E+03  0.25324885128E+03  0.48283401854E+03  0.64227023587E+03  0.00000000000E+00 0. -1.
          1    1    5    5  503    0  0.10373124579E+03 -0.42409832789E+03  0.98095722889E+03  0.10737302492E+04  0.00000000000E+00 0. -1.
         -2    1    5    5    0  503  0.24432508500E+02 -0.17948589296E+02  0.67382496500E+02  0.73888430515E+02  0.00000000000E+00 0.  1.
         -3    1    6    6    0  502  0.67496013750E+02  0.95557328451E+02  0.10022678196E+03  0.15405298671E+03  0.00000000000E+00 0.  1.
<mgrwt>
<rscale>  0 0.19468158E+04</rscale>
<asrwt>0</asrwt>
<pdfrwt beam="1">  1        1 0.31254424E+00 0.19468158E+04</pdfrwt>
<pdfrwt beam="2">  1       -1 0.71754890E-01 0.19468158E+04</pdfrwt>
<totfact> 0.51821907E+00</totfact>
</mgrwt>
</event>
<event>
12    1  0.1755460E-007  0.1839243E+04  0.7818608E-02  0.8685705E-01
          2   -1    0    0  501    0  0.00000000000E+00  0.00000000000E+00  0.99887518172E+03  0.99887518172E+03  0.00000000000E+00 0.  1.
         -2   -1    0    0    0  501 -0.00000000000E+00 -0.00000000000E+00 -0.84665561145E+03  0.84665561145E+03  0.00000000000E+00 0. -1.
         23    2    1    2    0    0  0.59096117515E+03 -0.28724387652E+03 -0.17585459582E+03  0.68632826965E+03  0.91528682470E+02 0.  0.
        254    2    1    2    0    0 -0.59096117515E+03  0.28724387652E+03  0.32807416610E+03  0.11592025235E+04  0.89686881814E+03 0.  0.
        -24    2    4    4    0    0 -0.60980171929E+03 -0.48081775602E+02 -0.82580820844E+02  0.62255878905E+03  0.81177951803E+02 0.  0.
         24    2    4    4    0    0  0.18840544140E+02  0.33532565212E+03  0.41065498694E+03  0.53664373448E+03  0.80936520683E+02 0.  0.
         13    1    3    3    0    0  0.96745416118E+02 -0.85169571708E+02 -0.22820298270E+02  0.13089804238E+03  0.00000000000E+00 0.  1.
        -13    1    3    3    0    0  0.49421575903E+03 -0.20207430481E+03 -0.15303429755E+03  0.55543022727E+03  0.00000000000E+00 0. -1.
          2    1    6    6  502    0  0.38327597201E+02  0.76907813166E+02  0.11349685857E+03  0.14235643062E+03  0.00000000000E+00 0. -1.
          3    1    5    5  503    0 -0.43007479400E+03 -0.36688718212E+02 -0.95266061844E+02  0.44202490090E+03  0.00000000000E+00 0. -1.
         -4    1    5    5    0  503 -0.17972692529E+03 -0.11393057390E+02  0.12685241000E+02  0.18053388815E+03  0.00000000000E+00 0.  1.
         -1    1    6    6    0  502 -0.19487053062E+02  0.25841783895E+03  0.29715812837E+03  0.39428730385E+03  0.00000000000E+00 0.  1.
<mgrwt>
<rscale>  0 0.18392425E+04</rscale>
<asrwt>0</asrwt>
<pdfrwt beam="1">  1        2 0.15367311E+00 0.18392425E+04</pdfrwt>
<pdfrwt beam="2">  1       -2 0.13025471E+00 0.18392425E+04</pdfrwt>
<totfact> 0.10261383E+01</totfact>
</mgrwt>
</event>
<event>
12    1  0.1755460E-007  0.2315429E+04  0.7818608E-02  0.8471862E-01
          1   -1    0    0  501    0  0.00000000000E+00  0.00000000000E+00  0.20190622557E+04  0.20190622557E+04  0.00000000000E+00 0. -1.
         -1   -1    0    0    0  501 -0.00000000000E+00 -0.00000000000E+00 -0.66382447119E+03  0.66382447119E+03  0.00000000000E+00 0.  1.
         23    2    1    2    0    0  0.96829445791E+03  0.28104265036E+02  0.75711401450E+03  0.12328804584E+04  0.91589229260E+02 0.  0.
        254    2    1    2    0    0 -0.96829445791E+03 -0.28104265036E+02  0.59812377003E+03  0.14500062685E+04  0.89798782141E+03 0.  0.
        -24    2    4    4    0    0 -0.51451878082E+03  0.36493115872E+02  0.79001483615E+03  0.94672442705E+03  0.78117706726E+02 0.  0.
         24    2    4    4    0    0 -0.45377567709E+03 -0.64597380908E+02 -0.19189106612E+03  0.50328184143E+03  0.79907721283E+02 0.  0.
         11    1    3    3    0    0  0.93228190558E+03  0.16771666702E+02  0.70713059692E+03  0.11702412236E+04  0.00000000000E+00 0. -1.
        -11    1    3    3    0    0  0.36012552335E+02  0.11332598334E+02  0.49983417581E+02  0.62639234859E+02  0.00000000000E+00 0.  1.
          2    1    6    6  502    0 -0.39320035033E+02 -0.28898812777E+02 -0.27290057881E+02  0.55910229780E+02  0.00000000000E+00 0. -1.
          1    1    5    5  503    0 -0.21555495316E+03 -0.23223500381E+02  0.33253323136E+03  0.39696551331E+03  0.00000000000E+00 0. -1.
         -2    1    5    5    0  503 -0.29896382767E+03  0.59716616253E+02  0.45748160479E+03  0.54975891374E+03  0.00000000000E+00 0.  1.
         -1    1    6    6    0  502 -0.41445564205E+03 -0.35698568132E+02 -0.16460100823E+03  0.44737161165E+03  0.00000000000E+00 0.  1.
<mgrwt>
<rscale>  0 0.23154291E+04</rscale>
<asrwt>0</asrwt>
<pdfrwt beam="1">  1        1 0.31062496E+00 0.23154291E+04</pdfrwt>
<pdfrwt beam="2">  1       -1 0.10212684E+00 0.23154291E+04</pdfrwt>
<totfact> 0.23704035E+00</totfact>
</mgrwt>
</event>
<event>
12    1  0.1755460E-007  0.1876254E+04  0.7818608E-02  0.8666767E-01
         -2   -1    0    0    0  501 -0.00000000000E+00  0.00000000000E+00  0.57527055134E+03  0.57527055134E+03  0.00000000000E+00 0.  1.
          2   -1    0    0  501    0  0.00000000000E+00 -0.00000000000E+00 -0.15298580176E+04  0.15298580176E+04  0.00000000000E+00 0. -1.
         23    2    1    2    0    0 -0.14319683613E+03 -0.57455555528E+03 -0.58299513749E+03  0.83600731133E+03  0.91681373685E+02 0.  0.
        254    2    1    2    0    0  0.14319683613E+03  0.57455555528E+03 -0.37159232874E+03  0.12691212576E+04  0.10592301391E+04 0.  0.
        -24    2    4    4    0    0  0.36631034400E+03  0.31123595823E+03 -0.65420753760E+03  0.81602449199E+03  0.82809295731E+02 0.  0.
         24    2    4    4    0    0 -0.22311350787E+03  0.26331959705E+03  0.28261520886E+03  0.45309676558E+03  0.79425909582E+02 0.  0.
         13    1    3    3    0    0 -0.94812483834E+02 -0.46314842919E+03 -0.50451710743E+03  0.69139958507E+03  0.00000000000E+00 0. -1.
        -13    1    3    3    0    0 -0.48384352294E+02 -0.11140712609E+03 -0.78478030057E+02  0.14460772625E+03  0.00000000000E+00 0.  1.
          4    1    6    6  502    0 -0.33068056782E+02  0.92376131320E+02  0.88455912576E+02  0.13210334775E+03  0.00000000000E+00 0. -1.
          1    1    5    5  503    0  0.11423588141E+03  0.78557701206E+02 -0.13345820012E+03  0.19243762677E+03  0.00000000000E+00 0. -1.
         -2    1    5    5    0  503  0.25207446260E+03  0.23267825702E+03 -0.52074933748E+03  0.62358686521E+03  0.00000000000E+00 0.  1.
         -3    1    6    6    0  502 -0.19004545109E+03  0.17094346573E+03  0.19415929628E+03  0.32099341783E+03  0.00000000000E+00 0.  1.
<mgrwt>
<rscale>  0 0.18762540E+04</rscale>
<asrwt>0</asrwt>
<pdfrwt beam="1">  1        2 0.23536277E+00 0.18762540E+04</pdfrwt>
<pdfrwt beam="2">  1       -2 0.88503162E-01 0.18762540E+04</pdfrwt>
<totfact> 0.12586483E+01</totfact>
</mgrwt>
</event>
<event>
12    1  0.1755460E-007  0.1368116E+04  0.7818608E-02  0.8977227E-01
         -2   -1    0    0    0  501 -0.00000000000E+00  0.00000000000E+00  0.19903376809E+03  0.19903376809E+03  0.00000000000E+00 0.  1.
          2   -1    0    0  501    0  0.00000000000E+00 -0.00000000000E+00 -0.23510346485E+04  0.23510346485E+04  0.00000000000E+00 0. -1.
         23    2    1    2    0    0 -0.41520281128E+02 -0.37361812380E+03 -0.67450469348E+03  0.77764299134E+03  0.91965234036E+02 0.  0.
        254    2    1    2    0    0  0.41520281128E+02  0.37361812380E+03 -0.14774961869E+04  0.17724254252E+04  0.90398145418E+03 0.  0.
        -24    2    4    4    0    0  0.16363839506E+03  0.26277655747E+03 -0.38558297429E+02  0.32200319282E+03  0.79813973648E+02 0.  0.
         24    2    4    4    0    0 -0.12211811393E+03  0.11084156632E+03 -0.14389378895E+04  0.14504222324E+04  0.77354482250E+02 0.  0.
         13    1    3    3    0    0 -0.33103175404E+02 -0.25383267276E+03 -0.53828865467E+03  0.59605496536E+03  0.00000000000E+00 0. -1.
        -13    1    3    3    0    0 -0.84171057236E+01 -0.11978545104E+03 -0.13621603881E+03  0.18158802598E+03  0.00000000000E+00 0.  1.
          4    1    6    6  502    0 -0.78450348229E+02  0.88821774311E+02 -0.70794014178E+03  0.71779036568E+03  0.00000000000E+00 0. -1.
          3    1    5    5  503    0  0.12348317560E+03  0.12804916072E+03 -0.35434191586E+02  0.18138429963E+03  0.00000000000E+00 0. -1.
         -4    1    5    5    0  503  0.40155219461E+02  0.13472739675E+03 -0.31241058433E+01  0.14061889319E+03  0.00000000000E+00 0.  1.
         -3    1    6    6    0  502 -0.43667765704E+02  0.22019792011E+02 -0.73099774771E+03  0.73263186673E+03  0.00000000000E+00 0.  1.
<mgrwt>
<rscale>  0 0.13681159E+04</rscale>
<asrwt>0</asrwt>
<pdfrwt beam="1">  1        2 0.36169762E+00 0.13681159E+04</pdfrwt>
<pdfrwt beam="2">  1       -2 0.30620581E-01 0.13681159E+04</pdfrwt>
<totfact> 0.40935988E+01</totfact>
</mgrwt>
</event>
<event>
12    1  0.1755460E-007  0.2677816E+04  0.7818608E-02  0.8342239E-01
         -1   -1    0    0    0  501 -0.00000000000E+00  0.00000000000E+00  0.15979879062E+04  0.15979879062E+04  0.00000000000E+00 0.  1.
          1   -1    0    0  501    0  0.00000000000E+00 -0.00000000000E+00 -0.11218324741E+04  0.11218324741E+04  0.00000000000E+00 0. -1.
         23    2    1    2    0    0 -0.53595583172E+03  0.82321894574E+03 -0.45621802331E+03  0.10867942407E+04  0.89714829331E+02 0.  0.
        254    2    1    2    0    0  0.53595583172E+03 -0.82321894574E+03  0.93237345543E+03  0.16330261396E+04  0.91242316180E+03 0.  0.
        -24    2    4    4    0    0  0.69095454431E+03 -0.25255762631E+03  0.45321461966E+03  0.86791884333E+03  0.81707344973E+02 0.  0.
         24    2    4    4    0    0 -0.15499871259E+03 -0.57066131943E+03  0.47915883578E+03  0.76510729631E+03  0.78211524546E+02 0.  0.
         13    1    3    3    0    0 -0.51185609536E+02  0.99836022435E+02 -0.82152638670E+02  0.13905485982E+03  0.00000000000E+00 0.  1.
        -13    1    3    3    0    0 -0.48477022218E+03  0.72338292330E+03 -0.37406538464E+03  0.94773938086E+03  0.00000000000E+00 0. -1.
          4    1    6    6  502    0 -0.54525051805E+02 -0.34670353547E+03  0.28722789653E+03  0.45351536615E+03  0.00000000000E+00 0. -1.
          3    1    5    5  503    0  0.90009644568E+02 -0.50540386886E+02  0.91830243748E+02  0.13816244240E+03  0.00000000000E+00 0. -1.
         -4    1    5    5    0  503  0.60094489975E+03 -0.20201723943E+03  0.36138437591E+03  0.72975640094E+03  0.00000000000E+00 0.  1.
         -1    1    6    6    0  502 -0.10047366079E+03 -0.22395778395E+03  0.19193093924E+03  0.31159193017E+03  0.00000000000E+00 0.  1.
<mgrwt>
<rscale>  0 0.26778161E+04</rscale>
<asrwt>0</asrwt>
<pdfrwt beam="1">  1        1 0.17258961E+00 0.26778161E+04</pdfrwt>
<pdfrwt beam="2">  1       -1 0.24584429E+00 0.26778161E+04</pdfrwt>
<totfact> 0.79270768E-01</totfact>
</mgrwt>
</event>
<event>
12    1  0.1755460E-007  0.1148166E+04  0.7818608E-02  0.9159478E-01
         -2   -1    0    0    0  501 -0.00000000000E+00  0.00000000000E+00  0.14095087511E+03  0.14095087511E+03  0.00000000000E+00 0.  1.
          2   -1    0    0  501    0  0.00000000000E+00 -0.00000000000E+00 -0.23381978601E+04  0.23381978601E+04  0.00000000000E+00 0. -1.
         23    2    1    2    0    0  0.10241052994E+03  0.16436347791E+03 -0.54135132792E+03  0.58211737946E+03  0.91083004542E+02 0.  0.
        254    2    1    2    0    0 -0.10241052994E+03 -0.16436347791E+03 -0.16558956571E+04  0.18970313558E+04  0.90511561036E+03 0.  0.
        -24    2    4    4    0    0  0.29920907776E+03  0.28614409895E+02 -0.19366413490E+03  0.36632045519E+03  0.79624255540E+02 0.  0.
         24    2    4    4    0    0 -0.40161960770E+03 -0.19297788780E+03 -0.14622315222E+04  0.15307109006E+04  0.80100325979E+02 0.  0.
         11    1    3    3    0    0  0.80425846006E+02  0.16871022299E+03 -0.51295309803E+03  0.54594169727E+03  0.00000000000E+00 0. -1.
        -11    1    3    3    0    0  0.21984683934E+02 -0.43467450841E+01 -0.28398229890E+02  0.36175682183E+02  0.00000000000E+00 0.  1.
          2    1    6    6  502    0 -0.11072969287E+03 -0.15618972606E+02 -0.34211541086E+03  0.35992773100E+03  0.00000000000E+00 0. -1.
          1    1    5    5  503    0  0.37365740220E+02  0.25082344922E+02 -0.51352744837E+02  0.68281966663E+02  0.00000000000E+00 0. -1.
         -2    1    5    5    0  503  0.26184333754E+03  0.35320649735E+01 -0.14231139006E+03  0.29803848852E+03  0.00000000000E+00 0.  1.
         -1    1    6    6    0  502 -0.29088991483E+03 -0.17735891520E+03 -0.11201161113E+04  0.11707831696E+04  0.00000000000E+00 0.  1.
<mgrwt>
<rscale>  0 0.11481656E+04</rscale>
<asrwt>0</asrwt>
<pdfrwt beam="1">  1        2 0.35972272E+00 0.11481656E+04</pdfrwt>
<pdfrwt beam="2">  1       -2 0.21684751E-01 0.11481656E+04</pdfrwt>
<totfact> 0.79508339E+01</totfact>
</mgrwt>
</event>
<event>
12    1  0.1755460E-007  0.1796253E+04  0.7818608E-02  0.8708295E-01
         -2   -1    0    0    0  501 -0.00000000000E+00  0.00000000000E+00  0.64522199691E+03  0.64522199691E+03  0.00000000000E+00 0. -1.
          2   -1    0    0  501    0  0.00000000000E+00 -0.00000000000E+00 -0.12501607183E+04  0.12501607183E+04  0.00000000000E+00 0.  1.
         23    2    1    2    0    0  0.71773860882E+01  0.56773255049E+03  0.12998903644E+03  0.58939539379E+03  0.90100038140E+02 0.  0.
        254    2    1    2    0    0 -0.71773860882E+01 -0.56773255049E+03 -0.73492775786E+03  0.13059873214E+04  0.91821147386E+03 0.  0.
        -24    2    4    4    0    0 -0.38898041796E+02 -0.36654455650E+03  0.14105246123E+03  0.40304728442E+03  0.81751740683E+02 0.  0.
         24    2    4    4    0    0  0.31720655708E+02 -0.20118799399E+03 -0.87598021909E+03  0.90294003702E+03  0.80477060665E+02 0.  0.
         11    1    3    3    0    0 -0.24903286207E+02  0.48418402989E+03  0.11910731250E+03  0.49924032325E+03  0.00000000000E+00 0. -1.
        -11    1    3    3    0    0  0.32080672295E+02  0.83548520603E+02  0.10881723940E+02  0.90155070549E+02  0.00000000000E+00 0.  1.
          2    1    6    6  502    0  0.28627496772E+02 -0.22251056443E+02 -0.94192126775E+02  0.10092967765E+03  0.00000000000E+00 0. -1.
          3    1    5    5  503    0  0.43227655880E+01 -0.14792594697E+02 -0.93830468783E+01  0.18042968961E+02  0.00000000000E+00 0. -1.
         -4    1    5    5    0  503 -0.43220807384E+02 -0.35175196180E+03  0.15043550811E+03  0.38500431546E+03  0.00000000000E+00 0.  1.
         -1    1    6    6    0  502  0.30931589354E+01 -0.17893693755E+03 -0.78178809231E+03  0.80201035937E+03  0.00000000000E+00 0.  1.
<mgrwt>
<rscale>  0 0.17962530E+04</rscale>
<asrwt>0</asrwt>
<pdfrwt beam="1">  1        2 0.19233242E+00 0.17962530E+04</pdfrwt>
<pdfrwt beam="2">  1       -2 0.99264922E-01 0.17962530E+04</pdfrwt>
<totfact> 0.14039530E+01</totfact>
</mgrwt>
</event>
<event>
12    1  0.1755460E-007  0.1678495E+04  0.7818608E-02  0.8773725E-01
         -1   -1    0    0    0  501 -0.00000000000E+00  0.00000000000E+00  0.80681583174E+03  0.80681583174E+03  0.00000000000E+00 0.  1.
          1   -1    0    0  501    0  0.00000000000E+00 -0.00000000000E+00 -0.87298281581E+03  0.87298281581E+03  0.00000000000E+00 0. -1.
         23    2    1    2    0    0 -0.18194166744E+03  0.53424606299E+03 -0.21085334098E+03  0.60979057012E+03  0.94147659706E+02 0.  0.
        254    2    1    2    0    0  0.18194166744E+03 -0.53424606299E+03  0.14468635691E+03  0.10700080774E+04  0.89747507917E+03 0.  0.
        -24    2    4    4    0    0  0.15741052732E+03 -0.64019999626E+03 -0.20534107279E+03  0.69477613179E+03  0.76907787686E+02 0.  0.
         24    2    4    4    0    0  0.24531140123E+02  0.10595393327E+03  0.35002742970E+03  0.37523194564E+03  0.80323089314E+02 0.  0.
         11    1    3    3    0    0 -0.92566080563E+02  0.23425972480E+03 -0.46122160554E+02  0.25607294200E+03  0.00000000000E+00 0.  1.
        -11    1    3    3    0    0 -0.89375586881E+02  0.29998633820E+03 -0.16473118043E+03  0.35371762811E+03  0.00000000000E+00 0. -1.
          2    1    6    6  502    0 -0.18607622931E+02  0.73776489505E+01  0.20802368782E+02  0.28868873932E+02  0.00000000000E+00 0. -1.
          3    1    5    5  503    0  0.88991361071E+01 -0.90649655866E+01 -0.13680962515E+02  0.18669144594E+02  0.00000000000E+00 0. -1.
         -4    1    5    5    0  503  0.14851139121E+03 -0.63113503067E+03 -0.19166011028E+03  0.67610698720E+03  0.00000000000E+00 0.  1.
         -1    1    6    6    0  502  0.43138763054E+02  0.98576284318E+02  0.32922506092E+03  0.34636307171E+03  0.00000000000E+00 0.  1.
<mgrwt>
<rscale>  0 0.16784950E+04</rscale>
<asrwt>0</asrwt>
<pdfrwt beam="1">  1        1 0.13430505E+00 0.16784950E+04</pdfrwt>
<pdfrwt beam="2">  1       -1 0.12412551E+00 0.16784950E+04</pdfrwt>
<totfact> 0.10403201E+01</totfact>
</mgrwt>
</event>
<event>
12    1  0.1755460E-007  0.2642783E+04  0.7818608E-02  0.8353812E-01
         -2   -1    0    0    0  501 -0.00000000000E+00  0.00000000000E+00  0.66596798085E+03  0.66596798085E+03  0.00000000000E+00 0.  1.
          2   -1    0    0  501    0  0.00000000000E+00 -0.00000000000E+00 -0.26218605743E+04  0.26218605743E+04  0.00000000000E+00 0. -1.
         23    2    1    2    0    0 -0.15439616537E+03  0.66583239814E+03  0.31155041273E+03  0.75670454911E+03  0.91472163409E+02 0.  0.
        254    2    1    2    0    0  0.15439616537E+03 -0.66583239814E+03 -0.22674430062E+04  0.25311240061E+04  0.89337561495E+03 0.  0.
        -24    2    4    4    0    0  0.98296534998E+02 -0.65365856959E+03 -0.23237891262E+04  0.24173579866E+04  0.81804630862E+02 0.  0.
         24    2    4    4    0    0  0.56099630371E+02 -0.12173828550E+02  0.56346120036E+02  0.11376601949E+03  0.80451546399E+02 0.  0.
         11    1    3    3    0    0 -0.11362567322E+03  0.59092590564E+03  0.29358628041E+03  0.66954994109E+03  0.00000000000E+00 0.  1.
        -11    1    3    3    0    0 -0.40770492148E+02  0.74906492502E+02  0.17964132314E+02  0.87154608018E+02  0.00000000000E+00 0. -1.
          2    1    6    6  502    0 -0.81398011616E+01  0.73272965563E+01  0.44206670241E+02  0.45543115085E+02  0.00000000000E+00 0. -1.
          3    1    5    5  503    0  0.16837960993E+02 -0.19025785176E+02 -0.68410798703E+02  0.72976261970E+02  0.00000000000E+00 0. -1.
         -4    1    5    5    0  503  0.81458574004E+02 -0.63463278442E+03 -0.22553783275E+04  0.23443817246E+04  0.00000000000E+00 0.  1.
         -1    1    6    6    0  502  0.64239431532E+02 -0.19501125107E+02  0.12139449794E+02  0.68222904404E+02  0.00000000000E+00 0.  1.
<mgrwt>
<rscale>  0 0.26427828E+04</rscale>
<asrwt>0</asrwt>
<pdfrwt beam="1">  1        2 0.40336317E+00 0.26427828E+04</pdfrwt>
<pdfrwt beam="2">  1       -2 0.10245661E+00 0.26427828E+04</pdfrwt>
<totfact> 0.20295977E+00</totfact>
</mgrwt>
</event>
<event>
12    1  0.1755460E-007  0.1946057E+04  0.7818608E-02  0.8632265E-01
         -2   -1    0    0    0  501 -0.00000000000E+00  0.00000000000E+00  0.24908505928E+03  0.24908505928E+03  0.00000000000E+00 0.  1.
          2   -1    0    0  501    0  0.00000000000E+00 -0.00000000000E+00 -0.38010469549E+04  0.38010469549E+04  0.00000000000E+00 0. -1.
         23    2    1    2    0    0 -0.19410715377E+03  0.66927710103E+01 -0.30519814648E+04  0.30595196011E+04  0.91361630640E+02 0.  0.
        254    2    1    2    0    0  0.19410715377E+03 -0.66927710103E+01 -0.49998043081E+03  0.99061241310E+03  0.83283260111E+03 0.  0.
        -24    2    4    4    0    0  0.49430772003E+03  0.19814766865E+02 -0.14991891730E+03  0.52285247229E+03  0.78525657916E+02 0.  0.
         24    2    4    4    0    0 -0.30020056626E+03 -0.26507537875E+02 -0.35006151351E+03  0.46775994081E+03  0.73710714531E+02 0.  0.
         11    1    3    3    0    0 -0.17897960427E+02 -0.23531262586E+01 -0.94225344411E+03  0.94242635104E+03  0.00000000000E+00 0.  1.
        -11    1    3    3    0    0 -0.17620919335E+03  0.90458972688E+01 -0.21097280207E+04  0.21170932501E+04  0.00000000000E+00 0. -1.
          2    1    6    6  502    0 -0.23653065081E+02 -0.20388986195E+02 -0.19869239229E+02  0.37013037073E+02  0.00000000000E+00 0. -1.
          1    1    5    5  503    0  0.14365031162E+03  0.11308123257E+01 -0.81271044223E+02  0.16505051771E+03  0.00000000000E+00 0. -1.
         -2    1    5    5    0  503  0.35065740841E+03  0.18683954539E+02 -0.68647873075E+02  0.35780195459E+03  0.00000000000E+00 0.  1.
         -1    1    6    6    0  502 -0.27654750118E+03 -0.61185516807E+01 -0.33019227428E+03  0.43074690374E+03  0.00000000000E+00 0.  1.
<mgrwt>
<rscale>  0 0.19460565E+04</rscale>
<asrwt>0</asrwt>
<pdfrwt beam="1">  1        2 0.58477647E+00 0.19460565E+04</pdfrwt>
<pdfrwt beam="2">  1       -2 0.38320777E-01 0.19460565E+04</pdfrwt>
<totfact> 0.29690295E+00</totfact>
</mgrwt>
</event>
<event>
12    1  0.1755460E-007  0.2874320E+04  0.7818608E-02  0.8280559E-01
          1   -1    0    0  501    0  0.00000000000E+00  0.00000000000E+00  0.10687392556E+04  0.10687392556E+04  0.00000000000E+00 0. -1.
         -1   -1    0    0    0  501 -0.00000000000E+00 -0.00000000000E+00 -0.19325847482E+04  0.19325847482E+04  0.00000000000E+00 0.  1.
         23    2    1    2    0    0  0.47781114094E+03  0.65255920701E+03 -0.14446791567E+04  0.16581950610E+04  0.91520432977E+02 0.  0.
        254    2    1    2    0    0 -0.47781114094E+03 -0.65255920701E+03  0.58083366411E+03  0.13431289427E+04  0.90138260820E+03 0.  0.
        -24    2    4    4    0    0 -0.60118743320E+03 -0.78143804432E+03  0.37129739125E+03  0.10565929827E+04  0.80344454833E+02 0.  0.
         24    2    4    4    0    0  0.12337629225E+03  0.12887883731E+03  0.20953627286E+03  0.28653596001E+03  0.79786856927E+02 0.  0.
         13    1    3    3    0    0  0.18721695413E+03  0.21529046171E+03 -0.43591594350E+03  0.52098261066E+03  0.00000000000E+00 0. -1.
        -13    1    3    3    0    0  0.29059418681E+03  0.43726874530E+03 -0.10087632132E+04  0.11372124504E+04  0.00000000000E+00 0.  1.
          2    1    6    6  502    0  0.56507942255E+02  0.90643218249E+01  0.48905499274E+02  0.75279860038E+02  0.00000000000E+00 0. -1.
          1    1    5    5  503    0 -0.31248106376E+02 -0.36183901879E+02  0.61954845138E+00  0.47813206832E+02  0.00000000000E+00 0. -1.
         -2    1    5    5    0  503 -0.56993932682E+03 -0.74525414244E+03  0.37067784280E+03  0.10087797759E+04  0.00000000000E+00 0.  1.
         -1    1    6    6    0  502  0.66868349997E+02  0.11981451549E+03  0.16063077359E+03  0.21125609998E+03  0.00000000000E+00 0.  1.
<mgrwt>
<rscale>  0 0.28743202E+04</rscale>
<asrwt>0</asrwt>
<pdfrwt beam="1">  1        1 0.16442142E+00 0.28743202E+04</pdfrwt>
<pdfrwt beam="2">  1       -1 0.29732073E+00 0.28743202E+04</pdfrwt>
<totfact> 0.39589031E-01</totfact>
</mgrwt>
</event>
<event>
12    1  0.1755460E-007  0.1536947E+04  0.7818608E-02  0.8860249E-01
         -1   -1    0    0    0  501 -0.00000000000E+00  0.00000000000E+00  0.15986057258E+04  0.15986057258E+04  0.00000000000E+00 0.  1.
          1   -1    0    0  501    0  0.00000000000E+00 -0.00000000000E+00 -0.36941661768E+03  0.36941661768E+03  0.00000000000E+00 0. -1.
         23    2    1    2    0    0  0.31840935031E+03 -0.15089895938E+02  0.90751847835E+03  0.96550755762E+03  0.83682948961E+02 0.  0.
        254    2    1    2    0    0 -0.31840935031E+03  0.15089895938E+02  0.32167062975E+03  0.10025147858E+04  0.89440018027E+03 0.  0.
        -24    2    4    4    0    0  0.68830603753E+01 -0.39430824521E+03  0.42969322778E+02  0.40443255664E+03  0.78695370964E+02 0.  0.
         24    2    4    4    0    0 -0.32529241069E+03  0.40939814114E+03  0.27870130697E+03  0.59808222921E+03  0.81276958355E+02 0.  0.
         13    1    3    3    0    0  0.19655357938E+02  0.17737229795E+02  0.11253493484E+03  0.11560732666E+03  0.00000000000E+00 0. -1.
        -13    1    3    3    0    0  0.29875399238E+03 -0.32827125733E+02  0.79498354351E+03  0.84990023096E+03  0.00000000000E+00 0.  1.
          2    1    6    6  502    0 -0.19344056963E+03  0.19560989648E+03  0.11441526233E+03  0.29794854896E+03  0.00000000000E+00 0. -1.
          3    1    5    5  503    0  0.36964634378E+02 -0.18485780710E+03  0.40499386114E+02  0.19281855024E+03  0.00000000000E+00 0. -1.
         -4    1    5    5    0  503 -0.30081574003E+02 -0.20945043810E+03  0.24699366636E+01  0.21161400640E+03  0.00000000000E+00 0.  1.
         -1    1    6    6    0  502 -0.13185184106E+03  0.21378824467E+03  0.16428604465E+03  0.30013368024E+03  0.00000000000E+00 0.  1.
<mgrwt>
<rscale>  0 0.15369470E+04</rscale>
<asrwt>0</asrwt>
<pdfrwt beam="1">  1        1 0.56833327E-01 0.15369470E+04</pdfrwt>
<pdfrwt beam="2">  1       -1 0.24593934E+00 0.15369470E+04</pdfrwt>
<totfact> 0.47691124E+00</totfact>
</mgrwt>
</event>
<event>
12    1  0.1755460E-007  0.1365064E+04  0.7818608E-02  0.8979502E-01
         -1   -1    0    0    0  501 -0.00000000000E+00  0.00000000000E+00  0.39186680109E+03  0.39186680109E+03  0.00000000000E+00 0.  1.
          1   -1    0    0  501    0  0.00000000000E+00 -0.00000000000E+00 -0.11887972383E+04  0.11887972383E+04  0.00000000000E+00 0. -1.
         23    2    1    2    0    0 -0.30707367055E+03  0.18387907726E+03 -0.10430916103E+03  0.38439317933E+03  0.93658747822E+02 0.  0.
        254    2    1    2    0    0  0.30707367055E+03 -0.18387907726E+03 -0.69262127622E+03  0.11962708601E+04  0.90732242573E+03 0.  0.
        -24    2    4    4    0    0  0.57115480324E+03 -0.24401351051E+02 -0.65874014686E+03  0.87606824878E+03  0.82120400870E+02 0.  0.
         24    2    4    4    0    0 -0.26408113269E+03 -0.15947772621E+03 -0.33881129368E+02  0.32020261132E+03  0.78802230747E+02 0.  0.
         13    1    3    3    0    0 -0.24594658933E+03  0.18381422920E+03 -0.10078694772E+03  0.32316467085E+03  0.00000000000E+00 0. -1.
        -13    1    3    3    0    0 -0.61127081227E+02  0.64848062766E-01 -0.35222133166E+01  0.61228508484E+02  0.00000000000E+00 0.  1.
          2    1    6    6  502    0 -0.86715978152E+02 -0.97587919009E+02 -0.14573764044E+02  0.13136002970E+03  0.00000000000E+00 0. -1.
          3    1    5    5  503    0  0.21093222883E+03  0.29699589489E+02 -0.23026347245E+03  0.31368094861E+03  0.00000000000E+00 0. -1.
         -4    1    5    5    0  503  0.36022257441E+03 -0.54100940541E+02 -0.42847667440E+03  0.56238730017E+03  0.00000000000E+00 0.  1.
         -1    1    6    6    0  502 -0.17736515453E+03 -0.61889807199E+02 -0.19307365324E+02  0.18884258162E+03  0.00000000000E+00 0.  1.
<mgrwt>
<rscale>  0 0.13650644E+04</rscale>
<asrwt>0</asrwt>
<pdfrwt beam="1">  1        1 0.18289188E+00 0.13650644E+04</pdfrwt>
<pdfrwt beam="2">  1       -1 0.60287201E-01 0.13650644E+04</pdfrwt>
<totfact> 0.29703478E+01</totfact>
</mgrwt>
</event>
<event>
12    1  0.1755460E-007  0.1794322E+04  0.7818608E-02  0.8709325E-01
          2   -1    0    0  501    0  0.00000000000E+00  0.00000000000E+00  0.29271952196E+03  0.29271952196E+03  0.00000000000E+00 0.  1.
         -2   -1    0    0    0  501 -0.00000000000E+00 -0.00000000000E+00 -0.27497229491E+04  0.27497229491E+04  0.00000000000E+00 0. -1.
         23    2    1    2    0    0 -0.26149234735E+03  0.10423532029E+03 -0.19525897285E+04  0.19747718426E+04  0.88735182941E+02 0.  0.
        254    2    1    2    0    0  0.26149234735E+03 -0.10423532029E+03 -0.50441369857E+03  0.10676706284E+04  0.89791098764E+03 0.  0.
        -24    2    4    4    0    0  0.17875581518E+03  0.64714563818E+02  0.22820725154E+03  0.30700635978E+03  0.77670709148E+02 0.  0.
         24    2    4    4    0    0  0.82736532172E+02 -0.16894988410E+03 -0.73262095011E+03  0.76066426862E+03  0.80543627405E+02 0.  0.
         13    1    3    3    0    0  0.52847651722E+01  0.17222222799E+01 -0.11698295727E+02  0.12951637557E+02  0.00000000000E+00 0.  1.
        -13    1    3    3    0    0 -0.26677711253E+03  0.10251309801E+03 -0.19408914328E+04  0.19618202051E+04  0.00000000000E+00 0. -1.
          4    1    6    6  502    0  0.96934948800E+02 -0.14665949743E+03 -0.59075917942E+03  0.61636174488E+03  0.00000000000E+00 0. -1.
          1    1    5    5  503    0  0.18274237415E+03  0.50609123361E+02  0.20255055827E+03  0.27745772170E+03  0.00000000000E+00 0. -1.
         -2    1    5    5    0  503 -0.39865589647E+01  0.14105440457E+02  0.25656693273E+02  0.29548638083E+02  0.00000000000E+00 0.  1.
         -3    1    6    6    0  502 -0.14198416628E+02 -0.22290386674E+02 -0.14186177069E+03  0.14430252374E+03  0.00000000000E+00 0.  1.
<mgrwt>
<rscale>  0 0.17943217E+04</rscale>
<asrwt>0</asrwt>
<pdfrwt beam="1">  1        2 0.45033771E-01 0.17943217E+04</pdfrwt>
<pdfrwt beam="2">  1       -2 0.42303432E+00 0.17943217E+04</pdfrwt>
<totfact> 0.56060801E-01</totfact>
</mgrwt>
</event>
<event>
12    1  0.1755460E-007  0.1121448E+04  0.7818608E-02  0.9184536E-01
         -2   -1    0    0    0  501 -0.00000000000E+00  0.00000000000E+00  0.40646511677E+03  0.40646511677E+03  0.00000000000E+00 0. -1.
          2   -1    0    0  501    0  0.00000000000E+00 -0.00000000000E+00 -0.77352622311E+03  0.77352622311E+03  0.00000000000E+00 0.  1.
         23    2    1    2    0    0  0.82252779644E+02 -0.99316958348E+01  0.98943948594E+02  0.15690004531E+03  0.89238785928E+02 0.  0.
        254    2    1    2    0    0 -0.82252779644E+02  0.99316958348E+01 -0.46600505493E+03  0.10230912946E+04  0.90702311297E+03 0.  0.
        -24    2    4    4    0    0 -0.11940212188E+03 -0.49621044113E+02  0.25403479844E+03  0.29523324085E+03  0.76875698085E+02 0.  0.
         24    2    4    4    0    0  0.37149342234E+02  0.59552739948E+02 -0.72003985337E+03  0.72785805372E+03  0.79958448306E+02 0.  0.
         11    1    3    3    0    0 -0.12797551390E+02  0.15993084524E+02  0.31243424986E+02  0.37359171284E+02  0.00000000000E+00 0.  1.
        -11    1    3    3    0    0  0.95050331034E+02 -0.25924780358E+02  0.67700523608E+02  0.11954087403E+03  0.00000000000E+00 0. -1.
          4    1    6    6  502    0 -0.84107237706E+00  0.66679632062E+02 -0.50329973501E+03  0.50769824108E+03  0.00000000000E+00 0. -1.
          1    1    5    5  503    0 -0.12706930348E+03 -0.34572853880E+02  0.23767925597E+03  0.27172287138E+03  0.00000000000E+00 0. -1.
         -2    1    5    5    0  503  0.76671816057E+01 -0.15048190233E+02  0.16355542474E+02  0.23510369471E+02  0.00000000000E+00 0.  1.
         -3    1    6    6    0  502  0.37990414611E+02 -0.71268921136E+01 -0.21674011836E+03  0.22015981264E+03  0.00000000000E+00 0.  1.
<mgrwt>
<rscale>  0 0.11214480E+04</rscale>
<asrwt>0</asrwt>
<pdfrwt beam="1">  1        2 0.11900403E+00 0.11214480E+04</pdfrwt>
<pdfrwt beam="2">  1       -2 0.62533096E-01 0.11214480E+04</pdfrwt>
<totfact> 0.84745782E+01</totfact>
</mgrwt>
</event>
<event>
12    1  0.1755460E-007  0.1799272E+04  0.7818608E-02  0.8706687E-01
         -1   -1    0    0    0  501 -0.00000000000E+00  0.00000000000E+00  0.12339752879E+04  0.12339752879E+04  0.00000000000E+00 0.  1.
          1   -1    0    0  501    0  0.00000000000E+00 -0.00000000000E+00 -0.65588423428E+03  0.65588423428E+03  0.00000000000E+00 0. -1.
         23    2    1    2    0    0 -0.35132573638E+03  0.92915605042E+02  0.80650746828E+03  0.88940128603E+03  0.92289048647E+02 0.  0.
        254    2    1    2    0    0  0.35132573638E+03 -0.92915605042E+02 -0.22841641470E+03  0.10004582361E+04  0.90370323722E+03 0.  0.
        -24    2    4    4    0    0  0.59032327911E+03  0.15682078854E+03 -0.10434823505E+03  0.62453776862E+03  0.78003440314E+02 0.  0.
         24    2    4    4    0    0 -0.23899754273E+03 -0.24973639358E+03 -0.12406817965E+03  0.37592046748E+03  0.80219654443E+02 0.  0.
         11    1    3    3    0    0 -0.30995985881E+03  0.70604521796E+02  0.75748501915E+03  0.82148868940E+03  0.00000000000E+00 0.  1.
        -11    1    3    3    0    0 -0.41365877572E+02  0.22311083246E+02  0.49022449128E+02  0.67912596633E+02  0.00000000000E+00 0. -1.
          2    1    6    6  502    0 -0.36018532379E+01 -0.58917844424E+01 -0.20333516606E+02  0.21474132538E+02  0.00000000000E+00 0. -1.
          1    1    5    5  503    0  0.16093287167E+03  0.42972117855E+02  0.64697957867E+01  0.16669688166E+03  0.00000000000E+00 0. -1.
         -2    1    5    5    0  503  0.42939040744E+03  0.11384867068E+03 -0.11081803084E+03  0.45784088696E+03  0.00000000000E+00 0.  1.
         -1    1    6    6    0  502 -0.23539568949E+03 -0.24384460914E+03 -0.10373466304E+03  0.35444633494E+03  0.00000000000E+00 0.  1.
<mgrwt>
<rscale>  0 0.17992720E+04</rscale>
<asrwt>0</asrwt>
<pdfrwt beam="1">  1        1 0.10090527E+00 0.17992720E+04</pdfrwt>
<pdfrwt beam="2">  1       -1 0.18984235E+00 0.17992720E+04</pdfrwt>
<totfact> 0.50229158E+00</totfact>
</mgrwt>
</event>
<event>
12    1  0.1755460E-007  0.1048514E+04  0.7818608E-02  0.9256879E-01
          1   -1    0    0  501    0  0.00000000000E+00  0.00000000000E+00  0.28124493084E+04  0.28124493084E+04  0.00000000000E+00 0. -1.
         -1   -1    0    0    0  501 -0.00000000000E+00 -0.00000000000E+00 -0.97724597215E+02  0.97724597215E+02  0.00000000000E+00 0.  1.
         23    2    1    2    0    0  0.15091025757E+02  0.51278937628E+02  0.87995824698E+02  0.13763178515E+03  0.91334410917E+02 0.  0.
        254    2    1    2    0    0 -0.15091025757E+02 -0.51278937628E+02  0.26267288865E+04  0.27725421205E+04  0.88567934272E+03 0.  0.
        -24    2    4    4    0    0  0.10179239791E+03 -0.43126066560E+03  0.17404159342E+04  0.17978785380E+04  0.83499458455E+02 0.  0.
         24    2    4    4    0    0 -0.11688342367E+03  0.37998172797E+03  0.88631295232E+03  0.97466358245E+03  0.79816045978E+02 0.  0.
         11    1    3    3    0    0  0.51856530469E+02  0.22912145794E+02  0.32789078014E+02  0.65491906479E+02  0.00000000000E+00 0.  1.
        -11    1    3    3    0    0 -0.36765504713E+02  0.28366791834E+02  0.55206746684E+02  0.72139878674E+02  0.00000000000E+00 0. -1.
          4    1    6    6  502    0 -0.89434952618E+02  0.34588480609E+03  0.82768795355E+03  0.90150000459E+03  0.00000000000E+00 0. -1.
          3    1    5    5  503    0  0.90747862031E+02 -0.41264034350E+03  0.17032229325E+04  0.17548434647E+04  0.00000000000E+00 0. -1.
         -4    1    5    5    0  503  0.11044535879E+02 -0.18620322095E+02  0.37193001646E+02  0.43035073361E+02  0.00000000000E+00 0.  1.
         -3    1    6    6    0  502 -0.27448471049E+02  0.34096921877E+02  0.58624998773E+02  0.73163577862E+02  0.00000000000E+00 0.  1.
<mgrwt>
<rscale>  0 0.10485141E+04</rscale>
<asrwt>0</asrwt>
<pdfrwt beam="1">  1        1 0.43268445E+00 0.10485141E+04</pdfrwt>
<pdfrwt beam="2">  1       -1 0.15034556E-01 0.10485141E+04</pdfrwt>
<totfact> 0.27194664E+01</totfact>
</mgrwt>
</event>
<event>
12    1  0.1755460E-007  0.2636211E+04  0.7818608E-02  0.8356004E-01
         -1   -1    0    0    0  501 -0.00000000000E+00  0.00000000000E+00  0.75655400733E+03  0.75655400733E+03  0.00000000000E+00 0. -1.
          1   -1    0    0  501    0  0.00000000000E+00 -0.00000000000E+00 -0.22964684491E+04  0.22964684491E+04  0.00000000000E+00 0.  1.
         23    2    1    2    0    0  0.60226691648E+03 -0.43277556980E+03 -0.17224098997E+04  0.18773128908E+04  0.87107375902E+02 0.  0.
        254    2    1    2    0    0 -0.60226691648E+03  0.43277556980E+03  0.18249545791E+03  0.11757095656E+04  0.89385024364E+03 0.  0.
        -24    2    4    4    0    0 -0.21919876548E+02 -0.71498257089E+02  0.36509706787E+03  0.38138022050E+03  0.81009393700E+02 0.  0.
         24    2    4    4    0    0 -0.58034703993E+03  0.50427382689E+03 -0.18260160996E+03  0.79432934512E+03  0.80752593308E+02 0.  0.
         13    1    3    3    0    0  0.14253133266E+03 -0.98028746099E+02 -0.50034601216E+03  0.52940622186E+03  0.00000000000E+00 0. -1.
        -13    1    3    3    0    0  0.45973558381E+03 -0.33474682370E+03 -0.12220638876E+04  0.13479066690E+04  0.00000000000E+00 0.  1.
          2    1    6    6  502    0 -0.16971461689E+03  0.19560305569E+03 -0.49458301339E+02  0.26364698017E+03  0.00000000000E+00 0. -1.
          3    1    5    5  503    0 -0.24951659051E+02 -0.81932077808E+02  0.22320965914E+03  0.23907739876E+03  0.00000000000E+00 0. -1.
         -4    1    5    5    0  503  0.30317825036E+01  0.10433820719E+02  0.14188740873E+03  0.14230282175E+03  0.00000000000E+00 0.  1.
         -1    1    6    6    0  502 -0.41063242304E+03  0.30867077120E+03 -0.13314330862E+03  0.53068236495E+03  0.00000000000E+00 0.  1.
<mgrwt>
<rscale>  0 0.26362112E+04</rscale>
<asrwt>0</asrwt>
<pdfrwt beam="1">  1        1 0.35330284E+00 0.26362112E+04</pdfrwt>
<pdfrwt beam="2">  1       -1 0.11639292E+00 0.26362112E+04</pdfrwt>
<totfact> 0.10953110E+00</totfact>
</mgrwt>
</event>
<event>
12    1  0.1755460E-007  0.2793310E+04  0.7818608E-02  0.8305348E-01
          2   -1    0    0  501    0  0.00000000000E+00  0.00000000000E+00  0.20415553704E+04  0.20415553704E+04  0.00000000000E+00 0. -1.
         -2   -1    0    0    0  501 -0.00000000000E+00 -0.00000000000E+00 -0.95547042920E+03  0.95547042920E+03  0.00000000000E+00 0.  1.
         23    2    1    2    0    0  0.10402544082E+04 -0.22288276661E+03 -0.21640556621E+03  0.10896464509E+04  0.93231204034E+02 0.  0.
        254    2    1    2    0    0 -0.10402544082E+04  0.22288276661E+03  0.13024905074E+04  0.19073793487E+04  0.89989360293E+03 0.  0.
        -24    2    4    4    0    0 -0.63938037214E+03 -0.81625036578E+02  0.12332435892E+04  0.13939405521E+04  0.81918285257E+02 0.  0.
         24    2    4    4    0    0 -0.40087403606E+03  0.30450780319E+03  0.69246918168E+02  0.51343879664E+03  0.73479706222E+02 0.  0.
         11    1    3    3    0    0  0.13587078058E+03 -0.23607971884E+02 -0.60258357372E+02  0.15049676071E+03  0.00000000000E+00 0. -1.
        -11    1    3    3    0    0  0.90438362762E+03 -0.19927479473E+03 -0.15614720884E+03  0.93914969017E+03  0.00000000000E+00 0.  1.
          4    1    6    6  502    0 -0.37836141318E+03  0.27600474212E+03  0.80951800009E+02  0.47527799294E+03  0.00000000000E+00 0. -1.
          1    1    5    5  503    0 -0.38782364902E+03 -0.43522285515E+02  0.82950025012E+03  0.91671807936E+03  0.00000000000E+00 0. -1.
         -2    1    5    5    0  503 -0.25155672312E+03 -0.38102751063E+02  0.40374333911E+03  0.47722247271E+03  0.00000000000E+00 0.  1.
         -1    1    6    6    0  502 -0.22512622882E+02  0.28503061073E+02 -0.11704881841E+02  0.38160803693E+02  0.00000000000E+00 0.  1.
<mgrwt>
<rscale>  0 0.27933104E+04</rscale>
<asrwt>0</asrwt>
<pdfrwt beam="1">  1        2 0.31408544E+00 0.27933104E+04</pdfrwt>
<pdfrwt beam="2">  1       -2 0.14699545E+00 0.27933104E+04</pdfrwt>
<totfact> 0.17433304E+00</totfact>
</mgrwt>
</event>
<event>
12    1  0.1755460E-007  0.1788948E+04  0.7818608E-02  0.8712199E-01
          1   -1    0    0  501    0  0.00000000000E+00  0.00000000000E+00  0.14785698473E+04  0.14785698473E+04  0.00000000000E+00 0. -1.
         -1   -1    0    0    0  501 -0.00000000000E+00 -0.00000000000E+00 -0.54111976940E+03  0.54111976940E+03  0.00000000000E+00 0.  1.
         23    2    1    2    0    0 -0.36696258461E+03 -0.36325535440E+03 -0.12915897774E+03  0.54287114425E+03  0.10682250102E+03 0.  0.
        254    2    1    2    0    0  0.36696258461E+03  0.36325535440E+03  0.10666090556E+04  0.14768184724E+04  0.88131829211E+03 0.  0.
        -24    2    4    4    0    0  0.52792906558E+03 -0.16754533054E+02  0.84885075505E+03  0.10030359222E+04  0.80892794331E+02 0.  0.
         24    2    4    4    0    0 -0.16096648097E+03  0.38000988745E+03  0.21775830058E+03  0.47378255026E+03  0.82057936284E+02 0.  0.
         11    1    3    3    0    0 -0.35853501431E+03 -0.34112907304E+03 -0.99283460620E+02  0.50475103419E+03  0.00000000000E+00 0. -1.
        -11    1    3    3    0    0 -0.84275702952E+01 -0.22126281358E+02 -0.29875517117E+02  0.38120110058E+02  0.00000000000E+00 0.  1.
          2    1    6    6  502    0 -0.84096793329E+02  0.27239872499E+03  0.17628219493E+03  0.33518464802E+03  0.00000000000E+00 0. -1.
          3    1    5    5  503    0  0.43408096511E+03 -0.41182282111E+02  0.72056655350E+03  0.84222231190E+03  0.00000000000E+00 0. -1.
         -4    1    5    5    0  503  0.93848100471E+02  0.24427749058E+02  0.12828420155E+03  0.16081361028E+03  0.00000000000E+00 0.  1.
         -1    1    6    6    0  502 -0.76869687644E+02  0.10761116247E+03  0.41476105648E+02  0.13859790224E+03  0.00000000000E+00 0.  1.
<mgrwt>
<rscale>  0 0.17889476E+04</rscale>
<asrwt>0</asrwt>
<pdfrwt beam="1">  1        1 0.22747228E+00 0.17889476E+04</pdfrwt>
<pdfrwt beam="2">  1       -1 0.83249196E-01 0.17889476E+04</pdfrwt>
<totfact> 0.91572468E+00</totfact>
</mgrwt>
</event>
<event>
12    1  0.1755460E-007  0.2099145E+04  0.7818608E-02  0.8561620E-01
          1   -1    0    0  501    0  0.00000000000E+00  0.00000000000E+00  0.64166547518E+03  0.64166547518E+03  0.00000000000E+00 0. -1.
         -1   -1    0    0    0  501 -0.00000000000E+00 -0.00000000000E+00 -0.17167862293E+04  0.17167862293E+04  0.00000000000E+00 0.  1.
         23    2    1    2    0    0  0.24914224130E+03  0.36116774662E+03 -0.12351286822E+04  0.13148313148E+04  0.10355929281E+03 0.  0.
        254    2    1    2    0    0 -0.24914224130E+03 -0.36116774662E+03  0.16000792808E+03  0.10436203897E+04  0.93328826370E+03 0.  0.
        -24    2    4    4    0    0 -0.48667881363E+03 -0.48114690685E+03 -0.57144586034E+02  0.69134440578E+03  0.79579960291E+02 0.  0.
         24    2    4    4    0    0  0.23753657234E+03  0.11997916023E+03  0.21715251411E+03  0.35227598392E+03  0.78259391591E+02 0.  0.
         11    1    3    3    0    0  0.13500337211E+03  0.23235358603E+03 -0.88139685223E+03  0.92145239190E+03  0.00000000000E+00 0.  1.
        -11    1    3    3    0    0  0.11413886919E+03  0.12881416059E+03 -0.35373182998E+03  0.39337892288E+03  0.00000000000E+00 0. -1.
          4    1    6    6  502    0  0.42921597810E+02  0.59018516801E+02  0.66449606643E+02  0.98696499973E+02  0.00000000000E+00 0. -1.
          3    1    5    5  503    0 -0.95026534185E+02 -0.12511255368E+03 -0.38326490488E+02  0.16171614997E+03  0.00000000000E+00 0. -1.
         -4    1    5    5    0  503 -0.39165227945E+03 -0.35603435317E+03 -0.18818095546E+02  0.52962825582E+03  0.00000000000E+00 0.  1.
         -3    1    6    6    0  502  0.19461497453E+03  0.60960643431E+02  0.15070290747E+03  0.25357948394E+03  0.00000000000E+00 0.  1.
<mgrwt>
<rscale>  0 0.20991450E+04</rscale>
<asrwt>0</asrwt>
<pdfrwt beam="1">  1        1 0.98717765E-01 0.20991450E+04</pdfrwt>
<pdfrwt beam="2">  1       -1 0.26412096E+00 0.20991450E+04</pdfrwt>
<totfact> 0.16109308E+00</totfact>
</mgrwt>
</event>
<event>
12    1  0.1755460E-007  0.2222446E+04  0.7818608E-02  0.8509143E-01
          1   -1    0    0  501    0  0.00000000000E+00  0.00000000000E+00  0.17527911940E+04  0.17527911940E+04  0.00000000000E+00 0. -1.
         -1   -1    0    0    0  501 -0.00000000000E+00 -0.00000000000E+00 -0.70448606304E+03  0.70448606304E+03  0.00000000000E+00 0.  1.
         23    2    1    2    0    0  0.10365528906E+03  0.84030748707E+03  0.36701242462E+02  0.85296203137E+03  0.96623775423E+02 0.  0.
        254    2    1    2    0    0 -0.10365528906E+03 -0.84030748707E+03  0.10116038885E+04  0.16043152257E+04  0.91303002378E+03 0.  0.
        -24    2    4    4    0    0  0.10326914667E+03 -0.87936309382E+03  0.44398156908E+03  0.99359331433E+03  0.78511611678E+02 0.  0.
         24    2    4    4    0    0 -0.20692443573E+03  0.39055606752E+02  0.56762231944E+03  0.61072191136E+03  0.80268879194E+02 0.  0.
         11    1    3    3    0    0  0.11462415841E+02  0.15264234087E+03 -0.29865665545E+02  0.15595842132E+03  0.00000000000E+00 0.  1.
        -11    1    3    3    0    0  0.92192873222E+02  0.68766514620E+03  0.66566908007E+02  0.69700361004E+03  0.00000000000E+00 0. -1.
          2    1    6    6  502    0 -0.72078563266E+02  0.76622971673E+01  0.10327672114E+03  0.12617492306E+03  0.00000000000E+00 0. -1.
          1    1    5    5  503    0  0.11344846361E+03 -0.75717786484E+03  0.39549796573E+03  0.86174678055E+03  0.00000000000E+00 0. -1.
         -2    1    5    5    0  503 -0.10179316940E+02 -0.12218522898E+03  0.48483603348E+02  0.13184653378E+03  0.00000000000E+00 0.  1.
         -1    1    6    6    0  502 -0.13484587247E+03  0.31393309584E+02  0.46434559830E+03  0.48454698829E+03  0.00000000000E+00 0.  1.
<mgrwt>
<rscale>  0 0.22224464E+04</rscale>
<asrwt>0</asrwt>
<pdfrwt beam="1">  1        1 0.26966018E+00 0.22224464E+04</pdfrwt>
<pdfrwt beam="2">  1       -1 0.10838247E+00 0.22224464E+04</pdfrwt>
<totfact> 0.31545774E+00</totfact>
</mgrwt>
</event>
<event>
12    1  0.1755460E-007  0.1397398E+04  0.7818608E-02  0.8955705E-01
          2   -1    0    0  501    0  0.00000000000E+00  0.00000000000E+00  0.39979873413E+03  0.39979873413E+03  0.00000000000E+00 0. -1.
         -2   -1    0    0    0  501 -0.00000000000E+00 -0.00000000000E+00 -0.12210642977E+04  0.12210642977E+04  0.00000000000E+00 0.  1.
         23    2    1    2    0    0 -0.16005177092E+03 -0.18884834789E+03  0.12397245383E+03  0.29409990265E+03  0.99223563523E+02 0.  0.
        254    2    1    2    0    0  0.16005177092E+03  0.18884834789E+03 -0.94523801742E+03  0.13267631292E+04  0.89752171202E+03 0.  0.
        -24    2    4    4    0    0 -0.15633599873E+03 -0.29037291117E+03 -0.24840078164E+03  0.42015924596E+03  0.77932481073E+02 0.  0.
         24    2    4    4    0    0  0.31638776965E+03  0.47922125906E+03 -0.69683723578E+03  0.90660388324E+03  0.81204876839E+02 0.  0.
         13    1    3    3    0    0 -0.45844565969E+02 -0.11949742682E+02 -0.42541958085E+01  0.47566992348E+02  0.00000000000E+00 0.  1.
        -13    1    3    3    0    0 -0.11420720495E+03 -0.17689860521E+03  0.12822664964E+03  0.24653291031E+03  0.00000000000E+00 0. -1.
          2    1    6    6  502    0  0.76225221579E+02  0.11313856029E+03 -0.22331231398E+03  0.26168493996E+03  0.00000000000E+00 0. -1.
          1    1    5    5  503    0 -0.31571033474E+02 -0.88325399401E+02 -0.32645439339E+02  0.99316821554E+02  0.00000000000E+00 0. -1.
         -2    1    5    5    0  503 -0.12476496525E+03 -0.20204751177E+03 -0.21575534230E+03  0.32084242440E+03  0.00000000000E+00 0.  1.
         -1    1    6    6    0  502  0.24016254807E+03  0.36608269876E+03 -0.47352492180E+03  0.64491894328E+03  0.00000000000E+00 0.  1.
<mgrwt>
<rscale>  0 0.13973975E+04</rscale>
<asrwt>0</asrwt>
<pdfrwt beam="1">  1        2 0.61507498E-01 0.13973975E+04</pdfrwt>
<pdfrwt beam="2">  1       -2 0.18785605E+00 0.13973975E+04</pdfrwt>
<totfact> 0.12397478E+01</totfact>
</mgrwt>
</event>
<event>
12    1  0.1755460E-007  0.2210683E+04  0.7818608E-02  0.8513995E-01
         -2   -1    0    0    0  501 -0.00000000000E+00  0.00000000000E+00  0.41704553236E+03  0.41704553236E+03  0.00000000000E+00 0.  1.
          2   -1    0    0  501    0  0.00000000000E+00 -0.00000000000E+00 -0.29296079199E+04  0.29296079199E+04  0.00000000000E+00 0. -1.
         23    2    1    2    0    0 -0.90307971914E+03  0.68314519030E+02 -0.12801440031E+04  0.15707877112E+04  0.91572442873E+02 0.  0.
        254    2    1    2    0    0  0.90307971914E+03 -0.68314519030E+02 -0.12324183844E+04  0.17758657410E+04  0.90256534574E+03 0.  0.
        -24    2    4    4    0    0  0.69848553155E+03 -0.28958573754E+03 -0.34448930037E+03  0.83466303293E+03  0.79041528938E+02 0.  0.
         24    2    4    4    0    0  0.20459418758E+03  0.22127121851E+03 -0.88792908402E+03  0.94120270809E+03  0.81392541120E+02 0.  0.
         11    1    3    3    0    0 -0.51254789173E+03  0.53754001197E+02 -0.65336085194E+03  0.83215096997E+03  0.00000000000E+00 0. -1.
        -11    1    3    3    0    0 -0.39053182740E+03  0.14560517833E+02 -0.62678315117E+03  0.73863674122E+03  0.00000000000E+00 0.  1.
          4    1    6    6  502    0  0.20522014912E+03  0.22409134708E+03 -0.88774417678E+03  0.93830803303E+03  0.00000000000E+00 0. -1.
          3    1    5    5  503    0  0.54820897716E+03 -0.21507119104E+03 -0.23328263221E+03  0.63341099323E+03  0.00000000000E+00 0. -1.
         -4    1    5    5    0  503  0.15027655439E+03 -0.74514546496E+02 -0.11120666816E+03  0.20125203970E+03  0.00000000000E+00 0.  1.
         -1    1    6    6    0  502 -0.62596153979E+00 -0.28201285756E+01 -0.18490723519E+00  0.28946750626E+01  0.00000000000E+00 0.  1.
<mgrwt>
<rscale>  0 0.22106831E+04</rscale>
<asrwt>0</asrwt>
<pdfrwt beam="1">  1        2 0.45070893E+00 0.22106831E+04</pdfrwt>
<pdfrwt beam="2">  1       -2 0.64160848E-01 0.22106831E+04</pdfrwt>
<totfact> 0.39529660E+00</totfact>
</mgrwt>
</event>
<event>
12    1  0.1755460E-007  0.1641777E+04  0.7818608E-02  0.8795286E-01
          2   -1    0    0  501    0  0.00000000000E+00  0.00000000000E+00  0.25537842002E+04  0.25537842002E+04  0.00000000000E+00 0.  1.
         -2   -1    0    0    0  501 -0.00000000000E+00 -0.00000000000E+00 -0.26386654407E+03  0.26386654407E+03  0.00000000000E+00 0. -1.
         23    2    1    2    0    0 -0.59444313915E+02  0.31210483470E+03  0.16176585811E+04  0.16506858945E+04  0.83675462156E+02 0.  0.
        254    2    1    2    0    0  0.59444313915E+02 -0.31210483470E+03  0.67225907497E+03  0.11669648497E+04  0.89940627210E+03 0.  0.
        -24    2    4    4    0    0  0.39749210505E+03 -0.38263134491E+02  0.61038052260E+02  0.41245391049E+03  0.83237872464E+02 0.  0.
         24    2    4    4    0    0 -0.33804779114E+03 -0.27384170021E+03  0.61122102271E+03  0.75451093923E+03  0.80187486190E+02 0.  0.
         13    1    3    3    0    0 -0.56085870633E+02  0.12331500932E+03  0.54848776092E+03  0.56496994636E+03  0.00000000000E+00 0. -1.
        -13    1    3    3    0    0 -0.33584432826E+01  0.18878982538E+03  0.10691708202E+04  0.10857159482E+04  0.00000000000E+00 0.  1.
          4    1    6    6  502    0 -0.59677226580E+01 -0.69078204560E+00 -0.12860778573E+01  0.61436869885E+01  0.00000000000E+00 0. -1.
          1    1    5    5  503    0  0.10394062039E+03 -0.90299247013E+01 -0.20635444104E+02  0.10635324942E+03  0.00000000000E+00 0. -1.
         -2    1    5    5    0  503  0.29355148466E+03 -0.29233209790E+02  0.81673496364E+02  0.30610066107E+03  0.00000000000E+00 0.  1.
         -3    1    6    6    0  502 -0.33208006848E+03 -0.27315091816E+03  0.61250710057E+03  0.74836725224E+03  0.00000000000E+00 0.  1.
<mgrwt>
<rscale>  0 0.16417773E+04</rscale>
<asrwt>0</asrwt>
<pdfrwt beam="1">  1        2 0.39288986E+00 0.16417773E+04</pdfrwt>
<pdfrwt beam="2">  1       -2 0.40594855E-01 0.16417773E+04</pdfrwt>
<totfact> 0.17827334E+01</totfact>
</mgrwt>
</event>
<event>
12    1  0.1755460E-007  0.1627956E+04  0.7818608E-02  0.8803555E-01
         -1   -1    0    0    0  501 -0.00000000000E+00  0.00000000000E+00  0.14427017935E+04  0.14427017935E+04  0.00000000000E+00 0.  1.
          1   -1    0    0  501    0  0.00000000000E+00 -0.00000000000E+00 -0.45924965617E+03  0.45924965617E+03  0.00000000000E+00 0. -1.
         23    2    1    2    0    0 -0.27448086802E+03  0.46439304610E+03  0.54262481690E+03  0.77092190150E+03  0.94224403001E+02 0.  0.
        254    2    1    2    0    0  0.27448086802E+03 -0.46439304610E+03  0.44082732041E+03  0.11310295481E+04  0.89100980027E+03 0.  0.
        -24    2    4    4    0    0 -0.44384234765E+02  0.24207798705E+03  0.59350603704E+02  0.26346867794E+03  0.72948872411E+02 0.  0.
         24    2    4    4    0    0  0.31886510279E+03 -0.70647103315E+03  0.38147671670E+03  0.86756087020E+03  0.79756527435E+02 0.  0.
         13    1    3    3    0    0 -0.14507846257E+02  0.19260309967E+02  0.24283305362E+01  0.24234973328E+02  0.00000000000E+00 0. -1.
        -13    1    3    3    0    0 -0.25997302177E+03  0.44513273613E+03  0.54019648637E+03  0.74668692817E+03  0.00000000000E+00 0.  1.
          4    1    6    6  502    0  0.86392752648E+02 -0.28544513190E+03  0.14342671311E+03  0.33092877340E+03  0.00000000000E+00 0. -1.
          1    1    5    5  503    0  0.28105006393E+01  0.38400710682E+02  0.36664855169E+02  0.53167895381E+02  0.00000000000E+00 0. -1.
         -2    1    5    5    0  503 -0.47194735405E+02  0.20367727637E+03  0.22685748535E+02  0.21030078256E+03  0.00000000000E+00 0.  1.
         -3    1    6    6    0  502  0.23247235014E+03 -0.42102590125E+03  0.23805000359E+03  0.53663209680E+03  0.00000000000E+00 0.  1.
<mgrwt>
<rscale>  0 0.16279561E+04</rscale>
<asrwt>0</asrwt>
<pdfrwt beam="1">  1        1 0.70653794E-01 0.16279561E+04</pdfrwt>
<pdfrwt beam="2">  1       -1 0.22195412E+00 0.16279561E+04</pdfrwt>
<totfact> 0.50912415E+00</totfact>
</mgrwt>
</event>
<event>
12    1  0.1755460E-007  0.1282174E+04  0.7818608E-02  0.9043822E-01
          2   -1    0    0  501    0  0.00000000000E+00  0.00000000000E+00  0.12575634327E+04  0.12575634327E+04  0.00000000000E+00 0. -1.
         -2   -1    0    0    0  501 -0.00000000000E+00 -0.00000000000E+00 -0.32681665691E+03  0.32681665691E+03  0.00000000000E+00 0.  1.
         23    2    1    2    0    0  0.91226907347E+02 -0.29924642400E+03  0.28949080585E+03  0.43571949587E+03  0.90420028246E+02 0.  0.
        254    2    1    2    0    0 -0.91226907347E+02  0.29924642400E+03  0.64125596991E+03  0.11486605937E+04  0.90018951876E+03 0.  0.
        -24    2    4    4    0    0 -0.19734375582E+03 -0.11030042358E+03  0.67550608541E+03  0.71701308305E+03  0.81783546280E+02 0.  0.
         24    2    4    4    0    0  0.10611684847E+03  0.40954684758E+03 -0.34250115497E+02  0.43164751065E+03  0.78467172432E+02 0.  0.
         11    1    3    3    0    0  0.40744289643E+02 -0.20056753897E+03  0.23680757849E+03  0.31299403198E+03  0.00000000000E+00 0. -1.
        -11    1    3    3    0    0  0.50482617703E+02 -0.98678885029E+02  0.52683227359E+02  0.12272546388E+03  0.00000000000E+00 0.  1.
          2    1    6    6  502    0  0.10567160134E+03  0.41285048072E+03 -0.31493223068E+02  0.42732169364E+03  0.00000000000E+00 0. -1.
          1    1    5    5  503    0 -0.19208217994E+03 -0.12149746227E+03  0.65149559889E+03  0.69000269026E+03  0.00000000000E+00 0. -1.
         -4    1    5    5    0  503 -0.52615758781E+01  0.11197038689E+02  0.24010486516E+02  0.27010392794E+02  0.00000000000E+00 0.  1.
         -1    1    6    6    0  502  0.44524713330E+00 -0.33036331398E+01 -0.27568924285E+01  0.43258170089E+01  0.00000000000E+00 0.  1.
<mgrwt>
<rscale>  0 0.12821742E+04</rscale>
<asrwt>0</asrwt>
<pdfrwt beam="1">  1        2 0.19347130E+00 0.12821742E+04</pdfrwt>
<pdfrwt beam="2">  1       -2 0.50279486E-01 0.12821742E+04</pdfrwt>
<totfact> 0.64262548E+01</totfact>
</mgrwt>
</event>
<event>
12    1  0.1755460E-007  0.1361698E+04  0.7818608E-02  0.8982020E-01
         -1   -1    0    0    0  501 -0.00000000000E+00  0.00000000000E+00  0.30899727585E+03  0.30899727585E+03  0.00000000000E+00 0.  1.
          1   -1    0    0  501    0  0.00000000000E+00 -0.00000000000E+00 -0.15001923366E+04  0.15001923366E+04  0.00000000000E+00 0. -1.
         23    2    1    2    0    0 -0.18379262242E+03  0.12442221364E+03 -0.74475833584E+03  0.78186214586E+03  0.85923343818E+02 0.  0.
        254    2    1    2    0    0  0.18379262242E+03 -0.12442221364E+03 -0.44643672493E+03  0.10273274666E+04  0.89824014552E+03 0.  0.
        -24    2    4    4    0    0 -0.18093538840E+02 -0.26306979444E+03  0.19369824629E+03  0.33727859389E+03  0.81882515735E+02 0.  0.
         24    2    4    4    0    0  0.20188616126E+03  0.13864758080E+03 -0.64013497122E+03  0.69004887274E+03  0.80084278219E+02 0.  0.
         11    1    3    3    0    0 -0.18503641054E+03  0.12004110958E+03 -0.63880077920E+03  0.67580675989E+03  0.00000000000E+00 0. -1.
        -11    1    3    3    0    0  0.12437881147E+01  0.43811040569E+01 -0.10595755665E+03  0.10605538596E+03  0.00000000000E+00 0.  1.
          2    1    6    6  502    0  0.16584613152E+03  0.11875448753E+03 -0.43010876856E+03  0.47602638628E+03  0.00000000000E+00 0. -1.
          1    1    5    5  503    0 -0.33272118567E+02 -0.20332848384E+03  0.18121623497E+03  0.27438810112E+03  0.00000000000E+00 0. -1.
         -2    1    5    5    0  503  0.15178579727E+02 -0.59741310597E+02  0.12482011318E+02  0.62890492771E+02  0.00000000000E+00 0.  1.
         -1    1    6    6    0  502  0.36040029745E+02  0.19893093275E+02 -0.21002620267E+03  0.21402248646E+03  0.00000000000E+00 0.  1.
<mgrwt>
<rscale>  0 0.13616980E+04</rscale>
<asrwt>0</asrwt>
<pdfrwt beam="1">  1        1 0.23079882E+00 0.13616980E+04</pdfrwt>
<pdfrwt beam="2">  1       -1 0.47538043E-01 0.13616980E+04</pdfrwt>
<totfact> 0.28249474E+01</totfact>
</mgrwt>
</event>
<event>
12    1  0.1755460E-007  0.1676285E+04  0.7818608E-02  0.8775007E-01
         -2   -1    0    0    0  501 -0.00000000000E+00  0.00000000000E+00  0.27158846227E+03  0.27158846227E+03  0.00000000000E+00 0.  1.
          2   -1    0    0  501    0  0.00000000000E+00 -0.00000000000E+00 -0.25865697509E+04  0.25865697509E+04  0.00000000000E+00 0. -1.
         23    2    1    2    0    0 -0.17138741333E+03  0.51090284300E+03 -0.41484740483E+03  0.68606942927E+03  0.90540223307E+02 0.  0.
        254    2    1    2    0    0  0.17138741333E+03 -0.51090284300E+03 -0.19001338838E+04  0.21720887839E+04  0.90391678178E+03 0.  0.
        -24    2    4    4    0    0  0.24579506313E+03 -0.74621215846E+03 -0.13528488233E+04  0.15665051479E+04  0.80564517334E+02 0.  0.
         24    2    4    4    0    0 -0.74407649796E+02  0.23530931546E+03 -0.54728506054E+03  0.60558363596E+03  0.79395405160E+02 0.  0.
         13    1    3    3    0    0 -0.74342668313E+02  0.14038441794E+03 -0.82686053962E+02  0.17908545629E+03  0.00000000000E+00 0.  1.
        -13    1    3    3    0    0 -0.97044745020E+02  0.37051842506E+03 -0.33216135087E+03  0.50698397298E+03  0.00000000000E+00 0. -1.
          2    1    6    6  502    0 -0.42879268842E+02  0.40804122061E+02 -0.90834386811E+02  0.10841814378E+03  0.00000000000E+00 0. -1.
          3    1    5    5  503    0 -0.12901635099E+01 -0.54967891425E+02 -0.11227508631E+03  0.12501531352E+03  0.00000000000E+00 0. -1.
         -4    1    5    5    0  503  0.24708522664E+03 -0.69124426704E+03 -0.12405737369E+04  0.14414898344E+04  0.00000000000E+00 0.  1.
         -1    1    6    6    0  502 -0.31528380954E+02  0.19450519340E+03 -0.45645067373E+03  0.49716549218E+03  0.00000000000E+00 0.  1.
<mgrwt>
<rscale>  0 0.16762846E+04</rscale>
<asrwt>0</asrwt>
<pdfrwt beam="1">  1        2 0.39793380E+00 0.16762846E+04</pdfrwt>
<pdfrwt beam="2">  1       -2 0.41782841E-01 0.16762846E+04</pdfrwt>
<totfact> 0.16070849E+01</totfact>
</mgrwt>
</event>
<event>
12    1  0.1755460E-007  0.1914207E+04  0.7818608E-02  0.8647817E-01
          1   -1    0    0  501    0  0.00000000000E+00  0.00000000000E+00  0.57394906565E+03  0.57394906565E+03  0.00000000000E+00 0. -1.
         -1   -1    0    0    0  501 -0.00000000000E+00 -0.00000000000E+00 -0.15960430039E+04  0.15960430039E+04  0.00000000000E+00 0.  1.
         23    2    1    2    0    0  0.36254758690E+03  0.10936477192E+03  0.28554662410E+03  0.48281822801E+03  0.90416595074E+02 0.  0.
        254    2    1    2    0    0 -0.36254758690E+03 -0.10936477192E+03 -0.13076405623E+04  0.16871738415E+04  0.99660941455E+03 0.  0.
        -24    2    4    4    0    0  0.11935487425E+03 -0.23024138070E+03 -0.11142519315E+04  0.11468250012E+04  0.79959595747E+02 0.  0.
         24    2    4    4    0    0 -0.48190246115E+03  0.12087660878E+03 -0.19338863081E+03  0.54034884038E+03  0.87957774857E+02 0.  0.
         11    1    3    3    0    0  0.36648532469E+03  0.11047970675E+03  0.27447259161E+03  0.47101216795E+03  0.00000000000E+00 0. -1.
        -11    1    3    3    0    0 -0.39377377909E+01 -0.11149348222E+01  0.11074032491E+02  0.11806060062E+02  0.00000000000E+00 0.  1.
          2    1    6    6  502    0 -0.20103051781E+03  0.67206574402E+02 -0.39498882598E+02  0.21561575652E+03  0.00000000000E+00 0. -1.
          1    1    5    5  503    0  0.43893565663E+02 -0.16445732495E+03 -0.74943588781E+03  0.76852261305E+03  0.00000000000E+00 0. -1.
         -2    1    5    5    0  503  0.75461308592E+02 -0.65784055752E+02 -0.36481604373E+03  0.37830238810E+03  0.00000000000E+00 0.  1.
         -1    1    6    6    0  502 -0.28087194334E+03  0.53670034378E+02 -0.15388974821E+03  0.32473308386E+03  0.00000000000E+00 0.  1.
<mgrwt>
<rscale>  0 0.19142073E+04</rscale>
<asrwt>0</asrwt>
<pdfrwt beam="1">  1        1 0.88299855E-01 0.19142073E+04</pdfrwt>
<pdfrwt beam="2">  1       -1 0.24554508E+00 0.19142073E+04</pdfrwt>
<totfact> 0.25436743E+00</totfact>
</mgrwt>
</event>
<event>
12    1  0.1755460E-007  0.1342998E+04  0.7818608E-02  0.8996146E-01
          2   -1    0    0  501    0  0.00000000000E+00  0.00000000000E+00  0.13096960473E+04  0.13096960473E+04  0.00000000000E+00 0. -1.
         -2   -1    0    0    0  501 -0.00000000000E+00 -0.00000000000E+00 -0.34428648973E+03  0.34428648973E+03  0.00000000000E+00 0.  1.
         23    2    1    2    0    0  0.23207184598E+03 -0.83884018382E+02  0.63056761148E+03  0.68324717877E+03  0.91199366341E+02 0.  0.
        254    2    1    2    0    0 -0.23207184598E+03  0.83884018382E+02  0.33484194605E+03  0.97073535821E+03  0.87710554473E+03 0.  0.
        -24    2    4    4    0    0 -0.47384254086E+03 -0.26738252253E+02 -0.61906419784E+02  0.48475218218E+03  0.76880333323E+02 0.  0.
         24    2    4    4    0    0  0.24177069488E+03  0.11062227064E+03  0.39674836583E+03  0.48598317603E+03  0.89888964456E+02 0.  0.
         13    1    3    3    0    0  0.17706809693E+03 -0.19099648417E+02  0.42656248827E+03  0.46224827087E+03  0.00000000000E+00 0. -1.
        -13    1    3    3    0    0  0.55003749053E+02 -0.64784369965E+02  0.20400512320E+03  0.22099890790E+03  0.00000000000E+00 0.  1.
          4    1    6    6  502    0  0.44920484353E+02  0.62740633128E+02  0.12747025241E+03  0.14900638311E+03  0.00000000000E+00 0. -1.
          3    1    5    5  503    0 -0.22909943479E+03 -0.50998401111E+02 -0.24522514268E+02  0.23598462162E+03  0.00000000000E+00 0. -1.
         -4    1    5    5    0  503 -0.24474310607E+03  0.24260148858E+02 -0.37383905516E+02  0.24876756055E+03  0.00000000000E+00 0.  1.
         -3    1    6    6    0  502  0.19685021053E+03  0.47881637507E+02  0.26927811342E+03  0.33697679292E+03  0.00000000000E+00 0.  1.
<mgrwt>
<rscale>  0 0.13429976E+04</rscale>
<asrwt>0</asrwt>
<pdfrwt beam="1">  1        2 0.20149170E+00 0.13429976E+04</pdfrwt>
<pdfrwt beam="2">  1       -2 0.52967153E-01 0.13429976E+04</pdfrwt>
<totfact> 0.53594286E+01</totfact>
</mgrwt>
</event>
<event>
12    1  0.1755460E-007  0.1339375E+04  0.7818608E-02  0.8998910E-01
         -1   -1    0    0    0  501 -0.00000000000E+00  0.00000000000E+00  0.81781156005E+03  0.81781156005E+03  0.00000000000E+00 0.  1.
          1   -1    0    0  501    0  0.00000000000E+00 -0.00000000000E+00 -0.54839205322E+03  0.54839205322E+03  0.00000000000E+00 0. -1.
         23    2    1    2    0    0 -0.31147243421E+03  0.76047307616E+02  0.21592243605E+03  0.39767135417E+03  0.93390241818E+02 0.  0.
        254    2    1    2    0    0  0.31147243421E+03 -0.76047307616E+02  0.53497070770E+02  0.96853225910E+03  0.91235658055E+03 0.  0.
        -24    2    4    4    0    0 -0.18561018527E+03  0.24605769671E+03  0.16787494187E+03  0.35976627337E+03  0.79083780639E+02 0.  0.
         24    2    4    4    0    0  0.49708261947E+03 -0.32210500433E+03 -0.11437787110E+03  0.60876598573E+03  0.81675967018E+02 0.  0.
         11    1    3    3    0    0 -0.25778094217E+03  0.60543935929E+02  0.12952912457E+03  0.29477852099E+03  0.00000000000E+00 0.  1.
        -11    1    3    3    0    0 -0.53691492039E+02  0.15503371687E+02  0.86393311481E+02  0.10289283318E+03  0.00000000000E+00 0. -1.
          2    1    6    6  502    0  0.26759895643E+03 -0.20735722982E+03 -0.94218811747E+02  0.35140205851E+03  0.00000000000E+00 0. -1.
          3    1    5    5  503    0 -0.11316705680E+03  0.10387088556E+03  0.50598086649E+02  0.16172850702E+03  0.00000000000E+00 0. -1.
         -4    1    5    5    0  503 -0.72443128465E+02  0.14218681116E+03  0.11727685523E+03  0.19803776635E+03  0.00000000000E+00 0.  1.
         -3    1    6    6    0  502  0.22948366304E+03 -0.11474777451E+03 -0.20159059357E+02  0.25736392722E+03  0.00000000000E+00 0.  1.
<mgrwt>
<rscale>  0 0.13393750E+04</rscale>
<asrwt>0</asrwt>
<pdfrwt beam="1">  1        1 0.84368008E-01 0.13393750E+04</pdfrwt>
<pdfrwt beam="2">  1       -1 0.12581716E+00 0.13393750E+04</pdfrwt>
<totfact> 0.21016755E+01</totfact>
</mgrwt>
</event>
<event>
12    1  0.1755460E-007  0.2804241E+04  0.7818608E-02  0.8301953E-01
          2   -1    0    0  501    0  0.00000000000E+00  0.00000000000E+00  0.10461165049E+04  0.10461165049E+04  0.00000000000E+00 0. -1.
         -2   -1    0    0    0  501 -0.00000000000E+00 -0.00000000000E+00 -0.18792759458E+04  0.18792759458E+04  0.00000000000E+00 0.  1.
         23    2    1    2    0    0  0.42305656145E+03  0.30501112225E+03 -0.15663152133E+04  0.16533097519E+04  0.89895212620E+02 0.  0.
        254    2    1    2    0    0 -0.42305656145E+03 -0.30501112225E+03  0.73315577245E+03  0.12720826989E+04  0.89925989975E+03 0.  0.
        -24    2    4    4    0    0 -0.36831839104E+03  0.61035125125E+02 -0.66068619193E+02  0.38772700711E+03  0.81138436771E+02 0.  0.
         24    2    4    4    0    0 -0.54738170404E+02 -0.36604624737E+03  0.79922439164E+03  0.88435569179E+03  0.79619337474E+02 0.  0.
         13    1    3    3    0    0  0.52292454108E+02  0.43374408712E+02 -0.31528024511E+03  0.32251739960E+03  0.00000000000E+00 0. -1.
        -13    1    3    3    0    0  0.37076410734E+03  0.26163671354E+03 -0.12510349682E+04  0.13307923523E+04  0.00000000000E+00 0.  1.
          2    1    6    6  502    0  0.11754765059E+02 -0.14493807118E+03  0.35713116691E+03  0.38560068640E+03  0.00000000000E+00 0. -1.
          3    1    5    5  503    0 -0.32387165312E+03  0.41332674355E+02 -0.31380649371E+02  0.32800302258E+03  0.00000000000E+00 0. -1.
         -4    1    5    5    0  503 -0.44446737921E+02  0.19702450770E+02 -0.34687969822E+02  0.59723984533E+02  0.00000000000E+00 0.  1.
         -1    1    6    6    0  502 -0.66492935463E+02 -0.22110817619E+03  0.44209322473E+03  0.49875500539E+03  0.00000000000E+00 0.  1.
<mgrwt>
<rscale>  0 0.28042408E+04</rscale>
<asrwt>0</asrwt>
<pdfrwt beam="1">  1        2 0.16094100E+00 0.28042408E+04</pdfrwt>
<pdfrwt beam="2">  1       -2 0.28911937E+00 0.28042408E+04</pdfrwt>
<totfact> 0.75857175E-01</totfact>
</mgrwt>
</event>
<event>
12    1  0.1755460E-007  0.1978210E+04  0.7818608E-02  0.8616876E-01
         -1   -1    0    0    0  501 -0.00000000000E+00  0.00000000000E+00  0.34934050632E+03  0.34934050632E+03  0.00000000000E+00 0.  1.
          1   -1    0    0  501    0  0.00000000000E+00 -0.00000000000E+00 -0.28005023051E+04  0.28005023051E+04  0.00000000000E+00 0. -1.
         23    2    1    2    0    0  0.77433230898E+03  0.20489111041E+02 -0.11744896629E+04  0.14103716991E+04  0.98549647144E+02 0.  0.
        254    2    1    2    0    0 -0.77433230898E+03 -0.20489111041E+02 -0.12766721359E+04  0.17394711123E+04  0.89210855822E+03 0.  0.
        -24    2    4    4    0    0 -0.96291200140E+03 -0.38570484772E+02 -0.96473875763E+03  0.13659243390E+04  0.79631807531E+02 0.  0.
         24    2    4    4    0    0  0.18857969241E+03  0.18081373731E+02 -0.31193337828E+03  0.37354677330E+03  0.79658790423E+02 0.  0.
         13    1    3    3    0    0  0.77355015227E+03  0.15928265100E+02 -0.11540289883E+04  0.13893942758E+04  0.00000000000E+00 0. -1.
        -13    1    3    3    0    0  0.78215671393E+00  0.45608459409E+01 -0.20460674534E+02  0.20977423274E+02  0.00000000000E+00 0.  1.
          4    1    6    6  502    0  0.12819860565E+03  0.49426727190E+02 -0.21354681462E+03  0.25392937185E+03  0.00000000000E+00 0. -1.
          1    1    5    5  503    0 -0.37847892840E+03 -0.47475819128E+02 -0.35047866593E+03  0.51801114652E+03  0.00000000000E+00 0. -1.
         -2    1    5    5    0  503 -0.58443307299E+03  0.89053343560E+01 -0.61426009170E+03  0.84791319252E+03  0.00000000000E+00 0.  1.
         -3    1    6    6    0  502  0.60381086761E+02 -0.31345353459E+02 -0.98386563662E+02  0.11961740146E+03  0.00000000000E+00 0.  1.
<mgrwt>
<rscale>  0 0.19782102E+04</rscale>
<asrwt>0</asrwt>
<pdfrwt beam="1">  1        1 0.43084649E+00 0.19782102E+04</pdfrwt>
<pdfrwt beam="2">  1       -1 0.53744695E-01 0.19782102E+04</pdfrwt>
<totfact> 0.27076024E+00</totfact>
</mgrwt>
</event>
<event>
12    1  0.1755460E-007  0.2021516E+04  0.7818608E-02  0.8596627E-01
          2   -1    0    0  501    0  0.00000000000E+00  0.00000000000E+00  0.93992402619E+03  0.93992402619E+03  0.00000000000E+00 0. -1.
         -2   -1    0    0    0  501 -0.00000000000E+00 -0.00000000000E+00 -0.10869297767E+04  0.10869297767E+04  0.00000000000E+00 0.  1.
         23    2    1    2    0    0 -0.14872784432E+03  0.76673227805E+03 -0.26146046382E+03  0.82846580341E+03  0.89418428793E+02 0.  0.
        254    2    1    2    0    0  0.14872784432E+03 -0.76673227805E+03  0.11445471330E+03  0.11983879995E+04  0.90168484406E+03 0.  0.
        -24    2    4    4    0    0  0.32631788296E+03 -0.78770995349E+03 -0.15004994498E+03  0.86955700617E+03  0.81511161406E+02 0.  0.
         24    2    4    4    0    0 -0.17759003863E+03  0.20977675436E+02  0.26450465829E+03  0.32883099331E+03  0.78669074069E+02 0.  0.
         11    1    3    3    0    0 -0.59279983229E+02  0.25040677361E+03 -0.43736481835E+02  0.26101829155E+03  0.00000000000E+00 0. -1.
        -11    1    3    3    0    0 -0.89447861092E+02  0.51632550444E+03 -0.21772398198E+03  0.56744751186E+03  0.00000000000E+00 0.  1.
          2    1    6    6  502    0 -0.15866740921E+03  0.44795329616E+02  0.21992920931E+03  0.27486510402E+03  0.00000000000E+00 0. -1.
          1    1    5    5  503    0  0.92328136909E+02 -0.32671908245E+03 -0.56351038199E+02  0.34415880521E+03  0.00000000000E+00 0. -1.
         -2    1    5    5    0  503  0.23398974605E+03 -0.46099087104E+03 -0.93698906785E+02  0.52539820096E+03  0.00000000000E+00 0.  1.
         -1    1    6    6    0  502 -0.18922629427E+02 -0.23817654180E+02  0.44575448978E+02  0.53965889288E+02  0.00000000000E+00 0.  1.
<mgrwt>
<rscale>  0 0.20215157E+04</rscale>
<asrwt>0</asrwt>
<pdfrwt beam="1">  1        2 0.14460370E+00 0.20215157E+04</pdfrwt>
<pdfrwt beam="2">  1       -2 0.16721997E+00 0.20215157E+04</pdfrwt>
<totfact> 0.57036597E+00</totfact>
</mgrwt>
</event>
<event>
12    1  0.1755460E-007  0.1402077E+04  0.7818608E-02  0.8952317E-01
          2   -1    0    0  501    0  0.00000000000E+00  0.00000000000E+00  0.46000784291E+03  0.46000784291E+03  0.00000000000E+00 0. -1.
         -2   -1    0    0    0  501 -0.00000000000E+00 -0.00000000000E+00 -0.10683617414E+04  0.10683617414E+04  0.00000000000E+00 0.  1.
         23    2    1    2    0    0  0.29817816066E+03  0.24992597333E+03 -0.31373334087E+03  0.50911890050E+03  0.96954824700E+02 0.  0.
        254    2    1    2    0    0 -0.29817816066E+03 -0.24992597333E+03 -0.29462055760E+03  0.10192506838E+04  0.89481700689E+03 0.  0.
        -24    2    4    4    0    0 -0.48244259668E+03 -0.15682486318E+03 -0.50058806332E+03  0.71715980680E+03  0.79905460069E+02 0.  0.
         24    2    4    4    0    0  0.18426443602E+03 -0.93101110146E+02  0.20596750572E+03  0.30209087699E+03  0.78835813293E+02 0.  0.
         11    1    3    3    0    0  0.50378887231E+02  0.50872443655E+01 -0.24056560275E+02  0.56059168975E+02  0.00000000000E+00 0. -1.
        -11    1    3    3    0    0  0.24779927342E+03  0.24483872897E+03 -0.28967678060E+03  0.45305973152E+03  0.00000000000E+00 0.  1.
          2    1    6    6  502    0 -0.72722654953E+01 -0.66373097807E+00  0.13044058667E+02  0.14949041800E+02  0.00000000000E+00 0. -1.
          3    1    5    5  503    0 -0.18094850462E+03 -0.79387754891E+02 -0.24243604876E+03  0.31276191375E+03  0.00000000000E+00 0. -1.
         -4    1    5    5    0  503 -0.30149409205E+03 -0.77437108294E+02 -0.25815201456E+03  0.40439789305E+03  0.00000000000E+00 0.  1.
         -1    1    6    6    0  502  0.19153670152E+03 -0.92437379168E+02  0.19292344705E+03  0.28714183519E+03  0.00000000000E+00 0.  1.
<mgrwt>
<rscale>  0 0.14020767E+04</rscale>
<asrwt>0</asrwt>
<pdfrwt beam="1">  1        2 0.70770438E-01 0.14020767E+04</pdfrwt>
<pdfrwt beam="2">  1       -2 0.16436334E+00 0.14020767E+04</pdfrwt>
<totfact> 0.15425555E+01</totfact>
</mgrwt>
</event>
<event>
12    1  0.1755460E-007  0.1206736E+04  0.7818608E-02  0.9106981E-01
          2   -1    0    0  501    0  0.00000000000E+00  0.00000000000E+00  0.31755857505E+03  0.31755857505E+03  0.00000000000E+00 0. -1.
         -2   -1    0    0    0  501 -0.00000000000E+00 -0.00000000000E+00 -0.11464114436E+04  0.11464114436E+04  0.00000000000E+00 0.  1.
         23    2    1    2    0    0  0.10547928082E+03 -0.48075664638E+02 -0.42629642831E+03  0.45092097739E+03  0.90354495419E+02 0.  0.
        254    2    1    2    0    0 -0.10547928082E+03  0.48075664638E+02 -0.40255644021E+03  0.10130490412E+04  0.92237710520E+03 0.  0.
        -24    2    4    4    0    0 -0.24353365571E+03  0.31765116776E+03 -0.53519262534E+03  0.67296261161E+03  0.78972302555E+02 0.  0.
         24    2    4    4    0    0  0.13805437489E+03 -0.26957550312E+03  0.13263618512E+03  0.34008642963E+03  0.79601882569E+02 0.  0.
         13    1    3    3    0    0  0.11968959025E+03 -0.51824175783E+02 -0.40085183168E+03  0.42153710889E+03  0.00000000000E+00 0.  1.
        -13    1    3    3    0    0 -0.14210309433E+02  0.37485111448E+01 -0.25444596634E+02  0.29383868497E+02  0.00000000000E+00 0. -1.
          2    1    6    6  502    0  0.82813328062E+02 -0.97300516800E+02  0.83435617054E+02  0.15260059000E+03  0.00000000000E+00 0. -1.
          3    1    5    5  503    0 -0.22212350825E+03  0.31591408334E+03 -0.50072865206E+03  0.63235254721E+03  0.00000000000E+00 0. -1.
         -4    1    5    5    0  503 -0.21410147461E+02  0.17370844159E+01 -0.34463973280E+02  0.40610064403E+02  0.00000000000E+00 0.  1.
         -1    1    6    6    0  502  0.55241046831E+02 -0.17227498632E+03  0.49200568069E+02  0.18748583964E+03  0.00000000000E+00 0.  1.
<mgrwt>
<rscale>  0 0.12067357E+04</rscale>
<asrwt>0</asrwt>
<pdfrwt beam="1">  1        2 0.48855165E-01 0.12067357E+04</pdfrwt>
<pdfrwt beam="2">  1       -2 0.17637099E+00 0.12067357E+04</pdfrwt>
<totfact> 0.19507498E+01</totfact>
</mgrwt>
</event>
<event>
12    1  0.1755460E-007  0.1773340E+04  0.7818608E-02  0.8720607E-01
          2   -1    0    0  501    0  0.00000000000E+00  0.00000000000E+00  0.21969427489E+04  0.21969427489E+04  0.00000000000E+00 0. -1.
         -2   -1    0    0    0  501 -0.00000000000E+00 -0.00000000000E+00 -0.35785353247E+03  0.35785353247E+03  0.00000000000E+00 0.  1.
         23    2    1    2    0    0  0.13260316417E+03  0.62876844991E+03  0.54537508961E+03  0.84787384036E+03  0.92318459979E+02 0.  0.
        254    2    1    2    0    0 -0.13260316417E+03 -0.62876844991E+03  0.12937141268E+04  0.17069224410E+04  0.90937044979E+03 0.  0.
        -24    2    4    4    0    0 -0.11842797720E+03 -0.65324487120E+03  0.34221405059E+03  0.75184231761E+03  0.86037007089E+02 0.  0.
         24    2    4    4    0    0 -0.14175186976E+02  0.24476421298E+02  0.95150007622E+03  0.95508012340E+03  0.77624840967E+02 0.  0.
         13    1    3    3    0    0  0.19224018102E+02  0.27674816393E+03  0.26651078938E+03  0.38469092785E+03  0.00000000000E+00 0. -1.
        -13    1    3    3    0    0  0.11337914607E+03  0.35202028597E+03  0.27886430023E+03  0.46318291251E+03  0.00000000000E+00 0.  1.
          2    1    6    6  502    0  0.29645317675E+02 -0.34721998395E+01  0.41322957449E+03  0.41430614558E+03  0.00000000000E+00 0. -1.
          1    1    5    5  503    0 -0.30886471228E+02 -0.19108570557E+03  0.14472955202E+03  0.24169063740E+03  0.00000000000E+00 0. -1.
         -2    1    5    5    0  503 -0.87541505969E+02 -0.46215916563E+03  0.19748449857E+03  0.51015168021E+03  0.00000000000E+00 0.  1.
         -1    1    6    6    0  502 -0.43820504651E+02  0.27948621138E+02  0.53827050173E+03  0.54077397782E+03  0.00000000000E+00 0.  1.
<mgrwt>
<rscale>  0 0.17733400E+04</rscale>
<asrwt>0</asrwt>
<pdfrwt beam="1">  1        2 0.33799118E+00 0.17733400E+04</pdfrwt>
<pdfrwt beam="2">  1       -2 0.55054391E-01 0.17733400E+04</pdfrwt>
<totfact> 0.15222581E+01</totfact>
</mgrwt>
</event>
<event>
12    1  0.1755460E-007  0.1244387E+04  0.7818608E-02  0.9074868E-01
         -2   -1    0    0    0  501 -0.00000000000E+00  0.00000000000E+00  0.12863246582E+04  0.12863246582E+04  0.00000000000E+00 0.  1.
          2   -1    0    0  501    0  0.00000000000E+00 -0.00000000000E+00 -0.30095436971E+03  0.30095436971E+03  0.00000000000E+00 0. -1.
         23    2    1    2    0    0 -0.21545423910E+02 -0.14668018292E+02  0.58587018293E+03  0.59644047958E+03  0.10871070964E+03 0.  0.
        254    2    1    2    0    0  0.21545423910E+02  0.14668018292E+02  0.39950010555E+03  0.99083854832E+03  0.90635607707E+03 0.  0.
        -24    2    4    4    0    0  0.40647049278E+03 -0.11367845968E+03  0.38522099699E+03  0.57706483910E+03  0.80421131002E+02 0.  0.
         24    2    4    4    0    0 -0.38492506887E+03  0.12834647798E+03  0.14279108565E+02  0.41377370922E+03  0.79778834564E+02 0.  0.
         13    1    3    3    0    0  0.42666261827E+02 -0.43529049057E+01  0.16067356793E+03  0.16629898710E+03  0.00000000000E+00 0.  1.
        -13    1    3    3    0    0 -0.64211685737E+02 -0.10315113387E+02  0.42519661500E+03  0.43014149248E+03  0.00000000000E+00 0. -1.
          2    1    6    6  502    0 -0.42626981611E+02 -0.77634493152E+00  0.21736283091E+02  0.47855284717E+02  0.00000000000E+00 0. -1.
          3    1    5    5  503    0  0.21602578962E+03 -0.51057635664E+02  0.14952575615E+03  0.26764150593E+03  0.00000000000E+00 0. -1.
         -4    1    5    5    0  503  0.19044470316E+03 -0.62620824021E+02  0.23569524084E+03  0.30942333318E+03  0.00000000000E+00 0.  1.
         -1    1    6    6    0  502 -0.34229808726E+03  0.12912282291E+03 -0.74571745256E+01  0.36591842450E+03  0.00000000000E+00 0.  1.
<mgrwt>
<rscale>  0 0.12443874E+04</rscale>
<asrwt>0</asrwt>
<pdfrwt beam="1">  1        2 0.46300673E-01 0.12443874E+04</pdfrwt>
<pdfrwt beam="2">  1       -2 0.19789610E+00 0.12443874E+04</pdfrwt>
<totfact> 0.14768625E+01</totfact>
</mgrwt>
</event>
<event>
12    1  0.1755460E-007  0.1482936E+04  0.7818608E-02  0.8895881E-01
          1   -1    0    0  501    0  0.00000000000E+00  0.00000000000E+00  0.52222581923E+03  0.52222581923E+03  0.00000000000E+00 0. -1.
         -1   -1    0    0    0  501 -0.00000000000E+00 -0.00000000000E+00 -0.10527523327E+04  0.10527523327E+04  0.00000000000E+00 0.  1.
         23    2    1    2    0    0 -0.58758782255E+02  0.63668801484E+02 -0.66492214959E+03  0.67682053371E+03  0.91968793916E+02 0.  0.
        254    2    1    2    0    0  0.58758782255E+02 -0.63668801484E+02  0.13439563612E+03  0.89815761822E+03  0.88380914760E+03 0.  0.
        -24    2    4    4    0    0  0.29705241130E+03  0.88219418805E+02  0.39210156785E+03  0.50583750426E+03  0.78135397215E+02 0.  0.
         24    2    4    4    0    0 -0.23829362904E+03 -0.15188822029E+03 -0.25770593172E+03  0.39232011396E+03  0.87457643836E+02 0.  0.
         11    1    3    3    0    0  0.84798301866E+00  0.50891170473E+02 -0.46588500286E+03  0.46865708807E+03  0.00000000000E+00 0. -1.
        -11    1    3    3    0    0 -0.59606765273E+02  0.12777631011E+02 -0.19903714674E+03  0.20816344564E+03  0.00000000000E+00 0.  1.
          4    1    6    6  502    0 -0.22549505223E+03 -0.16090277076E+03 -0.22814629180E+03  0.35887107808E+03  0.00000000000E+00 0. -1.
          3    1    5    5  503    0  0.25840414942E+03  0.87090610500E+02  0.29709904357E+03  0.40326829849E+03  0.00000000000E+00 0. -1.
         -4    1    5    5    0  503  0.38648261877E+02  0.11288083053E+01  0.95002524273E+02  0.10256920577E+03  0.00000000000E+00 0.  1.
         -3    1    6    6    0  502 -0.12798576808E+02  0.90145504740E+01 -0.29559639927E+02  0.33449035879E+02  0.00000000000E+00 0.  1.
<mgrwt>
<rscale>  0 0.14829355E+04</rscale>
<asrwt>0</asrwt>
<pdfrwt beam="1">  1        1 0.80342435E-01 0.14829355E+04</pdfrwt>
<pdfrwt beam="2">  1       -1 0.16196189E+00 0.14829355E+04</pdfrwt>
<totfact> 0.11414010E+01</totfact>
</mgrwt>
</event>
<event>
12    1  0.1755460E-007  0.2799374E+04  0.7818608E-02  0.8303463E-01
         -2   -1    0    0    0  501 -0.00000000000E+00  0.00000000000E+00  0.26125925022E+04  0.26125925022E+04  0.00000000000E+00 0.  1.
          2   -1    0    0  501    0  0.00000000000E+00 -0.00000000000E+00 -0.74987708138E+03  0.74987708138E+03  0.00000000000E+00 0. -1.
         23    2    1    2    0    0 -0.51649987149E+03  0.44695075354E+03 -0.42642717986E+03  0.81011768106E+03  0.88957428595E+02 0.  0.
        254    2    1    2    0    0  0.51649987149E+03 -0.44695075354E+03  0.22891426007E+04  0.25523519025E+04  0.89877099125E+03 0.  0.
        -24    2    4    4    0    0  0.45272797524E+03  0.17707632687E+03  0.89702204137E+03  0.10233372990E+04  0.79069840889E+02 0.  0.
         24    2    4    4    0    0  0.63771896250E+02 -0.62402708041E+03  0.13921205593E+04  0.15290146035E+04  0.80058442689E+02 0.  0.
         13    1    3    3    0    0 -0.23031827204E+03  0.24860232162E+03 -0.18181305142E+03  0.38458497945E+03  0.00000000000E+00 0. -1.
        -13    1    3    3    0    0 -0.28618159945E+03  0.19834843192E+03 -0.24461412843E+03  0.42553270161E+03  0.00000000000E+00 0.  1.
          4    1    6    6  502    0 -0.84922302616E+01 -0.28006661605E+03  0.65343744144E+03  0.71097814121E+03  0.00000000000E+00 0. -1.
          1    1    5    5  503    0  0.35878188452E+03  0.10978310070E+03  0.72075293037E+03  0.81256480141E+03  0.00000000000E+00 0. -1.
         -2    1    5    5    0  503  0.93946090727E+02  0.67293226176E+02  0.17626911100E+03  0.21077249760E+03  0.00000000000E+00 0.  1.
         -3    1    6    6    0  502  0.72264126512E+02 -0.34396046436E+03  0.73868311790E+03  0.81803646233E+03  0.00000000000E+00 0.  1.
<mgrwt>
<rscale>  0 0.27993737E+04</rscale>
<asrwt>0</asrwt>
<pdfrwt beam="1">  1        2 0.11536571E+00 0.27993737E+04</pdfrwt>
<pdfrwt beam="2">  1       -2 0.40193730E+00 0.27993737E+04</pdfrwt>
<totfact> 0.23518339E-01</totfact>
</mgrwt>
</event>
<event>
12    1  0.1755460E-007  0.1878146E+04  0.7818608E-02  0.8665812E-01
          2   -1    0    0  501    0  0.00000000000E+00  0.00000000000E+00  0.16389357162E+04  0.16389357162E+04  0.00000000000E+00 0. -1.
         -2   -1    0    0    0  501 -0.00000000000E+00 -0.00000000000E+00 -0.53806761014E+03  0.53806761014E+03  0.00000000000E+00 0.  1.
         23    2    1    2    0    0  0.19123749707E+03  0.40452857014E+03 -0.20952520514E+03  0.50232274695E+03  0.90621113264E+02 0.  0.
        254    2    1    2    0    0 -0.19123749707E+03 -0.40452857014E+03  0.13103933112E+04  0.16746805794E+04  0.94191786723E+03 0.  0.
        -24    2    4    4    0    0 -0.24637467122E+03  0.10323118230E+03  0.14108703029E+02  0.27910603918E+03  0.79649042601E+02 0.  0.
         24    2    4    4    0    0  0.55137174151E+02 -0.50775975244E+03  0.12962846082E+04  0.13955745402E+04  0.80090184926E+02 0.  0.
         11    1    3    3    0    0  0.17005381128E+03  0.33562354619E+03 -0.13795523046E+03  0.40074070058E+03  0.00000000000E+00 0.  1.
        -11    1    3    3    0    0  0.21183685791E+02  0.68905023948E+02 -0.71569974685E+02  0.10158204637E+03  0.00000000000E+00 0. -1.
          2    1    6    6  502    0  0.17474441355E+02 -0.42336198908E+03  0.10322294470E+04  0.11158128701E+04  0.00000000000E+00 0. -1.
          1    1    5    5  503    0 -0.21974831071E+03  0.11441292074E+03  0.19103872974E+01  0.24775650561E+03  0.00000000000E+00 0. -1.
         -2    1    5    5    0  503 -0.26626360508E+02 -0.11181738436E+02  0.12198315731E+02  0.31349533570E+02  0.00000000000E+00 0.  1.
         -1    1    6    6    0  502  0.37662732796E+02 -0.84397763365E+02  0.26405516121E+03  0.27976167012E+03  0.00000000000E+00 0.  1.
<mgrwt>
<rscale>  0 0.18781461E+04</rscale>
<asrwt>0</asrwt>
<pdfrwt beam="1">  1        2 0.25214395E+00 0.18781461E+04</pdfrwt>
<pdfrwt beam="2">  1       -2 0.82779633E-01 0.18781461E+04</pdfrwt>
<totfact> 0.12733277E+01</totfact>
</mgrwt>
</event>
<event>
12    1  0.1755460E-007  0.1562717E+04  0.7818608E-02  0.8843786E-01
         -2   -1    0    0    0  501 -0.00000000000E+00  0.00000000000E+00  0.46449643654E+03  0.46449643654E+03  0.00000000000E+00 0.  1.
          2   -1    0    0  501    0  0.00000000000E+00 -0.00000000000E+00 -0.13143713775E+04  0.13143713775E+04  0.00000000000E+00 0. -1.
         23    2    1    2    0    0  0.11858056691E+03 -0.31482293880E+03 -0.73678289839E+03  0.81491941165E+03  0.89831923460E+02 0.  0.
        254    2    1    2    0    0 -0.11858056691E+03  0.31482293880E+03 -0.11309204260E+03  0.96394840243E+03  0.89623204518E+03 0.  0.
        -24    2    4    4    0    0 -0.16620778132E+03  0.10584666186E+03  0.37056778069E+03  0.42880489353E+03  0.87889784586E+02 0.  0.
         24    2    4    4    0    0  0.47627214409E+02  0.20897627694E+03 -0.48365982329E+03  0.53514350890E+03  0.80698913072E+02 0.  0.
         13    1    3    3    0    0  0.62746188674E+02 -0.24827149289E+03 -0.60633352630E+03  0.65819158571E+03  0.00000000000E+00 0. -1.
        -13    1    3    3    0    0  0.55834378237E+02 -0.66551445910E+02 -0.13044937209E+03  0.15672782594E+03  0.00000000000E+00 0.  1.
          2    1    6    6  502    0 -0.10880335710E+02  0.13141379626E+03 -0.27670604395E+03  0.30651949744E+03  0.00000000000E+00 0. -1.
          1    1    5    5  503    0 -0.69034410319E+02  0.82890846095E+02  0.24986336630E+03  0.27215499994E+03  0.00000000000E+00 0. -1.
         -2    1    5    5    0  503 -0.97173371001E+02  0.22955815767E+02  0.12070441439E+03  0.15664989359E+03  0.00000000000E+00 0.  1.
         -1    1    6    6    0  502  0.58507550118E+02  0.77562480673E+02 -0.20695377935E+03  0.22862401146E+03  0.00000000000E+00 0.  1.
<mgrwt>
<rscale>  0 0.15627166E+04</rscale>
<asrwt>0</asrwt>
<pdfrwt beam="1">  1        2 0.20221098E+00 0.15627166E+04</pdfrwt>
<pdfrwt beam="2">  1       -2 0.71460992E-01 0.15627166E+04</pdfrwt>
<totfact> 0.27705139E+01</totfact>
</mgrwt>
</event>
<event>
12    1  0.1755460E-007  0.1949945E+04  0.7818608E-02  0.8630387E-01
          1   -1    0    0  501    0  0.00000000000E+00  0.00000000000E+00  0.10707435402E+04  0.10707435402E+04  0.00000000000E+00 0. -1.
         -1   -1    0    0    0  501 -0.00000000000E+00 -0.00000000000E+00 -0.88776756711E+03  0.88776756711E+03  0.00000000000E+00 0.  1.
         23    2    1    2    0    0 -0.51923940143E+03 -0.28246859118E+03  0.55178357590E+03  0.81379466746E+03  0.91643794987E+02 0.  0.
        254    2    1    2    0    0  0.51923940143E+03  0.28246859118E+03 -0.36880760283E+03  0.11447164398E+04  0.90827232630E+03 0.  0.
        -24    2    4    4    0    0 -0.56230907862E+02 -0.63701933098E+02  0.21841056423E+03  0.24910503734E+03  0.84441066922E+02 0.  0.
         24    2    4    4    0    0  0.57547030929E+03  0.34617052428E+03 -0.58721816706E+03  0.89561140249E+03  0.79337883689E+02 0.  0.
         11    1    3    3    0    0 -0.46611995441E+03 -0.21843552264E+03  0.48214734100E+03  0.70529989925E+03  0.00000000000E+00 0. -1.
        -11    1    3    3    0    0 -0.53119447016E+02 -0.64033068542E+02  0.69636234903E+02  0.10849476821E+03  0.00000000000E+00 0.  1.
          4    1    6    6  502    0  0.43138336879E+03  0.29410383751E+03 -0.47322891738E+03  0.70465189019E+03  0.00000000000E+00 0. -1.
          3    1    5    5  503    0 -0.67656830752E+02 -0.41581262117E+02  0.97946757607E+02  0.12609526332E+03  0.00000000000E+00 0. -1.
         -4    1    5    5    0  503  0.11425922890E+02 -0.22120670982E+02  0.12046380662E+03  0.12300977402E+03  0.00000000000E+00 0.  1.
         -3    1    6    6    0  502  0.14408694050E+03  0.52066686770E+02 -0.11398924968E+03  0.19095951230E+03  0.00000000000E+00 0.  1.
<mgrwt>
<rscale>  0 0.19499450E+04</rscale>
<asrwt>0</asrwt>
<pdfrwt beam="1">  1        1 0.16472978E+00 0.19499450E+04</pdfrwt>
<pdfrwt beam="2">  1       -1 0.13657963E+00 0.19499450E+04</pdfrwt>
<totfact> 0.55578351E+00</totfact>
</mgrwt>
</event>
<event>
12    1  0.1755460E-007  0.1285054E+04  0.7818608E-02  0.9041502E-01
         -2   -1    0    0    0  501 -0.00000000000E+00  0.00000000000E+00  0.35948471237E+03  0.35948471237E+03  0.00000000000E+00 0.  1.
          2   -1    0    0  501    0  0.00000000000E+00 -0.00000000000E+00 -0.11484246821E+04  0.11484246821E+04  0.00000000000E+00 0. -1.
         23    2    1    2    0    0  0.19372171129E+03 -0.25538073843E+03 -0.22366271458E+03  0.40159967254E+03  0.92248924677E+02 0.  0.
        254    2    1    2    0    0 -0.19372171129E+03  0.25538073843E+03 -0.56527725513E+03  0.11063097219E+04  0.89534094212E+03 0.  0.
        -24    2    4    4    0    0  0.77490719836E+01  0.16076464429E+03 -0.77134790765E+03  0.79239147122E+03  0.83673950936E+02 0.  0.
         24    2    4    4    0    0 -0.20147078327E+03  0.94616094144E+02  0.20607065252E+03  0.31391825068E+03  0.80850927632E+02 0.  0.
         13    1    3    3    0    0  0.13912028920E+03 -0.14128143333E+03 -0.90566436497E+02  0.21798435195E+03  0.00000000000E+00 0.  1.
        -13    1    3    3    0    0  0.54601422086E+02 -0.11409930510E+03 -0.13309627809E+03  0.18361532060E+03  0.00000000000E+00 0. -1.
          2    1    6    6  502    0 -0.78854956705E+02 -0.27133174858E+01  0.85316494869E+02  0.11620830687E+03  0.00000000000E+00 0. -1.
          1    1    5    5  503    0 -0.17058632511E+02  0.12813155587E+03 -0.44234311167E+03  0.46084283763E+03  0.00000000000E+00 0. -1.
         -2    1    5    5    0  503  0.24807704495E+02  0.32633088424E+02 -0.32900479598E+03  0.33154863359E+03  0.00000000000E+00 0.  1.
         -1    1    6    6    0  502 -0.12261582657E+03  0.97329411630E+02  0.12075415765E+03  0.19770994381E+03  0.00000000000E+00 0.  1.
<mgrwt>
<rscale>  0 0.12850543E+04</rscale>
<asrwt>0</asrwt>
<pdfrwt beam="1">  1        2 0.17668072E+00 0.12850543E+04</pdfrwt>
<pdfrwt beam="2">  1       -2 0.55305341E-01 0.12850543E+04</pdfrwt>
<totfact> 0.61351502E+01</totfact>
</mgrwt>
</event>
<event>
12    1  0.1755460E-007  0.1683311E+04  0.7818608E-02  0.8770940E-01
         -1   -1    0    0    0  501 -0.00000000000E+00  0.00000000000E+00  0.47331744959E+03  0.47331744959E+03  0.00000000000E+00 0.  1.
          1   -1    0    0  501    0  0.00000000000E+00 -0.00000000000E+00 -0.14966357710E+04  0.14966357710E+04  0.00000000000E+00 0. -1.
         23    2    1    2    0    0 -0.60095500944E+02  0.12081854795E+02 -0.10592899652E+04  0.10651355937E+04  0.93065364587E+02 0.  0.
        254    2    1    2    0    0  0.60095500944E+02 -0.12081854795E+02  0.35971643832E+02  0.90481762687E+03  0.90202191674E+03 0.  0.
        -24    2    4    4    0    0  0.16804834991E+03  0.49994899349E+02 -0.39986428045E+03  0.44447838061E+03  0.83245721686E+02 0.  0.
         24    2    4    4    0    0 -0.10795284897E+03 -0.62076754143E+02  0.43583592428E+03  0.46033924626E+03  0.80323892758E+02 0.  0.
         11    1    3    3    0    0 -0.30688309054E+02 -0.21063874488E+02 -0.14267965082E+03  0.14745488083E+03  0.00000000000E+00 0.  1.
        -11    1    3    3    0    0 -0.29407191890E+02  0.33145729282E+02 -0.91661031438E+03  0.91768071285E+03  0.00000000000E+00 0. -1.
          2    1    6    6  502    0 -0.10938735320E+02  0.92174095453E+01  0.91195339387E+01  0.16964152451E+02  0.00000000000E+00 0. -1.
          1    1    5    5  503    0  0.59972006546E+02  0.41052082375E+02 -0.87054414147E+02  0.11340364218E+03  0.00000000000E+00 0. -1.
         -2    1    5    5    0  503  0.10807634337E+03  0.89428169737E+01 -0.31280986630E+03  0.33107473843E+03  0.00000000000E+00 0.  1.
         -1    1    6    6    0  502 -0.97014113648E+02 -0.71294163689E+02  0.42671639034E+03  0.44337509381E+03  0.00000000000E+00 0.  1.
<mgrwt>
<rscale>  0 0.16833108E+04</rscale>
<asrwt>0</asrwt>
<pdfrwt beam="1">  1        1 0.23025165E+00 0.16833108E+04</pdfrwt>
<pdfrwt beam="2">  1       -1 0.72818070E-01 0.16833108E+04</pdfrwt>
<totfact> 0.11917166E+01</totfact>
</mgrwt>
</event>
<event>
12    1  0.1755460E-007  0.1525343E+04  0.7818608E-02  0.8867773E-01
          2   -1    0    0  501    0  0.00000000000E+00  0.00000000000E+00  0.21923782191E+04  0.21923782191E+04  0.00000000000E+00 0. -1.
         -2   -1    0    0    0  501 -0.00000000000E+00 -0.00000000000E+00 -0.26531371764E+03  0.26531371764E+03  0.00000000000E+00 0.  1.
         23    2    1    2    0    0 -0.22446479699E+03 -0.38784161357E+03  0.32115505427E+03  0.55871765014E+03  0.90660252509E+02 0.  0.
        254    2    1    2    0    0  0.22446479699E+03  0.38784161357E+03  0.16059094471E+04  0.18989742866E+04  0.90903939753E+03 0.  0.
        -24    2    4    4    0    0  0.53886154205E+03  0.77276152056E+02  0.10373800860E+04  0.11743876500E+04  0.81765178935E+02 0.  0.
         24    2    4    4    0    0 -0.31439674506E+03  0.31056546151E+03  0.56852936112E+03  0.72458663652E+03  0.80647009762E+02 0.  0.
         13    1    3    3    0    0 -0.13434872500E+03 -0.22083785985E+03  0.23857276113E+03  0.35176114425E+03  0.00000000000E+00 0.  1.
        -13    1    3    3    0    0 -0.90116071989E+02 -0.16700375372E+03  0.82582293144E+02  0.20695650589E+03  0.00000000000E+00 0. -1.
          4    1    6    6  502    0 -0.30816671755E+03  0.31549568618E+03  0.56137689533E+03  0.71389654181E+03  0.00000000000E+00 0. -1.
          3    1    5    5  503    0  0.24117714652E+03  0.35274943723E+02  0.37894110411E+03  0.45056308997E+03  0.00000000000E+00 0. -1.
         -4    1    5    5    0  503  0.29768439553E+03  0.42001208333E+02  0.65843898191E+03  0.72382456006E+03  0.00000000000E+00 0.  1.
         -3    1    6    6    0  502 -0.62300275083E+01 -0.49302246659E+01  0.71524657903E+01  0.10690094709E+02  0.00000000000E+00 0.  1.
<mgrwt>
<rscale>  0 0.15253433E+04</rscale>
<asrwt>0</asrwt>
<pdfrwt beam="1">  1        2 0.33728895E+00 0.15253433E+04</pdfrwt>
<pdfrwt beam="2">  1       -2 0.40817496E-01 0.15253433E+04</pdfrwt>
<totfact> 0.28612504E+01</totfact>
</mgrwt>
</event>
<event>
12    1  0.1755460E-007  0.1360184E+04  0.7818608E-02  0.8983155E-01
          2   -1    0    0  501    0  0.00000000000E+00  0.00000000000E+00  0.14745556027E+04  0.14745556027E+04  0.00000000000E+00 0. -1.
         -2   -1    0    0    0  501 -0.00000000000E+00 -0.00000000000E+00 -0.31367064708E+03  0.31367064708E+03  0.00000000000E+00 0.  1.
         23    2    1    2    0    0  0.40620489397E+03 -0.60516934117E+02  0.48054887965E+03  0.63873654306E+03  0.91610209590E+02 0.  0.
        254    2    1    2    0    0 -0.40620489397E+03  0.60516934117E+02  0.68033607598E+03  0.11494897067E+04  0.83054481780E+03 0.  0.
        -24    2    4    4    0    0  0.21939585379E+03 -0.97376195979E+02  0.31276699143E+03  0.40226420137E+03  0.79853820000E+02 0.  0.
         24    2    4    4    0    0 -0.62560074776E+03  0.15789313010E+03  0.36756908455E+03  0.74722550536E+03  0.83260962128E+02 0.  0.
         11    1    3    3    0    0  0.24566270548E+03 -0.36497067715E+02  0.22015864018E+03  0.33189159023E+03  0.00000000000E+00 0.  1.
        -11    1    3    3    0    0  0.16054218849E+03 -0.24019866402E+02  0.26039023947E+03  0.30684495283E+03  0.00000000000E+00 0. -1.
          4    1    6    6  502    0 -0.21390348504E+03  0.94488444897E+02  0.14046737338E+03  0.27278902125E+03  0.00000000000E+00 0. -1.
          1    1    5    5  503    0  0.10131381528E+03 -0.78597711905E+02  0.12117154725E+03  0.17642174851E+03  0.00000000000E+00 0. -1.
         -2    1    5    5    0  503  0.11808203850E+03 -0.18778484073E+02  0.19159544418E+03  0.22584245285E+03  0.00000000000E+00 0.  1.
         -3    1    6    6    0  502 -0.41169726272E+03  0.63404685199E+02  0.22710171117E+03  0.47443648411E+03  0.00000000000E+00 0.  1.
<mgrwt>
<rscale>  0 0.13601835E+04</rscale>
<asrwt>0</asrwt>
<pdfrwt beam="1">  1        2 0.22685470E+00 0.13601835E+04</pdfrwt>
<pdfrwt beam="2">  1       -2 0.48257023E-01 0.13601835E+04</pdfrwt>
<totfact> 0.52085798E+01</totfact>
</mgrwt>
</event>
<event>
12    1  0.1755460E-007  0.1490021E+04  0.7818608E-02  0.8891116E-01
         -2   -1    0    0    0  501 -0.00000000000E+00  0.00000000000E+00  0.25615099549E+03  0.25615099549E+03  0.00000000000E+00 0. -1.
          2   -1    0    0  501    0  0.00000000000E+00 -0.00000000000E+00 -0.21668488768E+04  0.21668488768E+04  0.00000000000E+00 0.  1.
         23    2    1    2    0    0 -0.25185404220E+03  0.15256158210E+03 -0.20069409817E+02  0.30877371341E+03  0.90735494572E+02 0.  0.
        254    2    1    2    0    0  0.25185404220E+03 -0.15256158210E+03 -0.18906284715E+04  0.21142261589E+04  0.89931681779E+03 0.  0.
        -24    2    4    4    0    0 -0.13952179206E+03  0.24091905801E+03 -0.11467155588E+04  0.11826945822E+04  0.79382484780E+02 0.  0.
         24    2    4    4    0    0  0.39137583426E+03 -0.39348064011E+03 -0.74391291264E+03  0.93153157667E+03  0.79640435432E+02 0.  0.
         13    1    3    3    0    0 -0.11670818453E+02  0.35708409208E+02 -0.18019649878E+02  0.41665408593E+02  0.00000000000E+00 0.  1.
        -13    1    3    3    0    0 -0.24018322375E+03  0.11685317289E+03 -0.20497599382E+01  0.26710830481E+03  0.00000000000E+00 0. -1.
          2    1    6    6  502    0  0.20527599680E+03 -0.22592569679E+03 -0.34628305490E+03  0.46161955054E+03  0.00000000000E+00 0. -1.
          3    1    5    5  503    0 -0.96797308263E+02  0.19702548480E+03 -0.99801318728E+03  0.10218703844E+04  0.00000000000E+00 0. -1.
         -4    1    5    5    0  503 -0.42724483801E+02  0.43893573213E+02 -0.14870237156E+03  0.16082419778E+03  0.00000000000E+00 0.  1.
         -1    1    6    6    0  502  0.18609983747E+03 -0.16755494333E+03 -0.39762985773E+03  0.46991202613E+03  0.00000000000E+00 0.  1.
<mgrwt>
<rscale>  0 0.14900208E+04</rscale>
<asrwt>0</asrwt>
<pdfrwt beam="1">  1        2 0.33336137E+00 0.14900208E+04</pdfrwt>
<pdfrwt beam="2">  1       -2 0.39407844E-01 0.14900208E+04</pdfrwt>
<totfact> 0.31769453E+01</totfact>
</mgrwt>
</event>
<event>
12    1  0.1755460E-007  0.1809792E+04  0.7818608E-02  0.8701109E-01
         -2   -1    0    0    0  501 -0.00000000000E+00  0.00000000000E+00  0.56446828315E+03  0.56446828315E+03  0.00000000000E+00 0.  1.
          2   -1    0    0  501    0  0.00000000000E+00 -0.00000000000E+00 -0.14506337675E+04  0.14506337675E+04  0.00000000000E+00 0. -1.
         23    2    1    2    0    0  0.51349853364E+03 -0.40707544118E+03 -0.18736981772E+03  0.68726878800E+03  0.88542529359E+02 0.  0.
        254    2    1    2    0    0 -0.51349853364E+03  0.40707544118E+03 -0.69879566665E+03  0.13278332627E+04  0.91947519317E+03 0.  0.
        -24    2    4    4    0    0 -0.69761964713E+03  0.10347608491E+03 -0.25693249155E+03  0.75498149461E+03  0.81254413830E+02 0.  0.
         24    2    4    4    0    0  0.18412111350E+03  0.30359935627E+03 -0.44186317509E+03  0.57285176806E+03  0.82721998900E+02 0.  0.
         11    1    3    3    0    0  0.72189498055E+02 -0.30177092326E+02 -0.28638264594E+01  0.78295479006E+02  0.00000000000E+00 0. -1.
        -11    1    3    3    0    0  0.44130903558E+03 -0.37689834886E+03 -0.18450599126E+03  0.60897330899E+03  0.00000000000E+00 0.  1.
          2    1    6    6  502    0  0.78570190953E+02  0.20370817105E+03 -0.24517693927E+03  0.32830172922E+03  0.00000000000E+00 0. -1.
          3    1    5    5  503    0 -0.36917124613E+02 -0.85010292147E+01 -0.17790007625E+01  0.37925010628E+02  0.00000000000E+00 0. -1.
         -4    1    5    5    0  503 -0.66070252252E+03  0.11197711412E+03 -0.25515349079E+03  0.71705648398E+03  0.00000000000E+00 0.  1.
         -1    1    6    6    0  502  0.10555092254E+03  0.99891185226E+02 -0.19668623582E+03  0.24455003884E+03  0.00000000000E+00 0.  1.
<mgrwt>
<rscale>  0 0.18097920E+04</rscale>
<asrwt>0</asrwt>
<pdfrwt beam="1">  1        2 0.22317442E+00 0.18097920E+04</pdfrwt>
<pdfrwt beam="2">  1       -2 0.86841275E-01 0.18097920E+04</pdfrwt>
<totfact> 0.14653930E+01</totfact>
</mgrwt>
</event>
<event>
12    1  0.1755460E-007  0.2954467E+04  0.7818608E-02  0.8256854E-01
         -1   -1    0    0    0  501 -0.00000000000E+00  0.00000000000E+00  0.85403427722E+03  0.85403427722E+03  0.00000000000E+00 0.  1.
          1   -1    0    0  501    0  0.00000000000E+00 -0.00000000000E+00 -0.25551882826E+04  0.25551882826E+04  0.00000000000E+00 0. -1.
         23    2    1    2    0    0  0.86113626868E+03  0.51507570832E+02 -0.19505361817E+04  0.21345746835E+04  0.87229469408E+02 0.  0.
        254    2    1    2    0    0 -0.86113626868E+03 -0.51507570832E+02  0.24938217632E+03  0.12746478763E+04  0.90461430209E+03 0.  0.
        -24    2    4    4    0    0 -0.60980030630E+03  0.33826501798E+03  0.36304125244E+03  0.79034152540E+03  0.81000863239E+02 0.  0.
         24    2    4    4    0    0 -0.25133596239E+03 -0.38977258882E+03 -0.11365907612E+03  0.48430635088E+03  0.80881511730E+02 0.  0.
         11    1    3    3    0    0  0.59047272359E+03  0.42261165054E+02 -0.14329874503E+04  0.15504506042E+04  0.00000000000E+00 0. -1.
        -11    1    3    3    0    0  0.27066354509E+03  0.92464057779E+01 -0.51754873137E+03  0.58412407929E+03  0.00000000000E+00 0.  1.
          2    1    6    6  502    0 -0.13894072383E+03 -0.27003008965E+03 -0.99074860625E+02  0.31943168606E+03  0.00000000000E+00 0. -1.
          3    1    5    5  503    0 -0.49861749425E+03  0.23894015270E+03  0.28311292562E+03  0.62118011140E+03  0.00000000000E+00 0. -1.
         -4    1    5    5    0  503 -0.11118281204E+03  0.99324865280E+02  0.79928326820E+02  0.16916141399E+03  0.00000000000E+00 0.  1.
         -1    1    6    6    0  502 -0.11239523856E+03 -0.11974249917E+03 -0.14584215492E+02  0.16487466482E+03  0.00000000000E+00 0.  1.
<mgrwt>
<rscale>  0 0.29544667E+04</rscale>
<asrwt>0</asrwt>
<pdfrwt beam="1">  1        1 0.39310588E+00 0.29544667E+04</pdfrwt>
<pdfrwt beam="2">  1       -1 0.13138989E+00 0.29544667E+04</pdfrwt>
<totfact> 0.52279465E-01</totfact>
</mgrwt>
</event>
<event>
12    1  0.1755460E-007  0.1649003E+04  0.7818608E-02  0.8790997E-01
          2   -1    0    0  501    0  0.00000000000E+00  0.00000000000E+00  0.54651859122E+03  0.54651859122E+03  0.00000000000E+00 0. -1.
         -2   -1    0    0    0  501 -0.00000000000E+00 -0.00000000000E+00 -0.12438777547E+04  0.12438777547E+04  0.00000000000E+00 0.  1.
         23    2    1    2    0    0  0.15604005523E+02  0.81935908134E+02 -0.85461524480E+03  0.86357118024E+03  0.91820415222E+02 0.  0.
        254    2    1    2    0    0 -0.15604005523E+02 -0.81935908134E+02  0.15725608134E+03  0.92682516567E+03  0.90957046708E+03 0.  0.
        -24    2    4    4    0    0 -0.36876987636E+03 -0.96568710273E+02  0.34397635246E+03  0.51932321169E+03  0.77846834431E+02 0.  0.
         24    2    4    4    0    0  0.35316587084E+03  0.14632802139E+02 -0.18672027113E+03  0.40750195399E+03  0.79076745190E+02 0.  0.
         13    1    3    3    0    0 -0.23982524865E+02  0.44437081666E+02 -0.64521457967E+03  0.64718750725E+03  0.00000000000E+00 0.  1.
        -13    1    3    3    0    0  0.39586530388E+02  0.37498826468E+02 -0.20940066513E+03  0.21638367298E+03  0.00000000000E+00 0. -1.
          4    1    6    6  502    0  0.12279116736E+03 -0.12506975997E+01 -0.24294216456E+02  0.12517764968E+03  0.00000000000E+00 0. -1.
          3    1    5    5  503    0 -0.95159134925E+02 -0.14113522078E+02  0.13286397097E+03  0.16403440873E+03  0.00000000000E+00 0. -1.
         -4    1    5    5    0  503 -0.27361074144E+03 -0.82455188194E+02  0.21111238149E+03  0.35528880296E+03  0.00000000000E+00 0.  1.
         -3    1    6    6    0  502  0.23037470348E+03  0.15883499738E+02 -0.16242605467E+03  0.28232430431E+03  0.00000000000E+00 0.  1.
<mgrwt>
<rscale>  0 0.16490025E+04</rscale>
<asrwt>0</asrwt>
<pdfrwt beam="1">  1        2 0.84079784E-01 0.16490025E+04</pdfrwt>
<pdfrwt beam="2">  1       -2 0.19136581E+00 0.16490025E+04</pdfrwt>
<totfact> 0.80342308E+00</totfact>
</mgrwt>
</event>
<event>
12    1  0.1755460E-007  0.2893526E+04  0.7818608E-02  0.8274806E-01
          2   -1    0    0  501    0  0.00000000000E+00  0.00000000000E+00  0.33630195842E+04  0.33630195842E+04  0.00000000000E+00 0. -1.
         -2   -1    0    0    0  501 -0.00000000000E+00 -0.00000000000E+00 -0.62239419513E+03  0.62239419513E+03  0.00000000000E+00 0.  1.
         23    2    1    2    0    0  0.17214325686E+03  0.13512176389E+03  0.30442791056E+04  0.30535775156E+04  0.93857224192E+02 0.  0.
        254    2    1    2    0    0 -0.17214325686E+03 -0.13512176389E+03 -0.30365371655E+03  0.93183626378E+03  0.85335927426E+03 0.  0.
        -24    2    4    4    0    0 -0.49402297014E+03 -0.43627722527E+02 -0.30622131930E+03  0.58795817417E+03  0.77209099081E+02 0.  0.
         24    2    4    4    0    0  0.32187971328E+03 -0.91494041364E+02  0.25676027432E+01  0.34387808961E+03  0.79169681725E+02 0.  0.
         11    1    3    3    0    0  0.96795982885E+02  0.10228074096E+03  0.23917686135E+04  0.23959106647E+04  0.00000000000E+00 0. -1.
        -11    1    3    3    0    0  0.75347273977E+02  0.32841022933E+02  0.65251049210E+03  0.65766685091E+03  0.00000000000E+00 0.  1.
          4    1    6    6  502    0  0.22954496479E+03 -0.28168556694E+02 -0.80914991044E+01  0.23140836373E+03  0.00000000000E+00 0. -1.
          1    1    5    5  503    0 -0.49648614002E+03 -0.42029889401E+02 -0.30653859480E+03  0.58500505035E+03  0.00000000000E+00 0. -1.
         -2    1    5    5    0  503  0.24631698789E+01 -0.15978331269E+01  0.31727549908E+00  0.29531238200E+01  0.00000000000E+00 0.  1.
         -3    1    6    6    0  502  0.92334748488E+02 -0.63325484670E+02  0.10659101848E+02  0.11246972588E+03  0.00000000000E+00 0.  1.
<mgrwt>
<rscale>  0 0.28935265E+04</rscale>
<asrwt>0</asrwt>
<pdfrwt beam="1">  1        2 0.51738762E+00 0.28935265E+04</pdfrwt>
<pdfrwt beam="2">  1       -2 0.95752955E-01 0.28935265E+04</pdfrwt>
<totfact> 0.79776595E-01</totfact>
</mgrwt>
</event>
<event>
12    1  0.1755460E-007  0.1739009E+04  0.7818608E-02  0.8739424E-01
          1   -1    0    0  501    0  0.00000000000E+00  0.00000000000E+00  0.13966508562E+04  0.13966508562E+04  0.00000000000E+00 0. -1.
         -1   -1    0    0    0  501 -0.00000000000E+00 -0.00000000000E+00 -0.54132218196E+03  0.54132218196E+03  0.00000000000E+00 0.  1.
         23    2    1    2    0    0  0.50455770766E+03  0.11622423550E+03 -0.87980220221E+02  0.53315712052E+03  0.91811996680E+02 0.  0.
        254    2    1    2    0    0 -0.50455770766E+03 -0.11622423550E+03  0.94330889441E+03  0.14048159176E+04  0.90309996056E+03 0.  0.
        -24    2    4    4    0    0 -0.60147260553E+02  0.97932806513E+02  0.89135883740E+03  0.90234623381E+03  0.80620227799E+02 0.  0.
         24    2    4    4    0    0 -0.44441044711E+03 -0.21415704202E+03  0.51950057017E+02  0.50246968378E+03  0.80081774130E+02 0.  0.
         11    1    3    3    0    0  0.34601413172E+03  0.40158845671E+02 -0.78395632079E+02  0.35704955869E+03  0.00000000000E+00 0.  1.
        -11    1    3    3    0    0  0.15854357594E+03  0.76065389833E+02 -0.95845881423E+01  0.17610756183E+03  0.00000000000E+00 0. -1.
          4    1    6    6  502    0 -0.33648075674E+03 -0.17478264269E+03  0.71726361171E+02  0.38589239786E+03  0.00000000000E+00 0. -1.
          3    1    5    5  503    0 -0.20529298838E+02 -0.73512568189E+01  0.27059543582E+03  0.27147261920E+03  0.00000000000E+00 0. -1.
         -4    1    5    5    0  503 -0.39617961714E+02  0.10528406333E+03  0.62076340158E+03  0.63087361462E+03  0.00000000000E+00 0.  1.
         -3    1    6    6    0  502 -0.10792969037E+03 -0.39374399329E+02 -0.19776304154E+02  0.11657728591E+03  0.00000000000E+00 0.  1.
<mgrwt>
<rscale>  0 0.17390090E+04</rscale>
<asrwt>0</asrwt>
<pdfrwt beam="1">  1        1 0.21486936E+00 0.17390090E+04</pdfrwt>
<pdfrwt beam="2">  1       -1 0.83280336E-01 0.17390090E+04</pdfrwt>
<totfact> 0.10484928E+01</totfact>
</mgrwt>
</event>
<event>
12    1  0.1755460E-007  0.1748385E+04  0.7818608E-02  0.8734240E-01
         -2   -1    0    0    0  501 -0.00000000000E+00  0.00000000000E+00  0.74172817378E+03  0.74172817378E+03  0.00000000000E+00 0.  1.
          2   -1    0    0  501    0  0.00000000000E+00 -0.00000000000E+00 -0.10303128951E+04  0.10303128951E+04  0.00000000000E+00 0. -1.
         23    2    1    2    0    0  0.13496854455E+03  0.46251253438E+03  0.31551780760E+03  0.58332331550E+03  0.92629644411E+02 0.  0.
        254    2    1    2    0    0 -0.13496854455E+03 -0.46251253438E+03 -0.60410252889E+03  0.11887177533E+04  0.90331372138E+03 0.  0.
        -24    2    4    4    0    0 -0.45454801863E+03 -0.18481668625E+03 -0.56861884829E+03  0.75532717492E+03  0.80128882302E+02 0.  0.
         24    2    4    4    0    0  0.31957947408E+03 -0.27769584812E+03 -0.35483680602E+02  0.43339057843E+03  0.85570307698E+02 0.  0.
         13    1    3    3    0    0  0.10247298590E+03  0.36232992394E+03  0.28914380077E+03  0.47475027557E+03  0.00000000000E+00 0.  1.
        -13    1    3    3    0    0  0.32495558647E+02  0.10018261044E+03  0.26374006827E+02  0.10857303994E+03  0.00000000000E+00 0. -1.
          4    1    6    6  502    0  0.25817112037E+03 -0.26345680056E+03 -0.32176371928E+02  0.37026629885E+03  0.00000000000E+00 0. -1.
          1    1    5    5  503    0 -0.30250127915E+03 -0.10908017041E+03 -0.42460097509E+03  0.53262697595E+03  0.00000000000E+00 0. -1.
         -2    1    5    5    0  503 -0.15204673948E+03 -0.75736515844E+02 -0.14401787321E+03  0.22270019897E+03  0.00000000000E+00 0.  1.
         -3    1    6    6    0  502  0.61408353710E+02 -0.14239047562E+02 -0.33073086737E+01  0.63124279572E+02  0.00000000000E+00 0.  1.
<mgrwt>
<rscale>  0 0.17483845E+04</rscale>
<asrwt>0</asrwt>
<pdfrwt beam="1">  1        2 0.15850968E+00 0.17483845E+04</pdfrwt>
<pdfrwt beam="2">  1       -2 0.11411203E+00 0.17483845E+04</pdfrwt>
<totfact> 0.13723645E+01</totfact>
</mgrwt>
</event>
<event>
12    1  0.2134455E-007  0.1983195E+04  0.7818608E-02  0.8614518E-01
          2   -1    0    0  501    0  0.00000000000E+00  0.00000000000E+00  0.21441410967E+04  0.21441410967E+04  0.00000000000E+00 0. -1.
         -2   -1    0    0    0  501 -0.00000000000E+00 -0.00000000000E+00 -0.45858261084E+03  0.45858261084E+03  0.00000000000E+00 0.  1.
         23    2    1    2    0    0  0.64341745839E+03  0.35314906390E+03  0.32091083358E+03  0.80737472756E+03  0.10084592458E+03 0.  0.
        254    2    1    2    0    0 -0.64341745839E+03 -0.35314906390E+03  0.13646476523E+04  0.17953489800E+04  0.90681555897E+03 0.  0.
        -24    2    4    4    0    0 -0.79964955889E+02  0.22877918957E+03  0.69623839185E+03  0.74158214003E+03  0.80385697559E+02 0.  0.
         24    2    4    4    0    0 -0.56345250250E+03 -0.58192825347E+03  0.66840926046E+03  0.10537668400E+04  0.86800914841E+02 0.  0.
         13    1    3    3    0    0  0.74668676529E+01  0.30289761526E+01  0.19926078624E+02  0.21493659959E+02  0.00000000000E+00 0.  1.
        -13    1    3    3    0    0  0.63595059074E+03  0.35012008775E+03  0.30098475495E+03  0.78588106761E+03  0.00000000000E+00 0. -1.
          4    1    6    6  502    0 -0.38336528901E+02 -0.13191425021E+02  0.31625179102E+02  0.51418431476E+02  0.00000000000E+00 0. -1.
          1    1    5    5  503    0  0.23144440375E+01  0.15838985042E+02  0.11275791054E+02  0.19579927534E+02  0.00000000000E+00 0. -1.
         -2    1    5    5    0  503 -0.82279399926E+02  0.21294020453E+03  0.68496260079E+03  0.72200221249E+03  0.00000000000E+00 0.  1.
         -3    1    6    6    0  502 -0.52511597360E+03 -0.56873682845E+03  0.63678408136E+03  0.10023484085E+04  0.00000000000E+00 0.  1.
<mgrwt>
<rscale>  0 0.19831952E+04</rscale>
<asrwt>0</asrwt>
<pdfrwt beam="1">  1        2 0.32986786E+00 0.19831952E+04</pdfrwt>
<pdfrwt beam="2">  1       -2 0.70551172E-01 0.19831952E+04</pdfrwt>
<totfact> 0.94360619E+00</totfact>
</mgrwt>
</event>
<event>
12    1  0.1976239E-007  0.1810786E+04  0.7818608E-02  0.8700584E-01
         -2   -1    0    0    0  501 -0.00000000000E+00  0.00000000000E+00  0.32766139080E+03  0.32766139080E+03  0.00000000000E+00 0.  1.
          2   -1    0    0  501    0  0.00000000000E+00 -0.00000000000E+00 -0.25017801468E+04  0.25017801468E+04  0.00000000000E+00 0. -1.
         23    2    1    2    0    0 -0.32340114390E+03  0.59454153260E+03 -0.74439956399E+03  0.10101682850E+04  0.90781712260E+02 0.  0.
        254    2    1    2    0    0  0.32340114390E+03 -0.59454153260E+03 -0.14297191920E+04  0.18192732526E+04  0.89866026159E+03 0.  0.
        -24    2    4    4    0    0 -0.69880900878E+02 -0.53109057899E+03 -0.30268941546E+03  0.62102871397E+03  0.84351869861E+02 0.  0.
         24    2    4    4    0    0  0.39328204478E+03 -0.63450953614E+02 -0.11270297765E+04  0.11982445386E+04  0.83048581380E+02 0.  0.
         13    1    3    3    0    0 -0.39129796730E+02  0.72588246128E+02 -0.51232277142E+02  0.97082133728E+02  0.00000000000E+00 0.  1.
        -13    1    3    3    0    0 -0.28427134717E+03  0.52195328647E+03 -0.69316728685E+03  0.91308615127E+03  0.00000000000E+00 0. -1.
          2    1    6    6  502    0  0.12933656373E+03 -0.52980217739E+02 -0.32326380767E+03  0.35218509273E+03  0.00000000000E+00 0. -1.
          3    1    5    5  503    0 -0.15222831331E+02 -0.72603238375E+02 -0.11299374898E+02  0.75037595173E+02  0.00000000000E+00 0. -1.
         -4    1    5    5    0  503 -0.54658069547E+02 -0.45848734061E+03 -0.29139004056E+03  0.54599111880E+03  0.00000000000E+00 0.  1.
         -1    1    6    6    0  502  0.26394548105E+03 -0.10470735874E+02 -0.80376596887E+03  0.84605944589E+03  0.00000000000E+00 0.  1.
<mgrwt>
<rscale>  0 0.18107863E+04</rscale>
<asrwt>0</asrwt>
<pdfrwt beam="1">  1        2 0.38488925E+00 0.18107863E+04</pdfrwt>
<pdfrwt beam="2">  1       -2 0.50409445E-01 0.18107863E+04</pdfrwt>
<totfact> 0.12205333E+01</totfact>
</mgrwt>
</event>
<event>
12    1  0.1755460E-007  0.2261152E+04  0.7818608E-02  0.8493398E-01
          1   -1    0    0  501    0  0.00000000000E+00  0.00000000000E+00  0.21231304834E+04  0.21231304834E+04  0.00000000000E+00 0. -1.
         -1   -1    0    0    0  501 -0.00000000000E+00 -0.00000000000E+00 -0.60203670528E+03  0.60203670528E+03  0.00000000000E+00 0.  1.
         23    2    1    2    0    0  0.25923041729E+02 -0.99024740565E+03  0.46984111992E+03  0.11014854804E+04  0.10610210699E+03 0.  0.
        254    2    1    2    0    0 -0.25923041729E+02  0.99024740565E+03  0.10512526582E+04  0.16236817082E+04  0.74158493096E+03 0.  0.
        -24    2    4    4    0    0 -0.26062444559E+03  0.63067736193E+03  0.95523379459E+03  0.11766532460E+04  0.79763540898E+02 0.  0.
         24    2    4    4    0    0  0.23470140386E+03  0.35957004372E+03  0.96018863573E+02  0.44702846224E+03  0.78990243559E+02 0.  0.
         11    1    3    3    0    0  0.45745677278E+02 -0.85132080705E+03  0.37064710348E+03  0.92963383051E+03  0.00000000000E+00 0. -1.
        -11    1    3    3    0    0 -0.19822635549E+02 -0.13892659860E+03  0.99194016435E+02  0.17185164990E+03  0.00000000000E+00 0.  1.
          4    1    6    6  502    0  0.21198832860E+03  0.35450347863E+03  0.94394882109E+02  0.42370055652E+03  0.00000000000E+00 0. -1.
          1    1    5    5  503    0 -0.12409063004E+03  0.35698474046E+03  0.47058193853E+03  0.60355940077E+03  0.00000000000E+00 0. -1.
         -2    1    5    5    0  503 -0.13653381555E+03  0.27369262147E+03  0.48465185606E+03  0.57309384521E+03  0.00000000000E+00 0.  1.
         -3    1    6    6    0  502  0.22713075260E+02  0.50665650833E+01  0.16239814638E+01  0.23327905720E+02  0.00000000000E+00 0.  1.
<mgrwt>
<rscale>  0 0.22611523E+04</rscale>
<asrwt>0</asrwt>
<pdfrwt beam="1">  1        1 0.32663545E+00 0.22611523E+04</pdfrwt>
<pdfrwt beam="2">  1       -1 0.92621033E-01 0.22611523E+04</pdfrwt>
<totfact> 0.25257225E+00</totfact>
</mgrwt>
</event>
<event>
12    1  0.1755460E-007  0.1997718E+04  0.7818608E-02  0.8607688E-01
          1   -1    0    0  501    0  0.00000000000E+00  0.00000000000E+00  0.22294117332E+04  0.22294117332E+04  0.00000000000E+00 0. -1.
         -1   -1    0    0    0  501 -0.00000000000E+00 -0.00000000000E+00 -0.44752589834E+03  0.44752589834E+03  0.00000000000E+00 0.  1.
         23    2    1    2    0    0  0.39251313962E+03 -0.52599257626E+03  0.13183817062E+04  0.14755063654E+04  0.90851286328E+02 0.  0.
        254    2    1    2    0    0 -0.39251313962E+03  0.52599257626E+03  0.46350412868E+03  0.12014312661E+04  0.89323359475E+03 0.  0.
        -24    2    4    4    0    0  0.21127507560E+02  0.63832941409E+03  0.14124640111E+03  0.65913159794E+03  0.81197937846E+02 0.  0.
         24    2    4    4    0    0 -0.41364064718E+03 -0.11233683783E+03  0.32225772758E+03  0.54229966816E+03  0.80751080279E+02 0.  0.
         11    1    3    3    0    0  0.28820483146E+03 -0.31479471891E+03  0.86722063583E+03  0.96655541545E+03  0.00000000000E+00 0. -1.
        -11    1    3    3    0    0  0.10430830816E+03 -0.21119785735E+03  0.45116107035E+03  0.50895095000E+03  0.00000000000E+00 0.  1.
          4    1    6    6  502    0 -0.21438225342E+03 -0.97793396700E+02  0.19009986418E+03  0.30275610214E+03  0.00000000000E+00 0. -1.
          1    1    5    5  503    0 -0.20071614378E+02  0.33929662950E+03  0.48405713301E+02  0.34331936382E+03  0.00000000000E+00 0. -1.
         -4    1    5    5    0  503  0.41199121938E+02  0.29903278459E+03  0.92840687804E+02  0.31581223412E+03  0.00000000000E+00 0.  1.
         -3    1    6    6    0  502 -0.19925839376E+03 -0.14543441127E+02  0.13215786340E+03  0.23954356602E+03  0.00000000000E+00 0.  1.
<mgrwt>
<rscale>  0 0.19977182E+04</rscale>
<asrwt>0</asrwt>
<pdfrwt beam="1">  1        1 0.34298642E+00 0.19977182E+04</pdfrwt>
<pdfrwt beam="2">  1       -1 0.68850139E-01 0.19977182E+04</pdfrwt>
<totfact> 0.41201420E+00</totfact>
</mgrwt>
</event>
<event>
12    1  0.1755460E-007  0.9088445E+03  0.7818608E-02  0.9414592E-01
         -2   -1    0    0    0  501 -0.00000000000E+00  0.00000000000E+00  0.31273988877E+03  0.31273988877E+03  0.00000000000E+00 0.  1.
          2   -1    0    0  501    0  0.00000000000E+00 -0.00000000000E+00 -0.66029177369E+03  0.66029177369E+03  0.00000000000E+00 0. -1.
         23    2    1    2    0    0 -0.32003595915E+02  0.37963531349E+02 -0.57749646670E+01  0.10168675019E+03  0.88551595600E+02 0.  0.
        254    2    1    2    0    0  0.32003595915E+02 -0.37963531349E+02 -0.34177692025E+03  0.87134491228E+03  0.79997814537E+03 0.  0.
        -24    2    4    4    0    0 -0.19845204858E+02  0.35538305373E+03 -0.40858291661E+02  0.36784167874E+03  0.83349586602E+02 0.  0.
         24    2    4    4    0    0  0.51848800773E+02 -0.39334658508E+03 -0.30091862859E+03  0.50350323354E+03  0.74522822085E+02 0.  0.
         11    1    3    3    0    0 -0.14816393842E+02 -0.34627910537E+01 -0.41593321735E+02  0.44289060289E+02  0.00000000000E+00 0. -1.
        -11    1    3    3    0    0 -0.17187202073E+02  0.41426322403E+02  0.35818357067E+02  0.57397689901E+02  0.00000000000E+00 0.  1.
          4    1    6    6  502    0  0.39005787758E+02 -0.78190620482E+02 -0.79441328099E+02  0.11809381533E+03  0.00000000000E+00 0. -1.
          3    1    5    5  503    0  0.63306337148E+01  0.74504183986E+02  0.23726824129E+02  0.78446877171E+02  0.00000000000E+00 0. -1.
         -4    1    5    5    0  503 -0.26175838573E+02  0.28087886974E+03 -0.64585115790E+02  0.28939480157E+03  0.00000000000E+00 0.  1.
         -3    1    6    6    0  502  0.12843013014E+02 -0.31515596460E+03 -0.22147730049E+03  0.38540941820E+03  0.00000000000E+00 0.  1.
<mgrwt>
<rscale>  0 0.90884449E+03</rscale>
<asrwt>0</asrwt>
<pdfrwt beam="1">  1        2 0.10158335E+00 0.90884449E+03</pdfrwt>
<pdfrwt beam="2">  1       -2 0.48113829E-01 0.90884449E+03</pdfrwt>
<totfact> 0.18094596E+02</totfact>
</mgrwt>
</event>
<event>
12    1  0.1755460E-007  0.3134141E+04  0.7818608E-02  0.8206430E-01
          2   -1    0    0  501    0  0.00000000000E+00  0.00000000000E+00  0.19586907312E+04  0.19586907312E+04  0.00000000000E+00 0. -1.
         -2   -1    0    0    0  501 -0.00000000000E+00 -0.00000000000E+00 -0.12537508012E+04  0.12537508012E+04  0.00000000000E+00 0.  1.
         23    2    1    2    0    0  0.10720181808E+03 -0.16725941241E+03  0.17892842387E+04  0.18026155324E+04  0.91742738188E+02 0.  0.
        254    2    1    2    0    0 -0.10720181808E+03  0.16725941241E+03 -0.10843443087E+04  0.14098260000E+04  0.87882810020E+03 0.  0.
        -24    2    4    4    0    0 -0.23317898342E+03  0.18117443801E+03  0.91065129940E+01  0.30606237832E+03  0.79966465115E+02 0.  0.
         24    2    4    4    0    0  0.12597716534E+03 -0.13915025605E+02 -0.10934508217E+04  0.11037636217E+04  0.81213047151E+02 0.  0.
         13    1    3    3    0    0  0.10422538680E+02 -0.42683252243E+01  0.43324782374E+03  0.43339419088E+03  0.00000000000E+00 0.  1.
        -13    1    3    3    0    0  0.96779279402E+02 -0.16299108718E+03  0.13560364150E+04  0.13692213415E+04  0.00000000000E+00 0. -1.
          4    1    6    6  502    0  0.13201882442E+03 -0.95455535022E+01 -0.10822112411E+04  0.10902757715E+04  0.00000000000E+00 0. -1.
          1    1    5    5  503    0 -0.20283548670E+03  0.15957497805E+03 -0.19908139014E+02  0.25884887924E+03  0.00000000000E+00 0. -1.
         -2    1    5    5    0  503 -0.30343496721E+02  0.21599459965E+02  0.29014652008E+02  0.47213499078E+02  0.00000000000E+00 0.  1.
         -3    1    6    6    0  502 -0.60416590797E+01 -0.43694721031E+01 -0.11239580575E+02  0.13487850177E+02  0.00000000000E+00 0.  1.
<mgrwt>
<rscale>  0 0.31341411E+04</rscale>
<asrwt>0</asrwt>
<pdfrwt beam="1">  1        2 0.30133704E+00 0.31341411E+04</pdfrwt>
<pdfrwt beam="2">  1       -2 0.19288474E+00 0.31341411E+04</pdfrwt>
<totfact> 0.88426317E-01</totfact>
</mgrwt>
</event>
<event>
12    1  0.1755460E-007  0.3988160E+04  0.7818608E-02  0.8006939E-01
          2   -1    0    0  501    0  0.00000000000E+00  0.00000000000E+00  0.46791674338E+04  0.46791674338E+04  0.00000000000E+00 0. -1.
         -2   -1    0    0    0  501 -0.00000000000E+00 -0.00000000000E+00 -0.84979977036E+03  0.84979977036E+03  0.00000000000E+00 0.  1.
         23    2    1    2    0    0 -0.51661888503E+03 -0.17225108681E+04  0.10030104457E+04  0.20611665370E+04  0.91862810593E+02 0.  0.
        254    2    1    2    0    0  0.51661888503E+03  0.17225108681E+04  0.28263572177E+04  0.34678006671E+04  0.89633006273E+03 0.  0.
        -24    2    4    4    0    0 -0.10548929793E+03  0.11512222657E+04  0.15503261067E+04  0.19354600232E+04  0.77805959165E+02 0.  0.
         24    2    4    4    0    0  0.62210818296E+03  0.57128860242E+03  0.12760311111E+04  0.15323406439E+04  0.80144831686E+02 0.  0.
         11    1    3    3    0    0 -0.32625736306E+03 -0.11261095758E+04  0.70197938387E+03  0.13665071163E+04  0.00000000000E+00 0. -1.
        -11    1    3    3    0    0 -0.19036152197E+03 -0.59640129238E+03  0.30103106180E+03  0.69465942070E+03  0.00000000000E+00 0.  1.
          2    1    6    6  502    0  0.62511129329E+02  0.79826432631E+02  0.11907191813E+03  0.15639060817E+03  0.00000000000E+00 0. -1.
          1    1    5    5  503    0 -0.62935060732E+02  0.39929959032E+03  0.58580906162E+03  0.71173958817E+03  0.00000000000E+00 0. -1.
         -2    1    5    5    0  503 -0.42554237197E+02  0.75192267541E+03  0.96451704504E+03  0.12237204350E+04  0.00000000000E+00 0.  1.
         -1    1    6    6    0  502  0.55959705363E+03  0.49146216979E+03  0.11569591930E+04  0.13759500358E+04  0.00000000000E+00 0.  1.
<mgrwt>
<rscale>  0 0.39881602E+04</rscale>
<asrwt>0</asrwt>
<pdfrwt beam="1">  1        2 0.71987190E+00 0.39881602E+04</pdfrwt>
<pdfrwt beam="2">  1       -2 0.13073843E+00 0.39881602E+04</pdfrwt>
<totfact> 0.27072671E-02</totfact>
</mgrwt>
</event>
<event>
12    1  0.1755460E-007  0.1492358E+04  0.7818608E-02  0.8889551E-01
          2   -1    0    0  501    0  0.00000000000E+00  0.00000000000E+00  0.32069092453E+04  0.32069092453E+04  0.00000000000E+00 0. -1.
         -2   -1    0    0    0  501 -0.00000000000E+00 -0.00000000000E+00 -0.17361991519E+03  0.17361991519E+03  0.00000000000E+00 0.  1.
         23    2    1    2    0    0  0.41597565654E+03  0.18603727493E+02  0.49579009370E+03  0.65394094478E+03  0.91918968290E+02 0.  0.
        254    2    1    2    0    0 -0.41597565654E+03 -0.18603727493E+02  0.25374992364E+04  0.27265882157E+04  0.90664164796E+03 0.  0.
        -24    2    4    4    0    0  0.84128429171E+02  0.92545501880E+02  0.11542640215E+02  0.14798152128E+03  0.78249828017E+02 0.  0.
         24    2    4    4    0    0 -0.50010408571E+03 -0.11114922937E+03  0.25259565962E+04  0.25786066945E+04  0.79356858588E+02 0.  0.
         11    1    3    3    0    0  0.37521930700E+03 -0.11092530721E+02  0.44781673791E+03  0.58433928785E+03  0.00000000000E+00 0.  1.
        -11    1    3    3    0    0  0.40756349547E+02  0.29696258214E+02  0.47973355794E+02  0.69601656923E+02  0.00000000000E+00 0. -1.
          2    1    6    6  502    0 -0.18095997187E+03 -0.75596933998E+02  0.87467295529E+03  0.89638952837E+03  0.00000000000E+00 0. -1.
          1    1    5    5  503    0 -0.11084502868E+02  0.11820400211E+02  0.16404885422E+02  0.23058801589E+02  0.00000000000E+00 0. -1.
         -2    1    5    5    0  503  0.95212932039E+02  0.80725101669E+02 -0.48622452074E+01  0.12492271969E+03  0.00000000000E+00 0.  1.
         -1    1    6    6    0  502 -0.31914411384E+03 -0.35552295375E+02  0.16512836409E+04  0.16822171661E+04  0.00000000000E+00 0.  1.
<mgrwt>
<rscale>  0 0.14923583E+04</rscale>
<asrwt>0</asrwt>
<pdfrwt beam="1">  1        2 0.49337061E+00 0.14923583E+04</pdfrwt>
<pdfrwt beam="2">  1       -2 0.26710759E-01 0.14923583E+04</pdfrwt>
<totfact> 0.15933077E+01</totfact>
</mgrwt>
</event>
<event>
12    1  0.1755460E-007  0.1294697E+04  0.7818608E-02  0.9033781E-01
          1   -1    0    0  501    0  0.00000000000E+00  0.00000000000E+00  0.60880678188E+03  0.60880678188E+03  0.00000000000E+00 0. -1.
         -1   -1    0    0    0  501 -0.00000000000E+00 -0.00000000000E+00 -0.68833048139E+03  0.68833048139E+03  0.00000000000E+00 0.  1.
         23    2    1    2    0    0  0.22885057083E+03  0.17739401673E+03 -0.16224821376E+03  0.34224466174E+03  0.83460797280E+02 0.  0.
        254    2    1    2    0    0 -0.22885057083E+03 -0.17739401673E+03  0.82724514251E+02  0.95489260152E+03  0.90616516941E+03 0.  0.
        -24    2    4    4    0    0 -0.21007098102E+03  0.35070472952E+03  0.31303362235E+02  0.41771982165E+03  0.79914482669E+02 0.  0.
         24    2    4    4    0    0 -0.18779589814E+02 -0.52809874625E+03  0.51421152017E+02  0.53717277987E+03  0.81667017701E+02 0.  0.
         11    1    3    3    0    0  0.17973699059E+03  0.15078516854E+03 -0.16418364555E+03  0.28635261882E+03  0.00000000000E+00 0.  1.
        -11    1    3    3    0    0  0.49113580239E+02  0.26608848195E+02  0.19354317928E+01  0.55892042925E+02  0.00000000000E+00 0. -1.
          2    1    6    6  502    0  0.31475593493E+02 -0.24306437847E+03  0.30549192514E+02  0.24699040109E+03  0.00000000000E+00 0. -1.
          3    1    5    5  503    0 -0.20391926210E+03  0.34102008808E+03  0.44970716526E+02  0.39987514461E+03  0.00000000000E+00 0. -1.
         -4    1    5    5    0  503 -0.61517189149E+01  0.96846414382E+01 -0.13667354292E+02  0.17844677042E+02  0.00000000000E+00 0.  1.
         -1    1    6    6    0  502 -0.50255183307E+02 -0.28503436778E+03  0.20871959503E+02  0.29018237879E+03  0.00000000000E+00 0.  1.
<mgrwt>
<rscale>  0 0.12946973E+04</rscale>
<asrwt>0</asrwt>
<pdfrwt beam="1">  1        1 0.93662582E-01 0.12946973E+04</pdfrwt>
<pdfrwt beam="2">  1       -1 0.10589700E+00 0.12946973E+04</pdfrwt>
<totfact> 0.27521494E+01</totfact>
</mgrwt>
</event>
<event>
12    1  0.1755460E-007  0.1787852E+04  0.7818608E-02  0.8712786E-01
          2   -1    0    0  501    0  0.00000000000E+00  0.00000000000E+00  0.18021563816E+04  0.18021563816E+04  0.00000000000E+00 0. -1.
         -2   -1    0    0    0  501 -0.00000000000E+00 -0.00000000000E+00 -0.44341528086E+03  0.44341528086E+03  0.00000000000E+00 0.  1.
         23    2    1    2    0    0  0.22666355672E+03 -0.47778742318E+03  0.88582063474E+01  0.53658771677E+03  0.90502598153E+02 0.  0.
        254    2    1    2    0    0 -0.22666355672E+03  0.47778742318E+03  0.13498828944E+04  0.17089839457E+04  0.90486745346E+03 0.  0.
        -24    2    4    4    0    0 -0.42236557400E+03  0.58562117693E+03  0.12613305972E+04  0.14555714297E+04  0.79927909171E+02 0.  0.
         24    2    4    4    0    0  0.19570201728E+03 -0.10783375375E+03  0.88552297173E+02  0.25341251593E+03  0.80305640415E+02 0.  0.
         11    1    3    3    0    0  0.17392690963E+03 -0.26596134702E+03  0.15919297152E+02  0.31818144513E+03  0.00000000000E+00 0. -1.
        -11    1    3    3    0    0  0.52736647087E+02 -0.21182607616E+03 -0.70610908043E+01  0.21840627164E+03  0.00000000000E+00 0.  1.
          2    1    6    6  502    0  0.16016546315E+03 -0.11786692324E+03  0.63355424565E+02  0.20870912056E+03  0.00000000000E+00 0. -1.
          1    1    5    5  503    0 -0.37131612622E+03  0.48135704626E+03  0.11000032669E+04  0.12568163982E+04  0.00000000000E+00 0. -1.
         -4    1    5    5    0  503 -0.51049447782E+02  0.10426413067E+03  0.16132733032E+03  0.19875503157E+03  0.00000000000E+00 0.  1.
         -1    1    6    6    0  502  0.35536554124E+02  0.10033169490E+02  0.25196872608E+02  0.44703395377E+02  0.00000000000E+00 0.  1.
<mgrwt>
<rscale>  0 0.17878520E+04</rscale>
<asrwt>0</asrwt>
<pdfrwt beam="1">  1        2 0.27725482E+00 0.17878520E+04</pdfrwt>
<pdfrwt beam="2">  1       -2 0.68217736E-01 0.17878520E+04</pdfrwt>
<totfact> 0.15988805E+01</totfact>
</mgrwt>
</event>
<event>
12    1  0.1755460E-007  0.2389826E+04  0.7818608E-02  0.8443323E-01
         -1   -1    0    0    0  501 -0.00000000000E+00  0.00000000000E+00  0.14418424077E+04  0.14418424077E+04  0.00000000000E+00 0. -1.
          1   -1    0    0  501    0  0.00000000000E+00 -0.00000000000E+00 -0.99027229431E+03  0.99027229431E+03  0.00000000000E+00 0.  1.
         23    2    1    2    0    0 -0.16108495800E+03  0.13862062056E+03  0.12081252096E+04  0.12302596070E+04  0.93851684029E+02 0.  0.
        254    2    1    2    0    0  0.16108495800E+03 -0.13862062056E+03 -0.75655509614E+03  0.12018550950E+04  0.90934922651E+03 0.  0.
        -24    2    4    4    0    0  0.50363294444E+03 -0.13511061848E+02 -0.23746085746E+03  0.56254181557E+03  0.78974324414E+02 0.  0.
         24    2    4    4    0    0 -0.34254798644E+03 -0.12510955871E+03 -0.51909423868E+03  0.63931327943E+03  0.79190377797E+02 0.  0.
         11    1    3    3    0    0 -0.16745140364E+03  0.10483099620E+03  0.10027487422E+04  0.10220247308E+04  0.00000000000E+00 0. -1.
        -11    1    3    3    0    0  0.63664456366E+01  0.33789624353E+02  0.20537646737E+03  0.20823487626E+03  0.00000000000E+00 0.  1.
          2    1    6    6  502    0 -0.23244850973E+03 -0.63964567168E+02 -0.39329416871E+03  0.46130692459E+03  0.00000000000E+00 0. -1.
          1    1    5    5  503    0  0.41941904762E+03 -0.35811949032E+02 -0.17780286225E+03  0.45695589615E+03  0.00000000000E+00 0. -1.
         -2    1    5    5    0  503  0.84213896824E+02  0.22300887184E+02 -0.59657995213E+02  0.10558591942E+03  0.00000000000E+00 0.  1.
         -1    1    6    6    0  502 -0.11009947671E+03 -0.61144991541E+02 -0.12580006997E+03  0.17800635485E+03  0.00000000000E+00 0.  1.
<mgrwt>
<rscale>  0 0.23898256E+04</rscale>
<asrwt>0</asrwt>
<pdfrwt beam="1">  1        1 0.15234958E+00 0.23898256E+04</pdfrwt>
<pdfrwt beam="2">  1       -1 0.22182191E+00 0.23898256E+04</pdfrwt>
<totfact> 0.14778052E+00</totfact>
</mgrwt>
</event>
<event>
12    1  0.1755460E-007  0.1225372E+04  0.7818608E-02  0.9090934E-01
          2   -1    0    0  501    0  0.00000000000E+00  0.00000000000E+00  0.83874569245E+03  0.83874569245E+03  0.00000000000E+00 0. -1.
         -2   -1    0    0    0  501 -0.00000000000E+00 -0.00000000000E+00 -0.44755392338E+03  0.44755392338E+03  0.00000000000E+00 0.  1.
         23    2    1    2    0    0  0.28407737100E+02  0.18925790904E+03  0.28787628139E+03  0.35781510555E+03  0.92376083027E+02 0.  0.
        254    2    1    2    0    0 -0.28407737100E+02 -0.18925790904E+03  0.10331548768E+03  0.92848451028E+03  0.90265377647E+03 0.  0.
        -24    2    4    4    0    0 -0.40511970784E+03 -0.17363900135E+02 -0.14633025972E+03  0.43844750698E+03  0.80001179773E+02 0.  0.
         24    2    4    4    0    0  0.37671197074E+03 -0.17189400890E+03  0.24964574740E+03  0.49003700330E+03  0.79710765986E+02 0.  0.
         11    1    3    3    0    0  0.27893798006E+02  0.66717468847E+02  0.18210905004E+03  0.19594129408E+03  0.00000000000E+00 0. -1.
        -11    1    3    3    0    0  0.51393909428E+00  0.12254044019E+03  0.10576723134E+03  0.16187381147E+03  0.00000000000E+00 0.  1.
          2    1    6    6  502    0  0.36898528794E+03 -0.17595326543E+03  0.23122668658E+03  0.46965463366E+03  0.00000000000E+00 0. -1.
          3    1    5    5  503    0 -0.38957698887E+03 -0.29280358491E+02 -0.15007173954E+03  0.41850817991E+03  0.00000000000E+00 0. -1.
         -4    1    5    5    0  503 -0.15542718973E+02  0.11916458355E+02  0.37414798202E+01  0.19939327071E+02  0.00000000000E+00 0.  1.
         -1    1    6    6    0  502  0.77266828015E+01  0.40592565311E+01  0.18419060820E+02  0.20382369641E+02  0.00000000000E+00 0.  1.
<mgrwt>
<rscale>  0 0.12253717E+04</rscale>
<asrwt>0</asrwt>
<pdfrwt beam="1">  1        2 0.12903780E+00 0.12253717E+04</pdfrwt>
<pdfrwt beam="2">  1       -2 0.68854450E-01 0.12253717E+04</pdfrwt>
<totfact> 0.61382296E+01</totfact>
</mgrwt>
</event>
<event>
12    1  0.1755460E-007  0.2523598E+04  0.7818608E-02  0.8394627E-01
          1   -1    0    0  501    0  0.00000000000E+00  0.00000000000E+00  0.81162372905E+03  0.81162372905E+03  0.00000000000E+00 0. -1.
         -1   -1    0    0    0  501 -0.00000000000E+00 -0.00000000000E+00 -0.19616686789E+04  0.19616686789E+04  0.00000000000E+00 0.  1.
         23    2    1    2    0    0 -0.12796515400E+03  0.10388947300E+04 -0.13143884741E+03  0.10585627644E+04  0.87187240058E+02 0.  0.
        254    2    1    2    0    0  0.12796515400E+03 -0.10388947300E+04 -0.10186061024E+04  0.17147296435E+04  0.89836630495E+03 0.  0.
        -24    2    4    4    0    0  0.41442569699E+03 -0.28098220493E+03 -0.15777392721E+03  0.52986858267E+03  0.71891897856E+02 0.  0.
         24    2    4    4    0    0 -0.28646054299E+03 -0.75791252509E+03 -0.86083217518E+03  0.11848610609E+04  0.79828950548E+02 0.  0.
         13    1    3    3    0    0 -0.84473354056E+02  0.76806827064E+03 -0.59485024551E+02  0.77498586055E+03  0.00000000000E+00 0.  1.
        -13    1    3    3    0    0 -0.43491799941E+02  0.27082645938E+03 -0.71953822859E+02  0.28357690383E+03  0.00000000000E+00 0. -1.
          2    1    6    6  502    0 -0.25320051049E+03 -0.59077759025E+03 -0.65589027103E+03  0.91832494646E+03  0.00000000000E+00 0. -1.
          3    1    5    5  503    0  0.40844064319E+03 -0.26168092133E+03 -0.15616772088E+03  0.50959691977E+03  0.00000000000E+00 0. -1.
         -4    1    5    5    0  503  0.59850537961E+01 -0.19301283604E+02 -0.16062063352E+01  0.20271662895E+02  0.00000000000E+00 0.  1.
         -1    1    6    6    0  502 -0.33260032502E+02 -0.16713493483E+03 -0.20494190415E+03  0.26653611440E+03  0.00000000000E+00 0.  1.
<mgrwt>
<rscale>  0 0.25235981E+04</rscale>
<asrwt>0</asrwt>
<pdfrwt beam="1">  1        1 0.12486519E+00 0.25235981E+04</pdfrwt>
<pdfrwt beam="2">  1       -1 0.30179518E+00 0.25235981E+04</pdfrwt>
<totfact> 0.61578416E-01</totfact>
</mgrwt>
</event>
<event>
12    1  0.1755460E-007  0.9957485E+03  0.7818608E-02  0.9313220E-01
         -2   -1    0    0    0  501 -0.00000000000E+00  0.00000000000E+00  0.37859753121E+03  0.37859753121E+03  0.00000000000E+00 0. -1.
          2   -1    0    0  501    0  0.00000000000E+00 -0.00000000000E+00 -0.65472900993E+03  0.65472900993E+03  0.00000000000E+00 0.  1.
         23    2    1    2    0    0  0.42634706026E+02 -0.29820943901E+02 -0.31963335440E+02  0.10788507850E+03  0.88941151884E+02 0.  0.
        254    2    1    2    0    0 -0.42634706026E+02  0.29820943901E+02 -0.24416814327E+03  0.92544146264E+03  0.89113231999E+03 0.  0.
        -24    2    4    4    0    0 -0.18841267445E+03  0.41147899344E+03 -0.38438974121E+02  0.46081910667E+03  0.77861392285E+02 0.  0.
         24    2    4    4    0    0  0.14577796842E+03 -0.38165804954E+03 -0.20572916915E+03  0.46462235597E+03  0.81457717669E+02 0.  0.
         11    1    3    3    0    0  0.60787857290E+02 -0.44016965286E+02 -0.37914431894E+02  0.84084249255E+02  0.00000000000E+00 0. -1.
        -11    1    3    3    0    0 -0.18153151264E+02  0.14196021385E+02  0.59510964540E+01  0.23800829250E+02  0.00000000000E+00 0.  1.
          4    1    6    6  502    0 -0.55219081251E+01 -0.57398002756E+02 -0.17204679760E+02  0.60174938266E+02  0.00000000000E+00 0. -1.
          1    1    5    5  503    0 -0.19569846198E+02  0.50963865363E+02  0.20642708609E+02  0.58364508665E+02  0.00000000000E+00 0. -1.
         -2    1    5    5    0  503 -0.16884282825E+03  0.36051512808E+03 -0.59081682730E+02  0.40245459801E+03  0.00000000000E+00 0.  1.
         -3    1    6    6    0  502  0.15129987655E+03 -0.32426004678E+03 -0.18852448939E+03  0.40444741770E+03  0.00000000000E+00 0.  1.
<mgrwt>
<rscale>  0 0.99574854E+03</rscale>
<asrwt>0</asrwt>
<pdfrwt beam="1">  1        2 0.10072754E+00 0.99574854E+03</pdfrwt>
<pdfrwt beam="2">  1       -2 0.58245775E-01 0.99574854E+03</pdfrwt>
<totfact> 0.12275930E+02</totfact>
</mgrwt>
</event>
<event>
12    1  0.1755460E-007  0.1146438E+04  0.7818608E-02  0.9161076E-01
         -2   -1    0    0    0  501 -0.00000000000E+00  0.00000000000E+00  0.33910656481E+03  0.33910656481E+03  0.00000000000E+00 0. -1.
          2   -1    0    0  501    0  0.00000000000E+00 -0.00000000000E+00 -0.96895723264E+03  0.96895723264E+03  0.00000000000E+00 0.  1.
         23    2    1    2    0    0  0.14363316347E+02  0.41109793367E+02  0.11213963594E+03  0.14681301944E+03  0.84157262076E+02 0.  0.
        254    2    1    2    0    0 -0.14363316347E+02 -0.41109793367E+02 -0.74199030378E+03  0.11612507780E+04  0.89222051005E+03 0.  0.
        -24    2    4    4    0    0  0.42774416622E+03 -0.70248180739E+02 -0.32039466901E+03  0.54472432173E+03  0.78561849046E+02 0.  0.
         24    2    4    4    0    0 -0.44210748257E+03  0.29138387372E+02 -0.42159563477E+03  0.61652645628E+03  0.77806942327E+02 0.  0.
         13    1    3    3    0    0  0.46870567869E+02  0.40867963604E+02  0.71084267799E+02  0.94445824206E+02  0.00000000000E+00 0. -1.
        -13    1    3    3    0    0 -0.32507251521E+02  0.24182976376E+00  0.41055368145E+02  0.52367195234E+02  0.00000000000E+00 0.  1.
          2    1    6    6  502    0 -0.37963158208E+03 -0.17639978976E+01 -0.36650628840E+03  0.52768372084E+03  0.00000000000E+00 0. -1.
          1    1    5    5  503    0  0.15886815337E+03  0.42365105828E+01 -0.88313596002E+02  0.18181399676E+03  0.00000000000E+00 0. -1.
         -2    1    5    5    0  503  0.26887601285E+03 -0.74484691322E+02 -0.23208107301E+03  0.36291032498E+03  0.00000000000E+00 0.  1.
         -1    1    6    6    0  502 -0.62475900489E+02  0.30902385270E+02 -0.55089346365E+02  0.88842735438E+02  0.00000000000E+00 0.  1.
<mgrwt>
<rscale>  0 0.11464375E+04</rscale>
<asrwt>0</asrwt>
<pdfrwt beam="1">  1        2 0.14907034E+00 0.11464375E+04</pdfrwt>
<pdfrwt beam="2">  1       -2 0.52170241E-01 0.11464375E+04</pdfrwt>
<totfact> 0.90591710E+01</totfact>
</mgrwt>
</event>
<event>
12    1  0.1755460E-007  0.1208043E+04  0.7818608E-02  0.9105846E-01
         -2   -1    0    0    0  501 -0.00000000000E+00  0.00000000000E+00  0.18686757666E+03  0.18686757666E+03  0.00000000000E+00 0.  1.
          2   -1    0    0  501    0  0.00000000000E+00 -0.00000000000E+00 -0.19524076332E+04  0.19524076332E+04  0.00000000000E+00 0. -1.
         23    2    1    2    0    0  0.88659367613E+02  0.19389013939E+03 -0.14931812220E+03  0.27602320608E+03  0.91864242543E+02 0.  0.
        254    2    1    2    0    0 -0.88659367613E+02 -0.19389013939E+03 -0.16162219343E+04  0.18632520038E+04  0.90226427333E+03 0.  0.
        -24    2    4    4    0    0 -0.29673810167E+03 -0.28813533631E+03 -0.15591162120E+04  0.16150321338E+04  0.80062210435E+02 0.  0.
         24    2    4    4    0    0  0.20807873406E+03  0.94245196916E+02 -0.57105722308E+02  0.24821986999E+03  0.78569228237E+02 0.  0.
         11    1    3    3    0    0 -0.53523687979E+01  0.17358618024E+02 -0.49023988731E+02  0.52281171970E+02  0.00000000000E+00 0. -1.
        -11    1    3    3    0    0  0.94011736411E+02  0.17653152137E+03 -0.10029413347E+03  0.22374203411E+03  0.00000000000E+00 0.  1.
          2    1    6    6  502    0  0.14854727378E+03  0.10290242739E+03 -0.34599444074E+02  0.18399000962E+03  0.00000000000E+00 0. -1.
          3    1    5    5  503    0 -0.25284170414E+03 -0.20363336370E+03 -0.12582181180E+04  0.12994261451E+04  0.00000000000E+00 0. -1.
         -4    1    5    5    0  503 -0.43896397538E+02 -0.84501972608E+02 -0.30089809403E+03  0.31560598867E+03  0.00000000000E+00 0.  1.
         -3    1    6    6    0  502  0.59531460277E+02 -0.86572304741E+01 -0.22506278234E+02  0.64229860362E+02  0.00000000000E+00 0.  1.
<mgrwt>
<rscale>  0 0.12080425E+04</rscale>
<asrwt>0</asrwt>
<pdfrwt beam="1">  1        2 0.30037039E+00 0.12080425E+04</pdfrwt>
<pdfrwt beam="2">  1       -2 0.28748859E-01 0.12080425E+04</pdfrwt>
<totfact> 0.77821953E+01</totfact>
</mgrwt>
</event>
<event>
12    1  0.1755460E-007  0.2575370E+04  0.7818608E-02  0.8376616E-01
          1   -1    0    0  501    0  0.00000000000E+00  0.00000000000E+00  0.14367455276E+04  0.14367455276E+04  0.00000000000E+00 0. -1.
         -1   -1    0    0    0  501 -0.00000000000E+00 -0.00000000000E+00 -0.11540896304E+04  0.11540896304E+04  0.00000000000E+00 0.  1.
         23    2    1    2    0    0 -0.80090223620E+03 -0.77144028320E+03  0.36235905264E+03  0.11731158159E+04  0.91280512333E+02 0.  0.
        254    2    1    2    0    0  0.80090223620E+03  0.77144028320E+03 -0.79703155407E+02  0.14177193421E+04  0.87579166329E+03 0.  0.
        -24    2    4    4    0    0  0.67893533293E+03  0.35001390144E+03 -0.40333548168E+03  0.86730165480E+03  0.77908485557E+02 0.  0.
         24    2    4    4    0    0  0.12196690327E+03  0.42142638175E+03  0.32363232627E+03  0.55041768730E+03  0.75799915271E+02 0.  0.
         13    1    3    3    0    0 -0.40934400986E+03 -0.38644689781E+03  0.23103042624E+03  0.60850536652E+03  0.00000000000E+00 0. -1.
        -13    1    3    3    0    0 -0.39155822635E+03 -0.38499338539E+03  0.13132862640E+03  0.56461044936E+03  0.00000000000E+00 0.  1.
          2    1    6    6  502    0  0.52818613273E+02  0.10620815414E+03  0.12054917257E+03  0.16912149751E+03  0.00000000000E+00 0. -1.
          3    1    5    5  503    0  0.16776885157E+02  0.25201745188E+02 -0.15661549268E+02  0.34086301670E+02  0.00000000000E+00 0. -1.
         -4    1    5    5    0  503  0.66215844777E+03  0.32481215626E+03 -0.38767393241E+03  0.83321535313E+03  0.00000000000E+00 0.  1.
         -1    1    6    6    0  502  0.69148290000E+02  0.31521822762E+03  0.20308315371E+03  0.38129618980E+03  0.00000000000E+00 0.  1.
<mgrwt>
<rscale>  0 0.25753704E+04</rscale>
<asrwt>0</asrwt>
<pdfrwt beam="1">  1        1 0.22103777E+00 0.25753704E+04</pdfrwt>
<pdfrwt beam="2">  1       -1 0.17755225E+00 0.25753704E+04</pdfrwt>
<totfact> 0.13851640E+00</totfact>
</mgrwt>
</event>
<event>
12    1  0.1755460E-007  0.1962169E+04  0.7818608E-02  0.8624515E-01
         -2   -1    0    0    0  501 -0.00000000000E+00  0.00000000000E+00  0.49810658335E+03  0.49810658335E+03  0.00000000000E+00 0.  1.
          2   -1    0    0  501    0  0.00000000000E+00 -0.00000000000E+00 -0.19323713210E+04  0.19323713210E+04  0.00000000000E+00 0. -1.
         23    2    1    2    0    0  0.47078126822E+03 -0.37657104705E+03 -0.11450260943E+04  0.12971226294E+04  0.89451679422E+02 0.  0.
        254    2    1    2    0    0 -0.47078126822E+03  0.37657104705E+03 -0.28923864328E+03  0.11333552749E+04  0.91509258028E+03 0.  0.
        -24    2    4    4    0    0 -0.16298071093E+02 -0.97286937583E+02  0.24953860734E+03  0.27984504886E+03  0.79456651518E+02 0.  0.
         24    2    4    4    0    0 -0.45448319713E+03  0.47385798463E+03 -0.53877725063E+03  0.85351022608E+03  0.84275821916E+02 0.  0.
         13    1    3    3    0    0  0.15761260020E+03 -0.17483865764E+03 -0.48903323030E+03  0.54273731057E+03  0.00000000000E+00 0.  1.
        -13    1    3    3    0    0  0.31316866802E+03 -0.20173238941E+03 -0.65599286403E+03  0.75438531881E+03  0.00000000000E+00 0. -1.
          2    1    6    6  502    0 -0.32105396324E+03  0.37942814840E+03 -0.38028481134E+03  0.62582577835E+03  0.00000000000E+00 0. -1.
          3    1    5    5  503    0 -0.21225668865E+02 -0.99613435217E+02  0.25344243986E+03  0.27314178702E+03  0.00000000000E+00 0. -1.
         -4    1    5    5    0  503  0.49275977725E+01  0.23264976337E+01 -0.39038325123E+01  0.67032618427E+01  0.00000000000E+00 0.  1.
         -1    1    6    6    0  502 -0.13342923389E+03  0.94429836225E+02 -0.15849243929E+03  0.22768444773E+03  0.00000000000E+00 0.  1.
<mgrwt>
<rscale>  0 0.19621691E+04</rscale>
<asrwt>0</asrwt>
<pdfrwt beam="1">  1        2 0.29728790E+00 0.19621691E+04</pdfrwt>
<pdfrwt beam="2">  1       -2 0.76631780E-01 0.19621691E+04</pdfrwt>
<totfact> 0.10333524E+01</totfact>
</mgrwt>
</event>
<event>
12    1  0.1755460E-007  0.1521319E+04  0.7818608E-02  0.8870399E-01
         -2   -1    0    0    0  501 -0.00000000000E+00  0.00000000000E+00  0.42847874595E+03  0.42847874595E+03  0.00000000000E+00 0.  1.
          2   -1    0    0  501    0  0.00000000000E+00 -0.00000000000E+00 -0.13503645203E+04  0.13503645203E+04  0.00000000000E+00 0. -1.
         23    2    1    2    0    0 -0.76264495026E+02 -0.48993702539E+03 -0.28008277682E+03  0.57466186654E+03  0.77041137907E+02 0.  0.
        254    2    1    2    0    0  0.76264495026E+02  0.48993702539E+03 -0.64180299752E+03  0.12041813997E+04  0.89010515880E+03 0.  0.
        -24    2    4    4    0    0  0.61901169499E+02 -0.21331927455E+03 -0.38563381324E+03  0.45162698108E+03  0.76919597297E+02 0.  0.
         24    2    4    4    0    0  0.14363325527E+02  0.70325629994E+03 -0.25616918428E+03  0.75255441862E+03  0.77069926011E+02 0.  0.
         13    1    3    3    0    0 -0.44428341528E+01 -0.31936529432E+02 -0.43613295899E+02  0.54238365265E+02  0.00000000000E+00 0. -1.
        -13    1    3    3    0    0 -0.71821660873E+02 -0.45800049595E+03 -0.23646948093E+03  0.52042350127E+03  0.00000000000E+00 0.  1.
          2    1    6    6  502    0 -0.19824142199E+01  0.24556749854E+03 -0.51480675821E+02  0.25091350360E+03  0.00000000000E+00 0. -1.
          1    1    5    5  503    0  0.31145686026E+02 -0.89127530197E+02 -0.23928273325E+03  0.25723529467E+03  0.00000000000E+00 0. -1.
         -2    1    5    5    0  503  0.30755483473E+02 -0.12419174435E+03 -0.14635107999E+03  0.19439168641E+03  0.00000000000E+00 0.  1.
         -1    1    6    6    0  502  0.16345739747E+02  0.45768880139E+03 -0.20468850846E+03  0.50164091502E+03  0.00000000000E+00 0.  1.
<mgrwt>
<rscale>  0 0.15213185E+04</rscale>
<asrwt>0</asrwt>
<pdfrwt beam="1">  1        2 0.20774839E+00 0.15213185E+04</pdfrwt>
<pdfrwt beam="2">  1       -2 0.65919807E-01 0.15213185E+04</pdfrwt>
<totfact> 0.31574390E+01</totfact>
</mgrwt>
</event>
<event>
12    1  0.1755460E-007  0.1524280E+04  0.7818608E-02  0.8868466E-01
          1   -1    0    0  501    0  0.00000000000E+00  0.00000000000E+00  0.30971632517E+04  0.30971632517E+04  0.00000000000E+00 0. -1.
         -1   -1    0    0    0  501 -0.00000000000E+00 -0.00000000000E+00 -0.18754494880E+03  0.18754494880E+03  0.00000000000E+00 0.  1.
         23    2    1    2    0    0 -0.27423318917E+03  0.18311171006E+02  0.80076117134E+02  0.29936315591E+03  0.87561256044E+02 0.  0.
        254    2    1    2    0    0  0.27423318917E+03 -0.18311171006E+02  0.28295421857E+04  0.29853450446E+04  0.91128311362E+03 0.  0.
        -24    2    4    4    0    0  0.50554952073E+03  0.25830538487E+03  0.15114629217E+04  0.16165790548E+04  0.80657839128E+02 0.  0.
         24    2    4    4    0    0 -0.23131633156E+03 -0.27661655588E+03  0.13180792640E+04  0.13687659897E+04  0.78507478454E+02 0.  0.
         13    1    3    3    0    0 -0.15280339305E+03  0.15663006081E+01 -0.24677306953E+00  0.15281161973E+03  0.00000000000E+00 0.  1.
        -13    1    3    3    0    0 -0.12142979611E+03  0.16744870398E+02  0.80322890203E+02  0.14655153619E+03  0.00000000000E+00 0. -1.
          2    1    6    6  502    0 -0.14525165518E+02  0.33558211350E+01  0.56990036405E+02  0.58907607473E+02  0.00000000000E+00 0. -1.
          1    1    5    5  503    0  0.13758851947E+03  0.73880346648E+02  0.32102678780E+03  0.35699734564E+03  0.00000000000E+00 0. -1.
         -2    1    5    5    0  503  0.36796100125E+03  0.18442503823E+03  0.11904361339E+04  0.12595817092E+04  0.00000000000E+00 0.  1.
         -1    1    6    6    0  502 -0.21679116604E+03 -0.27997237701E+03  0.12610892276E+04  0.13098583823E+04  0.00000000000E+00 0.  1.
<mgrwt>
<rscale>  0 0.15242799E+04</rscale>
<asrwt>0</asrwt>
<pdfrwt beam="1">  1        1 0.47648662E+00 0.15242799E+04</pdfrwt>
<pdfrwt beam="2">  1       -1 0.28853071E-01 0.15242799E+04</pdfrwt>
<totfact> 0.53852788E+00</totfact>
</mgrwt>
</event>
<event>
12    1  0.1755460E-007  0.1398304E+04  0.7818608E-02  0.8955047E-01
         -2   -1    0    0    0  501 -0.00000000000E+00  0.00000000000E+00  0.20987621155E+03  0.20987621155E+03  0.00000000000E+00 0.  1.
          2   -1    0    0  501    0  0.00000000000E+00 -0.00000000000E+00 -0.23290559824E+04  0.23290559824E+04  0.00000000000E+00 0. -1.
         23    2    1    2    0    0 -0.77709688291E+02 -0.21937891783E+03 -0.25225874514E+02  0.25170108712E+03  0.92472629837E+02 0.  0.
        254    2    1    2    0    0  0.77709688291E+02  0.21937891783E+03 -0.20939538964E+04  0.22872311068E+04  0.89029057661E+03 0.  0.
        -24    2    4    4    0    0  0.94238584626E+02 -0.27401176146E+03 -0.29918664221E+03  0.42403372872E+03  0.79552498188E+02 0.  0.
         24    2    4    4    0    0 -0.16528896335E+02  0.49339067929E+03 -0.17947672541E+04  0.18631973781E+04  0.81285954824E+02 0.  0.
         13    1    3    3    0    0 -0.22609838443E+02  0.66021959635E+00  0.40744834001E+01  0.22983517993E+02  0.00000000000E+00 0. -1.
        -13    1    3    3    0    0 -0.55099849848E+02 -0.22003913743E+03 -0.29300357914E+02  0.22871756913E+03  0.00000000000E+00 0.  1.
          4    1    6    6  502    0 -0.20649717418E+02  0.41126204474E+03 -0.13701155364E+04  0.14306570041E+04  0.00000000000E+00 0. -1.
          3    1    5    5  503    0  0.37913538727E+02 -0.52682920520E+02 -0.10885560860E+03  0.12673780042E+03  0.00000000000E+00 0. -1.
         -4    1    5    5    0  503  0.56325045898E+02 -0.22132884094E+03 -0.19033103361E+03  0.29729592830E+03  0.00000000000E+00 0.  1.
         -3    1    6    6    0  502  0.41208210832E+01  0.82128634550E+02 -0.42465171772E+03  0.43254037400E+03  0.00000000000E+00 0.  1.
<mgrwt>
<rscale>  0 0.13983039E+04</rscale>
<asrwt>0</asrwt>
<pdfrwt beam="1">  1        2 0.35831631E+00 0.13983039E+04</pdfrwt>
<pdfrwt beam="2">  1       -2 0.32288647E-01 0.13983039E+04</pdfrwt>
<totfact> 0.38033570E+01</totfact>
</mgrwt>
</event>
<event>
12    1  0.1755460E-007  0.1311126E+04  0.7818608E-02  0.9020788E-01
          2   -1    0    0  501    0  0.00000000000E+00  0.00000000000E+00  0.63743417200E+03  0.63743417200E+03  0.00000000000E+00 0. -1.
         -2   -1    0    0    0  501 -0.00000000000E+00 -0.00000000000E+00 -0.67420750470E+03  0.67420750470E+03  0.00000000000E+00 0.  1.
         23    2    1    2    0    0 -0.74956343822E+02 -0.25145707462E+02  0.31769240667E+03  0.34043306481E+03  0.93356554545E+02 0.  0.
        254    2    1    2    0    0  0.74956343822E+02  0.25145707462E+02 -0.35446573937E+03  0.97120861189E+03  0.90074938098E+03 0.  0.
        -24    2    4    4    0    0 -0.16768255190E+03 -0.35305608962E+03 -0.95415552634E+01  0.39916628164E+03  0.80477565117E+02 0.  0.
         24    2    4    4    0    0  0.24263889573E+03  0.37820179708E+03 -0.34492418410E+03  0.57204233025E+03  0.79683761103E+02 0.  0.
         13    1    3    3    0    0 -0.40569834847E+02 -0.13807799923E+02  0.34723094925E+02  0.55156687350E+02  0.00000000000E+00 0.  1.
        -13    1    3    3    0    0 -0.34386508974E+02 -0.11337907539E+02  0.28296931174E+03  0.28527637746E+03  0.00000000000E+00 0. -1.
          2    1    6    6  502    0  0.48551716107E+02  0.40709212804E+02 -0.75616459345E+02  0.98652714448E+02  0.00000000000E+00 0. -1.
          3    1    5    5  503    0 -0.70231065562E+01 -0.82789008347E+01  0.14408940411E+02  0.18041113837E+02  0.00000000000E+00 0. -1.
         -4    1    5    5    0  503 -0.16065944535E+03 -0.34477718879E+03 -0.23950495674E+02  0.38112516780E+03  0.00000000000E+00 0.  1.
         -1    1    6    6    0  502  0.19408717962E+03  0.33749258428E+03 -0.26930772476E+03  0.47338961580E+03  0.00000000000E+00 0.  1.
<mgrwt>
<rscale>  0 0.13111261E+04</rscale>
<asrwt>0</asrwt>
<pdfrwt beam="1">  1        2 0.98066796E-01 0.13111261E+04</pdfrwt>
<pdfrwt beam="2">  1       -2 0.10372423E+00 0.13111261E+04</pdfrwt>
<totfact> 0.34154733E+01</totfact>
</mgrwt>
</event>
<event>
12    1  0.1755460E-007  0.2773388E+04  0.7818608E-02  0.8311578E-01
          2   -1    0    0  501    0  0.00000000000E+00  0.00000000000E+00  0.35023551405E+04  0.35023551405E+04  0.00000000000E+00 0. -1.
         -2   -1    0    0    0  501 -0.00000000000E+00 -0.00000000000E+00 -0.54903634337E+03  0.54903634337E+03  0.00000000000E+00 0.  1.
         23    2    1    2    0    0 -0.16655902141E+03 -0.21674568345E+03 -0.44107665318E+03  0.52691276471E+03  0.91475946126E+02 0.  0.
        254    2    1    2    0    0  0.16655902141E+03  0.21674568345E+03  0.33943954504E+04  0.35244787192E+04  0.90846528269E+03 0.  0.
        -24    2    4    4    0    0 -0.21094954825E+03  0.95720191565E+02  0.23613900045E+03  0.34043915138E+03  0.80468138297E+02 0.  0.
         24    2    4    4    0    0  0.37750856966E+03  0.12102549188E+03  0.31582564499E+04  0.31840395678E+04  0.79776414207E+02 0.  0.
         11    1    3    3    0    0 -0.76189285188E+02 -0.12472078493E+03 -0.31152443794E+03  0.34410399127E+03  0.00000000000E+00 0.  1.
        -11    1    3    3    0    0 -0.90369736223E+02 -0.92024898518E+02 -0.12955221524E+03  0.18280877344E+03  0.00000000000E+00 0. -1.
          4    1    6    6  502    0  0.35581597796E+03  0.13218170921E+03  0.29991082891E+04  0.30230328388E+04  0.00000000000E+00 0. -1.
          3    1    5    5  503    0 -0.62432565359E+02  0.38948134510E+01  0.27384551712E+02  0.68285492322E+02  0.00000000000E+00 0. -1.
         -4    1    5    5    0  503 -0.14851698289E+03  0.91825378114E+02  0.20875444874E+03  0.27215365906E+03  0.00000000000E+00 0.  1.
         -3    1    6    6    0  502  0.21692591697E+02 -0.11156217327E+02  0.15914816080E+03  0.16100672906E+03  0.00000000000E+00 0.  1.
<mgrwt>
<rscale>  0 0.27733880E+04</rscale>
<asrwt>0</asrwt>
<pdfrwt beam="1">  1        2 0.53882386E+00 0.27733880E+04</pdfrwt>
<pdfrwt beam="2">  1       -2 0.84467132E-01 0.27733880E+04</pdfrwt>
<totfact> 0.86321104E-01</totfact>
</mgrwt>
</event>
<event>
12    1  0.1755460E-007  0.1267046E+04  0.7818608E-02  0.9056114E-01
          2   -1    0    0  501    0  0.00000000000E+00  0.00000000000E+00  0.21409409028E+04  0.21409409028E+04  0.00000000000E+00 0. -1.
         -2   -1    0    0    0  501 -0.00000000000E+00 -0.00000000000E+00 -0.18746487408E+03  0.18746487408E+03  0.00000000000E+00 0.  1.
         23    2    1    2    0    0  0.14123563645E+03  0.41556225193E+02  0.11780168624E+02  0.17033029318E+03  0.84848167598E+02 0.  0.
        254    2    1    2    0    0 -0.14123563645E+03 -0.41556225193E+02  0.19416958601E+04  0.21580754837E+04  0.93028627601E+03 0.  0.
        -24    2    4    4    0    0 -0.12758910915E+03  0.34969434138E+03  0.15591616801E+04  0.16049484834E+04  0.79431583342E+02 0.  0.
         24    2    4    4    0    0 -0.13646527301E+02 -0.39125056657E+03  0.38253418001E+03  0.55312700033E+03  0.79711015979E+02 0.  0.
         11    1    3    3    0    0  0.13530918029E+03  0.61123473974E+02  0.16376834390E+02  0.14937487756E+03  0.00000000000E+00 0.  1.
        -11    1    3    3    0    0  0.59264561596E+01 -0.19567248780E+02 -0.45966657652E+01  0.20955415615E+02  0.00000000000E+00 0. -1.
          2    1    6    6  502    0 -0.19539312642E+02 -0.20825503753E+03  0.25590104141E+03  0.33051064792E+03  0.00000000000E+00 0. -1.
          1    1    5    5  503    0 -0.10315433496E+03  0.33825344925E+03  0.14455633390E+04  0.14881900348E+04  0.00000000000E+00 0. -1.
         -2    1    5    5    0  503 -0.24434774197E+02  0.11440892127E+02  0.11359834112E+03  0.11675844855E+03  0.00000000000E+00 0.  1.
         -1    1    6    6    0  502  0.58927853412E+01 -0.18299552904E+03  0.12663313860E+03  0.22261635241E+03  0.00000000000E+00 0.  1.
<mgrwt>
<rscale>  0 0.12670457E+04</rscale>
<asrwt>0</asrwt>
<pdfrwt beam="1">  1        2 0.32937551E+00 0.12670457E+04</pdfrwt>
<pdfrwt beam="2">  1       -2 0.28840751E-01 0.12670457E+04</pdfrwt>
<totfact> 0.60539306E+01</totfact>
</mgrwt>
</event>
<event>
12    1  0.1755460E-007  0.1294641E+04  0.7818608E-02  0.9033826E-01
          2   -1    0    0  501    0  0.00000000000E+00  0.00000000000E+00  0.35205594838E+03  0.35205594838E+03  0.00000000000E+00 0. -1.
         -2   -1    0    0    0  501 -0.00000000000E+00 -0.00000000000E+00 -0.11902196174E+04  0.11902196174E+04  0.00000000000E+00 0.  1.
         23    2    1    2    0    0  0.16426624031E+03 -0.32050636212E+03 -0.46907074927E+03  0.59809093092E+03  0.89317791922E+02 0.  0.
        254    2    1    2    0    0 -0.16426624031E+03  0.32050636212E+03 -0.36909291979E+03  0.94418463491E+03  0.79091549200E+03 0.  0.
        -24    2    4    4    0    0  0.66684595725E+01 -0.14183674619E+03  0.15185350999E+03  0.22283821465E+03  0.80220013009E+02 0.  0.
         24    2    4    4    0    0 -0.17093469988E+03  0.46234310831E+03 -0.52094642978E+03  0.72134642026E+03  0.77302353723E+02 0.  0.
         11    1    3    3    0    0  0.12305118582E+03 -0.18147749352E+03 -0.22481908324E+03  0.31403709204E+03  0.00000000000E+00 0. -1.
        -11    1    3    3    0    0  0.41215054489E+02 -0.13902886860E+03 -0.24425166604E+03  0.28405383888E+03  0.00000000000E+00 0.  1.
          2    1    6    6  502    0 -0.66127554796E+02  0.10600710412E+03 -0.10059322768E+03  0.16040373151E+03  0.00000000000E+00 0. -1.
          1    1    5    5  503    0 -0.17657468130E+02  0.12294766179E+01  0.20682087402E+02  0.27222169877E+02  0.00000000000E+00 0. -1.
         -2    1    5    5    0  503  0.24325927703E+02 -0.14306622281E+03  0.13117142259E+03  0.19561604477E+03  0.00000000000E+00 0.  1.
         -1    1    6    6    0  502 -0.10480714509E+03  0.35633600419E+03 -0.42035320210E+03  0.56094268875E+03  0.00000000000E+00 0.  1.
<mgrwt>
<rscale>  0 0.12946411E+04</rscale>
<asrwt>0</asrwt>
<pdfrwt beam="1">  1        2 0.54162453E-01 0.12946411E+04</pdfrwt>
<pdfrwt beam="2">  1       -2 0.18311071E+00 0.12946411E+04</pdfrwt>
<totfact> 0.15519719E+01</totfact>
</mgrwt>
</event>
<event>
12    1  0.1755460E-007  0.1391563E+04  0.7818608E-02  0.8959948E-01
          2   -1    0    0  501    0  0.00000000000E+00  0.00000000000E+00  0.80092766694E+03  0.80092766694E+03  0.00000000000E+00 0.  1.
         -2   -1    0    0    0  501 -0.00000000000E+00 -0.00000000000E+00 -0.60443897799E+03  0.60443897799E+03  0.00000000000E+00 0. -1.
         23    2    1    2    0    0  0.39294921543E+03 -0.45098593935E+02  0.65029996378E+01  0.40591432841E+03  0.91001010523E+02 0.  0.
        254    2    1    2    0    0 -0.39294921543E+03  0.45098593935E+02  0.18998568931E+03  0.99945231652E+03  0.89797962214E+03 0.  0.
        -24    2    4    4    0    0 -0.55110328559E+03 -0.18283732032E+03 -0.95877467742E+02  0.59402516487E+03  0.80802788253E+02 0.  0.
         24    2    4    4    0    0  0.15815407015E+03  0.22793591426E+03  0.28586315705E+03  0.40542715165E+03  0.75405171052E+02 0.  0.
         11    1    3    3    0    0  0.17813855076E+03 -0.42394659569E+02 -0.36776719342E+02  0.18677038714E+03  0.00000000000E+00 0. -1.
        -11    1    3    3    0    0  0.21481066468E+03 -0.27039343657E+01  0.43279718980E+02  0.21914394127E+03  0.00000000000E+00 0.  1.
          4    1    6    6  502    0  0.83787024800E+02  0.58147193495E+02  0.95296848325E+02  0.13958098344E+03  0.00000000000E+00 0. -1.
          3    1    5    5  503    0 -0.20349572591E+03 -0.29826983859E+02 -0.48278439820E+02  0.21126042503E+03  0.00000000000E+00 0. -1.
         -4    1    5    5    0  503 -0.34760755967E+03 -0.15301033647E+03 -0.47599027922E+02  0.38276473984E+03  0.00000000000E+00 0.  1.
         -3    1    6    6    0  502  0.74367045353E+02  0.16978872076E+03  0.19056630873E+03  0.26584616822E+03  0.00000000000E+00 0.  1.
<mgrwt>
<rscale>  0 0.13915630E+04</rscale>
<asrwt>0</asrwt>
<pdfrwt beam="1">  1        2 0.12321964E+00 0.13915630E+04</pdfrwt>
<pdfrwt beam="2">  1       -2 0.92990612E-01 0.13915630E+04</pdfrwt>
<totfact> 0.32824496E+01</totfact>
</mgrwt>
</event>
<event>
12    1  0.1755460E-007  0.1796165E+04  0.7818608E-02  0.8708342E-01
         -1   -1    0    0    0  501 -0.00000000000E+00  0.00000000000E+00  0.43436316953E+03  0.43436316953E+03  0.00000000000E+00 0.  1.
          1   -1    0    0  501    0  0.00000000000E+00 -0.00000000000E+00 -0.18568614370E+04  0.18568614370E+04  0.00000000000E+00 0. -1.
         23    2    1    2    0    0 -0.84137519607E+02 -0.57040181494E+03 -0.10138275482E+03  0.59280014216E+03  0.93253379988E+02 0.  0.
        254    2    1    2    0    0  0.84137519607E+02  0.57040181494E+03 -0.13211155126E+04  0.16984244643E+04  0.89825503656E+03 0.  0.
        -24    2    4    4    0    0 -0.13547470509E+02  0.73030859020E+03 -0.13018542906E+04  0.14950726988E+04  0.82967523662E+02 0.  0.
         24    2    4    4    0    0  0.97684990116E+02 -0.15990677525E+03 -0.19261222021E+02  0.20335176551E+03  0.76605559821E+02 0.  0.
         13    1    3    3    0    0  0.19304201722E+02 -0.61926991422E+02 -0.17384768035E+02  0.67155302324E+02  0.00000000000E+00 0. -1.
        -13    1    3    3    0    0 -0.10344172133E+03 -0.50847482352E+03 -0.83997986789E+02  0.52564483984E+03  0.00000000000E+00 0.  1.
          4    1    6    6  502    0 -0.63986751314E+00 -0.89288318568E+01 -0.21367636043E+02  0.23166988126E+02  0.00000000000E+00 0. -1.
          1    1    5    5  503    0  0.17440660640E+02  0.42692390543E+02 -0.66962338354E+02  0.81306651706E+02  0.00000000000E+00 0. -1.
         -2    1    5    5    0  503 -0.30988131150E+02  0.68761619965E+03 -0.12348919522E+04  0.14137660471E+04  0.00000000000E+00 0.  1.
         -3    1    6    6    0  502  0.98324857629E+02 -0.15097794340E+03  0.21064140219E+01  0.18018477738E+03  0.00000000000E+00 0.  1.
<mgrwt>
<rscale>  0 0.17961650E+04</rscale>
<asrwt>0</asrwt>
<pdfrwt beam="1">  1        1 0.28567099E+00 0.17961650E+04</pdfrwt>
<pdfrwt beam="2">  1       -1 0.66825103E-01 0.17961650E+04</pdfrwt>
<totfact> 0.79816597E+00</totfact>
</mgrwt>
</event>
<event>
12    1  0.1755460E-007  0.1496288E+04  0.7818608E-02  0.8886925E-01
          1   -1    0    0  501    0  0.00000000000E+00  0.00000000000E+00  0.22543434846E+04  0.22543434846E+04  0.00000000000E+00 0. -1.
         -1   -1    0    0    0  501 -0.00000000000E+00 -0.00000000000E+00 -0.24828504235E+03  0.24828504235E+03  0.00000000000E+00 0.  1.
         23    2    1    2    0    0 -0.86588889530E+01 -0.82403336682E+02 -0.13094641867E+03  0.18079301505E+03  0.93133578659E+02 0.  0.
        254    2    1    2    0    0  0.86588889530E+01  0.82403336682E+02  0.21370048609E+04  0.23218355119E+04  0.90402714696E+03 0.  0.
        -24    2    4    4    0    0 -0.40767275072E+03 -0.12801335025E+03  0.10203234861E+04  0.11090228592E+04  0.79291843488E+02 0.  0.
         24    2    4    4    0    0  0.41633163967E+03  0.21041668693E+03  0.11166813748E+04  0.12128126527E+04  0.79561431043E+02 0.  0.
         11    1    3    3    0    0 -0.32070691990E+01 -0.80440898413E+02 -0.40421516022E+02  0.90082864008E+02  0.00000000000E+00 0.  1.
        -11    1    3    3    0    0 -0.54518197540E+01 -0.19624382692E+01 -0.90524902647E+02  0.90710151040E+02  0.00000000000E+00 0. -1.
          2    1    6    6  502    0  0.41600305900E+02  0.14867832824E+02  0.58289843821E+02  0.73139208340E+02  0.00000000000E+00 0. -1.
          1    1    5    5  503    0 -0.68675431052E+02 -0.22120150013E+02  0.26029389896E+03  0.27010836659E+03  0.00000000000E+00 0. -1.
         -2    1    5    5    0  503 -0.33899731966E+03 -0.10589320024E+03  0.76002958709E+03  0.83891449258E+03  0.00000000000E+00 0.  1.
         -1    1    6    6    0  502  0.37473133377E+03  0.19554885411E+03  0.10583915310E+04  0.11396734444E+04  0.00000000000E+00 0.  1.
<mgrwt>
<rscale>  0 0.14962884E+04</rscale>
<asrwt>0</asrwt>
<pdfrwt beam="1">  1        1 0.34682206E+00 0.14962884E+04</pdfrwt>
<pdfrwt beam="2">  1       -1 0.38197700E-01 0.14962884E+04</pdfrwt>
<totfact> 0.12842488E+01</totfact>
</mgrwt>
</event>
<event>
12    1  0.1755460E-007  0.2008714E+04  0.7818608E-02  0.8602557E-01
          2   -1    0    0  501    0  0.00000000000E+00  0.00000000000E+00  0.21594319235E+04  0.21594319235E+04  0.00000000000E+00 0. -1.
         -2   -1    0    0    0  501 -0.00000000000E+00 -0.00000000000E+00 -0.46712883201E+03  0.46712883201E+03  0.00000000000E+00 0.  1.
         23    2    1    2    0    0  0.59763030390E+03 -0.18192688360E+02 -0.19663137865E+02  0.60531075520E+03  0.92312064842E+02 0.  0.
        254    2    1    2    0    0 -0.59763030390E+03  0.18192688360E+02  0.17119662293E+04  0.20212500003E+04  0.89282150468E+03 0.  0.
        -24    2    4    4    0    0 -0.33105233814E+03 -0.30340193915E+03  0.29779556095E+03  0.54463739896E+03  0.79368211230E+02 0.  0.
         24    2    4    4    0    0 -0.26657796576E+03  0.32159462751E+03  0.14141706684E+04  0.14766126013E+04  0.77583366779E+02 0.  0.
         11    1    3    3    0    0  0.39329291920E+03 -0.19821375726E+02 -0.56023172486E+02  0.39775721626E+03  0.00000000000E+00 0.  1.
        -11    1    3    3    0    0  0.20433738470E+03  0.16286873663E+01  0.36360034621E+02  0.20755353894E+03  0.00000000000E+00 0. -1.
          4    1    6    6  502    0 -0.12212595201E+03  0.20753429710E+03  0.79830041645E+03  0.83382779249E+03  0.00000000000E+00 0. -1.
          3    1    5    5  503    0 -0.24593464559E+03 -0.17846009737E+03  0.21538127900E+03  0.37245261658E+03  0.00000000000E+00 0. -1.
         -4    1    5    5    0  503 -0.85117692545E+02 -0.12494184178E+03  0.82414281954E+02  0.17218478238E+03  0.00000000000E+00 0.  1.
         -3    1    6    6    0  502 -0.14445201375E+03  0.11406033041E+03  0.61587025194E+03  0.64278480884E+03  0.00000000000E+00 0.  1.
<mgrwt>
<rscale>  0 0.20087139E+04</rscale>
<asrwt>0</asrwt>
<pdfrwt beam="1">  1        2 0.33222029E+00 0.20087139E+04</pdfrwt>
<pdfrwt beam="2">  1       -2 0.71865975E-01 0.20087139E+04</pdfrwt>
<totfact> 0.88657262E+00</totfact>
</mgrwt>
</event>
<event>
12    1  0.1755460E-007  0.2158472E+04  0.7818608E-02  0.8535914E-01
         -2   -1    0    0    0  501 -0.00000000000E+00  0.00000000000E+00  0.95638046491E+03  0.95638046491E+03  0.00000000000E+00 0.  1.
          2   -1    0    0  501    0  0.00000000000E+00 -0.00000000000E+00 -0.12178738815E+04  0.12178738815E+04  0.00000000000E+00 0. -1.
         23    2    1    2    0    0 -0.25173584859E+03 -0.71231207305E+03  0.36494030231E+03  0.84408840005E+03  0.92435793768E+02 0.  0.
        254    2    1    2    0    0  0.25173584859E+03  0.71231207305E+03 -0.62643371893E+03  0.13301659464E+04  0.89786569923E+03 0.  0.
        -24    2    4    4    0    0  0.56530630829E+03  0.33292901409E+03 -0.25329299596E+03  0.70772355522E+03  0.79387267269E+02 0.  0.
         24    2    4    4    0    0 -0.31357045969E+03  0.37938305896E+03 -0.37314072297E+03  0.62244239117E+03  0.77088212902E+02 0.  0.
         13    1    3    3    0    0 -0.14187464724E+03 -0.40215336098E+03  0.25648287579E+03  0.49763360704E+03  0.00000000000E+00 0. -1.
        -13    1    3    3    0    0 -0.10986120135E+03 -0.31015871207E+03  0.10845742652E+03  0.34645479301E+03  0.00000000000E+00 0.  1.
          2    1    6    6  502    0 -0.50780431007E+02  0.10103363848E+03 -0.11124642885E+03  0.15862602626E+03  0.00000000000E+00 0. -1.
          1    1    5    5  503    0  0.84576763245E+02  0.57922184782E+02 -0.10619012788E+02  0.10305809916E+03  0.00000000000E+00 0. -1.
         -2    1    5    5    0  503  0.48072954504E+03  0.27500682931E+03 -0.24267398318E+03  0.60466545606E+03  0.00000000000E+00 0.  1.
         -1    1    6    6    0  502 -0.26279002869E+03  0.27834942049E+03 -0.26189429412E+03  0.46381636491E+03  0.00000000000E+00 0.  1.
<mgrwt>
<rscale>  0 0.21584724E+04</rscale>
<asrwt>0</asrwt>
<pdfrwt beam="1">  1        2 0.18736521E+00 0.21584724E+04</pdfrwt>
<pdfrwt beam="2">  1       -2 0.14713546E+00 0.21584724E+04</pdfrwt>
<totfact> 0.53449376E+00</totfact>
</mgrwt>
</event>
<event>
12    1  0.1755460E-007  0.1233893E+04  0.7818608E-02  0.9083697E-01
          2   -1    0    0  501    0  0.00000000000E+00  0.00000000000E+00  0.13085853282E+04  0.13085853282E+04  0.00000000000E+00 0. -1.
         -2   -1    0    0    0  501 -0.00000000000E+00 -0.00000000000E+00 -0.29086580602E+03  0.29086580602E+03  0.00000000000E+00 0.  1.
         23    2    1    2    0    0  0.85611178419E+02  0.25712091978E+03  0.27372987295E+03  0.39787161999E+03  0.99666149700E+02 0.  0.
        254    2    1    2    0    0 -0.85611178419E+02 -0.25712091978E+03  0.74398964925E+03  0.12015795142E+04  0.90378774586E+03 0.  0.
        -24    2    4    4    0    0  0.34579923306E+03 -0.15311510012E+03  0.72568194209E+02  0.39319776562E+03  0.79479535793E+02 0.  0.
         24    2    4    4    0    0 -0.43141041148E+03 -0.10400581966E+03  0.67142145504E+03  0.80838174861E+03  0.75776827276E+02 0.  0.
         11    1    3    3    0    0  0.94725083880E+02  0.25992348067E+03  0.27239721824E+03  0.38824386902E+03  0.00000000000E+00 0. -1.
        -11    1    3    3    0    0 -0.91139054611E+01 -0.28025608963E+01  0.13326547021E+01  0.96277509776E+01  0.00000000000E+00 0.  1.
          2    1    6    6  502    0 -0.37106483471E+02 -0.30171241114E+02  0.91303612790E+02  0.10307058074E+03  0.00000000000E+00 0. -1.
          1    1    5    5  503    0  0.10529988077E+03 -0.75697394759E+02  0.51956677450E+02  0.13970560760E+03  0.00000000000E+00 0. -1.
         -2    1    5    5    0  503  0.24049935228E+03 -0.77417705358E+02  0.20611516759E+02  0.25349215802E+03  0.00000000000E+00 0.  1.
         -1    1    6    6    0  502 -0.39430392800E+03 -0.73834578545E+02  0.58011784225E+03  0.70531116787E+03  0.00000000000E+00 0.  1.
<mgrwt>
<rscale>  0 0.12338926E+04</rscale>
<asrwt>0</asrwt>
<pdfrwt beam="1">  1        2 0.20132082E+00 0.12338926E+04</pdfrwt>
<pdfrwt beam="2">  1       -2 0.44748586E-01 0.12338926E+04</pdfrwt>
<totfact> 0.76165079E+01</totfact>
</mgrwt>
</event>
<event>
12    1  0.1755460E-007  0.2400004E+04  0.7818608E-02  0.8439502E-01
          2   -1    0    0  501    0  0.00000000000E+00  0.00000000000E+00  0.24079661814E+04  0.24079661814E+04  0.00000000000E+00 0.  1.
         -2   -1    0    0    0  501 -0.00000000000E+00 -0.00000000000E+00 -0.59801685252E+03  0.59801685252E+03  0.00000000000E+00 0. -1.
         23    2    1    2    0    0  0.74567430589E+03 -0.55445912964E+03  0.23173286727E+03  0.96205934154E+03  0.91667649576E+02 0.  0.
        254    2    1    2    0    0 -0.74567430589E+03  0.55445912964E+03  0.15782164616E+04  0.20439236924E+04  0.90741487957E+03 0.  0.
        -24    2    4    4    0    0 -0.31430146941E+03  0.37568081321E+03  0.14786951605E+04  0.15597949345E+04  0.80618689035E+02 0.  0.
         24    2    4    4    0    0 -0.43137283648E+03  0.17877831643E+03  0.99521301095E+02  0.48412875783E+03  0.80199465761E+02 0.  0.
         13    1    3    3    0    0  0.70224334664E+03 -0.53789569338E+03  0.20353066078E+03  0.90769059967E+03  0.00000000000E+00 0. -1.
        -13    1    3    3    0    0  0.43430959246E+02 -0.16563436256E+02  0.28202206485E+02  0.54368741868E+02  0.00000000000E+00 0.  1.
          2    1    6    6  502    0 -0.23732130634E+03  0.98432670366E+02  0.13841550332E+02  0.25729745734E+03  0.00000000000E+00 0. -1.
          3    1    5    5  503    0 -0.28944681358E+03  0.33276066843E+03  0.13885328057E+04  0.14568913731E+04  0.00000000000E+00 0. -1.
         -4    1    5    5    0  503 -0.24854655827E+02  0.42920144773E+02  0.90162354803E+02  0.10290356149E+03  0.00000000000E+00 0.  1.
         -1    1    6    6    0  502 -0.19405153014E+03  0.80345646063E+02  0.85679750763E+02  0.22683130049E+03  0.00000000000E+00 0.  1.
<mgrwt>
<rscale>  0 0.24000036E+04</rscale>
<asrwt>0</asrwt>
<pdfrwt beam="1">  1        2 0.37045633E+00 0.24000036E+04</pdfrwt>
<pdfrwt beam="2">  1       -2 0.92002594E-01 0.24000036E+04</pdfrwt>
<totfact> 0.35521974E+00</totfact>
</mgrwt>
</event>
<event>
12    1  0.1755460E-007  0.1833716E+04  0.7818608E-02  0.8688572E-01
         -1   -1    0    0    0  501 -0.00000000000E+00  0.00000000000E+00  0.25667884707E+04  0.25667884707E+04  0.00000000000E+00 0.  1.
          1   -1    0    0  501    0  0.00000000000E+00 -0.00000000000E+00 -0.32750201677E+03  0.32750201677E+03  0.00000000000E+00 0. -1.
         23    2    1    2    0    0 -0.33004215296E+03 -0.47072655748E+03  0.15041809998E+04  0.16128616571E+04  0.90834629805E+02 0.  0.
        254    2    1    2    0    0  0.33004215296E+03  0.47072655748E+03  0.73510545408E+03  0.12814288304E+04  0.87816200331E+03 0.  0.
        -24    2    4    4    0    0 -0.53385229010E+01 -0.23182470941E+03  0.72072503231E+02  0.25563454511E+03  0.79896052547E+02 0.  0.
         24    2    4    4    0    0  0.33538067586E+03  0.70255126689E+03  0.66303295084E+03  0.10257942853E+04  0.81134095249E+02 0.  0.
         11    1    3    3    0    0 -0.20347163439E+03 -0.28850213633E+03  0.79691787022E+03  0.87161475467E+03  0.00000000000E+00 0. -1.
        -11    1    3    3    0    0 -0.12657051857E+03 -0.18222442115E+03  0.70726312958E+03  0.74124690239E+03  0.00000000000E+00 0.  1.
          4    1    6    6  502    0  0.16407150034E+03  0.40862260778E+03  0.41170436177E+03  0.60282034995E+03  0.00000000000E+00 0. -1.
          3    1    5    5  503    0  0.23850230961E+02 -0.15937335906E+03  0.21485162309E+02  0.16257402404E+03  0.00000000000E+00 0. -1.
         -4    1    5    5    0  503 -0.29188753862E+02 -0.72451350353E+02  0.50587340922E+02  0.93060521068E+02  0.00000000000E+00 0.  1.
         -3    1    6    6    0  502  0.17130917552E+03  0.29392865912E+03  0.25132858908E+03  0.42297393531E+03  0.00000000000E+00 0.  1.
<mgrwt>
<rscale>  0 0.18337158E+04</rscale>
<asrwt>0</asrwt>
<pdfrwt beam="1">  1        1 0.50384927E-01 0.18337158E+04</pdfrwt>
<pdfrwt beam="2">  1       -1 0.39489052E+00 0.18337158E+04</pdfrwt>
<totfact> 0.57173808E-01</totfact>
</mgrwt>
</event>
<event>
12    1  0.1755460E-007  0.2036763E+04  0.7818608E-02  0.8589623E-01
         -2   -1    0    0    0  501 -0.00000000000E+00  0.00000000000E+00  0.96428841758E+03  0.96428841758E+03  0.00000000000E+00 0. -1.
          2   -1    0    0  501    0  0.00000000000E+00 -0.00000000000E+00 -0.10755086795E+04  0.10755086795E+04  0.00000000000E+00 0.  1.
         23    2    1    2    0    0  0.42721850730E+03 -0.52892807060E+03 -0.49280552452E+03  0.84496295435E+03  0.93939088679E+02 0.  0.
        254    2    1    2    0    0 -0.42721850730E+03  0.52892807060E+03  0.38158526264E+03  0.11948341427E+04  0.90539536062E+03 0.  0.
        -24    2    4    4    0    0 -0.13562781707E+03  0.74310025971E+03  0.27953222582E+03  0.81028310184E+03  0.88473380771E+02 0.  0.
         24    2    4    4    0    0 -0.29159069023E+03 -0.21417218912E+03  0.10205303682E+03  0.38455104085E+03  0.81054447606E+02 0.  0.
         13    1    3    3    0    0  0.62919744308E+02 -0.82628752428E+02 -0.36654263822E+02  0.11013600686E+03  0.00000000000E+00 0. -1.
        -13    1    3    3    0    0  0.36429876299E+03 -0.44629931817E+03 -0.45615126070E+03  0.73482694749E+03  0.00000000000E+00 0.  1.
          4    1    6    6  502    0 -0.20008762753E+03 -0.17301453688E+03  0.42597699128E+02  0.26792471449E+03  0.00000000000E+00 0. -1.
          3    1    5    5  503    0 -0.12013707473E+03  0.42814234016E+03  0.17831735261E+03  0.47909900689E+03  0.00000000000E+00 0. -1.
         -4    1    5    5    0  503 -0.15490742340E+02  0.31495791955E+03  0.10121487321E+03  0.33118409494E+03  0.00000000000E+00 0.  1.
         -3    1    6    6    0  502 -0.91503062701E+02 -0.41157652236E+02  0.59455337694E+02  0.11662632637E+03  0.00000000000E+00 0.  1.
<mgrwt>
<rscale>  0 0.20367627E+04</rscale>
<asrwt>0</asrwt>
<pdfrwt beam="1">  1        2 0.16546287E+00 0.20367627E+04</pdfrwt>
<pdfrwt beam="2">  1       -2 0.14835206E+00 0.20367627E+04</pdfrwt>
<totfact> 0.64477432E+00</totfact>
</mgrwt>
</event>
<event>
12    1  0.1755460E-007  0.1886169E+04  0.7818608E-02  0.8661772E-01
         -2   -1    0    0    0  501 -0.00000000000E+00  0.00000000000E+00  0.78974311326E+03  0.78974311326E+03  0.00000000000E+00 0.  1.
          2   -1    0    0  501    0  0.00000000000E+00 -0.00000000000E+00 -0.11261998515E+04  0.11261998515E+04  0.00000000000E+00 0. -1.
         23    2    1    2    0    0 -0.70486945136E+03 -0.12917205897E+03 -0.20430741806E+03  0.75064183540E+03  0.90527784211E+02 0.  0.
        254    2    1    2    0    0  0.70486945136E+03  0.12917205897E+03 -0.13214932021E+03  0.11653011294E+04  0.90936071777E+03 0.  0.
        -24    2    4    4    0    0  0.49443066716E+03 -0.11254564819E+03  0.32065664457E+03  0.60536941050E+03  0.80766527156E+02 0.  0.
         24    2    4    4    0    0  0.21043878420E+03  0.24171770716E+03 -0.45280596478E+03  0.55993171888E+03  0.76015499852E+02 0.  0.
         13    1    3    3    0    0 -0.31309671913E+03 -0.14489003840E+02 -0.72883610992E+02  0.32179420056E+03  0.00000000000E+00 0.  1.
        -13    1    3    3    0    0 -0.39177273223E+03 -0.11468305513E+03 -0.13142380706E+03  0.42884763485E+03  0.00000000000E+00 0. -1.
          4    1    6    6  502    0  0.18772324014E+03  0.24085347440E+03 -0.40727562372E+03  0.50904208539E+03  0.00000000000E+00 0. -1.
          3    1    5    5  503    0  0.17434936665E+03 -0.52693593855E+02  0.15921561898E+03  0.24191719619E+03  0.00000000000E+00 0. -1.
         -4    1    5    5    0  503  0.32008130051E+03 -0.59852054333E+02  0.16144102558E+03  0.36345221431E+03  0.00000000000E+00 0.  1.
         -3    1    6    6    0  502  0.22715544050E+02  0.86423276277E+00 -0.45530341060E+02  0.50889633490E+02  0.00000000000E+00 0.  1.
<mgrwt>
<rscale>  0 0.18861692E+04</rscale>
<asrwt>0</asrwt>
<pdfrwt beam="1">  1        2 0.17326152E+00 0.18861692E+04</pdfrwt>
<pdfrwt beam="2">  1       -2 0.12149894E+00 0.18861692E+04</pdfrwt>
<totfact> 0.10134450E+01</totfact>
</mgrwt>
</event>
<event>
12    1  0.1755460E-007  0.1433157E+04  0.7818608E-02  0.8930162E-01
          1   -1    0    0  501    0  0.00000000000E+00  0.00000000000E+00  0.74796579062E+03  0.74796579062E+03  0.00000000000E+00 0. -1.
         -1   -1    0    0    0  501 -0.00000000000E+00 -0.00000000000E+00 -0.68650806910E+03  0.68650806910E+03  0.00000000000E+00 0.  1.
         23    2    1    2    0    0 -0.63160168181E+02  0.23704167447E+03  0.36925087309E+03  0.45246571507E+03  0.90559669567E+02 0.  0.
        254    2    1    2    0    0  0.63160168181E+02 -0.23704167447E+03 -0.30779315157E+03  0.98200814466E+03  0.89968072656E+03 0.  0.
        -24    2    4    4    0    0  0.14951518367E+03 -0.38742104174E+03  0.17885655385E+03  0.45902256019E+03  0.79134001418E+02 0.  0.
         24    2    4    4    0    0 -0.86355015491E+02  0.15037936727E+03 -0.48664970542E+03  0.52298558446E+03  0.81331684902E+02 0.  0.
         11    1    3    3    0    0 -0.43569782253E+02  0.96536389540E+02  0.23219507408E+03  0.25521001716E+03  0.00000000000E+00 0.  1.
        -11    1    3    3    0    0 -0.19590385928E+02  0.14050528493E+03  0.13705579901E+03  0.19725569791E+03  0.00000000000E+00 0. -1.
          4    1    6    6  502    0 -0.14070134418E+02  0.81926117134E+02 -0.14511294148E+03  0.16723523294E+03  0.00000000000E+00 0. -1.
          1    1    5    5  503    0  0.56687345632E+02 -0.62189067409E+02  0.43454279465E+02  0.94705911452E+02  0.00000000000E+00 0. -1.
         -2    1    5    5    0  503  0.92827838040E+02 -0.32523197433E+03  0.13540227439E+03  0.36431664874E+03  0.00000000000E+00 0.  1.
         -3    1    6    6    0  502 -0.72284881074E+02  0.68453250132E+02 -0.34153676394E+03  0.35575035153E+03  0.00000000000E+00 0.  1.
<mgrwt>
<rscale>  0 0.14331567E+04</rscale>
<asrwt>0</asrwt>
<pdfrwt beam="1">  1        1 0.11507166E+00 0.14331567E+04</pdfrwt>
<pdfrwt beam="2">  1       -1 0.10561663E+00 0.14331567E+04</pdfrwt>
<totfact> 0.20097042E+01</totfact>
</mgrwt>
</event>
<event>
12    1  0.1755460E-007  0.1135481E+04  0.7818608E-02  0.9171283E-01
          2   -1    0    0  501    0  0.00000000000E+00  0.00000000000E+00  0.84253928642E+03  0.84253928642E+03  0.00000000000E+00 0. -1.
         -2   -1    0    0    0  501 -0.00000000000E+00 -0.00000000000E+00 -0.38256881289E+03  0.38256881289E+03  0.00000000000E+00 0.  1.
         23    2    1    2    0    0 -0.45264401617E+02  0.19874796365E+02  0.30541563269E+03  0.32223375696E+03  0.90066707749E+02 0.  0.
        254    2    1    2    0    0  0.45264401617E+02 -0.19874796365E+02  0.15455484083E+03  0.90287434236E+03  0.88817284673E+03 0.  0.
        -24    2    4    4    0    0 -0.25274032164E+03 -0.48217085922E+02  0.41709324528E+03  0.49652075221E+03  0.79771702726E+02 0.  0.
         24    2    4    4    0    0  0.29800472326E+03  0.28342289557E+02 -0.26253840445E+03  0.40635359015E+03  0.81158646848E+02 0.  0.
         11    1    3    3    0    0  0.17423063264E+02  0.19119119744E+02  0.18178568551E+03  0.18361682747E+03  0.00000000000E+00 0. -1.
        -11    1    3    3    0    0 -0.62687464881E+02  0.75567662160E+00  0.12362994719E+03  0.13861692949E+03  0.00000000000E+00 0.  1.
          2    1    6    6  502    0  0.18146450183E+03  0.51262756542E+02 -0.18716121488E+03  0.26568130531E+03  0.00000000000E+00 0. -1.
          1    1    5    5  503    0 -0.20117224999E+03 -0.69359581073E+02  0.34579620115E+03  0.40602467706E+03  0.00000000000E+00 0. -1.
         -2    1    5    5    0  503 -0.51568071656E+02  0.21142495151E+02  0.71297044126E+02  0.90496075145E+02  0.00000000000E+00 0.  1.
         -1    1    6    6    0  502  0.11654022143E+03 -0.22920466985E+02 -0.75377189564E+02  0.14067228484E+03  0.00000000000E+00 0.  1.
<mgrwt>
<rscale>  0 0.11354810E+04</rscale>
<asrwt>0</asrwt>
<pdfrwt beam="1">  1        2 0.12962143E+00 0.11354810E+04</pdfrwt>
<pdfrwt beam="2">  1       -2 0.58856741E-01 0.11354810E+04</pdfrwt>
<totfact> 0.85869678E+01</totfact>
</mgrwt>
</event>
<event>
12    1  0.1755460E-007  0.1357024E+04  0.7818608E-02  0.8985528E-01
         -1   -1    0    0    0  501 -0.00000000000E+00  0.00000000000E+00  0.95550449095E+03  0.95550449095E+03  0.00000000000E+00 0.  1.
          1   -1    0    0  501    0  0.00000000000E+00 -0.00000000000E+00 -0.48181743053E+03  0.48181743053E+03  0.00000000000E+00 0. -1.
         23    2    1    2    0    0  0.29745578934E+03  0.49425117673E+02  0.36587566413E+03  0.48322829086E+03  0.93390527433E+02 0.  0.
        254    2    1    2    0    0 -0.29745578934E+03 -0.49425117673E+02  0.10781139629E+03  0.95409363062E+03  0.89874833516E+03 0.  0.
        -24    2    4    4    0    0  0.10043964178E+03 -0.29757252021E+03 -0.20613584280E+03  0.38414870877E+03  0.80254086125E+02 0.  0.
         24    2    4    4    0    0 -0.39789543112E+03  0.24814740253E+03  0.31394723909E+03  0.56994492185E+03  0.79852598706E+02 0.  0.
         13    1    3    3    0    0 -0.61570390096E+01  0.46568459358E+00  0.13799674815E+01  0.63269504310E+01  0.00000000000E+00 0. -1.
        -13    1    3    3    0    0  0.30361282835E+03  0.48959433080E+02  0.36449569665E+03  0.47690134043E+03  0.00000000000E+00 0.  1.
          2    1    6    6  502    0 -0.18771492387E+03  0.16058226116E+03  0.14524358762E+03  0.28656457386E+03  0.00000000000E+00 0. -1.
          1    1    5    5  503    0  0.95573714359E+01 -0.23914211213E+02  0.56619746360E+01  0.26368367478E+02  0.00000000000E+00 0. -1.
         -2    1    5    5    0  503  0.90882270346E+02 -0.27365830899E+03 -0.21179781743E+03  0.35778034129E+03  0.00000000000E+00 0.  1.
         -1    1    6    6    0  502 -0.21018050725E+03  0.87565141371E+02  0.16870365146E+03  0.28338034799E+03  0.00000000000E+00 0.  1.
<mgrwt>
<rscale>  0 0.13570243E+04</rscale>
<asrwt>0</asrwt>
<pdfrwt beam="1">  1        1 0.74125759E-01 0.13570243E+04</pdfrwt>
<pdfrwt beam="2">  1       -1 0.14700069E+00 0.13570243E+04</pdfrwt>
<totfact> 0.16811127E+01</totfact>
</mgrwt>
</event>
<event>
12    1  0.1755460E-007  0.1664030E+04  0.7818608E-02  0.8782149E-01
         -1   -1    0    0    0  501 -0.00000000000E+00  0.00000000000E+00  0.30227282010E+03  0.30227282010E+03  0.00000000000E+00 0.  1.
          1   -1    0    0  501    0  0.00000000000E+00 -0.00000000000E+00 -0.22901469788E+04  0.22901469788E+04  0.00000000000E+00 0. -1.
         23    2    1    2    0    0 -0.21489035072E+03 -0.15375541844E+02  0.14201918802E+03  0.27358531434E+03  0.90913169222E+02 0.  0.
        254    2    1    2    0    0  0.21489035072E+03  0.15375541844E+02 -0.21298933467E+04  0.23188344845E+04  0.89114164320E+03 0.  0.
        -24    2    4    4    0    0  0.98756517623E+02  0.13845710586E+03 -0.21226334764E+04  0.21309449709E+04  0.80189611771E+02 0.  0.
         24    2    4    4    0    0  0.11613383309E+03 -0.12308156402E+03 -0.72598702642E+01  0.18788951362E+03  0.81324197043E+02 0.  0.
         13    1    3    3    0    0 -0.71036584113E+02 -0.10760468439E+01  0.15928237117E+00  0.71044912064E+02  0.00000000000E+00 0. -1.
        -13    1    3    3    0    0 -0.14385376660E+03 -0.14299495000E+02  0.14185990565E+03  0.20254040227E+03  0.00000000000E+00 0.  1.
          2    1    6    6  502    0  0.14442753242E+02 -0.39489079806E+02  0.29322660240E+02  0.51262061495E+02  0.00000000000E+00 0. -1.
          3    1    5    5  503    0  0.19073161433E+02  0.69586616861E+01 -0.80121873456E+02  0.82654238037E+02  0.00000000000E+00 0. -1.
         -4    1    5    5    0  503  0.79683356190E+02  0.13149844417E+03 -0.20425116030E+04  0.20482907329E+04  0.00000000000E+00 0.  1.
         -1    1    6    6    0  502  0.10169107985E+03 -0.83592484210E+02 -0.36582530505E+02  0.13662745213E+03  0.00000000000E+00 0.  1.
<mgrwt>
<rscale>  0 0.16640303E+04</rscale>
<asrwt>0</asrwt>
<pdfrwt beam="1">  1        1 0.35233030E+00 0.16640303E+04</pdfrwt>
<pdfrwt beam="2">  1       -1 0.46503511E-01 0.16640303E+04</pdfrwt>
<totfact> 0.83161374E+00</totfact>
</mgrwt>
</event>
<event>
12    1  0.1755460E-007  0.1556031E+04  0.7818608E-02  0.8848025E-01
          1   -1    0    0  501    0  0.00000000000E+00  0.00000000000E+00  0.86835249265E+03  0.86835249265E+03  0.00000000000E+00 0. -1.
         -1   -1    0    0    0  501 -0.00000000000E+00 -0.00000000000E+00 -0.69707664264E+03  0.69707664264E+03  0.00000000000E+00 0.  1.
         23    2    1    2    0    0 -0.13284809902E+03 -0.36420329929E+03  0.39153963002E+03  0.55902741561E+03  0.94423031607E+02 0.  0.
        254    2    1    2    0    0  0.13284809902E+03  0.36420329929E+03 -0.22026378002E+03  0.10064017197E+04  0.90223922989E+03 0.  0.
        -24    2    4    4    0    0  0.30260725488E+03  0.59715079800E+03 -0.21441803780E+03  0.70704977008E+03  0.76052982714E+02 0.  0.
         24    2    4    4    0    0 -0.16975915586E+03 -0.23294749871E+03 -0.58457422264E+01  0.29935194960E+03  0.80589756636E+02 0.  0.
         11    1    3    3    0    0 -0.73375175141E+02 -0.15273298885E+03  0.23309386693E+03  0.28817361609E+03  0.00000000000E+00 0. -1.
        -11    1    3    3    0    0 -0.59472923880E+02 -0.21147031044E+03  0.15844576309E+03  0.27085379952E+03  0.00000000000E+00 0.  1.
          4    1    6    6  502    0 -0.58386833817E+02 -0.33652953711E+02  0.18148350785E+02  0.69791878417E+02  0.00000000000E+00 0. -1.
          3    1    5    5  503    0  0.22111373643E+03  0.50145679330E+03 -0.17231690232E+03  0.57449396412E+03  0.00000000000E+00 0. -1.
         -4    1    5    5    0  503  0.81493518458E+02  0.95694004697E+02 -0.42101135473E+02  0.13255580596E+03  0.00000000000E+00 0.  1.
         -3    1    6    6    0  502 -0.11137232205E+03 -0.19929454499E+03 -0.23994093011E+02  0.22956007118E+03  0.00000000000E+00 0.  1.
<mgrwt>
<rscale>  0 0.15560312E+04</rscale>
<asrwt>0</asrwt>
<pdfrwt beam="1">  1        1 0.13359269E+00 0.15560312E+04</pdfrwt>
<pdfrwt beam="2">  1       -1 0.10724256E+00 0.15560312E+04</pdfrwt>
<totfact> 0.15086493E+01</totfact>
</mgrwt>
</event>
<event>
12    1  0.1755460E-007  0.1950756E+04  0.7818608E-02  0.8629996E-01
          1   -1    0    0  501    0  0.00000000000E+00  0.00000000000E+00  0.38591507078E+03  0.38591507078E+03  0.00000000000E+00 0. -1.
         -1   -1    0    0    0  501 -0.00000000000E+00 -0.00000000000E+00 -0.24652122156E+04  0.24652122156E+04  0.00000000000E+00 0.  1.
         23    2    1    2    0    0  0.52549713869E+02  0.36145215223E+03 -0.17209119737E+04  0.17613544652E+04  0.86153352796E+02 0.  0.
        254    2    1    2    0    0 -0.52549713869E+02 -0.36145215223E+03 -0.35838517117E+03  0.10897728212E+04  0.96216201345E+03 0.  0.
        -24    2    4    4    0    0  0.32384288773E+03 -0.50201206498E+03 -0.30946032440E+03  0.67713277720E+03  0.76503439574E+02 0.  0.
         24    2    4    4    0    0 -0.37639260160E+03  0.14055991275E+03 -0.48924846771E+02  0.41264004399E+03  0.80309935015E+02 0.  0.
         13    1    3    3    0    0 -0.23464043717E+02  0.63147798703E+02 -0.29593909487E+03  0.30350972588E+03  0.00000000000E+00 0. -1.
        -13    1    3    3    0    0  0.76013757585E+02  0.29830435353E+03 -0.14249728788E+04  0.14578447393E+04  0.00000000000E+00 0.  1.
          4    1    6    6  502    0 -0.10959794788E+03  0.30015658623E+02 -0.49256889111E+02  0.12385027681E+03  0.00000000000E+00 0. -1.
          3    1    5    5  503    0  0.50582431975E+02 -0.13676222937E+03 -0.84328378031E+02  0.16844513988E+03  0.00000000000E+00 0. -1.
         -4    1    5    5    0  503  0.27326045576E+03 -0.36524983561E+03 -0.22513194637E+03  0.50868763732E+03  0.00000000000E+00 0.  1.
         -3    1    6    6    0  502 -0.26679465372E+03  0.11054425412E+03  0.33204233973E+00  0.28878976718E+03  0.00000000000E+00 0.  1.
<mgrwt>
<rscale>  0 0.19507563E+04</rscale>
<asrwt>0</asrwt>
<pdfrwt beam="1">  1        1 0.59371548E-01 0.19507563E+04</pdfrwt>
<pdfrwt beam="2">  1       -1 0.37926343E+00 0.19507563E+04</pdfrwt>
<totfact> 0.58142745E-01</totfact>
</mgrwt>
</event>
<event>
12    1  0.1755460E-007  0.1239404E+04  0.7818608E-02  0.9079048E-01
         -2   -1    0    0    0  501 -0.00000000000E+00  0.00000000000E+00  0.30002607335E+03  0.30002607335E+03  0.00000000000E+00 0. -1.
          2   -1    0    0  501    0  0.00000000000E+00 -0.00000000000E+00 -0.12799913179E+04  0.12799913179E+04  0.00000000000E+00 0.  1.
         23    2    1    2    0    0  0.16546198718E+03  0.84972098456E+02  0.43563305202E+02  0.21230751368E+03  0.92621768980E+02 0.  0.
        254    2    1    2    0    0 -0.16546198718E+03 -0.84972098456E+02 -0.10235285498E+04  0.13677098776E+04  0.88793112928E+03 0.  0.
        -24    2    4    4    0    0  0.24972882050E+03  0.16086372509E+02 -0.70998241295E+01  0.26285789386E+03  0.80128707035E+02 0.  0.
         24    2    4    4    0    0 -0.41519080768E+03 -0.10105847096E+03 -0.10164287256E+04  0.11048519837E+04  0.70528932512E+02 0.  0.
         11    1    3    3    0    0  0.12292248777E+03  0.10306291119E+03  0.24358952725E+02  0.16225060937E+03  0.00000000000E+00 0. -1.
        -11    1    3    3    0    0  0.42539499404E+02 -0.18090812737E+02  0.19204352477E+02  0.50056904309E+02  0.00000000000E+00 0.  1.
          4    1    6    6  502    0 -0.20024225636E+03 -0.35430313190E+02 -0.39982546805E+03  0.44856735640E+03  0.00000000000E+00 0. -1.
          1    1    5    5  503    0  0.88538378895E+02 -0.54793811483E+01 -0.39384233523E+02  0.97057642694E+02  0.00000000000E+00 0. -1.
         -2    1    5    5    0  503  0.16119044161E+03  0.21565753657E+02  0.32284409393E+02  0.16580025116E+03  0.00000000000E+00 0.  1.
         -3    1    6    6    0  502 -0.21494855132E+03 -0.65628157775E+02 -0.61660325757E+03  0.65628462732E+03  0.00000000000E+00 0.  1.
<mgrwt>
<rscale>  0 0.12394043E+04</rscale>
<asrwt>0</asrwt>
<pdfrwt beam="1">  1        2 0.19692174E+00 0.12394043E+04</pdfrwt>
<pdfrwt beam="2">  1       -2 0.46157857E-01 0.12394043E+04</pdfrwt>
<totfact> 0.74355697E+01</totfact>
</mgrwt>
</event>
<event>
12    1  0.1755460E-007  0.1874394E+04  0.7818608E-02  0.8667708E-01
          2   -1    0    0  501    0  0.00000000000E+00  0.00000000000E+00  0.42397912591E+03  0.42397912591E+03  0.00000000000E+00 0. -1.
         -2   -1    0    0    0  501 -0.00000000000E+00 -0.00000000000E+00 -0.20716543737E+04  0.20716543737E+04  0.00000000000E+00 0.  1.
         23    2    1    2    0    0 -0.49644970041E+03 -0.49037569252E+03 -0.41693566657E+03  0.81858907562E+03  0.96551021796E+02 0.  0.
        254    2    1    2    0    0  0.49644970041E+03  0.49037569252E+03 -0.12307395812E+04  0.16770444240E+04  0.90045958178E+03 0.  0.
        -24    2    4    4    0    0  0.37164693787E+03 -0.16923422785E+03 -0.25318652892E+03  0.48843246768E+03  0.87756405805E+02 0.  0.
         24    2    4    4    0    0  0.12480276254E+03  0.65960992038E+03 -0.97755305233E+03  0.11886119563E+04  0.80792549245E+02 0.  0.
         13    1    3    3    0    0 -0.74547643056E+02 -0.84987926711E+02 -0.11057582659E+03  0.15813700452E+03  0.00000000000E+00 0.  1.
        -13    1    3    3    0    0 -0.42190205735E+03 -0.40538776581E+03 -0.30635983998E+03  0.66045207110E+03  0.00000000000E+00 0. -1.
          2    1    6    6  502    0  0.11170792091E+03  0.59420761283E+03 -0.83183182899E+03  0.10283508830E+04  0.00000000000E+00 0. -1.
          3    1    5    5  503    0  0.30099449759E+03 -0.16400748683E+03 -0.23400713167E+03  0.41503672246E+03  0.00000000000E+00 0. -1.
         -4    1    5    5    0  503  0.70652440277E+02 -0.52267410285E+01 -0.19179397247E+02  0.73395745228E+02  0.00000000000E+00 0.  1.
         -1    1    6    6    0  502  0.13094841627E+02  0.65402307545E+02 -0.14572122334E+03  0.16026107338E+03  0.00000000000E+00 0.  1.
<mgrwt>
<rscale>  0 0.18743940E+04</rscale>
<asrwt>0</asrwt>
<pdfrwt beam="1">  1        2 0.65227557E-01 0.18743940E+04</pdfrwt>
<pdfrwt beam="2">  1       -2 0.31871606E+00 0.18743940E+04</pdfrwt>
<totfact> 0.17071630E+00</totfact>
</mgrwt>
</event>
<event>
12    1  0.1755460E-007  0.1808312E+04  0.7818608E-02  0.8701892E-01
          2   -1    0    0  501    0  0.00000000000E+00  0.00000000000E+00  0.85205155680E+03  0.85205155680E+03  0.00000000000E+00 0. -1.
         -2   -1    0    0    0  501 -0.00000000000E+00 -0.00000000000E+00 -0.95944691893E+03  0.95944691893E+03  0.00000000000E+00 0.  1.
         23    2    1    2    0    0 -0.45885342165E+03  0.75835582972E+02 -0.54794647900E+03  0.72408378987E+03  0.88059597461E+02 0.  0.
        254    2    1    2    0    0  0.45885342165E+03 -0.75835582972E+02  0.44055111687E+03  0.10874146859E+04  0.87868533289E+03 0.  0.
        -24    2    4    4    0    0  0.40389779007E+03 -0.44863647664E+03  0.25631536699E+03  0.66039754651E+03  0.77583755296E+02 0.  0.
         24    2    4    4    0    0  0.54955631574E+02  0.37280089367E+03  0.18423574988E+03  0.42701713935E+03  0.80001237476E+02 0.  0.
         13    1    3    3    0    0 -0.34032355745E+02 -0.53558638884E+00 -0.12343048583E+02  0.36205509783E+02  0.00000000000E+00 0. -1.
        -13    1    3    3    0    0 -0.42482106590E+03  0.76371169361E+02 -0.53560343042E+03  0.68787828009E+03  0.00000000000E+00 0.  1.
          2    1    6    6  502    0  0.69501651980E+02  0.21480583247E+03  0.12163333759E+03  0.25645017860E+03  0.00000000000E+00 0. -1.
          3    1    5    5  503    0  0.20069660274E+03 -0.27993088566E+03  0.13981049336E+03  0.37173566032E+03  0.00000000000E+00 0. -1.
         -4    1    5    5    0  503  0.20320118734E+03 -0.16870559098E+03  0.11650487362E+03  0.28866188619E+03  0.00000000000E+00 0.  1.
         -1    1    6    6    0  502 -0.14546020406E+02  0.15799506120E+03  0.62602412298E+02  0.17056696075E+03  0.00000000000E+00 0.  1.
<mgrwt>
<rscale>  0 0.18083122E+04</rscale>
<asrwt>0</asrwt>
<pdfrwt beam="1">  1        2 0.13108486E+00 0.18083122E+04</pdfrwt>
<pdfrwt beam="2">  1       -2 0.14760722E+00 0.18083122E+04</pdfrwt>
<totfact> 0.93283420E+00</totfact>
</mgrwt>
</event>
<event>
12    1  0.1755460E-007  0.1646162E+04  0.7818608E-02  0.8792680E-01
          1   -1    0    0  501    0  0.00000000000E+00  0.00000000000E+00  0.20570384801E+04  0.20570384801E+04  0.00000000000E+00 0. -1.
         -1   -1    0    0    0  501 -0.00000000000E+00 -0.00000000000E+00 -0.32933874919E+03  0.32933874919E+03  0.00000000000E+00 0.  1.
         23    2    1    2    0    0 -0.28503783799E+03 -0.24484262220E+03 -0.17165330405E+02  0.38681706507E+03  0.90212607404E+02 0.  0.
        254    2    1    2    0    0  0.28503783799E+03  0.24484262220E+03  0.17448650613E+04  0.19995601642E+04  0.90138354179E+03 0.  0.
        -24    2    4    4    0    0 -0.21472257344E+02  0.48871662219E+03  0.55292667627E+03  0.74252395294E+03  0.79428689578E+02 0.  0.
         24    2    4    4    0    0  0.30651009533E+03 -0.24387399999E+03  0.11919383850E+04  0.12570362113E+04  0.77459384819E+02 0.  0.
         13    1    3    3    0    0 -0.10310063895E+03 -0.43865993091E+02 -0.28053278002E+02  0.11550304545E+03  0.00000000000E+00 0. -1.
        -13    1    3    3    0    0 -0.18193719904E+03 -0.20097662911E+03  0.10887947597E+02  0.27131401962E+03  0.00000000000E+00 0.  1.
          4    1    6    6  502    0  0.11875410885E+03 -0.13204818717E+03  0.61372661834E+03  0.63890501967E+03  0.00000000000E+00 0. -1.
          1    1    5    5  503    0  0.21917926545E+02  0.68004046399E+02  0.62646751620E+02  0.95024003911E+02  0.00000000000E+00 0. -1.
         -4    1    5    5    0  503 -0.43390183889E+02  0.42071257579E+03  0.49027992465E+03  0.64749994903E+03  0.00000000000E+00 0.  1.
         -3    1    6    6    0  502  0.18775598649E+03 -0.11182581282E+03  0.57821176670E+03  0.61813119160E+03  0.00000000000E+00 0.  1.
<mgrwt>
<rscale>  0 0.16461622E+04</rscale>
<asrwt>0</asrwt>
<pdfrwt beam="1">  1        1 0.31646745E+00 0.16461622E+04</pdfrwt>
<pdfrwt beam="2">  1       -1 0.50667501E-01 0.16461622E+04</pdfrwt>
<totfact> 0.10201282E+01</totfact>
</mgrwt>
</event>
<event>
12    1  0.1755460E-007  0.1258225E+04  0.7818608E-02  0.9063366E-01
          2   -1    0    0  501    0  0.00000000000E+00  0.00000000000E+00  0.14674232132E+04  0.14674232132E+04  0.00000000000E+00 0.  1.
         -2   -1    0    0    0  501 -0.00000000000E+00 -0.00000000000E+00 -0.26971243606E+03  0.26971243606E+03  0.00000000000E+00 0. -1.
         23    2    1    2    0    0 -0.24266689221E+03 -0.15108985125E+03  0.41867875235E+03  0.51511624023E+03  0.91309799855E+02 0.  0.
        254    2    1    2    0    0  0.24266689221E+03  0.15108985125E+03  0.77903202481E+03  0.12220194091E+04  0.89706475615E+03 0.  0.
        -24    2    4    4    0    0  0.44600082715E+03 -0.22444880015E+03  0.39110258872E+03  0.63923152932E+03  0.79760337630E+02 0.  0.
         24    2    4    4    0    0 -0.20333393494E+03  0.37553865141E+03  0.38792943609E+03  0.58278787975E+03  0.82331631784E+02 0.  0.
         11    1    3    3    0    0 -0.23682916137E+03 -0.12194720915E+03  0.34651772006E+03  0.43707402555E+03  0.00000000000E+00 0.  1.
        -11    1    3    3    0    0 -0.58377308372E+01 -0.29142642107E+02  0.72161032299E+02  0.78042214684E+02  0.00000000000E+00 0. -1.
          4    1    6    6  502    0 -0.14805823741E+03  0.18831127258E+03  0.22143877814E+03  0.32621696692E+03  0.00000000000E+00 0. -1.
          3    1    5    5  503    0  0.44156732668E+02 -0.51421381320E+02  0.60558096812E+02  0.90891465971E+02  0.00000000000E+00 0. -1.
         -4    1    5    5    0  503  0.40184409449E+03 -0.17302741883E+03  0.33054449190E+03  0.54834006334E+03  0.00000000000E+00 0.  1.
         -1    1    6    6    0  502 -0.55275697529E+02  0.18722737883E+03  0.16649065796E+03  0.25657091282E+03  0.00000000000E+00 0.  1.
<mgrwt>
<rscale>  0 0.12582246E+04</rscale>
<asrwt>0</asrwt>
<pdfrwt beam="1">  1        2 0.22575741E+00 0.12582246E+04</pdfrwt>
<pdfrwt beam="2">  1       -2 0.41494222E-01 0.12582246E+04</pdfrwt>
<totfact> 0.71605452E+01</totfact>
</mgrwt>
</event>
<event>
12    1  0.1755460E-007  0.1394269E+04  0.7818608E-02  0.8957978E-01
          2   -1    0    0  501    0  0.00000000000E+00  0.00000000000E+00  0.50594939859E+03  0.50594939859E+03  0.00000000000E+00 0. -1.
         -2   -1    0    0    0  501 -0.00000000000E+00 -0.00000000000E+00 -0.96056306547E+03  0.96056306547E+03  0.00000000000E+00 0.  1.
         23    2    1    2    0    0 -0.35303627070E+03  0.86221852008E+02  0.49705679258E+02  0.37809732459E+03  0.91750292197E+02 0.  0.
        254    2    1    2    0    0  0.35303627070E+03 -0.86221852008E+02 -0.50431934613E+03  0.10884151395E+04  0.89344316929E+03 0.  0.
        -24    2    4    4    0    0  0.57441028830E+03  0.18043324452E+03 -0.35357224423E+03  0.70207605171E+03  0.73444642118E+02 0.  0.
         24    2    4    4    0    0 -0.22137401760E+03 -0.26665509653E+03 -0.15074710191E+03  0.38633908777E+03  0.80136170557E+02 0.  0.
         13    1    3    3    0    0 -0.27477698751E+03  0.27850130506E+02  0.48796233042E+02  0.28046228800E+03  0.00000000000E+00 0. -1.
        -13    1    3    3    0    0 -0.78259283193E+02  0.58371721503E+02  0.90944621638E+00  0.97635036588E+02  0.00000000000E+00 0.  1.
          2    1    6    6  502    0 -0.15914766667E+03 -0.21464223859E+03 -0.14740668283E+03  0.30516880663E+03  0.00000000000E+00 0. -1.
          1    1    5    5  503    0  0.43006504667E+03  0.12862242051E+03 -0.22588860915E+03  0.50251898986E+03  0.00000000000E+00 0. -1.
         -2    1    5    5    0  503  0.14434524163E+03  0.51810824003E+02 -0.12768363508E+03  0.19955706184E+03  0.00000000000E+00 0.  1.
         -1    1    6    6    0  502 -0.62226350937E+02 -0.52012857932E+02 -0.33404190748E+01  0.81170281142E+02  0.00000000000E+00 0.  1.
<mgrwt>
<rscale>  0 0.13942687E+04</rscale>
<asrwt>0</asrwt>
<pdfrwt beam="1">  1        2 0.77838369E-01 0.13942687E+04</pdfrwt>
<pdfrwt beam="2">  1       -2 0.14777893E+00 0.13942687E+04</pdfrwt>
<totfact> 0.18417447E+01</totfact>
</mgrwt>
</event>
<event>
12    1  0.1755460E-007  0.1796411E+04  0.7818608E-02  0.8708210E-01
          2   -1    0    0  501    0  0.00000000000E+00  0.00000000000E+00  0.16943447481E+04  0.16943447481E+04  0.00000000000E+00 0.  1.
         -2   -1    0    0    0  501 -0.00000000000E+00 -0.00000000000E+00 -0.47615657428E+03  0.47615657428E+03  0.00000000000E+00 0. -1.
         23    2    1    2    0    0 -0.62172134527E+03  0.14457033218E+03  0.21357979635E+03  0.67917250024E+03  0.90669419153E+02 0.  0.
        254    2    1    2    0    0  0.62172134527E+03 -0.14457033218E+03  0.10046083774E+04  0.14913288221E+04  0.89854641033E+03 0.  0.
        -24    2    4    4    0    0  0.70192783706E+03  0.11677936725E+03  0.96845120853E+03  0.12044150842E+04  0.79861397352E+02 0.  0.
         24    2    4    4    0    0 -0.80206491793E+02 -0.26134969942E+03  0.36157168903E+02  0.28691373786E+03  0.79217456402E+02 0.  0.
         13    1    3    3    0    0 -0.54008716117E+02 -0.12837865619E+02  0.21259472839E+02  0.59445078818E+02  0.00000000000E+00 0.  1.
        -13    1    3    3    0    0 -0.56771262915E+03  0.15740819779E+03  0.19232032351E+03  0.61972742142E+03  0.00000000000E+00 0. -1.
          4    1    6    6  502    0 -0.18600285737E+02 -0.87491925708E+02 -0.24506990011E+02  0.92743734306E+02  0.00000000000E+00 0. -1.
          1    1    5    5  503    0  0.49545307564E+03  0.70569137088E+02  0.73669539740E+03  0.89060308883E+03  0.00000000000E+00 0. -1.
         -2    1    5    5    0  503  0.20647476142E+03  0.46210230158E+02  0.23175581113E+03  0.31381199542E+03  0.00000000000E+00 0.  1.
         -3    1    6    6    0  502 -0.61606206057E+02 -0.17385777371E+03  0.60664158914E+02  0.19417000356E+03  0.00000000000E+00 0.  1.
<mgrwt>
<rscale>  0 0.17964113E+04</rscale>
<asrwt>0</asrwt>
<pdfrwt beam="1">  1        2 0.26066842E+00 0.17964113E+04</pdfrwt>
<pdfrwt beam="2">  1       -2 0.73254859E-01 0.17964113E+04</pdfrwt>
<totfact> 0.15691184E+01</totfact>
</mgrwt>
</event>
<event>
12    1  0.1755460E-007  0.1763524E+04  0.7818608E-02  0.8725941E-01
          1   -1    0    0  501    0  0.00000000000E+00  0.00000000000E+00  0.15788735367E+04  0.15788735367E+04  0.00000000000E+00 0. -1.
         -1   -1    0    0    0  501 -0.00000000000E+00 -0.00000000000E+00 -0.49244263785E+03  0.49244263785E+03  0.00000000000E+00 0.  1.
         23    2    1    2    0    0  0.45848769192E+03 -0.15245112382E+03 -0.10675321658E+03  0.50339180680E+03  0.92491908382E+02 0.  0.
        254    2    1    2    0    0 -0.45848769192E+03  0.15245112382E+03  0.11931841155E+04  0.15679243678E+04  0.89512355622E+03 0.  0.
        -24    2    4    4    0    0 -0.41676002875E+03  0.39945421596E+03  0.33894079407E+03  0.67412839793E+03  0.79471018566E+02 0.  0.
         24    2    4    4    0    0 -0.41727663164E+02 -0.24700309215E+03  0.85424332139E+03  0.89379596985E+03  0.79924077562E+02 0.  0.
         11    1    3    3    0    0  0.39644733863E+03 -0.12070291987E+03 -0.12210466049E+03  0.43202920652E+03  0.00000000000E+00 0.  1.
        -11    1    3    3    0    0  0.62040353291E+02 -0.31748203944E+02  0.15351443907E+02  0.71362600290E+02  0.00000000000E+00 0. -1.
          2    1    6    6  502    0 -0.39371232560E+02 -0.10606767074E+03  0.26913598047E+03  0.29194968866E+03  0.00000000000E+00 0. -1.
          1    1    5    5  503    0 -0.27365158086E+03  0.31178241980E+03  0.23710886666E+03  0.47782222599E+03  0.00000000000E+00 0. -1.
         -2    1    5    5    0  503 -0.14310844789E+03  0.87671796169E+02  0.10183192741E+03  0.19630617194E+03  0.00000000000E+00 0.  1.
         -1    1    6    6    0  502 -0.23564306041E+01 -0.14093542141E+03  0.58510734092E+03  0.60184628118E+03  0.00000000000E+00 0.  1.
<mgrwt>
<rscale>  0 0.17635245E+04</rscale>
<asrwt>0</asrwt>
<pdfrwt beam="1">  1        1 0.24290362E+00 0.17635245E+04</pdfrwt>
<pdfrwt beam="2">  1       -1 0.75760407E-01 0.17635245E+04</pdfrwt>
<totfact> 0.95596374E+00</totfact>
</mgrwt>
</event>
<event>
12    1  0.1755460E-007  0.1845807E+04  0.7818608E-02  0.8682312E-01
          2   -1    0    0  501    0  0.00000000000E+00  0.00000000000E+00  0.91908567863E+03  0.91908567863E+03  0.00000000000E+00 0. -1.
         -2   -1    0    0    0  501 -0.00000000000E+00 -0.00000000000E+00 -0.92673731830E+03  0.92673731830E+03  0.00000000000E+00 0.  1.
         23    2    1    2    0    0  0.59288225654E+03 -0.27431339863E+03  0.24911627411E+03  0.70519090610E+03  0.92076518363E+02 0.  0.
        254    2    1    2    0    0 -0.59288225654E+03  0.27431339863E+03 -0.25676791378E+03  0.11406320908E+04  0.89908542102E+03 0.  0.
        -24    2    4    4    0    0 -0.57244736977E+03 -0.13754543115E+03 -0.37701990982E+03  0.70382147934E+03  0.81276845342E+02 0.  0.
         24    2    4    4    0    0 -0.20434886762E+02  0.41185882979E+03  0.12025199604E+03  0.43681061149E+03  0.79357970517E+02 0.  0.
         11    1    3    3    0    0  0.33146118117E+03 -0.14667383897E+03  0.18642536385E+03  0.40759556665E+03  0.00000000000E+00 0.  1.
        -11    1    3    3    0    0  0.26142107536E+03 -0.12763955966E+03  0.62690910260E+02  0.29759533945E+03  0.00000000000E+00 0. -1.
          4    1    6    6  502    0 -0.48157432924E+02  0.18626999061E+03  0.47598262381E+02  0.19819496040E+03  0.00000000000E+00 0. -1.
          1    1    5    5  503    0 -0.68495566395E+02 -0.21310772359E+02 -0.17153455454E+02  0.73756577119E+02  0.00000000000E+00 0. -1.
         -2    1    5    5    0  503 -0.50395180338E+03 -0.11623465880E+03 -0.35986645437E+03  0.63006490222E+03  0.00000000000E+00 0.  1.
         -3    1    6    6    0  502  0.27722546161E+02  0.22558883918E+03  0.72653733658E+02  0.23861565108E+03  0.00000000000E+00 0.  1.
<mgrwt>
<rscale>  0 0.18458071E+04</rscale>
<asrwt>0</asrwt>
<pdfrwt beam="1">  1        2 0.14139780E+00 0.18458071E+04</pdfrwt>
<pdfrwt beam="2">  1       -2 0.14257497E+00 0.18458071E+04</pdfrwt>
<totfact> 0.91688039E+00</totfact>
</mgrwt>
</event>
<event>
12    1  0.1755460E-007  0.2102492E+04  0.7818608E-02  0.8560146E-01
         -1   -1    0    0    0  501 -0.00000000000E+00  0.00000000000E+00  0.86260339895E+03  0.86260339895E+03  0.00000000000E+00 0. -1.
          1   -1    0    0  501    0  0.00000000000E+00 -0.00000000000E+00 -0.12811431232E+04  0.12811431232E+04  0.00000000000E+00 0.  1.
         23    2    1    2    0    0  0.35838114994E+03  0.71595991526E+03  0.13547689827E+03  0.81717454021E+03  0.91567408526E+02 0.  0.
        254    2    1    2    0    0 -0.35838114994E+03 -0.71595991526E+03 -0.55401662252E+03  0.13265719819E+04  0.90101229535E+03 0.  0.
        -24    2    4    4    0    0 -0.88839170709E+02  0.48940605775E+02  0.18558982497E+03  0.22604025837E+03  0.79768628712E+02 0.  0.
         24    2    4    4    0    0 -0.26954197924E+03 -0.76490052104E+03 -0.73960644749E+03  0.11005317236E+04  0.80166650050E+02 0.  0.
         13    1    3    3    0    0  0.10701589734E+03  0.17788364046E+03 -0.18848464789E+01  0.20760188938E+03  0.00000000000E+00 0.  1.
        -13    1    3    3    0    0  0.25136525260E+03  0.53807627481E+03  0.13736174475E+03  0.60957265083E+03  0.00000000000E+00 0. -1.
          2    1    6    6  502    0 -0.65330373465E+02 -0.29486520075E+03 -0.25649962819E+03  0.39623932613E+03  0.00000000000E+00 0. -1.
          1    1    5    5  503    0 -0.10131322153E+03  0.54146440428E+02  0.17230883790E+03  0.20709066007E+03  0.00000000000E+00 0. -1.
         -2    1    5    5    0  503  0.12474050823E+02 -0.52058346530E+01  0.13280987068E+02  0.18949598304E+02  0.00000000000E+00 0.  1.
         -1    1    6    6    0  502 -0.20421160577E+03 -0.47003532028E+03 -0.48310681930E+03  0.70429239745E+03  0.00000000000E+00 0.  1.
<mgrwt>
<rscale>  0 0.21024922E+04</rscale>
<asrwt>0</asrwt>
<pdfrwt beam="1">  1        1 0.19709894E+00 0.21024922E+04</pdfrwt>
<pdfrwt beam="2">  1       -1 0.13270821E+00 0.21024922E+04</pdfrwt>
<totfact> 0.41297569E+00</totfact>
</mgrwt>
</event>
<event>
12    1  0.1755460E-007  0.1172448E+04  0.7818608E-02  0.9137321E-01
          2   -1    0    0  501    0  0.00000000000E+00  0.00000000000E+00  0.30028899039E+04  0.30028899039E+04  0.00000000000E+00 0. -1.
         -2   -1    0    0    0  501 -0.00000000000E+00 -0.00000000000E+00 -0.11444261615E+03  0.11444261615E+03  0.00000000000E+00 0.  1.
         23    2    1    2    0    0  0.11455513149E+03 -0.40723561677E+02  0.11139116181E+04  0.11256688802E+04  0.10747115112E+03 0.  0.
        254    2    1    2    0    0 -0.11455513149E+03  0.40723561677E+02  0.17745356696E+04  0.19916636398E+04  0.89608365947E+03 0.  0.
        -24    2    4    4    0    0 -0.41901468664E+03  0.26917741354E+03  0.84236713618E+03  0.98172036933E+03  0.78502890774E+02 0.  0.
         24    2    4    4    0    0  0.30445955515E+03 -0.22845385186E+03  0.93216853344E+03  0.10099432705E+04  0.78488545113E+02 0.  0.
         13    1    3    3    0    0  0.53313671134E+02  0.76155095006E-01  0.15451194688E+03  0.16345120085E+03  0.00000000000E+00 0.  1.
        -13    1    3    3    0    0  0.61241460353E+02 -0.40799716772E+02  0.95939967121E+03  0.96221767936E+03  0.00000000000E+00 0. -1.
          2    1    6    6  502    0  0.39514509201E+02 -0.17758668899E+01  0.10984816803E+03  0.11675260237E+03  0.00000000000E+00 0. -1.
          3    1    5    5  503    0 -0.29796594739E+03  0.15983195786E+03  0.51702086511E+03  0.61777061723E+03  0.00000000000E+00 0. -1.
         -4    1    5    5    0  503 -0.12104873925E+03  0.10934545567E+03  0.32534627107E+03  0.36394975210E+03  0.00000000000E+00 0.  1.
         -1    1    6    6    0  502  0.26494504595E+03 -0.22667798497E+03  0.82232036541E+03  0.89319066812E+03  0.00000000000E+00 0.  1.
<mgrwt>
<rscale>  0 0.11724480E+04</rscale>
<asrwt>0</asrwt>
<pdfrwt beam="1">  1        2 0.46198300E+00 0.11724480E+04</pdfrwt>
<pdfrwt beam="2">  1       -2 0.17606559E-01 0.11724480E+04</pdfrwt>
<totfact> 0.46474506E+01</totfact>
</mgrwt>
</event>
<event>
12    1  0.1755460E-007  0.1459542E+04  0.7818608E-02  0.8911812E-01
         -2   -1    0    0    0  501 -0.00000000000E+00  0.00000000000E+00  0.38004453612E+03  0.38004453612E+03  0.00000000000E+00 0.  1.
          2   -1    0    0  501    0  0.00000000000E+00 -0.00000000000E+00 -0.14013254084E+04  0.14013254084E+04  0.00000000000E+00 0. -1.
         23    2    1    2    0    0  0.16730937011E+01 -0.32067173561E+03 -0.27205357782E+03  0.43031377124E+03  0.91233936961E+02 0.  0.
        254    2    1    2    0    0 -0.16730937011E+01  0.32067173561E+03 -0.74922729447E+03  0.13510561733E+04  0.10775797341E+04 0.  0.
        -24    2    4    4    0    0  0.36457830186E+03 -0.24337919400E+03 -0.26199803442E+03  0.51695779374E+03  0.80321978395E+02 0.  0.
         24    2    4    4    0    0 -0.36625139556E+03  0.56405092961E+03 -0.48722926006E+03  0.83409837954E+03  0.77680235318E+02 0.  0.
         11    1    3    3    0    0  0.67255505861E+01  0.45400130398E+01 -0.56697239624E+01  0.98990160571E+01  0.00000000000E+00 0. -1.
        -11    1    3    3    0    0 -0.50524568850E+01 -0.32521174865E+03 -0.26638385386E+03  0.42041475518E+03  0.00000000000E+00 0.  1.
          4    1    6    6  502    0 -0.10233858742E+03  0.13621099373E+03 -0.16385739365E+03  0.23638076643E+03  0.00000000000E+00 0. -1.
          1    1    5    5  503    0  0.12088607036E+03 -0.12023982136E+03 -0.12544404065E+03  0.21167726373E+03  0.00000000000E+00 0. -1.
         -2    1    5    5    0  503  0.24369223151E+03 -0.12313937264E+03 -0.13655399377E+03  0.30528053001E+03  0.00000000000E+00 0.  1.
         -3    1    6    6    0  502 -0.26391280815E+03  0.42783993588E+03 -0.32337186641E+03  0.59771761311E+03  0.00000000000E+00 0.  1.
<mgrwt>
<rscale>  0 0.14595425E+04</rscale>
<asrwt>0</asrwt>
<pdfrwt beam="1">  1        2 0.21558852E+00 0.14595425E+04</pdfrwt>
<pdfrwt beam="2">  1       -2 0.58468391E-01 0.14595425E+04</pdfrwt>
<totfact> 0.38286589E+01</totfact>
</mgrwt>
</event>
<event>
12    1  0.1755460E-007  0.2321225E+04  0.7818608E-02  0.8469599E-01
         -1   -1    0    0    0  501 -0.00000000000E+00  0.00000000000E+00  0.17593276731E+04  0.17593276731E+04  0.00000000000E+00 0.  1.
          1   -1    0    0  501    0  0.00000000000E+00 -0.00000000000E+00 -0.76564547057E+03  0.76564547057E+03  0.00000000000E+00 0. -1.
         23    2    1    2    0    0 -0.17978948622E+03  0.68682655064E+02  0.14786647889E+04  0.14939709085E+04  0.91967120768E+02 0.  0.
        254    2    1    2    0    0  0.17978948622E+03 -0.68682655064E+02 -0.48498258631E+03  0.10310022351E+04  0.88922209453E+03 0.  0.
        -24    2    4    4    0    0 -0.14393346897E+03  0.11887991027E+03  0.17512124204E+03  0.26800442046E+03  0.79433263951E+02 0.  0.
         24    2    4    4    0    0  0.32372295519E+03 -0.18756256533E+03 -0.66010382835E+03  0.76299781468E+03  0.80326417727E+02 0.  0.
         13    1    3    3    0    0 -0.58016659451E+02 -0.26289291156E+01  0.71666982780E+03  0.71901911388E+03  0.00000000000E+00 0.  1.
        -13    1    3    3    0    0 -0.12177282677E+03  0.71311584179E+02  0.76199496105E+03  0.77495179466E+03  0.00000000000E+00 0. -1.
          4    1    6    6  502    0  0.43684537729E+02 -0.60057126815E+02 -0.11085463599E+03  0.13343143422E+03  0.00000000000E+00 0. -1.
          1    1    5    5  503    0 -0.17665723546E+02  0.61811621179E+02  0.53554722900E+02  0.83671157791E+02  0.00000000000E+00 0. -1.
         -2    1    5    5    0  503 -0.12626774542E+03  0.57068289093E+02  0.12156651914E+03  0.18433326267E+03  0.00000000000E+00 0.  1.
         -3    1    6    6    0  502  0.28003841746E+03 -0.12750543852E+03 -0.54924919236E+03  0.62956638046E+03  0.00000000000E+00 0.  1.
<mgrwt>
<rscale>  0 0.23212249E+04</rscale>
<asrwt>0</asrwt>
<pdfrwt beam="1">  1        1 0.11779161E+00 0.23212249E+04</pdfrwt>
<pdfrwt beam="2">  1       -1 0.27066579E+00 0.23212249E+04</pdfrwt>
<totfact> 0.10944552E+00</totfact>
</mgrwt>
</event>
<event>
12    1  0.1755460E-007  0.1389980E+04  0.7818608E-02  0.8961104E-01
          1   -1    0    0  501    0  0.00000000000E+00  0.00000000000E+00  0.72243073311E+03  0.72243073311E+03  0.00000000000E+00 0. -1.
         -1   -1    0    0    0  501 -0.00000000000E+00 -0.00000000000E+00 -0.66859150680E+03  0.66859150680E+03  0.00000000000E+00 0.  1.
         23    2    1    2    0    0  0.37519604559E+03  0.89005524180E+02  0.11736376236E+03  0.41292532212E+03  0.89660543005E+02 0.  0.
        254    2    1    2    0    0 -0.37519604559E+03 -0.89005524180E+02 -0.63524536044E+02  0.97809691778E+03  0.89662933141E+03 0.  0.
        -24    2    4    4    0    0 -0.59174565429E+03 -0.29600726053E+03 -0.42596900034E+02  0.66771947080E+03  0.79066921862E+02 0.  0.
         24    2    4    4    0    0  0.21654960870E+03  0.20700173635E+03 -0.20927636010E+02  0.31037744698E+03  0.78439414603E+02 0.  0.
         13    1    3    3    0    0  0.93944267956E+02  0.95673035157E+01 -0.83097958045E+01  0.94795102641E+02  0.00000000000E+00 0.  1.
        -13    1    3    3    0    0  0.28125177763E+03  0.79438220665E+02  0.12567355816E+03  0.31813021948E+03  0.00000000000E+00 0. -1.
          2    1    6    6  502    0  0.13774866855E+03  0.94767332863E+02  0.17088535636E+02  0.16807010774E+03  0.00000000000E+00 0. -1.
          3    1    5    5  503    0 -0.36364422562E+03 -0.14781997329E+03 -0.49315685124E+02  0.39562596493E+03  0.00000000000E+00 0. -1.
         -4    1    5    5    0  503 -0.22810142868E+03 -0.14818728724E+03  0.67187850903E+01  0.27209350587E+03  0.00000000000E+00 0.  1.
         -1    1    6    6    0  502  0.78800940155E+02  0.11223440349E+03 -0.38016171646E+02  0.14230733924E+03  0.00000000000E+00 0.  1.
<mgrwt>
<rscale>  0 0.13899799E+04</rscale>
<asrwt>0</asrwt>
<pdfrwt beam="1">  1        1 0.11114319E+00 0.13899799E+04</pdfrwt>
<pdfrwt beam="2">  1       -1 0.10286023E+00 0.13899799E+04</pdfrwt>
<totfact> 0.22633359E+01</totfact>
</mgrwt>
</event>
<event>
12    1  0.1755460E-007  0.3447349E+04  0.7818608E-02  0.8126382E-01
         -1   -1    0    0    0  501 -0.00000000000E+00  0.00000000000E+00  0.27432556015E+04  0.27432556015E+04  0.00000000000E+00 0.  1.
          1   -1    0    0  501    0  0.00000000000E+00 -0.00000000000E+00 -0.10830395979E+04  0.10830395979E+04  0.00000000000E+00 0. -1.
         23    2    1    2    0    0 -0.70146627461E+03  0.90949207101E+03 -0.46989153405E+03  0.12448260441E+04  0.97790923260E+02 0.  0.
        254    2    1    2    0    0  0.70146627461E+03 -0.90949207101E+03  0.21301075377E+04  0.25814691553E+04  0.89855112034E+03 0.  0.
        -24    2    4    4    0    0  0.89350397373E+03 -0.78013678905E+03  0.15650569167E+04  0.19655513935E+04  0.83823428111E+02 0.  0.
         24    2    4    4    0    0 -0.19203769912E+03 -0.12935528197E+03  0.56505062101E+03  0.61591776184E+03  0.80381703065E+02 0.  0.
         13    1    3    3    0    0 -0.64336930981E+03  0.83900454952E+03 -0.40248402783E+03  0.11313028311E+04  0.00000000000E+00 0. -1.
        -13    1    3    3    0    0 -0.58096964802E+02  0.70487521493E+02 -0.67407506216E+02  0.11352321304E+03  0.00000000000E+00 0.  1.
          2    1    6    6  502    0 -0.19655967052E+03 -0.12510843460E+03  0.56312220457E+03  0.60942139917E+03  0.00000000000E+00 0. -1.
          1    1    5    5  503    0  0.43308415241E+03 -0.37612518661E+03  0.68777584287E+03  0.89558229610E+03  0.00000000000E+00 0. -1.
         -2    1    5    5    0  503  0.46041982133E+03 -0.40401160244E+03  0.87728107385E+03  0.10699690974E+04  0.00000000000E+00 0.  1.
         -1    1    6    6    0  502  0.45219714039E+01 -0.42468473687E+01  0.19284164371E+01  0.64963626673E+01  0.00000000000E+00 0.  1.
<mgrwt>
<rscale>  0 0.34473494E+04</rscale>
<asrwt>0</asrwt>
<pdfrwt beam="1">  1        1 0.16662148E+00 0.34473494E+04</pdfrwt>
<pdfrwt beam="2">  1       -1 0.42203932E+00 0.34473494E+04</pdfrwt>
<totfact> 0.53963437E-02</totfact>
</mgrwt>
</event>
<event>
12    1  0.1755460E-007  0.1860945E+04  0.7818608E-02  0.8674545E-01
         -1   -1    0    0    0  501 -0.00000000000E+00  0.00000000000E+00  0.42369100498E+03  0.42369100498E+03  0.00000000000E+00 0.  1.
          1   -1    0    0  501    0  0.00000000000E+00 -0.00000000000E+00 -0.20434203079E+04  0.20434203079E+04  0.00000000000E+00 0. -1.
         23    2    1    2    0    0  0.14930518543E+03  0.49120584266E+03 -0.12731910736E+04  0.13768015808E+04  0.10484209423E+03 0.  0.
        254    2    1    2    0    0 -0.14930518543E+03 -0.49120584266E+03 -0.34653822928E+03  0.10903097320E+04  0.89727997257E+03 0.  0.
        -24    2    4    4    0    0 -0.30384357011E+03 -0.19490672293E+03  0.21813142331E+03  0.42928106845E+03  0.79946057837E+02 0.  0.
         24    2    4    4    0    0  0.15453838468E+03 -0.29629911973E+03 -0.56466965258E+03  0.66102866359E+03  0.80198484026E+02 0.  0.
         13    1    3    3    0    0  0.65091703198E+02  0.37414599363E+03 -0.92828996332E+03  0.10029678013E+04  0.00000000000E+00 0. -1.
        -13    1    3    3    0    0  0.84213482229E+02  0.11705984903E+03 -0.34490111030E+03  0.37383377955E+03  0.00000000000E+00 0.  1.
          2    1    6    6  502    0  0.63471049383E+02 -0.20118378396E+03 -0.37210623289E+03  0.42774587969E+03  0.00000000000E+00 0. -1.
          3    1    5    5  503    0 -0.21538393568E+03 -0.13048438734E+03  0.19227058175E+03  0.31683495971E+03  0.00000000000E+00 0. -1.
         -4    1    5    5    0  503 -0.88459634430E+02 -0.64422335589E+02  0.25860841552E+02  0.11244610875E+03  0.00000000000E+00 0.  1.
         -3    1    6    6    0  502  0.91067335296E+02 -0.95115335769E+02 -0.19256341969E+03  0.23328278389E+03  0.00000000000E+00 0.  1.
<mgrwt>
<rscale>  0 0.18609447E+04</rscale>
<asrwt>0</asrwt>
<pdfrwt beam="1">  1        1 0.31437235E+00 0.18609447E+04</pdfrwt>
<pdfrwt beam="2">  1       -1 0.65183232E-01 0.18609447E+04</pdfrwt>
<totfact> 0.62371573E+00</totfact>
</mgrwt>
</event>
<event>
12    1  0.1755460E-007  0.1268331E+04  0.7818608E-02  0.9055063E-01
          2   -1    0    0  501    0  0.00000000000E+00  0.00000000000E+00  0.29294934728E+04  0.29294934728E+04  0.00000000000E+00 0.  1.
         -2   -1    0    0    0  501 -0.00000000000E+00 -0.00000000000E+00 -0.13728176664E+03  0.13728176664E+03  0.00000000000E+00 0. -1.
         23    2    1    2    0    0 -0.27384587610E+03 -0.93088221627E+02  0.96084443308E+03  0.10074306920E+04  0.89652627615E+02 0.  0.
        254    2    1    2    0    0  0.27384587610E+03  0.93088221627E+02  0.18313672731E+04  0.20593445475E+04  0.89629063118E+03 0.  0.
        -24    2    4    4    0    0  0.83573871596E+02  0.20706599150E+03  0.28451657322E+02  0.24106106250E+03  0.86255563300E+02 0.  0.
         24    2    4    4    0    0  0.19027200450E+03 -0.11397776987E+03  0.18029156158E+04  0.18182834850E+04  0.80347660583E+02 0.  0.
         13    1    3    3    0    0 -0.13064292909E+03 -0.50941468986E+02  0.61433101019E+03  0.63013109609E+03  0.00000000000E+00 0. -1.
        -13    1    3    3    0    0 -0.14320294700E+03 -0.42146752642E+02  0.34651342289E+03  0.37729959586E+03  0.00000000000E+00 0.  1.
          4    1    6    6  502    0 -0.27799667755E+01 -0.15001746580E+02  0.59639672359E+02  0.61560304863E+02  0.00000000000E+00 0. -1.
          3    1    5    5  503    0 -0.52103676633E+01 -0.81297970737E-01  0.14328608328E+02  0.15246755627E+02  0.00000000000E+00 0. -1.
         -2    1    5    5    0  503  0.88784239259E+02  0.20714728947E+03  0.14123048994E+02  0.22581430687E+03  0.00000000000E+00 0.  1.
         -3    1    6    6    0  502  0.19305197128E+03 -0.98976023289E+02  0.17432759434E+04  0.17567231801E+04  0.00000000000E+00 0.  1.
<mgrwt>
<rscale>  0 0.12683312E+04</rscale>
<asrwt>0</asrwt>
<pdfrwt beam="1">  1        2 0.45069126E+00 0.12683312E+04</pdfrwt>
<pdfrwt beam="2">  1       -2 0.21120274E-01 0.12683312E+04</pdfrwt>
<totfact> 0.37149308E+01</totfact>
</mgrwt>
</event>
<event>
12    1  0.1755460E-007  0.1792753E+04  0.7818608E-02  0.8710163E-01
          1   -1    0    0  501    0  0.00000000000E+00  0.00000000000E+00  0.15223279621E+04  0.15223279621E+04  0.00000000000E+00 0. -1.
         -1   -1    0    0    0  501 -0.00000000000E+00 -0.00000000000E+00 -0.52780394274E+03  0.52780394274E+03  0.00000000000E+00 0.  1.
         23    2    1    2    0    0 -0.10014144341E+03  0.88081686956E+02  0.11411510808E+04  0.11524648147E+04  0.90347482504E+02 0.  0.
        254    2    1    2    0    0  0.10014144341E+03 -0.88081686956E+02 -0.14662706142E+03  0.89766709019E+03  0.87551128914E+03 0.  0.
        -24    2    4    4    0    0  0.20837831046E+03 -0.42670467825E+03 -0.21436750166E+03  0.52709738591E+03  0.79873811432E+02 0.  0.
         24    2    4    4    0    0 -0.10823686705E+03  0.33862299129E+03  0.67740440247E+02  0.37056970428E+03  0.79701874908E+02 0.  0.
         13    1    3    3    0    0 -0.65268606974E+02  0.32119612357E+02  0.29842610894E+03  0.30716413048E+03  0.00000000000E+00 0. -1.
        -13    1    3    3    0    0 -0.34872836431E+02  0.55962074599E+02  0.84272497189E+03  0.84530068423E+03  0.00000000000E+00 0.  1.
          2    1    6    6  502    0 -0.83389879488E+02  0.25038566918E+03  0.85065700637E+02  0.27727789086E+03  0.00000000000E+00 0. -1.
          1    1    5    5  503    0  0.19741314820E+03 -0.41359652380E+03 -0.18731050191E+03  0.49509520267E+03  0.00000000000E+00 0. -1.
         -2    1    5    5    0  503  0.10965162252E+02 -0.13108154453E+02 -0.27056999753E+02  0.32002183239E+02  0.00000000000E+00 0.  1.
         -1    1    6    6    0  502 -0.24846987563E+02  0.88237322111E+02 -0.17325260390E+02  0.93291813424E+02  0.00000000000E+00 0.  1.
<mgrwt>
<rscale>  0 0.17927529E+04</rscale>
<asrwt>0</asrwt>
<pdfrwt beam="1">  1        1 0.23420430E+00 0.17927529E+04</pdfrwt>
<pdfrwt beam="2">  1       -1 0.81200607E-01 0.17927529E+04</pdfrwt>
<totfact> 0.90057093E+00</totfact>
</mgrwt>
</event>
<event>
12    1  0.1755460E-007  0.1897401E+04  0.7818608E-02  0.8656151E-01
         -2   -1    0    0    0  501 -0.00000000000E+00  0.00000000000E+00  0.77709650555E+03  0.77709650555E+03  0.00000000000E+00 0.  1.
          2   -1    0    0  501    0  0.00000000000E+00 -0.00000000000E+00 -0.11581998374E+04  0.11581998374E+04  0.00000000000E+00 0. -1.
         23    2    1    2    0    0 -0.34568185436E+03  0.62234475783E+03 -0.31868565500E+03  0.78588750155E+03  0.96175237821E+02 0.  0.
        254    2    1    2    0    0  0.34568185436E+03 -0.62234475783E+03 -0.62417676810E+02  0.11494088414E+04  0.90024206533E+03 0.  0.
        -24    2    4    4    0    0  0.55397215734E+03 -0.87379425894E+02 -0.58852701283E+02  0.56951437688E+03  0.79766345316E+02 0.  0.
         24    2    4    4    0    0 -0.20829030298E+03 -0.53496533193E+03 -0.35649755270E+01  0.57989446448E+03  0.81805404490E+02 0.  0.
         11    1    3    3    0    0 -0.26476222156E+03  0.50018957396E+03 -0.21078650062E+03  0.60392018737E+03  0.00000000000E+00 0.  1.
        -11    1    3    3    0    0 -0.80919632794E+02  0.12215518387E+03 -0.10789915438E+03  0.18196731419E+03  0.00000000000E+00 0. -1.
          4    1    6    6  502    0 -0.16346326242E+03 -0.44016266185E+03 -0.33816827273E+02  0.47075151073E+03  0.00000000000E+00 0. -1.
          3    1    5    5  503    0  0.52738841025E+03 -0.82045634109E+02 -0.37583253304E+02  0.53505375644E+03  0.00000000000E+00 0. -1.
         -4    1    5    5    0  503  0.26583747084E+02 -0.53337917849E+01 -0.21269447979E+02  0.34460620441E+02  0.00000000000E+00 0.  1.
         -3    1    6    6    0  502 -0.44827040560E+02 -0.94802670084E+02  0.30251851746E+02  0.10914295376E+03  0.00000000000E+00 0.  1.
<mgrwt>
<rscale>  0 0.18974014E+04</rscale>
<asrwt>0</asrwt>
<pdfrwt beam="1">  1        2 0.17818459E+00 0.18974014E+04</pdfrwt>
<pdfrwt beam="2">  1       -2 0.11955331E+00 0.18974014E+04</pdfrwt>
<totfact> 0.10078301E+01</totfact>
</mgrwt>
</event>
<event>
12    1  0.1755460E-007  0.1122588E+04  0.7818608E-02  0.9183451E-01
          1   -1    0    0  501    0  0.00000000000E+00  0.00000000000E+00  0.13251464001E+04  0.13251464001E+04  0.00000000000E+00 0. -1.
         -1   -1    0    0    0  501 -0.00000000000E+00 -0.00000000000E+00 -0.23774813586E+03  0.23774813586E+03  0.00000000000E+00 0.  1.
         23    2    1    2    0    0 -0.16923184151E+03  0.65592699702E+02  0.14640880134E+03  0.25008582736E+03  0.90363518627E+02 0.  0.
        254    2    1    2    0    0  0.16923184151E+03 -0.65592699702E+02  0.94098946294E+03  0.13128087086E+04  0.89725343002E+03 0.  0.
        -24    2    4    4    0    0  0.40595739840E+03 -0.14083947366E+03  0.12283421169E+03  0.45403846544E+03  0.80159328116E+02 0.  0.
         24    2    4    4    0    0 -0.23672555689E+03  0.75246773959E+02  0.81815525125E+03  0.85877024319E+03  0.80045294523E+02 0.  0.
         13    1    3    3    0    0 -0.14731251582E+03  0.66002196021E+02  0.15748898892E+03  0.22552172584E+03  0.00000000000E+00 0. -1.
        -13    1    3    3    0    0 -0.21919325698E+02 -0.40949631815E+00 -0.11080187583E+02  0.24564101513E+02  0.00000000000E+00 0.  1.
          2    1    6    6  502    0 -0.70440389702E+02  0.59556597796E+02  0.24563098578E+03  0.26238029273E+03  0.00000000000E+00 0. -1.
          3    1    5    5  503    0  0.38704880099E+03 -0.14834063466E+03  0.12648630794E+03  0.43337109310E+03  0.00000000000E+00 0. -1.
         -4    1    5    5    0  503  0.18908597411E+02  0.75011610016E+01 -0.36520962558E+01  0.20667372341E+02  0.00000000000E+00 0.  1.
         -1    1    6    6    0  502 -0.16628516718E+03  0.15690176163E+02  0.57252426547E+03  0.59638995046E+03  0.00000000000E+00 0.  1.
<mgrwt>
<rscale>  0 0.11225882E+04</rscale>
<asrwt>0</asrwt>
<pdfrwt beam="1">  1        1 0.20386867E+00 0.11225882E+04</pdfrwt>
<pdfrwt beam="2">  1       -1 0.36576637E-01 0.11225882E+04</pdfrwt>
<totfact> 0.61863767E+01</totfact>
</mgrwt>
</event>
<event>
12    1  0.1755460E-007  0.1633897E+04  0.7818608E-02  0.8799990E-01
         -2   -1    0    0    0  501 -0.00000000000E+00  0.00000000000E+00  0.17419736650E+03  0.17419736650E+03  0.00000000000E+00 0.  1.
          2   -1    0    0  501    0  0.00000000000E+00 -0.00000000000E+00 -0.38313138857E+04  0.38313138857E+04  0.00000000000E+00 0. -1.
         23    2    1    2    0    0 -0.15532655271E+03  0.28571093292E+03 -0.15229955712E+03  0.36954600961E+03  0.87246907966E+02 0.  0.
        254    2    1    2    0    0  0.15532655271E+03 -0.28571093292E+03 -0.35048169620E+04  0.36359652426E+04  0.91145171703E+03 0.  0.
        -24    2    4    4    0    0  0.83073629199E+02 -0.28881089103E+03 -0.30958230094E+03  0.43891905958E+03  0.80596409081E+02 0.  0.
         24    2    4    4    0    0  0.72252923515E+02  0.30999581051E+01 -0.31952346611E+04  0.31970461830E+04  0.79684765923E+02 0.  0.
         13    1    3    3    0    0 -0.70328456848E+02  0.13556972440E+03 -0.11950761951E+03  0.19392605069E+03  0.00000000000E+00 0. -1.
        -13    1    3    3    0    0 -0.84998095865E+02  0.15014120852E+03 -0.32791937609E+02  0.17561995892E+03  0.00000000000E+00 0.  1.
          2    1    6    6  502    0 -0.13160776656E+02  0.16368210626E+02 -0.69858272453E+03  0.69889838130E+03  0.00000000000E+00 0. -1.
          1    1    5    5  503    0  0.68980051128E+02 -0.20438926905E+03 -0.26720723527E+03  0.34341363883E+03  0.00000000000E+00 0. -1.
         -2    1    5    5    0  503  0.14093578071E+02 -0.84421621982E+02 -0.42375065677E+02  0.95505420747E+02  0.00000000000E+00 0.  1.
         -1    1    6    6    0  502  0.85413700171E+02 -0.13268252521E+02 -0.24966519366E+04  0.24981478017E+04  0.00000000000E+00 0.  1.
<mgrwt>
<rscale>  0 0.16338969E+04</rscale>
<asrwt>0</asrwt>
<pdfrwt beam="1">  1        2 0.58943290E+00 0.16338969E+04</pdfrwt>
<pdfrwt beam="2">  1       -2 0.26799595E-01 0.16338969E+04</pdfrwt>
<totfact> 0.57092405E+00</totfact>
</mgrwt>
</event>
<event>
12    1  0.1755460E-007  0.1148078E+04  0.7818608E-02  0.9159558E-01
          1   -1    0    0  501    0  0.00000000000E+00  0.00000000000E+00  0.97238580955E+03  0.97238580955E+03  0.00000000000E+00 0. -1.
         -1   -1    0    0    0  501 -0.00000000000E+00 -0.00000000000E+00 -0.33887879019E+03  0.33887879019E+03  0.00000000000E+00 0.  1.
         23    2    1    2    0    0 -0.19485684726E+03 -0.43449780443E+01  0.10468283856E+03  0.23825848623E+03  0.88433816011E+02 0.  0.
        254    2    1    2    0    0  0.19485684726E+03  0.43449780443E+01  0.52882418080E+03  0.10730061135E+04  0.91307121061E+03 0.  0.
        -24    2    4    4    0    0  0.19018827301E+03  0.42599998061E+03  0.13862962782E+03  0.49303689640E+03  0.78864724847E+02 0.  0.
         24    2    4    4    0    0  0.46685742459E+01 -0.42165500257E+03  0.39019455298E+03  0.57996921710E+03  0.79358470473E+02 0.  0.
         13    1    3    3    0    0 -0.16960233008E+03  0.66451575360E+00  0.12049043034E+03  0.20804647498E+03  0.00000000000E+00 0.  1.
        -13    1    3    3    0    0 -0.25254517184E+02 -0.50094937979E+01 -0.15807591775E+02  0.30212011254E+02  0.00000000000E+00 0. -1.
          2    1    6    6  502    0  0.12459501299E+02 -0.16619039524E+03  0.20577195262E+03  0.26479536084E+03  0.00000000000E+00 0. -1.
          1    1    5    5  503    0  0.17126090206E+03  0.33867150978E+03  0.85308876070E+02  0.38898109523E+03  0.00000000000E+00 0. -1.
         -2    1    5    5    0  503  0.18927370956E+02  0.87328470837E+02  0.53320751749E+02  0.10405580117E+03  0.00000000000E+00 0.  1.
         -1    1    6    6    0  502 -0.77909270528E+01 -0.25546460733E+03  0.18442260036E+03  0.31517385626E+03  0.00000000000E+00 0.  1.
<mgrwt>
<rscale>  0 0.11480783E+04</rscale>
<asrwt>0</asrwt>
<pdfrwt beam="1">  1        1 0.14959782E+00 0.11480783E+04</pdfrwt>
<pdfrwt beam="2">  1       -1 0.52135199E-01 0.11480783E+04</pdfrwt>
<totfact> 0.58530753E+01</totfact>
</mgrwt>
</event>
<event>
12    1  0.1755460E-007  0.1500205E+04  0.7818608E-02  0.8884317E-01
         -1   -1    0    0    0  501 -0.00000000000E+00  0.00000000000E+00  0.41781254757E+03  0.41781254757E+03  0.00000000000E+00 0.  1.
          1   -1    0    0  501    0  0.00000000000E+00 -0.00000000000E+00 -0.13466648303E+04  0.13466648303E+04  0.00000000000E+00 0. -1.
         23    2    1    2    0    0  0.26760556564E+03 -0.64468579023E+02 -0.76622106017E+03  0.81933740475E+03  0.91924606780E+02 0.  0.
        254    2    1    2    0    0 -0.26760556564E+03  0.64468579023E+02 -0.16263122260E+03  0.94513997315E+03  0.88942212579E+03 0.  0.
        -24    2    4    4    0    0  0.19712024883E+03  0.30150228702E+03 -0.19081185729E+03  0.41513690504E+03  0.78545932246E+02 0.  0.
         24    2    4    4    0    0 -0.46472581447E+03 -0.23703370800E+03  0.28180634688E+02  0.53000306811E+03  0.89185439765E+02 0.  0.
         13    1    3    3    0    0  0.10229861036E+03 -0.60473987297E+02 -0.24107917006E+03  0.26877737081E+03  0.00000000000E+00 0. -1.
        -13    1    3    3    0    0  0.16530695528E+03 -0.39945917257E+01 -0.52514189011E+03  0.55056003394E+03  0.00000000000E+00 0.  1.
          2    1    6    6  502    0 -0.28928618882E+03 -0.15140372446E+03 -0.25587085618E+02  0.32751226812E+03  0.00000000000E+00 0. -1.
          3    1    5    5  503    0  0.46479893289E+02  0.98387395554E+02 -0.21797268142E+02  0.11097558733E+03  0.00000000000E+00 0. -1.
         -4    1    5    5    0  503  0.15064035554E+03  0.20311489147E+03 -0.16901458914E+03  0.30416131772E+03  0.00000000000E+00 0.  1.
         -1    1    6    6    0  502 -0.17543962565E+03 -0.85629983541E+02  0.53767720306E+02  0.20249079998E+03  0.00000000000E+00 0.  1.
<mgrwt>
<rscale>  0 0.15002046E+04</rscale>
<asrwt>0</asrwt>
<pdfrwt beam="1">  1        1 0.20717921E+00 0.15002046E+04</pdfrwt>
<pdfrwt beam="2">  1       -1 0.64278853E-01 0.15002046E+04</pdfrwt>
<totfact> 0.19892059E+01</totfact>
</mgrwt>
</event>
<event>
12    1  0.1755460E-007  0.4700672E+04  0.7818608E-02  0.7876417E-01
          2   -1    0    0  501    0  0.00000000000E+00  0.00000000000E+00  0.30399666429E+04  0.30399666429E+04  0.00000000000E+00 0. -1.
         -2   -1    0    0    0  501 -0.00000000000E+00 -0.00000000000E+00 -0.18171514746E+04  0.18171514746E+04  0.00000000000E+00 0.  1.
         23    2    1    2    0    0  0.20803572556E+04 -0.51402053619E+03  0.13445546787E+04  0.25310105144E+04  0.77996905473E+02 0.  0.
        254    2    1    2    0    0 -0.20803572556E+04  0.51402053619E+03 -0.12173951042E+03  0.23261076032E+04  0.89657830154E+03 0.  0.
        -24    2    4    4    0    0 -0.64482979896E+03 -0.24504880578E+03  0.60899270321E+01  0.69498316874E+03  0.84321591382E+02 0.  0.
         24    2    4    4    0    0 -0.14355274566E+04  0.75906934197E+03 -0.12782943745E+03  0.16311244345E+04  0.85447124000E+02 0.  0.
         13    1    3    3    0    0  0.20269528574E+04 -0.49946032843E+03  0.13235943052E+04  0.24718212699E+04  0.00000000000E+00 0. -1.
        -13    1    3    3    0    0  0.53404398215E+02 -0.14560207764E+02  0.20960373478E+02  0.59189244421E+02  0.00000000000E+00 0.  1.
          4    1    6    6  502    0 -0.87172087046E+03  0.45149566479E+03 -0.36174373155E+02  0.98237172017E+03  0.00000000000E+00 0. -1.
          3    1    5    5  503    0 -0.76221194113E+00  0.29347957300E+01 -0.36636084906E+01  0.47556303675E+01  0.00000000000E+00 0. -1.
         -4    1    5    5    0  503 -0.64406758702E+03 -0.24798360151E+03  0.97535355227E+01  0.69022753837E+03  0.00000000000E+00 0.  1.
         -3    1    6    6    0  502 -0.56380658616E+03  0.30757367718E+03 -0.91655064296E+02  0.64875271429E+03  0.00000000000E+00 0.  1.
<mgrwt>
<rscale>  0 0.47006722E+04</rscale>
<asrwt>0</asrwt>
<pdfrwt beam="1">  1        2 0.46768718E+00 0.47006722E+04</pdfrwt>
<pdfrwt beam="2">  1       -2 0.27956177E+00 0.47006722E+04</pdfrwt>
<totfact> 0.51875315E-02</totfact>
</mgrwt>
</event>
<event>
12    1  0.1755460E-007  0.2577066E+04  0.7818608E-02  0.8376033E-01
         -1   -1    0    0    0  501 -0.00000000000E+00  0.00000000000E+00  0.51589121000E+03  0.51589121000E+03  0.00000000000E+00 0.  1.
          1   -1    0    0  501    0  0.00000000000E+00 -0.00000000000E+00 -0.32183469079E+04  0.32183469079E+04  0.00000000000E+00 0. -1.
         23    2    1    2    0    0  0.46894565390E+03 -0.81897036366E+03 -0.21346595012E+04  0.23357235329E+04  0.90613205985E+02 0.  0.
        254    2    1    2    0    0 -0.46894565390E+03  0.81897036366E+03 -0.56779619661E+03  0.13985145849E+04  0.86187472439E+03 0.  0.
        -24    2    4    4    0    0 -0.73393383136E+02 -0.17330867038E+03 -0.12005660182E+03  0.23732992993E+03  0.80556961721E+02 0.  0.
         24    2    4    4    0    0 -0.39555227077E+03  0.99227903404E+03 -0.44773959479E+03  0.11611846550E+04  0.82460766360E+02 0.  0.
         11    1    3    3    0    0  0.35442734551E+02 -0.54466843433E+02 -0.98658388044E+02  0.11813679358E+03  0.00000000000E+00 0.  1.
        -11    1    3    3    0    0  0.43350291935E+03 -0.76450352022E+03 -0.20360011132E+04  0.22175867393E+04  0.00000000000E+00 0. -1.
          4    1    6    6  502    0 -0.39118207372E+03  0.93019470426E+03 -0.42438220422E+03  0.10947081154E+04  0.00000000000E+00 0. -1.
          1    1    5    5  503    0 -0.53042172358E+02 -0.13259033162E+03 -0.45326475598E+02  0.14982709194E+03  0.00000000000E+00 0. -1.
         -2    1    5    5    0  503 -0.20351210778E+02 -0.40718338759E+02 -0.74730126220E+02  0.87502837990E+02  0.00000000000E+00 0.  1.
         -3    1    6    6    0  502 -0.43701970465E+01  0.62084329774E+02 -0.23357390566E+02  0.66476539619E+02  0.00000000000E+00 0.  1.
<mgrwt>
<rscale>  0 0.25770657E+04</rscale>
<asrwt>0</asrwt>
<pdfrwt beam="1">  1        1 0.49513030E+00 0.25770657E+04</pdfrwt>
<pdfrwt beam="2">  1       -1 0.79367878E-01 0.25770657E+04</pdfrwt>
<totfact> 0.57655358E-01</totfact>
</mgrwt>
</event>
<event>
12    1  0.1755460E-007  0.1960773E+04  0.7818608E-02  0.8625183E-01
         -1   -1    0    0    0  501 -0.00000000000E+00  0.00000000000E+00  0.48491669311E+03  0.48491669311E+03  0.00000000000E+00 0.  1.
          1   -1    0    0  501    0  0.00000000000E+00 -0.00000000000E+00 -0.19821085228E+04  0.19821085228E+04  0.00000000000E+00 0. -1.
         23    2    1    2    0    0  0.56478728341E+03 -0.15692166861E+03  0.37203925771E+02  0.59426094100E+03  0.90293124443E+02 0.  0.
        254    2    1    2    0    0 -0.56478728341E+03  0.15692166861E+03 -0.15343957555E+04  0.18727642749E+04  0.89959246853E+03 0.  0.
        -24    2    4    4    0    0 -0.20594848537E+03 -0.36049552302E+03 -0.45595500278E+03  0.62138191304E+03  0.76476902098E+02 0.  0.
         24    2    4    4    0    0 -0.35883879804E+03  0.51741719163E+03 -0.10784407527E+04  0.12513823619E+04  0.80234190838E+02 0.  0.
         11    1    3    3    0    0  0.21023133618E+03 -0.29301984894E+02  0.46602917487E+02  0.21731924201E+03  0.00000000000E+00 0.  1.
        -11    1    3    3    0    0  0.35455594723E+03 -0.12761968372E+03 -0.93989917165E+01  0.37694169899E+03  0.00000000000E+00 0. -1.
          4    1    6    6  502    0 -0.30438723202E+03  0.45729683145E+03 -0.88511478198E+03  0.10417294065E+04  0.00000000000E+00 0. -1.
          3    1    5    5  503    0 -0.15843631509E+03 -0.25464233373E+03 -0.37366927961E+03  0.47913830425E+03  0.00000000000E+00 0. -1.
         -4    1    5    5    0  503 -0.47512170276E+02 -0.10585318929E+03 -0.82285723164E+02  0.14224360879E+03  0.00000000000E+00 0.  1.
         -3    1    6    6    0  502 -0.54451566016E+02  0.60120360188E+02 -0.19332597073E+03  0.20965295541E+03  0.00000000000E+00 0.  1.
<mgrwt>
<rscale>  0 0.19607728E+04</rscale>
<asrwt>0</asrwt>
<pdfrwt beam="1">  1        1 0.30493978E+00 0.19607728E+04</pdfrwt>
<pdfrwt beam="2">  1       -1 0.74602567E-01 0.19607728E+04</pdfrwt>
<totfact> 0.51565448E+00</totfact>
</mgrwt>
</event>
<event>
12    1  0.1755460E-007  0.2432462E+04  0.7818608E-02  0.8427450E-01
          2   -1    0    0  501    0  0.00000000000E+00  0.00000000000E+00  0.17541244143E+04  0.17541244143E+04  0.00000000000E+00 0. -1.
         -2   -1    0    0    0  501 -0.00000000000E+00 -0.00000000000E+00 -0.84327955607E+03  0.84327955607E+03  0.00000000000E+00 0.  1.
         23    2    1    2    0    0 -0.51063474035E+03 -0.29839269800E+03  0.13170102186E+04  0.14467138000E+04  0.93160415792E+02 0.  0.
        254    2    1    2    0    0  0.51063474035E+03  0.29839269800E+03 -0.40616536034E+03  0.11506901704E+04  0.89962854998E+03 0.  0.
        -24    2    4    4    0    0  0.59323240154E+02  0.13473997806E+03  0.27001105230E+03  0.31760718584E+03  0.79336294493E+02 0.  0.
         24    2    4    4    0    0  0.45131150019E+03  0.16365271994E+03 -0.67617641264E+03  0.83308298451E+03  0.79677067737E+02 0.  0.
         13    1    3    3    0    0 -0.48003295868E+03 -0.25077004987E+03  0.11736978767E+04  0.12926267695E+04  0.00000000000E+00 0. -1.
        -13    1    3    3    0    0 -0.30601781671E+02 -0.47622648132E+02  0.14331234190E+03  0.15408703059E+03  0.00000000000E+00 0.  1.
          4    1    6    6  502    0  0.38693469419E+02  0.20351911131E+02 -0.29609377009E+02  0.52802462719E+02  0.00000000000E+00 0. -1.
          3    1    5    5  503    0 -0.98291429360E+01  0.20998514470E+02  0.94640402741E+02  0.97438983430E+02  0.00000000000E+00 0. -1.
         -4    1    5    5    0  503  0.69152383090E+02  0.11374146359E+03  0.17537064956E+03  0.22016820241E+03  0.00000000000E+00 0.  1.
         -3    1    6    6    0  502  0.41261803078E+03  0.14330080881E+03 -0.64656703563E+03  0.78028052179E+03  0.00000000000E+00 0.  1.
<mgrwt>
<rscale>  0 0.24324615E+04</rscale>
<asrwt>0</asrwt>
<pdfrwt beam="1">  1        2 0.26986529E+00 0.24324615E+04</pdfrwt>
<pdfrwt beam="2">  1       -2 0.12973532E+00 0.24324615E+04</pdfrwt>
<totfact> 0.35828786E+00</totfact>
</mgrwt>
</event>
<event>
12    1  0.1755460E-007  0.1249016E+04  0.7818608E-02  0.9071003E-01
         -2   -1    0    0    0  501 -0.00000000000E+00  0.00000000000E+00  0.10400761609E+03  0.10400761609E+03  0.00000000000E+00 0.  1.
          2   -1    0    0  501    0  0.00000000000E+00 -0.00000000000E+00 -0.37498241831E+04  0.37498241831E+04  0.00000000000E+00 0. -1.
         23    2    1    2    0    0  0.98300051180E+02 -0.17238928773E+03 -0.15505584334E+04  0.15658040195E+04  0.90165434801E+02 0.  0.
        254    2    1    2    0    0 -0.98300051180E+02  0.17238928773E+03 -0.20952581337E+04  0.22880277797E+04  0.89754303932E+03 0.  0.
        -24    2    4    4    0    0  0.83322050601E+02 -0.29295180410E+03 -0.13541711291E+04  0.13902989062E+04  0.79926704692E+02 0.  0.
         24    2    4    4    0    0 -0.18162210178E+03  0.46534109183E+03 -0.74108700458E+03  0.89772887349E+03  0.84724626546E+02 0.  0.
         11    1    3    3    0    0  0.61619398967E+02 -0.17031755542E+03 -0.13071100313E+04  0.13195990505E+04  0.00000000000E+00 0. -1.
        -11    1    3    3    0    0  0.36680652212E+02 -0.20717323138E+01 -0.24344840206E+03  0.24620496906E+03  0.00000000000E+00 0.  1.
          2    1    6    6  502    0 -0.28991001154E+02  0.93911681880E+02 -0.21048173941E+03  0.23229818072E+03  0.00000000000E+00 0. -1.
          1    1    5    5  503    0  0.16770693679E+01 -0.11071350508E+01  0.55973519503E+00  0.20860520544E+01  0.00000000000E+00 0. -1.
         -2    1    5    5    0  503  0.81644981233E+02 -0.29184466905E+03 -0.13547308643E+04  0.13882128542E+04  0.00000000000E+00 0.  1.
         -1    1    6    6    0  502 -0.15263110063E+03  0.37142940995E+03 -0.53060526517E+03  0.66543069277E+03  0.00000000000E+00 0.  1.
<mgrwt>
<rscale>  0 0.12490161E+04</rscale>
<asrwt>0</asrwt>
<pdfrwt beam="1">  1        2 0.57689607E+00 0.12490161E+04</pdfrwt>
<pdfrwt beam="2">  1       -2 0.16001171E-01 0.12490161E+04</pdfrwt>
<totfact> 0.17079683E+01</totfact>
</mgrwt>
</event>
<event>
12    1  0.1755460E-007  0.1496110E+04  0.7818608E-02  0.8887044E-01
          2   -1    0    0  501    0  0.00000000000E+00  0.00000000000E+00  0.22470600058E+04  0.22470600058E+04  0.00000000000E+00 0. -1.
         -2   -1    0    0    0  501 -0.00000000000E+00 -0.00000000000E+00 -0.24903030471E+03  0.24903030471E+03  0.00000000000E+00 0.  1.
         23    2    1    2    0    0 -0.37944116768E+03 -0.19263139223E+02  0.15646452479E+03  0.42073557368E+03  0.90501973353E+02 0.  0.
        254    2    1    2    0    0  0.37944116768E+03  0.19263139223E+02  0.18415651763E+04  0.20753547369E+04  0.87828714942E+03 0.  0.
        -24    2    4    4    0    0  0.33664445659E+03  0.37941201818E+03  0.14376400576E+04  0.15266142332E+04  0.80368600577E+02 0.  0.
         24    2    4    4    0    0  0.42796711090E+02 -0.36014887896E+03  0.40392511871E+03  0.54874050368E+03  0.80136541982E+02 0.  0.
         11    1    3    3    0    0 -0.37049315492E+03 -0.29989401644E+01  0.15642390767E+03  0.40217236402E+03  0.00000000000E+00 0.  1.
        -11    1    3    3    0    0 -0.89480127556E+01 -0.16264199059E+02  0.40617117599E-01  0.18563209665E+02  0.00000000000E+00 0. -1.
          2    1    6    6  502    0  0.40642734903E+02 -0.32429772281E+03  0.39311308131E+03  0.51123256901E+03  0.00000000000E+00 0. -1.
          3    1    5    5  503    0  0.32433023537E+03  0.37249749581E+03  0.14229758722E+04  0.15062552303E+04  0.00000000000E+00 0. -1.
         -4    1    5    5    0  503  0.12314221221E+02  0.69145223668E+01  0.14664185439E+02  0.20359002884E+02  0.00000000000E+00 0.  1.
         -1    1    6    6    0  502  0.21539761867E+01 -0.35851156150E+02  0.10812037403E+02  0.37507934674E+02  0.00000000000E+00 0.  1.
<mgrwt>
<rscale>  0 0.14961097E+04</rscale>
<asrwt>0</asrwt>
<pdfrwt beam="1">  1        2 0.34570153E+00 0.14961097E+04</pdfrwt>
<pdfrwt beam="2">  1       -2 0.38312356E-01 0.14961097E+04</pdfrwt>
<totfact> 0.30245173E+01</totfact>
</mgrwt>
</event>
<event>
12    1  0.1755460E-007  0.1779497E+04  0.7818608E-02  0.8717280E-01
          2   -1    0    0  501    0  0.00000000000E+00  0.00000000000E+00  0.19212379249E+04  0.19212379249E+04  0.00000000000E+00 0.  1.
         -2   -1    0    0    0  501 -0.00000000000E+00 -0.00000000000E+00 -0.41205313212E+03  0.41205313212E+03  0.00000000000E+00 0. -1.
         23    2    1    2    0    0  0.10552162520E+03 -0.63387958501E+03  0.74987775661E+03  0.99166050646E+03  0.90198495174E+02 0.  0.
        254    2    1    2    0    0 -0.10552162520E+03  0.63387958501E+03  0.75930703618E+03  0.13416305506E+04  0.90027063564E+03 0.  0.
        -24    2    4    4    0    0 -0.11354146956E+03 -0.14635309945E+03  0.45663687586E+03  0.50034312889E+03  0.86689764105E+02 0.  0.
         24    2    4    4    0    0  0.80198443626E+01  0.78023268446E+03  0.30267016032E+03  0.84128742169E+03  0.85603388646E+02 0.  0.
         13    1    3    3    0    0  0.88857643386E+02 -0.45060391204E+03  0.59141398192E+03  0.74880575875E+03  0.00000000000E+00 0.  1.
        -13    1    3    3    0    0  0.16663981816E+02 -0.18327567297E+03  0.15846377469E+03  0.24285474771E+03  0.00000000000E+00 0. -1.
          2    1    6    6  502    0  0.29540433721E+02  0.18204946373E+03  0.96892841571E+02  0.20833354799E+03  0.00000000000E+00 0. -1.
          1    1    5    5  503    0  0.63628461690E+01 -0.47715603132E+02  0.87166471293E+02  0.99575390089E+02  0.00000000000E+00 0. -1.
         -2    1    5    5    0  503 -0.11990431573E+03 -0.98637496320E+02  0.36947040457E+03  0.40076773880E+03  0.00000000000E+00 0.  1.
         -1    1    6    6    0  502 -0.21520589359E+02  0.59818322073E+03  0.20577731875E+03  0.63295387371E+03  0.00000000000E+00 0.  1.
<mgrwt>
<rscale>  0 0.17794967E+04</rscale>
<asrwt>0</asrwt>
<pdfrwt beam="1">  1        2 0.29557506E+00 0.17794967E+04</pdfrwt>
<pdfrwt beam="2">  1       -2 0.63392791E-01 0.17794967E+04</pdfrwt>
<totfact> 0.16097614E+01</totfact>
</mgrwt>
</event>
<event>
12    1  0.1755460E-007  0.1677196E+04  0.7818608E-02  0.8774478E-01
         -1   -1    0    0    0  501 -0.00000000000E+00  0.00000000000E+00  0.35446590300E+03  0.35446590300E+03  0.00000000000E+00 0.  1.
          1   -1    0    0  501    0  0.00000000000E+00 -0.00000000000E+00 -0.19839602424E+04  0.19839602424E+04  0.00000000000E+00 0. -1.
         23    2    1    2    0    0  0.59362678487E+03  0.14019334873E+03 -0.67589242518E+03  0.91490215047E+03  0.90379421231E+02 0.  0.
        254    2    1    2    0    0 -0.59362678487E+03 -0.14019334873E+03 -0.95360191418E+03  0.14235239949E+04  0.86314368359E+03 0.  0.
        -24    2    4    4    0    0 -0.10865865424E+03 -0.31243535524E+02  0.15425485158E+03  0.20677556045E+03  0.78604780453E+02 0.  0.
         24    2    4    4    0    0 -0.48496813063E+03 -0.10894981320E+03 -0.11078567658E+04  0.12167484344E+04  0.77884463947E+02 0.  0.
         11    1    3    3    0    0  0.50920375841E+03  0.11459759569E+03 -0.52622631455E+03  0.74117151230E+03  0.00000000000E+00 0.  1.
        -11    1    3    3    0    0  0.84423026465E+02  0.25595753040E+02 -0.14966611063E+03  0.17373063818E+03  0.00000000000E+00 0. -1.
          2    1    6    6  502    0 -0.37709697328E+03 -0.10362155190E+03 -0.92671388885E+03  0.10058519698E+04  0.00000000000E+00 0. -1.
          1    1    5    5  503    0 -0.29144585916E+02 -0.48253038401E+02  0.61592761846E+02  0.83495095155E+02  0.00000000000E+00 0. -1.
         -2    1    5    5    0  503 -0.79514068321E+02  0.17009502877E+02  0.92662089734E+02  0.12328046529E+03  0.00000000000E+00 0.  1.
         -1    1    6    6    0  502 -0.10787115735E+03 -0.53282613013E+01 -0.18114287691E+03  0.21089646467E+03  0.00000000000E+00 0.  1.
<mgrwt>
<rscale>  0 0.16771956E+04</rscale>
<asrwt>0</asrwt>
<pdfrwt beam="1">  1        1 0.30522465E+00 0.16771956E+04</pdfrwt>
<pdfrwt beam="2">  1       -1 0.54533216E-01 0.16771956E+04</pdfrwt>
<totfact> 0.98988946E+00</totfact>
</mgrwt>
</event>
<event>
12    1  0.1755460E-007  0.2482554E+04  0.7818608E-02  0.8409227E-01
          1   -1    0    0  501    0  0.00000000000E+00  0.00000000000E+00  0.15784190146E+04  0.15784190146E+04  0.00000000000E+00 0. -1.
         -1   -1    0    0    0  501 -0.00000000000E+00 -0.00000000000E+00 -0.97614666561E+03  0.97614666561E+03  0.00000000000E+00 0.  1.
         23    2    1    2    0    0 -0.78806614657E+03 -0.24375438989E+02  0.10112558327E+04  0.12852554365E+04  0.87182363320E+02 0.  0.
        254    2    1    2    0    0  0.78806614657E+03  0.24375438989E+02 -0.40898348365E+03  0.12693102438E+04  0.90677372682E+03 0.  0.
        -24    2    4    4    0    0  0.71090487941E+03 -0.35095347956E+03 -0.18405881433E+03  0.81784287757E+03  0.80219903223E+02 0.  0.
         24    2    4    4    0    0  0.77161267158E+02  0.37532891855E+03 -0.22492466931E+03  0.45146736620E+03  0.80037601379E+02 0.  0.
         11    1    3    3    0    0 -0.73874726299E+03 -0.86137508870E+01  0.96842709236E+03  0.12180610611E+04  0.00000000000E+00 0. -1.
        -11    1    3    3    0    0 -0.49318883575E+02 -0.15761688102E+02  0.42828740330E+02  0.67194375413E+02  0.00000000000E+00 0.  1.
          4    1    6    6  502    0  0.67186982197E+02  0.37196897178E+03 -0.20773267819E+03  0.43130948533E+03  0.00000000000E+00 0. -1.
          1    1    5    5  503    0  0.29494532802E+03 -0.11004209536E+03 -0.49463237329E+02  0.31866694387E+03  0.00000000000E+00 0. -1.
         -2    1    5    5    0  503  0.41595955139E+03 -0.24091138420E+03 -0.13459557700E+03  0.49917593369E+03  0.00000000000E+00 0.  1.
         -3    1    6    6    0  502  0.99742849606E+01  0.33599467681E+01 -0.17191991124E+02  0.20157880880E+02  0.00000000000E+00 0.  1.
<mgrwt>
<rscale>  0 0.24825539E+04</rscale>
<asrwt>0</asrwt>
<pdfrwt beam="1">  1        1 0.24283370E+00 0.24825539E+04</pdfrwt>
<pdfrwt beam="2">  1       -1 0.15017641E+00 0.24825539E+04</pdfrwt>
<totfact> 0.17868547E+00</totfact>
</mgrwt>
</event>
<event>
12    1  0.1755460E-007  0.2455748E+04  0.7818608E-02  0.8418922E-01
          2   -1    0    0  501    0  0.00000000000E+00  0.00000000000E+00  0.19362517342E+04  0.19362517342E+04  0.00000000000E+00 0. -1.
         -2   -1    0    0    0  501 -0.00000000000E+00 -0.00000000000E+00 -0.77865601196E+03  0.77865601196E+03  0.00000000000E+00 0.  1.
         23    2    1    2    0    0  0.38471096108E+03 -0.88519171001E+03  0.98694624264E+03  0.13834389048E+04  0.90958399724E+02 0.  0.
        254    2    1    2    0    0 -0.38471096108E+03  0.88519171001E+03  0.17064947959E+03  0.13314688413E+04  0.90117764258E+03 0.  0.
        -24    2    4    4    0    0  0.24436106177E+03  0.53506577627E+03  0.30692461712E+02  0.59440356554E+03  0.79786327604E+02 0.  0.
         24    2    4    4    0    0 -0.62907202286E+03  0.35012593374E+03  0.13995701788E+03  0.73706527579E+03  0.73194771000E+02 0.  0.
         13    1    3    3    0    0  0.11718095098E+03 -0.24325549783E+03  0.33415524865E+03  0.42960952351E+03  0.00000000000E+00 0.  1.
        -13    1    3    3    0    0  0.26753001011E+03 -0.64193621218E+03  0.65279099399E+03  0.95382938131E+03  0.00000000000E+00 0. -1.
          4    1    6    6  502    0 -0.60865840453E+03  0.34141632911E+03  0.14811382872E+03  0.71341984094E+03  0.00000000000E+00 0. -1.
          1    1    5    5  503    0  0.24483867474E+03  0.51685715004E+03  0.17992594667E+02  0.57219841284E+03  0.00000000000E+00 0. -1.
         -2    1    5    5    0  503 -0.47761296709E+00  0.18208626233E+02  0.12699867045E+02  0.22205152699E+02  0.00000000000E+00 0.  1.
         -3    1    6    6    0  502 -0.20413618328E+02  0.87096046314E+01 -0.81568108460E+01  0.23645434850E+02  0.00000000000E+00 0.  1.
<mgrwt>
<rscale>  0 0.24557476E+04</rscale>
<asrwt>0</asrwt>
<pdfrwt beam="1">  1        2 0.29788488E+00 0.24557476E+04</pdfrwt>
<pdfrwt beam="2">  1       -2 0.11979323E+00 0.24557476E+04</pdfrwt>
<totfact> 0.34606815E+00</totfact>
</mgrwt>
</event>
<event>
12    1  0.1755460E-007  0.1578506E+04  0.7818608E-02  0.8833863E-01
         -2   -1    0    0    0  501 -0.00000000000E+00  0.00000000000E+00  0.29658222349E+03  0.29658222349E+03  0.00000000000E+00 0.  1.
          2   -1    0    0  501    0  0.00000000000E+00 -0.00000000000E+00 -0.21003284901E+04  0.21003284901E+04  0.00000000000E+00 0. -1.
         23    2    1    2    0    0 -0.42168145347E+03 -0.31399615749E+03 -0.63216313353E+03  0.82734725491E+03  0.92002270052E+02 0.  0.
        254    2    1    2    0    0  0.42168145347E+03  0.31399615749E+03 -0.11715831331E+04  0.15695634587E+04  0.90250405985E+03 0.  0.
        -24    2    4    4    0    0  0.32405135842E+03  0.48268852931E+03 -0.12193415631E+04  0.13533498351E+04  0.82246150870E+02 0.  0.
         24    2    4    4    0    0  0.97630095048E+02 -0.16869237182E+03  0.47758430039E+02  0.21621362361E+03  0.80490444311E+02 0.  0.
         13    1    3    3    0    0 -0.32963039225E+03 -0.28892549412E+03 -0.51929026695E+03  0.67955611836E+03  0.00000000000E+00 0. -1.
        -13    1    3    3    0    0 -0.92051061221E+02 -0.25070663366E+02 -0.11287286658E+03  0.14779113655E+03  0.00000000000E+00 0.  1.
          4    1    6    6  502    0  0.85178477165E+02 -0.14270632667E+03  0.70560599902E+01  0.16634379046E+03  0.00000000000E+00 0. -1.
          1    1    5    5  503    0  0.41147646888E+02  0.24670887525E+02 -0.81300648676E+02  0.94401149415E+02  0.00000000000E+00 0. -1.
         -2    1    5    5    0  503  0.28290371153E+03  0.45801764179E+03 -0.11380409145E+04  0.12589486857E+04  0.00000000000E+00 0.  1.
         -3    1    6    6    0  502  0.12451617883E+02 -0.25986045156E+02  0.40702370049E+02  0.49869833150E+02  0.00000000000E+00 0.  1.
<mgrwt>
<rscale>  0 0.15785057E+04</rscale>
<asrwt>0</asrwt>
<pdfrwt beam="1">  1        2 0.32312745E+00 0.15785057E+04</pdfrwt>
<pdfrwt beam="2">  1       -2 0.45628036E-01 0.15785057E+04</pdfrwt>
<totfact> 0.25708444E+01</totfact>
</mgrwt>
</event>
<event>
12    1  0.1755460E-007  0.1952083E+04  0.7818608E-02  0.8629357E-01
         -2   -1    0    0    0  501 -0.00000000000E+00  0.00000000000E+00  0.10904045456E+04  0.10904045456E+04  0.00000000000E+00 0. -1.
          2   -1    0    0  501    0  0.00000000000E+00 -0.00000000000E+00 -0.87367336011E+03  0.87367336011E+03  0.00000000000E+00 0.  1.
         23    2    1    2    0    0 -0.53380785132E+03 -0.47931008147E+02 -0.45403505158E+03  0.70817434222E+03  0.90082557962E+02 0.  0.
        254    2    1    2    0    0  0.53380785132E+03  0.47931008147E+02  0.67076623709E+03  0.12559035635E+04  0.91657962685E+03 0.  0.
        -24    2    4    4    0    0  0.34271983552E+03 -0.33354038125E+03  0.66263382281E+03  0.82102076582E+03  0.79280787062E+02 0.  0.
         24    2    4    4    0    0  0.19108801580E+03  0.38147138940E+03  0.81324142813E+01  0.43488279769E+03  0.83796544414E+02 0.  0.
         13    1    3    3    0    0 -0.14053849943E+03  0.13344695085E+02 -0.81454144800E+02  0.16298444224E+03  0.00000000000E+00 0. -1.
        -13    1    3    3    0    0 -0.39326935189E+03 -0.61275703232E+02 -0.37258090678E+03  0.54518989998E+03  0.00000000000E+00 0.  1.
          4    1    6    6  502    0  0.20906082404E+02  0.13811049923E+02 -0.14793933945E+02  0.29097592048E+02  0.00000000000E+00 0. -1.
          1    1    5    5  503    0  0.12724542102E+03 -0.16770640328E+03  0.24958022263E+03  0.32650746147E+03  0.00000000000E+00 0. -1.
         -2    1    5    5    0  503  0.21547441450E+03 -0.16583397797E+03  0.41305360018E+03  0.49451330435E+03  0.00000000000E+00 0.  1.
         -1    1    6    6    0  502  0.17018193340E+03  0.36766033947E+03  0.22926348226E+02  0.40578520564E+03  0.00000000000E+00 0.  1.
<mgrwt>
<rscale>  0 0.19520834E+04</rscale>
<asrwt>0</asrwt>
<pdfrwt beam="1">  1        2 0.13441129E+00 0.19520834E+04</pdfrwt>
<pdfrwt beam="2">  1       -2 0.16775455E+00 0.19520834E+04</pdfrwt>
<totfact> 0.63014352E+00</totfact>
</mgrwt>
</event>
<event>
12    1  0.1755460E-007  0.1476860E+04  0.7818608E-02  0.8899988E-01
         -2   -1    0    0    0  501 -0.00000000000E+00  0.00000000000E+00  0.25920552814E+03  0.25920552814E+03  0.00000000000E+00 0. -1.
          2   -1    0    0  501    0  0.00000000000E+00 -0.00000000000E+00 -0.21036554992E+04  0.21036554992E+04  0.00000000000E+00 0.  1.
         23    2    1    2    0    0  0.90447504758E+02 -0.15617263560E+03 -0.13121611255E+04  0.13277351475E+04  0.92429213762E+02 0.  0.
        254    2    1    2    0    0 -0.90447504758E+02  0.15617263560E+03 -0.53228884564E+03  0.10351258799E+04  0.86924307806E+03 0.  0.
        -24    2    4    4    0    0 -0.43513844203E+03 -0.97582257157E+02 -0.28832003484E+03  0.53710074047E+03  0.80504672425E+02 0.  0.
         24    2    4    4    0    0  0.34469093727E+03  0.25375489276E+03 -0.24396881080E+03  0.49802513939E+03  0.72834545302E+02 0.  0.
         13    1    3    3    0    0  0.31199679360E+02  0.40473712594E+01 -0.17304017334E+03  0.17587695357E+03  0.00000000000E+00 0. -1.
        -13    1    3    3    0    0  0.59247825397E+02 -0.16022000686E+03 -0.11391209521E+04  0.11518581940E+04  0.00000000000E+00 0.  1.
          2    1    6    6  502    0  0.32831442450E+03  0.22414939816E+03 -0.20806437399E+03  0.44869153965E+03  0.00000000000E+00 0. -1.
          1    1    5    5  503    0 -0.40222959514E+03 -0.99865750039E+02 -0.28694791609E+03  0.50408424076E+03  0.00000000000E+00 0. -1.
         -2    1    5    5    0  503 -0.32908846889E+02  0.22834928821E+01 -0.13721187539E+01  0.33016499711E+02  0.00000000000E+00 0.  1.
         -1    1    6    6    0  502  0.16376512771E+02  0.29605494593E+02 -0.35904436812E+02  0.49333599741E+02  0.00000000000E+00 0.  1.
<mgrwt>
<rscale>  0 0.14768604E+04</rscale>
<asrwt>0</asrwt>
<pdfrwt beam="1">  1        2 0.32363932E+00 0.14768604E+04</pdfrwt>
<pdfrwt beam="2">  1       -2 0.39877773E-01 0.14768604E+04</pdfrwt>
<totfact> 0.33704155E+01</totfact>
</mgrwt>
</event>
<event>
12    1  0.1755460E-007  0.2075090E+04  0.7818608E-02  0.8572297E-01
         -1   -1    0    0    0  501 -0.00000000000E+00  0.00000000000E+00  0.10041658472E+04  0.10041658472E+04  0.00000000000E+00 0.  1.
          1   -1    0    0  501    0  0.00000000000E+00 -0.00000000000E+00 -0.10720333934E+04  0.10720333934E+04  0.00000000000E+00 0. -1.
         23    2    1    2    0    0  0.19387463210E+03  0.70431347487E+03 -0.51829683573E+03  0.90033585122E+03  0.91258923967E+02 0.  0.
        254    2    1    2    0    0 -0.19387463210E+03 -0.70431347487E+03  0.45042928952E+03  0.11758633893E+04  0.80381796551E+03 0.  0.
        -24    2    4    4    0    0  0.52933567668E+02  0.13379743933E+03  0.21024505872E+03  0.26626788571E+03  0.77407266378E+02 0.  0.
         24    2    4    4    0    0 -0.24680819977E+03 -0.83811091420E+03  0.24018423080E+03  0.90959550362E+03  0.79569614242E+02 0.  0.
         11    1    3    3    0    0  0.13779439245E+03  0.57314185330E+03 -0.45307979331E+03  0.74347843123E+03  0.00000000000E+00 0.  1.
        -11    1    3    3    0    0  0.56080239644E+02  0.13117162157E+03 -0.65217042428E+02  0.15685741999E+03  0.00000000000E+00 0. -1.
          2    1    6    6  502    0 -0.12981447343E+03 -0.57282489274E+03  0.16391003220E+03  0.60979230391E+03  0.00000000000E+00 0. -1.
          3    1    5    5  503    0  0.47647601210E+02  0.12884953906E+03  0.21669445984E+03  0.25657160120E+03  0.00000000000E+00 0. -1.
         -4    1    5    5    0  503  0.52859664580E+01  0.49479002695E+01 -0.64494011218E+01  0.96962845101E+01  0.00000000000E+00 0.  1.
         -1    1    6    6    0  502 -0.11699372634E+03 -0.26528602146E+03  0.76274198595E+02  0.29980319971E+03  0.00000000000E+00 0.  1.
<mgrwt>
<rscale>  0 0.20750897E+04</rscale>
<asrwt>0</asrwt>
<pdfrwt beam="1">  1        1 0.16492821E+00 0.20750897E+04</pdfrwt>
<pdfrwt beam="2">  1       -1 0.15448705E+00 0.20750897E+04</pdfrwt>
<totfact> 0.39516434E+00</totfact>
</mgrwt>
</event>
<event>
12    1  0.1755460E-007  0.1266209E+04  0.7818608E-02  0.9056799E-01
          1   -1    0    0  501    0  0.00000000000E+00  0.00000000000E+00  0.55047007787E+03  0.55047007787E+03  0.00000000000E+00 0. -1.
         -1   -1    0    0    0  501 -0.00000000000E+00 -0.00000000000E+00 -0.72814391257E+03  0.72814391257E+03  0.00000000000E+00 0.  1.
         23    2    1    2    0    0 -0.73908016936E+02 -0.15238535354E+03 -0.29710924918E+03  0.35425622270E+03  0.92411441017E+02 0.  0.
        254    2    1    2    0    0  0.73908016936E+02  0.15238535354E+03  0.11943541447E+03  0.92435776775E+03  0.90082671676E+03 0.  0.
        -24    2    4    4    0    0  0.16855793610E+03  0.41393248360E+03 -0.19755538311E+03  0.49512091136E+03  0.79779124259E+02 0.  0.
         24    2    4    4    0    0 -0.94649919166E+02 -0.26154713006E+03  0.31699079758E+03  0.42923685639E+03  0.79972524623E+02 0.  0.
         13    1    3    3    0    0 -0.74431765894E+02 -0.14840356780E+03 -0.30394236675E+03  0.34633028891E+03  0.00000000000E+00 0.  1.
        -13    1    3    3    0    0  0.52374895769E+00 -0.39817857377E+01  0.68331175722E+01  0.79259337865E+01  0.00000000000E+00 0. -1.
          2    1    6    6  502    0 -0.57813033867E+02 -0.12159299269E+03  0.97113830905E+02  0.16600692428E+03  0.00000000000E+00 0. -1.
          3    1    5    5  503    0  0.21438021953E+02  0.37538748207E+02  0.42012792522E+01  0.43432673755E+02  0.00000000000E+00 0. -1.
         -4    1    5    5    0  503  0.14711991415E+03  0.37639373539E+03 -0.20175666236E+03  0.45168823760E+03  0.00000000000E+00 0.  1.
         -1    1    6    6    0  502 -0.36836885299E+02 -0.13995413737E+03  0.21987696667E+03  0.26322993211E+03  0.00000000000E+00 0.  1.
<mgrwt>
<rscale>  0 0.12662092E+04</rscale>
<asrwt>0</asrwt>
<pdfrwt beam="1">  1        1 0.84687705E-01 0.12662092E+04</pdfrwt>
<pdfrwt beam="2">  1       -1 0.11202214E+00 0.12662092E+04</pdfrwt>
<totfact> 0.27904602E+01</totfact>
</mgrwt>
</event>
<event>
12    1  0.1755460E-007  0.1837085E+04  0.7818608E-02  0.8686823E-01
         -1   -1    0    0    0  501 -0.00000000000E+00  0.00000000000E+00  0.11270149870E+04  0.11270149870E+04  0.00000000000E+00 0.  1.
          1   -1    0    0  501    0  0.00000000000E+00 -0.00000000000E+00 -0.74863313192E+03  0.74863313192E+03  0.00000000000E+00 0. -1.
         23    2    1    2    0    0  0.17275147364E+03 -0.15187407046E+03  0.81449199713E+03  0.85145270251E+03  0.93089668076E+02 0.  0.
        254    2    1    2    0    0 -0.17275147364E+03  0.15187407046E+03 -0.43611014203E+03  0.10241954164E+04  0.89770562554E+03 0.  0.
        -24    2    4    4    0    0  0.15980221936E+03  0.42702181032E+03 -0.34209464306E+03  0.57509285614E+03  0.76280223994E+02 0.  0.
         24    2    4    4    0    0 -0.33255369301E+03 -0.27514773986E+03 -0.94015498970E+02  0.44910256028E+03  0.80968871324E+02 0.  0.
         11    1    3    3    0    0  0.17565811420E+03 -0.13778945058E+03  0.66934746979E+03  0.70559743558E+03  0.00000000000E+00 0.  1.
        -11    1    3    3    0    0 -0.29066405564E+01 -0.14084619874E+02  0.14514452734E+03  0.14585526694E+03  0.00000000000E+00 0. -1.
          4    1    6    6  502    0 -0.16180962798E+03 -0.10312599773E+03 -0.84355181094E+01  0.19206375265E+03  0.00000000000E+00 0. -1.
          1    1    5    5  503    0  0.14378795039E+03  0.28537390073E+03 -0.24389203606E+03  0.40199075008E+03  0.00000000000E+00 0. -1.
         -2    1    5    5    0  503  0.16014268971E+02  0.14164790958E+03 -0.98202606996E+02  0.17310210606E+03  0.00000000000E+00 0.  1.
         -3    1    6    6    0  502 -0.17074406503E+03 -0.17202174213E+03 -0.85579980861E+02  0.25703880764E+03  0.00000000000E+00 0.  1.
<mgrwt>
<rscale>  0 0.18370855E+04</rscale>
<asrwt>0</asrwt>
<pdfrwt beam="1">  1        1 0.11517433E+00 0.18370855E+04</pdfrwt>
<pdfrwt beam="2">  1       -1 0.17338692E+00 0.18370855E+04</pdfrwt>
<totfact> 0.53691257E+00</totfact>
</mgrwt>
</event>
<event>
12    1  0.1755460E-007  0.2023978E+04  0.7818608E-02  0.8595492E-01
          2   -1    0    0  501    0  0.00000000000E+00  0.00000000000E+00  0.32136696860E+04  0.32136696860E+04  0.00000000000E+00 0. -1.
         -2   -1    0    0    0  501 -0.00000000000E+00 -0.00000000000E+00 -0.31867670885E+03  0.31867670885E+03  0.00000000000E+00 0.  1.
         23    2    1    2    0    0  0.45393362599E+03  0.60809682969E+03  0.16639449256E+04  0.18311353196E+04  0.92229887713E+02 0.  0.
        254    2    1    2    0    0 -0.45393362599E+03 -0.60809682969E+03  0.12310480516E+04  0.17012110753E+04  0.89599236953E+03 0.  0.
        -24    2    4    4    0    0 -0.68355801877E+03 -0.39267628742E+03  0.60869671194E+03  0.99921499314E+03  0.80452990451E+02 0.  0.
         24    2    4    4    0    0  0.22962439279E+03 -0.21542054227E+03  0.62235133966E+03  0.70199608214E+03  0.79648839100E+02 0.  0.
         13    1    3    3    0    0  0.27852388292E+03  0.41112598029E+03  0.99403181558E+03  0.11111702729E+04  0.00000000000E+00 0.  1.
        -13    1    3    3    0    0  0.17540974306E+03  0.19697084940E+03  0.66991310998E+03  0.71996504665E+03  0.00000000000E+00 0. -1.
          2    1    6    6  502    0  0.18976747734E+03 -0.13187793174E+03  0.46976222652E+03  0.52352653591E+03  0.00000000000E+00 0. -1.
          1    1    5    5  503    0 -0.37811804483E+03 -0.17145833581E+03  0.31094965236E+03  0.51871080868E+03  0.00000000000E+00 0. -1.
         -2    1    5    5    0  503 -0.30543997395E+03 -0.22121795161E+03  0.29774705958E+03  0.48050418446E+03  0.00000000000E+00 0.  1.
         -1    1    6    6    0  502  0.39856915443E+02 -0.83542610529E+02  0.15258911314E+03  0.17846954623E+03  0.00000000000E+00 0.  1.
<mgrwt>
<rscale>  0 0.20239779E+04</rscale>
<asrwt>0</asrwt>
<pdfrwt beam="1">  1        2 0.49441070E+00 0.20239779E+04</pdfrwt>
<pdfrwt beam="2">  1       -2 0.49027188E-01 0.20239779E+04</pdfrwt>
<totfact> 0.46556451E+00</totfact>
</mgrwt>
</event>
<event>
12    1  0.1755460E-007  0.1349253E+04  0.7818608E-02  0.8991394E-01
         -2   -1    0    0    0  501 -0.00000000000E+00  0.00000000000E+00  0.73883396058E+03  0.73883396058E+03  0.00000000000E+00 0.  1.
          2   -1    0    0  501    0  0.00000000000E+00 -0.00000000000E+00 -0.61599897680E+03  0.61599897680E+03  0.00000000000E+00 0. -1.
         23    2    1    2    0    0  0.27183129024E+03 -0.30877604615E+02 -0.21051965517E+03  0.35652113509E+03  0.89124170299E+02 0.  0.
        254    2    1    2    0    0 -0.27183129024E+03  0.30877604615E+02  0.33335463895E+03  0.99831180228E+03  0.90036407216E+03 0.  0.
        -24    2    4    4    0    0 -0.76412964549E+01  0.23835604481E+03 -0.22787911361E+03  0.33929629412E+03  0.79505290860E+02 0.  0.
         24    2    4    4    0    0 -0.26418999379E+03 -0.20747844020E+03  0.56123375256E+03  0.65901550816E+03  0.80464023110E+02 0.  0.
         11    1    3    3    0    0  0.28345481454E+02 -0.28279845419E+02 -0.53346779071E+02  0.66701535312E+02  0.00000000000E+00 0.  1.
        -11    1    3    3    0    0  0.24348580879E+03 -0.25977591963E+01 -0.15717287610E+03  0.28981959978E+03  0.00000000000E+00 0. -1.
          2    1    6    6  502    0 -0.13232627791E+03 -0.14841200930E+03  0.36031640165E+03  0.41153891387E+03  0.00000000000E+00 0. -1.
          3    1    5    5  503    0 -0.11689759505E+02  0.21816202537E+03 -0.16689361929E+03  0.27492689928E+03  0.00000000000E+00 0. -1.
         -4    1    5    5    0  503  0.40484630499E+01  0.20194019444E+02 -0.60985494318E+02  0.64369394836E+02  0.00000000000E+00 0.  1.
         -1    1    6    6    0  502 -0.13186371588E+03 -0.59066430898E+02  0.20091735091E+03  0.24747659429E+03  0.00000000000E+00 0.  1.
<mgrwt>
<rscale>  0 0.13492531E+04</rscale>
<asrwt>0</asrwt>
<pdfrwt beam="1">  1        2 0.94769074E-01 0.13492531E+04</pdfrwt>
<pdfrwt beam="2">  1       -2 0.11366676E+00 0.13492531E+04</pdfrwt>
<totfact> 0.28464233E+01</totfact>
</mgrwt>
</event>
<event>
12    1  0.1755460E-007  0.3205083E+04  0.7818608E-02  0.8187476E-01
          1   -1    0    0  501    0  0.00000000000E+00  0.00000000000E+00  0.34974857707E+04  0.34974857707E+04  0.00000000000E+00 0. -1.
         -1   -1    0    0    0  501 -0.00000000000E+00 -0.00000000000E+00 -0.73428135447E+03  0.73428135447E+03  0.00000000000E+00 0.  1.
         23    2    1    2    0    0  0.37366255156E+03  0.13269056536E+04  0.59361363091E+03  0.15036351268E+04  0.90769685237E+02 0.  0.
        254    2    1    2    0    0 -0.37366255156E+03 -0.13269056536E+04  0.21695907853E+04  0.27281319983E+04  0.91393528690E+03 0.  0.
        -24    2    4    4    0    0 -0.61367011129E+03 -0.85559813726E+03  0.17675722504E+04  0.20589457540E+04  0.79415235824E+02 0.  0.
         24    2    4    4    0    0  0.24000755972E+03 -0.47130751635E+03  0.40201853492E+03  0.66918624432E+03  0.80354984152E+02 0.  0.
         11    1    3    3    0    0  0.36069036939E+03  0.12060752528E+04  0.52377297646E+03  0.13634710077E+04  0.00000000000E+00 0.  1.
        -11    1    3    3    0    0  0.12972182172E+02  0.12083040077E+03  0.69840654448E+02  0.14016411907E+03  0.00000000000E+00 0. -1.
          4    1    6    6  502    0  0.23999059788E+03 -0.42315217117E+03  0.37246439748E+03  0.61268505321E+03  0.00000000000E+00 0. -1.
          3    1    5    5  503    0 -0.14394353150E+03 -0.16801176665E+03  0.32193016385E+03  0.39062350721E+03  0.00000000000E+00 0. -1.
         -4    1    5    5    0  503 -0.46972657979E+03 -0.68758637061E+03  0.14456420865E+04  0.16683222468E+04  0.00000000000E+00 0.  1.
         -3    1    6    6    0  502  0.16961838738E-01 -0.48155345175E+02  0.29554137435E+02  0.56501191104E+02  0.00000000000E+00 0.  1.
<mgrwt>
<rscale>  0 0.32050826E+04</rscale>
<asrwt>0</asrwt>
<pdfrwt beam="1">  1        1 0.53807472E+00 0.32050826E+04</pdfrwt>
<pdfrwt beam="2">  1       -1 0.11296636E+00 0.32050826E+04</pdfrwt>
<totfact> 0.15020437E-01</totfact>
</mgrwt>
</event>
<event>
12    1  0.1755460E-007  0.1152143E+04  0.7818608E-02  0.9155809E-01
         -2   -1    0    0    0  501 -0.00000000000E+00  0.00000000000E+00  0.22854987625E+03  0.22854987625E+03  0.00000000000E+00 0.  1.
          2   -1    0    0  501    0  0.00000000000E+00 -0.00000000000E+00 -0.14520171416E+04  0.14520171416E+04  0.00000000000E+00 0. -1.
         23    2    1    2    0    0  0.19331778180E+03 -0.39001318151E+02 -0.11553594175E+03  0.24308459809E+03  0.82756875325E+02 0.  0.
        254    2    1    2    0    0 -0.19331778180E+03  0.39001318151E+02 -0.11079313236E+04  0.14374824198E+04  0.89439981090E+03 0.  0.
        -24    2    4    4    0    0 -0.33630223575E+03 -0.58727156247E+02 -0.40646278123E+02  0.35335817928E+03  0.81619913535E+02 0.  0.
         24    2    4    4    0    0  0.14298445395E+03  0.97728474397E+02 -0.10672850455E+04  0.10841242405E+04  0.78946765182E+02 0.  0.
         13    1    3    3    0    0  0.19554001126E+03 -0.39146374480E+02 -0.12366797260E+03  0.23465315273E+03  0.00000000000E+00 0.  1.
        -13    1    3    3    0    0 -0.22222294576E+01  0.14505632994E+00  0.81320308509E+01  0.84314453601E+01  0.00000000000E+00 0. -1.
          2    1    6    6  502    0  0.13579949672E+03  0.54538784878E+02 -0.84237559521E+03  0.85499276357E+03  0.00000000000E+00 0. -1.
          1    1    5    5  503    0 -0.20408357972E+03 -0.75067520608E+02 -0.32702516670E+02  0.21989700944E+03  0.00000000000E+00 0. -1.
         -2    1    5    5    0  503 -0.13221865603E+03  0.16340364361E+02 -0.79437614532E+01  0.13346116984E+03  0.00000000000E+00 0.  1.
         -3    1    6    6    0  502  0.71849572330E+01  0.43189689519E+02 -0.22490945027E+03  0.22913147691E+03  0.00000000000E+00 0.  1.
<mgrwt>
<rscale>  0 0.11521429E+04</rscale>
<asrwt>0</asrwt>
<pdfrwt beam="1">  1        2 0.22338726E+00 0.11521429E+04</pdfrwt>
<pdfrwt beam="2">  1       -2 0.35161518E-01 0.11521429E+04</pdfrwt>
<totfact> 0.10149500E+02</totfact>
</mgrwt>
</event>
<event>
12    1  0.1755460E-007  0.2060249E+04  0.7818608E-02  0.8578959E-01
         -1   -1    0    0    0  501 -0.00000000000E+00  0.00000000000E+00  0.58887325284E+03  0.58887325284E+03  0.00000000000E+00 0.  1.
          1   -1    0    0  501    0  0.00000000000E+00 -0.00000000000E+00 -0.18020120560E+04  0.18020120560E+04  0.00000000000E+00 0. -1.
         23    2    1    2    0    0 -0.73894599697E+03 -0.29807689539E+03 -0.75912366450E+03  0.11043268988E+04  0.91532176539E+02 0.  0.
        254    2    1    2    0    0  0.73894599697E+03  0.29807689539E+03 -0.45401513869E+03  0.12865584101E+04  0.90233684090E+03 0.  0.
        -24    2    4    4    0    0 -0.10126298522E+03 -0.17799875876E+03 -0.16652060958E+03  0.27570119788E+03  0.79651031416E+02 0.  0.
         24    2    4    4    0    0  0.84020898219E+03  0.47607565414E+03 -0.28749452911E+03  0.10108572122E+04  0.81117427294E+02 0.  0.
         13    1    3    3    0    0 -0.28900300853E+02 -0.89359152927E+00 -0.49915003670E+02  0.57684776905E+02  0.00000000000E+00 0.  1.
        -13    1    3    3    0    0 -0.71004569612E+03 -0.29718330386E+03 -0.70920866083E+03  0.10466421219E+04  0.00000000000E+00 0. -1.
          2    1    6    6  502    0  0.10774870647E+03  0.77613393164E+02 -0.65042157431E+02  0.14786515745E+03  0.00000000000E+00 0. -1.
          1    1    5    5  503    0 -0.97962195762E+01 -0.90707306489E+02 -0.51452577930E+02  0.10474325345E+03  0.00000000000E+00 0. -1.
         -2    1    5    5    0  503 -0.91466765640E+02 -0.87291452267E+02 -0.11506803165E+03  0.17095794443E+03  0.00000000000E+00 0.  1.
         -1    1    6    6    0  502  0.73246027572E+03  0.39846226098E+03 -0.22245237168E+03  0.86299205477E+03  0.00000000000E+00 0.  1.
<mgrwt>
<rscale>  0 0.20602492E+04</rscale>
<asrwt>0</asrwt>
<pdfrwt beam="1">  1        1 0.27723262E+00 0.20602492E+04</pdfrwt>
<pdfrwt beam="2">  1       -1 0.90595886E-01 0.20602492E+04</pdfrwt>
<totfact> 0.44610476E+00</totfact>
</mgrwt>
</event>
<event>
12    1  0.1755460E-007  0.1797147E+04  0.7818608E-02  0.8707818E-01
          1   -1    0    0  501    0  0.00000000000E+00  0.00000000000E+00  0.52360550961E+03  0.52360550961E+03  0.00000000000E+00 0. -1.
         -1   -1    0    0    0  501 -0.00000000000E+00 -0.00000000000E+00 -0.15420661429E+04  0.15420661429E+04  0.00000000000E+00 0.  1.
         23    2    1    2    0    0 -0.37802429713E+03  0.43594335980E+02  0.23702913515E+03  0.45777131318E+03  0.92568509285E+02 0.  0.
        254    2    1    2    0    0  0.37802429713E+03 -0.43594335980E+02 -0.12554897684E+04  0.16079003393E+04  0.92966989151E+03 0.  0.
        -24    2    4    4    0    0  0.83716041735E+02 -0.46703181629E+03 -0.56243937180E+03  0.74038170095E+03  0.81853057828E+02 0.  0.
         24    2    4    4    0    0  0.29430825539E+03  0.42343748031E+03 -0.69305039662E+03  0.86751863836E+03  0.79706252752E+02 0.  0.
         13    1    3    3    0    0 -0.13237824257E+03  0.56281265366E+02  0.10895892652E+03  0.18045394871E+03  0.00000000000E+00 0.  1.
        -13    1    3    3    0    0 -0.24564605456E+03 -0.12686929386E+02  0.12807020863E+03  0.27731736447E+03  0.00000000000E+00 0. -1.
          4    1    6    6  502    0  0.14608177922E+03  0.27727016385E+03 -0.42880290230E+03  0.53112198129E+03  0.00000000000E+00 0. -1.
          3    1    5    5  503    0  0.88468196090E+01 -0.15802853528E+01 -0.18558878374E+02  0.20620268803E+02  0.00000000000E+00 0. -1.
         -4    1    5    5    0  503  0.74869222125E+02 -0.46545153093E+03 -0.54388049343E+03  0.71976143215E+03  0.00000000000E+00 0.  1.
         -3    1    6    6    0  502  0.14822647617E+03  0.14616731646E+03 -0.26424749432E+03  0.33639665707E+03  0.00000000000E+00 0.  1.
<mgrwt>
<rscale>  0 0.17971470E+04</rscale>
<asrwt>0</asrwt>
<pdfrwt beam="1">  1        1 0.80554695E-01 0.17971470E+04</pdfrwt>
<pdfrwt beam="2">  1       -1 0.23724094E+00 0.17971470E+04</pdfrwt>
<totfact> 0.33165981E+00</totfact>
</mgrwt>
</event>
<event>
12    1  0.1755460E-007  0.1626575E+04  0.7818608E-02  0.8804386E-01
          2   -1    0    0  501    0  0.00000000000E+00  0.00000000000E+00  0.17761561530E+04  0.17761561530E+04  0.00000000000E+00 0. -1.
         -2   -1    0    0    0  501 -0.00000000000E+00 -0.00000000000E+00 -0.37239779071E+03  0.37239779071E+03  0.00000000000E+00 0.  1.
         23    2    1    2    0    0 -0.26448918977E+03  0.32315378776E+03 -0.68611659502E+01  0.42790058660E+03  0.93107112317E+02 0.  0.
        254    2    1    2    0    0  0.26448918977E+03 -0.32315378776E+03  0.14106195282E+04  0.17206533571E+04  0.89242233266E+03 0.  0.
        -24    2    4    4    0    0 -0.14706500709E+03 -0.13374481215E+03 -0.22919353925E+02  0.21511891355E+03  0.78962390401E+02 0.  0.
         24    2    4    4    0    0  0.41155419686E+03 -0.18940897561E+03  0.14335388822E+04  0.15055344436E+04  0.79671934051E+02 0.  0.
         11    1    3    3    0    0 -0.20896970253E+01 -0.88597766408E+00  0.10340192154E+02  0.10586376333E+02  0.00000000000E+00 0. -1.
        -11    1    3    3    0    0 -0.26239949275E+03  0.32403976542E+03 -0.17201358104E+02  0.41731421027E+03  0.00000000000E+00 0.  1.
          4    1    6    6  502    0  0.22944084029E+03 -0.75365922615E+02  0.85207767292E+03  0.88564071845E+03  0.00000000000E+00 0. -1.
          1    1    5    5  503    0 -0.81338960263E+02 -0.10050294980E+03 -0.47087059562E+02  0.13760109212E+03  0.00000000000E+00 0. -1.
         -2    1    5    5    0  503 -0.65726046822E+02 -0.33241862344E+02  0.24167705637E+02  0.77517821427E+02  0.00000000000E+00 0.  1.
         -3    1    6    6    0  502  0.18211335657E+03 -0.11404305300E+03  0.58146120924E+03  0.61989372510E+03  0.00000000000E+00 0.  1.
<mgrwt>
<rscale>  0 0.16265751E+04</rscale>
<asrwt>0</asrwt>
<pdfrwt beam="1">  1        2 0.27325479E+00 0.16265751E+04</pdfrwt>
<pdfrwt beam="2">  1       -2 0.57291969E-01 0.16265751E+04</pdfrwt>
<totfact> 0.24300551E+01</totfact>
</mgrwt>
</event>
<event>
12    1  0.1755460E-007  0.1803624E+04  0.7818608E-02  0.8704375E-01
          2   -1    0    0  501    0  0.00000000000E+00  0.00000000000E+00  0.78779178216E+03  0.78779178216E+03  0.00000000000E+00 0. -1.
         -2   -1    0    0    0  501 -0.00000000000E+00 -0.00000000000E+00 -0.10323347701E+04  0.10323347701E+04  0.00000000000E+00 0.  1.
         23    2    1    2    0    0  0.36060049245E+03 -0.53376028172E+03  0.10730766309E+03  0.65991833388E+03  0.95102677826E+02 0.  0.
        254    2    1    2    0    0 -0.36060049245E+03  0.53376028172E+03 -0.35185065101E+03  0.11602082184E+04  0.89852739293E+03 0.  0.
        -24    2    4    4    0    0 -0.38048898341E+03  0.25427439835E+03  0.22339410114E+03  0.51574117371E+03  0.81588587973E+02 0.  0.
         24    2    4    4    0    0  0.19888490952E+02  0.27948588336E+03 -0.57524475215E+03  0.64446704465E+03  0.76963210016E+02 0.  0.
         13    1    3    3    0    0  0.18819782256E+03 -0.23606073695E+03  0.91817516439E+02  0.31555276622E+03  0.00000000000E+00 0. -1.
        -13    1    3    3    0    0  0.17240266989E+03 -0.29769954477E+03  0.15490146654E+02  0.34436556765E+03  0.00000000000E+00 0.  1.
          4    1    6    6  502    0 -0.19925858334E+01  0.23058628322E+03 -0.51233840196E+03  0.56184040664E+03  0.00000000000E+00 0. -1.
          3    1    5    5  503    0 -0.17073529426E+03  0.75687666856E+02  0.63723645536E+02  0.19733186925E+03  0.00000000000E+00 0. -1.
         -4    1    5    5    0  503 -0.20975368914E+03  0.17858673150E+03  0.15967045560E+03  0.31840930446E+03  0.00000000000E+00 0.  1.
         -3    1    6    6    0  502  0.21881076786E+02  0.48899600143E+02 -0.62906350187E+02  0.82626638013E+02  0.00000000000E+00 0.  1.
<mgrwt>
<rscale>  0 0.18036240E+04</rscale>
<asrwt>0</asrwt>
<pdfrwt beam="1">  1        2 0.12119874E+00 0.18036240E+04</pdfrwt>
<pdfrwt beam="2">  1       -2 0.15882073E+00 0.18036240E+04</pdfrwt>
<totfact> 0.85241419E+00</totfact>
</mgrwt>
</event>
<event>
12    1  0.1755460E-007  0.2248751E+04  0.7818608E-02  0.8498406E-01
         -1   -1    0    0    0  501 -0.00000000000E+00  0.00000000000E+00  0.14475154737E+04  0.14475154737E+04  0.00000000000E+00 0.  1.
          1   -1    0    0  501    0  0.00000000000E+00 -0.00000000000E+00 -0.87337255948E+03  0.87337255948E+03  0.00000000000E+00 0. -1.
         23    2    1    2    0    0  0.90945234347E+03  0.23311342841E+03  0.30121832371E+03  0.99028367629E+03  0.92107792503E+02 0.  0.
        254    2    1    2    0    0 -0.90945234347E+03 -0.23311342841E+03  0.27292459049E+03  0.13306043569E+04  0.90253791437E+03 0.  0.
        -24    2    4    4    0    0 -0.58253191160E+02  0.22171685218E+03  0.26818248320E+03  0.36208517855E+03  0.81437309735E+02 0.  0.
         24    2    4    4    0    0 -0.85119915231E+03 -0.45483028058E+03  0.47421072902E+01  0.96851917831E+03  0.81217794508E+02 0.  0.
         13    1    3    3    0    0  0.72310180463E+01  0.91233838019E+01 -0.32444217769E+01  0.12085115914E+02  0.00000000000E+00 0. -1.
        -13    1    3    3    0    0  0.90222132543E+03  0.22399004461E+03  0.30446274549E+03  0.97819856038E+03  0.00000000000E+00 0.  1.
          2    1    6    6  502    0 -0.47808593189E+03 -0.29048761079E+03 -0.22832958405E+02  0.55988441153E+03  0.00000000000E+00 0. -1.
          1    1    5    5  503    0 -0.26557199643E+02  0.27738792898E+02  0.14225298971E+02  0.40952223567E+02  0.00000000000E+00 0. -1.
         -2    1    5    5    0  503 -0.31695991517E+02  0.19397805928E+03  0.25395718422E+03  0.32113295499E+03  0.00000000000E+00 0.  1.
         -1    1    6    6    0  502 -0.37311322043E+03 -0.16434266979E+03  0.27575065695E+02  0.40863476678E+03  0.00000000000E+00 0.  1.
<mgrwt>
<rscale>  0 0.22487510E+04</rscale>
<asrwt>0</asrwt>
<pdfrwt beam="1">  1        1 0.13436501E+00 0.22487510E+04</pdfrwt>
<pdfrwt beam="2">  1       -1 0.22269469E+00 0.22487510E+04</pdfrwt>
<totfact> 0.18347229E+00</totfact>
</mgrwt>
</event>
<event>
12    1  0.2107880E-007  0.1997123E+04  0.7818608E-02  0.8607967E-01
         -2   -1    0    0    0  501 -0.00000000000E+00  0.00000000000E+00  0.64096030360E+03  0.64096030360E+03  0.00000000000E+00 0.  1.
          2   -1    0    0  501    0  0.00000000000E+00 -0.00000000000E+00 -0.15556736328E+04  0.15556736328E+04  0.00000000000E+00 0. -1.
         23    2    1    2    0    0 -0.98114687767E+02  0.70075147304E+03 -0.75773317130E+03  0.10407537066E+04  0.91266642088E+02 0.  0.
        254    2    1    2    0    0  0.98114687767E+02 -0.70075147304E+03 -0.15698015794E+03  0.11558802299E+04  0.90040947177E+03 0.  0.
        -24    2    4    4    0    0 -0.15534871574E+03  0.13349520843E+03  0.10137759472E+03  0.24299752326E+03  0.82560192865E+02 0.  0.
         24    2    4    4    0    0  0.25346340350E+03 -0.83424668147E+03 -0.25835775266E+03  0.91288270659E+03  0.79968025945E+02 0.  0.
         11    1    3    3    0    0 -0.59405867938E+02  0.38162884371E+03 -0.47870982834E+03  0.61508758015E+03  0.00000000000E+00 0. -1.
        -11    1    3    3    0    0 -0.38708819829E+02  0.31912262933E+03 -0.27902334295E+03  0.42566612643E+03  0.00000000000E+00 0.  1.
          4    1    6    6  502    0  0.43106182346E+02 -0.67460012512E+02 -0.15899042179E+02  0.81619702197E+02  0.00000000000E+00 0. -1.
          3    1    5    5  503    0 -0.47375989123E+01  0.65945527083E+01 -0.12941287017E+02  0.15277757641E+02  0.00000000000E+00 0. -1.
         -4    1    5    5    0  503 -0.15061111682E+03  0.12690065572E+03  0.11431888174E+03  0.22771976562E+03  0.00000000000E+00 0.  1.
         -3    1    6    6    0  502  0.21035722116E+03 -0.76678666896E+03 -0.24245871048E+03  0.83126300439E+03  0.00000000000E+00 0.  1.
<mgrwt>
<rscale>  0 0.19971230E+04</rscale>
<asrwt>0</asrwt>
<pdfrwt beam="1">  1        2 0.23933440E+00 0.19971230E+04</pdfrwt>
<pdfrwt beam="2">  1       -2 0.98609278E-01 0.19971230E+04</pdfrwt>
<totfact> 0.93705751E+00</totfact>
</mgrwt>
</event>
<event>
12    1  0.1755460E-007  0.2605962E+04  0.7818608E-02  0.8366179E-01
          2   -1    0    0  501    0  0.00000000000E+00  0.00000000000E+00  0.19491347873E+04  0.19491347873E+04  0.00000000000E+00 0. -1.
         -2   -1    0    0    0  501 -0.00000000000E+00 -0.00000000000E+00 -0.87103208824E+03  0.87103208824E+03  0.00000000000E+00 0.  1.
         23    2    1    2    0    0 -0.83275134411E+03 -0.76318214093E+03  0.28008686204E+03  0.11673294051E+04  0.91035752764E+02 0.  0.
        254    2    1    2    0    0  0.83275134411E+03  0.76318214093E+03  0.79801583697E+03  0.16528374704E+04  0.90505284171E+03 0.  0.
        -24    2    4    4    0    0  0.94661750178E+03  0.36425790262E+03  0.48530913225E+03  0.11272074671E+04  0.79392731404E+02 0.  0.
         24    2    4    4    0    0 -0.11386615766E+03  0.39892423831E+03  0.31270670473E+03  0.52563000332E+03  0.79971041258E+02 0.  0.
         13    1    3    3    0    0 -0.50612528581E+03 -0.47768107973E+03  0.21672675057E+03  0.72891186249E+03  0.00000000000E+00 0. -1.
        -13    1    3    3    0    0 -0.32662605830E+03 -0.28550106120E+03  0.63360111470E+02  0.43841754257E+03  0.00000000000E+00 0.  1.
          2    1    6    6  502    0 -0.91288852228E+02  0.36618498162E+03  0.25469791910E+03  0.45529784241E+03  0.00000000000E+00 0. -1.
          1    1    5    5  503    0  0.85711273116E+03  0.31211974643E+03  0.45454270630E+03  0.10191516285E+04  0.00000000000E+00 0. -1.
         -4    1    5    5    0  503  0.89504770612E+02  0.52138156193E+02  0.30766425950E+02  0.10805583862E+03  0.00000000000E+00 0.  1.
         -1    1    6    6    0  502 -0.22577305437E+02  0.32739256686E+02  0.58008785624E+02  0.70332160913E+02  0.00000000000E+00 0.  1.
<mgrwt>
<rscale>  0 0.26059616E+04</rscale>
<asrwt>0</asrwt>
<pdfrwt beam="1">  1        2 0.29986689E+00 0.26059616E+04</pdfrwt>
<pdfrwt beam="2">  1       -2 0.13400494E+00 0.26059616E+04</pdfrwt>
<totfact> 0.25348921E+00</totfact>
</mgrwt>
</event>
<event>
12    1  0.1755460E-007  0.1198848E+04  0.7818608E-02  0.9113865E-01
          2   -1    0    0  501    0  0.00000000000E+00  0.00000000000E+00  0.16317712656E+04  0.16317712656E+04  0.00000000000E+00 0.  1.
         -2   -1    0    0    0  501 -0.00000000000E+00 -0.00000000000E+00 -0.22019585886E+03  0.22019585886E+03  0.00000000000E+00 0. -1.
         23    2    1    2    0    0  0.16620017279E+03 -0.18061453743E+03  0.34207717161E+03  0.43116406553E+03  0.92959945714E+02 0.  0.
        254    2    1    2    0    0 -0.16620017279E+03  0.18061453743E+03  0.10694982351E+04  0.14208030589E+04  0.90255789219E+03 0.  0.
        -24    2    4    4    0    0 -0.22865744121E+03  0.23816762296E+02 -0.79257620499E+02  0.25681926878E+03  0.82600864533E+02 0.  0.
         24    2    4    4    0    0  0.62457268419E+02  0.15679777513E+03  0.11487558556E+04  0.11639837902E+04  0.82047518104E+02 0.  0.
         11    1    3    3    0    0  0.54810307334E+02 -0.94996229162E+02  0.21665136807E+03  0.24282971118E+03  0.00000000000E+00 0. -1.
        -11    1    3    3    0    0  0.11138986546E+03 -0.85618308263E+02  0.12542580353E+03  0.18833435435E+03  0.00000000000E+00 0.  1.
          4    1    6    6  502    0  0.31803524702E+02  0.12729617426E+03  0.10194467744E+04  0.10278557808E+04  0.00000000000E+00 0. -1.
          3    1    5    5  503    0 -0.21399715600E+03 -0.24850266986E+01 -0.66381828415E+02  0.22407031324E+03  0.00000000000E+00 0. -1.
         -4    1    5    5    0  503 -0.14660285210E+02  0.26301788995E+02 -0.12875792085E+02  0.32748955534E+02  0.00000000000E+00 0.  1.
         -3    1    6    6    0  502  0.30653743717E+02  0.29501600874E+02  0.12930908122E+03  0.13612800941E+03  0.00000000000E+00 0.  1.
<mgrwt>
<rscale>  0 0.11988482E+04</rscale>
<asrwt>0</asrwt>
<pdfrwt beam="1">  1        2 0.25104173E+00 0.11988482E+04</pdfrwt>
<pdfrwt beam="2">  1       -2 0.33876287E-01 0.11988482E+04</pdfrwt>
<totfact> 0.86102587E+01</totfact>
</mgrwt>
</event>
<event>
12    1  0.1755460E-007  0.2096860E+04  0.7818608E-02  0.8562628E-01
         -1   -1    0    0    0  501 -0.00000000000E+00  0.00000000000E+00  0.79394231601E+03  0.79394231601E+03  0.00000000000E+00 0.  1.
          1   -1    0    0  501    0  0.00000000000E+00 -0.00000000000E+00 -0.13844899403E+04  0.13844899403E+04  0.00000000000E+00 0. -1.
         23    2    1    2    0    0  0.61232503940E+03 -0.52101034856E+03 -0.57233474619E+03  0.99067742378E+03  0.86492537874E+02 0.  0.
        254    2    1    2    0    0 -0.61232503940E+03  0.52101034856E+03 -0.18212878146E+02  0.11877548326E+04  0.87409158341E+03 0.  0.
        -24    2    4    4    0    0 -0.79759841103E+03  0.28116165968E+03 -0.12173750945E+03  0.85812964278E+03  0.79695410521E+02 0.  0.
         24    2    4    4    0    0  0.18527337162E+03  0.23984868888E+03  0.10352463131E+03  0.32962518980E+03  0.77985900485E+02 0.  0.
         13    1    3    3    0    0  0.15506412199E+03 -0.10343809777E+03 -0.97606562030E+02  0.21040761143E+03  0.00000000000E+00 0.  1.
        -13    1    3    3    0    0  0.45726091742E+03 -0.41757225079E+03 -0.47472818416E+03  0.78026981235E+03  0.00000000000E+00 0. -1.
          2    1    6    6  502    0  0.27097588483E+02  0.19697202327E+01  0.65618336471E+01  0.27950255101E+02  0.00000000000E+00 0. -1.
          1    1    5    5  503    0 -0.12243605016E+03  0.44408946688E+02  0.10034676899E+02  0.13062708626E+03  0.00000000000E+00 0. -1.
         -2    1    5    5    0  503 -0.67516236087E+03  0.23675271299E+03 -0.13177218635E+03  0.72750255652E+03  0.00000000000E+00 0.  1.
         -1    1    6    6    0  502  0.15817578314E+03  0.23787896864E+03  0.96962797661E+02  0.30167493470E+03  0.00000000000E+00 0.  1.
<mgrwt>
<rscale>  0 0.20968597E+04</rscale>
<asrwt>0</asrwt>
<pdfrwt beam="1">  1        1 0.21299845E+00 0.20968597E+04</pdfrwt>
<pdfrwt beam="2">  1       -1 0.12214497E+00 0.20968597E+04</pdfrwt>
<totfact> 0.42955010E+00</totfact>
</mgrwt>
</event>
<event>
12    1  0.1755460E-007  0.1668403E+04  0.7818608E-02  0.8779593E-01
         -2   -1    0    0    0  501 -0.00000000000E+00  0.00000000000E+00  0.11110503235E+04  0.11110503235E+04  0.00000000000E+00 0.  1.
          2   -1    0    0  501    0  0.00000000000E+00 -0.00000000000E+00 -0.62633723326E+03  0.62633723326E+03  0.00000000000E+00 0. -1.
         23    2    1    2    0    0  0.37798320454E+03  0.27956347446E+03 -0.16357558318E+03  0.50548762593E+03  0.87941624927E+02 0.  0.
        254    2    1    2    0    0 -0.37798320454E+03 -0.27956347446E+03  0.64828867340E+03  0.12318999308E+04  0.93609411723E+03 0.  0.
        -24    2    4    4    0    0 -0.18617734615E+03  0.26139449968E+03 -0.38199236235E+02  0.33360410022E+03  0.82724998352E+02 0.  0.
         24    2    4    4    0    0 -0.19180585839E+03 -0.54095797413E+03  0.68648790964E+03  0.89829583059E+03  0.79023617266E+02 0.  0.
         13    1    3    3    0    0  0.30418410350E+03  0.24754028171E+03 -0.16387349534E+03  0.42503962446E+03  0.00000000000E+00 0. -1.
        -13    1    3    3    0    0  0.73799101046E+02  0.32023192746E+02  0.29791216538E+00  0.80448001470E+02  0.00000000000E+00 0.  1.
          2    1    6    6  502    0 -0.17242005781E+03 -0.38806752359E+03  0.52155017436E+03  0.67256201467E+03  0.00000000000E+00 0. -1.
          1    1    5    5  503    0 -0.12733322765E+03  0.17701875207E+03  0.13498607854E+02  0.21847563219E+03  0.00000000000E+00 0. -1.
         -2    1    5    5    0  503 -0.58844118505E+02  0.84375747607E+02 -0.51697844089E+02  0.11512846803E+03  0.00000000000E+00 0.  1.
         -1    1    6    6    0  502 -0.19385800578E+02 -0.15289045055E+03  0.16493773527E+03  0.22573381592E+03  0.00000000000E+00 0.  1.
<mgrwt>
<rscale>  0 0.16684031E+04</rscale>
<asrwt>0</asrwt>
<pdfrwt beam="1">  1        2 0.96359574E-01 0.16684031E+04</pdfrwt>
<pdfrwt beam="2">  1       -2 0.17093082E+00 0.16684031E+04</pdfrwt>
<totfact> 0.94160915E+00</totfact>
</mgrwt>
</event>
<event>
12    1  0.1755460E-007  0.1061933E+04  0.7818608E-02  0.9243110E-01
         -2   -1    0    0    0  501 -0.00000000000E+00  0.00000000000E+00  0.19354223086E+03  0.19354223086E+03  0.00000000000E+00 0.  1.
          2   -1    0    0  501    0  0.00000000000E+00 -0.00000000000E+00 -0.14566615090E+04  0.14566615090E+04  0.00000000000E+00 0. -1.
         23    2    1    2    0    0  0.97901455350E+02 -0.41183243292E+02 -0.20067836093E+03  0.24428312535E+03  0.90120398896E+02 0.  0.
        254    2    1    2    0    0 -0.97901455350E+02  0.41183243292E+02 -0.10624409172E+04  0.14059206145E+04  0.91463179325E+03 0.  0.
        -24    2    4    4    0    0 -0.15246126887E+03  0.90715568932E+01  0.12584157496E+03  0.21332042034E+03  0.79641497302E+02 0.  0.
         24    2    4    4    0    0  0.54559813524E+02  0.32111686399E+02 -0.11882824921E+04  0.11926001941E+04  0.79196011810E+02 0.  0.
         11    1    3    3    0    0 -0.37401536765E+01 -0.11916602683E+02  0.46382948728E+01  0.13323210888E+02  0.00000000000E+00 0.  1.
        -11    1    3    3    0    0  0.10164160903E+03 -0.29266640609E+02 -0.20531665580E+03  0.23095991446E+03  0.00000000000E+00 0. -1.
          2    1    6    6  502    0 -0.72134927903E+01  0.22738892599E+02 -0.69048341246E+03  0.69089538615E+03  0.00000000000E+00 0. -1.
          3    1    5    5  503    0 -0.85041633736E+02  0.29461997787E+02  0.10814403775E+03  0.14069549276E+03  0.00000000000E+00 0. -1.
         -4    1    5    5    0  503 -0.67419635139E+02 -0.20390440894E+02  0.17697537209E+02  0.72624927576E+02  0.00000000000E+00 0.  1.
         -1    1    6    6    0  502  0.61773306315E+02  0.93727938001E+01 -0.49779907966E+03  0.50170480798E+03  0.00000000000E+00 0.  1.
<mgrwt>
<rscale>  0 0.10619332E+04</rscale>
<asrwt>0</asrwt>
<pdfrwt beam="1">  1        2 0.22410178E+00 0.10619332E+04</pdfrwt>
<pdfrwt beam="2">  1       -2 0.29775727E-01 0.10619332E+04</pdfrwt>
<totfact> 0.13886304E+02</totfact>
</mgrwt>
</event>
<event>
12    1  0.1755460E-007  0.1401898E+04  0.7818608E-02  0.8952445E-01
          2   -1    0    0  501    0  0.00000000000E+00  0.00000000000E+00  0.47260967447E+03  0.47260967447E+03  0.00000000000E+00 0. -1.
         -2   -1    0    0    0  501 -0.00000000000E+00 -0.00000000000E+00 -0.10396102096E+04  0.10396102096E+04  0.00000000000E+00 0.  1.
         23    2    1    2    0    0 -0.19743519690E+03  0.77864443031E+02  0.19673931228E+03  0.30343060356E+03  0.91215380933E+02 0.  0.
        254    2    1    2    0    0  0.19743519690E+03 -0.77864443031E+02 -0.76373984742E+03  0.12087892805E+04  0.91259489462E+03 0.  0.
        -24    2    4    4    0    0  0.96260644577E+02  0.15054930203E+03  0.15731578869E+03  0.25116696104E+03  0.80033623633E+02 0.  0.
         24    2    4    4    0    0  0.10117455233E+03 -0.22841374507E+03 -0.92105563611E+03  0.95762231947E+03  0.79296235576E+02 0.  0.
         13    1    3    3    0    0 -0.16371570723E+03  0.47098265207E+02  0.19330062071E+03  0.25765521409E+03  0.00000000000E+00 0. -1.
        -13    1    3    3    0    0 -0.33719489677E+02  0.30766177825E+02  0.34386915632E+01  0.45775389476E+02  0.00000000000E+00 0.  1.
          4    1    6    6  502    0  0.95658093511E+02 -0.19890382091E+03 -0.68534628563E+03  0.72000884165E+03  0.00000000000E+00 0. -1.
          1    1    5    5  503    0 -0.70168872864E+01  0.39741846562E+02  0.14215807501E+02  0.42787150621E+02  0.00000000000E+00 0. -1.
         -2    1    5    5    0  503  0.10327753186E+03  0.11080745547E+03  0.14309998119E+03  0.20837981042E+03  0.00000000000E+00 0.  1.
         -3    1    6    6    0  502  0.55164588174E+01 -0.29509924155E+02 -0.23570935047E+03  0.23761347782E+03  0.00000000000E+00 0.  1.
<mgrwt>
<rscale>  0 0.14018985E+04</rscale>
<asrwt>0</asrwt>
<pdfrwt beam="1">  1        2 0.72709182E-01 0.14018985E+04</pdfrwt>
<pdfrwt beam="2">  1       -2 0.15994003E+00 0.14018985E+04</pdfrwt>
<totfact> 0.16113854E+01</totfact>
</mgrwt>
</event>
<event>
12    1  0.1755460E-007  0.3084713E+04  0.7818608E-02  0.8219946E-01
         -2   -1    0    0    0  501 -0.00000000000E+00  0.00000000000E+00  0.17301424084E+04  0.17301424084E+04  0.00000000000E+00 0.  1.
          2   -1    0    0  501    0  0.00000000000E+00 -0.00000000000E+00 -0.13749525995E+04  0.13749525995E+04  0.00000000000E+00 0. -1.
         23    2    1    2    0    0  0.10466237990E+04 -0.14971691162E+03  0.10865115964E+04  0.15187028524E+04  0.90079822694E+02 0.  0.
        254    2    1    2    0    0 -0.10466237990E+04  0.14971691162E+03 -0.73132178752E+03  0.15863921555E+04  0.92950093261E+03 0.  0.
        -24    2    4    4    0    0 -0.70058993627E+02  0.35379319030E+03 -0.43291406876E+02  0.37200231272E+03  0.80210290308E+02 0.  0.
         24    2    4    4    0    0 -0.97656480541E+03 -0.20407627868E+03 -0.68803038065E+03  0.12143898428E+04  0.77659119295E+02 0.  0.
         13    1    3    3    0    0  0.48008377212E+03 -0.97990199746E+02  0.45387465270E+03  0.66789573128E+03  0.00000000000E+00 0.  1.
        -13    1    3    3    0    0  0.56654002692E+03 -0.51726711875E+02  0.63263694374E+03  0.85080712115E+03  0.00000000000E+00 0. -1.
          2    1    6    6  502    0 -0.92905582071E+03 -0.17877866326E+03 -0.66119444716E+03  0.11542463452E+04  0.00000000000E+00 0. -1.
          3    1    5    5  503    0 -0.88018485843E+02  0.27949386439E+03 -0.35438575182E+02  0.29516091661E+03  0.00000000000E+00 0. -1.
         -4    1    5    5    0  503  0.17959492216E+02  0.74299325910E+02 -0.78528316936E+01  0.76841396115E+02  0.00000000000E+00 0.  1.
         -3    1    6    6    0  502 -0.47508984708E+02 -0.25297615422E+02 -0.26835933491E+02  0.60143497573E+02  0.00000000000E+00 0.  1.
<mgrwt>
<rscale>  0 0.30847131E+04</rscale>
<asrwt>0</asrwt>
<pdfrwt beam="1">  1        2 0.21153117E+00 0.30847131E+04</pdfrwt>
<pdfrwt beam="2">  1       -2 0.26617575E+00 0.30847131E+04</pdfrwt>
<totfact> 0.65034692E-01</totfact>
</mgrwt>
</event>
<event>
12    1  0.1755460E-007  0.1908560E+04  0.7818608E-02  0.8650607E-01
         -2   -1    0    0    0  501 -0.00000000000E+00  0.00000000000E+00  0.29561311621E+03  0.29561311621E+03  0.00000000000E+00 0.  1.
          2   -1    0    0  501    0  0.00000000000E+00 -0.00000000000E+00 -0.30805489447E+04  0.30805489447E+04  0.00000000000E+00 0. -1.
         23    2    1    2    0    0  0.38656594598E+03 -0.61129354286E+03 -0.13364310224E+04  0.15223081232E+04  0.90890693250E+02 0.  0.
        254    2    1    2    0    0 -0.38656594598E+03  0.61129354286E+03 -0.14485048061E+04  0.18538539378E+04  0.90304774131E+03 0.  0.
        -24    2    4    4    0    0 -0.65908636366E+03  0.55746873217E+03 -0.10706641590E+04  0.13775642645E+04  0.78710478906E+02 0.  0.
         24    2    4    4    0    0  0.27252041768E+03  0.53824810690E+02 -0.37784064718E+03  0.47628967326E+03  0.83209433940E+02 0.  0.
         11    1    3    3    0    0  0.23057420057E+03 -0.35160185241E+03 -0.86765423950E+03  0.96416399223E+03  0.00000000000E+00 0. -1.
        -11    1    3    3    0    0  0.15599174541E+03 -0.25969169045E+03 -0.46877678290E+03  0.55814413095E+03  0.00000000000E+00 0.  1.
          2    1    6    6  502    0  0.16710794254E+03  0.66194745442E+02 -0.19758299589E+03  0.26710643768E+03  0.00000000000E+00 0. -1.
          1    1    5    5  503    0 -0.24075922056E+03  0.15580568451E+03 -0.36388874909E+03  0.46330922214E+03  0.00000000000E+00 0. -1.
         -2    1    5    5    0  503 -0.41832714310E+03  0.40166304766E+03 -0.70677540987E+03  0.91425504237E+03  0.00000000000E+00 0.  1.
         -1    1    6    6    0  502  0.10541247514E+03 -0.12369934752E+02 -0.18025765129E+03  0.20918323559E+03  0.00000000000E+00 0.  1.
<mgrwt>
<rscale>  0 0.19085604E+04</rscale>
<asrwt>0</asrwt>
<pdfrwt beam="1">  1        2 0.47393061E+00 0.19085604E+04</pdfrwt>
<pdfrwt beam="2">  1       -2 0.45478941E-01 0.19085604E+04</pdfrwt>
<totfact> 0.66679640E+00</totfact>
</mgrwt>
</event>
<event>
12    1  0.1755460E-007  0.1305890E+04  0.7818608E-02  0.9024908E-01
          2   -1    0    0  501    0  0.00000000000E+00  0.00000000000E+00  0.80126466349E+03  0.80126466349E+03  0.00000000000E+00 0. -1.
         -2   -1    0    0    0  501 -0.00000000000E+00 -0.00000000000E+00 -0.53208010614E+03  0.53208010614E+03  0.00000000000E+00 0.  1.
         23    2    1    2    0    0 -0.28736638223E+03 -0.47797318497E+02 -0.97646947268E+02  0.32037718786E+03  0.90788737729E+02 0.  0.
        254    2    1    2    0    0  0.28736638223E+03  0.47797318497E+02  0.36683150462E+03  0.10129675818E+04  0.89815029234E+03 0.  0.
        -24    2    4    4    0    0  0.24516954624E+03 -0.28291407681E+03 -0.13432289623E+03  0.40581197224E+03  0.80574407220E+02 0.  0.
         24    2    4    4    0    0  0.42196835989E+02  0.33071139531E+03  0.50115440085E+03  0.60715560952E+03  0.79571356252E+02 0.  0.
         11    1    3    3    0    0 -0.17155776921E+03 -0.53614702938E+02 -0.97374770704E+02  0.20442223587E+03  0.00000000000E+00 0.  1.
        -11    1    3    3    0    0 -0.11580861302E+03  0.58173844416E+01 -0.27217656439E+00  0.11595495199E+03  0.00000000000E+00 0. -1.
          2    1    6    6  502    0  0.51547046872E+02  0.18294285406E+03  0.23153359697E+03  0.29955465682E+03  0.00000000000E+00 0. -1.
          3    1    5    5  503    0  0.22477214848E+03 -0.28120363155E+03 -0.13696757193E+03  0.38517284027E+03  0.00000000000E+00 0. -1.
         -4    1    5    5    0  503  0.20397397766E+02 -0.17104452642E+01  0.26446757014E+01  0.20639131964E+02  0.00000000000E+00 0.  1.
         -1    1    6    6    0  502 -0.93502108833E+01  0.14776854125E+03  0.26962080387E+03  0.30760095271E+03  0.00000000000E+00 0.  1.
<mgrwt>
<rscale>  0 0.13058897E+04</rscale>
<asrwt>0</asrwt>
<pdfrwt beam="1">  1        2 0.12327149E+00 0.13058897E+04</pdfrwt>
<pdfrwt beam="2">  1       -2 0.81858477E-01 0.13058897E+04</pdfrwt>
<totfact> 0.44220468E+01</totfact>
</mgrwt>
</event>
<event>
12    1  0.1755460E-007  0.1778875E+04  0.7818608E-02  0.8717615E-01
         -2   -1    0    0    0  501 -0.00000000000E+00  0.00000000000E+00  0.25112199786E+03  0.25112199786E+03  0.00000000000E+00 0.  1.
          2   -1    0    0  501    0  0.00000000000E+00 -0.00000000000E+00 -0.31502585611E+04  0.31502585611E+04  0.00000000000E+00 0. -1.
         23    2    1    2    0    0  0.17622269552E+03  0.43567476187E+03 -0.19741736920E+04  0.20315580510E+04  0.94865230039E+02 0.  0.
        254    2    1    2    0    0 -0.17622269552E+03 -0.43567476187E+03 -0.92496287119E+03  0.13698225079E+04  0.89442185436E+03 0.  0.
        -24    2    4    4    0    0 -0.23381161887E+03 -0.65681229744E+03 -0.87518904938E+03  0.11219462011E+04  0.82080075889E+02 0.  0.
         24    2    4    4    0    0  0.57588923350E+02  0.22113753557E+03 -0.49773821805E+02  0.24787630679E+03  0.82139737053E+02 0.  0.
         13    1    3    3    0    0  0.13062883181E+03  0.20377701667E+03 -0.10661641512E+04  0.10932954594E+04  0.00000000000E+00 0. -1.
        -13    1    3    3    0    0  0.45593863707E+02  0.23189774520E+03 -0.90800954085E+03  0.93826259166E+03  0.00000000000E+00 0.  1.
          2    1    6    6  502    0  0.21471921032E+02  0.81589304388E+02 -0.59754377424E+02  0.10338492929E+03  0.00000000000E+00 0. -1.
          1    1    5    5  503    0 -0.12285309460E+03 -0.27213188135E+03 -0.32264344546E+03  0.43959917720E+03  0.00000000000E+00 0. -1.
         -2    1    5    5    0  503 -0.11095852427E+03 -0.38468041609E+03 -0.55254560392E+03  0.68234702391E+03  0.00000000000E+00 0.  1.
         -1    1    6    6    0  502  0.36117002318E+02  0.13954823118E+03  0.99805556197E+01  0.14449137750E+03  0.00000000000E+00 0.  1.
<mgrwt>
<rscale>  0 0.17788752E+04</rscale>
<asrwt>0</asrwt>
<pdfrwt beam="1">  1        2 0.48465520E+00 0.17788752E+04</pdfrwt>
<pdfrwt beam="2">  1       -2 0.38634150E-01 0.17788752E+04</pdfrwt>
<totfact> 0.84056602E+00</totfact>
</mgrwt>
</event>
<event>
12    1  0.1755460E-007  0.2368901E+04  0.7818608E-02  0.8451239E-01
          3   -1    0    0  501    0  0.00000000000E+00  0.00000000000E+00  0.66103140819E+03  0.66103140819E+03  0.00000000000E+00 0. -1.
         -3   -1    0    0    0  501 -0.00000000000E+00 -0.00000000000E+00 -0.21223245305E+04  0.21223245305E+04  0.00000000000E+00 0.  1.
         23    2    1    2    0    0 -0.57786351098E+03  0.81363086157E+03 -0.82213158034E+03  0.12961369173E+04  0.90272679579E+02 0.  0.
        254    2    1    2    0    0  0.57786351098E+03 -0.81363086157E+03 -0.63916154201E+03  0.14872190215E+04  0.89853854944E+03 0.  0.
        -24    2    4    4    0    0  0.63488685018E+03 -0.64595199861E+03 -0.81948349762E+03  0.12239663616E+04  0.78772802173E+02 0.  0.
         24    2    4    4    0    0 -0.57023339203E+02 -0.16767886295E+03  0.18032195561E+03  0.26325265989E+03  0.73607696414E+02 0.  0.
         11    1    3    3    0    0 -0.52831568403E+03  0.69484244228E+03 -0.70330809713E+03  0.11209664407E+04  0.00000000000E+00 0.  1.
        -11    1    3    3    0    0 -0.49547826947E+02  0.11878841928E+03 -0.11882348321E+03  0.17517047660E+03  0.00000000000E+00 0. -1.
          2    1    6    6  502    0 -0.20200133652E+02 -0.61728552454E+02  0.20713804988E+02  0.68172731386E+02  0.00000000000E+00 0. -1.
          1    1    5    5  503    0  0.10540839632E+03 -0.11086637160E+03 -0.18013088628E+03  0.23632481579E+03  0.00000000000E+00 0. -1.
         -2    1    5    5    0  503  0.52947845387E+03 -0.53508562701E+03 -0.63935261133E+03  0.98764154579E+03  0.00000000000E+00 0.  1.
         -1    1    6    6    0  502 -0.36823205551E+02 -0.10595031050E+03  0.15960815062E+03  0.19507992851E+03  0.00000000000E+00 0.  1.
<mgrwt>
<rscale>  0 0.23689012E+04</rscale>
<asrwt>0</asrwt>
<pdfrwt beam="1">  1        3 0.10169714E+00 0.23689012E+04</pdfrwt>
<pdfrwt beam="2">  1       -3 0.32651146E+00 0.23689012E+04</pdfrwt>
<totfact> 0.53446716E-02</totfact>
</mgrwt>
</event>
<event>
12    1  0.1755460E-007  0.3160277E+04  0.7818608E-02  0.8199387E-01
         -2   -1    0    0    0  501 -0.00000000000E+00  0.00000000000E+00  0.16105388592E+04  0.16105388592E+04  0.00000000000E+00 0.  1.
          2   -1    0    0  501    0  0.00000000000E+00 -0.00000000000E+00 -0.15503121131E+04  0.15503121131E+04  0.00000000000E+00 0. -1.
         23    2    1    2    0    0 -0.11686925433E+04 -0.13382632631E+03 -0.72679651718E+03  0.13857834581E+04  0.91710788946E+02 0.  0.
        254    2    1    2    0    0  0.11686925433E+04  0.13382632631E+03  0.78702326326E+03  0.17750675143E+04  0.10713110272E+04 0.  0.
        -24    2    4    4    0    0  0.48762862319E+03  0.44486143638E+03  0.77614468004E+03  0.10220576971E+04  0.80734132192E+02 0.  0.
         24    2    4    4    0    0  0.68106392014E+03 -0.31103511007E+03  0.10878583220E+02  0.75300981720E+03  0.79464068701E+02 0.  0.
         13    1    3    3    0    0 -0.88148157026E+03 -0.10597692755E+03 -0.59343718426E+03  0.10678991336E+04  0.00000000000E+00 0. -1.
        -13    1    3    3    0    0 -0.28721097308E+03 -0.27849398761E+02 -0.13335933293E+03  0.31788432447E+03  0.00000000000E+00 0.  1.
          2    1    6    6  502    0  0.43511313853E+03 -0.15860358743E+03 -0.60611306382E+01  0.46315794128E+03  0.00000000000E+00 0. -1.
          1    1    5    5  503    0  0.47164600215E+03  0.42285322327E+03  0.71561984798E+03  0.95570213278E+03  0.00000000000E+00 0. -1.
         -2    1    5    5    0  503  0.15982621036E+02  0.22008213113E+02  0.60524832059E+02  0.66355564314E+02  0.00000000000E+00 0.  1.
         -1    1    6    6    0  502  0.24595078161E+03 -0.15243152263E+03  0.16939713859E+02  0.28985187592E+03  0.00000000000E+00 0.  1.
<mgrwt>
<rscale>  0 0.31602771E+04</rscale>
<asrwt>0</asrwt>
<pdfrwt beam="1">  1        2 0.23850955E+00 0.31602771E+04</pdfrwt>
<pdfrwt beam="2">  1       -2 0.24777521E+00 0.31602771E+04</pdfrwt>
<totfact> 0.66629321E-01</totfact>
</mgrwt>
</event>
<event>
12    1  0.1755460E-007  0.1729665E+04  0.7818608E-02  0.8744624E-01
         -2   -1    0    0    0  501 -0.00000000000E+00  0.00000000000E+00  0.56614508621E+03  0.56614508621E+03  0.00000000000E+00 0.  1.
          2   -1    0    0  501    0  0.00000000000E+00 -0.00000000000E+00 -0.13211013289E+04  0.13211013289E+04  0.00000000000E+00 0. -1.
         23    2    1    2    0    0 -0.34559843108E+03  0.40921726228E+03  0.76371165941E+02  0.54955282536E+03  0.96326058550E+02 0.  0.
        254    2    1    2    0    0  0.34559843108E+03 -0.40921726228E+03 -0.83132740864E+03  0.13376935898E+04  0.90078956278E+03 0.  0.
        -24    2    4    4    0    0 -0.62531757574E+02 -0.53709029661E+03 -0.68851360037E+03  0.87923375452E+03  0.81392934352E+02 0.  0.
         24    2    4    4    0    0  0.40813018866E+03  0.12787303433E+03 -0.14281380827E+03  0.45845983524E+03  0.82872630566E+02 0.  0.
         13    1    3    3    0    0 -0.13701448164E+02  0.26665269156E+01 -0.10658947992E+02  0.17562836328E+02  0.00000000000E+00 0. -1.
        -13    1    3    3    0    0 -0.33189698292E+03  0.40655073537E+03  0.87030113933E+02  0.53198998903E+03  0.00000000000E+00 0.  1.
          4    1    6    6  502    0  0.12981513393E+03  0.62206896532E+02 -0.13370247326E+02  0.14456981181E+03  0.00000000000E+00 0. -1.
          3    1    5    5  503    0 -0.27449477341E+02 -0.46247319680E+03 -0.60327500214E+03  0.76064161060E+03  0.00000000000E+00 0. -1.
         -4    1    5    5    0  503 -0.35082280233E+02 -0.74617099809E+02 -0.85238598232E+02  0.11859214392E+03  0.00000000000E+00 0.  1.
         -3    1    6    6    0  502  0.27831505473E+03  0.65666137798E+02 -0.12944356094E+03  0.31389002343E+03  0.00000000000E+00 0.  1.
<mgrwt>
<rscale>  0 0.17296647E+04</rscale>
<asrwt>0</asrwt>
<pdfrwt beam="1">  1        2 0.20324636E+00 0.17296647E+04</pdfrwt>
<pdfrwt beam="2">  1       -2 0.87099244E-01 0.17296647E+04</pdfrwt>
<totfact> 0.17386659E+01</totfact>
</mgrwt>
</event>
<event>
12    1  0.1755460E-007  0.2030227E+04  0.7818608E-02  0.8592617E-01
         -2   -1    0    0    0  501 -0.00000000000E+00  0.00000000000E+00  0.98856635418E+03  0.98856635418E+03  0.00000000000E+00 0. -1.
          2   -1    0    0  501    0  0.00000000000E+00 -0.00000000000E+00 -0.10423738845E+04  0.10423738845E+04  0.00000000000E+00 0.  1.
         23    2    1    2    0    0 -0.42989825759E+03 -0.58956072517E+03 -0.37916545242E+03  0.82725646254E+03  0.90512175775E+02 0.  0.
        254    2    1    2    0    0  0.42989825759E+03  0.58956072517E+03  0.32535792206E+03  0.12036837762E+04  0.90033465724E+03 0.  0.
        -24    2    4    4    0    0 -0.10076813480E+02 -0.71123377671E+02 -0.21507516799E+03  0.24009457707E+03  0.78917685151E+02 0.  0.
         24    2    4    4    0    0  0.43997507107E+03  0.66068410284E+03  0.54043309005E+03  0.96358919910E+03  0.79716202149E+02 0.  0.
         11    1    3    3    0    0  0.83492999809E+00 -0.19426424376E+02 -0.27976230626E+01  0.19644586199E+02  0.00000000000E+00 0. -1.
        -11    1    3    3    0    0 -0.43073318759E+03 -0.57013430080E+03 -0.37636782936E+03  0.80761187634E+03  0.00000000000E+00 0.  1.
          2    1    6    6  502    0  0.99451826771E+01  0.70849412825E+01 -0.81677488077E+00  0.12238062455E+02  0.00000000000E+00 0. -1.
          1    1    5    5  503    0  0.61827801182E+01  0.16484153447E+02 -0.34562128671E+02  0.38787817973E+02  0.00000000000E+00 0. -1.
         -2    1    5    5    0  503 -0.16259593598E+02 -0.87607531118E+02 -0.18051303932E+03  0.20130675910E+03  0.00000000000E+00 0.  1.
         -1    1    6    6    0  502  0.43002988840E+03  0.65359916156E+03  0.54124986493E+03  0.95135113665E+03  0.00000000000E+00 0.  1.
<mgrwt>
<rscale>  0 0.20302273E+04</rscale>
<asrwt>0</asrwt>
<pdfrwt beam="1">  1        2 0.16036521E+00 0.20302273E+04</pdfrwt>
<pdfrwt beam="2">  1       -2 0.15208713E+00 0.20302273E+04</pdfrwt>
<totfact> 0.63349351E+00</totfact>
</mgrwt>
</event>
<event>
12    1  0.1755460E-007  0.2098284E+04  0.7818608E-02  0.8561999E-01
         -2   -1    0    0    0  501 -0.00000000000E+00  0.00000000000E+00  0.92173960495E+03  0.92173960495E+03  0.00000000000E+00 0.  1.
          2   -1    0    0  501    0  0.00000000000E+00 -0.00000000000E+00 -0.11941543466E+04  0.11941543466E+04  0.00000000000E+00 0. -1.
         23    2    1    2    0    0 -0.85493577809E+03 -0.42720260202E+02 -0.10893502580E+03  0.86752627529E+03  0.89413607427E+02 0.  0.
        254    2    1    2    0    0  0.85493577809E+03  0.42720260202E+02 -0.16347971580E+03  0.12483676762E+04  0.89384340476E+03 0.  0.
        -24    2    4    4    0    0 -0.17483893404E+03  0.40321301981E+02 -0.81740287594E+02  0.21242255826E+03  0.79040549028E+02 0.  0.
         24    2    4    4    0    0  0.10297747121E+04  0.23989582211E+01 -0.81739428204E+02  0.10359451179E+04  0.77841123655E+02 0.  0.
         13    1    3    3    0    0 -0.70391172048E+03 -0.24469191697E+02 -0.12207261696E+03  0.71483716704E+03  0.00000000000E+00 0.  1.
        -13    1    3    3    0    0 -0.15102405761E+03 -0.18251068505E+02  0.13137591157E+02  0.15268910825E+03  0.00000000000E+00 0. -1.
          4    1    6    6  502    0  0.82053303615E+03  0.20243809312E+02 -0.90528360604E+02  0.82576004947E+03  0.00000000000E+00 0. -1.
          3    1    5    5  503    0 -0.96488477695E+02 -0.68527232810E+01 -0.12130661054E+02  0.97489174178E+02  0.00000000000E+00 0. -1.
         -2    1    5    5    0  503 -0.78350456347E+02  0.47174025262E+02 -0.69609626540E+02  0.11493338408E+03  0.00000000000E+00 0.  1.
         -3    1    6    6    0  502  0.20924167598E+03 -0.17844851091E+02  0.87889324001E+01  0.21018506847E+03  0.00000000000E+00 0.  1.
<mgrwt>
<rscale>  0 0.20982844E+04</rscale>
<asrwt>0</asrwt>
<pdfrwt beam="1">  1        2 0.18371605E+00 0.20982844E+04</pdfrwt>
<pdfrwt beam="2">  1       -2 0.14180609E+00 0.20982844E+04</pdfrwt>
<totfact> 0.61137307E+00</totfact>
</mgrwt>
</event>
<event>
12    1  0.1755460E-007  0.1415599E+04  0.7818608E-02  0.8942604E-01
          1   -1    0    0  501    0  0.00000000000E+00  0.00000000000E+00  0.15715051363E+04  0.15715051363E+04  0.00000000000E+00 0. -1.
         -1   -1    0    0    0  501 -0.00000000000E+00 -0.00000000000E+00 -0.31879018311E+03  0.31879018311E+03  0.00000000000E+00 0.  1.
         23    2    1    2    0    0 -0.15929045821E+03 -0.28207574112E+03  0.72059707985E+03  0.79542139011E+03  0.92167578636E+02 0.  0.
        254    2    1    2    0    0  0.15929045821E+03  0.28207574112E+03  0.53211787331E+03  0.10948739293E+04  0.90036621221E+03 0.  0.
        -24    2    4    4    0    0  0.13868456378E+03  0.51705713665E+02 -0.23551854510E+03  0.28934951402E+03  0.79669737775E+02 0.  0.
         24    2    4    4    0    0  0.20605894430E+02  0.23037002745E+03  0.76763641841E+03  0.80552441525E+03  0.78159837862E+02 0.  0.
         13    1    3    3    0    0 -0.15982468885E+03 -0.20631736428E+03  0.55211004583E+03  0.61068509780E+03  0.00000000000E+00 0. -1.
        -13    1    3    3    0    0  0.53423063554E+00 -0.75758376839E+02  0.16848703402E+03  0.18473629231E+03  0.00000000000E+00 0.  1.
          2    1    6    6  502    0 -0.51169764968E+01  0.33727899150E+00  0.17393712449E+01  0.54150362801E+01  0.00000000000E+00 0. -1.
          1    1    5    5  503    0  0.38750852154E+02  0.53742488465E+02 -0.11554913107E+03  0.13319716701E+03  0.00000000000E+00 0. -1.
         -2    1    5    5    0  503  0.99933711630E+02 -0.20367748001E+01 -0.11996941403E+03  0.15615234700E+03  0.00000000000E+00 0.  1.
         -1    1    6    6    0  502  0.25722870927E+02  0.23003274846E+03  0.76589704717E+03  0.80010937897E+03  0.00000000000E+00 0.  1.
<mgrwt>
<rscale>  0 0.14155994E+04</rscale>
<asrwt>0</asrwt>
<pdfrwt beam="1">  1        1 0.24177002E+00 0.14155994E+04</pdfrwt>
<pdfrwt beam="2">  1       -1 0.49044644E-01 0.14155994E+04</pdfrwt>
<totfact> 0.23673013E+01</totfact>
</mgrwt>
</event>
<event>
12    1  0.1755460E-007  0.2037214E+04  0.7818608E-02  0.8589417E-01
          2   -1    0    0  501    0  0.00000000000E+00  0.00000000000E+00  0.18020696036E+04  0.18020696036E+04  0.00000000000E+00 0. -1.
         -2   -1    0    0    0  501 -0.00000000000E+00 -0.00000000000E+00 -0.57576010209E+03  0.57576010209E+03  0.00000000000E+00 0.  1.
         23    2    1    2    0    0  0.59662972947E+03 -0.56688321863E+03  0.41656564883E+03  0.92677896776E+03  0.89825929752E+02 0.  0.
        254    2    1    2    0    0 -0.59662972947E+03  0.56688321863E+03  0.80974385265E+03  0.14510507379E+04  0.87894227307E+03 0.  0.
        -24    2    4    4    0    0 -0.25220065436E+03  0.56348905362E+03  0.89209094000E+03  0.10878901111E+04  0.80954091443E+02 0.  0.
         24    2    4    4    0    0 -0.34442907511E+03  0.33941650062E+01 -0.82347087348E+02  0.36316062682E+03  0.80384637498E+02 0.  0.
         11    1    3    3    0    0  0.57808704791E+03 -0.54173493838E+03  0.37996397424E+03  0.87865465352E+03  0.00000000000E+00 0.  1.
        -11    1    3    3    0    0  0.18542681550E+02 -0.25148280243E+02  0.36601674591E+02  0.48124314241E+02  0.00000000000E+00 0. -1.
          2    1    6    6  502    0 -0.34694633806E+03  0.89860885338E+01 -0.83389625597E+02  0.35694024842E+03  0.00000000000E+00 0. -1.
          1    1    5    5  503    0 -0.17233863895E+03  0.28927172842E+03  0.49976735605E+03  0.60261608799E+03  0.00000000000E+00 0. -1.
         -2    1    5    5    0  503 -0.79862015408E+02  0.27421732520E+03  0.39232358395E+03  0.48527402308E+03  0.00000000000E+00 0.  1.
         -1    1    6    6    0  502  0.25172629566E+01 -0.55919235277E+01  0.10425382485E+01  0.62203784074E+01  0.00000000000E+00 0.  1.
<mgrwt>
<rscale>  0 0.20372136E+04</rscale>
<asrwt>0</asrwt>
<pdfrwt beam="1">  1        2 0.27724148E+00 0.20372136E+04</pdfrwt>
<pdfrwt beam="2">  1       -2 0.88578478E-01 0.20372136E+04</pdfrwt>
<totfact> 0.87388735E+00</totfact>
</mgrwt>
</event>
<event>
12    1  0.1755460E-007  0.2101548E+04  0.7818608E-02  0.8560562E-01
         -1   -1    0    0    0  501 -0.00000000000E+00  0.00000000000E+00  0.93573107199E+03  0.93573107199E+03  0.00000000000E+00 0.  1.
          1   -1    0    0  501    0  0.00000000000E+00 -0.00000000000E+00 -0.11799613073E+04  0.11799613073E+04  0.00000000000E+00 0. -1.
         23    2    1    2    0    0 -0.36295507697E+03 -0.78097030694E+02  0.67596462938E+03  0.77661471487E+03  0.91469672979E+02 0.  0.
        254    2    1    2    0    0  0.36295507697E+03  0.78097030694E+02 -0.92019486466E+03  0.13390776644E+04  0.89918566948E+03 0.  0.
        -24    2    4    4    0    0  0.54597697554E+03 -0.16275705444E+03 -0.30981181737E+03  0.65321848550E+03  0.78296302768E+02 0.  0.
         24    2    4    4    0    0 -0.18302189857E+03  0.24085408514E+03 -0.61038304729E+03  0.68585917888E+03  0.79546484249E+02 0.  0.
         13    1    3    3    0    0 -0.16926877006E+03 -0.83996697722E+01  0.23258288618E+03  0.28777989838E+03  0.00000000000E+00 0.  1.
        -13    1    3    3    0    0 -0.19368630691E+03 -0.69697360922E+02  0.44338174320E+03  0.48883481649E+03  0.00000000000E+00 0. -1.
          4    1    6    6  502    0 -0.79986111833E+01 -0.61019054038E+01 -0.17829452702E+02  0.20471942117E+02  0.00000000000E+00 0. -1.
          3    1    5    5  503    0  0.32118833555E+03 -0.10138972649E+03 -0.13930629992E+03  0.36448329006E+03  0.00000000000E+00 0. -1.
         -4    1    5    5    0  503  0.22478863999E+03 -0.61367327951E+02 -0.17050551745E+03  0.28873519544E+03  0.00000000000E+00 0.  1.
         -3    1    6    6    0  502 -0.17502328739E+03  0.24695599054E+03 -0.59255359459E+03  0.66538723677E+03  0.00000000000E+00 0.  1.
<mgrwt>
<rscale>  0 0.21015484E+04</rscale>
<asrwt>0</asrwt>
<pdfrwt beam="1">  1        1 0.18153251E+00 0.21015484E+04</pdfrwt>
<pdfrwt beam="2">  1       -1 0.14395863E+00 0.21015484E+04</pdfrwt>
<totfact> 0.39591170E+00</totfact>
</mgrwt>
</event>
<event>
12    1  0.1755460E-007  0.3150024E+04  0.7818608E-02  0.8202142E-01
         -2   -1    0    0    0  501 -0.00000000000E+00  0.00000000000E+00  0.93602386646E+03  0.93602386646E+03  0.00000000000E+00 0.  1.
          2   -1    0    0  501    0  0.00000000000E+00 -0.00000000000E+00 -0.26502139795E+04  0.26502139795E+04  0.00000000000E+00 0. -1.
         23    2    1    2    0    0  0.46368816628E+03 -0.11873645252E+04 -0.19939145305E+02  0.12782514329E+04  0.93209038835E+02 0.  0.
        254    2    1    2    0    0 -0.46368816628E+03  0.11873645252E+04 -0.16942509678E+04  0.23079864131E+04  0.91185180261E+03 0.  0.
        -24    2    4    4    0    0  0.25193790984E+03  0.17383109734E+03 -0.25585326798E+03  0.40673489999E+03  0.79261739319E+02 0.  0.
         24    2    4    4    0    0 -0.71562607612E+03  0.10135334279E+04 -0.14383976998E+04  0.19012515131E+04  0.79991768528E+02 0.  0.
         11    1    3    3    0    0  0.11770963382E+03 -0.28887436396E+03 -0.44758721379E+02  0.31513060656E+03  0.00000000000E+00 0. -1.
        -11    1    3    3    0    0  0.34597853247E+03 -0.89849016125E+03  0.24819576074E+02  0.96312082635E+03  0.00000000000E+00 0.  1.
          4    1    6    6  502    0 -0.68211531174E+03  0.96281550851E+03 -0.13387906518E+04  0.17845602852E+04  0.00000000000E+00 0. -1.
          3    1    5    5  503    0  0.22823642344E+03  0.12201207274E+03 -0.20161450191E+03  0.32806587488E+03  0.00000000000E+00 0. -1.
         -4    1    5    5    0  503  0.23701486403E+02  0.51819024601E+02 -0.54238766066E+02  0.78669025116E+02  0.00000000000E+00 0.  1.
         -3    1    6    6    0  502 -0.33510764378E+02  0.50717919360E+02 -0.99607047927E+02  0.11669122791E+03  0.00000000000E+00 0.  1.
<mgrwt>
<rscale>  0 0.31500245E+04</rscale>
<asrwt>0</asrwt>
<pdfrwt beam="1">  1        2 0.40772523E+00 0.31500245E+04</pdfrwt>
<pdfrwt beam="2">  1       -2 0.14400367E+00 0.31500245E+04</pdfrwt>
<totfact> 0.80170331E-01</totfact>
</mgrwt>
</event>
<event>
12    1  0.1755460E-007  0.2456228E+04  0.7818608E-02  0.8418748E-01
         -2   -1    0    0    0  501 -0.00000000000E+00  0.00000000000E+00  0.74282616663E+03  0.74282616663E+03  0.00000000000E+00 0.  1.
          2   -1    0    0  501    0  0.00000000000E+00 -0.00000000000E+00 -0.20304397992E+04  0.20304397992E+04  0.00000000000E+00 0. -1.
         23    2    1    2    0    0 -0.89681843811E+03 -0.51756969441E+03 -0.29247747920E+03  0.10793407071E+04  0.85273598938E+02 0.  0.
        254    2    1    2    0    0  0.89681843811E+03  0.51756969441E+03 -0.99513615334E+03  0.16939252587E+04  0.89829010839E+03 0.  0.
        -24    2    4    4    0    0  0.37898778918E+03  0.82214047476E+02 -0.92889509233E+03  0.10097667984E+04  0.79949988234E+02 0.  0.
         24    2    4    4    0    0  0.51783064893E+03  0.43535564694E+03 -0.66241061006E+02  0.68415846030E+03  0.77471287232E+02 0.  0.
         13    1    3    3    0    0 -0.35097249447E+02 -0.33034764560E+02  0.62330082197E+00  0.48202708349E+02  0.00000000000E+00 0. -1.
        -13    1    3    3    0    0 -0.86172118866E+03 -0.48453492985E+03 -0.29310078002E+03  0.10311379988E+04  0.00000000000E+00 0.  1.
          4    1    6    6  502    0  0.33850771395E+03  0.32349790144E+03 -0.25540076850E+02  0.46892500484E+03  0.00000000000E+00 0. -1.
          3    1    5    5  503    0  0.33198346964E+03  0.86408626587E+02 -0.86330260671E+03  0.92896225198E+03  0.00000000000E+00 0. -1.
         -2    1    5    5    0  503  0.47004319534E+02 -0.41945791115E+01 -0.65592485622E+02  0.80804546400E+02  0.00000000000E+00 0.  1.
         -3    1    6    6    0  502  0.17932293498E+03  0.11185774550E+03 -0.40700984156E+02  0.21523345546E+03  0.00000000000E+00 0.  1.
<mgrwt>
<rscale>  0 0.24562278E+04</rscale>
<asrwt>0</asrwt>
<pdfrwt beam="1">  1        2 0.31237535E+00 0.24562278E+04</pdfrwt>
<pdfrwt beam="2">  1       -2 0.11428095E+00 0.24562278E+04</pdfrwt>
<totfact> 0.34435250E+00</totfact>
</mgrwt>
</event>
<event>
12    1  0.1755460E-007  0.1967358E+04  0.7818608E-02  0.8622036E-01
          2   -1    0    0  501    0  0.00000000000E+00  0.00000000000E+00  0.17753018654E+04  0.17753018654E+04  0.00000000000E+00 0. -1.
         -2   -1    0    0    0  501 -0.00000000000E+00 -0.00000000000E+00 -0.54504790540E+03  0.54504790540E+03  0.00000000000E+00 0.  1.
         23    2    1    2    0    0  0.73427521832E+02  0.65755701989E+03  0.95466739208E+03  0.11650548846E+04  0.90499829902E+02 0.  0.
        254    2    1    2    0    0 -0.73427521832E+02 -0.65755701989E+03  0.27558656791E+03  0.11552948862E+04  0.90608249201E+03 0.  0.
        -24    2    4    4    0    0  0.34538687867E+03 -0.10811804399E+03  0.27221402731E+03  0.45990092940E+03  0.80167205280E+02 0.  0.
         24    2    4    4    0    0 -0.41881440050E+03 -0.54943897590E+03  0.33725405997E+01  0.69539395681E+03  0.79200320996E+02 0.  0.
         13    1    3    3    0    0  0.35844169791E+02  0.56640087032E+03  0.78236018991E+03  0.96653102235E+03  0.00000000000E+00 0. -1.
        -13    1    3    3    0    0  0.37583352041E+02  0.91156149570E+02  0.17230720217E+03  0.19852386223E+03  0.00000000000E+00 0.  1.
          4    1    6    6  502    0 -0.15515088287E+03 -0.20529056810E+03 -0.37031628033E+02  0.25997568209E+03  0.00000000000E+00 0. -1.
          3    1    5    5  503    0  0.21627122753E+03 -0.44712362359E+02  0.20422064427E+03  0.30079646066E+03  0.00000000000E+00 0. -1.
         -4    1    5    5    0  503  0.12911565114E+03 -0.63405681633E+02  0.67993383047E+02  0.15910446873E+03  0.00000000000E+00 0.  1.
         -3    1    6    6    0  502 -0.26366351763E+03 -0.34414840780E+03  0.40404168633E+02  0.43541827472E+03  0.00000000000E+00 0.  1.
<mgrwt>
<rscale>  0 0.19673582E+04</rscale>
<asrwt>0</asrwt>
<pdfrwt beam="1">  1        2 0.27312336E+00 0.19673582E+04</pdfrwt>
<pdfrwt beam="2">  1       -2 0.83853525E-01 0.19673582E+04</pdfrwt>
<totfact> 0.10308756E+01</totfact>
</mgrwt>
</event>
<event>
12    1  0.1755460E-007  0.2513482E+04  0.7818608E-02  0.8398198E-01
         -2   -1    0    0    0  501 -0.00000000000E+00  0.00000000000E+00  0.70223416609E+03  0.70223416609E+03  0.00000000000E+00 0.  1.
          2   -1    0    0  501    0  0.00000000000E+00 -0.00000000000E+00 -0.22491051542E+04  0.22491051542E+04  0.00000000000E+00 0. -1.
         23    2    1    2    0    0 -0.56787101845E+03  0.51151445646E+03  0.24555970138E+03  0.80799113997E+03  0.91790972160E+02 0.  0.
        254    2    1    2    0    0  0.56787101845E+03 -0.51151445646E+03 -0.17924306895E+04  0.21433481803E+04  0.89275366853E+03 0.  0.
        -24    2    4    4    0    0  0.62863196648E+03 -0.60412683786E+03 -0.95798924851E+03  0.12977064922E+04  0.78430569376E+02 0.  0.
         24    2    4    4    0    0 -0.60760948027E+02  0.92612381401E+02 -0.83444144101E+03  0.84564168811E+03  0.80922186124E+02 0.  0.
         13    1    3    3    0    0 -0.26237738479E+03  0.22059743658E+03  0.15657330042E+03  0.37685583381E+03  0.00000000000E+00 0.  1.
        -13    1    3    3    0    0 -0.30549363367E+03  0.29091701988E+03  0.88986400969E+02  0.43113530616E+03  0.00000000000E+00 0. -1.
          2    1    6    6  502    0  0.15605267083E+01 -0.40611471646E+01 -0.12195355607E+01  0.45183433782E+01  0.00000000000E+00 0. -1.
          3    1    5    5  503    0  0.13620765951E+03 -0.11278041138E+03 -0.15345237860E+03  0.23413581571E+03  0.00000000000E+00 0. -1.
         -4    1    5    5    0  503  0.49242430697E+03 -0.49134642647E+03 -0.80453686991E+03  0.10635706765E+04  0.00000000000E+00 0.  1.
         -1    1    6    6    0  502 -0.62321474735E+02  0.96673528566E+02 -0.83322190545E+03  0.84112334473E+03  0.00000000000E+00 0.  1.
<mgrwt>
<rscale>  0 0.25134824E+04</rscale>
<asrwt>0</asrwt>
<pdfrwt beam="1">  1        2 0.34601618E+00 0.25134824E+04</pdfrwt>
<pdfrwt beam="2">  1       -2 0.10803603E+00 0.25134824E+04</pdfrwt>
<totfact> 0.29617436E+00</totfact>
</mgrwt>
</event>
<event>
12    1  0.1755460E-007  0.3860830E+04  0.7818608E-02  0.8033226E-01
         -1   -1    0    0    0  501 -0.00000000000E+00  0.00000000000E+00  0.34338883673E+04  0.34338883673E+04  0.00000000000E+00 0.  1.
          1   -1    0    0  501    0  0.00000000000E+00 -0.00000000000E+00 -0.10852133244E+04  0.10852133244E+04  0.00000000000E+00 0. -1.
         23    2    1    2    0    0 -0.13360768683E+03 -0.37270325454E+03  0.31928545095E+04  0.32185982160E+04  0.91081434530E+02 0.  0.
        254    2    1    2    0    0  0.13360768683E+03  0.37270325454E+03 -0.84417946659E+03  0.13005034756E+04  0.90659339748E+03 0.  0.
        -24    2    4    4    0    0 -0.38174724417E+03  0.20844201281E+03 -0.40694024925E+03  0.60083631128E+03  0.78897879327E+02 0.  0.
         24    2    4    4    0    0  0.51535493099E+03  0.16426124174E+03 -0.43723921734E+03  0.69966716434E+03  0.76049636640E+02 0.  0.
         11    1    3    3    0    0 -0.71508611065E+02 -0.10627507326E+03  0.80563452187E+03  0.81575416363E+03  0.00000000000E+00 0. -1.
        -11    1    3    3    0    0 -0.62099075763E+02 -0.26642818129E+03  0.23872199876E+04  0.24028440524E+04  0.00000000000E+00 0.  1.
          2    1    6    6  502    0  0.13484847294E+03  0.14294218953E+02 -0.13285141446E+03  0.18983659730E+03  0.00000000000E+00 0. -1.
          1    1    5    5  503    0 -0.10977610560E+03  0.10020769553E+03 -0.15315803017E+03  0.21342389232E+03  0.00000000000E+00 0. -1.
         -2    1    5    5    0  503 -0.27197113856E+03  0.10823431727E+03 -0.25378221908E+03  0.38741241896E+03  0.00000000000E+00 0.  1.
         -1    1    6    6    0  502  0.38050645806E+03  0.14996702279E+03 -0.30438780288E+03  0.50983056704E+03  0.00000000000E+00 0.  1.
<mgrwt>
<rscale>  0 0.38608297E+04</rscale>
<asrwt>0</asrwt>
<pdfrwt beam="1">  1        1 0.16695590E+00 0.38608297E+04</pdfrwt>
<pdfrwt beam="2">  1       -1 0.52829051E+00 0.38608297E+04</pdfrwt>
<totfact> 0.10250670E-02</totfact>
</mgrwt>
</event>
<event>
12    1  0.1755460E-007  0.1320051E+04  0.7818608E-02  0.9013814E-01
          1   -1    0    0  501    0  0.00000000000E+00  0.00000000000E+00  0.27891627739E+04  0.27891627739E+04  0.00000000000E+00 0. -1.
         -1   -1    0    0    0  501 -0.00000000000E+00 -0.00000000000E+00 -0.15618794192E+03  0.15618794192E+03  0.00000000000E+00 0.  1.
         23    2    1    2    0    0  0.15827803349E+03  0.28304419367E+03  0.47195191434E+03  0.57971534369E+03  0.90362153587E+02 0.  0.
        254    2    1    2    0    0 -0.15827803349E+03 -0.28304419367E+03  0.21610229177E+04  0.23656353722E+04  0.90611517584E+03 0.  0.
        -24    2    4    4    0    0 -0.27312805534E+03  0.20012024112E+03  0.14707874468E+04  0.15113283539E+04  0.79060951796E+02 0.  0.
         24    2    4    4    0    0  0.11485002185E+03 -0.48316443479E+03  0.69023547085E+03  0.85430701825E+03  0.82323008034E+02 0.  0.
         13    1    3    3    0    0  0.78677721155E+01  0.25590493943E+02  0.97179126569E+02  0.10079959255E+03  0.00000000000E+00 0. -1.
        -13    1    3    3    0    0  0.15041026137E+03  0.25745369972E+03  0.37477278777E+03  0.47891575113E+03  0.00000000000E+00 0.  1.
          2    1    6    6  502    0  0.12703014737E+03 -0.43967024033E+03  0.63935914435E+03  0.78627393066E+03  0.00000000000E+00 0. -1.
          3    1    5    5  503    0 -0.23427774746E+03  0.13460191045E+03  0.11991785500E+04  0.12292407950E+04  0.00000000000E+00 0. -1.
         -4    1    5    5    0  503 -0.38850307881E+02  0.65518330665E+02  0.27160889683E+03  0.28208755895E+03  0.00000000000E+00 0.  1.
         -1    1    6    6    0  502 -0.12180125516E+02 -0.43494194453E+02  0.50876326497E+02  0.68033087586E+02  0.00000000000E+00 0.  1.
<mgrwt>
<rscale>  0 0.13200509E+04</rscale>
<asrwt>0</asrwt>
<pdfrwt beam="1">  1        1 0.42910193E+00 0.13200509E+04</pdfrwt>
<pdfrwt beam="2">  1       -1 0.24028916E-01 0.13200509E+04</pdfrwt>
<totfact> 0.12566761E+01</totfact>
</mgrwt>
</event>
<event>
12    1  0.1755460E-007  0.3591276E+04  0.7818608E-02  0.8092493E-01
          2   -1    0    0  501    0  0.00000000000E+00  0.00000000000E+00  0.47863420929E+04  0.47863420929E+04  0.00000000000E+00 0. -1.
         -2   -1    0    0    0  501 -0.00000000000E+00 -0.00000000000E+00 -0.67364935069E+03  0.67364935069E+03  0.00000000000E+00 0.  1.
         23    2    1    2    0    0  0.16400782240E+04  0.17606639846E+03  0.14304390365E+04  0.21851880577E+04  0.89638457381E+02 0.  0.
        254    2    1    2    0    0 -0.16400782240E+04 -0.17606639846E+03  0.26822537058E+04  0.32748033859E+04  0.89944222532E+03 0.  0.
        -24    2    4    4    0    0 -0.12476960567E+04 -0.64148651459E+02  0.11959322039E+04  0.17314324316E+04  0.82121430490E+02 0.  0.
         24    2    4    4    0    0 -0.39238216725E+03 -0.11191774700E+03  0.14863215019E+04  0.15433709543E+04  0.79705384873E+02 0.  0.
         13    1    3    3    0    0  0.64414898727E+02  0.39897917090E+01  0.80700308142E+02  0.10333313772E+03  0.00000000000E+00 0. -1.
        -13    1    3    3    0    0  0.15756633253E+04  0.17207660675E+03  0.13497387283E+04  0.20818549200E+04  0.00000000000E+00 0.  1.
          4    1    6    6  502    0 -0.12753073911E+03 -0.22486556992E+02  0.35056887787E+03  0.37372218665E+03  0.00000000000E+00 0. -1.
          3    1    5    5  503    0 -0.33822445878E+03 -0.83742153525E+01  0.37385841306E+03  0.50421823154E+03  0.00000000000E+00 0. -1.
         -2    1    5    5    0  503 -0.90947159797E+03 -0.55774436106E+02  0.82207379081E+03  0.12272142000E+04  0.00000000000E+00 0.  1.
         -3    1    6    6    0  502 -0.26485142813E+03 -0.89431190006E+02  0.11357526240E+04  0.11696487677E+04  0.00000000000E+00 0.  1.
<mgrwt>
<rscale>  0 0.35912762E+04</rscale>
<asrwt>0</asrwt>
<pdfrwt beam="1">  1        2 0.73636030E+00 0.35912762E+04</pdfrwt>
<pdfrwt beam="2">  1       -2 0.10363836E+00 0.35912762E+04</pdfrwt>
<totfact> 0.37887842E-02</totfact>
</mgrwt>
</event>
<event>
12    1  0.1755460E-007  0.1490825E+04  0.7818608E-02  0.8890577E-01
          1   -1    0    0  501    0  0.00000000000E+00  0.00000000000E+00  0.19389763132E+04  0.19389763132E+04  0.00000000000E+00 0. -1.
         -1   -1    0    0    0  501 -0.00000000000E+00 -0.00000000000E+00 -0.28656353333E+03  0.28656353333E+03  0.00000000000E+00 0.  1.
         23    2    1    2    0    0  0.39625468848E+03 -0.22650900316E+03  0.52754332177E+03  0.70462329981E+03  0.99337463366E+02 0.  0.
        254    2    1    2    0    0 -0.39625468848E+03  0.22650900316E+03  0.11248694581E+04  0.15209165467E+04  0.91625964533E+03 0.  0.
        -24    2    4    4    0    0 -0.50267122283E+03 -0.32826590475E+02  0.11183225040E+04  0.12292146907E+04  0.81040665967E+02 0.  0.
         24    2    4    4    0    0  0.10641653435E+03  0.25933559363E+03  0.65469541040E+01  0.29170185604E+03  0.80421895656E+02 0.  0.
         13    1    3    3    0    0  0.25165028377E+03 -0.15449073193E+03  0.26721736648E+03  0.39824662274E+03  0.00000000000E+00 0.  1.
        -13    1    3    3    0    0  0.14460440471E+03 -0.72018271230E+02  0.26032595530E+03  0.30637667707E+03  0.00000000000E+00 0. -1.
          4    1    6    6  502    0  0.47524285115E+02  0.20837194858E+03  0.31528288617E+01  0.21374603379E+03  0.00000000000E+00 0. -1.
          1    1    5    5  503    0 -0.47121242438E+02 -0.12097142934E+02  0.63142257189E+02  0.79710080912E+02  0.00000000000E+00 0. -1.
         -2    1    5    5    0  503 -0.45554998039E+03 -0.20729447541E+02  0.10551802468E+04  0.11495046098E+04  0.00000000000E+00 0.  1.
         -3    1    6    6    0  502  0.58892249230E+02  0.50963645055E+02  0.33941252423E+01  0.77955822251E+02  0.00000000000E+00 0.  1.
<mgrwt>
<rscale>  0 0.14908251E+04</rscale>
<asrwt>0</asrwt>
<pdfrwt beam="1">  1        1 0.29830404E+00 0.14908251E+04</pdfrwt>
<pdfrwt beam="2">  1       -1 0.44086699E-01 0.14908251E+04</pdfrwt>
<totfact> 0.16156621E+01</totfact>
</mgrwt>
</event>
<event>
12    1  0.1755460E-007  0.1064827E+04  0.7818608E-02  0.9240169E-01
          1   -1    0    0  501    0  0.00000000000E+00  0.00000000000E+00  0.95074889408E+03  0.95074889408E+03  0.00000000000E+00 0. -1.
         -1   -1    0    0    0  501 -0.00000000000E+00 -0.00000000000E+00 -0.29814807392E+03  0.29814807392E+03  0.00000000000E+00 0.  1.
         23    2    1    2    0    0 -0.52917654967E+01  0.15526872205E+02  0.25117484397E+03  0.26812974460E+03  0.92388696022E+02 0.  0.
        254    2    1    2    0    0  0.52917654967E+01 -0.15526872205E+02  0.40142597619E+03  0.98076722340E+03  0.89470243410E+03 0.  0.
        -24    2    4    4    0    0  0.18968626268E+03  0.28845077144E+03  0.49149193430E+03  0.60585059114E+03  0.79409643652E+02 0.  0.
         24    2    4    4    0    0 -0.18439449719E+03 -0.30397764364E+03 -0.90065958114E+02  0.37491663226E+03  0.77761596622E+02 0.  0.
         13    1    3    3    0    0 -0.48823229674E+02  0.61818506899E+01  0.13795716060E+03  0.14647218574E+03  0.00000000000E+00 0. -1.
        -13    1    3    3    0    0  0.43531464177E+02  0.93450215147E+01  0.11321768337E+03  0.12165755886E+03  0.00000000000E+00 0.  1.
          4    1    6    6  502    0 -0.18704680748E+03 -0.28277110968E+03 -0.71251137957E+02  0.34644297268E+03  0.00000000000E+00 0. -1.
          3    1    5    5  503    0  0.18887101031E+03  0.24938195908E+03  0.41234964260E+03  0.51758656069E+03  0.00000000000E+00 0. -1.
         -4    1    5    5    0  503  0.81525236749E+00  0.39068812352E+02  0.79142291703E+02  0.88264030448E+02  0.00000000000E+00 0.  1.
         -3    1    6    6    0  502  0.26523102929E+01 -0.21206533961E+02 -0.18814820157E+02  0.28473659583E+02  0.00000000000E+00 0.  1.
<mgrwt>
<rscale>  0 0.10648267E+04</rscale>
<asrwt>0</asrwt>
<pdfrwt beam="1">  1        1 0.14626906E+00 0.10648267E+04</pdfrwt>
<pdfrwt beam="2">  1       -1 0.45868935E-01 0.10648267E+04</pdfrwt>
<totfact> 0.78064345E+01</totfact>
</mgrwt>
</event>
<event>
12    1  0.1755460E-007  0.2834939E+04  0.7818608E-02  0.8292503E-01
          1   -1    0    0  501    0  0.00000000000E+00  0.00000000000E+00  0.89840103870E+03  0.89840103870E+03  0.00000000000E+00 0. -1.
         -1   -1    0    0    0  501 -0.00000000000E+00 -0.00000000000E+00 -0.22364394611E+04  0.22364394611E+04  0.00000000000E+00 0.  1.
         23    2    1    2    0    0  0.89090354879E+03 -0.77320446139E+02 -0.16060979029E+04  0.18405738377E+04  0.92054297771E+02 0.  0.
        254    2    1    2    0    0 -0.89090354879E+03  0.77320446139E+02  0.26805948052E+03  0.12942666621E+04  0.89642775660E+03 0.  0.
        -24    2    4    4    0    0 -0.85429228531E+03  0.16236936180E+03 -0.12545830135E+03  0.88222266592E+03  0.79987051963E+02 0.  0.
         24    2    4    4    0    0 -0.36611263477E+02 -0.85048915661E+02  0.39351778187E+03  0.41204399615E+03  0.79688816292E+02 0.  0.
         11    1    3    3    0    0  0.79338815288E+03 -0.58232385235E+02 -0.14775682721E+04  0.16781131579E+04  0.00000000000E+00 0.  1.
        -11    1    3    3    0    0  0.97515395915E+02 -0.19088060904E+02 -0.12852963078E+03  0.16246067985E+03  0.00000000000E+00 0. -1.
          2    1    6    6  502    0 -0.20141207974E+02 -0.94146916809E+01  0.17928377489E+02  0.28561011842E+02  0.00000000000E+00 0. -1.
          3    1    5    5  503    0 -0.17284169115E+03  0.21814272535E+01 -0.35196356591E+02  0.17640235923E+03  0.00000000000E+00 0. -1.
         -4    1    5    5    0  503 -0.68145059416E+03  0.16018793455E+03 -0.90261944764E+02  0.70582030668E+03  0.00000000000E+00 0.  1.
         -1    1    6    6    0  502 -0.16470055503E+02 -0.75634223981E+02  0.37558940439E+03  0.38348298431E+03  0.00000000000E+00 0.  1.
<mgrwt>
<rscale>  0 0.28349388E+04</rscale>
<asrwt>0</asrwt>
<pdfrwt beam="1">  1        1 0.13821555E+00 0.28349388E+04</pdfrwt>
<pdfrwt beam="2">  1       -1 0.34406760E+00 0.28349388E+04</pdfrwt>
<totfact> 0.26791581E-01</totfact>
</mgrwt>
</event>
<event>
12    1  0.1755460E-007  0.2069645E+04  0.7818608E-02  0.8574734E-01
         -1   -1    0    0    0  501 -0.00000000000E+00  0.00000000000E+00  0.60225474966E+03  0.60225474966E+03  0.00000000000E+00 0.  1.
          1   -1    0    0  501    0  0.00000000000E+00 -0.00000000000E+00 -0.17780805591E+04  0.17780805591E+04  0.00000000000E+00 0. -1.
         23    2    1    2    0    0 -0.55306268521E+03  0.46333713257E+03  0.11891439279E+02  0.72613356192E+03  0.81048820028E+02 0.  0.
        254    2    1    2    0    0  0.55306268521E+03 -0.46333713257E+03 -0.11877172488E+04  0.16542017469E+04  0.89730235940E+03 0.  0.
        -24    2    4    4    0    0 -0.18586662636E+03 -0.39328871756E+02 -0.19811578668E+02  0.20645236814E+03  0.78338488079E+02 0.  0.
         24    2    4    4    0    0  0.73892931157E+03 -0.42400826081E+03 -0.11679056701E+04  0.14477493787E+04  0.78581656018E+02 0.  0.
         13    1    3    3    0    0 -0.23501100051E+03  0.14951257032E+03  0.19883035289E+02  0.27924812289E+03  0.00000000000E+00 0.  1.
        -13    1    3    3    0    0 -0.31805168470E+03  0.31382456225E+03 -0.79915960097E+01  0.44688543903E+03  0.00000000000E+00 0. -1.
          4    1    6    6  502    0  0.25476932811E+03 -0.16090967562E+03 -0.35435284998E+03  0.46515081053E+03  0.00000000000E+00 0. -1.
          1    1    5    5  503    0 -0.13031082569E+03  0.99291048373E+01 -0.19960068219E+02  0.13220401937E+03  0.00000000000E+00 0. -1.
         -4    1    5    5    0  503 -0.55555800672E+02 -0.49257976593E+02  0.14848955080E+00  0.74248348773E+02  0.00000000000E+00 0.  1.
         -3    1    6    6    0  502  0.48415998346E+03 -0.26309858519E+03 -0.81355282012E+03  0.98259856820E+03  0.00000000000E+00 0.  1.
<mgrwt>
<rscale>  0 0.20696449E+04</rscale>
<asrwt>0</asrwt>
<pdfrwt beam="1">  1        1 0.27355086E+00 0.20696449E+04</pdfrwt>
<pdfrwt beam="2">  1       -1 0.92654577E-01 0.20696449E+04</pdfrwt>
<totfact> 0.44022277E+00</totfact>
</mgrwt>
</event>
<event>
12    1  0.1755460E-007  0.1580681E+04  0.7818608E-02  0.8832505E-01
         -2   -1    0    0    0  501 -0.00000000000E+00  0.00000000000E+00  0.26092008278E+03  0.26092008278E+03  0.00000000000E+00 0. -1.
          2   -1    0    0  501    0  0.00000000000E+00 -0.00000000000E+00 -0.23939829100E+04  0.23939829100E+04  0.00000000000E+00 0.  1.
         23    2    1    2    0    0  0.59064538399E+01 -0.36792802114E+03 -0.73846103649E+02  0.38606264052E+03  0.90472097602E+02 0.  0.
        254    2    1    2    0    0 -0.59064538399E+01  0.36792802114E+03 -0.20592167235E+04  0.22688403522E+04  0.87855399061E+03 0.  0.
        -24    2    4    4    0    0  0.56859004375E+02 -0.25935061284E+03 -0.36633276432E+03  0.46064611026E+03  0.86599410640E+02 0.  0.
         24    2    4    4    0    0 -0.62765458215E+02  0.62727863398E+03 -0.16928839592E+04  0.18081942420E+04  0.79324207471E+02 0.  0.
         13    1    3    3    0    0  0.19898373056E+02 -0.17437250607E+03 -0.77767974451E+02  0.19196242854E+03  0.00000000000E+00 0.  1.
        -13    1    3    3    0    0 -0.13991919217E+02 -0.19355551508E+03  0.39218708017E+01  0.19410021198E+03  0.00000000000E+00 0. -1.
          2    1    6    6  502    0 -0.79323030914E+01  0.10632743208E+03 -0.37974195035E+03  0.39442666378E+03  0.00000000000E+00 0. -1.
          3    1    5    5  503    0  0.26024316163E+02 -0.10150618956E+03 -0.21791206945E+03  0.24179834896E+03  0.00000000000E+00 0. -1.
         -4    1    5    5    0  503  0.30834688212E+02 -0.15784442328E+03 -0.14842069487E+03  0.21884776129E+03  0.00000000000E+00 0.  1.
         -1    1    6    6    0  502 -0.54833155123E+02  0.52095120190E+03 -0.13131420089E+04  0.14137675782E+04  0.00000000000E+00 0.  1.
<mgrwt>
<rscale>  0 0.15806811E+04</rscale>
<asrwt>0</asrwt>
<pdfrwt beam="1">  1        2 0.36830504E+00 0.15806811E+04</pdfrwt>
<pdfrwt beam="2">  1       -2 0.40141554E-01 0.15806811E+04</pdfrwt>
<totfact> 0.22640521E+01</totfact>
</mgrwt>
</event>
<event>
12    1  0.1755460E-007  0.1379724E+04  0.7818608E-02  0.8968627E-01
          1   -1    0    0  501    0  0.00000000000E+00  0.00000000000E+00  0.24283566259E+04  0.24283566259E+04  0.00000000000E+00 0. -1.
         -1   -1    0    0    0  501 -0.00000000000E+00 -0.00000000000E+00 -0.19598020353E+03  0.19598020353E+03  0.00000000000E+00 0.  1.
         23    2    1    2    0    0 -0.36122216210E+02 -0.35117874106E+03  0.27535681505E+03  0.45558629286E+03  0.84298113652E+02 0.  0.
        254    2    1    2    0    0  0.36122216210E+02  0.35117874106E+03  0.19570196073E+04  0.21687505366E+04  0.86540269458E+03 0.  0.
        -24    2    4    4    0    0 -0.70970521410E+01  0.33814752868E+03  0.20248683479E+04  0.20544854240E+04  0.80152427140E+02 0.  0.
         24    2    4    4    0    0  0.43219268351E+02  0.13031212378E+02 -0.67848740606E+02  0.11426511260E+03  0.80095859465E+02 0.  0.
         13    1    3    3    0    0  0.34276433276E+00 -0.12040264867E+03  0.48109494690E+02  0.12965893249E+03  0.00000000000E+00 0. -1.
        -13    1    3    3    0    0 -0.36464980543E+02 -0.23077609239E+03  0.22724732036E+03  0.32592736037E+03  0.00000000000E+00 0.  1.
          2    1    6    6  502    0 -0.24440240441E+01 -0.28984399550E+02 -0.28893158908E+02  0.40998576834E+02  0.00000000000E+00 0. -1.
          3    1    5    5  503    0  0.28986274047E+02  0.21665988933E+03  0.11652952329E+04  0.11856199609E+04  0.00000000000E+00 0. -1.
         -4    1    5    5    0  503 -0.36083326188E+02  0.12148763935E+03  0.85957311498E+03  0.86886546309E+03  0.00000000000E+00 0.  1.
         -1    1    6    6    0  502  0.45663292395E+02  0.42015611927E+02 -0.38955581698E+02  0.73266535768E+02  0.00000000000E+00 0.  1.
<mgrwt>
<rscale>  0 0.13797244E+04</rscale>
<asrwt>0</asrwt>
<pdfrwt beam="1">  1        1 0.37359331E+00 0.13797244E+04</pdfrwt>
<pdfrwt beam="2">  1       -1 0.30150802E-01 0.13797244E+04</pdfrwt>
<totfact> 0.15049476E+01</totfact>
</mgrwt>
</event>
<event>
12    1  0.1755460E-007  0.2429103E+04  0.7818608E-02  0.8428688E-01
         -1   -1    0    0    0  501 -0.00000000000E+00  0.00000000000E+00  0.16521747351E+04  0.16521747351E+04  0.00000000000E+00 0.  1.
          1   -1    0    0  501    0  0.00000000000E+00 -0.00000000000E+00 -0.89284429055E+03  0.89284429055E+03  0.00000000000E+00 0. -1.
         23    2    1    2    0    0 -0.88771121417E+03  0.43473354863E+03 -0.29686135614E+02  0.99395826799E+03  0.10023628980E+03 0.  0.
        254    2    1    2    0    0  0.88771121417E+03 -0.43473354863E+03  0.78901658011E+03  0.15510607576E+04  0.89789634819E+03 0.  0.
        -24    2    4    4    0    0 -0.76382298052E+02 -0.63355861199E+01  0.41385212048E+03  0.42857688455E+03  0.80809487274E+02 0.  0.
         24    2    4    4    0    0  0.96409351222E+03 -0.42839796251E+03  0.37516445963E+03  0.11224838731E+04  0.78870520253E+02 0.  0.
         11    1    3    3    0    0 -0.68511695763E+03  0.37312034791E+03 -0.46646465155E+02  0.78152410862E+03  0.00000000000E+00 0. -1.
        -11    1    3    3    0    0 -0.20259425654E+03  0.61613200719E+02  0.16960329541E+02  0.21243415936E+03  0.00000000000E+00 0.  1.
          2    1    6    6  502    0  0.74683047478E+03 -0.31554209861E+03  0.25609791408E+03  0.85024038698E+03  0.00000000000E+00 0. -1.
          1    1    5    5  503    0 -0.22044086289E+02 -0.10408494934E+02  0.31297863189E+03  0.31392658780E+03  0.00000000000E+00 0. -1.
         -2    1    5    5    0  503 -0.54338211763E+02  0.40729088138E+01  0.10087348859E+03  0.11465029675E+03  0.00000000000E+00 0.  1.
         -1    1    6    6    0  502  0.21726303743E+03 -0.11285586390E+03  0.11906654554E+03  0.27224348609E+03  0.00000000000E+00 0.  1.
<mgrwt>
<rscale>  0 0.24291025E+04</rscale>
<asrwt>0</asrwt>
<pdfrwt beam="1">  1        1 0.13736066E+00 0.24291025E+04</pdfrwt>
<pdfrwt beam="2">  1       -1 0.25418073E+00 0.24291025E+04</pdfrwt>
<totfact> 0.10794193E+00</totfact>
</mgrwt>
</event>
<event>
12    1  0.1755460E-007  0.3652559E+04  0.7818608E-02  0.8078557E-01
          1   -1    0    0  501    0  0.00000000000E+00  0.00000000000E+00  0.21818643720E+04  0.21818643720E+04  0.00000000000E+00 0. -1.
         -1   -1    0    0    0  501 -0.00000000000E+00 -0.00000000000E+00 -0.15286454097E+04  0.15286454097E+04  0.00000000000E+00 0.  1.
         23    2    1    2    0    0 -0.11566783361E+04 -0.11868588111E+04  0.73680878730E+03  0.18159750313E+04  0.91320942980E+02 0.  0.
        254    2    1    2    0    0  0.11566783361E+04  0.11868588111E+04 -0.83589824990E+02  0.18945347503E+04  0.91418600452E+03 0.  0.
        -24    2    4    4    0    0  0.64403703032E+03  0.63182346221E+02  0.22656673241E+02  0.65235878651E+03  0.79265100747E+02 0.  0.
         24    2    4    4    0    0  0.51264130574E+03  0.11236764649E+04 -0.10624649823E+03  0.12421759638E+04  0.79138490590E+02 0.  0.
         11    1    3    3    0    0 -0.10689812472E+04 -0.11285955043E+04  0.69080401850E+03  0.17010758099E+04  0.00000000000E+00 0. -1.
        -11    1    3    3    0    0 -0.87697088886E+02 -0.58263306816E+02  0.46004768799E+02  0.11489922137E+03  0.00000000000E+00 0.  1.
          4    1    6    6  502    0  0.49432382036E+03  0.10590799679E+04 -0.85435093485E+02  0.11718812111E+04  0.00000000000E+00 0. -1.
          3    1    5    5  503    0  0.64214734070E+03  0.56154030489E+02  0.21262334827E+02  0.64494850119E+03  0.00000000000E+00 0. -1.
         -4    1    5    5    0  503  0.18896896224E+01  0.70283157322E+01  0.13943384142E+01  0.74102853194E+01  0.00000000000E+00 0.  1.
         -3    1    6    6    0  502  0.18317485373E+02  0.64596496994E+02 -0.20811404746E+02  0.70294752733E+02  0.00000000000E+00 0.  1.
<mgrwt>
<rscale>  0 0.36525591E+04</rscale>
<asrwt>0</asrwt>
<pdfrwt beam="1">  1        1 0.33567144E+00 0.36525591E+04</pdfrwt>
<pdfrwt beam="2">  1       -1 0.23517622E+00 0.36525591E+04</pdfrwt>
<totfact> 0.15750865E-01</totfact>
</mgrwt>
</event>
<event>
12    1  0.1755460E-007  0.1941826E+04  0.7818608E-02  0.8634312E-01
          2   -1    0    0  501    0  0.00000000000E+00  0.00000000000E+00  0.18441058074E+04  0.18441058074E+04  0.00000000000E+00 0. -1.
         -2   -1    0    0    0  501 -0.00000000000E+00 -0.00000000000E+00 -0.51118127445E+03  0.51118127445E+03  0.00000000000E+00 0.  1.
         23    2    1    2    0    0 -0.38199275995E+03  0.16174998250E+03  0.12903458687E+04  0.13584540655E+04  0.91233008483E+02 0.  0.
        254    2    1    2    0    0  0.38199275995E+03 -0.16174998250E+03  0.42578664222E+02  0.99683301627E+03  0.90541791134E+03 0.  0.
        -24    2    4    4    0    0 -0.24648773397E+03 -0.25688869943E+02  0.20222443335E+03  0.32962853010E+03  0.79650018067E+02 0.  0.
         24    2    4    4    0    0  0.62848049392E+03 -0.13606111256E+03 -0.15964576913E+03  0.66720448617E+03  0.78579241348E+02 0.  0.
         13    1    3    3    0    0 -0.17078511529E+03  0.10564434733E+03  0.72637299217E+03  0.75362192609E+03  0.00000000000E+00 0. -1.
        -13    1    3    3    0    0 -0.21120764466E+03  0.56105635172E+02  0.56397287652E+03  0.60483213945E+03  0.00000000000E+00 0.  1.
          4    1    6    6  502    0  0.79251376005E+02 -0.31557541014E+02  0.16512583308E+01  0.85319315795E+02  0.00000000000E+00 0. -1.
          1    1    5    5  503    0 -0.16264965905E+01 -0.14732240434E+02  0.76422712898E+01  0.16675992020E+02  0.00000000000E+00 0. -1.
         -2    1    5    5    0  503 -0.24486123738E+03 -0.10956629508E+02  0.19458216206E+03  0.31295253808E+03  0.00000000000E+00 0.  1.
         -3    1    6    6    0  502  0.54922911792E+03 -0.10450357154E+03 -0.16129702746E+03  0.58188517037E+03  0.00000000000E+00 0.  1.
<mgrwt>
<rscale>  0 0.19418263E+04</rscale>
<asrwt>0</asrwt>
<pdfrwt beam="1">  1        2 0.28370858E+00 0.19418263E+04</pdfrwt>
<pdfrwt beam="2">  1       -2 0.78643274E-01 0.19418263E+04</pdfrwt>
<totfact> 0.10934566E+01</totfact>
</mgrwt>
</event>
<event>
12    1  0.1755460E-007  0.1197978E+04  0.7818608E-02  0.9114628E-01
         -2   -1    0    0    0  501 -0.00000000000E+00  0.00000000000E+00  0.23058130871E+03  0.23058130871E+03  0.00000000000E+00 0.  1.
          2   -1    0    0  501    0  0.00000000000E+00 -0.00000000000E+00 -0.15560136132E+04  0.15560136132E+04  0.00000000000E+00 0. -1.
         23    2    1    2    0    0 -0.43850674604E+02 -0.41991701866E+02 -0.31472141735E+03  0.33286125261E+03  0.89782282549E+02 0.  0.
        254    2    1    2    0    0  0.43850674604E+02  0.41991701866E+02 -0.10107108871E+04  0.14537336693E+04  0.10431293780E+04 0.  0.
        -24    2    4    4    0    0  0.20318251674E+02 -0.35003735863E+03 -0.98899750231E+03  0.10522214857E+04  0.78198539184E+02 0.  0.
         24    2    4    4    0    0  0.23532422930E+02  0.39202906050E+03 -0.21713384817E+02  0.40151218363E+03  0.80622598082E+02 0.  0.
         13    1    3    3    0    0 -0.50046292136E+02  0.38971007034E+01 -0.86680129334E+02  0.10016617978E+03  0.00000000000E+00 0.  1.
        -13    1    3    3    0    0  0.61956175317E+01 -0.45888802569E+02 -0.22804128802E+03  0.23269507283E+03  0.00000000000E+00 0. -1.
          2    1    6    6  502    0  0.41759875371E+01  0.22511335087E+03 -0.51225726369E+02  0.23090590000E+03  0.00000000000E+00 0. -1.
          1    1    5    5  503    0 -0.36649520760E+01 -0.28478129076E+03 -0.71737074855E+03  0.77183845869E+03  0.00000000000E+00 0. -1.
         -2    1    5    5    0  503  0.23983203750E+02 -0.65256067870E+02 -0.27162675376E+03  0.28038302698E+03  0.00000000000E+00 0.  1.
         -1    1    6    6    0  502  0.19356435393E+02  0.16691570963E+03  0.29512341553E+02  0.17060628364E+03  0.00000000000E+00 0.  1.
<mgrwt>
<rscale>  0 0.11979777E+04</rscale>
<asrwt>0</asrwt>
<pdfrwt beam="1">  1        2 0.23938671E+00 0.11979777E+04</pdfrwt>
<pdfrwt beam="2">  1       -2 0.35474048E-01 0.11979777E+04</pdfrwt>
<totfact> 0.86923451E+01</totfact>
</mgrwt>
</event>
<event>
12    1  0.1755460E-007  0.1736419E+04  0.7818608E-02  0.8740861E-01
         -1   -1    0    0    0  501 -0.00000000000E+00  0.00000000000E+00  0.75485366571E+03  0.75485366571E+03  0.00000000000E+00 0.  1.
          1   -1    0    0  501    0  0.00000000000E+00 -0.00000000000E+00 -0.99858846871E+03  0.99858846871E+03  0.00000000000E+00 0. -1.
         23    2    1    2    0    0  0.67742247306E+02  0.55871723645E+03 -0.38937017271E+03  0.69057520667E+03  0.92363533370E+02 0.  0.
        254    2    1    2    0    0 -0.67742247306E+02 -0.55871723645E+03  0.14563536971E+03  0.10628669278E+04  0.88978788643E+03 0.  0.
        -24    2    4    4    0    0 -0.44046625891E+03 -0.39048042530E+03  0.23217835542E+03  0.63717972556E+03  0.74871397445E+02 0.  0.
         24    2    4    4    0    0  0.37272401160E+03 -0.16823681115E+03 -0.86542985715E+02  0.42568720220E+03  0.80579726281E+02 0.  0.
         11    1    3    3    0    0  0.64816863270E+02  0.55604352935E+03 -0.37053686841E+03  0.67132942967E+03  0.00000000000E+00 0. -1.
        -11    1    3    3    0    0  0.29253840356E+01  0.26737071010E+01 -0.18833304298E+02  0.19245776997E+02  0.00000000000E+00 0.  1.
          2    1    6    6  502    0  0.50725054779E+02 -0.38275428986E+02 -0.40639650233E+02  0.75429575217E+02  0.00000000000E+00 0. -1.
          3    1    5    5  503    0 -0.47543780332E+02 -0.15414802190E+02  0.15073396449E+02  0.52203778171E+02  0.00000000000E+00 0. -1.
         -4    1    5    5    0  503 -0.39292247858E+03 -0.37506562311E+03  0.21710495897E+03  0.58497594739E+03  0.00000000000E+00 0.  1.
         -1    1    6    6    0  502  0.32199895683E+03 -0.12996138216E+03 -0.45903335482E+02  0.35025762698E+03  0.00000000000E+00 0.  1.
<mgrwt>
<rscale>  0 0.17364195E+04</rscale>
<asrwt>0</asrwt>
<pdfrwt beam="1">  1        1 0.15362899E+00 0.17364195E+04</pdfrwt>
<pdfrwt beam="2">  1       -1 0.11613133E+00 0.17364195E+04</pdfrwt>
<totfact> 0.96501548E+00</totfact>
</mgrwt>
</event>
<event>
12    1  0.1755460E-007  0.1721234E+04  0.7818608E-02  0.8749346E-01
         -1   -1    0    0    0  501 -0.00000000000E+00  0.00000000000E+00  0.21604567645E+04  0.21604567645E+04  0.00000000000E+00 0.  1.
          1   -1    0    0  501    0  0.00000000000E+00 -0.00000000000E+00 -0.34282637284E+03  0.34282637284E+03  0.00000000000E+00 0. -1.
         23    2    1    2    0    0 -0.11376683047E+03 -0.11548641790E+02  0.15496148556E+04  0.15564772428E+04  0.90768629223E+02 0.  0.
        254    2    1    2    0    0  0.11376683047E+03  0.11548641790E+02  0.26801553608E+03  0.94680589449E+03  0.90085115941E+03 0.  0.
        -24    2    4    4    0    0 -0.19566005382E+03  0.24965875437E+03  0.41021055132E+03  0.52429147042E+03  0.77437066347E+02 0.  0.
         24    2    4    4    0    0  0.30942688429E+03 -0.23811011258E+03 -0.14219501524E+03  0.42251442407E+03  0.76534918522E+02 0.  0.
         11    1    3    3    0    0 -0.41726222755E+02 -0.76731779989E+01  0.11233063266E+04  0.11241072274E+04  0.00000000000E+00 0.  1.
        -11    1    3    3    0    0 -0.72040607714E+02 -0.38754637914E+01  0.42630852900E+03  0.43237001547E+03  0.00000000000E+00 0. -1.
          2    1    6    6  502    0 -0.27741509399E+01 -0.11139378902E+02 -0.74496048820E+01  0.13684965789E+02  0.00000000000E+00 0. -1.
          1    1    5    5  503    0 -0.44803490129E+02  0.14507397822E+02  0.56499516326E+02  0.73552788284E+02  0.00000000000E+00 0. -1.
         -2    1    5    5    0  503 -0.15085656369E+03  0.23515135655E+03  0.35371103499E+03  0.45073868213E+03  0.00000000000E+00 0.  1.
         -1    1    6    6    0  502  0.31220103523E+03 -0.22697073368E+03 -0.13474541036E+03  0.40882945828E+03  0.00000000000E+00 0.  1.
<mgrwt>
<rscale>  0 0.17212339E+04</rscale>
<asrwt>0</asrwt>
<pdfrwt beam="1">  1        1 0.52742520E-01 0.17212339E+04</pdfrwt>
<pdfrwt beam="2">  1       -1 0.33237796E+00 0.17212339E+04</pdfrwt>
<totfact> 0.14233737E+00</totfact>
</mgrwt>
</event>
<event>
12    1  0.1755460E-007  0.1412036E+04  0.7818608E-02  0.8945152E-01
          1   -1    0    0  501    0  0.00000000000E+00  0.00000000000E+00  0.94945706317E+03  0.94945706317E+03  0.00000000000E+00 0. -1.
         -1   -1    0    0    0  501 -0.00000000000E+00 -0.00000000000E+00 -0.52499637271E+03  0.52499637271E+03  0.00000000000E+00 0.  1.
         23    2    1    2    0    0  0.98094583456E+01 -0.39908898600E+03  0.22188251893E+02  0.41021024846E+03  0.91716330061E+02 0.  0.
        254    2    1    2    0    0 -0.98094583456E+01  0.39908898600E+03  0.40227243856E+03  0.10642431874E+04  0.90078976622E+03 0.  0.
        -24    2    4    4    0    0  0.77818234731E+01  0.52267368831E+03  0.61134301448E+03  0.80829529609E+03  0.79703595235E+02 0.  0.
         24    2    4    4    0    0 -0.17591281819E+02 -0.12358470231E+03 -0.20907057592E+03  0.25594789133E+03  0.78842789907E+02 0.  0.
         13    1    3    3    0    0  0.29903966424E+01 -0.12036974601E+02  0.19474471024E+02  0.23088660665E+02  0.00000000000E+00 0. -1.
        -13    1    3    3    0    0  0.68190617032E+01 -0.38705201140E+03  0.27137808688E+01  0.38712158780E+03  0.00000000000E+00 0.  1.
          4    1    6    6  502    0 -0.48573577265E+02 -0.66711197820E+02 -0.10823599263E+03  0.13610586476E+03  0.00000000000E+00 0. -1.
          3    1    5    5  503    0  0.13195117101E+01  0.51827549029E+03  0.58866145485E+03  0.78430449022E+03  0.00000000000E+00 0. -1.
         -4    1    5    5    0  503  0.64623117630E+01  0.43981980234E+01  0.22681559629E+02  0.23990805872E+02  0.00000000000E+00 0.  1.
         -3    1    6    6    0  502  0.30982295447E+02 -0.56873504492E+02 -0.10083458330E+03  0.11984202657E+03  0.00000000000E+00 0.  1.
<mgrwt>
<rscale>  0 0.14120361E+04</rscale>
<asrwt>0</asrwt>
<pdfrwt beam="1">  1        1 0.14607032E+00 0.14120361E+04</pdfrwt>
<pdfrwt beam="2">  1       -1 0.80768673E-01 0.14120361E+04</pdfrwt>
<totfact> 0.24708799E+01</totfact>
</mgrwt>
</event>
<event>
12    1  0.1755460E-007  0.1130379E+04  0.7818608E-02  0.9176078E-01
         -1   -1    0    0    0  501 -0.00000000000E+00  0.00000000000E+00  0.35385278451E+03  0.35385278451E+03  0.00000000000E+00 0.  1.
          1   -1    0    0  501    0  0.00000000000E+00 -0.00000000000E+00 -0.90274561230E+03  0.90274561230E+03  0.00000000000E+00 0. -1.
         23    2    1    2    0    0  0.12112416937E+02  0.14502954339E+03  0.47736991940E+01  0.17252259053E+03  0.92525547494E+02 0.  0.
        254    2    1    2    0    0 -0.12112416937E+02 -0.14502954339E+03 -0.55366652699E+03  0.10840758063E+04  0.92059407535E+03 0.  0.
        -24    2    4    4    0    0  0.26771664334E+03 -0.32366689248E+03 -0.60285180963E+03  0.73935505648E+03  0.82359800601E+02 0.  0.
         24    2    4    4    0    0 -0.27982906028E+03  0.17863734909E+03  0.49185282644E+02  0.34472074980E+03  0.78724823613E+02 0.  0.
         13    1    3    3    0    0  0.10099131467E+01  0.56775606284E+02 -0.43303038456E+02  0.71411781472E+02  0.00000000000E+00 0. -1.
        -13    1    3    3    0    0  0.11102503790E+02  0.88253937109E+02  0.48076737651E+02  0.10111080906E+03  0.00000000000E+00 0.  1.
          4    1    6    6  502    0 -0.25700972549E+02  0.26338022629E+02 -0.17942082872E+02  0.40940808049E+02  0.00000000000E+00 0. -1.
          1    1    5    5  503    0  0.90375635815E+02 -0.87967965507E+02 -0.12347470780E+03  0.17649963731E+03  0.00000000000E+00 0. -1.
         -2    1    5    5    0  503  0.17734100752E+03 -0.23569892697E+03 -0.47937710183E+03  0.56285541917E+03  0.00000000000E+00 0.  1.
         -3    1    6    6    0  502 -0.25412808773E+03  0.15229932646E+03  0.67127365516E+02  0.30377994176E+03  0.00000000000E+00 0.  1.
<mgrwt>
<rscale>  0 0.11303788E+04</rscale>
<asrwt>0</asrwt>
<pdfrwt beam="1">  1        1 0.13888394E+00 0.11303788E+04</pdfrwt>
<pdfrwt beam="2">  1       -1 0.54438891E-01 0.11303788E+04</pdfrwt>
<totfact> 0.61348574E+01</totfact>
</mgrwt>
</event>
<event>
12    1  0.1755460E-007  0.1404527E+04  0.7818608E-02  0.8950548E-01
         -1   -1    0    0    0  501 -0.00000000000E+00  0.00000000000E+00  0.22765685416E+03  0.22765685416E+03  0.00000000000E+00 0.  1.
          1   -1    0    0  501    0  0.00000000000E+00 -0.00000000000E+00 -0.21663030713E+04  0.21663030713E+04  0.00000000000E+00 0. -1.
         23    2    1    2    0    0 -0.21214654643E+02 -0.28763147271E+03 -0.68208598878E+02  0.30896168592E+03  0.87309705882E+02 0.  0.
        254    2    1    2    0    0  0.21214654643E+02  0.28763147271E+03 -0.18704376182E+04  0.20849982395E+04  0.87492791097E+03 0.  0.
        -24    2    4    4    0    0  0.34430994976E+03  0.37837707257E+03 -0.74206941788E+03  0.90495092550E+03  0.80935814401E+02 0.  0.
         24    2    4    4    0    0 -0.32309529512E+03 -0.90745599867E+02 -0.11283682003E+04  0.11800473140E+04  0.81679459567E+02 0.  0.
         13    1    3    3    0    0  0.15798639590E+02 -0.72924991202E+02 -0.51059799806E+02  0.90414349033E+02  0.00000000000E+00 0. -1.
        -13    1    3    3    0    0 -0.37013294233E+02 -0.21470648150E+03 -0.17148799072E+02  0.21854733689E+03  0.00000000000E+00 0.  1.
          4    1    6    6  502    0 -0.29254566326E+03 -0.70815169512E+02 -0.90555336080E+03  0.95426654693E+03  0.00000000000E+00 0. -1.
          1    1    5    5  503    0  0.24434801301E+03  0.28798475978E+03 -0.60126779350E+03  0.71004516253E+03  0.00000000000E+00 0. -1.
         -2    1    5    5    0  503  0.99961936751E+02  0.90392312794E+02 -0.14080162438E+03  0.19490576297E+03  0.00000000000E+00 0.  1.
         -3    1    6    6    0  502 -0.30549631854E+02 -0.19930430355E+02 -0.22281483953E+03  0.22578076707E+03  0.00000000000E+00 0.  1.
<mgrwt>
<rscale>  0 0.14045266E+04</rscale>
<asrwt>0</asrwt>
<pdfrwt beam="1">  1        1 0.33327739E+00 0.14045266E+04</pdfrwt>
<pdfrwt beam="2">  1       -1 0.35024131E-01 0.14045266E+04</pdfrwt>
<totfact> 0.17378755E+01</totfact>
</mgrwt>
</event>
<event>
12    1  0.1755460E-007  0.1966957E+04  0.7818608E-02  0.8622227E-01
          2   -1    0    0  501    0  0.00000000000E+00  0.00000000000E+00  0.13470990284E+04  0.13470990284E+04  0.00000000000E+00 0. -1.
         -2   -1    0    0    0  501 -0.00000000000E+00 -0.00000000000E+00 -0.71800987134E+03  0.71800987134E+03  0.00000000000E+00 0.  1.
         23    2    1    2    0    0 -0.75286005871E+03  0.84295168128E+02  0.42527551194E+03  0.87393955537E+03  0.94905964052E+02 0.  0.
        254    2    1    2    0    0  0.75286005871E+03 -0.84295168128E+02  0.20381364514E+03  0.11911693444E+04  0.89634840421E+03 0.  0.
        -24    2    4    4    0    0 -0.17299867499E+03  0.95720107373E+01  0.17241637032E+03  0.25666019064E+03  0.78274413233E+02 0.  0.
         24    2    4    4    0    0  0.92585873370E+03 -0.93867178865E+02  0.31397274821E+02  0.93450915376E+03  0.79348141567E+02 0.  0.
         13    1    3    3    0    0 -0.92844649454E+02 -0.50742363533E+01  0.22790144522E+02  0.95735403557E+02  0.00000000000E+00 0.  1.
        -13    1    3    3    0    0 -0.66001540925E+03  0.89369404481E+02  0.40248536742E+03  0.77820415181E+03  0.00000000000E+00 0. -1.
          2    1    6    6  502    0  0.75662300485E+03 -0.10200167151E+03  0.83138884354E+01  0.76351282452E+03  0.00000000000E+00 0. -1.
          1    1    5    5  503    0 -0.15749502024E+03  0.12786056058E+02  0.17964927241E+03  0.23925305789E+03  0.00000000000E+00 0. -1.
         -2    1    5    5    0  503 -0.15503654747E+02 -0.32140453205E+01 -0.72329020948E+01  0.17407132749E+02  0.00000000000E+00 0.  1.
         -1    1    6    6    0  502  0.16923572884E+03  0.81344926477E+01  0.23083386385E+02  0.17099632924E+03  0.00000000000E+00 0.  1.
<mgrwt>
<rscale>  0 0.19669574E+04</rscale>
<asrwt>0</asrwt>
<pdfrwt beam="1">  1        2 0.20724600E+00 0.19669574E+04</pdfrwt>
<pdfrwt beam="2">  1       -2 0.11046306E+00 0.19669574E+04</pdfrwt>
<totfact> 0.94052857E+00</totfact>
</mgrwt>
</event>
<event>
12    1  0.1755460E-007  0.1788688E+04  0.7818608E-02  0.8712338E-01
         -1   -1    0    0    0  501 -0.00000000000E+00  0.00000000000E+00  0.81565893349E+03  0.81565893349E+03  0.00000000000E+00 0.  1.
          1   -1    0    0  501    0  0.00000000000E+00 -0.00000000000E+00 -0.98061991135E+03  0.98061991135E+03  0.00000000000E+00 0. -1.
         23    2    1    2    0    0  0.15085769357E+02  0.21482434233E+03 -0.69554138871E+03  0.73330594755E+03  0.87078762137E+02 0.  0.
        254    2    1    2    0    0 -0.15085769357E+02 -0.21482434233E+03  0.53058041085E+03  0.10629728973E+04  0.89555498408E+03 0.  0.
        -24    2    4    4    0    0  0.26910475860E+03  0.13809829945E+03  0.51501100126E+03  0.60262038327E+03  0.80165350995E+02 0.  0.
         24    2    4    4    0    0 -0.28419052796E+03 -0.35292264178E+03  0.15569409593E+02  0.46035251403E+03  0.79770817940E+02 0.  0.
         13    1    3    3    0    0 -0.34402432825E+01  0.74685748651E+02 -0.38377509928E+03  0.39098992718E+03  0.00000000000E+00 0.  1.
        -13    1    3    3    0    0  0.18526012640E+02  0.14013859368E+03 -0.31176628942E+03  0.34231602037E+03  0.00000000000E+00 0. -1.
          4    1    6    6  502    0 -0.22353756668E+03 -0.31714010248E+03 -0.10132451186E+01  0.38800504505E+03  0.00000000000E+00 0. -1.
          3    1    5    5  503    0  0.22782412690E+03  0.10935612238E+03  0.47615129357E+03  0.53905718497E+03  0.00000000000E+00 0. -1.
         -2    1    5    5    0  503  0.41280631700E+02  0.28742177066E+02  0.38859707688E+02  0.63563198296E+02  0.00000000000E+00 0.  1.
         -3    1    6    6    0  502 -0.60652961279E+02 -0.35782539306E+02  0.16582654711E+02  0.72347468984E+02  0.00000000000E+00 0.  1.
<mgrwt>
<rscale>  0 0.17886882E+04</rscale>
<asrwt>0</asrwt>
<pdfrwt beam="1">  1        1 0.15086460E+00 0.17886882E+04</pdfrwt>
<pdfrwt beam="2">  1       -1 0.12548599E+00 0.17886882E+04</pdfrwt>
<totfact> 0.82050917E+00</totfact>
</mgrwt>
</event>
<event>
12    1  0.1755460E-007  0.1571010E+04  0.7818608E-02  0.8838558E-01
          1   -1    0    0  501    0  0.00000000000E+00  0.00000000000E+00  0.25647702737E+04  0.25647702737E+04  0.00000000000E+00 0. -1.
         -1   -1    0    0    0  501 -0.00000000000E+00 -0.00000000000E+00 -0.24057445615E+03  0.24057445615E+03  0.00000000000E+00 0.  1.
         23    2    1    2    0    0  0.46639147544E+03 -0.22299802829E+03  0.68836388768E+03  0.86573610509E+03  0.91678965954E+02 0.  0.
        254    2    1    2    0    0 -0.46639147544E+03  0.22299802829E+03  0.16358319299E+04  0.19396086248E+04  0.90492341415E+03 0.  0.
        -24    2    4    4    0    0 -0.55552138756E+03  0.37138855787E+03  0.16119406060E+04  0.17468003359E+04  0.80158738058E+02 0.  0.
         24    2    4    4    0    0  0.89129912117E+02 -0.14839052958E+03  0.23891323887E+02  0.19280828887E+03  0.81488345172E+02 0.  0.
         11    1    3    3    0    0  0.45567601739E+03 -0.22934147376E+03  0.68219890996E+03  0.85184123942E+03  0.00000000000E+00 0.  1.
        -11    1    3    3    0    0  0.10715458052E+02  0.63434454740E+01  0.61649777188E+01  0.13894865671E+02  0.00000000000E+00 0. -1.
          4    1    6    6  502    0 -0.66611221558E+01 -0.63893987168E+01 -0.14575453103E+02  0.17252211380E+02  0.00000000000E+00 0. -1.
          3    1    5    5  503    0 -0.91705797396E+02  0.97303578000E+02  0.29268998470E+03  0.32178465891E+03  0.00000000000E+00 0. -1.
         -4    1    5    5    0  503 -0.46381559016E+03  0.27408497987E+03  0.13192506213E+04  0.14250156770E+04  0.00000000000E+00 0.  1.
         -3    1    6    6    0  502  0.95791034273E+02 -0.14200113086E+03  0.38466776990E+02  0.17555607749E+03  0.00000000000E+00 0.  1.
<mgrwt>
<rscale>  0 0.15710101E+04</rscale>
<asrwt>0</asrwt>
<pdfrwt beam="1">  1        1 0.39458002E+00 0.15710101E+04</pdfrwt>
<pdfrwt beam="2">  1       -1 0.37011456E-01 0.15710101E+04</pdfrwt>
<totfact> 0.82612969E+00</totfact>
</mgrwt>
</event>
