<event>
12    1  0.3203156E-008  0.3585791E+03  0.7818608E-02  0.1059148E+00
          1   -1    0    0  501    0  0.00000000000E+00  0.00000000000E+00  0.61545305566E+03  0.61545305566E+03  0.00000000000E+00 0. -1.
         -1   -1    0    0    0  501 -0.00000000000E+00 -0.00000000000E+00 -0.23661775503E+03  0.23661775503E+03  0.00000000000E+00 0.  1.
         23    2    1    2    0    0 -0.91481389073E+02  0.60968056615E+02  0.87820527834E+01  0.13858382606E+03  0.83919031939E+02 0.  0.
    5000000    2    1    2    0    0  0.91481389073E+02 -0.60968056615E+02  0.37005324784E+03  0.71348698463E+03  0.60003193459E+03 0.  0.
         23    2    4    4    0    0  0.27661117110E+03  0.12106239542E+03  0.11358812620E+03  0.33534105055E+03  0.91550610117E+02 0.  0.
         23    2    4    4    0    0 -0.18512978202E+03 -0.18203045204E+03  0.25646512165E+03  0.37814593408E+03  0.99054869518E+02 0.  0.
          5    1    3    3  502    0 -0.17581489879E+02 -0.19161562332E+02  0.12886257834E+02  0.29401018661E+02  0.47000000000E+01 0. -1.
         -5    1    3    3    0  502 -0.73899899194E+02  0.80129618947E+02 -0.41042050502E+01  0.10918280740E+03  0.47000000000E+01 0.  1.
         13    1    5    5    0    0 -0.49734854228E+01  0.12422695567E+02  0.18630770295E+01  0.13510365591E+02  0.00000000000E+00 0. -1.
        -13    1    5    5    0    0  0.28158465652E+03  0.10863969986E+03  0.11172504917E+03  0.32183068496E+03  0.00000000000E+00 0.  1.
          1    1    6    6  503    0 -0.29146175181E+02 -0.35001933987E+01  0.64120105817E+00  0.29362595599E+02  0.00000000000E+00 0. -1.
         -1    1    6    6    0  503 -0.15598360684E+03 -0.17853025864E+03  0.25582392059E+03  0.34878333848E+03  0.00000000000E+00 0.  1.
<mgrwt>
<rscale>  0 0.35857908E+03</rscale>
<asrwt>0</asrwt>
<pdfrwt beam="1">  1        1 0.94685085E-01 0.35857908E+03</pdfrwt>
<pdfrwt beam="2">  1       -1 0.36402732E-01 0.35857908E+03</pdfrwt>
<totfact> 0.24769880E+02</totfact>
</mgrwt>
</event>
<event>
12    1  0.3203156E-008  0.8391271E+03  0.7818608E-02  0.9505048E-01
          2   -1    0    0  501    0  0.00000000000E+00  0.00000000000E+00  0.78637723905E+03  0.78637723905E+03  0.00000000000E+00 0.  1.
         -2   -1    0    0    0  501 -0.00000000000E+00 -0.00000000000E+00 -0.10825018114E+04  0.10825018114E+04  0.00000000000E+00 0. -1.
         23    2    1    2    0    0  0.52245631542E+03 -0.63473188311E+03 -0.14344076029E+03  0.83975818073E+03  0.93666351710E+02 0.  0.
    5000000    2    1    2    0    0 -0.52245631542E+03  0.63473188311E+03 -0.15268381210E+03  0.10291208698E+04  0.59994354163E+03 0.  0.
         23    2    4    4    0    0 -0.81263603456E+02  0.10338352143E+02  0.15729813361E+03  0.19955719351E+03  0.91486151277E+02 0.  0.
         23    2    4    4    0    0 -0.44119271196E+03  0.62439353096E+03 -0.30998194571E+03  0.82956367624E+03  0.86998825734E+02 0.  0.
          5    1    3    3  502    0  0.27452143929E+02 -0.12866749788E+02  0.52669075196E+01  0.31128825407E+02  0.47000000000E+01 0. -1.
         -5    1    3    3    0  502  0.49500417149E+03 -0.62186513332E+03 -0.14870766781E+03  0.80862935532E+03  0.47000000000E+01 0.  1.
         13    1    5    5    0    0 -0.11586702599E+02  0.96344591537E+01 -0.10164114339E+02  0.18176460068E+02  0.00000000000E+00 0. -1.
        -13    1    5    5    0    0 -0.69676900857E+02  0.70389298973E+00  0.16746224795E+03  0.18138073345E+03  0.00000000000E+00 0.  1.
          3    1    6    6  503    0 -0.66850650812E+02  0.55034832961E+02 -0.51754920305E+02  0.10087821434E+03  0.00000000000E+00 0. -1.
         -3    1    6    6    0  503 -0.37434206115E+03  0.56935869800E+03 -0.25822702540E+03  0.72868546190E+03  0.00000000000E+00 0.  1.
<mgrwt>
<rscale>  0 0.83912707E+03</rscale>
<asrwt>0</asrwt>
<pdfrwt beam="1">  1        2 0.12098111E+00 0.83912707E+03</pdfrwt>
<pdfrwt beam="2">  1       -2 0.16653874E+00 0.83912707E+03</pdfrwt>
<totfact> 0.80112545E+00</totfact>
</mgrwt>
</event>
<event>
12    1  0.3203156E-008  0.9163205E+03  0.7818608E-02  0.9405407E-01
         -2   -1    0    0    0  501 -0.00000000000E+00  0.00000000000E+00  0.33046707861E+03  0.33046707861E+03  0.00000000000E+00 0. -1.
          2   -1    0    0  501    0  0.00000000000E+00 -0.00000000000E+00 -0.28032556003E+04  0.28032556003E+04  0.00000000000E+00 0.  1.
         23    2    1    2    0    0 -0.73758048999E+03 -0.45382374125E+03 -0.11728392336E+04  0.14607235251E+04  0.90445461681E+02 0.  0.
    5000000    2    1    2    0    0  0.73758048999E+03  0.45382374125E+03 -0.12999492881E+04  0.16729991539E+04  0.59923038121E+03 0.  0.
         23    2    4    4    0    0  0.14173378758E+03  0.29991005979E+03 -0.81425768811E+03  0.88382040397E+03  0.89935606571E+02 0.  0.
         23    2    4    4    0    0  0.59584670241E+03  0.15391368146E+03 -0.48569160002E+03  0.78917874988E+03  0.90465766052E+02 0.  0.
          5    1    3    3  502    0 -0.30239068593E+03 -0.23723382441E+03 -0.50155658442E+03  0.63190277081E+03  0.47000000000E+01 0. -1.
         -5    1    3    3    0  502 -0.43518980405E+03 -0.21658991685E+03 -0.67128264918E+03  0.82882075428E+03  0.47000000000E+01 0.  1.
         13    1    5    5    0    0  0.12572704853E+03  0.30096320278E+03 -0.75526155815E+03  0.82268229675E+03  0.00000000000E+00 0.  1.
        -13    1    5    5    0    0  0.16006739051E+02 -0.10531429904E+01 -0.58996129956E+02  0.61138107224E+02  0.00000000000E+00 0. -1.
          3    1    6    6  503    0  0.18433124206E+03  0.83783961227E+02 -0.18953509584E+03  0.27734691545E+03  0.00000000000E+00 0. -1.
         -3    1    6    6    0  503  0.41151546035E+03  0.70129720238E+02 -0.29615650418E+03  0.51183183443E+03  0.00000000000E+00 0.  1.
<mgrwt>
<rscale>  0 0.91632055E+03</rscale>
<asrwt>0</asrwt>
<pdfrwt beam="1">  1        2 0.43127009E+00 0.91632055E+03</pdfrwt>
<pdfrwt beam="2">  1       -2 0.50841089E-01 0.91632055E+03</pdfrwt>
<totfact> 0.86728526E+00</totfact>
</mgrwt>
</event>
<event>
12    1  0.3203156E-008  0.5314338E+03  0.7818608E-02  0.1005885E+00
         -1   -1    0    0    0  501 -0.00000000000E+00  0.00000000000E+00  0.23200125357E+03  0.23200125357E+03  0.00000000000E+00 0.  1.
          1   -1    0    0  501    0  0.00000000000E+00 -0.00000000000E+00 -0.19298721135E+04  0.19298721135E+04  0.00000000000E+00 0. -1.
         23    2    1    2    0    0  0.40382035600E+03  0.33354791558E+03 -0.80704940192E+03  0.96692473222E+03  0.96382616358E+02 0.  0.
    5000000    2    1    2    0    0 -0.40382035600E+03 -0.33354791558E+03 -0.89082145799E+03  0.11949486348E+04  0.60001189816E+03 0.  0.
         23    2    4    4    0    0 -0.18431292658E+03 -0.14224192496E+03  0.51017341582E+01  0.24873850741E+03  0.87411653995E+02 0.  0.
         23    2    4    4    0    0 -0.21950742941E+03 -0.19130599062E+03 -0.89592319214E+03  0.94621012741E+03  0.88621359593E+02 0.  0.
          5    1    3    3  502    0  0.30118805698E+03  0.27601251896E+03 -0.55944753771E+03  0.69274872338E+03  0.47000000000E+01 0. -1.
         -5    1    3    3    0  502  0.10263229902E+03  0.57535396618E+02 -0.24760186421E+03  0.27417600884E+03  0.47000000000E+01 0.  1.
         13    1    5    5    0    0 -0.67790415499E+02 -0.50426987620E+02  0.44159945365E+02  0.95333741606E+02  0.00000000000E+00 0. -1.
        -13    1    5    5    0    0 -0.11652251109E+03 -0.91814937338E+02 -0.39058211207E+02  0.15340476580E+03  0.00000000000E+00 0.  1.
          3    1    6    6  503    0 -0.13086118737E+03 -0.56864112689E+02 -0.39035397102E+03  0.41561328223E+03  0.00000000000E+00 0. -1.
         -3    1    6    6    0  503 -0.88646242041E+02 -0.13444187793E+03 -0.50556922112E+03  0.53059684518E+03  0.00000000000E+00 0.  1.
<mgrwt>
<rscale>  0 0.53143383E+03</rscale>
<asrwt>0</asrwt>
<pdfrwt beam="1">  1        1 0.29690340E+00 0.53143383E+03</pdfrwt>
<pdfrwt beam="2">  1       -1 0.35692501E-01 0.53143383E+03</pdfrwt>
<totfact> 0.26762795E+01</totfact>
</mgrwt>
</event>
<event>
12    1  0.3203156E-008  0.2718602E+03  0.7818608E-02  0.1100220E+00
          2   -1    0    0  501    0  0.00000000000E+00  0.00000000000E+00  0.65825725574E+03  0.65825725574E+03  0.00000000000E+00 0. -1.
         -2   -1    0    0    0  501 -0.00000000000E+00 -0.00000000000E+00 -0.29888156160E+03  0.29888156160E+03  0.00000000000E+00 0.  1.
         23    2    1    2    0    0  0.21416068158E+03 -0.78467789775E+02  0.10568918989E+03  0.26701197771E+03  0.90017774976E+02 0.  0.
    5000000    2    1    2    0    0 -0.21416068158E+03  0.78467789775E+02  0.25368650426E+03  0.69012683963E+03  0.59991351108E+03 0.  0.
         23    2    4    4    0    0 -0.14939775633E+03 -0.17376344175E+02  0.42758962024E+03  0.46222564498E+03  0.90543009722E+02 0.  0.
         23    2    4    4    0    0 -0.64762925253E+02  0.95844133950E+02 -0.17390311598E+03  0.22790119465E+03  0.91193893859E+02 0.  0.
          5    1    3    3  502    0  0.16821676581E+02  0.16306394123E+02  0.52749998990E-01  0.23894770868E+02  0.47000000000E+01 0. -1.
         -5    1    3    3    0  502  0.19733900500E+03 -0.94774183898E+02  0.10563643989E+03  0.24311720684E+03  0.47000000000E+01 0.  1.
         11    1    5    5    0    0 -0.11569327415E+03  0.27479160263E+02  0.30690244363E+03  0.32913393601E+03  0.00000000000E+00 0. -1.
        -11    1    5    5    0    0 -0.33704482184E+02 -0.44855504438E+02  0.12068717661E+03  0.13309170897E+03  0.00000000000E+00 0.  1.
          4    1    6    6  503    0 -0.27000451032E+02  0.50010928753E+01 -0.10309567938E+03  0.10668999200E+03  0.00000000000E+00 0. -1.
         -4    1    6    6    0  503 -0.37762474221E+02  0.90843041074E+02 -0.70807436596E+02  0.12121120265E+03  0.00000000000E+00 0.  1.
<mgrwt>
<rscale>  0 0.27186022E+03</rscale>
<asrwt>0</asrwt>
<pdfrwt beam="1">  1        2 0.10127035E+00 0.27186022E+03</pdfrwt>
<pdfrwt beam="2">  1       -2 0.45981779E-01 0.27186022E+03</pdfrwt>
<totfact> 0.20712650E+02</totfact>
</mgrwt>
</event>
<event>
12    1  0.3203156E-008  0.5652321E+03  0.7818608E-02  0.9980285E-01
          1   -1    0    0  501    0  0.00000000000E+00  0.00000000000E+00  0.57543715427E+03  0.57543715427E+03  0.00000000000E+00 0. -1.
         -1   -1    0    0    0  501 -0.00000000000E+00 -0.00000000000E+00 -0.70134390428E+03  0.70134390428E+03  0.00000000000E+00 0.  1.
         23    2    1    2    0    0 -0.23599340145E+03 -0.37668041352E+03 -0.25294983198E+03  0.51935029846E+03  0.90333247230E+02 0.  0.
    5000000    2    1    2    0    0  0.23599340145E+03  0.37668041352E+03  0.12704308197E+03  0.75743076008E+03  0.59998365993E+03 0.  0.
         23    2    4    4    0    0 -0.15983092721E+03  0.11447860403E+03 -0.80665972799E+02  0.23085984050E+03  0.90210812622E+02 0.  0.
         23    2    4    4    0    0  0.39582432866E+03  0.26220180950E+03  0.20770905477E+03  0.52657091959E+03  0.93312345707E+02 0.  0.
          5    1    3    3  502    0 -0.15109244657E+03 -0.27600267956E+03 -0.13474312679E+03  0.34232178831E+03  0.47000000000E+01 0.  1.
         -5    1    3    3    0  502 -0.84900954878E+02 -0.10067773396E+03 -0.11820670518E+03  0.17702851015E+03  0.47000000000E+01 0. -1.
         11    1    5    5    0    0 -0.66685910685E+02  0.88005140280E+02 -0.75746489742E+02  0.13390088165E+03  0.00000000000E+00 0.  1.
        -11    1    5    5    0    0 -0.93145016525E+02  0.26473463746E+02 -0.49194830565E+01  0.96958958842E+02  0.00000000000E+00 0. -1.
          4    1    6    6  503    0  0.29202420465E+03  0.16996987791E+03  0.18698792504E+03  0.38617661712E+03  0.00000000000E+00 0. -1.
         -4    1    6    6    0  503  0.10380012400E+03  0.92231931589E+02  0.20721129728E+02  0.14039430247E+03  0.00000000000E+00 0.  1.
<mgrwt>
<rscale>  0 0.56523215E+03</rscale>
<asrwt>0</asrwt>
<pdfrwt beam="1">  1        1 0.88528794E-01 0.56523215E+03</pdfrwt>
<pdfrwt beam="2">  1       -1 0.10789906E+00 0.56523215E+03</pdfrwt>
<totfact> 0.30392053E+01</totfact>
</mgrwt>
</event>
<event>
12    1  0.3203156E-008  0.7306362E+03  0.7818608E-02  0.9666229E-01
         -2   -1    0    0    0  501 -0.00000000000E+00  0.00000000000E+00  0.66626667207E+03  0.66626667207E+03  0.00000000000E+00 0.  1.
          2   -1    0    0  501    0  0.00000000000E+00 -0.00000000000E+00 -0.95457203530E+03  0.95457203530E+03  0.00000000000E+00 0. -1.
         23    2    1    2    0    0 -0.46918103617E+03  0.47701298632E+03 -0.12117073604E+02  0.68065786484E+03  0.12440286039E+03 0.  0.
    5000000    2    1    2    0    0  0.46918103617E+03 -0.47701298632E+03 -0.27618828963E+03  0.94018084254E+03  0.59998984285E+03 0.  0.
         23    2    4    4    0    0  0.24444016191E+03 -0.48727425007E+03  0.25950856863E+02  0.55382026786E+03  0.94107675491E+02 0.  0.
         23    2    4    4    0    0  0.22474087426E+03  0.10261263754E+02 -0.30213914649E+03  0.38636057468E+03  0.85864286643E+02 0.  0.
          5    1    3    3  502    0 -0.20032525378E+03  0.14841153062E+03  0.41157638449E+02  0.25272956085E+03  0.47000000000E+01 0. -1.
         -5    1    3    3    0  502 -0.26885578239E+03  0.32860145570E+03 -0.53274712052E+02  0.42792830399E+03  0.47000000000E+01 0.  1.
         13    1    5    5    0    0  0.24165613747E+02 -0.89716292525E+02  0.34837234896E+02  0.99230151503E+02  0.00000000000E+00 0.  1.
        -13    1    5    5    0    0  0.22027454816E+03 -0.39755795754E+03 -0.88863780326E+01  0.45459011636E+03  0.00000000000E+00 0. -1.
          4    1    6    6  503    0  0.12090674854E+03 -0.36107700134E+02 -0.17555496237E+03  0.21619841042E+03  0.00000000000E+00 0. -1.
         -4    1    6    6    0  503  0.10383412572E+03  0.46368963888E+02 -0.12658418412E+03  0.17016216426E+03  0.00000000000E+00 0.  1.
<mgrwt>
<rscale>  0 0.73063623E+03</rscale>
<asrwt>0</asrwt>
<pdfrwt beam="1">  1        2 0.14685724E+00 0.73063623E+03</pdfrwt>
<pdfrwt beam="2">  1       -2 0.10250256E+00 0.73063623E+03</pdfrwt>
<totfact> 0.21374285E+01</totfact>
</mgrwt>
</event>
<event>
12    1  0.3203156E-008  0.8015544E+03  0.7818608E-02  0.9557770E-01
          2   -1    0    0  501    0  0.00000000000E+00  0.00000000000E+00  0.50985853483E+03  0.50985853483E+03  0.00000000000E+00 0. -1.
         -2   -1    0    0    0  501 -0.00000000000E+00 -0.00000000000E+00 -0.14562868152E+04  0.14562868152E+04  0.00000000000E+00 0.  1.
         23    2    1    2    0    0  0.40786585138E+03 -0.63405996409E+03 -0.39536153976E+03  0.85619359264E+03  0.91488415515E+02 0.  0.
    5000000    2    1    2    0    0 -0.40786585138E+03  0.63405996409E+03 -0.55106674065E+03  0.11099517574E+04  0.59994313095E+03 0.  0.
         23    2    4    4    0    0 -0.11553050645E+03 -0.28520657403E+02  0.54874847107E+02  0.16109114693E+03  0.93693025110E+02 0.  0.
         23    2    4    4    0    0 -0.29233534493E+03  0.66258062149E+03 -0.60594158776E+03  0.94886061050E+03  0.93264229496E+02 0.  0.
          5    1    3    3  502    0  0.20443316991E+03 -0.31957170205E+03 -0.14763889571E+03  0.40710972383E+03  0.47000000000E+01 0. -1.
         -5    1    3    3    0  502  0.20343268147E+03 -0.31448826204E+03 -0.24772264405E+03  0.44908386881E+03  0.47000000000E+01 0.  1.
         11    1    5    5    0    0 -0.21113818034E+02 -0.48191290175E+01 -0.26492173878E+02  0.34217723379E+02  0.00000000000E+00 0.  1.
        -11    1    5    5    0    0 -0.94416688418E+02 -0.23701528385E+02  0.81367020985E+02  0.12687342355E+03  0.00000000000E+00 0. -1.
          2    1    6    6  503    0 -0.20621536748E+03  0.35325345520E+03 -0.34524563139E+03  0.53526379234E+03  0.00000000000E+00 0.  1.
         -2    1    6    6    0  503 -0.86119977451E+02  0.30932716630E+03 -0.26069595637E+03  0.41359681816E+03  0.00000000000E+00 0. -1.
<mgrwt>
<rscale>  0 0.80155441E+03</rscale>
<asrwt>0</asrwt>
<pdfrwt beam="1">  1        2 0.78439776E-01 0.80155441E+03</pdfrwt>
<pdfrwt beam="2">  1       -2 0.22404412E+00 0.80155441E+03</pdfrwt>
<totfact> 0.57072665E+00</totfact>
</mgrwt>
</event>
<event>
12    1  0.3203156E-008  0.5224266E+03  0.7818608E-02  0.1008086E+00
          2   -1    0    0  501    0  0.00000000000E+00  0.00000000000E+00  0.43376602487E+03  0.43376602487E+03  0.00000000000E+00 0.  1.
         -2   -1    0    0    0  501 -0.00000000000E+00 -0.00000000000E+00 -0.78170454812E+03  0.78170454812E+03  0.00000000000E+00 0. -1.
         23    2    1    2    0    0 -0.39250824962E+03  0.15168261292E+03 -0.16372417242E+03  0.45982612020E+03  0.86971921371E+02 0.  0.
    5000000    2    1    2    0    0  0.39250824962E+03 -0.15168261292E+03 -0.18421435083E+03  0.75564445278E+03  0.59999439238E+03 0.  0.
         23    2    4    4    0    0 -0.17336950505E+02 -0.19942199050E+03  0.10369127806E+03  0.24378897866E+03  0.92798086324E+02 0.  0.
         23    2    4    4    0    0  0.40984520012E+03  0.47739377576E+02 -0.28790562889E+03  0.51185547411E+03  0.94096965951E+02 0.  0.
          5    1    3    3  502    0 -0.26254528357E+03  0.11514404616E+03 -0.69201045594E+02  0.29495601707E+03  0.47000000000E+01 0. -1.
         -5    1    3    3    0  502 -0.12996296604E+03  0.36538566767E+02 -0.94523126824E+02  0.16487010314E+03  0.47000000000E+01 0.  1.
         11    1    5    5    0    0 -0.27232718761E+02 -0.89013689346E+02  0.94357504858E+02  0.13254582825E+03  0.00000000000E+00 0.  1.
        -11    1    5    5    0    0  0.98957682557E+01 -0.11040830115E+03  0.93337731980E+01  0.11124315042E+03  0.00000000000E+00 0. -1.
          3    1    6    6  503    0  0.20019592407E+03 -0.13638603966E+02 -0.10245225217E+03  0.22530176099E+03  0.00000000000E+00 0. -1.
         -3    1    6    6    0  503  0.20964927606E+03  0.61377981542E+02 -0.18545337672E+03  0.28655371312E+03  0.00000000000E+00 0.  1.
<mgrwt>
<rscale>  0 0.52242657E+03</rscale>
<asrwt>0</asrwt>
<pdfrwt beam="1">  1        2 0.66733236E-01 0.52242657E+03</pdfrwt>
<pdfrwt beam="2">  1       -2 0.12026224E+00 0.52242657E+03</pdfrwt>
<totfact> 0.39482495E+01</totfact>
</mgrwt>
</event>
<event>
12    1  0.3203156E-008  0.3985927E+03  0.7818608E-02  0.1044268E+00
          1   -1    0    0  501    0  0.00000000000E+00  0.00000000000E+00  0.48811131629E+03  0.48811131629E+03  0.00000000000E+00 0.  1.
         -1   -1    0    0    0  501 -0.00000000000E+00 -0.00000000000E+00 -0.53353672337E+03  0.53353672337E+03  0.00000000000E+00 0. -1.
         23    2    1    2    0    0 -0.13848532341E+03 -0.24225253090E+03  0.16318939698E+03  0.32791926429E+03  0.55098013400E+02 0.  0.
    5000000    2    1    2    0    0  0.13848532341E+03  0.24225253090E+03 -0.20861480406E+03  0.69372877537E+03  0.59989582743E+03 0.  0.
         23    2    4    4    0    0  0.16116664469E+03  0.33667669788E+03 -0.33121539640E+03  0.50739390761E+03  0.91755394469E+02 0.  0.
         23    2    4    4    0    0 -0.22681321279E+02 -0.94424166982E+02  0.12260059233E+03  0.18633486776E+03  0.10128875582E+03 0.  0.
          5    1    3    3  502    0 -0.86328269830E+02 -0.18448222787E+03  0.97036742626E+02  0.22566453419E+03  0.47000000000E+01 0. -1.
         -5    1    3    3    0  502 -0.52157053579E+02 -0.57770303027E+02  0.66152654353E+02  0.10225473010E+03  0.47000000000E+01 0.  1.
         11    1    5    5    0    0  0.19288148238E+02  0.12599947300E+02 -0.51435228243E+02  0.56359329652E+02  0.00000000000E+00 0.  1.
        -11    1    5    5    0    0  0.14187849645E+03  0.32407675058E+03 -0.27978016815E+03  0.45103457796E+03  0.00000000000E+00 0. -1.
          2    1    6    6  503    0  0.27710183468E+02 -0.82292961631E+02  0.90231003910E+02  0.12522627467E+03  0.00000000000E+00 0. -1.
         -2    1    6    6    0  503 -0.50391504747E+02 -0.12131205352E+02  0.32369588422E+02  0.61108593083E+02  0.00000000000E+00 0.  1.
<mgrwt>
<rscale>  0 0.39859273E+03</rscale>
<asrwt>0</asrwt>
<pdfrwt beam="1">  1        1 0.75094049E-01 0.39859273E+03</pdfrwt>
<pdfrwt beam="2">  1       -1 0.82082573E-01 0.39859273E+03</pdfrwt>
<totfact> 0.71486190E+01</totfact>
</mgrwt>
</event>
<event>
12    1  0.3203156E-008  0.1254686E+04  0.7818608E-02  0.9066292E-01
         -2   -1    0    0    0  501 -0.00000000000E+00  0.00000000000E+00  0.12389875424E+04  0.12389875424E+04  0.00000000000E+00 0.  1.
          2   -1    0    0  501    0  0.00000000000E+00 -0.00000000000E+00 -0.13974681664E+04  0.13974681664E+04  0.00000000000E+00 0. -1.
         23    2    1    2    0    0  0.10009731271E+04  0.67744436247E+03  0.22684935511E+03  0.12331374291E+04  0.91045173692E+02 0.  0.
    5000000    2    1    2    0    0 -0.10009731271E+04 -0.67744436247E+03 -0.38532997913E+03  0.14033182797E+04  0.59995411161E+03 0.  0.
         23    2    4    4    0    0 -0.22576892758E+03 -0.42308728439E+03 -0.31194837535E+03  0.57910750087E+03  0.89884647273E+02 0.  0.
         23    2    4    4    0    0 -0.77520419953E+03 -0.25435707808E+03 -0.73381603785E+02  0.82421077888E+03  0.91101449538E+02 0.  0.
          5    1    3    3  502    0  0.29366578406E+03  0.15618478076E+03  0.42394572377E+02  0.33533963117E+03  0.47000000000E+01 0. -1.
         -5    1    3    3    0  502  0.70730734304E+03  0.52125958171E+03  0.18445478274E+03  0.89779779790E+03  0.47000000000E+01 0.  1.
         11    1    5    5    0    0 -0.19835228428E+03 -0.38734429916E+03 -0.24798950098E+03  0.50087725779E+03  0.00000000000E+00 0.  1.
        -11    1    5    5    0    0 -0.27416643292E+02 -0.35742985223E+02 -0.63958874371E+02  0.78230243083E+02  0.00000000000E+00 0. -1.
          1    1    6    6  503    0 -0.44000817097E+03 -0.11457798536E+03 -0.53050830339E+01  0.45471249065E+03  0.00000000000E+00 0. -1.
         -1    1    6    6    0  503 -0.33519602856E+03 -0.13977909273E+03 -0.68076520751E+02  0.36949828823E+03  0.00000000000E+00 0.  1.
<mgrwt>
<rscale>  0 0.12546865E+04</rscale>
<asrwt>0</asrwt>
<pdfrwt beam="1">  1        2 0.21499510E+00 0.12546865E+04</pdfrwt>
<pdfrwt beam="2">  1       -2 0.19061347E+00 0.12546865E+04</pdfrwt>
<totfact> 0.21511626E+00</totfact>
</mgrwt>
</event>
<event>
12    1  0.3203156E-008  0.7959013E+03  0.7818608E-02  0.9565969E-01
          1   -1    0    0  501    0  0.00000000000E+00  0.00000000000E+00  0.18227812524E+04  0.18227812524E+04  0.00000000000E+00 0. -1.
         -1   -1    0    0    0  501 -0.00000000000E+00 -0.00000000000E+00 -0.42489412066E+03  0.42489412066E+03  0.00000000000E+00 0.  1.
         23    2    1    2    0    0 -0.20404778522E+02  0.77432638170E+03  0.61972196741E+03  0.99627120265E+03  0.92213295923E+02 0.  0.
    5000000    2    1    2    0    0  0.20404778522E+02 -0.77432638170E+03  0.77816516433E+03  0.12514041704E+04  0.60039459887E+03 0.  0.
         23    2    4    4    0    0  0.58076460022E+02 -0.71116558827E+02  0.45097931058E+03  0.46933645041E+03  0.91999592219E+02 0.  0.
         23    2    4    4    0    0 -0.37671681500E+02 -0.70320982287E+03  0.32718585375E+03  0.78206771999E+03  0.93038299580E+02 0.  0.
          5    1    3    3  502    0 -0.15000663985E+01  0.14823720781E+03  0.16729733072E+03  0.22357774228E+03  0.47000000000E+01 0. -1.
         -5    1    3    3    0  502 -0.18904712123E+02  0.62608917389E+03  0.45242463670E+03  0.77269346036E+03  0.47000000000E+01 0.  1.
         11    1    5    5    0    0  0.43619299497E+02 -0.39061716585E+01  0.30322855626E+03  0.30637470326E+03  0.00000000000E+00 0. -1.
        -11    1    5    5    0    0  0.14457160525E+02 -0.67210387168E+02  0.14775075432E+03  0.16296174715E+03  0.00000000000E+00 0.  1.
          3    1    6    6  503    0 -0.61728405902E+01 -0.31612532720E+03  0.97547020583E+02  0.33089083953E+03  0.00000000000E+00 0. -1.
         -3    1    6    6    0  503 -0.31498840910E+02 -0.38708449568E+03  0.22963883316E+03  0.45117688047E+03  0.00000000000E+00 0.  1.
<mgrwt>
<rscale>  0 0.79590128E+03</rscale>
<asrwt>0</asrwt>
<pdfrwt beam="1">  1        1 0.28042788E+00 0.79590128E+03</pdfrwt>
<pdfrwt beam="2">  1       -1 0.65368327E-01 0.79590128E+03</pdfrwt>
<totfact> 0.96639368E+00</totfact>
</mgrwt>
</event>
<event>
12    1  0.3203156E-008  0.3064263E+04  0.7818608E-02  0.8225615E-01
          1   -1    0    0  501    0  0.00000000000E+00  0.00000000000E+00  0.35068772308E+04  0.35068772308E+04  0.00000000000E+00 0. -1.
         -1   -1    0    0    0  501 -0.00000000000E+00 -0.00000000000E+00 -0.30997720594E+04  0.30997720594E+04  0.00000000000E+00 0.  1.
         23    2    1    2    0    0  0.77725291973E+03 -0.29351327990E+04  0.14157303532E+04  0.33514384503E+04  0.93384173744E+02 0.  0.
    5000000    2    1    2    0    0 -0.77725291973E+03  0.29351327990E+04 -0.10086251819E+04  0.32552108399E+04  0.59995516951E+03 0.  0.
         23    2    4    4    0    0 -0.16027527866E+03  0.17143381502E+04 -0.55487872967E+03  0.18111250024E+04  0.87406586841E+02 0.  0.
         23    2    4    4    0    0 -0.61697764107E+03  0.12207946488E+04 -0.45374645218E+03  0.14440858375E+04  0.92179601850E+02 0.  0.
          5    1    3    3  502    0  0.41249493365E+03 -0.17201981821E+04  0.80329385833E+03  0.19428167615E+04  0.47000000000E+01 0. -1.
         -5    1    3    3    0  502  0.36475798608E+03 -0.12149346169E+04  0.61243649491E+03  0.14086216887E+04  0.47000000000E+01 0.  1.
         11    1    5    5    0    0  0.38369144309E+01  0.12360042018E+03 -0.57557206763E+02  0.13639874571E+03  0.00000000000E+00 0. -1.
        -11    1    5    5    0    0 -0.16411219309E+03  0.15907377300E+04 -0.49732152291E+03  0.16747262567E+04  0.00000000000E+00 0.  1.
          3    1    6    6  503    0 -0.19359956781E+03  0.41550914086E+03 -0.10915118380E+03  0.47121398506E+03  0.00000000000E+00 0. -1.
         -3    1    6    6    0  503 -0.42337807327E+03  0.80528550795E+03 -0.34459526838E+03  0.97287185242E+03  0.00000000000E+00 0.  1.
<mgrwt>
<rscale>  0 0.30642626E+04</rscale>
<asrwt>0</asrwt>
<pdfrwt beam="1">  1        1 0.53951957E+00 0.30642626E+04</pdfrwt>
<pdfrwt beam="2">  1       -1 0.47688801E+00 0.30642626E+04</pdfrwt>
<totfact> 0.40828745E-04</totfact>
</mgrwt>
</event>
<event>
12    1  0.3203156E-008  0.5865931E+03  0.7818608E-02  0.9933618E-01
          2   -1    0    0  501    0  0.00000000000E+00  0.00000000000E+00  0.70838545080E+03  0.70838545080E+03  0.00000000000E+00 0. -1.
         -2   -1    0    0    0  501 -0.00000000000E+00 -0.00000000000E+00 -0.55747280721E+03  0.55747280721E+03  0.00000000000E+00 0.  1.
         23    2    1    2    0    0 -0.20331174532E+03  0.42253865612E+03  0.15986388084E+03  0.50444439899E+03  0.95042672368E+02 0.  0.
    5000000    2    1    2    0    0  0.20331174532E+03 -0.42253865612E+03 -0.89512372547E+01  0.76141385902E+03  0.59983027463E+03 0.  0.
         23    2    4    4    0    0  0.17518291585E+03  0.84191751238E+02  0.95331290173E+02  0.23523408250E+03  0.92031047493E+02 0.  0.
         23    2    4    4    0    0  0.28128829475E+02 -0.50673040736E+03 -0.10428252743E+03  0.52617977652E+03  0.91778945871E+02 0.  0.
          5    1    3    3  502    0 -0.16272935586E+03  0.34375477526E+03  0.88379218734E+02  0.39048836741E+03  0.47000000000E+01 0. -1.
         -5    1    3    3    0  502 -0.40582389456E+02  0.78783880854E+02  0.71484662106E+02  0.11395603158E+03  0.47000000000E+01 0.  1.
         11    1    5    5    0    0  0.42950458272E+02  0.12175194352E+02 -0.16586419145E+02  0.47624432001E+02  0.00000000000E+00 0.  1.
        -11    1    5    5    0    0  0.13223245757E+03  0.72016556886E+02  0.11191770932E+03  0.18760965050E+03  0.00000000000E+00 0. -1.
          3    1    6    6  503    0  0.27169750803E+01 -0.35615691603E+03 -0.33103049792E+02  0.35770231017E+03  0.00000000000E+00 0. -1.
         -3    1    6    6    0  503  0.25411854394E+02 -0.15057349132E+03 -0.71179477636E+02  0.16847746635E+03  0.00000000000E+00 0.  1.
<mgrwt>
<rscale>  0 0.58659314E+03</rscale>
<asrwt>0</asrwt>
<pdfrwt beam="1">  1        2 0.10898238E+00 0.58659314E+03</pdfrwt>
<pdfrwt beam="2">  1       -2 0.85765047E-01 0.58659314E+03</pdfrwt>
<totfact> 0.48943206E+01</totfact>
</mgrwt>
</event>
<event>
12    1  0.3203156E-008  0.9506225E+03  0.7818608E-02  0.9364423E-01
          2   -1    0    0  501    0  0.00000000000E+00  0.00000000000E+00  0.22056808787E+04  0.22056808787E+04  0.00000000000E+00 0. -1.
         -2   -1    0    0    0  501 -0.00000000000E+00 -0.00000000000E+00 -0.56412161417E+03  0.56412161417E+03  0.00000000000E+00 0.  1.
         23    2    1    2    0    0  0.84187989271E+03  0.37209139194E+03  0.18140994208E+03  0.94243596168E+03  0.89789849562E+02 0.  0.
    5000000    2    1    2    0    0 -0.84187989271E+03 -0.37209139194E+03  0.14601493224E+04  0.18273665312E+04  0.60001553128E+03 0.  0.
         23    2    4    4    0    0 -0.71519297129E+03 -0.40805290805E+03  0.81319603568E+03  0.11609343096E+04  0.92046274773E+02 0.  0.
         23    2    4    4    0    0 -0.12668692142E+03  0.35961516101E+02  0.64695328676E+03  0.66643222163E+03  0.90777442618E+02 0.  0.
          5    1    3    3  502    0  0.31477733573E+03  0.12036504656E+03  0.10674807964E+03  0.35353890597E+03  0.47000000000E+01 0. -1.
         -5    1    3    3    0  502  0.52710255697E+03  0.25172634538E+03  0.74661862437E+02  0.58889705572E+03  0.47000000000E+01 0.  1.
         11    1    5    5    0    0 -0.48915854057E+03 -0.32592376864E+03  0.59003018744E+03  0.83284932783E+03  0.00000000000E+00 0.  1.
        -11    1    5    5    0    0 -0.22603443072E+03 -0.82129139409E+02  0.22316584824E+03  0.32808498172E+03  0.00000000000E+00 0. -1.
          4    1    6    6  503    0 -0.12546001555E+03  0.10080136832E+02  0.43319920400E+03  0.45111348351E+03  0.00000000000E+00 0. -1.
         -4    1    6    6    0  503 -0.12269058647E+01  0.25881379269E+02  0.21375408276E+03  0.21531873812E+03  0.00000000000E+00 0.  1.
<mgrwt>
<rscale>  0 0.95062248E+03</rscale>
<asrwt>0</asrwt>
<pdfrwt beam="1">  1        2 0.33933551E+00 0.95062248E+03</pdfrwt>
<pdfrwt beam="2">  1       -2 0.86787942E-01 0.95062248E+03</pdfrwt>
<totfact> 0.59535496E+00</totfact>
</mgrwt>
</event>
<event>
12    1  0.3203156E-008  0.5660169E+03  0.7818608E-02  0.9978532E-01
          2   -1    0    0  501    0  0.00000000000E+00  0.00000000000E+00  0.31454626479E+04  0.31454626479E+04  0.00000000000E+00 0. -1.
         -2   -1    0    0    0  501 -0.00000000000E+00 -0.00000000000E+00 -0.21995214310E+03  0.21995214310E+03  0.00000000000E+00 0.  1.
         23    2    1    2    0    0  0.47506355092E+03 -0.27927562311E+03  0.22152792939E+04  0.22846896281E+04  0.93081124897E+02 0.  0.
    5000000    2    1    2    0    0 -0.47506355092E+03  0.27927562311E+03  0.71023121098E+03  0.10807251630E+04  0.59988186647E+03 0.  0.
         23    2    4    4    0    0 -0.32748944361E+03  0.14485893119E+03  0.35798949555E+02  0.37138466806E+03  0.91714564065E+02 0.  0.
         23    2    4    4    0    0 -0.14757410731E+03  0.13441669192E+03  0.67443226143E+03  0.70934049490E+03  0.91973356082E+02 0.  0.
          5    1    3    3  502    0  0.36916675724E+03 -0.18302793179E+03  0.15232253254E+04  0.15779799747E+04  0.47000000000E+01 0. -1.
         -5    1    3    3    0  502  0.10589679368E+03 -0.96247691328E+02  0.69205396846E+03  0.70670965344E+03  0.47000000000E+01 0.  1.
         11    1    5    5    0    0 -0.90020067778E+02  0.41043693760E+02 -0.31119942442E+02  0.10371426236E+03  0.00000000000E+00 0. -1.
        -11    1    5    5    0    0 -0.23746937583E+03  0.10381523743E+03  0.66918891998E+02  0.26767040570E+03  0.00000000000E+00 0.  1.
          1    1    6    6  503    0 -0.94412962239E+02  0.26000877933E+02  0.33775966874E+03  0.35166951378E+03  0.00000000000E+00 0. -1.
         -1    1    6    6    0  503 -0.53161145073E+02  0.10841581399E+03  0.33667259268E+03  0.35767098112E+03  0.00000000000E+00 0.  1.
<mgrwt>
<rscale>  0 0.56601689E+03</rscale>
<asrwt>0</asrwt>
<pdfrwt beam="1">  1        2 0.48391730E+00 0.56601689E+03</pdfrwt>
<pdfrwt beam="2">  1       -2 0.33838793E-01 0.56601689E+03</pdfrwt>
<totfact> 0.12735995E+01</totfact>
</mgrwt>
</event>
<event>
12    1  0.3203156E-008  0.5432447E+03  0.7818608E-02  0.1003070E+00
          1   -1    0    0  501    0  0.00000000000E+00  0.00000000000E+00  0.21331548255E+04  0.21331548255E+04  0.00000000000E+00 0. -1.
         -1   -1    0    0    0  501 -0.00000000000E+00 -0.00000000000E+00 -0.34762441736E+03  0.34762441736E+03  0.00000000000E+00 0.  1.
         23    2    1    2    0    0  0.44349058037E+03  0.53215117135E+02  0.16608077947E+04  0.17224325867E+04  0.94740387966E+02 0.  0.
    5000000    2    1    2    0    0 -0.44349058037E+03 -0.53215117135E+02  0.12472261344E+03  0.75834665619E+03  0.60001514738E+03 0.  0.
         23    2    4    4    0    0 -0.51070598695E+03 -0.13006791840E+03 -0.48945298407E+02  0.53698853234E+03  0.90679507775E+02 0.  0.
         23    2    4    4    0    0  0.67215406573E+02  0.76852801263E+02  0.17366791185E+03  0.22135812385E+03  0.91731191238E+02 0.  0.
          5    1    3    3  502    0  0.18033354300E+03 -0.15186727055E+02  0.77265070641E+03  0.79357547059E+03  0.47000000000E+01 0. -1.
         -5    1    3    3    0  502  0.26315703738E+03  0.68401844190E+02  0.88815708834E+03  0.92885711612E+03  0.47000000000E+01 0.  1.
         13    1    5    5    0    0 -0.39536160752E+03 -0.99579091026E+02  0.84449781027E+00  0.40771007990E+03  0.00000000000E+00 0.  1.
        -13    1    5    5    0    0 -0.11534437943E+03 -0.30488827372E+02 -0.49789796217E+02  0.12927845245E+03  0.00000000000E+00 0. -1.
          2    1    6    6  503    0  0.46275508721E+02  0.29916445913E+02  0.15844808707E+03  0.16775640893E+03  0.00000000000E+00 0. -1.
         -2    1    6    6    0  503  0.20939897853E+02  0.46936355350E+02  0.15219824783E+02  0.53601714917E+02  0.00000000000E+00 0.  1.
<mgrwt>
<rscale>  0 0.54324468E+03</rscale>
<asrwt>0</asrwt>
<pdfrwt beam="1">  1        1 0.32817766E+00 0.54324468E+03</pdfrwt>
<pdfrwt beam="2">  1       -1 0.53480681E-01 0.54324468E+03</pdfrwt>
<totfact> 0.93116339E+00</totfact>
</mgrwt>
</event>
<event>
12    1  0.3203156E-008  0.1003998E+04  0.7818608E-02  0.9304171E-01
         -1   -1    0    0    0  501 -0.00000000000E+00  0.00000000000E+00  0.29331211596E+04  0.29331211596E+04  0.00000000000E+00 0.  1.
          1   -1    0    0  501    0  0.00000000000E+00 -0.00000000000E+00 -0.39759424152E+03  0.39759424152E+03  0.00000000000E+00 0. -1.
         23    2    1    2    0    0  0.58097192969E+03 -0.73830965518E+03  0.67062098101E+03  0.11580674437E+04  0.93585116172E+02 0.  0.
    5000000    2    1    2    0    0 -0.58097192969E+03  0.73830965518E+03  0.18649059370E+04  0.21726479574E+04  0.59991287925E+03 0.  0.
         23    2    4    4    0    0  0.21254422267E+02 -0.56789815808E+02  0.13909550913E+03  0.17676542979E+03  0.90673165060E+02 0.  0.
         23    2    4    4    0    0 -0.60222635195E+03  0.79509947099E+03  0.17258104279E+04  0.19958825276E+04  0.10131970748E+03 0.  0.
          5    1    3    3  502    0  0.57952542976E+02 -0.45417409700E+02  0.75262032659E+02  0.10539308280E+03  0.47000000000E+01 0. -1.
         -5    1    3    3    0  502  0.52301938671E+03 -0.69289224548E+03  0.59535894835E+03  0.10526743609E+04  0.47000000000E+01 0.  1.
         11    1    5    5    0    0 -0.37162249351E+01 -0.12753534899E+02 -0.11698499882E+02  0.17700787544E+02  0.00000000000E+00 0. -1.
        -11    1    5    5    0    0  0.24970647202E+02 -0.44036280908E+02  0.15079400901E+03  0.15906464224E+03  0.00000000000E+00 0.  1.
          2    1    6    6  503    0 -0.34161071831E+03  0.37038904604E+03  0.89560274967E+03  0.10276138445E+04  0.00000000000E+00 0. -1.
         -2    1    6    6    0  503 -0.26061563364E+03  0.42471042495E+03  0.83020767823E+03  0.96826868304E+03  0.00000000000E+00 0.  1.
<mgrwt>
<rscale>  0 0.10039980E+04</rscale>
<asrwt>0</asrwt>
<pdfrwt beam="1">  1        1 0.61168347E-01 0.10039980E+04</pdfrwt>
<pdfrwt beam="2">  1       -1 0.45124940E+00 0.10039980E+04</pdfrwt>
<totfact> 0.19695063E-01</totfact>
</mgrwt>
</event>
<event>
12    1  0.3203156E-008  0.5362527E+03  0.7818608E-02  0.1004727E+00
         -2   -1    0    0    0  501 -0.00000000000E+00  0.00000000000E+00  0.54682268753E+03  0.54682268753E+03  0.00000000000E+00 0.  1.
          2   -1    0    0  501    0  0.00000000000E+00 -0.00000000000E+00 -0.86989802409E+03  0.86989802409E+03  0.00000000000E+00 0. -1.
         23    2    1    2    0    0 -0.42888866123E+03  0.90666378349E+02  0.21744470887E+03  0.49777123219E+03  0.91258546358E+02 0.  0.
    5000000    2    1    2    0    0  0.42888866123E+03 -0.90666378349E+02 -0.54052004542E+03  0.91894947943E+03  0.60011694723E+03 0.  0.
         23    2    4    4    0    0  0.14690176834E+03  0.17775826012E+03 -0.44300719029E+03  0.50764438605E+03  0.90935820524E+02 0.  0.
         23    2    4    4    0    0  0.28198689289E+03 -0.26842463847E+03 -0.97512855132E+02  0.41130509339E+03  0.89970709840E+02 0.  0.
          5    1    3    3  502    0 -0.28369974021E+03  0.54893560547E+02  0.94278550764E+02  0.30398911283E+03  0.47000000000E+01 0. -1.
         -5    1    3    3    0  502 -0.14518892102E+03  0.35772817802E+02  0.12316615810E+03  0.19378211935E+03  0.47000000000E+01 0.  1.
         11    1    5    5    0    0  0.81942285513E+02  0.37808778246E+02 -0.20522941139E+03  0.22419445392E+03  0.00000000000E+00 0. -1.
        -11    1    5    5    0    0  0.64959482826E+02  0.13994948187E+03 -0.23777777890E+03  0.28344993213E+03  0.00000000000E+00 0.  1.
          4    1    6    6  503    0  0.16981713381E+03 -0.15751195519E+03 -0.10294255514E+03  0.25346606207E+03  0.00000000000E+00 0. -1.
         -4    1    6    6    0  503  0.11216975908E+03 -0.11091268328E+03  0.54297000040E+01  0.15783903132E+03  0.00000000000E+00 0.  1.
<mgrwt>
<rscale>  0 0.53625270E+03</rscale>
<asrwt>0</asrwt>
<pdfrwt beam="1">  1        2 0.13383047E+00 0.53625270E+03</pdfrwt>
<pdfrwt beam="2">  1       -2 0.84126567E-01 0.53625270E+03</pdfrwt>
<totfact> 0.39327835E+01</totfact>
</mgrwt>
</event>
<event>
12    1  0.3203156E-008  0.8279624E+03  0.7818608E-02  0.9520402E-01
          2   -1    0    0  501    0  0.00000000000E+00  0.00000000000E+00  0.13223274285E+04  0.13223274285E+04  0.00000000000E+00 0. -1.
         -2   -1    0    0    0  501 -0.00000000000E+00 -0.00000000000E+00 -0.83912915502E+03  0.83912915502E+03  0.00000000000E+00 0.  1.
         23    2    1    2    0    0 -0.52182968939E+03  0.54820197790E+03  0.83772593344E+03  0.11325736132E+04  0.90036750520E+02 0.  0.
    5000000    2    1    2    0    0  0.52182968939E+03 -0.54820197790E+03 -0.35452765993E+03  0.10288829704E+04  0.60006555618E+03 0.  0.
         23    2    4    4    0    0  0.56925562405E+03 -0.54972724335E+03 -0.42458211865E+03  0.90375337702E+03  0.10123331171E+03 0.  0.
         23    2    4    4    0    0 -0.47425934654E+02  0.15252654533E+01  0.70054458726E+02  0.12512959333E+03  0.92185911220E+02 0.  0.
          5    1    3    3  502    0 -0.44461186104E+03  0.41778586801E+03  0.65534239405E+03  0.89538845309E+03  0.47000000000E+01 0. -1.
         -5    1    3    3    0  502 -0.77217828353E+02  0.13041610989E+03  0.18238353940E+03  0.23718516011E+03  0.47000000000E+01 0. -1.
         11    1    5    5    0    0  0.23519386783E+03 -0.24307061913E+03 -0.23708979473E+03  0.41305090741E+03  0.00000000000E+00 0. -1.
        -11    1    5    5    0    0  0.33406175622E+03 -0.30665662422E+03 -0.18749232392E+03  0.49070246961E+03  0.00000000000E+00 0.  1.
          3    1    6    6  503    0 -0.48270251743E+02  0.40789201161E+02  0.33734555761E+02  0.71636557617E+02  0.00000000000E+00 0. -1.
         -3    1    6    6    0  503  0.84431708900E+00 -0.39263935708E+02  0.36319902965E+02  0.53493035715E+02  0.00000000000E+00 0.  1.
<mgrwt>
<rscale>  0 0.82796237E+03</rscale>
<asrwt>0</asrwt>
<pdfrwt beam="1">  1        2 0.20343499E+00 0.82796237E+03</pdfrwt>
<pdfrwt beam="2">  1       -2 0.12909679E+00 0.82796237E+03</pdfrwt>
<totfact> 0.71758777E+00</totfact>
</mgrwt>
</event>
<event>
12    1  0.3203156E-008  0.4921503E+03  0.7818608E-02  0.1015848E+00
          1   -1    0    0  501    0  0.00000000000E+00  0.00000000000E+00  0.15143945040E+04  0.15143945040E+04  0.00000000000E+00 0. -1.
         -1   -1    0    0    0  501 -0.00000000000E+00 -0.00000000000E+00 -0.44690230623E+03  0.44690230623E+03  0.00000000000E+00 0.  1.
         23    2    1    2    0    0  0.40911922208E+03 -0.18115645470E+03 -0.19246009244E+03  0.49586216108E+03  0.92963415685E+02 0.  0.
    5000000    2    1    2    0    0 -0.40911922208E+03  0.18115645470E+03  0.12599522903E+04  0.14654346492E+04  0.59985226378E+03 0.  0.
         23    2    4    4    0    0  0.87840801654E+01  0.70642764277E+02 -0.13886608509E+02  0.11712593788E+03  0.91967859714E+02 0.  0.
         23    2    4    4    0    0 -0.41790330224E+03  0.11051369042E+03  0.12738388988E+04  0.13483087113E+04  0.91730012391E+02 0.  0.
          5    1    3    3  502    0  0.32529804285E+03 -0.14510033282E+03 -0.11009222771E+03  0.37284757189E+03  0.47000000000E+01 0. -1.
         -5    1    3    3    0  502  0.83821179230E+02 -0.36056121883E+02 -0.82367864731E+02  0.12301458919E+03  0.47000000000E+01 0.  1.
         11    1    5    5    0    0 -0.15140080075E+02  0.73338474368E+02 -0.37197201656E+02  0.83614506267E+02  0.00000000000E+00 0.  1.
        -11    1    5    5    0    0  0.23924160241E+02 -0.26957100910E+01  0.23310593147E+02  0.33511431617E+02  0.00000000000E+00 0. -1.
          1    1    6    6  503    0 -0.15145557787E+03  0.61165292773E+01  0.53250038353E+03  0.55365410001E+03  0.00000000000E+00 0. -1.
         -1    1    6    6    0  503 -0.26644772437E+03  0.10439716115E+03  0.74133851524E+03  0.79465461130E+03  0.00000000000E+00 0.  1.
<mgrwt>
<rscale>  0 0.49215033E+03</rscale>
<asrwt>0</asrwt>
<pdfrwt beam="1">  1        1 0.23298377E+00 0.49215033E+03</pdfrwt>
<pdfrwt beam="2">  1       -1 0.68754201E-01 0.49215033E+03</pdfrwt>
<totfact> 0.14840981E+01</totfact>
</mgrwt>
</event>
<event>
12    1  0.3203156E-008  0.1138487E+04  0.7818608E-02  0.9168471E-01
         -1   -1    0    0    0  501 -0.00000000000E+00  0.00000000000E+00  0.15480208055E+04  0.15480208055E+04  0.00000000000E+00 0.  1.
          1   -1    0    0  501    0  0.00000000000E+00 -0.00000000000E+00 -0.13510977393E+04  0.13510977393E+04  0.00000000000E+00 0. -1.
         23    2    1    2    0    0 -0.38584452783E+03  0.99433918788E+03  0.97601551222E+03  0.14482864092E+04  0.85678600953E+02 0.  0.
    5000000    2    1    2    0    0  0.38584452783E+03 -0.99433918788E+03 -0.77909244608E+03  0.14508321357E+04  0.60028528729E+03 0.  0.
         23    2    4    4    0    0  0.32086748516E+03 -0.14441443095E+03 -0.28881151181E+03  0.46409918985E+03  0.90357610459E+02 0.  0.
         23    2    4    4    0    0  0.64977042670E+02 -0.84992475693E+03 -0.49028093427E+03  0.98673294581E+03  0.81684780298E+02 0.  0.
          5    1    3    3  502    0 -0.26211183639E+03  0.75568537652E+03  0.76068085942E+03  0.11038208473E+04  0.47000000000E+01 0. -1.
         -5    1    3    3    0  502 -0.12373269144E+03  0.23865381136E+03  0.21533465280E+03  0.34446556186E+03  0.47000000000E+01 0.  1.
         11    1    5    5    0    0  0.26573935752E+03 -0.13294307748E+03 -0.27769966591E+03  0.40670428130E+03  0.00000000000E+00 0. -1.
        -11    1    5    5    0    0  0.55128127645E+02 -0.11471353473E+02 -0.11111845896E+02  0.57394908549E+02  0.00000000000E+00 0.  1.
          1    1    6    6  503    0  0.77134523004E+02 -0.66186470711E+03 -0.40603280937E+03  0.78030588069E+03  0.00000000000E+00 0. -1.
         -1    1    6    6    0  503 -0.12157480334E+02 -0.18806004982E+03 -0.84248124898E+02  0.20642706513E+03  0.00000000000E+00 0.  1.
<mgrwt>
<rscale>  0 0.11384867E+04</rscale>
<asrwt>0</asrwt>
<pdfrwt beam="1">  1        1 0.20786119E+00 0.11384867E+04</pdfrwt>
<pdfrwt beam="2">  1       -1 0.23815705E+00 0.11384867E+04</pdfrwt>
<totfact> 0.68562728E-01</totfact>
</mgrwt>
</event>
<event>
12    1  0.3203156E-008  0.7430079E+03  0.7818608E-02  0.9646384E-01
         -2   -1    0    0    0  501 -0.00000000000E+00  0.00000000000E+00  0.49843757195E+03  0.49843757195E+03  0.00000000000E+00 0.  1.
          2   -1    0    0  501    0  0.00000000000E+00 -0.00000000000E+00 -0.14626000803E+04  0.14626000803E+04  0.00000000000E+00 0. -1.
         23    2    1    2    0    0  0.68061708550E+03  0.54693510256E+02 -0.76565579876E+03  0.10299342284E+04  0.91130211863E+02 0.  0.
    5000000    2    1    2    0    0 -0.68061708550E+03 -0.54693510256E+02 -0.19850670963E+03  0.93110342390E+03  0.60109705962E+03 0.  0.
         23    2    4    4    0    0 -0.45595992946E+03 -0.22131344448E+03 -0.32647364085E+03  0.60989229417E+03  0.92219706915E+02 0.  0.
         23    2    4    4    0    0 -0.22465715604E+03  0.16661993422E+03  0.12796693122E+03  0.32121112973E+03  0.92563568075E+02 0.  0.
          5    1    3    3  502    0  0.31509919503E+03  0.41258880880E+02 -0.41965599052E+03  0.52642476987E+03  0.47000000000E+01 0. -1.
         -5    1    3    3    0  502  0.36551789047E+03  0.13434629376E+02 -0.34599980824E+03  0.50350945853E+03  0.47000000000E+01 0.  1.
         11    1    5    5    0    0 -0.24472277187E+03 -0.14627059723E+03 -0.22794073663E+03  0.36502233096E+03  0.00000000000E+00 0. -1.
        -11    1    5    5    0    0 -0.21123715759E+03 -0.75042847248E+02 -0.98532904224E+02  0.24486996322E+03  0.00000000000E+00 0.  1.
          4    1    6    6  503    0 -0.55599268295E+02  0.93817534990E+02  0.63416961667E+02  0.12615355537E+03  0.00000000000E+00 0. -1.
         -4    1    6    6    0  503 -0.16905788775E+03  0.72802399231E+02  0.64549969549E+02  0.19505757435E+03  0.00000000000E+00 0.  1.
<mgrwt>
<rscale>  0 0.74300790E+03</rscale>
<asrwt>0</asrwt>
<pdfrwt beam="1">  1        2 0.22501540E+00 0.74300790E+03</pdfrwt>
<pdfrwt beam="2">  1       -2 0.76682704E-01 0.74300790E+03</pdfrwt>
<totfact> 0.20746578E+01</totfact>
</mgrwt>
</event>
<event>
12    1  0.3203156E-008  0.4990579E+03  0.7818608E-02  0.1014025E+00
         -2   -1    0    0    0  501 -0.00000000000E+00  0.00000000000E+00  0.11832820405E+03  0.11832820405E+03  0.00000000000E+00 0.  1.
          2   -1    0    0  501    0  0.00000000000E+00 -0.00000000000E+00 -0.30038659507E+04  0.30038659507E+04  0.00000000000E+00 0. -1.
         23    2    1    2    0    0  0.21618825279E+03  0.25811214534E+03 -0.18246764567E+04  0.18577933659E+04  0.92697241129E+02 0.  0.
    5000000    2    1    2    0    0 -0.21618825279E+03 -0.25811214534E+03 -0.10608612900E+04  0.12644007889E+04  0.59993619507E+03 0.  0.
         23    2    4    4    0    0  0.51442960707E+02  0.14712582981E+03 -0.40289581803E+03  0.44154870467E+03  0.91366462148E+02 0.  0.
         23    2    4    4    0    0 -0.26763121349E+03 -0.40523797515E+03 -0.65796547195E+03  0.82285208422E+03  0.91228873101E+02 0.  0.
          5    1    3    3  502    0  0.16661282514E+02  0.55396600241E+02 -0.46998807965E+03  0.47355809217E+03  0.47000000000E+01 0. -1.
         -5    1    3    3    0  502  0.19952697027E+03  0.20271554509E+03 -0.13546883771E+04  0.13842352737E+04  0.47000000000E+01 0.  1.
         11    1    5    5    0    0  0.12837678363E+02  0.12124946617E+03 -0.20722144389E+03  0.24043079221E+03  0.00000000000E+00 0. -1.
        -11    1    5    5    0    0  0.38605282344E+02  0.25876363647E+02 -0.19567437413E+03  0.20111791246E+03  0.00000000000E+00 0.  1.
          3    1    6    6  503    0 -0.20358717792E+03 -0.27600812754E+03 -0.52232542128E+03  0.62486164165E+03  0.00000000000E+00 0. -1.
         -3    1    6    6    0  503 -0.64044035575E+02 -0.12922984761E+03 -0.13564005066E+03  0.19799044257E+03  0.00000000000E+00 0.  1.
<mgrwt>
<rscale>  0 0.49905794E+03</rscale>
<asrwt>0</asrwt>
<pdfrwt beam="1">  1        2 0.46213323E+00 0.49905794E+03</pdfrwt>
<pdfrwt beam="2">  1       -2 0.18204339E-01 0.49905794E+03</pdfrwt>
<totfact> 0.48095614E+01</totfact>
</mgrwt>
</event>
<event>
12    1  0.3203156E-008  0.8179356E+03  0.7818608E-02  0.9534413E-01
         -2   -1    0    0    0  501 -0.00000000000E+00  0.00000000000E+00  0.48126455855E+03  0.48126455855E+03  0.00000000000E+00 0.  1.
          2   -1    0    0  501    0  0.00000000000E+00 -0.00000000000E+00 -0.21714770631E+04  0.21714770631E+04  0.00000000000E+00 0. -1.
         23    2    1    2    0    0 -0.64347450957E+03 -0.38455515624E+03 -0.14923453697E+04  0.16724560019E+04  0.89845773674E+02 0.  0.
    5000000    2    1    2    0    0  0.64347450957E+03  0.38455515624E+03 -0.19786713490E+03  0.98028561984E+03  0.59988864027E+03 0.  0.
         23    2    4    4    0    0 -0.41940986696E+02  0.10569540238E+03 -0.18535906102E+03  0.23453906222E+03  0.87863677121E+02 0.  0.
         23    2    4    4    0    0  0.68541549627E+03  0.27885975386E+03 -0.12508073877E+02  0.74574655761E+03  0.91784047795E+02 0.  0.
          5    1    3    3  502    0 -0.41485984031E+03 -0.29228328483E+03 -0.96520888533E+03  0.10904991921E+04  0.47000000000E+01 0. -1.
         -5    1    3    3    0  502 -0.22861466926E+03 -0.92271871415E+02 -0.52713648436E+03  0.58195680973E+03  0.47000000000E+01 0.  1.
         13    1    5    5    0    0 -0.62053413648E+02  0.10446597015E+03 -0.14313559758E+03  0.18775399958E+03  0.00000000000E+00 0.  1.
        -13    1    5    5    0    0  0.20112426952E+02  0.12294322328E+01 -0.42223463445E+02  0.46785062646E+02  0.00000000000E+00 0. -1.
          3    1    6    6  503    0  0.31308847956E+03  0.11906723727E+03 -0.50710566830E+02  0.33878158836E+03  0.00000000000E+00 0. -1.
         -3    1    6    6    0  503  0.37232701671E+03  0.15979251659E+03  0.38202492953E+02  0.40696496925E+03  0.00000000000E+00 0.  1.
<mgrwt>
<rscale>  0 0.81793560E+03</rscale>
<asrwt>0</asrwt>
<pdfrwt beam="1">  1        2 0.33407339E+00 0.81793560E+03</pdfrwt>
<pdfrwt beam="2">  1       -2 0.74040702E-01 0.81793560E+03</pdfrwt>
<totfact> 0.90604188E+00</totfact>
</mgrwt>
</event>
<event>
12    1  0.3203156E-008  0.6859657E+03  0.7818608E-02  0.9741538E-01
         -1   -1    0    0    0  501 -0.00000000000E+00  0.00000000000E+00  0.63747805524E+03  0.63747805524E+03  0.00000000000E+00 0.  1.
          1   -1    0    0  501    0  0.00000000000E+00 -0.00000000000E+00 -0.10647019739E+04  0.10647019739E+04  0.00000000000E+00 0. -1.
         23    2    1    2    0    0  0.66278410757E+03 -0.38599567004E+02 -0.44989115479E+03  0.80707969673E+03  0.90569784627E+02 0.  0.
    5000000    2    1    2    0    0 -0.66278410757E+03  0.38599567004E+02  0.22667236087E+02  0.89510033246E+03  0.59993174759E+03 0.  0.
         23    2    4    4    0    0 -0.30052066096E+03 -0.92138285419E+02  0.27456678341E+03  0.42595845845E+03  0.85156082979E+02 0.  0.
         23    2    4    4    0    0 -0.36226344661E+03  0.13073785242E+03 -0.25189954733E+03  0.46914187401E+03  0.91178534765E+02 0.  0.
          5    1    3    3  502    0  0.14502438098E+03  0.15533339587E+02 -0.65559366010E+02  0.15997961179E+03  0.47000000000E+01 0. -1.
         -5    1    3    3    0  502  0.51775972659E+03 -0.54132906590E+02 -0.38433178878E+03  0.64710008494E+03  0.47000000000E+01 0.  1.
         11    1    5    5    0    0 -0.26903296100E+03 -0.76161685224E+02  0.20099358404E+03  0.34435121203E+03  0.00000000000E+00 0. -1.
        -11    1    5    5    0    0 -0.31487699960E+02 -0.15976600194E+02  0.73573199374E+02  0.81607246423E+02  0.00000000000E+00 0.  1.
          1    1    6    6  503    0 -0.29392180056E+03  0.77818565614E+02 -0.16233423052E+03  0.34467108436E+03  0.00000000000E+00 0. -1.
         -1    1    6    6    0  503 -0.68341646055E+02  0.52919286808E+02 -0.89565316804E+02  0.12447078965E+03  0.00000000000E+00 0.  1.
<mgrwt>
<rscale>  0 0.68596573E+03</rscale>
<asrwt>0</asrwt>
<pdfrwt beam="1">  1        1 0.16380030E+00 0.68596573E+03</pdfrwt>
<pdfrwt beam="2">  1       -1 0.98073547E-01 0.68596573E+03</pdfrwt>
<totfact> 0.13983309E+01</totfact>
</mgrwt>
</event>
<event>
12    1  0.3203156E-008  0.8207790E+03  0.7818608E-02  0.9530418E-01
         -1   -1    0    0    0  501 -0.00000000000E+00  0.00000000000E+00  0.10223445104E+04  0.10223445104E+04  0.00000000000E+00 0.  1.
          1   -1    0    0  501    0  0.00000000000E+00 -0.00000000000E+00 -0.98336679757E+03  0.98336679757E+03  0.00000000000E+00 0. -1.
         23    2    1    2    0    0  0.53188412306E+03  0.53111898311E+03  0.53183963692E+03  0.92509951441E+03  0.89261512233E+02 0.  0.
    5000000    2    1    2    0    0 -0.53188412306E+03 -0.53111898311E+03 -0.49286192409E+03  0.10806117936E+04  0.59985071274E+03 0.  0.
         23    2    4    4    0    0 -0.14196459048E+03  0.64567161635E+02  0.41867182427E+02  0.18559745579E+03  0.91491482234E+02 0.  0.
         23    2    4    4    0    0 -0.38991953259E+03 -0.59568614475E+03 -0.53472910652E+03  0.89501433777E+03  0.90753636368E+02 0.  0.
          5    1    3    3  502    0  0.31860321470E+03  0.32034174429E+03  0.37201938847E+03  0.58527545391E+03  0.47000000000E+01 0. -1.
         -5    1    3    3    0  502  0.21328090836E+03  0.21077723883E+03  0.15982024845E+03  0.33982406050E+03  0.47000000000E+01 0.  1.
         13    1    5    5    0    0 -0.56228208450E+02  0.69438798753E+02 -0.15671006977E+01  0.89363381776E+02  0.00000000000E+00 0. -1.
        -13    1    5    5    0    0 -0.85736382025E+02 -0.48716371188E+01  0.43434283125E+02  0.96234074016E+02  0.00000000000E+00 0.  1.
          4    1    6    6  503    0 -0.33760538304E+03 -0.47197482579E+03 -0.40019180614E+03  0.70490503796E+03  0.00000000000E+00 0. -1.
         -4    1    6    6    0  503 -0.52314149551E+02 -0.12371131896E+03 -0.13453730038E+03  0.19010929981E+03  0.00000000000E+00 0.  1.
<mgrwt>
<rscale>  0 0.82077897E+03</rscale>
<asrwt>0</asrwt>
<pdfrwt beam="1">  1        1 0.15128720E+00 0.82077897E+03</pdfrwt>
<pdfrwt beam="2">  1       -1 0.15728377E+00 0.82077897E+03</pdfrwt>
<totfact> 0.49024751E+00</totfact>
</mgrwt>
</event>
<event>
12    1  0.3203156E-008  0.9491630E+03  0.7818608E-02  0.9366129E-01
          2   -1    0    0  501    0  0.00000000000E+00  0.00000000000E+00  0.16961190431E+04  0.16961190431E+04  0.00000000000E+00 0. -1.
         -2   -1    0    0    0  501 -0.00000000000E+00 -0.00000000000E+00 -0.63108214680E+03  0.63108214680E+03  0.00000000000E+00 0.  1.
         23    2    1    2    0    0 -0.96671303986E+02  0.85453782102E+03  0.92876920186E+03  0.12696026398E+04  0.98480476229E+02 0.  0.
    5000000    2    1    2    0    0  0.96671303986E+02 -0.85453782102E+03  0.13626769443E+03  0.10575985500E+04  0.60030457264E+03 0.  0.
         23    2    4    4    0    0  0.14216842630E+03  0.17989534748E+02  0.37106048942E+02  0.17323434194E+03  0.89987741176E+02 0.  0.
         23    2    4    4    0    0 -0.45497122310E+02 -0.87252735577E+03  0.99161645486E+02  0.88436420810E+03  0.94302947639E+02 0.  0.
          5    1    3    3  502    0 -0.98001116082E+02  0.57082482417E+03  0.57566897975E+03  0.81661622742E+03  0.47000000000E+01 0. -1.
         -5    1    3    3    0  502  0.13298120967E+01  0.28371299685E+03  0.35310022211E+03  0.45298641242E+03  0.47000000000E+01 0.  1.
         13    1    5    5    0    0  0.11130961594E+02 -0.21932659633E+02  0.26016581284E+02  0.35802267614E+02  0.00000000000E+00 0. -1.
        -13    1    5    5    0    0  0.13103746470E+03  0.39922194381E+02  0.11089467658E+02  0.13743207432E+03  0.00000000000E+00 0.  1.
          3    1    6    6  503    0 -0.22954142291E+02 -0.55192806963E+03  0.10794612501E+03  0.56285331357E+03  0.00000000000E+00 0. -1.
         -3    1    6    6    0  503 -0.22542980019E+02 -0.32059928614E+03 -0.87844795278E+01  0.32151089453E+03  0.00000000000E+00 0.  1.
<mgrwt>
<rscale>  0 0.94916297E+03</rscale>
<asrwt>0</asrwt>
<pdfrwt beam="1">  1        2 0.26094139E+00 0.94916297E+03</pdfrwt>
<pdfrwt beam="2">  1       -2 0.97089562E-01 0.94916297E+03</pdfrwt>
<totfact> 0.87539645E+00</totfact>
</mgrwt>
</event>
<event>
12    1  0.3203156E-008  0.9713885E+03  0.7818608E-02  0.9340494E-01
         -2   -1    0    0    0  501 -0.00000000000E+00  0.00000000000E+00  0.64310591885E+03  0.64310591885E+03  0.00000000000E+00 0.  1.
          2   -1    0    0  501    0  0.00000000000E+00 -0.00000000000E+00 -0.18119426677E+04  0.18119426677E+04  0.00000000000E+00 0. -1.
         23    2    1    2    0    0 -0.74085082220E+03 -0.60054844600E+03 -0.22216147308E+03  0.98343262388E+03  0.90915503930E+02 0.  0.
    5000000    2    1    2    0    0  0.74085082220E+03  0.60054844600E+03 -0.94667527577E+03  0.14716159627E+04  0.59995090387E+03 0.  0.
         23    2    4    4    0    0  0.63639077846E+03  0.45288881779E+03 -0.99045034148E+03  0.12648127124E+04  0.93047377397E+02 0.  0.
         23    2    4    4    0    0  0.10446004374E+03  0.14765962821E+03  0.43775065706E+02  0.20680325021E+03  0.90200118524E+02 0.  0.
          5    1    3    3  502    0 -0.62630005320E+03 -0.47482347482E+03 -0.15861480551E+03  0.80180411287E+03  0.47000000000E+01 0. -1.
         -5    1    3    3    0  502 -0.11455076899E+03 -0.12572497117E+03 -0.63546667571E+02  0.18162851101E+03  0.47000000000E+01 0.  1.
         11    1    5    5    0    0  0.31591217186E+03  0.17869687528E+03 -0.50202866832E+03  0.61948838357E+03  0.00000000000E+00 0.  1.
        -11    1    5    5    0    0  0.32047860660E+03  0.27419194251E+03 -0.48842167316E+03  0.64532432887E+03  0.00000000000E+00 0. -1.
          1    1    6    6  503    0  0.55217438644E+02  0.10482878067E+02  0.15955490504E+02  0.58424600471E+02  0.00000000000E+00 0. -1.
         -1    1    6    6    0  503  0.49242605095E+02  0.13717675014E+03  0.27819575202E+02  0.14837864974E+03  0.00000000000E+00 0.  1.
<mgrwt>
<rscale>  0 0.97138846E+03</rscale>
<asrwt>0</asrwt>
<pdfrwt beam="1">  1        2 0.27876041E+00 0.97138846E+03</pdfrwt>
<pdfrwt beam="2">  1       -2 0.98939374E-01 0.97138846E+03</pdfrwt>
<totfact> 0.72102952E+00</totfact>
</mgrwt>
</event>
<event>
12    1  0.3203156E-008  0.5234492E+03  0.7818608E-02  0.1007833E+00
          1   -1    0    0  501    0  0.00000000000E+00  0.00000000000E+00  0.24966972186E+04  0.24966972186E+04  0.00000000000E+00 0. -1.
         -1   -1    0    0    0  501 -0.00000000000E+00 -0.00000000000E+00 -0.33462943510E+03  0.33462943510E+03  0.00000000000E+00 0.  1.
         23    2    1    2    0    0  0.28896013078E+03 -0.21646351423E+03 -0.16059283069E+03  0.40543865756E+03  0.90752617616E+02 0.  0.
    5000000    2    1    2    0    0 -0.28896013078E+03  0.21646351423E+03  0.23226606142E+04  0.24258879962E+04  0.59985484155E+03 0.  0.
         23    2    4    4    0    0 -0.38884459343E+03 -0.29519127440E+02  0.16343854511E+04  0.16825092742E+04  0.86891645744E+02 0.  0.
         23    2    4    4    0    0  0.99884462645E+02  0.24598264167E+03  0.68827516308E+03  0.74337872198E+03  0.91678014295E+02 0.  0.
          5    1    3    3  502    0  0.62351744338E+02 -0.82407188493E+02 -0.77669838806E+02  0.12935756104E+03  0.47000000000E+01 0. -1.
         -5    1    3    3    0  502  0.22660838644E+03 -0.13405632573E+03 -0.82922991887E+02  0.27608109653E+03  0.47000000000E+01 0.  1.
         11    1    5    5    0    0 -0.94184966062E+02 -0.44585042912E+02  0.45466063756E+03  0.46644927830E+03  0.00000000000E+00 0. -1.
        -11    1    5    5    0    0 -0.29465962736E+03  0.15065915472E+02  0.11797248136E+04  0.12160599959E+04  0.00000000000E+00 0.  1.
          3    1    6    6  503    0 -0.31257015435E+01  0.11114068631E+03  0.27356759197E+03  0.29529857693E+03  0.00000000000E+00 0. -1.
         -3    1    6    6    0  503  0.10301016419E+03  0.13484195536E+03  0.41470757111E+03  0.44808014505E+03  0.00000000000E+00 0.  1.
<mgrwt>
<rscale>  0 0.52344917E+03</rscale>
<asrwt>0</asrwt>
<pdfrwt beam="1">  1        1 0.38410725E+00 0.52344917E+03</pdfrwt>
<pdfrwt beam="2">  1       -1 0.51481453E-01 0.52344917E+03</pdfrwt>
<totfact> 0.57429301E+00</totfact>
</mgrwt>
</event>
<event>
12    1  0.3203156E-008  0.6882714E+03  0.7818608E-02  0.9737502E-01
          2   -1    0    0  501    0  0.00000000000E+00  0.00000000000E+00  0.24806069701E+04  0.24806069701E+04  0.00000000000E+00 0. -1.
         -2   -1    0    0    0  501 -0.00000000000E+00 -0.00000000000E+00 -0.38683132250E+03  0.38683132250E+03  0.00000000000E+00 0.  1.
         23    2    1    2    0    0 -0.55246486738E+03 -0.15718342704E+03  0.19366027459E+04  0.20221445052E+04  0.93349585478E+02 0.  0.
    5000000    2    1    2    0    0  0.55246486738E+03  0.15718342704E+03  0.15717290169E+03  0.84529378738E+03  0.59991183229E+03 0.  0.
         23    2    4    4    0    0 -0.40549461613E+02 -0.12138103033E+03  0.90014890679E+02  0.18113141119E+03  0.91259488353E+02 0.  0.
         23    2    4    4    0    0  0.59301432900E+03  0.27856445737E+03  0.67158011009E+02  0.66416237619E+03  0.85658112263E+02 0.  0.
          5    1    3    3  502    0 -0.19144726276E+03 -0.68797445005E+02  0.83839397954E+03  0.86273501018E+03  0.47000000000E+01 0. -1.
         -5    1    3    3    0  502 -0.36101760462E+03 -0.88385982037E+02  0.10982087663E+04  0.11594094950E+04  0.47000000000E+01 0.  1.
         11    1    5    5    0    0 -0.31700087643E+02 -0.16994783771E+02  0.63640870383E+02  0.73101837290E+02  0.00000000000E+00 0.  1.
        -11    1    5    5    0    0 -0.88493739697E+01 -0.10438624656E+03  0.26374020296E+02  0.10802957390E+03  0.00000000000E+00 0. -1.
          2    1    6    6  503    0  0.40065789905E+03  0.14351310570E+03  0.36682219230E+02  0.42716314072E+03  0.00000000000E+00 0. -1.
         -2    1    6    6    0  503  0.19235642994E+03  0.13505135167E+03  0.30475791779E+02  0.23699923547E+03  0.00000000000E+00 0.  1.
<mgrwt>
<rscale>  0 0.68827144E+03</rscale>
<asrwt>0</asrwt>
<pdfrwt beam="1">  1        2 0.38163183E+00 0.68827144E+03</pdfrwt>
<pdfrwt beam="2">  1       -2 0.59512513E-01 0.68827144E+03</pdfrwt>
<totfact> 0.99718801E+00</totfact>
</mgrwt>
</event>
<event>
12    1  0.3203156E-008  0.1130725E+04  0.7818608E-02  0.9175752E-01
          2   -1    0    0  501    0  0.00000000000E+00  0.00000000000E+00  0.29728720903E+04  0.29728720903E+04  0.00000000000E+00 0. -1.
         -2   -1    0    0    0  501 -0.00000000000E+00 -0.00000000000E+00 -0.50448315141E+03  0.50448315141E+03  0.00000000000E+00 0.  1.
         23    2    1    2    0    0 -0.10468269576E+04  0.15307991703E+03  0.17987227755E+04  0.20887815481E+04  0.91239203840E+02 0.  0.
    5000000    2    1    2    0    0  0.10468269576E+04 -0.15307991703E+03  0.66966616338E+03  0.13885736936E+04  0.60033656573E+03 0.  0.
         23    2    4    4    0    0  0.91173238716E+03  0.82733429286E+02  0.43022188816E+03  0.10152564781E+04  0.86914194588E+02 0.  0.
         23    2    4    4    0    0  0.13509457044E+03 -0.23581334631E+03  0.23944427522E+03  0.37331721551E+03  0.90408546048E+02 0.  0.
          5    1    3    3  502    0 -0.81508438620E+03  0.15691964573E+03  0.14061179551E+04  0.16328429580E+04  0.47000000000E+01 0. -1.
         -5    1    3    3    0  502 -0.23174257139E+03 -0.38397287010E+01  0.39260482041E+03  0.45593859008E+03  0.47000000000E+01 0.  1.
         13    1    5    5    0    0  0.68818194960E+03  0.57108766762E+02  0.28257462596E+03  0.74612614633E+03  0.00000000000E+00 0. -1.
        -13    1    5    5    0    0  0.22355043755E+03  0.25624662524E+02  0.14764726220E+03  0.26913033180E+03  0.00000000000E+00 0.  1.
          1    1    6    6  503    0  0.86805495895E+02 -0.21414947123E+03  0.17463093617E+03  0.28963969689E+03  0.00000000000E+00 0. -1.
         -1    1    6    6    0  503  0.48289074540E+02 -0.21663875081E+02  0.64813339046E+02  0.83677518616E+02  0.00000000000E+00 0.  1.
<mgrwt>
<rscale>  0 0.11307245E+04</rscale>
<asrwt>0</asrwt>
<pdfrwt beam="1">  1        2 0.45736493E+00 0.11307245E+04</pdfrwt>
<pdfrwt beam="2">  1       -2 0.77612794E-01 0.11307245E+04</pdfrwt>
<totfact> 0.26847453E+00</totfact>
</mgrwt>
</event>
<event>
12    1  0.3203156E-008  0.8591440E+03  0.7818608E-02  0.9478146E-01
          1   -1    0    0  501    0  0.00000000000E+00  0.00000000000E+00  0.67823743610E+03  0.67823743610E+03  0.00000000000E+00 0. -1.
         -1   -1    0    0    0  501 -0.00000000000E+00 -0.00000000000E+00 -0.11719589941E+04  0.11719589941E+04  0.00000000000E+00 0.  1.
         23    2    1    2    0    0 -0.53192641951E+03 -0.57896635144E+03 -0.17218966254E+03  0.81017857356E+03  0.92694602353E+02 0.  0.
    5000000    2    1    2    0    0  0.53192641951E+03  0.57896635144E+03 -0.32153189546E+03  0.10400178566E+04  0.60008885212E+03 0.  0.
         23    2    4    4    0    0  0.51845595556E+03  0.21798665263E+03 -0.35842929232E+02  0.57083710646E+03  0.90859935965E+02 0.  0.
         23    2    4    4    0    0  0.13470463950E+02  0.36097969881E+03 -0.28568896623E+03  0.46918075016E+03  0.89580101277E+02 0.  0.
          5    1    3    3  502    0 -0.43137530668E+03 -0.46295037303E+03 -0.10069581110E+03  0.64075692698E+03  0.47000000000E+01 0. -1.
         -5    1    3    3    0  502 -0.10055111283E+03 -0.11601597841E+03 -0.71493851432E+02  0.16942164658E+03  0.47000000000E+01 0.  1.
         13    1    5    5    0    0  0.69808433011E+02  0.53362962567E+01 -0.24629700793E+02  0.74218027044E+02  0.00000000000E+00 0.  1.
        -13    1    5    5    0    0  0.44864752255E+03  0.21265035637E+03 -0.11213228439E+02  0.49661907942E+03  0.00000000000E+00 0. -1.
          1    1    6    6  503    0  0.32455678009E+02  0.29355171190E+03 -0.19225271998E+03  0.35240188270E+03  0.00000000000E+00 0. -1.
         -1    1    6    6    0  503 -0.18985214058E+02  0.67427986915E+02 -0.93436246248E+02  0.11677886746E+03  0.00000000000E+00 0.  1.
<mgrwt>
<rscale>  0 0.85914397E+03</rscale>
<asrwt>0</asrwt>
<pdfrwt beam="1">  1        1 0.10434422E+00 0.85914397E+03</pdfrwt>
<pdfrwt beam="2">  1       -1 0.18030138E+00 0.85914397E+03</pdfrwt>
<totfact> 0.60328605E+00</totfact>
</mgrwt>
</event>
<event>
12    1  0.3203156E-008  0.5197768E+03  0.7818608E-02  0.1008742E+00
          1   -1    0    0  501    0  0.00000000000E+00  0.00000000000E+00  0.64148891503E+03  0.64148891503E+03  0.00000000000E+00 0. -1.
         -1   -1    0    0    0  501 -0.00000000000E+00 -0.00000000000E+00 -0.65883165069E+03  0.65883165069E+03  0.00000000000E+00 0.  1.
         23    2    1    2    0    0 -0.12755055654E+03  0.47485289664E+03 -0.12897577828E+03  0.51659735141E+03  0.92106754271E+02 0.  0.
    5000000    2    1    2    0    0  0.12755055654E+03 -0.47485289664E+03  0.11163304261E+03  0.78372321431E+03  0.60000476875E+03 0.  0.
         23    2    4    4    0    0  0.65583060395E+02 -0.42535690033E+03  0.31835568970E+03  0.54313583335E+03  0.91741799829E+02 0.  0.
         23    2    4    4    0    0  0.61967496141E+02 -0.49495996313E+02 -0.20672264709E+03  0.24058738095E+03  0.94118068528E+02 0.  0.
          5    1    3    3  502    0 -0.71410777157E+02  0.29658127486E+03 -0.34254391931E+02  0.30701043151E+03  0.47000000000E+01 0. -1.
         -5    1    3    3    0  502 -0.56139779379E+02  0.17827162178E+03 -0.94721386345E+02  0.20958691990E+03  0.47000000000E+01 0.  1.
         11    1    5    5    0    0  0.69632664755E+02 -0.16043656760E+03  0.13473531256E+03  0.22077636802E+03  0.00000000000E+00 0.  1.
        -11    1    5    5    0    0 -0.40496043598E+01 -0.26492033273E+03  0.18362037714E+03  0.32235946533E+03  0.00000000000E+00 0. -1.
          4    1    6    6  503    0  0.17525810033E+02 -0.59559611578E+02 -0.57712337838E+02  0.84765649218E+02  0.00000000000E+00 0.  1.
         -4    1    6    6    0  503  0.44441686108E+02  0.10063615266E+02 -0.14901030926E+03  0.15582173173E+03  0.00000000000E+00 0. -1.
<mgrwt>
<rscale>  0 0.51977679E+03</rscale>
<asrwt>0</asrwt>
<pdfrwt beam="1">  1        1 0.98690603E-01 0.51977679E+03</pdfrwt>
<pdfrwt beam="2">  1       -1 0.10135871E+00 0.51977679E+03</pdfrwt>
<totfact> 0.30239279E+01</totfact>
</mgrwt>
</event>
<event>
12    1  0.3203156E-008  0.8977302E+03  0.7818608E-02  0.9428423E-01
          2   -1    0    0  501    0  0.00000000000E+00  0.00000000000E+00  0.30257668061E+04  0.30257668061E+04  0.00000000000E+00 0. -1.
         -2   -1    0    0    0  501 -0.00000000000E+00 -0.00000000000E+00 -0.80804553218E+03  0.80804553218E+03  0.00000000000E+00 0.  1.
         23    2    1    2    0    0 -0.52800704238E+03 -0.60047050220E+03 -0.49363979377E+03  0.94404581838E+03  0.90476518423E+02 0.  0.
    5000000    2    1    2    0    0  0.52800704238E+03  0.60047050220E+03  0.27113610677E+04  0.28897665199E+04  0.59992952859E+03 0.  0.
         23    2    4    4    0    0 -0.37187140242E+02  0.36584076806E+03  0.10707194912E+04  0.11362048042E+04  0.96430167778E+02 0.  0.
         23    2    4    4    0    0  0.56519418262E+03  0.23462973415E+03  0.16406415765E+04  0.17535617157E+04  0.93692753417E+02 0.  0.
          5    1    3    3  502    0 -0.27194889931E+03 -0.24904884408E+03 -0.20228670861E+03  0.42062279189E+03  0.47000000000E+01 0.  1.
         -5    1    3    3    0  502 -0.25605814307E+03 -0.35142165812E+03 -0.29135308516E+03  0.52342302649E+03  0.47000000000E+01 0.  1.
         13    1    5    5    0    0 -0.53955011517E+02  0.21892896375E+03  0.53787546489E+03  0.58322469955E+03  0.00000000000E+00 0. -1.
        -13    1    5    5    0    0  0.16767871275E+02  0.14691180431E+03  0.53284402634E+03  0.55298010467E+03  0.00000000000E+00 0.  1.
          2    1    6    6  503    0  0.47329269617E+03  0.15842631814E+03  0.12924469059E+04  0.13854688300E+04  0.00000000000E+00 0. -1.
         -2    1    6    6    0  503  0.91901486455E+02  0.76203416001E+02  0.34819467063E+03  0.36809288566E+03  0.00000000000E+00 0.  1.
<mgrwt>
<rscale>  0 0.89773016E+03</rscale>
<asrwt>0</asrwt>
<pdfrwt beam="1">  1        2 0.46550258E+00 0.89773016E+03</pdfrwt>
<pdfrwt beam="2">  1       -2 0.12431470E+00 0.89773016E+03</pdfrwt>
<totfact> 0.84573623E-01</totfact>
</mgrwt>
</event>
<event>
12    1  0.3203156E-008  0.5476562E+03  0.7818608E-02  0.1002038E+00
          2   -1    0    0  501    0  0.00000000000E+00  0.00000000000E+00  0.32970807667E+03  0.32970807667E+03  0.00000000000E+00 0. -1.
         -2   -1    0    0    0  501 -0.00000000000E+00 -0.00000000000E+00 -0.10465798410E+04  0.10465798410E+04  0.00000000000E+00 0.  1.
         23    2    1    2    0    0 -0.23226535149E+03 -0.35945224110E+03 -0.25150869342E+03  0.50476137745E+03  0.91511300794E+02 0.  0.
    5000000    2    1    2    0    0  0.23226535149E+03  0.35945224110E+03 -0.46536307093E+03  0.87152654024E+03  0.59986883185E+03 0.  0.
         23    2    4    4    0    0 -0.93993600818E+02 -0.53304272593E+02  0.29636202145E+02  0.14283009416E+03  0.88577586606E+02 0.  0.
         23    2    4    4    0    0  0.32625895231E+03  0.41275651369E+03 -0.49499927308E+03  0.72869644608E+03  0.95715132699E+02 0.  0.
          5    1    3    3  502    0 -0.68368693780E+02 -0.75590513963E+02 -0.10265302900E+03  0.14473402659E+03  0.47000000000E+01 0. -1.
         -5    1    3    3    0  502 -0.16389665771E+03 -0.28386172713E+03 -0.14885566441E+03  0.36002735086E+03  0.47000000000E+01 0.  1.
         11    1    5    5    0    0  0.15748198104E+01 -0.41797316680E+02  0.19148562488E+02  0.46001773709E+02  0.00000000000E+00 0. -1.
        -11    1    5    5    0    0 -0.95568420629E+02 -0.11506955913E+02  0.10487639657E+02  0.96828320451E+02  0.00000000000E+00 0.  1.
          1    1    6    6  503    0  0.26998870086E+03  0.36205929783E+03 -0.37615865978E+03  0.58777221018E+03  0.00000000000E+00 0.  1.
         -1    1    6    6    0  503  0.56270251444E+02  0.50697215861E+02 -0.11884061330E+03  0.14092423589E+03  0.00000000000E+00 0. -1.
<mgrwt>
<rscale>  0 0.54765619E+03</rscale>
<asrwt>0</asrwt>
<pdfrwt beam="1">  1        2 0.50724320E-01 0.54765619E+03</pdfrwt>
<pdfrwt beam="2">  1       -2 0.16101228E+00 0.54765619E+03</pdfrwt>
<totfact> 0.25229859E+01</totfact>
</mgrwt>
</event>
<event>
12    1  0.3203156E-008  0.6010886E+03  0.7818608E-02  0.9903150E-01
         -2   -1    0    0    0  501 -0.00000000000E+00  0.00000000000E+00  0.19682534733E+03  0.19682534733E+03  0.00000000000E+00 0.  1.
          2   -1    0    0  501    0  0.00000000000E+00 -0.00000000000E+00 -0.23350506367E+04  0.23350506367E+04  0.00000000000E+00 0. -1.
         23    2    1    2    0    0  0.20099329872E+03 -0.50101658199E+03 -0.81278475498E+03  0.98002525576E+03  0.91730706104E+02 0.  0.
    5000000    2    1    2    0    0 -0.20099329872E+03  0.50101658199E+03 -0.13254405344E+04  0.15518507283E+04  0.60002679196E+03 0.  0.
         23    2    4    4    0    0  0.20692594610E+02  0.39407769835E+03 -0.33258718568E+03  0.52494350929E+03  0.96052256902E+02 0.  0.
         23    2    4    4    0    0 -0.22168589334E+03  0.10693888364E+03 -0.99285334874E+03  0.10269072190E+04  0.90554426785E+02 0.  0.
          5    1    3    3  502    0  0.12989054271E+03 -0.23903638882E+03 -0.34784522659E+03  0.44162013080E+03  0.47000000000E+01 0. -1.
         -5    1    3    3    0  502  0.71102756011E+02 -0.26198019317E+03 -0.46493952839E+03  0.53840512496E+03  0.47000000000E+01 0.  1.
         11    1    5    5    0    0  0.32826409198E+02  0.25326695655E+03 -0.26586067505E+03  0.36865108566E+03  0.00000000000E+00 0. -1.
        -11    1    5    5    0    0 -0.12133814588E+02  0.14081074180E+03 -0.66726510634E+02  0.15629242363E+03  0.00000000000E+00 0.  1.
          1    1    6    6  503    0 -0.71568128208E+02 -0.90873202617E+01 -0.24922058122E+03  0.25945225855E+03  0.00000000000E+00 0. -1.
         -1    1    6    6    0  503 -0.15011776513E+03  0.11602620390E+03 -0.74363276753E+03  0.76745496046E+03  0.00000000000E+00 0.  1.
<mgrwt>
<rscale>  0 0.60108860E+03</rscale>
<asrwt>0</asrwt>
<pdfrwt beam="1">  1        2 0.35923854E+00 0.60108860E+03</pdfrwt>
<pdfrwt beam="2">  1       -2 0.30280825E-01 0.60108860E+03</pdfrwt>
<totfact> 0.46251386E+01</totfact>
</mgrwt>
</event>
<event>
12    1  0.3203156E-008  0.6486127E+03  0.7818608E-02  0.9809386E-01
         -4   -1    0    0    0  501 -0.00000000000E+00  0.00000000000E+00  0.89233830372E+03  0.89233830372E+03  0.00000000000E+00 0.  1.
          4   -1    0    0  501    0  0.00000000000E+00 -0.00000000000E+00 -0.51037676970E+03  0.51037676970E+03  0.00000000000E+00 0. -1.
         23    2    1    2    0    0 -0.47026113118E+03 -0.21100423608E+03 -0.14158446447E+01  0.52364024463E+03  0.92351405131E+02 0.  0.
    5000000    2    1    2    0    0  0.47026113118E+03  0.21100423608E+03  0.38337737867E+03  0.87907482880E+03  0.60010500832E+03 0.  0.
         23    2    4    4    0    0  0.31377461660E+03 -0.17062659292E+03  0.19183058457E+03  0.41499899577E+03  0.88641125236E+02 0.  0.
         23    2    4    4    0    0  0.15648651458E+03  0.38163082900E+03  0.19154679409E+03  0.46407583303E+03  0.92445040862E+02 0.  0.
          5    1    3    3  502    0 -0.14368010802E+03 -0.48627041040E+02 -0.39755367959E+02  0.15687938629E+03  0.47000000000E+01 0. -1.
         -5    1    3    3    0  502 -0.32658102317E+03 -0.16237719504E+03  0.38339523314E+02  0.36676085834E+03  0.47000000000E+01 0.  1.
         11    1    5    5    0    0  0.35950658138E+02 -0.98848239393E+01  0.54144879019E+02  0.65740607609E+02  0.00000000000E+00 0. -1.
        -11    1    5    5    0    0  0.27782395846E+03 -0.16074176898E+03  0.13768570555E+03  0.34925838817E+03  0.00000000000E+00 0.  1.
          4    1    6    6  503    0 -0.87807551163E+01  0.62088730448E+02  0.34118276054E+02  0.71387455970E+02  0.00000000000E+00 0. -1.
         -4    1    6    6    0  503  0.16526726970E+03  0.31954209855E+03  0.15742851804E+03  0.39268837706E+03  0.00000000000E+00 0.  1.
<mgrwt>
<rscale>  0 0.64861275E+03</rscale>
<asrwt>0</asrwt>
<pdfrwt beam="1">  1        4 0.78519503E-01 0.64861275E+03</pdfrwt>
<pdfrwt beam="2">  1       -4 0.13728282E+00 0.64861275E+03</pdfrwt>
<totfact> 0.10666534E+00</totfact>
</mgrwt>
</event>
<event>
12    1  0.3203156E-008  0.1273825E+04  0.7818608E-02  0.9050584E-01
          2   -1    0    0  501    0  0.00000000000E+00  0.00000000000E+00  0.31466851355E+04  0.31466851355E+04  0.00000000000E+00 0. -1.
         -2   -1    0    0    0  501 -0.00000000000E+00 -0.00000000000E+00 -0.53330993472E+03  0.53330993472E+03  0.00000000000E+00 0.  1.
         23    2    1    2    0    0 -0.11831671084E+04  0.25802468966E+03  0.15014889781E+04  0.19298879012E+04  0.59472791252E+02 0.  0.
    5000000    2    1    2    0    0  0.11831671084E+04 -0.25802468966E+03  0.11118862226E+04  0.17501071690E+04  0.60010247784E+03 0.  0.
         23    2    4    4    0    0  0.11471515953E+03  0.14534050696E+03  0.18266998440E+03  0.27486169564E+03  0.88866178838E+02 0.  0.
         23    2    4    4    0    0  0.10684519489E+04 -0.40336519662E+03  0.92921623822E+03  0.14752454733E+04  0.92808083042E+02 0.  0.
          5    1    3    3  502    0 -0.92737877703E+03  0.22577034196E+03  0.11718454791E+04  0.15113727403E+04  0.47000000000E+01 0.  1.
         -5    1    3    3    0  502 -0.25578833139E+03  0.32254347702E+02  0.32964349906E+03  0.41851516089E+03  0.47000000000E+01 0. -1.
         13    1    5    5    0    0  0.78096049434E+02  0.12833305817E+03  0.17992048765E+03  0.23439229645E+03  0.00000000000E+00 0.  1.
        -13    1    5    5    0    0  0.36619110100E+02  0.17007448786E+02  0.27494967454E+01  0.40469399193E+02  0.00000000000E+00 0. -1.
          4    1    6    6  503    0  0.69976993213E+03 -0.22424883183E+03  0.62734418323E+03  0.96619160663E+03  0.00000000000E+00 0. -1.
         -4    1    6    6    0  503  0.36868201676E+03 -0.17911636479E+03  0.30187205499E+03  0.50905386670E+03  0.00000000000E+00 0.  1.
<mgrwt>
<rscale>  0 0.12738248E+04</rscale>
<asrwt>0</asrwt>
<pdfrwt beam="1">  1        2 0.48410540E+00 0.12738248E+04</pdfrwt>
<pdfrwt beam="2">  1       -2 0.82047684E-01 0.12738248E+04</pdfrwt>
<totfact> 0.18088504E+00</totfact>
</mgrwt>
</event>
<event>
12    1  0.3203156E-008  0.6448297E+03  0.7818608E-02  0.9816530E-01
          2   -1    0    0  501    0  0.00000000000E+00  0.00000000000E+00  0.15540081679E+04  0.15540081679E+04  0.00000000000E+00 0. -1.
         -2   -1    0    0    0  501 -0.00000000000E+00 -0.00000000000E+00 -0.70559887577E+03  0.70559887577E+03  0.00000000000E+00 0.  1.
         23    2    1    2    0    0 -0.59567635897E+03  0.72439313729E+02  0.11973870020E+04  0.13421535176E+04  0.86963517766E+02 0.  0.
    5000000    2    1    2    0    0  0.59567635897E+03 -0.72439313729E+02 -0.34897770993E+03  0.91745352603E+03  0.59988144794E+03 0.  0.
         23    2    4    4    0    0  0.58139815839E+03 -0.73000999093E+02 -0.47565314245E+03  0.76014875809E+03  0.90704233973E+02 0.  0.
         23    2    4    4    0    0  0.14278200584E+02  0.56168536383E+00  0.12667543253E+03  0.15730476794E+03  0.92162586270E+02 0.  0.
          5    1    3    3  502    0 -0.33254090014E+03  0.82653881273E+02  0.69671329310E+03  0.77643197843E+03  0.47000000000E+01 0. -1.
         -5    1    3    3    0  502 -0.26313545884E+03 -0.10214567544E+02  0.50067370892E+03  0.56572153918E+03  0.47000000000E+01 0.  1.
         13    1    5    5    0    0  0.12760005052E+03  0.17391265344E+02 -0.12615833907E+03  0.18027799511E+03  0.00000000000E+00 0.  1.
        -13    1    5    5    0    0  0.45379810787E+03 -0.90392264437E+02 -0.34949480338E+03  0.57987076298E+03  0.00000000000E+00 0. -1.
          1    1    6    6  503    0  0.46191566107E+02  0.24424299428E+02  0.59377979044E+02  0.79094573628E+02  0.00000000000E+00 0. -1.
         -1    1    6    6    0  503 -0.31913365523E+02 -0.23862614064E+02  0.67297453481E+02  0.78210194310E+02  0.00000000000E+00 0.  1.
<mgrwt>
<rscale>  0 0.64482967E+03</rscale>
<asrwt>0</asrwt>
<pdfrwt beam="1">  1        2 0.23907818E+00 0.64482967E+03</pdfrwt>
<pdfrwt beam="2">  1       -2 0.10855367E+00 0.64482967E+03</pdfrwt>
<totfact> 0.83702643E+00</totfact>
</mgrwt>
</event>
<event>
12    1  0.3203156E-008  0.1062946E+04  0.7818608E-02  0.9242079E-01
         -2   -1    0    0    0  501 -0.00000000000E+00  0.00000000000E+00  0.12865482670E+04  0.12865482670E+04  0.00000000000E+00 0. -1.
          2   -1    0    0  501    0  0.00000000000E+00 -0.00000000000E+00 -0.11393689888E+04  0.11393689888E+04  0.00000000000E+00 0.  1.
         23    2    1    2    0    0 -0.30606317685E+03  0.99885664197E+03 -0.37382345013E+03  0.11133554911E+04  0.91799882184E+02 0.  0.
    5000000    2    1    2    0    0  0.30606317685E+03 -0.99885664197E+03  0.52100272839E+03  0.13125617647E+04  0.59998773629E+03 0.  0.
         23    2    4    4    0    0  0.20316873512E+03 -0.34669568540E+03  0.49705239280E+03  0.64548565413E+03  0.90084489761E+02 0.  0.
         23    2    4    4    0    0  0.10289444173E+03 -0.65216095657E+03  0.23950335587E+02  0.66707611056E+03  0.92280763358E+02 0.  0.
          5    1    3    3  502    0 -0.68417704138E+02  0.35768396282E+03 -0.14948754314E+03  0.39368441047E+03  0.47000000000E+01 0. -1.
         -5    1    3    3    0  502 -0.23764547271E+03  0.64117267915E+03 -0.22433590699E+03  0.71967108067E+03  0.47000000000E+01 0.  1.
         11    1    5    5    0    0  0.97526906892E+02 -0.86025209498E+02  0.14252276543E+03  0.19293670699E+03  0.00000000000E+00 0.  1.
        -11    1    5    5    0    0  0.10564182823E+03 -0.26067047590E+03  0.35452962737E+03  0.45254894714E+03  0.00000000000E+00 0. -1.
          3    1    6    6  503    0 -0.59889798705E+01 -0.24587055461E+03  0.13667161175E+02  0.24632293600E+03  0.00000000000E+00 0. -1.
         -3    1    6    6    0  503  0.10888342160E+03 -0.40629040196E+03  0.10283174413E+02  0.42075317456E+03  0.00000000000E+00 0.  1.
<mgrwt>
<rscale>  0 0.10629460E+04</rscale>
<asrwt>0</asrwt>
<pdfrwt beam="1">  1        2 0.17528754E+00 0.10629460E+04</pdfrwt>
<pdfrwt beam="2">  1       -2 0.19793050E+00 0.10629460E+04</pdfrwt>
<totfact> 0.27859428E+00</totfact>
</mgrwt>
</event>
<event>
12    1  0.3203156E-008  0.7941900E+03  0.7818608E-02  0.9568465E-01
          2   -1    0    0  501    0  0.00000000000E+00  0.00000000000E+00  0.82560391781E+03  0.82560391781E+03  0.00000000000E+00 0. -1.
         -2   -1    0    0    0  501 -0.00000000000E+00 -0.00000000000E+00 -0.13416546467E+04  0.13416546467E+04  0.00000000000E+00 0.  1.
         23    2    1    2    0    0  0.12328079244E+03 -0.77196998793E+03 -0.81920399242E+03  0.11362445253E+04  0.93918177340E+02 0.  0.
    5000000    2    1    2    0    0 -0.12328079244E+03  0.77196998793E+03  0.30315326353E+03  0.10310140392E+04  0.59996019185E+03 0.  0.
         23    2    4    4    0    0 -0.68277180420E+02  0.31117251763E+03  0.42884221679E+03  0.54184833190E+03  0.90575155484E+02 0.  0.
         23    2    4    4    0    0 -0.55003612017E+02  0.46079747030E+03 -0.12568895326E+03  0.48916570730E+03  0.90142499737E+02 0.  0.
          5    1    3    3  502    0  0.13575570085E+03 -0.67833434787E+03 -0.73847082669E+03  0.10118934478E+04  0.47000000000E+01 0. -1.
         -5    1    3    3    0  502 -0.12474908409E+02 -0.93635640061E+02 -0.80733165733E+02  0.12435107751E+03  0.47000000000E+01 0.  1.
         13    1    5    5    0    0  0.20495429384E+02  0.91553304370E+02  0.13535236417E+03  0.16468859297E+03  0.00000000000E+00 0. -1.
        -13    1    5    5    0    0 -0.88772609804E+02  0.21961921326E+03  0.29348985262E+03  0.37715973893E+03  0.00000000000E+00 0.  1.
          2    1    6    6  503    0 -0.72644407368E+02  0.26724332315E+03 -0.92605604741E+02  0.29201370125E+03  0.00000000000E+00 0. -1.
         -2    1    6    6    0  503  0.17640795351E+02  0.19355414716E+03 -0.33083348518E+02  0.19715200606E+03  0.00000000000E+00 0.  1.
<mgrwt>
<rscale>  0 0.79418999E+03</rscale>
<asrwt>0</asrwt>
<pdfrwt beam="1">  1        2 0.12701599E+00 0.79418999E+03</pdfrwt>
<pdfrwt beam="2">  1       -2 0.20640840E+00 0.79418999E+03</pdfrwt>
<totfact> 0.40569124E+00</totfact>
</mgrwt>
</event>
<event>
12    1  0.3203156E-008  0.1560891E+04  0.7818608E-02  0.8844941E-01
          2   -1    0    0  501    0  0.00000000000E+00  0.00000000000E+00  0.66673968709E+03  0.66673968709E+03  0.00000000000E+00 0. -1.
         -2   -1    0    0    0  501 -0.00000000000E+00 -0.00000000000E+00 -0.36650548036E+04  0.36650548036E+04  0.00000000000E+00 0.  1.
         23    2    1    2    0    0  0.63290997997E+03  0.13645740200E+04 -0.14480469466E+04  0.20899224365E+04  0.91096280894E+02 0.  0.
    5000000    2    1    2    0    0 -0.63290997997E+03 -0.13645740200E+04 -0.15502681700E+04  0.22418720542E+04  0.60001800763E+03 0.  0.
         23    2    4    4    0    0 -0.53004848774E+03 -0.47184780064E+03 -0.65047840140E+03  0.96683187856E+03  0.89721705142E+02 0.  0.
         23    2    4    4    0    0 -0.10286149223E+03 -0.89272621941E+03 -0.89978976858E+03  0.12750401756E+04  0.92548540761E+02 0.  0.
          5    1    3    3  502    0  0.40552817765E+03  0.77974499326E+03 -0.81666376161E+03  0.11997571200E+04  0.47000000000E+01 0. -1.
         -5    1    3    3    0  502  0.22738180232E+03  0.58482902679E+03 -0.63138318495E+03  0.89016531658E+03  0.47000000000E+01 0.  1.
         13    1    5    5    0    0 -0.96092399028E+01  0.72232158300E+00 -0.21428846013E+02  0.23495843919E+02  0.00000000000E+00 0. -1.
        -13    1    5    5    0    0 -0.52043924783E+03 -0.47257012223E+03 -0.62904955539E+03  0.94333603464E+03  0.00000000000E+00 0.  1.
          4    1    6    6  503    0  0.15113423906E+02 -0.69120978691E+02 -0.58326587864E+02  0.91695780324E+02  0.00000000000E+00 0. -1.
         -4    1    6    6    0  503 -0.11797491614E+03 -0.82360524072E+03 -0.84146318072E+03  0.11833443953E+04  0.00000000000E+00 0.  1.
<mgrwt>
<rscale>  0 0.15608914E+04</rscale>
<asrwt>0</asrwt>
<pdfrwt beam="1">  1        2 0.10257534E+00 0.15608914E+04</pdfrwt>
<pdfrwt beam="2">  1       -2 0.56385458E+00 0.15608914E+04</pdfrwt>
<totfact> 0.29403831E-02</totfact>
</mgrwt>
</event>
<event>
12    1  0.3203156E-008  0.1368854E+04  0.7818608E-02  0.8976677E-01
         -2   -1    0    0    0  501 -0.00000000000E+00  0.00000000000E+00  0.93153716510E+03  0.93153716510E+03  0.00000000000E+00 0.  1.
          2   -1    0    0  501    0  0.00000000000E+00 -0.00000000000E+00 -0.22035295184E+04  0.22035295184E+04  0.00000000000E+00 0. -1.
         23    2    1    2    0    0 -0.10889807430E+04  0.82058576056E+03 -0.73389914492E+03  0.15511316199E+04  0.90339904279E+02 0.  0.
    5000000    2    1    2    0    0  0.10889807430E+04 -0.82058576056E+03 -0.53809320842E+03  0.15839350637E+04  0.60005494410E+03 0.  0.
         23    2    4    4    0    0  0.45339706512E+03 -0.42260483061E+03 -0.54182499408E+03  0.82843166243E+03  0.92525421367E+02 0.  0.
         23    2    4    4    0    0  0.63558367785E+03 -0.39798092995E+03  0.37317856563E+01  0.75550340122E+03  0.91738927856E+02 0.  0.
          5    1    3    3  502    0 -0.22047255868E+03  0.19431451551E+03 -0.12550909542E+03  0.31959490469E+03  0.47000000000E+01 0. -1.
         -5    1    3    3    0  502 -0.86850818428E+03  0.62627124505E+03 -0.60839004949E+03  0.12315367152E+04  0.47000000000E+01 0.  1.
         11    1    5    5    0    0  0.67186522701E+02 -0.55602393424E+02 -0.37898689486E+02  0.95089250980E+02  0.00000000000E+00 0. -1.
        -11    1    5    5    0    0  0.38621054242E+03 -0.36700243719E+03 -0.50392630459E+03  0.73334241145E+03  0.00000000000E+00 0.  1.
          3    1    6    6  503    0  0.32487706011E+03 -0.24377849877E+03 -0.28341265401E+02  0.40715634341E+03  0.00000000000E+00 0. -1.
         -3    1    6    6    0  503  0.31070661773E+03 -0.15420243118E+03  0.32073051057E+02  0.34834705782E+03  0.00000000000E+00 0.  1.
<mgrwt>
<rscale>  0 0.13688544E+04</rscale>
<asrwt>0</asrwt>
<pdfrwt beam="1">  1        2 0.33900454E+00 0.13688544E+04</pdfrwt>
<pdfrwt beam="2">  1       -2 0.14331341E+00 0.13688544E+04</pdfrwt>
<totfact> 0.16630353E+00</totfact>
</mgrwt>
</event>
<event>
12    1  0.3203156E-008  0.9342766E+03  0.7818608E-02  0.9383720E-01
          1   -1    0    0  501    0  0.00000000000E+00  0.00000000000E+00  0.24515685550E+04  0.24515685550E+04  0.00000000000E+00 0. -1.
         -1   -1    0    0    0  501 -0.00000000000E+00 -0.00000000000E+00 -0.45824010159E+03  0.45824010159E+03  0.00000000000E+00 0.  1.
         23    2    1    2    0    0 -0.22748786851E+03  0.82889077156E+03  0.29332153214E+03  0.91257947859E+03  0.89180390415E+02 0.  0.
    5000000    2    1    2    0    0  0.22748786851E+03 -0.82889077156E+03  0.17000069212E+04  0.19972291780E+04  0.60007517491E+03 0.  0.
         23    2    4    4    0    0  0.19200013732E+03 -0.87742972457E+03  0.16411900446E+04  0.18731735919E+04  0.92344834437E+02 0.  0.
         23    2    4    4    0    0  0.35487731185E+02  0.48538953008E+02  0.58816876621E+02  0.12405558609E+03  0.91186372013E+02 0.  0.
          5    1    3    3  502    0 -0.11286695343E+03  0.31311652073E+03  0.15001299555E+03  0.36511216573E+03  0.47000000000E+01 0. -1.
         -5    1    3    3    0  502 -0.11462091508E+03  0.51577425083E+03  0.14330853659E+03  0.54746731286E+03  0.47000000000E+01 0.  1.
         11    1    5    5    0    0  0.35087599891E+02 -0.33065932104E+03  0.65946464285E+03  0.73855286976E+03  0.00000000000E+00 0.  1.
        -11    1    5    5    0    0  0.15691253743E+03 -0.54677040353E+03  0.98172540178E+03  0.11346207221E+04  0.00000000000E+00 0. -1.
          4    1    6    6  503    0  0.53254606840E+02 -0.10579837253E+01  0.44641994863E+02  0.69498778295E+02  0.00000000000E+00 0. -1.
         -4    1    6    6    0  503 -0.17766875655E+02  0.49596936733E+02  0.14174881759E+02  0.54556807794E+02  0.00000000000E+00 0.  1.
<mgrwt>
<rscale>  0 0.93427656E+03</rscale>
<asrwt>0</asrwt>
<pdfrwt beam="1">  1        1 0.37716439E+00 0.93427656E+03</pdfrwt>
<pdfrwt beam="2">  1       -1 0.70498478E-01 0.93427656E+03</pdfrwt>
<totfact> 0.30590426E+00</totfact>
</mgrwt>
</event>
<event>
12    1  0.3203156E-008  0.5865617E+03  0.7818608E-02  0.9933685E-01
         -1   -1    0    0    0  501 -0.00000000000E+00  0.00000000000E+00  0.27426343468E+03  0.27426343468E+03  0.00000000000E+00 0.  1.
          1   -1    0    0  501    0  0.00000000000E+00 -0.00000000000E+00 -0.20481546927E+04  0.20481546927E+04  0.00000000000E+00 0. -1.
         23    2    1    2    0    0 -0.54189626199E+03  0.71939472304E+02 -0.12193678084E+04  0.13393640876E+04  0.90617109375E+02 0.  0.
    5000000    2    1    2    0    0  0.54189626199E+03 -0.71939472304E+02 -0.55452344957E+03  0.98305403976E+03  0.60006011576E+03 0.  0.
         23    2    4    4    0    0  0.48205678585E+03 -0.12476823217E+03 -0.10354005076E+03  0.51665128328E+03  0.90896368778E+02 0.  0.
         23    2    4    4    0    0  0.59839476136E+02  0.52828759861E+02 -0.45098339881E+03  0.46640275648E+03  0.88169521222E+02 0.  0.
          5    1    3    3  502    0 -0.20124186913E+03 -0.16158411510E+02 -0.42454064723E+03  0.47012363832E+03  0.47000000000E+01 0. -1.
         -5    1    3    3    0  502 -0.34065439286E+03  0.88097883815E+02 -0.79482716120E+03  0.86924044929E+03  0.47000000000E+01 0.  1.
         11    1    5    5    0    0  0.35580514167E+03 -0.11767884874E+03 -0.10834974002E+03  0.39010931345E+03  0.00000000000E+00 0. -1.
        -11    1    5    5    0    0  0.12625164419E+03 -0.70893834229E+01  0.48096892639E+01  0.12654196983E+03  0.00000000000E+00 0.  1.
          2    1    6    6  503    0 -0.71985344993E+01 -0.18702548159E+02 -0.57554928856E+02  0.60944023843E+02  0.00000000000E+00 0. -1.
         -2    1    6    6    0  503  0.67038010635E+02  0.71531308020E+02 -0.39342846996E+03  0.40545873263E+03  0.00000000000E+00 0.  1.
<mgrwt>
<rscale>  0 0.58656173E+03</rscale>
<asrwt>0</asrwt>
<pdfrwt beam="1">  1        1 0.31510072E+00 0.58656173E+03</pdfrwt>
<pdfrwt beam="2">  1       -1 0.42194375E-01 0.58656173E+03</pdfrwt>
<totfact> 0.16356028E+01</totfact>
</mgrwt>
</event>
<event>
12    1  0.3203156E-008  0.6682728E+03  0.7818608E-02  0.9773083E-01
          2   -1    0    0  501    0  0.00000000000E+00  0.00000000000E+00  0.13191391667E+04  0.13191391667E+04  0.00000000000E+00 0. -1.
         -2   -1    0    0    0  501 -0.00000000000E+00 -0.00000000000E+00 -0.40738894469E+03  0.40738894469E+03  0.00000000000E+00 0.  1.
         23    2    1    2    0    0 -0.47697890529E+03  0.36179687279E+03  0.26855048248E+03  0.66254902867E+03  0.91902124601E+02 0.  0.
    5000000    2    1    2    0    0  0.47697890529E+03 -0.36179687279E+03  0.64319973956E+03  0.10639790828E+04  0.59994977317E+03 0.  0.
         23    2    4    4    0    0  0.32752681168E+03 -0.45154596013E+03  0.23407909608E+03  0.61091415876E+03  0.85179338334E+02 0.  0.
         23    2    4    4    0    0  0.14945209361E+03  0.89749087340E+02  0.40912064348E+03  0.45306492400E+03  0.86586935907E+02 0.  0.
          5    1    3    3  502    0 -0.35935267269E+03  0.30528941446E+03  0.23904062972E+03  0.52867616043E+03  0.47000000000E+01 0. -1.
         -5    1    3    3    0  502 -0.11762623259E+03  0.56507458321E+02  0.29509852767E+02  0.13387286824E+03  0.47000000000E+01 0.  1.
         13    1    5    5    0    0  0.30694481523E+03 -0.40664170740E+03  0.18711863746E+03  0.54275775654E+03  0.00000000000E+00 0. -1.
        -13    1    5    5    0    0  0.20581996448E+02 -0.44904252721E+02  0.46960458617E+02  0.68156402222E+02  0.00000000000E+00 0.  1.
          4    1    6    6  503    0  0.56129409015E+02  0.45507302860E+02  0.78525507383E+02  0.10671307549E+03  0.00000000000E+00 0. -1.
         -4    1    6    6    0  503  0.93322684594E+02  0.44241784481E+02  0.33059513610E+03  0.34635184851E+03  0.00000000000E+00 0.  1.
<mgrwt>
<rscale>  0 0.66827280E+03</rscale>
<asrwt>0</asrwt>
<pdfrwt beam="1">  1        2 0.20294448E+00 0.66827280E+03</pdfrwt>
<pdfrwt beam="2">  1       -2 0.62675223E-01 0.66827280E+03</pdfrwt>
<totfact> 0.39138449E+01</totfact>
</mgrwt>
</event>
<event>
12    1  0.3203156E-008  0.5684418E+03  0.7818608E-02  0.9973133E-01
          1   -1    0    0  501    0  0.00000000000E+00  0.00000000000E+00  0.13507960706E+04  0.13507960706E+04  0.00000000000E+00 0. -1.
         -1   -1    0    0    0  501 -0.00000000000E+00 -0.00000000000E+00 -0.34753666628E+03  0.34753666628E+03  0.00000000000E+00 0.  1.
         23    2    1    2    0    0  0.18822928100E+03  0.44138368198E+03  0.73932520804E+03  0.88598050346E+03  0.90054829504E+02 0.  0.
    5000000    2    1    2    0    0 -0.18822928100E+03 -0.44138368198E+03  0.26393419632E+03  0.81235223347E+03  0.60000422857E+03 0.  0.
         23    2    4    4    0    0  0.11110733481E+03 -0.25919030738E+03 -0.84312770373E+02  0.30797223543E+03  0.90630012997E+02 0.  0.
         23    2    4    4    0    0 -0.29933661581E+03 -0.18219337459E+03  0.34824696669E+03  0.50437999804E+03  0.10161888261E+03 0.  0.
          5    1    3    3  502    0  0.16376434359E+03  0.27616945208E+03  0.49100941950E+03  0.58668617381E+03  0.47000000000E+01 0. -1.
         -5    1    3    3    0  502  0.24464937405E+02  0.16521422990E+03  0.24831578854E+03  0.29929432965E+03  0.47000000000E+01 0.  1.
         11    1    5    5    0    0  0.79789695094E+02 -0.23043024533E+03 -0.40998748625E+02  0.24727594059E+03  0.00000000000E+00 0.  1.
        -11    1    5    5    0    0  0.31317639719E+02 -0.28760062050E+02 -0.43314021748E+02  0.60696294835E+02  0.00000000000E+00 0. -1.
          1    1    6    6  503    0 -0.80408941480E+02 -0.48137804772E+01  0.10354737641E+03  0.13119005112E+03  0.00000000000E+00 0. -1.
         -1    1    6    6    0  503 -0.21892767433E+03 -0.17737959412E+03  0.24469959029E+03  0.37318994692E+03  0.00000000000E+00 0.  1.
<mgrwt>
<rscale>  0 0.56844177E+03</rscale>
<asrwt>0</asrwt>
<pdfrwt beam="1">  1        1 0.20781478E+00 0.56844177E+03</pdfrwt>
<pdfrwt beam="2">  1       -1 0.53467180E-01 0.56844177E+03</pdfrwt>
<totfact> 0.31020712E+01</totfact>
</mgrwt>
</event>
<event>
12    1  0.3203156E-008  0.1007651E+04  0.7818608E-02  0.9300193E-01
          2   -1    0    0  501    0  0.00000000000E+00  0.00000000000E+00  0.32338812133E+04  0.32338812133E+04  0.00000000000E+00 0. -1.
         -2   -1    0    0    0  501 -0.00000000000E+00 -0.00000000000E+00 -0.32944626653E+03  0.32944626653E+03  0.00000000000E+00 0.  1.
         23    2    1    2    0    0 -0.74230252439E+03 -0.57848505717E+03  0.12349561795E+04  0.15551350789E+04  0.87580531003E+02 0.  0.
    5000000    2    1    2    0    0  0.74230252439E+03  0.57848505717E+03  0.16694787673E+04  0.20081924009E+04  0.60001613768E+03 0.  0.
         23    2    4    4    0    0  0.77452258276E+03  0.38373833108E+03  0.11188527615E+04  0.14168771285E+04  0.92568662685E+02 0.  0.
         23    2    4    4    0    0 -0.32220058363E+02  0.19474672609E+03  0.55062600580E+03  0.59131527244E+03  0.86604466782E+02 0.  0.
          5    1    3    3  502    0 -0.36897137827E+03 -0.31542042135E+03  0.57438708879E+03  0.75204556907E+03  0.47000000000E+01 0. -1.
         -5    1    3    3    0  502 -0.37333114613E+03 -0.26306463582E+03  0.66056909068E+03  0.80308950986E+03  0.47000000000E+01 0.  1.
         13    1    5    5    0    0  0.15104373578E+03  0.11396366432E+03  0.21982574723E+03  0.29004359336E+03  0.00000000000E+00 0.  1.
        -13    1    5    5    0    0  0.62347884698E+03  0.26977466677E+03  0.89902701426E+03  0.11268335351E+04  0.00000000000E+00 0. -1.
          1    1    6    6  503    0  0.11534759209E+02  0.11917864718E+02  0.12402881655E+03  0.12513286340E+03  0.00000000000E+00 0. -1.
         -1    1    6    6    0  503 -0.43754817572E+02  0.18282886137E+03  0.42659718926E+03  0.46618240903E+03  0.00000000000E+00 0.  1.
<mgrwt>
<rscale>  0 0.10076506E+04</rscale>
<asrwt>0</asrwt>
<pdfrwt beam="1">  1        2 0.49752017E+00 0.10076506E+04</pdfrwt>
<pdfrwt beam="2">  1       -2 0.50684043E-01 0.10076506E+04</pdfrwt>
<totfact> 0.46622716E+00</totfact>
</mgrwt>
</event>
<event>
12    1  0.3203156E-008  0.6422048E+03  0.7818608E-02  0.9821517E-01
         -1   -1    0    0    0  501 -0.00000000000E+00  0.00000000000E+00  0.26707295574E+03  0.26707295574E+03  0.00000000000E+00 0.  1.
          1   -1    0    0  501    0  0.00000000000E+00 -0.00000000000E+00 -0.23873605406E+04  0.23873605406E+04  0.00000000000E+00 0. -1.
         23    2    1    2    0    0  0.62483739785E+03  0.58126725014E+02 -0.46893588148E+03  0.78874455052E+03  0.91742112018E+02 0.  0.
    5000000    2    1    2    0    0 -0.62483739785E+03 -0.58126725014E+02 -0.16513517034E+04  0.18656889458E+04  0.60002691971E+03 0.  0.
         23    2    4    4    0    0 -0.50322097755E+03 -0.53186765865E+02 -0.16332586893E+04  0.17122897463E+04  0.91334795216E+02 0.  0.
         23    2    4    4    0    0 -0.12161642030E+03 -0.49399591494E+01 -0.18093014139E+02  0.15339919957E+03  0.91591486420E+02 0.  0.
          5    1    3    3  502    0  0.12576567140E+03  0.39626180163E+02 -0.68907447584E+02  0.14885417223E+03  0.47000000000E+01 0. -1.
         -5    1    3    3    0  502  0.49907172645E+03  0.18500544851E+02 -0.40002843390E+03  0.63989037829E+03  0.47000000000E+01 0.  1.
         11    1    5    5    0    0 -0.33349590051E+03 -0.42122729083E+02 -0.93416575633E+03  0.99280385790E+03  0.00000000000E+00 0.  1.
        -11    1    5    5    0    0 -0.16972507704E+03 -0.11064036782E+02 -0.69909293292E+03  0.71948588836E+03  0.00000000000E+00 0. -1.
          2    1    6    6  503    0 -0.12148662183E+03 -0.27235177838E+02 -0.30081898268E+02  0.12808463920E+03  0.00000000000E+00 0. -1.
         -2    1    6    6    0  503 -0.12979846995E+00  0.22295218689E+02  0.11988884129E+02  0.25314560369E+02  0.00000000000E+00 0.  1.
<mgrwt>
<rscale>  0 0.64220477E+03</rscale>
<asrwt>0</asrwt>
<pdfrwt beam="1">  1        1 0.36728624E+00 0.64220477E+03</pdfrwt>
<pdfrwt beam="2">  1       -1 0.41088146E-01 0.64220477E+03</pdfrwt>
<totfact> 0.10074900E+01</totfact>
</mgrwt>
</event>
<event>
12    1  0.3203156E-008  0.6248421E+03  0.7818608E-02  0.9855166E-01
          2   -1    0    0  501    0  0.00000000000E+00  0.00000000000E+00  0.87150835422E+03  0.87150835422E+03  0.00000000000E+00 0.  1.
         -2   -1    0    0    0  501 -0.00000000000E+00 -0.00000000000E+00 -0.10718968243E+04  0.10718968243E+04  0.00000000000E+00 0. -1.
         23    2    1    2    0    0  0.25407018954E+03 -0.51870839192E+03 -0.74568760875E+03  0.94767820197E+03  0.91836308635E+02 0.  0.
    5000000    2    1    2    0    0 -0.25407018954E+03  0.51870839192E+03  0.54529913864E+03  0.99572697658E+03  0.60042568584E+03 0.  0.
         23    2    4    4    0    0 -0.12501031910E+03 -0.47950227726E+01 -0.71487089184E+02  0.17150298836E+03  0.93017734716E+02 0.  0.
         23    2    4    4    0    0 -0.12905987044E+03  0.52350341469E+03  0.61678622783E+03  0.82422398822E+03  0.90596117843E+02 0.  0.
          5    1    3    3  502    0  0.20743499115E+03 -0.41562567056E+03 -0.53537511725E+03  0.70881773380E+03  0.47000000000E+01 0. -1.
         -5    1    3    3    0  502  0.46635198382E+02 -0.10308272136E+03 -0.21031249150E+03  0.23886046817E+03  0.47000000000E+01 0.  1.
         11    1    5    5    0    0 -0.31697919852E+02  0.13978730194E+01 -0.71238649826E+02  0.77984981894E+02  0.00000000000E+00 0. -1.
        -11    1    5    5    0    0 -0.93312399243E+02 -0.61928957920E+01 -0.24843935801E+00  0.93518006463E+02  0.00000000000E+00 0.  1.
          3    1    6    6  503    0 -0.30230022208E+01  0.19172967597E+03  0.22289259645E+03  0.29402468730E+03  0.00000000000E+00 0. -1.
         -3    1    6    6    0  503 -0.12603686822E+03  0.33177373872E+03  0.39389363138E+03  0.53019930092E+03  0.00000000000E+00 0.  1.
<mgrwt>
<rscale>  0 0.62484212E+03</rscale>
<asrwt>0</asrwt>
<pdfrwt beam="1">  1        2 0.13407821E+00 0.62484212E+03</pdfrwt>
<pdfrwt beam="2">  1       -2 0.16490720E+00 0.62484212E+03</pdfrwt>
<totfact> 0.73640495E+00</totfact>
</mgrwt>
</event>
<event>
12    1  0.3203156E-008  0.6448560E+03  0.7818608E-02  0.9816480E-01
         -2   -1    0    0    0  501 -0.00000000000E+00  0.00000000000E+00  0.52515309692E+03  0.52515309692E+03  0.00000000000E+00 0.  1.
          2   -1    0    0  501    0  0.00000000000E+00 -0.00000000000E+00 -0.11217992060E+04  0.11217992060E+04  0.00000000000E+00 0. -1.
         23    2    1    2    0    0  0.50798753304E+03 -0.34375252803E+03 -0.35685659913E+02  0.62179680192E+03  0.95606810986E+02 0.  0.
    5000000    2    1    2    0    0 -0.50798753304E+03  0.34375252803E+03 -0.56096044913E+03  0.10251555010E+04  0.60004169974E+03 0.  0.
         23    2    4    4    0    0 -0.26065714115E+03  0.43253289887E+02  0.60276713324E+02  0.28622105062E+03  0.92066363733E+02 0.  0.
         23    2    4    4    0    0 -0.24733039189E+03  0.30049923814E+03 -0.62123716245E+03  0.73893445034E+03  0.92824538877E+02 0.  0.
          5    1    3    3  502    0  0.37332780428E+03 -0.29615834577E+03 -0.10353155549E+02  0.47666832604E+03  0.47000000000E+01 0. -1.
         -5    1    3    3    0  502  0.13465972876E+03 -0.47594182253E+02 -0.25332504364E+02  0.14512847588E+03  0.47000000000E+01 0.  1.
         11    1    5    5    0    0 -0.22552693994E+03  0.65063954752E+02  0.67516043962E+02  0.24424196003E+03  0.00000000000E+00 0.  1.
        -11    1    5    5    0    0 -0.35130201216E+02 -0.21810664865E+02 -0.72393306381E+01  0.41979090598E+02  0.00000000000E+00 0. -1.
          4    1    6    6  503    0 -0.87487311480E+02  0.62628937717E+02 -0.23039855409E+03  0.25428312416E+03  0.00000000000E+00 0. -1.
         -4    1    6    6    0  503 -0.15984308041E+03  0.23787030042E+03 -0.39083860836E+03  0.48465132618E+03  0.00000000000E+00 0.  1.
<mgrwt>
<rscale>  0 0.64485599E+03</rscale>
<asrwt>0</asrwt>
<pdfrwt beam="1">  1        2 0.17258449E+00 0.64485599E+03</pdfrwt>
<pdfrwt beam="2">  1       -2 0.80792784E-01 0.64485599E+03</pdfrwt>
<totfact> 0.29398754E+01</totfact>
</mgrwt>
</event>
<event>
12    1  0.3203156E-008  0.6729000E+03  0.7818608E-02  0.9764733E-01
          2   -1    0    0  501    0  0.00000000000E+00  0.00000000000E+00  0.28657190466E+04  0.28657190466E+04  0.00000000000E+00 0. -1.
         -2   -1    0    0    0  501 -0.00000000000E+00 -0.00000000000E+00 -0.29116231760E+03  0.29116231760E+03  0.00000000000E+00 0.  1.
         23    2    1    2    0    0  0.10611689511E+03  0.59749848231E+03  0.20844235193E+04  0.21728669481E+04  0.90907286418E+02 0.  0.
    5000000    2    1    2    0    0 -0.10611689511E+03 -0.59749848231E+03  0.49013320968E+03  0.98401441604E+03  0.59982378741E+03 0.  0.
         23    2    4    4    0    0  0.20230748442E+02 -0.59288395018E+03  0.16398567552E+03  0.62213952017E+03  0.90805392019E+02 0.  0.
         23    2    4    4    0    0 -0.12634764355E+03 -0.46145321354E+01  0.32614753416E+03  0.36187489587E+03  0.92715722948E+02 0.  0.
          5    1    3    3  502    0  0.67582468084E+02  0.41581580251E+03  0.15840198348E+04  0.16390884963E+04  0.47000000000E+01 0. -1.
         -5    1    3    3    0  502  0.38534427027E+02  0.18168267981E+03  0.50040368449E+03  0.53377845185E+03  0.47000000000E+01 0.  1.
         11    1    5    5    0    0  0.56893673175E+01 -0.44994746305E+03  0.84183591196E+02  0.45779030728E+03  0.00000000000E+00 0.  1.
        -11    1    5    5    0    0  0.14541381125E+02 -0.14293648712E+03  0.79802084323E+02  0.16434921289E+03  0.00000000000E+00 0. -1.
          3    1    6    6  503    0 -0.11032388230E+03 -0.30638012832E+02  0.18586636540E+03  0.21830335001E+03  0.00000000000E+00 0. -1.
         -3    1    6    6    0  503 -0.16023761250E+02  0.26023480697E+02  0.14028116876E+03  0.14357154586E+03  0.00000000000E+00 0.  1.
<mgrwt>
<rscale>  0 0.67289997E+03</rscale>
<asrwt>0</asrwt>
<pdfrwt beam="1">  1        2 0.44087983E+00 0.67289997E+03</pdfrwt>
<pdfrwt beam="2">  1       -2 0.44794205E-01 0.67289997E+03</pdfrwt>
<totfact> 0.10706481E+01</totfact>
</mgrwt>
</event>
<event>
12    1  0.3203156E-008  0.5530686E+03  0.7818608E-02  0.1000786E+00
          2   -1    0    0  501    0  0.00000000000E+00  0.00000000000E+00  0.13280987343E+04  0.13280987343E+04  0.00000000000E+00 0.  1.
         -2   -1    0    0    0  501 -0.00000000000E+00 -0.00000000000E+00 -0.33039937531E+03  0.33039937531E+03  0.00000000000E+00 0. -1.
         23    2    1    2    0    0  0.70351618395E+02 -0.39464684294E+03 -0.16455273925E+02  0.41388093492E+03  0.10164237008E+03 0.  0.
    5000000    2    1    2    0    0 -0.70351618395E+02  0.39464684294E+03  0.10141546329E+04  0.12446171747E+04  0.59988899909E+03 0.  0.
         23    2    4    4    0    0 -0.63894729479E+02  0.53489248788E+03  0.69776768466E+03  0.88605805042E+03  0.89591388584E+02 0.  0.
         23    2    4    4    0    0 -0.64568889165E+01 -0.14024564494E+03  0.31638694824E+03  0.35855912426E+03  0.93559672055E+02 0.  0.
          5    1    3    3  502    0  0.91907478819E+02 -0.36596634249E+03 -0.15803110594E+02  0.37769058342E+03  0.47000000000E+01 0. -1.
         -5    1    3    3    0  502 -0.21555860424E+02 -0.28680500447E+02 -0.65216333075E+00  0.36190351497E+02  0.47000000000E+01 0.  1.
         13    1    5    5    0    0 -0.34220791982E+02  0.16678663066E+03  0.28686999119E+03  0.33359141868E+03  0.00000000000E+00 0.  1.
        -13    1    5    5    0    0 -0.29673937497E+02  0.36810585722E+03  0.41089769347E+03  0.55246663174E+03  0.00000000000E+00 0. -1.
          3    1    6    6  503    0  0.18819235387E+02 -0.11759624988E+03  0.29577542010E+03  0.31885128311E+03  0.00000000000E+00 0. -1.
         -3    1    6    6    0  503 -0.25276124304E+02 -0.22649395062E+02  0.20611528138E+02  0.39707841148E+02  0.00000000000E+00 0.  1.
<mgrwt>
<rscale>  0 0.55306863E+03</rscale>
<asrwt>0</asrwt>
<pdfrwt beam="1">  1        2 0.20432288E+00 0.55306863E+03</pdfrwt>
<pdfrwt beam="2">  1       -2 0.50830674E-01 0.55306863E+03</pdfrwt>
<totfact> 0.60649267E+01</totfact>
</mgrwt>
</event>
<event>
12    1  0.3203156E-008  0.1595427E+04  0.7818608E-02  0.8823362E-01
          2   -1    0    0  501    0  0.00000000000E+00  0.00000000000E+00  0.20520112386E+04  0.20520112386E+04  0.00000000000E+00 0. -1.
         -2   -1    0    0    0  501 -0.00000000000E+00 -0.00000000000E+00 -0.21362144247E+04  0.21362144247E+04  0.00000000000E+00 0.  1.
         23    2    1    2    0    0 -0.22186790155E+02  0.15544900232E+04 -0.13772838493E+04  0.20790271684E+04  0.92258764281E+02 0.  0.
    5000000    2    1    2    0    0  0.22186790155E+02 -0.15544900232E+04  0.12930806633E+04  0.21091984948E+04  0.59977429328E+03 0.  0.
         23    2    4    4    0    0 -0.18528087490E+03 -0.12491004026E+04  0.11231692122E+04  0.16922501607E+04  0.87296671405E+02 0.  0.
         23    2    4    4    0    0  0.20746766505E+03 -0.30538962068E+03  0.16991145112E+03  0.41694833418E+03  0.93114766233E+02 0.  0.
          5    1    3    3  502    0 -0.20392311751E+02  0.88300123762E+03 -0.72232402491E+03  0.11410000521E+04  0.47000000000E+01 0. -1.
         -5    1    3    3    0  502 -0.17944784033E+01  0.67148878563E+03 -0.65495982438E+03  0.93802711631E+03  0.47000000000E+01 0.  1.
         11    1    5    5    0    0 -0.19150627094E+03 -0.11086536453E+04  0.99087925870E+03  0.14992095458E+04  0.00000000000E+00 0.  1.
        -11    1    5    5    0    0  0.62253960396E+01 -0.14044675728E+03  0.13228995347E+03  0.19304061483E+03  0.00000000000E+00 0. -1.
          3    1    6    6  503    0  0.67749809418E+02 -0.75663115198E+02  0.53378430226E+01  0.10170268554E+03  0.00000000000E+00 0. -1.
         -3    1    6    6    0  503  0.13971785563E+03 -0.22972650549E+03  0.16457360809E+03  0.31524564864E+03  0.00000000000E+00 0.  1.
<mgrwt>
<rscale>  0 0.15954271E+04</rscale>
<asrwt>0</asrwt>
<pdfrwt beam="1">  1        2 0.31569404E+00 0.15954271E+04</pdfrwt>
<pdfrwt beam="2">  1       -2 0.32864837E+00 0.15954271E+04</pdfrwt>
<totfact> 0.12270978E-01</totfact>
</mgrwt>
</event>
<event>
12    1  0.3203156E-008  0.1226759E+04  0.7818608E-02  0.9089751E-01
         -2   -1    0    0    0  501 -0.00000000000E+00  0.00000000000E+00  0.17056586147E+04  0.17056586147E+04  0.00000000000E+00 0.  1.
          2   -1    0    0  501    0  0.00000000000E+00 -0.00000000000E+00 -0.17813604809E+04  0.17813604809E+04  0.00000000000E+00 0. -1.
         23    2    1    2    0    0  0.34796655720E+03  0.11493601829E+04  0.11529471179E+04  0.16672275205E+04  0.90834979405E+02 0.  0.
    5000000    2    1    2    0    0 -0.34796655720E+03 -0.11493601829E+04 -0.12286489841E+04  0.18197915751E+04  0.59996124506E+03 0.  0.
         23    2    4    4    0    0 -0.11928214772E+03 -0.59842462447E+02 -0.10478261751E+01  0.16013110518E+03  0.88495885956E+02 0.  0.
         23    2    4    4    0    0 -0.22868440949E+03 -0.10895177204E+04 -0.12276011580E+04  0.16596604699E+04  0.90126855152E+02 0.  0.
          5    1    3    3  502    0  0.31963057157E+02  0.20260663299E+03  0.17124976113E+03  0.26724456111E+03  0.47000000000E+01 0. -1.
         -5    1    3    3    0  502  0.31600350005E+03  0.94675354988E+03  0.98169735678E+03  0.13999829594E+04  0.47000000000E+01 0.  1.
         11    1    5    5    0    0 -0.66915203902E+02 -0.28645213096E+02 -0.44463458130E+02  0.85294735215E+02  0.00000000000E+00 0. -1.
        -11    1    5    5    0    0 -0.52366943816E+02 -0.31197249350E+02  0.43415631955E+02  0.74836369967E+02  0.00000000000E+00 0.  1.
          4    1    6    6  503    0 -0.43959712120E+02 -0.40899141650E+03 -0.43091399327E+03  0.59572922092E+03  0.00000000000E+00 0.  1.
         -4    1    6    6    0  503 -0.18472469736E+03 -0.68052630393E+03 -0.79668716470E+03  0.10639312490E+04  0.00000000000E+00 0. -1.
<mgrwt>
<rscale>  0 0.12267594E+04</rscale>
<asrwt>0</asrwt>
<pdfrwt beam="1">  1        2 0.27405546E+00 0.12267594E+04</pdfrwt>
<pdfrwt beam="2">  1       -2 0.26240902E+00 0.12267594E+04</pdfrwt>
<totfact> 0.46196422E-01</totfact>
</mgrwt>
</event>
<event>
12    1  0.3203156E-008  0.3609037E+03  0.7818608E-02  0.1058227E+00
         -2   -1    0    0    0  501 -0.00000000000E+00  0.00000000000E+00  0.14038457293E+04  0.14038457293E+04  0.00000000000E+00 0.  1.
          2   -1    0    0  501    0  0.00000000000E+00 -0.00000000000E+00 -0.10704535989E+03  0.10704535989E+03  0.00000000000E+00 0. -1.
         23    2    1    2    0    0 -0.96906251238E+02  0.43572038144E+02  0.42744638195E+03  0.44928164673E+03  0.88624176240E+02 0.  0.
    5000000    2    1    2    0    0  0.96906251238E+02 -0.43572038144E+02  0.86935398743E+03  0.10616094424E+04  0.59995742243E+03 0.  0.
         23    2    4    4    0    0 -0.14938930391E+03  0.19015893722E+03  0.35404960587E+03  0.43767929196E+03  0.87945742775E+02 0.  0.
         23    2    4    4    0    0  0.24629555515E+03 -0.23373097536E+03  0.51530438156E+03  0.62393015045E+03  0.91970417299E+02 0.  0.
          5    1    3    3  502    0 -0.68372227107E+02  0.52215471783E+02  0.17523428322E+03  0.19526996940E+03  0.47000000000E+01 0. -1.
         -5    1    3    3    0  502 -0.28534024131E+02 -0.86434336397E+01  0.25221209872E+03  0.25401167733E+03  0.47000000000E+01 0.  1.
         13    1    5    5    0    0 -0.48112751202E+02  0.10510734219E+02  0.49097622999E+02  0.69540556126E+02  0.00000000000E+00 0. -1.
        -13    1    5    5    0    0 -0.10127655271E+03  0.17964820300E+03  0.30495198287E+03  0.36813873584E+03  0.00000000000E+00 0.  1.
          1    1    6    6  503    0  0.20736020315E+03 -0.23178967457E+03  0.43593242170E+03  0.53550143172E+03  0.00000000000E+00 0. -1.
         -1    1    6    6    0  503  0.38935351992E+02 -0.19413007902E+01  0.79371959858E+02  0.88428718724E+02  0.00000000000E+00 0.  1.
<mgrwt>
<rscale>  0 0.36090370E+03</rscale>
<asrwt>0</asrwt>
<pdfrwt beam="1">  1        2 0.16468518E-01 0.36090370E+03</pdfrwt>
<pdfrwt beam="2">  1       -2 0.21597625E+00 0.36090370E+03</pdfrwt>
<totfact> 0.39589554E+01</totfact>
</mgrwt>
</event>
<event>
12    1  0.3203156E-008  0.4950372E+03  0.7818608E-02  0.1015082E+00
          3   -1    0    0  501    0  0.00000000000E+00  0.00000000000E+00  0.25120889097E+03  0.25120889097E+03  0.00000000000E+00 0.  1.
         -3   -1    0    0    0  501 -0.00000000000E+00 -0.00000000000E+00 -0.14946667275E+04  0.14946667275E+04  0.00000000000E+00 0. -1.
         23    2    1    2    0    0 -0.15184011343E+02  0.45904237597E+03 -0.47240590397E+03  0.66628573708E+03  0.99090303235E+02 0.  0.
    5000000    2    1    2    0    0  0.15184011343E+02 -0.45904237597E+03 -0.77105193253E+03  0.10795898814E+04  0.60003564238E+03 0.  0.
         23    2    4    4    0    0  0.33567240843E+02 -0.41263491159E+03 -0.14762325065E+03  0.44714337748E+03  0.82159880536E+02 0.  0.
         23    2    4    4    0    0 -0.18383229500E+02 -0.46407464372E+02 -0.62342868188E+03  0.63244650387E+03  0.93987568268E+02 0.  0.
          5    1    3    3  502    0 -0.45495582261E+02  0.32964350158E+03 -0.29615787709E+03  0.44549552670E+03  0.47000000000E+01 0. -1.
         -5    1    3    3    0  502  0.30311570918E+02  0.12939887438E+03 -0.17624802687E+03  0.22079021038E+03  0.47000000000E+01 0.  1.
         13    1    5    5    0    0  0.13854150869E+02 -0.38334781312E+03 -0.11881519766E+03  0.40157755728E+03  0.00000000000E+00 0. -1.
        -13    1    5    5    0    0  0.19713089974E+02 -0.29287098479E+02 -0.28808052988E+02  0.45565820201E+02  0.00000000000E+00 0.  1.
          1    1    6    6  503    0 -0.45190766008E+02  0.69034144314E+01 -0.31481838436E+03  0.31812022507E+03  0.00000000000E+00 0. -1.
         -1    1    6    6    0  503  0.26807536508E+02 -0.53310878803E+02 -0.30861029752E+03  0.31432627881E+03  0.00000000000E+00 0.  1.
<mgrwt>
<rscale>  0 0.49503718E+03</rscale>
<asrwt>0</asrwt>
<pdfrwt beam="1">  1        3 0.38647522E-01 0.49503718E+03</pdfrwt>
<pdfrwt beam="2">  1       -3 0.22994873E+00 0.49503718E+03</pdfrwt>
<totfact> 0.17041659E+00</totfact>
</mgrwt>
</event>
<event>
12    1  0.4721154E-008  0.5162319E+03  0.7818608E-02  0.1009627E+00
          1   -1    0    0  501    0  0.00000000000E+00  0.00000000000E+00  0.13702463754E+04  0.13702463754E+04  0.00000000000E+00 0. -1.
         -1   -1    0    0    0  501 -0.00000000000E+00 -0.00000000000E+00 -0.44010306745E+03  0.44010306745E+03  0.00000000000E+00 0.  1.
         23    2    1    2    0    0 -0.20598582578E+03  0.45808788785E+03  0.88877655204E+03  0.10268211152E+04  0.11028676176E+03 0.  0.
    5000000    2    1    2    0    0  0.20598582578E+03 -0.45808788785E+03  0.41366755952E+02  0.78352832765E+03  0.59994229582E+03 0.  0.
         23    2    4    4    0    0  0.78868697063E+02 -0.27933129105E+03 -0.25946602490E+03  0.39980575546E+03  0.90971327793E+02 0.  0.
         23    2    4    4    0    0  0.12711712871E+03 -0.17875659680E+03  0.30083278086E+03  0.38372257219E+03  0.92897605259E+02 0.  0.
          5    1    3    3  502    0 -0.16968315745E+03  0.25607440086E+03  0.49123463119E+03  0.57939625955E+03  0.47000000000E+01 0. -1.
         -5    1    3    3    0  502 -0.36302668328E+02  0.20201348699E+03  0.39754192084E+03  0.44742485568E+03  0.47000000000E+01 0.  1.
         13    1    5    5    0    0  0.70433436014E+02 -0.11939593876E+03 -0.83325676430E+02  0.16173876299E+03  0.00000000000E+00 0. -1.
        -13    1    5    5    0    0  0.84352610483E+01 -0.15993535229E+03 -0.17614034847E+03  0.23806699246E+03  0.00000000000E+00 0.  1.
          1    1    6    6  503    0  0.54263269259E+02 -0.10063392850E+03  0.83565220161E+02  0.14161509798E+03  0.00000000000E+00 0. -1.
         -1    1    6    6    0  503  0.72853859454E+02 -0.78122668301E+02  0.21726756070E+03  0.24210747421E+03  0.00000000000E+00 0.  1.
<mgrwt>
<rscale>  0 0.51623192E+03</rscale>
<asrwt>0</asrwt>
<pdfrwt beam="1">  1        1 0.21080713E+00 0.51623192E+03</pdfrwt>
<pdfrwt beam="2">  1       -1 0.67708165E-01 0.51623192E+03</pdfrwt>
<totfact> 0.19102946E+01</totfact>
</mgrwt>
</event>
<event>
12    1  0.3203156E-008  0.3808241E+03  0.7818608E-02  0.1050630E+00
          2   -1    0    0  501    0  0.00000000000E+00  0.00000000000E+00  0.88809917413E+03  0.88809917413E+03  0.00000000000E+00 0. -1.
         -2   -1    0    0    0  501 -0.00000000000E+00 -0.00000000000E+00 -0.62452083997E+03  0.62452083997E+03  0.00000000000E+00 0.  1.
         23    2    1    2    0    0  0.15746209160E+03  0.31531346270E+02 -0.49747207194E+03  0.53037618504E+03  0.89620863681E+02 0.  0.
    5000000    2    1    2    0    0 -0.15746209160E+03 -0.31531346270E+02  0.76105040609E+03  0.98224382906E+03  0.59984721641E+03 0.  0.
         23    2    4    4    0    0 -0.21328343586E+03 -0.26195882310E+03  0.55651491153E+03  0.65725176879E+03  0.90326030646E+02 0.  0.
         23    2    4    4    0    0  0.55821344264E+02  0.23042747683E+03  0.20453549456E+03  0.32499206027E+03  0.87018539108E+02 0.  0.
          5    1    3    3  502    0  0.30741940000E+02  0.11266037655E+02 -0.27013224059E+02  0.42705910053E+02  0.47000000000E+01 0.  1.
         -5    1    3    3    0  502  0.12672015160E+03  0.20265308615E+02 -0.47045884788E+03  0.48767027498E+03  0.47000000000E+01 0.  1.
         11    1    5    5    0    0 -0.11529910940E+03 -0.77174646689E+02  0.25488760044E+03  0.29020251477E+03  0.00000000000E+00 0.  1.
        -11    1    5    5    0    0 -0.97984326468E+02 -0.18478417641E+03  0.30162731109E+03  0.36704925403E+03  0.00000000000E+00 0. -1.
          4    1    6    6  503    0  0.14590923954E+00  0.17033757798E+03  0.13059371228E+03  0.21463836901E+03  0.00000000000E+00 0. -1.
         -4    1    6    6    0  503  0.55675435024E+02  0.60089898853E+02  0.73941782276E+02  0.11035369126E+03  0.00000000000E+00 0.  1.
<mgrwt>
<rscale>  0 0.38082414E+03</rscale>
<asrwt>0</asrwt>
<pdfrwt beam="1">  1        2 0.13663064E+00 0.38082414E+03</pdfrwt>
<pdfrwt beam="2">  1       -2 0.96080129E-01 0.38082414E+03</pdfrwt>
<totfact> 0.28872180E+01</totfact>
</mgrwt>
</event>
<event>
12    1  0.3203156E-008  0.6358071E+03  0.7818608E-02  0.9833782E-01
         -2   -1    0    0    0  501 -0.00000000000E+00  0.00000000000E+00  0.72649232442E+03  0.72649232442E+03  0.00000000000E+00 0.  1.
          2   -1    0    0  501    0  0.00000000000E+00 -0.00000000000E+00 -0.66369112249E+03  0.66369112249E+03  0.00000000000E+00 0. -1.
         23    2    1    2    0    0 -0.30440961099E+03  0.42992723389E+03  0.21681362490E+03  0.57697599637E+03  0.91599752928E+02 0.  0.
    5000000    2    1    2    0    0  0.30440961099E+03 -0.42992723389E+03 -0.15401242298E+03  0.81320745053E+03  0.60006990715E+03 0.  0.
         23    2    4    4    0    0  0.15958960687E+03 -0.52990116562E+03 -0.22104744913E+03  0.60269050630E+03  0.90054337354E+02 0.  0.
         23    2    4    4    0    0  0.14482000412E+03  0.99973931724E+02  0.67035026157E+02  0.21051694423E+03  0.94106686574E+02 0.  0.
          5    1    3    3  502    0 -0.18980396355E+03  0.18927284646E+03  0.10704326253E+03  0.28866954297E+03  0.47000000000E+01 0. -1.
         -5    1    3    3    0  502 -0.11460564745E+03  0.24065438743E+03  0.10977036237E+03  0.28830645340E+03  0.47000000000E+01 0.  1.
         13    1    5    5    0    0  0.64401733862E+01 -0.13158762427E+03 -0.75300914312E+02  0.15174652019E+03  0.00000000000E+00 0.  1.
        -13    1    5    5    0    0  0.15314943349E+03 -0.39831354135E+03 -0.14574653482E+03  0.45094398611E+03  0.00000000000E+00 0. -1.
          1    1    6    6  503    0  0.79268249375E+02  0.36747274488E+02 -0.14150078183E+02  0.88510125148E+02  0.00000000000E+00 0. -1.
         -1    1    6    6    0  503  0.65551754746E+02  0.63226657236E+02  0.81185104340E+02  0.12200681908E+03  0.00000000000E+00 0.  1.
<mgrwt>
<rscale>  0 0.63580713E+03</rscale>
<asrwt>0</asrwt>
<pdfrwt beam="1">  1        2 0.10210633E+00 0.63580713E+03</pdfrwt>
<pdfrwt beam="2">  1       -2 0.11176805E+00 0.63580713E+03</pdfrwt>
<totfact> 0.28356823E+01</totfact>
</mgrwt>
</event>
<event>
12    1  0.3203156E-008  0.1171436E+04  0.7818608E-02  0.9138233E-01
         -2   -1    0    0    0  501 -0.00000000000E+00  0.00000000000E+00  0.13366766483E+04  0.13366766483E+04  0.00000000000E+00 0. -1.
          2   -1    0    0  501    0  0.00000000000E+00 -0.00000000000E+00 -0.11771337993E+04  0.11771337993E+04  0.00000000000E+00 0.  1.
         23    2    1    2    0    0  0.28229872222E+03 -0.11219928085E+04  0.31148729810E+03  0.12016638601E+04  0.91712948186E+02 0.  0.
    5000000    2    1    2    0    0 -0.28229872222E+03  0.11219928085E+04 -0.15194444913E+03  0.13121465876E+04  0.60006759687E+03 0.  0.
         23    2    4    4    0    0 -0.61631373716E+02  0.69363398889E+03  0.17385894380E+03  0.72361076977E+03  0.91973240758E+02 0.  0.
         23    2    4    4    0    0 -0.22066734850E+03  0.42835881960E+03 -0.32580339293E+03  0.58853581782E+03  0.89672743805E+02 0.  0.
          5    1    3    3  502    0  0.69322164872E+02 -0.31416989602E+03  0.12816469630E+03  0.34634746352E+03  0.47000000000E+01 0.  1.
         -5    1    3    3    0  502  0.21297655734E+03 -0.80782291248E+03  0.18332260181E+03  0.85531639656E+03  0.47000000000E+01 0. -1.
         11    1    5    5    0    0 -0.16074098162E+02  0.24215225025E+03  0.10586443995E+03  0.26477040729E+03  0.00000000000E+00 0.  1.
        -11    1    5    5    0    0 -0.45557275554E+02  0.45148173865E+03  0.67994503853E+02  0.45884036248E+03  0.00000000000E+00 0. -1.
          2    1    6    6  503    0 -0.15867016209E+02  0.10680301823E+03 -0.57309971492E+02  0.12224189028E+03  0.00000000000E+00 0. -1.
         -2    1    6    6    0  503 -0.20480033229E+03  0.32155580138E+03 -0.26849342144E+03  0.46629392754E+03  0.00000000000E+00 0.  1.
<mgrwt>
<rscale>  0 0.11714361E+04</rscale>
<asrwt>0</asrwt>
<pdfrwt beam="1">  1        2 0.18109751E+00 0.11714361E+04</pdfrwt>
<pdfrwt beam="2">  1       -2 0.20564256E+00 0.11714361E+04</pdfrwt>
<totfact> 0.23264965E+00</totfact>
</mgrwt>
</event>
<event>
12    1  0.3203156E-008  0.8444540E+03  0.7818608E-02  0.9497811E-01
          3   -1    0    0  501    0  0.00000000000E+00  0.00000000000E+00  0.51561374309E+03  0.51561374309E+03  0.00000000000E+00 0. -1.
         -3   -1    0    0    0  501 -0.00000000000E+00 -0.00000000000E+00 -0.14190905980E+04  0.14190905980E+04  0.00000000000E+00 0.  1.
         23    2    1    2    0    0 -0.46896310002E+02 -0.74478868321E+03 -0.38694250856E+03  0.84662147184E+03  0.10066759711E+03 0.  0.
    5000000    2    1    2    0    0  0.46896310002E+02  0.74478868321E+03 -0.51653434632E+03  0.10880828692E+04  0.60017260255E+03 0.  0.
         23    2    4    4    0    0  0.28845944551E+03  0.26917850957E+03 -0.30753118271E+03  0.50803972431E+03  0.88673622978E+02 0.  0.
         23    2    4    4    0    0 -0.24156313551E+03  0.47561017364E+03 -0.20900316361E+03  0.58004314493E+03  0.90608729546E+02 0.  0.
          5    1    3    3  502    0  0.17680392859E+02 -0.40311915591E+03 -0.17910204157E+03  0.44149437306E+03  0.47000000000E+01 0. -1.
         -5    1    3    3    0  502 -0.64576702861E+02 -0.34166952731E+03 -0.20784046699E+03  0.40512709877E+03  0.47000000000E+01 0.  1.
         13    1    5    5    0    0  0.17518069075E+03  0.13104061050E+03 -0.12202291640E+03  0.25049851923E+03  0.00000000000E+00 0.  1.
        -13    1    5    5    0    0  0.11327875476E+03  0.13813789908E+03 -0.18550826630E+03  0.25754120507E+03  0.00000000000E+00 0. -1.
          2    1    6    6  503    0 -0.21405244966E+03  0.33949716774E+03 -0.14072888609E+03  0.42530153713E+03  0.00000000000E+00 0. -1.
         -2    1    6    6    0  503 -0.27510685851E+02  0.13611300591E+03 -0.68274277521E+02  0.15474160780E+03  0.00000000000E+00 0.  1.
<mgrwt>
<rscale>  0 0.84445396E+03</rscale>
<asrwt>0</asrwt>
<pdfrwt beam="1">  1        3 0.79325191E-01 0.84445396E+03</pdfrwt>
<pdfrwt beam="2">  1       -3 0.21832163E+00 0.84445396E+03</pdfrwt>
<totfact> 0.43334258E-01</totfact>
</mgrwt>
</event>
<event>
12    1  0.3203156E-008  0.1536733E+04  0.7818608E-02  0.8860387E-01
          2   -1    0    0  501    0  0.00000000000E+00  0.00000000000E+00  0.19650549477E+04  0.19650549477E+04  0.00000000000E+00 0. -1.
         -2   -1    0    0    0  501 -0.00000000000E+00 -0.00000000000E+00 -0.13896515725E+04  0.13896515725E+04  0.00000000000E+00 0.  1.
         23    2    1    2    0    0  0.15158519990E+04 -0.37473719354E+02 -0.22962430654E+03  0.15361674198E+04  0.88721232455E+02 0.  0.
    5000000    2    1    2    0    0 -0.15158519990E+04  0.37473719354E+02  0.80502768174E+03  0.18185391005E+04  0.59983608515E+03 0.  0.
         23    2    4    4    0    0 -0.81469702479E+03  0.19150597939E+03  0.17658052984E+03  0.86019630537E+03  0.91384998212E+02 0.  0.
         23    2    4    4    0    0 -0.70115497419E+03 -0.15403226004E+03  0.62844715190E+03  0.95834279509E+03  0.90171254839E+02 0.  0.
          5    1    3    3  502    0  0.11271221354E+04 -0.13653954258E+02 -0.20667174060E+03  0.11460043791E+04  0.47000000000E+01 0. -1.
         -5    1    3    3    0  502  0.38872986357E+03 -0.23819765096E+02 -0.22952565941E+02  0.39016304070E+03  0.47000000000E+01 0.  1.
         13    1    5    5    0    0 -0.69864985105E+03  0.16599670722E+03  0.18351073035E+03  0.74117657095E+03  0.00000000000E+00 0.  1.
        -13    1    5    5    0    0 -0.11604717374E+03  0.25509272173E+02 -0.69302005048E+01  0.11901973441E+03  0.00000000000E+00 0. -1.
          1    1    6    6  503    0 -0.60169062648E+03 -0.15094433171E+03  0.50582015663E+03  0.80041853560E+03  0.00000000000E+00 0. -1.
         -1    1    6    6    0  503 -0.99464347702E+02 -0.30879283283E+01  0.12262699528E+03  0.15792425949E+03  0.00000000000E+00 0.  1.
<mgrwt>
<rscale>  0 0.15367333E+04</rscale>
<asrwt>0</asrwt>
<pdfrwt beam="1">  1        2 0.30231615E+00 0.15367333E+04</pdfrwt>
<pdfrwt beam="2">  1       -2 0.21379255E+00 0.15367333E+04</pdfrwt>
<totfact> 0.70742124E-01</totfact>
</mgrwt>
</event>
<event>
12    1  0.3203156E-008  0.4171588E+03  0.7818608E-02  0.1037995E+00
          3   -1    0    0  501    0  0.00000000000E+00  0.00000000000E+00  0.14714976314E+04  0.14714976314E+04  0.00000000000E+00 0. -1.
         -3   -1    0    0    0  501 -0.00000000000E+00 -0.00000000000E+00 -0.14709131812E+03  0.14709131812E+03  0.00000000000E+00 0.  1.
         23    2    1    2    0    0  0.10586185972E+03 -0.22995579832E+03  0.28850410489E+03  0.39494448872E+03  0.93059809288E+02 0.  0.
    5000000    2    1    2    0    0 -0.10586185972E+03  0.22995579832E+03  0.10359022084E+04  0.12236444608E+04  0.60010497296E+03 0.  0.
         23    2    4    4    0    0  0.13838473471E+03  0.27498723963E+03  0.29131420061E+03  0.43342603082E+03  0.90696438490E+02 0.  0.
         23    2    4    4    0    0 -0.24424659443E+03 -0.45031441305E+02  0.74458800774E+03  0.79021842995E+03  0.91376343531E+02 0.  0.
          5    1    3    3  502    0  0.56232144295E+02 -0.32743063701E+02  0.85660277754E+02  0.10767513853E+03  0.47000000000E+01 0. -1.
         -5    1    3    3    0  502  0.49629715422E+02 -0.19721273462E+03  0.20284382714E+03  0.28726935019E+03  0.47000000000E+01 0.  1.
         11    1    5    5    0    0  0.69166959503E+02  0.60979562923E+02  0.55882652267E+02  0.10782136247E+03  0.00000000000E+00 0. -1.
        -11    1    5    5    0    0  0.69217775210E+02  0.21400767670E+03  0.23543154834E+03  0.32560466834E+03  0.00000000000E+00 0.  1.
          2    1    6    6  503    0 -0.10730501997E+03 -0.15202116395E+02  0.19554491822E+03  0.22356942254E+03  0.00000000000E+00 0.  1.
         -2    1    6    6    0  503 -0.13694157445E+03 -0.29829324910E+02  0.54904308952E+03  0.56664900740E+03  0.00000000000E+00 0. -1.
<mgrwt>
<rscale>  0 0.41715883E+03</rscale>
<asrwt>0</asrwt>
<pdfrwt beam="1">  1        3 0.22638424E+00 0.41715883E+03</pdfrwt>
<pdfrwt beam="2">  1       -3 0.22629435E-01 0.41715883E+03</pdfrwt>
<totfact> 0.49761273E+00</totfact>
</mgrwt>
</event>
<event>
12    1  0.3203156E-008  0.6557298E+03  0.7818608E-02  0.9796087E-01
         -1   -1    0    0    0  501 -0.00000000000E+00  0.00000000000E+00  0.77404877481E+03  0.77404877481E+03  0.00000000000E+00 0.  1.
          1   -1    0    0  501    0  0.00000000000E+00 -0.00000000000E+00 -0.64601760808E+03  0.64601760808E+03  0.00000000000E+00 0. -1.
         23    2    1    2    0    0 -0.53607785630E+03 -0.36770569384E+02 -0.15559997015E+03  0.56674803948E+03  0.90886999906E+02 0.  0.
    5000000    2    1    2    0    0  0.53607785630E+03  0.36770569384E+02  0.28363113687E+03  0.85331834341E+03  0.59914441549E+03 0.  0.
         23    2    4    4    0    0  0.41800268092E+03 -0.22157101554E+03  0.77540753208E+02  0.48815958616E+03  0.92017699181E+02 0.  0.
         23    2    4    4    0    0  0.11807517538E+03  0.25834158492E+03  0.20609038366E+03  0.36515875726E+03  0.10092348698E+03 0.  0.
          5    1    3    3  502    0 -0.15621990497E+03  0.25464149169E+02 -0.65693145135E+02  0.17143733818E+03  0.47000000000E+01 0. -1.
         -5    1    3    3    0  502 -0.37985795133E+03 -0.62234718552E+02 -0.89906825015E+02  0.39531070130E+03  0.47000000000E+01 0.  1.
         11    1    5    5    0    0  0.39877840924E+03 -0.20892357702E+03  0.93956984917E+02  0.45989259151E+03  0.00000000000E+00 0. -1.
        -11    1    5    5    0    0  0.19224271681E+02 -0.12647438516E+02 -0.16416231709E+02  0.28266994643E+02  0.00000000000E+00 0.  1.
          1    1    6    6  503    0  0.53223935406E+02  0.38347937396E+02  0.79909033154E+02  0.10338667797E+03  0.00000000000E+00 0. -1.
         -1    1    6    6    0  503  0.64851239970E+02  0.21999364752E+03  0.12618135051E+03  0.26177207928E+03  0.00000000000E+00 0.  1.
<mgrwt>
<rscale>  0 0.65572981E+03</rscale>
<asrwt>0</asrwt>
<pdfrwt beam="1">  1        1 0.99387325E-01 0.65572981E+03</pdfrwt>
<pdfrwt beam="2">  1       -1 0.11908443E+00 0.65572981E+03</pdfrwt>
<totfact> 0.20129460E+01</totfact>
</mgrwt>
</event>
<event>
12    1  0.3203156E-008  0.7506797E+03  0.7818608E-02  0.9634285E-01
         -1   -1    0    0    0  501 -0.00000000000E+00  0.00000000000E+00  0.65117832996E+03  0.65117832996E+03  0.00000000000E+00 0.  1.
          1   -1    0    0  501    0  0.00000000000E+00 -0.00000000000E+00 -0.93325859995E+03  0.93325859995E+03  0.00000000000E+00 0. -1.
         23    2    1    2    0    0 -0.58334139189E+03 -0.24248077059E+03  0.77750634208E+02  0.64188213606E+03  0.82966329726E+02 0.  0.
    5000000    2    1    2    0    0  0.58334139189E+03  0.24248077059E+03 -0.35983090419E+03  0.94255479385E+03  0.59987261664E+03 0.  0.
         23    2    4    4    0    0  0.55553290970E+03  0.39661995305E+03 -0.29450774920E+03  0.74897973830E+03  0.91168158501E+02 0.  0.
         23    2    4    4    0    0  0.27808482195E+02 -0.15413918246E+03 -0.65323154996E+02  0.19357505555E+03  0.93123511001E+02 0.  0.
          5    1    3    3  502    0 -0.46505345281E+02 -0.34683486822E+02 -0.11516675246E+02  0.59333086946E+02  0.47000000000E+01 0. -1.
         -5    1    3    3    0  502 -0.53683604661E+03 -0.20779728377E+03  0.89267309453E+02  0.58254904911E+03  0.47000000000E+01 0.  1.
         11    1    5    5    0    0  0.17921808908E+03  0.16555145677E+03 -0.13904041571E+03  0.28081781549E+03  0.00000000000E+00 0.  1.
        -11    1    5    5    0    0  0.37631482061E+03  0.23106849629E+03 -0.15546733349E+03  0.46816192281E+03  0.00000000000E+00 0. -1.
          1    1    6    6  503    0 -0.33815822996E+02 -0.41657955166E+02 -0.14173071273E+02  0.55495685083E+02  0.00000000000E+00 0. -1.
         -1    1    6    6    0  503  0.61624305191E+02 -0.11248122729E+03 -0.51150083723E+02  0.13807937047E+03  0.00000000000E+00 0.  1.
<mgrwt>
<rscale>  0 0.75067973E+03</rscale>
<asrwt>0</asrwt>
<pdfrwt beam="1">  1        1 0.14357825E+00 0.75067973E+03</pdfrwt>
<pdfrwt beam="2">  1       -1 0.10018128E+00 0.75067973E+03</pdfrwt>
<totfact> 0.16703895E+01</totfact>
</mgrwt>
</event>
<event>
12    1  0.3203156E-008  0.1302257E+04  0.7818608E-02  0.9027778E-01
         -2   -1    0    0    0  501 -0.00000000000E+00  0.00000000000E+00  0.95473864186E+03  0.95473864186E+03  0.00000000000E+00 0.  1.
          2   -1    0    0  501    0  0.00000000000E+00 -0.00000000000E+00 -0.21489714078E+04  0.21489714078E+04  0.00000000000E+00 0. -1.
         23    2    1    2    0    0 -0.12483594879E+04 -0.21644343628E+03 -0.12961590700E+02  0.12705366071E+04  0.94053681687E+02 0.  0.
    5000000    2    1    2    0    0  0.12483594879E+04  0.21644343628E+03 -0.11812711752E+04  0.18331734425E+04  0.59989508156E+03 0.  0.
         23    2    4    4    0    0  0.11789521917E+04  0.27662350317E+03 -0.86336185053E+03  0.14900069251E+04  0.90984168579E+02 0.  0.
         23    2    4    4    0    0  0.69407296153E+02 -0.60180066886E+02 -0.31790932467E+03  0.34316651744E+03  0.90873025532E+02 0.  0.
          5    1    3    3  502    0 -0.95780222215E+03 -0.12861267755E+03 -0.24788087951E+02  0.96672791254E+03  0.47000000000E+01 0. -1.
         -5    1    3    3    0  502 -0.29055726574E+03 -0.87830758731E+02  0.11826497251E+02  0.30380869456E+03  0.47000000000E+01 0.  1.
         13    1    5    5    0    0  0.30937416288E+03  0.11360553036E+03 -0.24212783124E+03  0.40895534701E+03  0.00000000000E+00 0.  1.
        -13    1    5    5    0    0  0.86957802885E+03  0.16301797281E+03 -0.62123401929E+03  0.10810515781E+04  0.00000000000E+00 0. -1.
          4    1    6    6  503    0  0.28934379022E+02 -0.72383541183E+02 -0.26023306313E+03  0.27165754631E+03  0.00000000000E+00 0. -1.
         -4    1    6    6    0  503  0.40472917131E+02  0.12203474297E+02 -0.57676261538E+02  0.71508971123E+02  0.00000000000E+00 0.  1.
<mgrwt>
<rscale>  0 0.13022567E+04</rscale>
<asrwt>0</asrwt>
<pdfrwt beam="1">  1        2 0.33061098E+00 0.13022567E+04</pdfrwt>
<pdfrwt beam="2">  1       -2 0.14688287E+00 0.13022567E+04</pdfrwt>
<totfact> 0.16834716E+00</totfact>
</mgrwt>
</event>
<event>
12    1  0.3203156E-008  0.6257202E+03  0.7818608E-02  0.9853436E-01
          2   -1    0    0  501    0  0.00000000000E+00  0.00000000000E+00  0.20182816717E+04  0.20182816717E+04  0.00000000000E+00 0. -1.
         -2   -1    0    0    0  501 -0.00000000000E+00 -0.00000000000E+00 -0.22166813645E+03  0.22166813645E+03  0.00000000000E+00 0.  1.
         23    2    1    2    0    0  0.16042746559E+03  0.50393753784E+03  0.66661130034E+03  0.85557652869E+03  0.89165895682E+02 0.  0.
    5000000    2    1    2    0    0 -0.16042746559E+03 -0.50393753784E+03  0.11300022349E+04  0.13843732794E+04  0.59991192037E+03 0.  0.
         23    2    4    4    0    0  0.84748682817E+02 -0.43631842227E+03  0.39518740082E+03  0.60146887071E+03  0.89641596467E+02 0.  0.
         23    2    4    4    0    0 -0.24517614840E+03 -0.67619115567E+02  0.73481483407E+03  0.78290440872E+03  0.91119615309E+02 0.  0.
          5    1    3    3  502    0  0.36865405935E+02  0.35114689235E+02  0.55009761648E+02  0.75101687274E+02  0.47000000000E+01 0. -1.
         -5    1    3    3    0  502  0.12356205965E+03  0.46882284860E+03  0.61160153869E+03  0.78047484142E+03  0.47000000000E+01 0.  1.
         11    1    5    5    0    0  0.62891886388E+02 -0.11745070041E+03  0.13029872275E+03  0.18635400063E+03  0.00000000000E+00 0. -1.
        -11    1    5    5    0    0  0.21856796429E+02 -0.31886772186E+03  0.26488867807E+03  0.41511487008E+03  0.00000000000E+00 0.  1.
          3    1    6    6  503    0 -0.15870691346E+03 -0.10654325533E+02  0.53073055239E+03  0.55405443620E+03  0.00000000000E+00 0. -1.
         -3    1    6    6    0  503 -0.86469234944E+02 -0.56964790034E+02  0.20408428168E+03  0.22884997252E+03  0.00000000000E+00 0.  1.
<mgrwt>
<rscale>  0 0.62572020E+03</rscale>
<asrwt>0</asrwt>
<pdfrwt beam="1">  1        2 0.31050486E+00 0.62572020E+03</pdfrwt>
<pdfrwt beam="2">  1       -2 0.34102792E-01 0.62572020E+03</pdfrwt>
<totfact> 0.54985677E+01</totfact>
</mgrwt>
</event>
<event>
12    1  0.3203156E-008  0.7694712E+03  0.7818608E-02  0.9605289E-01
          2   -1    0    0  501    0  0.00000000000E+00  0.00000000000E+00  0.10418046889E+04  0.10418046889E+04  0.00000000000E+00 0. -1.
         -2   -1    0    0    0  501 -0.00000000000E+00 -0.00000000000E+00 -0.76436085651E+03  0.76436085651E+03  0.00000000000E+00 0.  1.
         23    2    1    2    0    0  0.27503574083E+03  0.62474042361E+03 -0.27625361053E+03  0.74195507959E+03  0.90752560102E+02 0.  0.
    5000000    2    1    2    0    0 -0.27503574083E+03 -0.62474042361E+03  0.55369744295E+03  0.10642104659E+04  0.60001483456E+03 0.  0.
         23    2    4    4    0    0 -0.29912209344E+03 -0.70567564173E+03  0.53667889126E+03  0.93919661548E+03  0.81325961958E+02 0.  0.
         23    2    4    4    0    0  0.24086352615E+02  0.80935218115E+02  0.17018551685E+02  0.12501385038E+03  0.90598950169E+02 0.  0.
          5    1    3    3  502    0  0.86988008241E+02  0.24210254789E+03 -0.61480871567E+02  0.26454214190E+03  0.47000000000E+01 0. -1.
         -5    1    3    3    0  502  0.18804773258E+03  0.38263787572E+03 -0.21477273897E+03  0.47741293769E+03  0.47000000000E+01 0.  1.
         11    1    5    5    0    0 -0.15978927267E+03 -0.43200099561E+03  0.36246669199E+03  0.58612249119E+03  0.00000000000E+00 0.  1.
        -11    1    5    5    0    0 -0.13933282077E+03 -0.27367464611E+03  0.17421219927E+03  0.35307412429E+03  0.00000000000E+00 0. -1.
          2    1    6    6  503    0  0.15609791087E+02  0.76339459440E+02  0.48707674186E+02  0.91890239797E+02  0.00000000000E+00 0.  1.
         -2    1    6    6    0  503  0.84765615278E+01  0.45957586752E+01 -0.31689122501E+02  0.33123610582E+02  0.00000000000E+00 0. -1.
<mgrwt>
<rscale>  0 0.76947123E+03</rscale>
<asrwt>0</asrwt>
<pdfrwt beam="1">  1        2 0.16027764E+00 0.76947123E+03</pdfrwt>
<pdfrwt beam="2">  1       -2 0.11759398E+00 0.76947123E+03</pdfrwt>
<totfact> 0.13426261E+01</totfact>
</mgrwt>
</event>
<event>
12    1  0.3203156E-008  0.4763678E+03  0.7818608E-02  0.1020138E+00
          1   -1    0    0  501    0  0.00000000000E+00  0.00000000000E+00  0.11068576074E+04  0.11068576074E+04  0.00000000000E+00 0. -1.
         -1   -1    0    0    0  501 -0.00000000000E+00 -0.00000000000E+00 -0.23356905359E+03  0.23356905359E+03  0.00000000000E+00 0.  1.
         23    2    1    2    0    0 -0.31465124490E+03  0.24109740156E+02  0.37862610478E+03  0.50120416023E+03  0.90891130099E+02 0.  0.
    5000000    2    1    2    0    0  0.31465124490E+03 -0.24109740156E+02  0.49466244904E+03  0.83922250077E+03  0.60001398469E+03 0.  0.
         23    2    4    4    0    0  0.18795650379E+03  0.25494341656E+03  0.12796985419E+03  0.35365464026E+03  0.91496054744E+02 0.  0.
         23    2    4    4    0    0  0.12669474111E+03 -0.27905315672E+03  0.36669259484E+03  0.48556786051E+03  0.85967821590E+02 0.  0.
          5    1    3    3  502    0 -0.26334600789E+03  0.10101606223E+02  0.25590713691E+03  0.36737408053E+03  0.47000000000E+01 0. -1.
         -5    1    3    3    0  502 -0.51305237009E+02  0.14008133933E+02  0.12271896787E+03  0.13383007971E+03  0.47000000000E+01 0.  1.
         13    1    5    5    0    0  0.58998280101E+02  0.15551702232E+03  0.74597655378E+02  0.18229413450E+03  0.00000000000E+00 0. -1.
        -13    1    5    5    0    0  0.12895822369E+03  0.99426394238E+02  0.53372198816E+02  0.17136050576E+03  0.00000000000E+00 0.  1.
          4    1    6    6  503    0  0.42092900712E+02 -0.10299257732E+03  0.19960921530E+03  0.22852378893E+03  0.00000000000E+00 0. -1.
         -4    1    6    6    0  503  0.84601840399E+02 -0.17606057939E+03  0.16708337955E+03  0.25704407158E+03  0.00000000000E+00 0.  1.
<mgrwt>
<rscale>  0 0.47636785E+03</rscale>
<asrwt>0</asrwt>
<pdfrwt beam="1">  1        1 0.17028578E+00 0.47636785E+03</pdfrwt>
<pdfrwt beam="2">  1       -1 0.35933701E-01 0.47636785E+03</pdfrwt>
<totfact> 0.97344299E+01</totfact>
</mgrwt>
</event>
<event>
12    1  0.3203156E-008  0.1003908E+04  0.7818608E-02  0.9304269E-01
         -1   -1    0    0    0  501 -0.00000000000E+00  0.00000000000E+00  0.92161719627E+03  0.92161719627E+03  0.00000000000E+00 0.  1.
          1   -1    0    0  501    0  0.00000000000E+00 -0.00000000000E+00 -0.11211018152E+04  0.11211018152E+04  0.00000000000E+00 0. -1.
         23    2    1    2    0    0  0.13993847252E+03  0.90849710596E+03 -0.19625769482E+03  0.94505405230E+03  0.98286882963E+02 0.  0.
    5000000    2    1    2    0    0 -0.13993847252E+03 -0.90849710596E+03 -0.32269241204E+01  0.10976649592E+04  0.59992348009E+03 0.  0.
         23    2    4    4    0    0  0.22289118843E+03 -0.37487634650E+03 -0.10649291050E+01  0.44565570442E+03  0.91624864316E+02 0.  0.
         23    2    4    4    0    0 -0.36282966096E+03 -0.53362075946E+03 -0.21619950154E+01  0.65200925477E+03  0.93353715960E+02 0.  0.
          5    1    3    3  502    0  0.87872516671E+02  0.62921930277E+03 -0.18051625810E+03  0.66048975738E+03  0.47000000000E+01 0. -1.
         -5    1    3    3    0  502  0.52065955852E+02  0.27927780319E+03 -0.15741436717E+02  0.28456429492E+03  0.47000000000E+01 0.  1.
         13    1    5    5    0    0  0.11898848681E+03 -0.23372865603E+03 -0.42147589507E+02  0.26563840826E+03  0.00000000000E+00 0. -1.
        -13    1    5    5    0    0  0.10390270163E+03 -0.14114769047E+03  0.41082660402E+02  0.18001729616E+03  0.00000000000E+00 0.  1.
          4    1    6    6  503    0 -0.26740173043E+03 -0.45227729453E+03  0.13873074292E+02  0.52559575604E+03  0.00000000000E+00 0.  1.
         -4    1    6    6    0  503 -0.95427930529E+02 -0.81343464939E+02 -0.16035069307E+02  0.12641349873E+03  0.00000000000E+00 0. -1.
<mgrwt>
<rscale>  0 0.10039083E+04</rscale>
<asrwt>0</asrwt>
<pdfrwt beam="1">  1        1 0.17247720E+00 0.10039083E+04</pdfrwt>
<pdfrwt beam="2">  1       -1 0.14178726E+00 0.10039083E+04</pdfrwt>
<totfact> 0.49683060E+00</totfact>
</mgrwt>
</event>
<event>
12    1  0.3203156E-008  0.6076589E+03  0.7818608E-02  0.9889643E-01
         -1   -1    0    0    0  501 -0.00000000000E+00  0.00000000000E+00  0.18092285979E+03  0.18092285979E+03  0.00000000000E+00 0.  1.
          1   -1    0    0  501    0  0.00000000000E+00 -0.00000000000E+00 -0.30027813203E+04  0.30027813203E+04  0.00000000000E+00 0. -1.
         23    2    1    2    0    0  0.28129297134E+03 -0.38216981214E+03 -0.20141917015E+04  0.20712601148E+04  0.89279067141E+02 0.  0.
    5000000    2    1    2    0    0 -0.28129297134E+03  0.38216981214E+03 -0.80766675905E+03  0.11124440653E+04  0.60002225268E+03 0.  0.
         23    2    4    4    0    0 -0.14600596594E+03  0.51945472225E+03 -0.52948420486E+03  0.76160016131E+03  0.92359796161E+02 0.  0.
         23    2    4    4    0    0 -0.13528700540E+03 -0.13728491010E+03 -0.27818255418E+03  0.35084390399E+03  0.92499681857E+02 0.  0.
          5    1    3    3  502    0  0.26587811326E+03 -0.36974317075E+03 -0.19778431881E+04  0.20296026582E+04  0.47000000000E+01 0. -1.
         -5    1    3    3    0  502  0.15414858080E+02 -0.12426641393E+02 -0.36348513317E+02  0.41657456551E+02  0.47000000000E+01 0.  1.
         13    1    5    5    0    0 -0.11290893655E+03  0.25541024796E+03 -0.30412351292E+03  0.41288489174E+03  0.00000000000E+00 0.  1.
        -13    1    5    5    0    0 -0.33097029385E+02  0.26404447428E+03 -0.22536069195E+03  0.34871526956E+03  0.00000000000E+00 0. -1.
          3    1    6    6  503    0 -0.17924562348E+02 -0.31101838964E+02 -0.65840086403E+01  0.36496075023E+02  0.00000000000E+00 0. -1.
         -3    1    6    6    0  503 -0.11736244305E+03 -0.10618307114E+03 -0.27159854554E+03  0.31434782897E+03  0.00000000000E+00 0.  1.
<mgrwt>
<rscale>  0 0.60765886E+03</rscale>
<asrwt>0</asrwt>
<pdfrwt beam="1">  1        1 0.46196632E+00 0.60765886E+03</pdfrwt>
<pdfrwt beam="2">  1       -1 0.27834288E-01 0.60765886E+03</pdfrwt>
<totfact> 0.75743869E+00</totfact>
</mgrwt>
</event>
<event>
12    1  0.3203156E-008  0.4119111E+03  0.7818608E-02  0.1039732E+00
         -2   -1    0    0    0  501 -0.00000000000E+00  0.00000000000E+00  0.37981996596E+03  0.37981996596E+03  0.00000000000E+00 0. -1.
          2   -1    0    0  501    0  0.00000000000E+00 -0.00000000000E+00 -0.26738739903E+04  0.26738739903E+04  0.00000000000E+00 0.  1.
         23    2    1    2    0    0  0.12364851728E+03 -0.15433039658E+03  0.30719948159E+03  0.37665526239E+03  0.91601517786E+02 0.  0.
    5000000    2    1    2    0    0 -0.12364851728E+03  0.15433039658E+03 -0.26012535060E+04  0.26770386939E+04  0.60075747124E+03 0.  0.
         23    2    4    4    0    0 -0.29868210437E+03 -0.77387748927E+02 -0.11397908190E+04  0.11840774337E+04  0.87843011834E+02 0.  0.
         23    2    4    4    0    0  0.17503358709E+03  0.23171814551E+03 -0.14614626870E+04  0.14929612603E+04  0.93434916212E+02 0.  0.
          5    1    3    3  502    0  0.25033331333E+01 -0.67577601092E+02  0.79260906518E+02  0.10429467939E+03  0.47000000000E+01 0. -1.
         -5    1    3    3    0  502  0.12114518415E+03 -0.86752795491E+02  0.22793857508E+03  0.27236058301E+03  0.47000000000E+01 0.  1.
         11    1    5    5    0    0 -0.20774340785E+03 -0.19395666255E+02 -0.65479791912E+03  0.68723637146E+03  0.00000000000E+00 0. -1.
        -11    1    5    5    0    0 -0.90938696522E+02 -0.57992082673E+02 -0.48499289986E+03  0.49684106220E+03  0.00000000000E+00 0.  1.
          1    1    6    6  503    0  0.76670462037E+01  0.12236420916E+02 -0.16734896011E+02  0.22103627278E+02  0.00000000000E+00 0. -1.
         -1    1    6    6    0  503  0.16736654088E+03  0.21948172459E+03 -0.14447277910E+04  0.14708576330E+04  0.00000000000E+00 0.  1.
<mgrwt>
<rscale>  0 0.41191113E+03</rscale>
<asrwt>0</asrwt>
<pdfrwt beam="1">  1        2 0.41136524E+00 0.41191113E+03</pdfrwt>
<pdfrwt beam="2">  1       -2 0.58433839E-01 0.41191113E+03</pdfrwt>
<totfact> 0.86107403E+00</totfact>
</mgrwt>
</event>
<event>
12    1  0.3203156E-008  0.3693270E+03  0.7818608E-02  0.1054951E+00
          2   -1    0    0  501    0  0.00000000000E+00  0.00000000000E+00  0.27995750662E+04  0.27995750662E+04  0.00000000000E+00 0. -1.
         -2   -1    0    0    0  501 -0.00000000000E+00 -0.00000000000E+00 -0.76172096630E+02  0.76172096630E+02  0.00000000000E+00 0.  1.
         23    2    1    2    0    0  0.60210896242E+02 -0.24494705994E+03  0.91560503819E+03  0.95423091827E+03  0.92734272064E+02 0.  0.
    5000000    2    1    2    0    0 -0.60210896242E+02  0.24494705994E+03  0.18077979314E+04  0.19215162445E+04  0.60038895994E+03 0.  0.
         23    2    4    4    0    0 -0.20282863595E+03  0.51106430385E+02  0.23406106941E+03  0.32718358161E+03  0.92266944628E+02 0.  0.
         23    2    4    4    0    0  0.14261773971E+03  0.19384062956E+03  0.15737368619E+04  0.15943326629E+04  0.85644148066E+02 0.  0.
          5    1    3    3  502    0 -0.67346523708E+01 -0.16089901835E+03  0.53739543933E+03  0.56102566595E+03  0.47000000000E+01 0. -1.
         -5    1    3    3    0  502  0.66945548613E+02 -0.84048041595E+02  0.37820959887E+03  0.39320525232E+03  0.47000000000E+01 0.  1.
         13    1    5    5    0    0 -0.36558149135E+01 -0.17291802218E+02  0.13568017303E+02  0.22281438467E+02  0.00000000000E+00 0. -1.
        -13    1    5    5    0    0 -0.19917282104E+03  0.68398232603E+02  0.22049305211E+03  0.30490214314E+03  0.00000000000E+00 0.  1.
          3    1    6    6  503    0  0.32527254180E+02  0.29449756761E+02  0.13243419115E+03  0.13951388972E+03  0.00000000000E+00 0. -1.
         -3    1    6    6    0  503  0.11009048553E+03  0.16439087280E+03  0.14413026708E+04  0.14548187732E+04  0.00000000000E+00 0.  1.
<mgrwt>
<rscale>  0 0.36932699E+03</rscale>
<asrwt>0</asrwt>
<pdfrwt beam="1">  1        2 0.43070378E+00 0.36932699E+03</pdfrwt>
<pdfrwt beam="2">  1       -2 0.11718786E-01 0.36932699E+03</pdfrwt>
<totfact> 0.13667266E+02</totfact>
</mgrwt>
</event>
<event>
12    1  0.3203156E-008  0.1622112E+04  0.7818608E-02  0.8807078E-01
         -2   -1    0    0    0  501 -0.00000000000E+00  0.00000000000E+00  0.20992838307E+04  0.20992838307E+04  0.00000000000E+00 0.  1.
          2   -1    0    0  501    0  0.00000000000E+00 -0.00000000000E+00 -0.17326462457E+04  0.17326462457E+04  0.00000000000E+00 0. -1.
         23    2    1    2    0    0  0.15326363886E+04  0.36162187130E+03  0.11711186806E+04  0.19645728028E+04  0.91009097898E+02 0.  0.
    5000000    2    1    2    0    0 -0.15326363886E+04 -0.36162187130E+03 -0.80448109551E+03  0.18673572736E+04  0.60007389261E+03 0.  0.
         23    2    4    4    0    0 -0.78116642966E+03 -0.46157654374E+03 -0.33948052844E+03  0.97316667617E+03  0.92371282587E+02 0.  0.
         23    2    4    4    0    0 -0.75146995898E+03  0.99954672439E+02 -0.46500056707E+03  0.89419059742E+03  0.93022907670E+02 0.  0.
          5    1    3    3  502    0  0.94372232056E+03  0.20687260180E+03  0.66653451313E+03  0.11737539942E+04  0.47000000000E+01 0. -1.
         -5    1    3    3    0  502  0.58891406808E+03  0.15474926951E+03  0.50458416747E+03  0.79081880861E+03  0.47000000000E+01 0.  1.
         13    1    5    5    0    0 -0.55029147526E+02 -0.59440017947E+02 -0.43337891250E+02  0.91866727540E+02  0.00000000000E+00 0. -1.
        -13    1    5    5    0    0 -0.72613728213E+03 -0.40213652579E+03 -0.29614263720E+03  0.88129994863E+03  0.00000000000E+00 0.  1.
          4    1    6    6  503    0 -0.14482280597E+03  0.20994440931E+02 -0.13499985764E+03  0.19909639183E+03  0.00000000000E+00 0. -1.
         -4    1    6    6    0  503 -0.60664715301E+03  0.78960231508E+02 -0.33000070943E+03  0.69509420559E+03  0.00000000000E+00 0.  1.
<mgrwt>
<rscale>  0 0.16221116E+04</rscale>
<asrwt>0</asrwt>
<pdfrwt beam="1">  1        2 0.26656096E+00 0.16221116E+04</pdfrwt>
<pdfrwt beam="2">  1       -2 0.32296674E+00 0.16221116E+04</pdfrwt>
<totfact> 0.20008823E-01</totfact>
</mgrwt>
</event>
<event>
12    1  0.3203156E-008  0.9448820E+03  0.7818608E-02  0.9371153E-01
          1   -1    0    0  501    0  0.00000000000E+00  0.00000000000E+00  0.85762647496E+03  0.85762647496E+03  0.00000000000E+00 0. -1.
         -1   -1    0    0    0  501 -0.00000000000E+00 -0.00000000000E+00 -0.10595117042E+04  0.10595117042E+04  0.00000000000E+00 0.  1.
         23    2    1    2    0    0  0.26539165156E+03 -0.80690450624E+03 -0.20004481604E+03  0.87716384223E+03  0.88717905704E+02 0.  0.
    5000000    2    1    2    0    0 -0.26539165156E+03  0.80690450624E+03 -0.18404132229E+01  0.10399743369E+04  0.60001301942E+03 0.  0.
         23    2    4    4    0    0 -0.22099249438E+03  0.88177095406E+03  0.55739863297E+01  0.91345915500E+03  0.89548090600E+02 0.  0.
         23    2    4    4    0    0 -0.44399157186E+02 -0.74866447822E+02 -0.74143995526E+01  0.12651518194E+03  0.91514194381E+02 0.  0.
          5    1    3    3  502    0  0.18900060946E+03 -0.63330055351E+03 -0.12236052896E+03  0.67214954474E+03  0.47000000000E+01 0. -1.
         -5    1    3    3    0  502  0.76391042104E+02 -0.17360395273E+03 -0.77684287079E+02  0.20501429749E+03  0.47000000000E+01 0.  1.
         11    1    5    5    0    0 -0.15441594494E+03  0.44535777113E+03  0.19583689094E+02  0.47177468058E+03  0.00000000000E+00 0. -1.
        -11    1    5    5    0    0 -0.66576549435E+02  0.43641318293E+03 -0.14009702764E+02  0.44168447441E+03  0.00000000000E+00 0.  1.
          2    1    6    6  503    0 -0.71242931090E+02 -0.38173631807E+02 -0.40455671889E+01  0.80926806495E+02  0.00000000000E+00 0. -1.
         -2    1    6    6    0  503  0.26843773904E+02 -0.36692816015E+02 -0.33688323637E+01  0.45588375449E+02  0.00000000000E+00 0.  1.
<mgrwt>
<rscale>  0 0.94488201E+03</rscale>
<asrwt>0</asrwt>
<pdfrwt beam="1">  1        1 0.13194254E+00 0.94488201E+03</pdfrwt>
<pdfrwt beam="2">  1       -1 0.16300180E+00 0.94488201E+03</pdfrwt>
<totfact> 0.55223860E+00</totfact>
</mgrwt>
</event>
<event>
12    1  0.3203156E-008  0.1961628E+04  0.7818608E-02  0.8624774E-01
          2   -1    0    0  501    0  0.00000000000E+00  0.00000000000E+00  0.43807082905E+04  0.43807082905E+04  0.00000000000E+00 0. -1.
         -2   -1    0    0    0  501 -0.00000000000E+00 -0.00000000000E+00 -0.96762723568E+03  0.96762723568E+03  0.00000000000E+00 0.  1.
         23    2    1    2    0    0  0.83829554608E+03 -0.17252008909E+04  0.24694862153E+04  0.31281357837E+04  0.88395572322E+02 0.  0.
    5000000    2    1    2    0    0 -0.83829554608E+03  0.17252008909E+04  0.94359483951E+03  0.22201997424E+04  0.59988177046E+03 0.  0.
         23    2    4    4    0    0 -0.30170324494E+03  0.12476128246E+04  0.59699685765E+03  0.14182448289E+04  0.86316502229E+02 0.  0.
         23    2    4    4    0    0 -0.53659230114E+03  0.47758806632E+03  0.34659798186E+03  0.80195491353E+03  0.83545577805E+02 0.  0.
          5    1    3    3  502    0  0.22383162349E+03 -0.48454982141E+03  0.75001060017E+03  0.92055804568E+03  0.47000000000E+01 0. -1.
         -5    1    3    3    0  502  0.61446392259E+03 -0.12406510695E+04  0.17194756151E+04  0.22075777380E+04  0.47000000000E+01 0.  1.
         13    1    5    5    0    0 -0.78789021226E+02  0.43016520297E+03  0.16742271167E+03  0.46827361243E+03  0.00000000000E+00 0. -1.
        -13    1    5    5    0    0 -0.22291422372E+03  0.81744762163E+03  0.42957414598E+03  0.94997121648E+03  0.00000000000E+00 0.  1.
          3    1    6    6  503    0 -0.19227232405E+02  0.54961211201E+01  0.22852432000E+02  0.30366551692E+02  0.00000000000E+00 0. -1.
         -3    1    6    6    0  503 -0.51736506873E+03  0.47209194520E+03  0.32374554986E+03  0.77158836184E+03  0.00000000000E+00 0.  1.
<mgrwt>
<rscale>  0 0.19616281E+04</rscale>
<asrwt>0</asrwt>
<pdfrwt beam="1">  1        2 0.67395511E+00 0.19616281E+04</pdfrwt>
<pdfrwt beam="2">  1       -2 0.14886573E+00 0.19616281E+04</pdfrwt>
<totfact> 0.44609494E-02</totfact>
</mgrwt>
</event>
<event>
12    1  0.3203156E-008  0.5681556E+03  0.7818608E-02  0.9973768E-01
          2   -1    0    0  501    0  0.00000000000E+00  0.00000000000E+00  0.13461311268E+04  0.13461311268E+04  0.00000000000E+00 0. -1.
         -2   -1    0    0    0  501 -0.00000000000E+00 -0.00000000000E+00 -0.32673547990E+03  0.32673547990E+03  0.00000000000E+00 0.  1.
         23    2    1    2    0    0 -0.17544808662E+03 -0.37460921381E+03  0.81058827097E+03  0.91483942094E+03  0.93614779249E+02 0.  0.
    5000000    2    1    2    0    0  0.17544808662E+03  0.37460921381E+03  0.20880737598E+03  0.75802718581E+03  0.59990882640E+03 0.  0.
         23    2    4    4    0    0 -0.68695710177E+02 -0.11997418398E+03  0.83168493806E+02  0.18517476341E+03  0.90883382560E+02 0.  0.
         23    2    4    4    0    0  0.24414379680E+03  0.49458339779E+03  0.12563888217E+03  0.57285242240E+03  0.90309679719E+02 0.  0.
          5    1    3    3  502    0 -0.41350149808E+02 -0.15930442846E+03  0.24780655692E+03  0.29751960518E+03  0.47000000000E+01 0. -1.
         -5    1    3    3    0  502 -0.13409793681E+03 -0.21530478535E+03  0.56278171405E+03  0.61731981575E+03  0.47000000000E+01 0.  1.
         13    1    5    5    0    0  0.15300297318E+02 -0.20666321591E+01  0.24526333828E+02  0.28981220084E+02  0.00000000000E+00 0. -1.
        -13    1    5    5    0    0 -0.83996007495E+02 -0.11790755182E+03  0.58642159978E+02  0.15619354333E+03  0.00000000000E+00 0.  1.
          4    1    6    6  503    0  0.35038070225E+02  0.23045372324E+02  0.19378474395E+02  0.46198277246E+02  0.00000000000E+00 0. -1.
         -4    1    6    6    0  503  0.20910572657E+03  0.47153802546E+03  0.10626040778E+03  0.52665414515E+03  0.00000000000E+00 0.  1.
<mgrwt>
<rscale>  0 0.56815558E+03</rscale>
<asrwt>0</asrwt>
<pdfrwt beam="1">  1        2 0.20709709E+00 0.56815558E+03</pdfrwt>
<pdfrwt beam="2">  1       -2 0.50266998E-01 0.56815558E+03</pdfrwt>
<totfact> 0.60479428E+01</totfact>
</mgrwt>
</event>
<event>
12    1  0.3203156E-008  0.4580432E+03  0.7818608E-02  0.1025350E+00
         -1   -1    0    0    0  501 -0.00000000000E+00  0.00000000000E+00  0.20531523733E+03  0.20531523733E+03  0.00000000000E+00 0.  1.
          1   -1    0    0  501    0  0.00000000000E+00 -0.00000000000E+00 -0.12370452741E+04  0.12370452741E+04  0.00000000000E+00 0. -1.
         23    2    1    2    0    0  0.19951056605E+03 -0.23911157768E+03 -0.42165498055E+03  0.53177515087E+03  0.89515785843E+02 0.  0.
    5000000    2    1    2    0    0 -0.19951056605E+03  0.23911157768E+03 -0.61007505627E+03  0.91058536060E+03  0.59999609341E+03 0.  0.
         23    2    4    4    0    0 -0.32672073931E+03  0.21670733120E+02 -0.13797637441E+03  0.36692224378E+03  0.91533550756E+02 0.  0.
         23    2    4    4    0    0  0.12721017326E+03  0.21744084456E+03 -0.47209868186E+03  0.54366311682E+03  0.96070131246E+02 0.  0.
          5    1    3    3  502    0  0.86193051336E+02 -0.10572262170E+03 -0.25915430260E+03  0.29289854454E+03  0.47000000000E+01 0. -1.
         -5    1    3    3    0  502  0.11331751472E+03 -0.13338895598E+03 -0.16250067795E+03  0.23887660633E+03  0.47000000000E+01 0.  1.
         13    1    5    5    0    0 -0.87960036387E+02 -0.26715542496E+02 -0.12134385772E+02  0.92725031842E+02  0.00000000000E+00 0.  1.
        -13    1    5    5    0    0 -0.23876070293E+03  0.48386275617E+02 -0.12584198864E+03  0.27419721194E+03  0.00000000000E+00 0. -1.
          3    1    6    6  503    0  0.85128956296E+01  0.10540973880E+03 -0.20421453949E+03  0.22997230391E+03  0.00000000000E+00 0. -1.
         -3    1    6    6    0  503  0.11869727763E+03  0.11203110576E+03 -0.26788414237E+03  0.31369081291E+03  0.00000000000E+00 0.  1.
<mgrwt>
<rscale>  0 0.45804322E+03</rscale>
<asrwt>0</asrwt>
<pdfrwt beam="1">  1        1 0.19031466E+00 0.45804322E+03</pdfrwt>
<pdfrwt beam="2">  1       -1 0.31586960E-01 0.45804322E+03</pdfrwt>
<totfact> 0.98625178E+01</totfact>
</mgrwt>
</event>
<event>
12    1  0.3203156E-008  0.4945710E+03  0.7818608E-02  0.1015206E+00
          2   -1    0    0  501    0  0.00000000000E+00  0.00000000000E+00  0.25502901650E+03  0.25502901650E+03  0.00000000000E+00 0. -1.
         -2   -1    0    0    0  501 -0.00000000000E+00 -0.00000000000E+00 -0.10690871042E+04  0.10690871042E+04  0.00000000000E+00 0.  1.
         23    2    1    2    0    0  0.24728657135E+03  0.20931223108E+03 -0.13786753457E+03  0.36383348931E+03  0.91679290994E+02 0.  0.
    5000000    2    1    2    0    0 -0.24728657135E+03 -0.20931223108E+03 -0.67619055317E+03  0.96028263142E+03  0.59995567301E+03 0.  0.
         23    2    4    4    0    0 -0.33416401272E+03  0.80089526639E+02 -0.44213981047E+03  0.56731335009E+03  0.90977500029E+02 0.  0.
         23    2    4    4    0    0  0.86877441367E+02 -0.28940175772E+03 -0.23405074270E+03  0.39296928134E+03  0.91345709944E+02 0.  0.
          5    1    3    3  502    0  0.21416739564E+03  0.14031085726E+03 -0.81755121930E+02  0.26881369009E+03  0.47000000000E+01 0. -1.
         -5    1    3    3    0  502  0.33119175717E+02  0.69001373825E+02 -0.56112412644E+02  0.95019799214E+02  0.47000000000E+01 0.  1.
         13    1    5    5    0    0 -0.15490200426E+03  0.48507416087E+01 -0.24887255571E+03  0.29318204174E+03  0.00000000000E+00 0. -1.
        -13    1    5    5    0    0 -0.17926200846E+03  0.75238785031E+02 -0.19326725476E+03  0.27413130834E+03  0.00000000000E+00 0.  1.
          1    1    6    6  503    0  0.48910816179E+02 -0.76989853327E+02 -0.11415000584E+03  0.14611614999E+03  0.00000000000E+00 0. -1.
         -1    1    6    6    0  503  0.37966625189E+02 -0.21241190440E+03 -0.11990073686E+03  0.24685313135E+03  0.00000000000E+00 0.  1.
<mgrwt>
<rscale>  0 0.49457101E+03</rscale>
<asrwt>0</asrwt>
<pdfrwt beam="1">  1        2 0.39235233E-01 0.49457101E+03</pdfrwt>
<pdfrwt beam="2">  1       -2 0.16447494E+00 0.49457101E+03</pdfrwt>
<totfact> 0.31787714E+01</totfact>
</mgrwt>
</event>
<event>
12    1  0.3203156E-008  0.3672351E+03  0.7818608E-02  0.1055755E+00
         -1   -1    0    0    0  501 -0.00000000000E+00  0.00000000000E+00  0.36791624545E+03  0.36791624545E+03  0.00000000000E+00 0.  1.
          1   -1    0    0  501    0  0.00000000000E+00 -0.00000000000E+00 -0.10506721018E+04  0.10506721018E+04  0.00000000000E+00 0. -1.
         23    2    1    2    0    0  0.26177751176E+02  0.32433878835E+03  0.12495036704E+03  0.36103776460E+03  0.94099675663E+02 0.  0.
    5000000    2    1    2    0    0 -0.26177751176E+02 -0.32433878835E+03 -0.80770622334E+03  0.10575505826E+04  0.60011912757E+03 0.  0.
         23    2    4    4    0    0  0.19750642652E+02 -0.30315057369E+03 -0.87925986764E+03  0.93361645091E+03  0.79065822907E+02 0.  0.
         23    2    4    4    0    0 -0.45928393828E+02 -0.21188214660E+02  0.71553644308E+02  0.12393413170E+03  0.87643523352E+02 0.  0.
          5    1    3    3  502    0  0.98707586219E+01  0.11540408404E+03  0.93790620441E+02  0.14911171977E+03  0.47000000000E+01 0. -1.
         -5    1    3    3    0  502  0.16306992554E+02  0.20893470431E+03  0.31159746598E+02  0.21192604483E+03  0.47000000000E+01 0.  1.
         13    1    5    5    0    0 -0.19985268467E+02 -0.15469048658E+03 -0.51936055234E+03  0.54227662767E+03  0.00000000000E+00 0.  1.
        -13    1    5    5    0    0  0.39735911118E+02 -0.14846008710E+03 -0.35989931531E+03  0.39133982324E+03  0.00000000000E+00 0. -1.
          2    1    6    6  503    0  0.61798905684E+01  0.27357528520E+02  0.99186897628E+01  0.29749047393E+02  0.00000000000E+00 0. -1.
         -2    1    6    6    0  503 -0.52108284396E+02 -0.48545743180E+02  0.61634954545E+02  0.94185084304E+02  0.00000000000E+00 0.  1.
<mgrwt>
<rscale>  0 0.36723506E+03</rscale>
<asrwt>0</asrwt>
<pdfrwt beam="1">  1        1 0.16164186E+00 0.36723506E+03</pdfrwt>
<pdfrwt beam="2">  1       -1 0.56602500E-01 0.36723506E+03</pdfrwt>
<totfact> 0.47299526E+01</totfact>
</mgrwt>
</event>
<event>
12    1  0.3203156E-008  0.5181219E+03  0.7818608E-02  0.1009154E+00
         -2   -1    0    0    0  501 -0.00000000000E+00  0.00000000000E+00  0.16613513642E+04  0.16613513642E+04  0.00000000000E+00 0.  1.
          2   -1    0    0  501    0  0.00000000000E+00 -0.00000000000E+00 -0.20029194161E+03  0.20029194161E+03  0.00000000000E+00 0. -1.
         23    2    1    2    0    0 -0.32730757290E+03  0.18982314897E+03  0.26436996390E+03  0.47051246929E+03  0.91254757598E+02 0.  0.
    5000000    2    1    2    0    0  0.32730757290E+03 -0.18982314897E+03  0.11966894586E+04  0.13911308365E+04  0.60001355702E+03 0.  0.
         23    2    4    4    0    0 -0.28279084642E+02  0.14685182839E+03  0.13371588488E+03  0.21725858451E+03  0.83403768160E+02 0.  0.
         23    2    4    4    0    0  0.35558665754E+03 -0.33667497736E+03  0.10629735738E+04  0.11738722520E+04  0.90946874734E+02 0.  0.
          5    1    3    3  502    0 -0.31122497926E+03  0.17661126946E+03  0.21691601616E+03  0.41848199039E+03  0.47000000000E+01 0.  1.
         -5    1    3    3    0  502 -0.16082593638E+02  0.13211879508E+02  0.47453947740E+02  0.52030478898E+02  0.47000000000E+01 0.  1.
         13    1    5    5    0    0 -0.24348606384E+01 -0.89634450430E+01  0.21761376939E+02  0.23660714691E+02  0.00000000000E+00 0. -1.
        -13    1    5    5    0    0 -0.25844224004E+02  0.15581527343E+03  0.11195450794E+03  0.19359786982E+03  0.00000000000E+00 0.  1.
          4    1    6    6  503    0  0.54119876525E+02 -0.46134668480E+02  0.90494504881E+02  0.11509397936E+03  0.00000000000E+00 0. -1.
         -4    1    6    6    0  503  0.30146678101E+03 -0.29054030888E+03  0.97247906888E+03  0.10587782726E+04  0.00000000000E+00 0.  1.
<mgrwt>
<rscale>  0 0.51812189E+03</rscale>
<asrwt>0</asrwt>
<pdfrwt beam="1">  1        2 0.30814146E-01 0.51812189E+03</pdfrwt>
<pdfrwt beam="2">  1       -2 0.25559251E+00 0.51812189E+03</pdfrwt>
<totfact> 0.10835922E+01</totfact>
</mgrwt>
</event>
<event>
12    1  0.3203156E-008  0.4551098E+03  0.7818608E-02  0.1026209E+00
          2   -1    0    0  501    0  0.00000000000E+00  0.00000000000E+00  0.17903404922E+04  0.17903404922E+04  0.00000000000E+00 0. -1.
         -2   -1    0    0    0  501 -0.00000000000E+00 -0.00000000000E+00 -0.18359585719E+03  0.18359585719E+03  0.00000000000E+00 0.  1.
         23    2    1    2    0    0  0.20707159039E+03  0.35338725631E+03  0.54206938854E+03  0.68601790867E+03  0.94974483677E+02 0.  0.
    5000000    2    1    2    0    0 -0.20707159039E+03 -0.35338725631E+03  0.10646752464E+04  0.12879184407E+04  0.59786230273E+03 0.  0.
         23    2    4    4    0    0 -0.97907623983E+00 -0.21165574281E+03  0.44766239850E+02  0.23389943892E+03  0.88914673941E+02 0.  0.
         23    2    4    4    0    0 -0.20609251415E+03 -0.14173151351E+03  0.10199090066E+04  0.10540190018E+04  0.90441849129E+02 0.  0.
          5    1    3    3  502    0  0.60659709838E+02  0.18968156319E+03  0.22824708576E+03  0.30294804500E+03  0.47000000000E+01 0. -1.
         -5    1    3    3    0  502  0.14641188055E+03  0.16370569312E+03  0.31382230278E+03  0.38306986366E+03  0.47000000000E+01 0.  1.
         13    1    5    5    0    0 -0.23995786940E+02 -0.20355384734E+03  0.36873994626E+02  0.20825383079E+03  0.00000000000E+00 0. -1.
        -13    1    5    5    0    0  0.23016710700E+02 -0.81018954649E+01  0.78922452236E+01  0.25645608128E+02  0.00000000000E+00 0.  1.
          3    1    6    6  503    0 -0.98914652858E+02 -0.11466754077E+03  0.67710331936E+03  0.69383114555E+03  0.00000000000E+00 0. -1.
         -3    1    6    6    0  503 -0.10717786129E+03 -0.27063972736E+02  0.34280568723E+03  0.36018785622E+03  0.00000000000E+00 0.  1.
<mgrwt>
<rscale>  0 0.45510983E+03</rscale>
<asrwt>0</asrwt>
<pdfrwt beam="1">  1        2 0.27543699E+00 0.45510983E+03</pdfrwt>
<pdfrwt beam="2">  1       -2 0.28245518E-01 0.45510983E+03</pdfrwt>
<totfact> 0.10625334E+02</totfact>
</mgrwt>
</event>
<event>
12    1  0.3203156E-008  0.5504728E+03  0.7818608E-02  0.1001385E+00
         -1   -1    0    0    0  501 -0.00000000000E+00  0.00000000000E+00  0.86910232434E+03  0.86910232434E+03  0.00000000000E+00 0.  1.
          1   -1    0    0  501    0  0.00000000000E+00 -0.00000000000E+00 -0.39379702278E+03  0.39379702278E+03  0.00000000000E+00 0. -1.
         23    2    1    2    0    0 -0.10959451769E+03  0.38926423725E+03  0.34844040773E+02  0.41605715185E+03  0.91388411316E+02 0.  0.
    5000000    2    1    2    0    0  0.10959451769E+03 -0.38926423725E+03  0.44046126079E+03  0.84684219528E+03  0.59966488703E+03 0.  0.
         23    2    4    4    0    0 -0.63747349752E+02 -0.47806467558E+03  0.38128821027E+03  0.62139773945E+03  0.90249059082E+02 0.  0.
         23    2    4    4    0    0  0.17334186744E+03  0.88800438335E+02  0.59173050516E+02  0.22544445583E+03  0.96906304746E+02 0.  0.
          5    1    3    3  502    0 -0.10657929731E+03  0.21845916151E+03  0.95959596083E+01  0.24330582464E+03  0.47000000000E+01 0. -1.
         -5    1    3    3    0  502 -0.30152203785E+01  0.17080507573E+03  0.25248081165E+02  0.17275132721E+03  0.47000000000E+01 0.  1.
         11    1    5    5    0    0  0.43471879474E+01 -0.27486381398E+03  0.23790149639E+03  0.36354660811E+03  0.00000000000E+00 0. -1.
        -11    1    5    5    0    0 -0.68094537700E+02 -0.20320086160E+03  0.14338671388E+03  0.25785113134E+03  0.00000000000E+00 0.  1.
          2    1    6    6  503    0  0.15131198627E+03  0.89288811425E+02  0.81851921300E+02  0.19382349201E+03  0.00000000000E+00 0. -1.
         -2    1    6    6    0  503  0.22029881170E+02 -0.48837309034E+00 -0.22678870783E+02  0.31620963816E+02  0.00000000000E+00 0.  1.
<mgrwt>
<rscale>  0 0.55047281E+03</rscale>
<asrwt>0</asrwt>
<pdfrwt beam="1">  1        1 0.60584158E-01 0.55047281E+03</pdfrwt>
<pdfrwt beam="2">  1       -1 0.13370805E+00 0.55047281E+03</pdfrwt>
<totfact> 0.30254979E+01</totfact>
</mgrwt>
</event>
<event>
12    1  0.3203156E-008  0.1521221E+04  0.7818608E-02  0.8870463E-01
         -2   -1    0    0    0  501 -0.00000000000E+00  0.00000000000E+00  0.23340035903E+04  0.23340035903E+04  0.00000000000E+00 0.  1.
          2   -1    0    0  501    0  0.00000000000E+00 -0.00000000000E+00 -0.36041273165E+04  0.36041273165E+04  0.00000000000E+00 0. -1.
         23    2    1    2    0    0  0.12369718425E+04 -0.82510237494E+03  0.18828402641E+04  0.24008933899E+04  0.91150103615E+02 0.  0.
    5000000    2    1    2    0    0 -0.12369718425E+04  0.82510237494E+03 -0.31529639903E+04  0.35372375170E+04  0.59997838242E+03 0.  0.
         23    2    4    4    0    0 -0.11039744984E+04  0.52088744627E+03 -0.21167657848E+04  0.24451737693E+04  0.89966379223E+02 0.  0.
         23    2    4    4    0    0 -0.13299734408E+03  0.30421492867E+03 -0.10361982054E+04  0.10920637477E+04  0.93067135497E+02 0.  0.
          5    1    3    3  502    0  0.42364896570E+03 -0.32129537044E+03  0.72000997763E+03  0.89506738243E+03  0.47000000000E+01 0. -1.
         -5    1    3    3    0  502  0.81332287676E+03 -0.50380700450E+03  0.11628302865E+04  0.15058260075E+04  0.47000000000E+01 0.  1.
         11    1    5    5    0    0 -0.14115342694E+03  0.83355713458E+02 -0.23386229333E+03  0.28559418261E+03  0.00000000000E+00 0.  1.
        -11    1    5    5    0    0 -0.96282107144E+03  0.43753173281E+03 -0.18829034915E+04  0.21595795867E+04  0.00000000000E+00 0. -1.
          2    1    6    6  503    0 -0.25675937930E+02  0.77653429796E+02 -0.39954756949E+03  0.40783277116E+03  0.00000000000E+00 0. -1.
         -2    1    6    6    0  503 -0.10732140615E+03  0.22656149887E+03 -0.63665063595E+03  0.68423097654E+03  0.00000000000E+00 0.  1.
<mgrwt>
<rscale>  0 0.15212205E+04</rscale>
<asrwt>0</asrwt>
<pdfrwt beam="1">  1        2 0.55448112E+00 0.15212205E+04</pdfrwt>
<pdfrwt beam="2">  1       -2 0.35907748E+00 0.15212205E+04</pdfrwt>
<totfact> 0.88403050E-03</totfact>
</mgrwt>
</event>
<event>
12    1  0.3203156E-008  0.8518722E+03  0.7818608E-02  0.9487828E-01
          2   -1    0    0  501    0  0.00000000000E+00  0.00000000000E+00  0.21506839500E+04  0.21506839500E+04  0.00000000000E+00 0. -1.
         -2   -1    0    0    0  501 -0.00000000000E+00 -0.00000000000E+00 -0.68675481195E+03  0.68675481195E+03  0.00000000000E+00 0.  1.
         23    2    1    2    0    0 -0.76180710538E+03  0.19805717713E+03  0.16499501241E+04  0.18303782588E+04  0.91501076662E+02 0.  0.
    5000000    2    1    2    0    0  0.76180710538E+03 -0.19805717713E+03 -0.18602098602E+03  0.10070605032E+04  0.59999194877E+03 0.  0.
         23    2    4    4    0    0  0.22400223800E+03 -0.27810039017E+03 -0.25860197946E+03  0.45044358171E+03  0.92236689457E+02 0.  0.
         23    2    4    4    0    0  0.53780486738E+03  0.80043213048E+02  0.72580993431E+02  0.55661692146E+03  0.94410832651E+02 0.  0.
          5    1    3    3  502    0 -0.15931431099E+03  0.72236892463E+02  0.31435786572E+03  0.35978073331E+03  0.47000000000E+01 0. -1.
         -5    1    3    3    0  502 -0.60249279439E+03  0.12582028466E+03  0.13355922583E+04  0.14705975255E+04  0.47000000000E+01 0.  1.
         13    1    5    5    0    0  0.15563627297E+03 -0.24553753036E+03 -0.18342002538E+03  0.34373570369E+03  0.00000000000E+00 0.  1.
        -13    1    5    5    0    0  0.68365965028E+02 -0.32562859815E+02 -0.75181954076E+02  0.10670787802E+03  0.00000000000E+00 0. -1.
          1    1    6    6  503    0  0.35901952338E+03  0.25638533214E+02  0.11893815287E+02  0.36013027558E+03  0.00000000000E+00 0. -1.
         -1    1    6    6    0  503  0.17878534400E+03  0.54404679834E+02  0.60687178145E+02  0.19648664588E+03  0.00000000000E+00 0.  1.
<mgrwt>
<rscale>  0 0.85187223E+03</rscale>
<asrwt>0</asrwt>
<pdfrwt beam="1">  1        2 0.33087445E+00 0.85187223E+03</pdfrwt>
<pdfrwt beam="2">  1       -2 0.10565459E+00 0.85187223E+03</pdfrwt>
<totfact> 0.40778634E+00</totfact>
</mgrwt>
</event>
<event>
12    1  0.3203156E-008  0.8545480E+03  0.7818608E-02  0.9484253E-01
         -2   -1    0    0    0  501 -0.00000000000E+00  0.00000000000E+00  0.15514529439E+04  0.15514529439E+04  0.00000000000E+00 0.  1.
          2   -1    0    0  501    0  0.00000000000E+00 -0.00000000000E+00 -0.61889300237E+03  0.61889300237E+03  0.00000000000E+00 0. -1.
         23    2    1    2    0    0  0.78454005918E+03 -0.45664702670E+01  0.87792789672E+03  0.11810408581E+04  0.92607556753E+02 0.  0.
    5000000    2    1    2    0    0 -0.78454005918E+03  0.45664702670E+01  0.54632044817E+02  0.98930508817E+03  0.60017992306E+03 0.  0.
         23    2    4    4    0    0 -0.77150630251E+03 -0.12522594259E+03  0.15342387945E+03  0.80152606246E+03  0.89451833441E+02 0.  0.
         23    2    4    4    0    0 -0.13033756667E+02  0.12979241286E+03 -0.98791834634E+02  0.18777902570E+03  0.92115072895E+02 0.  0.
          5    1    3    3  502    0  0.29225570246E+03 -0.15583666833E+02  0.26538579957E+03  0.39510499731E+03  0.47000000000E+01 0. -1.
         -5    1    3    3    0  502  0.49228435672E+03  0.11017196566E+02  0.61254209715E+03  0.78593586079E+03  0.47000000000E+01 0.  1.
         13    1    5    5    0    0 -0.19465085001E+03 -0.70815296517E+02  0.33360999542E+02  0.20980161086E+03  0.00000000000E+00 0. -1.
        -13    1    5    5    0    0 -0.57685545250E+03 -0.54410646078E+02  0.12006287991E+03  0.59172445160E+03  0.00000000000E+00 0.  1.
          1    1    6    6  503    0  0.15387530541E+02  0.62395345361E+02 -0.94794978024E+02  0.11452529449E+03  0.00000000000E+00 0. -1.
         -1    1    6    6    0  503 -0.28421287208E+02  0.67397067501E+02 -0.39968566099E+01  0.73253731216E+02  0.00000000000E+00 0.  1.
<mgrwt>
<rscale>  0 0.85454805E+03</rscale>
<asrwt>0</asrwt>
<pdfrwt beam="1">  1        2 0.95214308E-01 0.85454805E+03</pdfrwt>
<pdfrwt beam="2">  1       -2 0.23868507E+00 0.85454805E+03</pdfrwt>
<totfact> 0.36545031E+00</totfact>
</mgrwt>
</event>
<event>
12    1  0.3203156E-008  0.1044404E+04  0.7818608E-02  0.9261140E-01
         -3   -1    0    0    0  501 -0.00000000000E+00  0.00000000000E+00  0.98476157530E+03  0.98476157530E+03  0.00000000000E+00 0.  1.
          3   -1    0    0  501    0  0.00000000000E+00 -0.00000000000E+00 -0.12721555669E+04  0.12721555669E+04  0.00000000000E+00 0. -1.
         23    2    1    2    0    0 -0.45321339492E+03 -0.92744839080E+03 -0.36251052197E+02  0.10368409269E+04  0.90344175114E+02 0.  0.
    5000000    2    1    2    0    0  0.45321339492E+03  0.92744839080E+03 -0.25114293945E+03  0.12200762153E+04  0.59995857880E+03 0.  0.
         23    2    4    4    0    0  0.40196471104E+03  0.82016288495E+03  0.11453826321E+02  0.91797997038E+03  0.91177020829E+02 0.  0.
         23    2    4    4    0    0  0.51248683885E+02  0.10728550585E+03 -0.26259676577E+03  0.30209624496E+03  0.90379601996E+02 0.  0.
          5    1    3    3  502    0 -0.21672560297E+03 -0.37467369694E+03 -0.47626647899E+02  0.43547761567E+03  0.47000000000E+01 0. -1.
         -5    1    3    3    0  502 -0.23648779195E+03 -0.55277469386E+03  0.11375595702E+02  0.60136331123E+03  0.47000000000E+01 0.  1.
         13    1    5    5    0    0  0.17947649168E+03  0.33168851643E+03  0.46984283463E+02  0.38004816259E+03  0.00000000000E+00 0.  1.
        -13    1    5    5    0    0  0.22248821936E+03  0.48847436852E+03 -0.35530457141E+02  0.53793180779E+03  0.00000000000E+00 0. -1.
          1    1    6    6  503    0 -0.61922586905E+01  0.74303543119E+02 -0.87898649780E+02  0.11526288744E+03  0.00000000000E+00 0. -1.
         -1    1    6    6    0  503  0.57440942576E+02  0.32981962731E+02 -0.17469811599E+03  0.18683335752E+03  0.00000000000E+00 0.  1.
<mgrwt>
<rscale>  0 0.10444043E+04</rscale>
<asrwt>0</asrwt>
<pdfrwt beam="1">  1        3 0.19571624E+00 0.10444043E+04</pdfrwt>
<pdfrwt beam="2">  1       -3 0.15150178E+00 0.10444043E+04</pdfrwt>
<totfact> 0.12444519E-01</totfact>
</mgrwt>
</event>
<event>
12    1  0.3203156E-008  0.5642769E+03  0.7818608E-02  0.9982424E-01
         -4   -1    0    0    0  501 -0.00000000000E+00  0.00000000000E+00  0.12285953337E+04  0.12285953337E+04  0.00000000000E+00 0.  1.
          4   -1    0    0  501    0  0.00000000000E+00 -0.00000000000E+00 -0.28002933718E+03  0.28002933718E+03  0.00000000000E+00 0. -1.
         23    2    1    2    0    0  0.11203700418E+03  0.40243793873E+03  0.23768195634E+03  0.48889519246E+03  0.89538885457E+02 0.  0.
    5000000    2    1    2    0    0 -0.11203700418E+03 -0.40243793873E+03  0.71088404015E+03  0.10197294784E+04  0.59998625461E+03 0.  0.
         23    2    4    4    0    0  0.22475748806E+03 -0.83805872504E+02  0.23876807209E+03  0.35166803812E+03  0.95503215037E+02 0.  0.
         23    2    4    4    0    0 -0.33679449224E+03 -0.31863206623E+03  0.47211596807E+03  0.66806144027E+03  0.91954755439E+02 0.  0.
          5    1    3    3  502    0  0.49271248705E+02  0.11463453078E+03  0.11504773679E+03  0.16978457921E+03  0.47000000000E+01 0. -1.
         -5    1    3    3    0  502  0.62765755475E+02  0.28780340795E+03  0.12263421955E+03  0.31911061325E+03  0.47000000000E+01 0.  1.
         13    1    5    5    0    0  0.15051360262E+03 -0.64990240276E+02  0.21714242904E+03  0.27208254335E+03  0.00000000000E+00 0. -1.
        -13    1    5    5    0    0  0.74243885434E+02 -0.18815632228E+02  0.21625643045E+02  0.79585494768E+02  0.00000000000E+00 0.  1.
          3    1    6    6  503    0 -0.10786534583E+03 -0.14746761313E+03  0.22792841445E+03  0.29211811287E+03  0.00000000000E+00 0. -1.
         -3    1    6    6    0  503 -0.22892914640E+03 -0.17116445309E+03  0.24418755362E+03  0.37594332740E+03  0.00000000000E+00 0.  1.
<mgrwt>
<rscale>  0 0.56427691E+03</rscale>
<asrwt>0</asrwt>
<pdfrwt beam="1">  1        4 0.43081437E-01 0.56427691E+03</pdfrwt>
<pdfrwt beam="2">  1       -4 0.18901466E+00 0.56427691E+03</pdfrwt>
<totfact> 0.16182352E+00</totfact>
</mgrwt>
</event>
<event>
12    1  0.3203156E-008  0.6493451E+03  0.7818608E-02  0.9808009E-01
          2   -1    0    0  501    0  0.00000000000E+00  0.00000000000E+00  0.37691238058E+04  0.37691238058E+04  0.00000000000E+00 0.  1.
         -2   -1    0    0    0  501 -0.00000000000E+00 -0.00000000000E+00 -0.31395903930E+03  0.31395903930E+03  0.00000000000E+00 0. -1.
         23    2    1    2    0    0 -0.48553806450E+03  0.40767782062E+03  0.14118033006E+03  0.65606739070E+03  0.92434398566E+02 0.  0.
    5000000    2    1    2    0    0  0.48553806450E+03 -0.40767782062E+03  0.33139844364E+04  0.34270154544E+04  0.59999471846E+03 0.  0.
         23    2    4    4    0    0  0.83856831436E+02 -0.34495273069E+02  0.93216386844E+02  0.15862045459E+03  0.90825446846E+02 0.  0.
         23    2    4    4    0    0  0.40168123306E+03 -0.37318254755E+03  0.32207680496E+04  0.32683949998E+04  0.91902223390E+02 0.  0.
          5    1    3    3  502    0 -0.24053418409E+03  0.21008051114E+03  0.24445157906E+02  0.32032822327E+03  0.47000000000E+01 0. -1.
         -5    1    3    3    0  502 -0.24500388041E+03  0.19759730948E+03  0.11673517215E+03  0.33573916743E+03  0.47000000000E+01 0.  1.
         11    1    5    5    0    0  0.38870535866E+02 -0.54536516781E+02  0.85758785357E+02  0.10881047508E+03  0.00000000000E+00 0. -1.
        -11    1    5    5    0    0  0.44986295570E+02  0.20041243713E+02  0.74576014863E+01  0.49809979508E+02  0.00000000000E+00 0.  1.
          3    1    6    6  503    0  0.24653303571E+02 -0.23491951019E+02  0.10245154400E+03  0.10796284549E+03  0.00000000000E+00 0. -1.
         -3    1    6    6    0  503  0.37702792949E+03 -0.34969059653E+03  0.31183165056E+04  0.31604321543E+04  0.00000000000E+00 0.  1.
<mgrwt>
<rscale>  0 0.64934510E+03</rscale>
<asrwt>0</asrwt>
<pdfrwt beam="1">  1        2 0.57986517E+00 0.64934510E+03</pdfrwt>
<pdfrwt beam="2">  1       -2 0.48301393E-01 0.64934510E+03</pdfrwt>
<totfact> 0.23700275E+00</totfact>
</mgrwt>
</event>
<event>
12    1  0.3203156E-008  0.7325794E+03  0.7818608E-02  0.9663084E-01
          1   -1    0    0  501    0  0.00000000000E+00  0.00000000000E+00  0.88296723876E+03  0.88296723876E+03  0.00000000000E+00 0. -1.
         -1   -1    0    0    0  501 -0.00000000000E+00 -0.00000000000E+00 -0.12122302401E+04  0.12122302401E+04  0.00000000000E+00 0.  1.
         23    2    1    2    0    0 -0.20819365024E+03 -0.61681593694E+03 -0.84502111043E+03  0.10705598069E+04  0.90725559285E+02 0.  0.
    5000000    2    1    2    0    0  0.20819365024E+03  0.61681593694E+03  0.51575810904E+03  0.10246376720E+04  0.60005786029E+03 0.  0.
         23    2    4    4    0    0  0.26200210658E+03  0.83161961820E+02  0.35211415131E+03  0.45617799924E+03  0.92482299352E+02 0.  0.
         23    2    4    4    0    0 -0.53808456343E+02  0.53365397512E+03  0.16364395773E+03  0.56845967272E+03  0.93194095657E+02 0.  0.
          5    1    3    3  502    0 -0.12033543793E+02 -0.71497592896E+02 -0.56859755196E+02  0.92259599647E+02  0.47000000000E+01 0. -1.
         -5    1    3    3    0  502 -0.19616010644E+03 -0.54531834405E+03 -0.78816135523E+03  0.97830020730E+03  0.47000000000E+01 0.  1.
         13    1    5    5    0    0  0.59276548094E+02  0.32264886815E+02  0.34074512999E+02  0.75602939832E+02  0.00000000000E+00 0. -1.
        -13    1    5    5    0    0  0.20272555848E+03  0.50897075004E+02  0.31803963831E+03  0.38057505941E+03  0.00000000000E+00 0.  1.
          3    1    6    6  503    0 -0.42866371419E+02  0.38029740455E+03  0.15962408375E+03  0.41466069239E+03  0.00000000000E+00 0. -1.
         -3    1    6    6    0  503 -0.10942084924E+02  0.15335657058E+03  0.40198739776E+01  0.15379898032E+03  0.00000000000E+00 0.  1.
<mgrwt>
<rscale>  0 0.73257943E+03</rscale>
<asrwt>0</asrwt>
<pdfrwt beam="1">  1        1 0.13584111E+00 0.73257943E+03</pdfrwt>
<pdfrwt beam="2">  1       -1 0.18649696E+00 0.73257943E+03</pdfrwt>
<totfact> 0.36612935E+00</totfact>
</mgrwt>
</event>
<event>
12    1  0.3203156E-008  0.6745205E+03  0.7818608E-02  0.9761826E-01
         -2   -1    0    0    0  501 -0.00000000000E+00  0.00000000000E+00  0.59724061868E+03  0.59724061868E+03  0.00000000000E+00 0.  1.
          2   -1    0    0  501    0  0.00000000000E+00 -0.00000000000E+00 -0.14953938501E+04  0.14953938501E+04  0.00000000000E+00 0. -1.
         23    2    1    2    0    0 -0.60066784958E+03 -0.23542144210E+03 -0.10128283040E+04  0.12042437851E+04  0.90315002391E+02 0.  0.
    5000000    2    1    2    0    0  0.60066784958E+03  0.23542144210E+03  0.11467507266E+03  0.88839068361E+03  0.59988541698E+03 0.  0.
         23    2    4    4    0    0  0.55601917450E+03  0.18633093691E+03  0.30504712170E+03  0.66725600526E+03  0.91105925360E+02 0.  0.
         23    2    4    4    0    0  0.44648675078E+02  0.49090505198E+02 -0.19037204903E+03  0.22113467835E+03  0.90860591177E+02 0.  0.
          5    1    3    3  502    0 -0.34042152184E+03 -0.91697444366E+02 -0.59031414660E+03  0.68759589550E+03  0.47000000000E+01 0. -1.
         -5    1    3    3    0  502 -0.26024632773E+03 -0.14372399774E+03 -0.42251415744E+03  0.51664788963E+03  0.47000000000E+01 0.  1.
         13    1    5    5    0    0  0.46452869113E+03  0.16878122398E+03  0.21954769605E+03  0.54080976072E+03  0.00000000000E+00 0. -1.
        -13    1    5    5    0    0  0.91490483370E+02  0.17549712925E+02  0.85499425645E+02  0.12644624453E+03  0.00000000000E+00 0.  1.
          4    1    6    6  503    0  0.65004789159E+02  0.60142624264E+02 -0.13947940573E+03  0.16521883213E+03  0.00000000000E+00 0.  1.
         -4    1    6    6    0  503 -0.20356114081E+02 -0.11052119066E+02 -0.50892643303E+02  0.55915846222E+02  0.00000000000E+00 0. -1.
<mgrwt>
<rscale>  0 0.67452053E+03</rscale>
<asrwt>0</asrwt>
<pdfrwt beam="1">  1        2 0.23006059E+00 0.67452053E+03</pdfrwt>
<pdfrwt beam="2">  1       -2 0.91883173E-01 0.67452053E+03</pdfrwt>
<totfact> 0.13314465E+01</totfact>
</mgrwt>
</event>
<event>
12    1  0.3203156E-008  0.5028547E+03  0.7818608E-02  0.1013036E+00
         -2   -1    0    0    0  501 -0.00000000000E+00  0.00000000000E+00  0.74562095992E+03  0.74562095992E+03  0.00000000000E+00 0.  1.
          2   -1    0    0  501    0  0.00000000000E+00 -0.00000000000E+00 -0.37335331312E+03  0.37335331312E+03  0.00000000000E+00 0. -1.
         23    2    1    2    0    0 -0.27557612694E+03 -0.21185631675E+03  0.14349622140E+03  0.38871341647E+03  0.98395395711E+02 0.  0.
    5000000    2    1    2    0    0  0.27557612694E+03  0.21185631675E+03  0.22877142539E+03  0.73026085657E+03  0.60009936917E+03 0.  0.
         23    2    4    4    0    0 -0.11849326295E+03  0.20102270642E+03  0.20796592328E+03  0.32570544936E+03  0.91561086897E+02 0.  0.
         23    2    4    4    0    0  0.39406938989E+03  0.10833610332E+02  0.20805502108E+02  0.40455540721E+03  0.88454267437E+02 0.  0.
          5    1    3    3  502    0 -0.14827515079E+03 -0.17197619347E+03  0.79026692035E+02  0.24047586057E+03  0.47000000000E+01 0. -1.
         -5    1    3    3    0  502 -0.12730097615E+03 -0.39880123282E+02  0.64469529366E+02  0.14823755590E+03  0.47000000000E+01 0.  1.
         11    1    5    5    0    0 -0.31889080338E+02  0.14075878375E+03  0.13313951936E+03  0.19635702244E+03  0.00000000000E+00 0. -1.
        -11    1    5    5    0    0 -0.86604182610E+02  0.60263922671E+02  0.74826403926E+02  0.12934842692E+03  0.00000000000E+00 0.  1.
          1    1    6    6  503    0  0.29604367828E+03  0.20603120012E+02  0.51877259529E+02  0.30126001736E+03  0.00000000000E+00 0. -1.
         -1    1    6    6    0  503  0.98025711612E+02 -0.97695096805E+01 -0.31071757420E+02  0.10329538986E+03  0.00000000000E+00 0.  1.
<mgrwt>
<rscale>  0 0.50285473E+03</rscale>
<asrwt>0</asrwt>
<pdfrwt beam="1">  1        2 0.57438971E-01 0.50285473E+03</pdfrwt>
<pdfrwt beam="2">  1       -2 0.11471092E+00 0.50285473E+03</pdfrwt>
<totfact> 0.52486340E+01</totfact>
</mgrwt>
</event>
<event>
12    1  0.3203156E-008  0.3352688E+03  0.7818608E-02  0.1068829E+00
         -2   -1    0    0    0  501 -0.00000000000E+00  0.00000000000E+00  0.86888783442E+02  0.86888783442E+02  0.00000000000E+00 0.  1.
          2   -1    0    0  501    0  0.00000000000E+00 -0.00000000000E+00 -0.17575836192E+04  0.17575836192E+04  0.00000000000E+00 0. -1.
         23    2    1    2    0    0 -0.80951636265E+02  0.94167471913E+02 -0.21234278491E+03  0.26268659846E+03  0.92163498898E+02 0.  0.
    5000000    2    1    2    0    0  0.80951636265E+02 -0.94167471913E+02 -0.14583520508E+04  0.15817858042E+04  0.59986243915E+03 0.  0.
         23    2    4    4    0    0 -0.17889783652E+03  0.90999074457E+02 -0.27337084787E+03  0.35113608332E+03  0.90992643014E+02 0.  0.
         23    2    4    4    0    0  0.25984947278E+03 -0.18516654637E+03 -0.11849812030E+04  0.12306497208E+04  0.92249041335E+02 0.  0.
          5    1    3    3  502    0 -0.89164701842E+02  0.73127495890E+02 -0.11605223651E+03  0.16367096966E+03  0.47000000000E+01 0. -1.
         -5    1    3    3    0  502  0.82130655767E+01  0.21039976024E+02 -0.96290548393E+02  0.99015628802E+02  0.47000000000E+01 0.  1.
         13    1    5    5    0    0 -0.88147858489E+02  0.59418470677E+01 -0.16034402015E+03  0.18307254109E+03  0.00000000000E+00 0. -1.
        -13    1    5    5    0    0 -0.90749978029E+02  0.85057227389E+02 -0.11302682772E+03  0.16806354223E+03  0.00000000000E+00 0.  1.
          3    1    6    6  503    0  0.79526446367E+02 -0.63950122942E+02 -0.23611443116E+03  0.25722382957E+03  0.00000000000E+00 0. -1.
         -3    1    6    6    0  503  0.18032302642E+03 -0.12121642343E+03 -0.94886677181E+03  0.97342589128E+03  0.00000000000E+00 0.  1.
<mgrwt>
<rscale>  0 0.33526884E+03</rscale>
<asrwt>0</asrwt>
<pdfrwt beam="1">  1        2 0.27039747E+00 0.33526884E+03</pdfrwt>
<pdfrwt beam="2">  1       -2 0.13367505E-01 0.33526884E+03</pdfrwt>
<totfact> 0.41018692E+02</totfact>
</mgrwt>
</event>
<event>
12    1  0.3203156E-008  0.4447987E+03  0.7818608E-02  0.1029285E+00
          2   -1    0    0  501    0  0.00000000000E+00  0.00000000000E+00  0.19283047968E+04  0.19283047968E+04  0.00000000000E+00 0. -1.
         -2   -1    0    0    0  501 -0.00000000000E+00 -0.00000000000E+00 -0.15865589226E+03  0.15865589226E+03  0.00000000000E+00 0.  1.
         23    2    1    2    0    0  0.19933773559E+03 -0.17604781665E+03  0.11518625156E+04  0.11856704614E+04  0.91097869116E+02 0.  0.
    5000000    2    1    2    0    0 -0.19933773559E+03  0.17604781665E+03  0.61778638892E+03  0.90129022759E+03  0.59994640213E+03 0.  0.
         23    2    4    4    0    0 -0.37873415805E+03  0.12259303366E+03  0.54461125789E+03  0.68003513811E+03  0.85893844206E+02 0.  0.
         23    2    4    4    0    0  0.17939642246E+03  0.53454782991E+02  0.73175131029E+02  0.22125508947E+03  0.92513375255E+02 0.  0.
          5    1    3    3  502    0  0.23712403719E+02 -0.70444476472E+02  0.36706187000E+03  0.37454133118E+03  0.47000000000E+01 0. -1.
         -5    1    3    3    0  502  0.17562533187E+03 -0.10560334017E+03  0.78480064558E+03  0.81112913026E+03  0.47000000000E+01 0.  1.
         11    1    5    5    0    0 -0.21669967218E+03  0.10131171069E+03  0.37249784015E+03  0.44269340582E+03  0.00000000000E+00 0. -1.
        -11    1    5    5    0    0 -0.16203448587E+03  0.21281322969E+02  0.17211341774E+03  0.23734173229E+03  0.00000000000E+00 0.  1.
          3    1    6    6  503    0  0.99860965533E+02  0.75239554951E+02  0.56096509724E+02  0.13704021844E+03  0.00000000000E+00 0. -1.
         -3    1    6    6    0  503  0.79535456925E+02 -0.21784771960E+02  0.17078621305E+02  0.84214871034E+02  0.00000000000E+00 0.  1.
<mgrwt>
<rscale>  0 0.44479870E+03</rscale>
<asrwt>0</asrwt>
<pdfrwt beam="1">  1        2 0.29666226E+00 0.44479870E+03</pdfrwt>
<pdfrwt beam="2">  1       -2 0.24408600E-01 0.44479870E+03</pdfrwt>
<totfact> 0.11680363E+02</totfact>
</mgrwt>
</event>
<event>
12    1  0.3203156E-008  0.4915029E+03  0.7818608E-02  0.1016021E+00
         -1   -1    0    0    0  501 -0.00000000000E+00  0.00000000000E+00  0.30267690782E+03  0.30267690782E+03  0.00000000000E+00 0.  1.
          1   -1    0    0  501    0  0.00000000000E+00 -0.00000000000E+00 -0.18573853231E+04  0.18573853231E+04  0.00000000000E+00 0. -1.
         23    2    1    2    0    0 -0.29568290780E+03 -0.92161618102E+02 -0.14390570438E+04  0.14748603368E+04  0.91682560929E+02 0.  0.
    5000000    2    1    2    0    0  0.29568290780E+03  0.92161618102E+02 -0.11565137151E+03  0.68520189413E+03  0.60017018434E+03 0.  0.
         23    2    4    4    0    0 -0.92870880728E+02 -0.15738323135E+03 -0.35604951595E+02  0.20710543475E+03  0.90721918671E+02 0.  0.
         23    2    4    4    0    0  0.38855378853E+03  0.24954484945E+03 -0.80046419918E+02  0.47809645938E+03  0.94456956669E+02 0.  0.
          5    1    3    3  502    0 -0.21834644808E+03 -0.81811582319E+02 -0.12244167363E+04  0.12464295971E+04  0.47000000000E+01 0. -1.
         -5    1    3    3    0  502 -0.77336459723E+02 -0.10350035783E+02 -0.21464030749E+03  0.22843073971E+03  0.47000000000E+01 0.  1.
         13    1    5    5    0    0  0.27252204296E+01  0.94851245785E+01 -0.82405595754E+01  0.12856952857E+02  0.00000000000E+00 0.  1.
        -13    1    5    5    0    0 -0.95596101157E+02 -0.16686835593E+03 -0.27364392019E+02  0.19424848189E+03  0.00000000000E+00 0. -1.
          1    1    6    6  503    0  0.32949546604E+03  0.24423548926E+03 -0.84039786298E+02  0.41866564468E+03  0.00000000000E+00 0. -1.
         -1    1    6    6    0  503  0.59058322489E+02  0.53093601906E+01  0.39933663800E+01  0.59430814699E+02  0.00000000000E+00 0.  1.
<mgrwt>
<rscale>  0 0.49150289E+03</rscale>
<asrwt>0</asrwt>
<pdfrwt beam="1">  1        1 0.28575159E+00 0.49150289E+03</pdfrwt>
<pdfrwt beam="2">  1       -1 0.46565678E-01 0.49150289E+03</pdfrwt>
<totfact> 0.18608995E+01</totfact>
</mgrwt>
</event>
<event>
12    1  0.3203156E-008  0.1232293E+04  0.7818608E-02  0.9085051E-01
         -2   -1    0    0    0  501 -0.00000000000E+00  0.00000000000E+00  0.90667979447E+03  0.90667979447E+03  0.00000000000E+00 0.  1.
          2   -1    0    0  501    0  0.00000000000E+00 -0.00000000000E+00 -0.17826900656E+04  0.17826900656E+04  0.00000000000E+00 0. -1.
         23    2    1    2    0    0 -0.11074945830E+04  0.40323185270E+03 -0.18396305410E+03  0.11966995455E+04  0.95431747816E+02 0.  0.
    5000000    2    1    2    0    0  0.11074945830E+04 -0.40323185270E+03 -0.69204721708E+03  0.14926703146E+04  0.59999594906E+03 0.  0.
         23    2    4    4    0    0  0.10190421423E+04 -0.48484586999E+03 -0.48123872299E+03  0.12301872393E+04  0.90815912097E+02 0.  0.
         23    2    4    4    0    0  0.88452440775E+02  0.81614017290E+02 -0.21080849409E+03  0.26248307528E+03  0.99862212729E+02 0.  0.
          5    1    3    3  502    0 -0.42965534624E+03  0.19185313169E+03 -0.40535870768E+02  0.47230984270E+03  0.47000000000E+01 0. -1.
         -5    1    3    3    0  502 -0.67783923681E+03  0.21137872101E+03 -0.14342718333E+03  0.72438970283E+03  0.47000000000E+01 0.  1.
         13    1    5    5    0    0  0.88335887361E+03 -0.40253977108E+03 -0.44240250079E+03  0.10668088580E+04  0.00000000000E+00 0. -1.
        -13    1    5    5    0    0  0.13568326866E+03 -0.82306098902E+02 -0.38836222194E+02  0.16337838127E+03  0.00000000000E+00 0.  1.
          3    1    6    6  503    0  0.51185903846E+02 -0.13019082387E+02 -0.53646901097E+02  0.75282688953E+02  0.00000000000E+00 0. -1.
         -3    1    6    6    0  503  0.37266536929E+02  0.94633099676E+02 -0.15716159299E+03  0.18720038633E+03  0.00000000000E+00 0.  1.
<mgrwt>
<rscale>  0 0.12322931E+04</rscale>
<asrwt>0</asrwt>
<pdfrwt beam="1">  1        2 0.27426001E+00 0.12322931E+04</pdfrwt>
<pdfrwt beam="2">  1       -2 0.13948920E+00 0.12322931E+04</pdfrwt>
<totfact> 0.31029714E+00</totfact>
</mgrwt>
</event>
<event>
12    1  0.3203156E-008  0.1790853E+03  0.7818608E-02  0.1168691E+00
         -2   -1    0    0    0  501 -0.00000000000E+00  0.00000000000E+00  0.65556393500E+02  0.65556393500E+02  0.00000000000E+00 0.  1.
          2   -1    0    0  501    0  0.00000000000E+00 -0.00000000000E+00 -0.22969977894E+04  0.22969977894E+04  0.00000000000E+00 0. -1.
         23    2    1    2    0    0  0.97232990229E+02 -0.79307471447E+02 -0.51535544742E+03  0.54028147788E+03  0.10280519799E+03 0.  0.
    5000000    2    1    2    0    0 -0.97232990229E+02  0.79307471447E+02 -0.17160859485E+04  0.18222727051E+04  0.59998574941E+03 0.  0.
         23    2    4    4    0    0 -0.85411128054E+02 -0.11073374497E+02 -0.26937087533E+02  0.12808141987E+03  0.90893140621E+02 0.  0.
         23    2    4    4    0    0 -0.11821862176E+02  0.90380845943E+02 -0.16891488610E+04  0.16941912852E+04  0.93550962197E+02 0.  0.
          5    1    3    3  502    0  0.37028842865E+02 -0.57791341798E+02 -0.41860161504E+03  0.42421736940E+03  0.47000000000E+01 0. -1.
         -5    1    3    3    0  502  0.60204147365E+02 -0.21516129648E+02 -0.96753832383E+02  0.11606410847E+03  0.47000000000E+01 0.  1.
         11    1    5    5    0    0  0.41868936649E+00  0.78949535714E+01  0.24837828374E+02  0.26065749769E+02  0.00000000000E+00 0.  1.
        -11    1    5    5    0    0 -0.85829817420E+02 -0.18968328068E+02 -0.51774915907E+02  0.10201567010E+03  0.00000000000E+00 0. -1.
          1    1    6    6  503    0 -0.47393145116E+02  0.78977345718E+02 -0.12974976374E+04  0.13007627187E+04  0.00000000000E+00 0. -1.
         -1    1    6    6    0  503  0.35571282940E+02  0.11403500225E+02 -0.39165122358E+03  0.39342856648E+03  0.00000000000E+00 0.  1.
<mgrwt>
<rscale>  0 0.17908532E+03</rscale>
<asrwt>0</asrwt>
<pdfrwt beam="1">  1        2 0.35338429E+00 0.17908532E+03</pdfrwt>
<pdfrwt beam="2">  1       -2 0.10085599E-01 0.17908532E+03</pdfrwt>
<totfact> 0.34766628E+02</totfact>
</mgrwt>
</event>
<event>
12    1  0.3203156E-008  0.6713042E+03  0.7818608E-02  0.9767605E-01
         -1   -1    0    0    0  501 -0.00000000000E+00  0.00000000000E+00  0.34015582312E+03  0.34015582312E+03  0.00000000000E+00 0.  1.
          1   -1    0    0  501    0  0.00000000000E+00 -0.00000000000E+00 -0.14140627080E+04  0.14140627080E+04  0.00000000000E+00 0. -1.
         23    2    1    2    0    0  0.14665592439E+01  0.54458252200E+03 -0.27913254069E+03  0.61896047962E+03  0.92869941302E+02 0.  0.
    5000000    2    1    2    0    0 -0.14665592439E+01 -0.54458252200E+03 -0.79477434420E+03  0.11352580515E+04  0.60047673666E+03 0.  0.
         23    2    4    4    0    0  0.17546466936E+03 -0.57512037012E+03 -0.61570955873E+03  0.86597979466E+03  0.96288388314E+02 0.  0.
         23    2    4    4    0    0 -0.17693122860E+03  0.30537848122E+02 -0.17906478546E+03  0.26927825685E+03  0.90605531826E+02 0.  0.
          5    1    3    3  502    0 -0.23348739129E+02  0.59526590811E+02 -0.14110828944E+02  0.65648946115E+02  0.47000000000E+01 0. -1.
         -5    1    3    3    0  502  0.24815298373E+02  0.48505593119E+03 -0.26502171175E+03  0.55331153351E+03  0.47000000000E+01 0.  1.
         11    1    5    5    0    0  0.77697234042E+02 -0.20144349970E+03 -0.16079536605E+03  0.26920529989E+03  0.00000000000E+00 0. -1.
        -11    1    5    5    0    0  0.97767435315E+02 -0.37367687042E+03 -0.45491419269E+03  0.59677449477E+03  0.00000000000E+00 0.  1.
          2    1    6    6  503    0 -0.15298389384E+03  0.15160781987E+01 -0.17337272117E+03  0.23122385412E+03  0.00000000000E+00 0.  1.
         -2    1    6    6    0  503 -0.23947334760E+02  0.29021769924E+02 -0.56920642990E+01  0.38054402736E+02  0.00000000000E+00 0. -1.
<mgrwt>
<rscale>  0 0.67130417E+03</rscale>
<asrwt>0</asrwt>
<pdfrwt beam="1">  1        1 0.21754811E+00 0.67130417E+03</pdfrwt>
<pdfrwt beam="2">  1       -1 0.52331666E-01 0.67130417E+03</pdfrwt>
<totfact> 0.28780050E+01</totfact>
</mgrwt>
</event>
<event>
12    1  0.3203156E-008  0.1047400E+04  0.7818608E-02  0.9258033E-01
          1   -1    0    0  501    0  0.00000000000E+00  0.00000000000E+00  0.27465622471E+04  0.27465622471E+04  0.00000000000E+00 0. -1.
         -1   -1    0    0    0  501 -0.00000000000E+00 -0.00000000000E+00 -0.69418206161E+03  0.69418206161E+03  0.00000000000E+00 0.  1.
         23    2    1    2    0    0 -0.96796014666E+03  0.39248695272E+03  0.19721265850E+04  0.22335568537E+04  0.92195976849E+02 0.  0.
    5000000    2    1    2    0    0  0.96796014666E+03 -0.39248695272E+03  0.80253600522E+02  0.12071874550E+04  0.59989003783E+03 0.  0.
         23    2    4    4    0    0  0.52542188576E+03 -0.21448922858E+03  0.32794033845E+03  0.66175207986E+03  0.91088761092E+02 0.  0.
         23    2    4    4    0    0  0.44253826090E+03 -0.17799772415E+03 -0.24768673793E+03  0.54543537513E+03  0.92885553953E+02 0.  0.
          5    1    3    3  502    0 -0.81064855027E+03  0.30329348674E+03  0.15747303698E+04  0.17969239936E+04  0.47000000000E+01 0. -1.
         -5    1    3    3    0  502 -0.15731159639E+03  0.89193465978E+02  0.39739621513E+03  0.43663286011E+03  0.47000000000E+01 0.  1.
         13    1    5    5    0    0  0.42695240165E+03 -0.19117711978E+03  0.23142949056E+03  0.52191632806E+03  0.00000000000E+00 0. -1.
        -13    1    5    5    0    0  0.98469484114E+02 -0.23312108800E+02  0.96510847894E+02  0.13983575179E+03  0.00000000000E+00 0.  1.
          3    1    6    6  503    0  0.10078646498E+03 -0.62667003828E+02 -0.24201904519E+02  0.12112306582E+03  0.00000000000E+00 0. -1.
         -3    1    6    6    0  503  0.34175179592E+03 -0.11533072032E+03 -0.22348483341E+03  0.42431230931E+03  0.00000000000E+00 0.  1.
<mgrwt>
<rscale>  0 0.10473995E+04</rscale>
<asrwt>0</asrwt>
<pdfrwt beam="1">  1        1 0.42254803E+00 0.10473995E+04</pdfrwt>
<pdfrwt beam="2">  1       -1 0.10679724E+00 0.10473995E+04</pdfrwt>
<totfact> 0.75540138E-01</totfact>
</mgrwt>
</event>
<event>
12    1  0.3203156E-008  0.1737539E+04  0.7818608E-02  0.8740239E-01
          2   -1    0    0  501    0  0.00000000000E+00  0.00000000000E+00  0.29555751890E+04  0.29555751890E+04  0.00000000000E+00 0. -1.
         -2   -1    0    0    0  501 -0.00000000000E+00 -0.00000000000E+00 -0.10477969291E+04  0.10477969291E+04  0.00000000000E+00 0.  1.
         23    2    1    2    0    0  0.13388734650E+04 -0.10488008869E+04  0.75662332238E+03  0.18636856721E+04  0.90994376790E+02 0.  0.
    5000000    2    1    2    0    0 -0.13388734650E+04  0.10488008869E+04  0.11511549375E+04  0.21396864460E+04  0.60044561880E+03 0.  0.
         23    2    4    4    0    0 -0.75679251433E+03  0.28002458633E+03  0.69517048974E+03  0.10690453981E+04  0.91909600461E+02 0.  0.
         23    2    4    4    0    0 -0.58208095071E+03  0.76877630058E+03  0.45598444777E+03  0.10706410479E+04  0.92277859216E+02 0.  0.
          5    1    3    3  502    0  0.54562688110E+03 -0.46296214595E+03  0.35637082539E+03  0.79941534708E+03  0.47000000000E+01 0. -1.
         -5    1    3    3    0  502  0.79324658394E+03 -0.58583874096E+03  0.40025249699E+03  0.10642703250E+04  0.47000000000E+01 0.  1.
         13    1    5    5    0    0 -0.60587548368E+03  0.20014779489E+03  0.58628785816E+03  0.86653199257E+03  0.00000000000E+00 0. -1.
        -13    1    5    5    0    0 -0.15091703065E+03  0.79876791449E+02  0.10888263158E+03  0.20251340551E+03  0.00000000000E+00 0.  1.
          3    1    6    6  503    0 -0.49517118469E+03  0.64085777385E+03  0.41805931690E+03  0.91140922801E+03  0.00000000000E+00 0. -1.
         -3    1    6    6    0  503 -0.86909766026E+02  0.12791852673E+03  0.37925130865E+02  0.15923181988E+03  0.00000000000E+00 0.  1.
<mgrwt>
<rscale>  0 0.17375390E+04</rscale>
<asrwt>0</asrwt>
<pdfrwt beam="1">  1        2 0.45470387E+00 0.17375390E+04</pdfrwt>
<pdfrwt beam="2">  1       -2 0.16119953E+00 0.17375390E+04</pdfrwt>
<totfact> 0.42254647E-01</totfact>
</mgrwt>
</event>
<event>
12    1  0.4696067E-008  0.1462178E+04  0.7818608E-02  0.8910001E-01
          1   -1    0    0  501    0  0.00000000000E+00  0.00000000000E+00  0.27128066434E+04  0.27128066434E+04  0.00000000000E+00 0. -1.
         -1   -1    0    0    0  501 -0.00000000000E+00 -0.00000000000E+00 -0.10028714235E+04  0.10028714235E+04  0.00000000000E+00 0.  1.
         23    2    1    2    0    0 -0.14411262101E+04 -0.21890423151E+03  0.15521932534E+04  0.21312517592E+04  0.90367854488E+02 0.  0.
    5000000    2    1    2    0    0  0.14411262101E+04  0.21890423151E+03  0.15774196657E+03  0.15844263077E+04  0.60063331622E+03 0.  0.
         23    2    4    4    0    0  0.11472197068E+04  0.15886865719E+03  0.35430138928E+03  0.12149046146E+04  0.95453874898E+02 0.  0.
         23    2    4    4    0    0  0.29390650327E+03  0.60035574322E+02 -0.19655942270E+03  0.36952169308E+03  0.89024559296E+02 0.  0.
          5    1    3    3  502    0 -0.84860208587E+03 -0.87280020891E+02  0.93073923662E+03  0.12625533330E+04  0.47000000000E+01 0. -1.
         -5    1    3    3    0  502 -0.59252412423E+03 -0.13162421062E+03  0.62145401679E+03  0.86869842615E+03  0.47000000000E+01 0.  1.
         11    1    5    5    0    0  0.43882416426E+03  0.10217234068E+03  0.11459834484E+03  0.46490710360E+03  0.00000000000E+00 0. -1.
        -11    1    5    5    0    0  0.70839554257E+03  0.56696316502E+02  0.23970304444E+03  0.74999751103E+03  0.00000000000E+00 0.  1.
          4    1    6    6  503    0  0.65710529513E+02  0.32174028866E+02 -0.90415424851E+02  0.11630989155E+03  0.00000000000E+00 0. -1.
         -4    1    6    6    0  503  0.22819597376E+03  0.27861545456E+02 -0.10614399785E+03  0.25321180153E+03  0.00000000000E+00 0.  1.
<mgrwt>
<rscale>  0 0.14621775E+04</rscale>
<asrwt>0</asrwt>
<pdfrwt beam="1">  1        1 0.41735487E+00 0.14621775E+04</pdfrwt>
<pdfrwt beam="2">  1       -1 0.15428791E+00 0.14621775E+04</pdfrwt>
<totfact> 0.29647709E-01</totfact>
</mgrwt>
</event>
<event>
12    1  0.3203156E-008  0.5024559E+03  0.7818608E-02  0.1013140E+00
          2   -1    0    0  501    0  0.00000000000E+00  0.00000000000E+00  0.15954308191E+04  0.15954308191E+04  0.00000000000E+00 0. -1.
         -2   -1    0    0    0  501 -0.00000000000E+00 -0.00000000000E+00 -0.18080744447E+03  0.18080744447E+03  0.00000000000E+00 0.  1.
         23    2    1    2    0    0  0.34849465394E+03  0.93804112983E+02  0.47395561163E+03  0.60357704235E+03  0.97075170988E+02 0.  0.
    5000000    2    1    2    0    0 -0.34849465394E+03 -0.93804112983E+02  0.94066776297E+03  0.11726612212E+04  0.60002563608E+03 0.  0.
         23    2    4    4    0    0  0.13608631047E+03 -0.40704533673E+02  0.42660618270E+03  0.45867262609E+03  0.90616774666E+02 0.  0.
         23    2    4    4    0    0 -0.48458096441E+03 -0.53099579310E+02  0.51406158027E+03  0.71398859510E+03  0.88781356313E+02 0.  0.
          5    1    3    3  502    0  0.22622802191E+03  0.32411766194E+02  0.23272164931E+03  0.32620713748E+03  0.47000000000E+01 0. -1.
         -5    1    3    3    0  502  0.12226663203E+03  0.61392346788E+02  0.24123396232E+03  0.27736990487E+03  0.47000000000E+01 0.  1.
         13    1    5    5    0    0  0.12545849056E+03 -0.52537621618E+02  0.28086352893E+03  0.31206466705E+03  0.00000000000E+00 0. -1.
        -13    1    5    5    0    0  0.10627819906E+02  0.11833087945E+02  0.14574265377E+03  0.14660795904E+03  0.00000000000E+00 0.  1.
          1    1    6    6  503    0 -0.79130950405E+02 -0.66996216726E+01  0.13706312921E+03  0.15840736609E+03  0.00000000000E+00 0. -1.
         -1    1    6    6    0  503 -0.40545001401E+03 -0.46399957637E+02  0.37699845106E+03  0.55558122901E+03  0.00000000000E+00 0.  1.
<mgrwt>
<rscale>  0 0.50245588E+03</rscale>
<asrwt>0</asrwt>
<pdfrwt beam="1">  1        2 0.24545089E+00 0.50245588E+03</pdfrwt>
<pdfrwt beam="2">  1       -2 0.27816531E-01 0.50245588E+03</pdfrwt>
<totfact> 0.13822291E+02</totfact>
</mgrwt>
</event>
<event>
12    1  0.3203156E-008  0.1464230E+04  0.7818608E-02  0.8908594E-01
         -2   -1    0    0    0  501 -0.00000000000E+00  0.00000000000E+00  0.12365788963E+04  0.12365788963E+04  0.00000000000E+00 0. -1.
          2   -1    0    0  501    0  0.00000000000E+00 -0.00000000000E+00 -0.20147226174E+04  0.20147226174E+04  0.00000000000E+00 0.  1.
         23    2    1    2    0    0 -0.66099150324E+03 -0.12391927709E+04 -0.97369324464E+03  0.17116214868E+04  0.95189750702E+02 0.  0.
    5000000    2    1    2    0    0  0.66099150324E+03  0.12391927709E+04  0.19554952353E+03  0.15396800270E+04  0.59988872176E+03 0.  0.
         23    2    4    4    0    0  0.17558356543E+03  0.56113542766E+01  0.50675065509E+02  0.20309051610E+03  0.88412214762E+02 0.  0.
         23    2    4    4    0    0  0.48540793782E+03  0.12335814166E+04  0.14487445802E+03  0.13365895109E+04  0.90216043343E+02 0.  0.
          5    1    3    3  502    0 -0.44784031242E+03 -0.76620608547E+03 -0.57786280496E+03  0.10590468461E+04  0.47000000000E+01 0. -1.
         -5    1    3    3    0  502 -0.21315119082E+03 -0.47298668540E+03 -0.39583043967E+03  0.65257464070E+03  0.47000000000E+01 0.  1.
         13    1    5    5    0    0  0.11213073398E+03  0.43419135037E+02  0.47106966696E+02  0.12914174036E+03  0.00000000000E+00 0. -1.
        -13    1    5    5    0    0  0.63452831444E+02 -0.37807780761E+02  0.35680988128E+01  0.73948775740E+02  0.00000000000E+00 0.  1.
          3    1    6    6  503    0  0.23478352787E+03  0.48978845508E+03  0.38268355360E+02  0.54450023206E+03  0.00000000000E+00 0. -1.
         -3    1    6    6    0  503  0.25062440994E+03  0.74379296151E+03  0.10660610266E+03  0.79208927879E+03  0.00000000000E+00 0.  1.
<mgrwt>
<rscale>  0 0.14642298E+04</rscale>
<asrwt>0</asrwt>
<pdfrwt beam="1">  1        2 0.30995733E+00 0.14642298E+04</pdfrwt>
<pdfrwt beam="2">  1       -2 0.19024291E+00 0.14642298E+04</pdfrwt>
<totfact> 0.95517538E-01</totfact>
</mgrwt>
</event>
<event>
12    1  0.3203156E-008  0.3201822E+03  0.7818608E-02  0.1075566E+00
          1   -1    0    0  501    0  0.00000000000E+00  0.00000000000E+00  0.19956343297E+04  0.19956343297E+04  0.00000000000E+00 0. -1.
         -1   -1    0    0    0  501 -0.00000000000E+00 -0.00000000000E+00 -0.77534094626E+02  0.77534094626E+02  0.00000000000E+00 0.  1.
         23    2    1    2    0    0  0.13034454502E+03 -0.33092204815E+01  0.26169894992E+03  0.30662373498E+03  0.92364079107E+02 0.  0.
    5000000    2    1    2    0    0 -0.13034454502E+03  0.33092204815E+01  0.16564012851E+04  0.17665446893E+04  0.60001189208E+03 0.  0.
         23    2    4    4    0    0  0.60612405619E+02 -0.20251694226E+03  0.12102254233E+04  0.12317651419E+04  0.88953999524E+02 0.  0.
         23    2    4    4    0    0 -0.19095695063E+03  0.20582616274E+03  0.44617586184E+03  0.53477954741E+03  0.89929407724E+02 0.  0.
          5    1    3    3  502    0  0.86655447662E+02 -0.12122267671E+02  0.24254105038E+03  0.25788440648E+03  0.47000000000E+01 0. -1.
         -5    1    3    3    0  502  0.43689097353E+02  0.88130471899E+01  0.19157899535E+02  0.48739328503E+02  0.47000000000E+01 0.  1.
         11    1    5    5    0    0  0.22869363502E+02 -0.12680002231E+03  0.93483066003E+03  0.94366817069E+03  0.00000000000E+00 0.  1.
        -11    1    5    5    0    0  0.37743042116E+02 -0.75716919948E+02  0.27539476328E+03  0.28809697124E+03  0.00000000000E+00 0. -1.
          4    1    6    6  503    0 -0.78268244009E+01  0.59641079670E+02  0.10182488784E+03  0.11826506394E+03  0.00000000000E+00 0. -1.
         -4    1    6    6    0  503 -0.18313012623E+03  0.14618508307E+03  0.34435097399E+03  0.41651448347E+03  0.00000000000E+00 0.  1.
<mgrwt>
<rscale>  0 0.32018215E+03</rscale>
<asrwt>0</asrwt>
<pdfrwt beam="1">  1        1 0.30702063E+00 0.32018215E+03</pdfrwt>
<pdfrwt beam="2">  1       -1 0.11928324E-01 0.32018215E+03</pdfrwt>
<totfact> 0.15582769E+02</totfact>
</mgrwt>
</event>
<event>
12    1  0.3203156E-008  0.6872180E+03  0.7818608E-02  0.9739344E-01
          2   -1    0    0  501    0  0.00000000000E+00  0.00000000000E+00  0.49236501642E+04  0.49236501642E+04  0.00000000000E+00 0.  1.
         -2   -1    0    0    0  501 -0.00000000000E+00 -0.00000000000E+00 -0.12846987144E+03  0.12846987144E+03  0.00000000000E+00 0. -1.
         23    2    1    2    0    0 -0.65283128475E+03 -0.42750059971E+02  0.14922310170E+04  0.16319669058E+04  0.92446307432E+02 0.  0.
    5000000    2    1    2    0    0  0.65283128475E+03  0.42750059971E+02  0.33029492758E+04  0.34201531298E+04  0.59996438138E+03 0.  0.
         23    2    4    4    0    0  0.60844433734E+02 -0.38968471254E+02  0.17437556621E+04  0.17475806957E+04  0.90188092240E+02 0.  0.
         23    2    4    4    0    0  0.59198685102E+03  0.81718531225E+02  0.15591936137E+04  0.16725724342E+04  0.96371532503E+02 0.  0.
          5    1    3    3  502    0 -0.36543185237E+03  0.17797466478E+02  0.78092748821E+03  0.86239609251E+03  0.47000000000E+01 0. -1.
         -5    1    3    3    0  502 -0.28739943239E+03 -0.60547526449E+02  0.71130352875E+03  0.76957081332E+03  0.47000000000E+01 0. -1.
         11    1    5    5    0    0 -0.13957948891E+02 -0.31653545074E+02  0.83733295650E+03  0.83804728464E+03  0.00000000000E+00 0.  1.
        -11    1    5    5    0    0  0.74802382624E+02 -0.73149261800E+01  0.90642270559E+03  0.90953341104E+03  0.00000000000E+00 0. -1.
          1    1    6    6  503    0  0.98337299577E+02  0.50142092832E+02  0.30455314593E+03  0.32393992137E+03  0.00000000000E+00 0. -1.
         -1    1    6    6    0  503  0.49364955144E+03  0.31576438393E+02  0.12546404678E+04  0.13486325128E+04  0.00000000000E+00 0.  1.
<mgrwt>
<rscale>  0 0.68721803E+03</rscale>
<asrwt>0</asrwt>
<pdfrwt beam="1">  1        2 0.75748450E+00 0.68721803E+03</pdfrwt>
<pdfrwt beam="2">  1       -2 0.19764599E-01 0.68721803E+03</pdfrwt>
<totfact> 0.11035163E+00</totfact>
</mgrwt>
</event>
<event>
12    1  0.3203156E-008  0.2972510E+03  0.7818608E-02  0.1086623E+00
         -3   -1    0    0    0  501 -0.00000000000E+00  0.00000000000E+00  0.49506988267E+03  0.49506988267E+03  0.00000000000E+00 0.  1.
          3   -1    0    0  501    0  0.00000000000E+00 -0.00000000000E+00 -0.25680059622E+03  0.25680059622E+03  0.00000000000E+00 0. -1.
         23    2    1    2    0    0  0.40315774825E+02  0.42056072318E+02  0.61536356445E+02  0.12386751492E+03  0.90345797738E+02 0.  0.
    5000000    2    1    2    0    0 -0.40315774825E+02 -0.42056072318E+02  0.17673293001E+03  0.62800296397E+03  0.59979923248E+03 0.  0.
         23    2    4    4    0    0 -0.69431535851E+02  0.20493131236E+03 -0.89904905731E+02  0.25083125112E+03  0.89531243186E+02 0.  0.
         23    2    4    4    0    0  0.29115761026E+02 -0.24698738468E+03  0.26663783574E+03  0.37717171285E+03  0.96500102541E+02 0.  0.
          5    1    3    3  502    0  0.46022379273E+02 -0.11598550599E+02  0.92430308892E+01  0.48580957072E+02  0.47000000000E+01 0. -1.
         -5    1    3    3    0  502 -0.57066044479E+01  0.53654622918E+02  0.52293325556E+02  0.75286557847E+02  0.47000000000E+01 0.  1.
         11    1    5    5    0    0 -0.31244231010E+02  0.17507365735E+03 -0.42110674405E+02  0.18275747965E+03  0.00000000000E+00 0. -1.
        -11    1    5    5    0    0 -0.38187304841E+02  0.29857655012E+02 -0.47794231326E+02  0.68073771468E+02  0.00000000000E+00 0.  1.
          2    1    6    6  503    0 -0.26894186391E+02 -0.16414148354E+03  0.17678732128E+03  0.24273335338E+03  0.00000000000E+00 0. -1.
         -2    1    6    6    0  503  0.56009947417E+02 -0.82845901147E+02  0.89850514460E+02  0.13443835946E+03  0.00000000000E+00 0.  1.
<mgrwt>
<rscale>  0 0.29725103E+03</rscale>
<asrwt>0</asrwt>
<pdfrwt beam="1">  1        3 0.39507784E-01 0.29725103E+03</pdfrwt>
<pdfrwt beam="2">  1       -3 0.76164597E-01 0.29725103E+03</pdfrwt>
<totfact> 0.26357490E+01</totfact>
</mgrwt>
</event>
<event>
12    1  0.3203156E-008  0.4579424E+03  0.7818608E-02  0.1025380E+00
         -4   -1    0    0    0  501 -0.00000000000E+00  0.00000000000E+00  0.58955719538E+03  0.58955719538E+03  0.00000000000E+00 0.  1.
          4   -1    0    0  501    0  0.00000000000E+00 -0.00000000000E+00 -0.62078665068E+03  0.62078665068E+03  0.00000000000E+00 0. -1.
         23    2    1    2    0    0  0.15848237328E+03 -0.24365095343E+03 -0.35650697230E+03  0.46855059589E+03  0.89218775311E+02 0.  0.
    5000000    2    1    2    0    0 -0.15848237328E+03  0.24365095343E+03  0.32527751699E+03  0.74179325016E+03  0.59997442710E+03 0.  0.
         23    2    4    4    0    0 -0.31225278973E+03  0.29545519560E+03  0.33825817517E+03  0.55469391340E+03  0.92038943910E+02 0.  0.
         23    2    4    4    0    0  0.15377041644E+03 -0.51804242176E+02 -0.12980658172E+02  0.18709933676E+03  0.92242310516E+02 0.  0.
          5    1    3    3  502    0  0.12066520668E+03 -0.18417866492E+03 -0.32154529267E+03  0.38973752444E+03  0.47000000000E+01 0. -1.
         -5    1    3    3    0  502  0.37817166603E+02 -0.59472288504E+02 -0.34961679623E+02  0.78813071453E+02  0.47000000000E+01 0.  1.
         11    1    5    5    0    0 -0.19776618602E+03  0.24303531726E+03  0.23086125243E+03  0.38919731197E+03  0.00000000000E+00 0. -1.
        -11    1    5    5    0    0 -0.11448660370E+03  0.52419878347E+02  0.10739692273E+03  0.16549660143E+03  0.00000000000E+00 0.  1.
          3    1    6    6  503    0  0.10568377352E+03 -0.77677105992E+02 -0.84646326396E+00  0.13116214881E+03  0.00000000000E+00 0. -1.
         -3    1    6    6    0  503  0.48086642926E+02  0.25872863816E+02 -0.12134194908E+02  0.55937187952E+02  0.00000000000E+00 0.  1.
<mgrwt>
<rscale>  0 0.45794238E+03</rscale>
<asrwt>0</asrwt>
<pdfrwt beam="1">  1        4 0.95505638E-01 0.45794238E+03</pdfrwt>
<pdfrwt beam="2">  1       -4 0.90701107E-01 0.45794238E+03</pdfrwt>
<totfact> 0.18613458E+00</totfact>
</mgrwt>
</event>
<event>
12    1  0.3203156E-008  0.6182913E+03  0.7818608E-02  0.9868168E-01
          2   -1    0    0  501    0  0.00000000000E+00  0.00000000000E+00  0.14091724604E+04  0.14091724604E+04  0.00000000000E+00 0.  1.
         -2   -1    0    0    0  501 -0.00000000000E+00 -0.00000000000E+00 -0.34378689097E+03  0.34378689097E+03  0.00000000000E+00 0. -1.
         23    2    1    2    0    0 -0.15028070156E+03 -0.53567476120E+03  0.33180522686E+03  0.65407632071E+03  0.90495224658E+02 0.  0.
    5000000    2    1    2    0    0  0.15028070156E+03  0.53567476120E+03  0.73358034255E+03  0.10988830306E+04  0.59989337138E+03 0.  0.
         23    2    4    4    0    0  0.31670116361E+02  0.52757090744E+03  0.24772580778E+03  0.59082392752E+03  0.91491960501E+02 0.  0.
         23    2    4    4    0    0  0.11861058520E+03  0.81038537621E+01  0.48585453477E+03  0.50805910313E+03  0.89080188341E+02 0.  0.
          5    1    3    3  502    0 -0.15809151386E+03 -0.44485817216E+03  0.28523137560E+03  0.55160742174E+03  0.47000000000E+01 0. -1.
         -5    1    3    3    0  502  0.78108122986E+01 -0.90816589045E+02  0.46573851255E+02  0.10246889897E+03  0.47000000000E+01 0.  1.
         11    1    5    5    0    0  0.26226370077E+02  0.29083061570E+03  0.87246389924E+02  0.30476581513E+03  0.00000000000E+00 0. -1.
        -11    1    5    5    0    0  0.54437462835E+01  0.23674029174E+03  0.16047941786E+03  0.28605811239E+03  0.00000000000E+00 0.  1.
          3    1    6    6  503    0  0.22922193725E+02 -0.33029171996E+02  0.87178013499E+02  0.96001870844E+02  0.00000000000E+00 0. -1.
         -3    1    6    6    0  503  0.95688391474E+02  0.41133025758E+02  0.39867652127E+03  0.41205723229E+03  0.00000000000E+00 0.  1.
<mgrwt>
<rscale>  0 0.61829130E+03</rscale>
<asrwt>0</asrwt>
<pdfrwt beam="1">  1        2 0.21679576E+00 0.61829130E+03</pdfrwt>
<pdfrwt beam="2">  1       -2 0.52890291E-01 0.61829130E+03</pdfrwt>
<totfact> 0.49922295E+01</totfact>
</mgrwt>
</event>
<event>
12    1  0.3203156E-008  0.9668565E+03  0.7818608E-02  0.9345662E-01
         -2   -1    0    0    0  501 -0.00000000000E+00  0.00000000000E+00  0.65415430152E+03  0.65415430152E+03  0.00000000000E+00 0. -1.
          2   -1    0    0  501    0  0.00000000000E+00 -0.00000000000E+00 -0.16118936244E+04  0.16118936244E+04  0.00000000000E+00 0.  1.
         23    2    1    2    0    0 -0.78051267103E+03 -0.51651110494E+03 -0.39394798686E+03  0.10194166308E+04  0.89618634516E+02 0.  0.
    5000000    2    1    2    0    0  0.78051267103E+03  0.51651110494E+03 -0.56379133603E+03  0.12466312951E+04  0.60020426879E+03 0.  0.
         23    2    4    4    0    0  0.21131450070E+03  0.33328589475E+03 -0.49190056393E+03  0.63736145433E+03  0.92358826474E+02 0.  0.
         23    2    4    4    0    0  0.56919817033E+03  0.18322521019E+03 -0.71890772101E+02  0.60926984081E+03  0.92105488680E+02 0.  0.
          5    1    3    3  502    0 -0.97134493374E+02 -0.75205179963E+02 -0.83904716319E+02  0.14883890727E+03  0.47000000000E+01 0. -1.
         -5    1    3    3    0  502 -0.68337817766E+03 -0.44130592497E+03 -0.31004327055E+03  0.87057772354E+03  0.47000000000E+01 0.  1.
         11    1    5    5    0    0  0.28870534402E+02  0.29716831574E+02 -0.16647706026E+02  0.44651360018E+02  0.00000000000E+00 0. -1.
        -11    1    5    5    0    0  0.18244396630E+03  0.30356906317E+03 -0.47525285791E+03  0.59271009431E+03  0.00000000000E+00 0.  1.
          4    1    6    6  503    0  0.42908306520E+02  0.33683876479E+02  0.11719950942E+02  0.55795013694E+02  0.00000000000E+00 0. -1.
         -4    1    6    6    0  503  0.52628986381E+03  0.14954133371E+03 -0.83610723043E+02  0.55347482711E+03  0.00000000000E+00 0.  1.
<mgrwt>
<rscale>  0 0.96685652E+03</rscale>
<asrwt>0</asrwt>
<pdfrwt beam="1">  1        2 0.24798363E+00 0.96685652E+03</pdfrwt>
<pdfrwt beam="2">  1       -2 0.10063913E+00 0.96685652E+03</pdfrwt>
<totfact> 0.89332691E+00</totfact>
</mgrwt>
</event>
<event>
12    1  0.3203156E-008  0.4632557E+03  0.7818608E-02  0.1023841E+00
         -2   -1    0    0    0  501 -0.00000000000E+00  0.00000000000E+00  0.29211621556E+03  0.29211621556E+03  0.00000000000E+00 0.  1.
          2   -1    0    0  501    0  0.00000000000E+00 -0.00000000000E+00 -0.12720749930E+04  0.12720749930E+04  0.00000000000E+00 0. -1.
         23    2    1    2    0    0 -0.27886269106E+03  0.18139397578E+03 -0.77414171794E+03  0.84794946898E+03  0.95156332284E+02 0.  0.
    5000000    2    1    2    0    0  0.27886269106E+03 -0.18139397578E+03 -0.20581705947E+03  0.71624173955E+03  0.59997782675E+03 0.  0.
         23    2    4    4    0    0  0.40174619382E+03 -0.13359280805E+03 -0.30369372208E+03  0.52889353968E+03  0.90837530092E+02 0.  0.
         23    2    4    4    0    0 -0.12288350277E+03 -0.47801167731E+02  0.97876662608E+02  0.18734819987E+03  0.90189799990E+02 0.  0.
          5    1    3    3  502    0 -0.80676499744E+02  0.90676359339E+02 -0.20234652625E+03  0.23600234414E+03  0.47000000000E+01 0. -1.
         -5    1    3    3    0  502 -0.19818619131E+03  0.90717616442E+02 -0.57179519168E+03  0.61194712483E+03  0.47000000000E+01 0.  1.
         11    1    5    5    0    0  0.24681172810E+03 -0.11233844999E+03 -0.23192343976E+03  0.35682550131E+03  0.00000000000E+00 0. -1.
        -11    1    5    5    0    0  0.15493446573E+03 -0.21254358059E+02 -0.71770282320E+02  0.17206803838E+03  0.00000000000E+00 0.  1.
          1    1    6    6  503    0 -0.81542543437E+02  0.16342818789E+02  0.56493830524E+02  0.10053768947E+03  0.00000000000E+00 0. -1.
         -1    1    6    6    0  503 -0.41340959331E+02 -0.64143986520E+02  0.41382832084E+02  0.86810510403E+02  0.00000000000E+00 0.  1.
<mgrwt>
<rscale>  0 0.46325572E+03</rscale>
<asrwt>0</asrwt>
<pdfrwt beam="1">  1        2 0.19570384E+00 0.46325572E+03</pdfrwt>
<pdfrwt beam="2">  1       -2 0.44940956E-01 0.46325572E+03</pdfrwt>
<totfact> 0.84567993E+01</totfact>
</mgrwt>
</event>
<event>
12    1  0.3203156E-008  0.1477181E+04  0.7818608E-02  0.8899771E-01
         -2   -1    0    0    0  501 -0.00000000000E+00  0.00000000000E+00  0.13422995782E+04  0.13422995782E+04  0.00000000000E+00 0.  1.
          2   -1    0    0  501    0  0.00000000000E+00 -0.00000000000E+00 -0.21452716961E+04  0.21452716961E+04  0.00000000000E+00 0. -1.
         23    2    1    2    0    0  0.32563191996E+03  0.14362638585E+04 -0.11367717108E+04  0.18626864699E+04  0.91983390351E+02 0.  0.
    5000000    2    1    2    0    0 -0.32563191996E+03 -0.14362638585E+04  0.33379959283E+03  0.16248848045E+04  0.59994869884E+03 0.  0.
         23    2    4    4    0    0 -0.15331012623E+03 -0.60047582943E+03 -0.14147550675E+03  0.64370459288E+03  0.10131666870E+03 0.  0.
         23    2    4    4    0    0 -0.17232179373E+03 -0.83578802905E+03  0.47527509958E+03  0.98118021162E+03  0.92691732552E+02 0.  0.
          5    1    3    3  502    0  0.10396513779E+02  0.99450847562E+02 -0.10301472343E+03  0.14364080835E+03  0.47000000000E+01 0. -1.
         -5    1    3    3    0  502  0.31523540618E+03  0.13368130109E+04 -0.10337569873E+04  0.17190456615E+04  0.47000000000E+01 0.  1.
         11    1    5    5    0    0 -0.27969637232E+02 -0.23083537645E+03 -0.13376182926E+02  0.23290812330E+03  0.00000000000E+00 0. -1.
        -11    1    5    5    0    0 -0.12534048900E+03 -0.36964045298E+03 -0.12809932382E+03  0.41079646959E+03  0.00000000000E+00 0.  1.
          4    1    6    6  503    0 -0.57994405059E+02 -0.12239557437E+03  0.86808572493E+02  0.16087186175E+03  0.00000000000E+00 0.  1.
         -4    1    6    6    0  503 -0.11432738867E+03 -0.71339245468E+03  0.38846652709E+03  0.82030834987E+03  0.00000000000E+00 0. -1.
<mgrwt>
<rscale>  0 0.14771809E+04</rscale>
<asrwt>0</asrwt>
<pdfrwt beam="1">  1        2 0.33004180E+00 0.14771809E+04</pdfrwt>
<pdfrwt beam="2">  1       -2 0.20650763E+00 0.14771809E+04</pdfrwt>
<totfact> 0.62909701E-01</totfact>
</mgrwt>
</event>
<event>
12    1  0.3203156E-008  0.3292636E+03  0.7818608E-02  0.1071463E+00
          1   -1    0    0  501    0  0.00000000000E+00  0.00000000000E+00  0.16270653111E+03  0.16270653111E+03  0.00000000000E+00 0.  1.
         -1   -1    0    0    0  501 -0.00000000000E+00 -0.00000000000E+00 -0.10677914817E+04  0.10677914817E+04  0.00000000000E+00 0. -1.
         23    2    1    2    0    0  0.81345101924E+02 -0.36147279279E+02  0.17106219602E+02  0.12691265477E+03  0.88828755401E+02 0.  0.
    5000000    2    1    2    0    0 -0.81345101924E+02  0.36147279279E+02 -0.92219117020E+03  0.11035853580E+04  0.59961690826E+03 0.  0.
         23    2    4    4    0    0 -0.14967590027E+03 -0.23802250664E+03 -0.57315293567E+03  0.64493776987E+03  0.91557908163E+02 0.  0.
         23    2    4    4    0    0  0.68330798347E+02  0.27416978592E+03 -0.34903823453E+03  0.45864758817E+03  0.93229563201E+02 0.  0.
          5    1    3    3  502    0  0.49753913098E+02 -0.14595398723E+02  0.52971427651E+02  0.74273411661E+02  0.47000000000E+01 0. -1.
         -5    1    3    3    0  502  0.31591188825E+02 -0.21551880556E+02 -0.35865208049E+02  0.52639243111E+02  0.47000000000E+01 0.  1.
         11    1    5    5    0    0 -0.87188460692E+02 -0.16786292689E+03 -0.28675656000E+03  0.34352454731E+03  0.00000000000E+00 0.  1.
        -11    1    5    5    0    0 -0.62487439580E+02 -0.70159579748E+02 -0.28639637567E+03  0.30141322256E+03  0.00000000000E+00 0. -1.
          1    1    6    6  503    0  0.59983416147E+02  0.16907155327E+03 -0.28028757147E+03  0.33278269645E+03  0.00000000000E+00 0. -1.
         -1    1    6    6    0  503  0.83473822008E+01  0.10509823265E+03 -0.68750663064E+02  0.12586489172E+03  0.00000000000E+00 0.  1.
<mgrwt>
<rscale>  0 0.32926356E+03</rscale>
<asrwt>0</asrwt>
<pdfrwt beam="1">  1        1 0.25031773E-01 0.32926356E+03</pdfrwt>
<pdfrwt beam="2">  1       -1 0.16427562E+00 0.32926356E+03</pdfrwt>
<totfact> 0.56365323E+01</totfact>
</mgrwt>
</event>
<event>
12    1  0.3203156E-008  0.4765944E+03  0.7818608E-02  0.1020075E+00
          1   -1    0    0  501    0  0.00000000000E+00  0.00000000000E+00  0.14689655674E+04  0.14689655674E+04  0.00000000000E+00 0. -1.
         -1   -1    0    0    0  501 -0.00000000000E+00 -0.00000000000E+00 -0.18456333865E+03  0.18456333865E+03  0.00000000000E+00 0.  1.
         23    2    1    2    0    0 -0.32467849992E+03 -0.25934568282E+02  0.28207460866E+03  0.44077771163E+03  0.92898740954E+02 0.  0.
    5000000    2    1    2    0    0  0.32467849992E+03  0.25934568282E+02  0.10023276201E+04  0.12127511944E+04  0.60001339271E+03 0.  0.
         23    2    4    4    0    0 -0.10481277682E+03  0.13236719123E+03  0.13251383988E+03  0.23287301135E+03  0.90350042372E+02 0.  0.
         23    2    4    4    0    0  0.42949127674E+03 -0.10643262295E+03  0.86981378024E+03  0.97987818310E+03  0.88286926483E+02 0.  0.
          5    1    3    3  502    0 -0.12090718040E+03 -0.54696457059E+02  0.11500202444E+03  0.17566389587E+03  0.47000000000E+01 0. -1.
         -5    1    3    3    0  502 -0.20377131953E+03  0.28761888776E+02  0.16707258422E+03  0.26511381576E+03  0.47000000000E+01 0.  1.
         11    1    5    5    0    0 -0.64357796438E+02  0.55322918922E+02  0.11690865083E+03  0.14446516521E+03  0.00000000000E+00 0. -1.
        -11    1    5    5    0    0 -0.40454980380E+02  0.77044272307E+02  0.15605189043E+02  0.88407846134E+02  0.00000000000E+00 0.  1.
          3    1    6    6  503    0  0.12904753265E+03 -0.25916150206E+02  0.35225744553E+03  0.37604550317E+03  0.00000000000E+00 0. -1.
         -3    1    6    6    0  503  0.30044374409E+03 -0.80516472741E+02  0.51755633471E+03  0.60383267993E+03  0.00000000000E+00 0.  1.
<mgrwt>
<rscale>  0 0.47659443E+03</rscale>
<asrwt>0</asrwt>
<pdfrwt beam="1">  1        1 0.22599469E+00 0.47659443E+03</pdfrwt>
<pdfrwt beam="2">  1       -1 0.28394361E-01 0.47659443E+03</pdfrwt>
<totfact> 0.81747289E+01</totfact>
</mgrwt>
</event>
<event>
12    1  0.3203156E-008  0.1555577E+04  0.7818608E-02  0.8848313E-01
         -2   -1    0    0    0  501 -0.00000000000E+00  0.00000000000E+00  0.17463897536E+04  0.17463897536E+04  0.00000000000E+00 0.  1.
          2   -1    0    0  501    0  0.00000000000E+00 -0.00000000000E+00 -0.16950659533E+04  0.16950659533E+04  0.00000000000E+00 0. -1.
         23    2    1    2    0    0  0.10847538023E+04 -0.10375788301E+04 -0.69994677739E+03  0.16587864963E+04  0.91577884800E+02 0.  0.
    5000000    2    1    2    0    0 -0.10847538023E+04  0.10375788301E+04  0.75127057765E+03  0.17826692105E+04  0.60020112710E+03 0.  0.
         23    2    4    4    0    0 -0.10120955822E+04  0.64338051585E+03  0.49621788981E+03  0.13009902021E+04  0.89818462670E+02 0.  0.
         23    2    4    4    0    0 -0.72658220121E+02  0.39419831425E+03  0.25505268784E+03  0.48167900838E+03  0.79317498880E+02 0.  0.
          5    1    3    3  502    0  0.35187538674E+03 -0.38772630759E+03 -0.21890507679E+03  0.56752929443E+03  0.47000000000E+01 0. -1.
         -5    1    3    3    0  502  0.73287841555E+03 -0.64985252252E+03 -0.48104170060E+03  0.10912572019E+04  0.47000000000E+01 0.  1.
         11    1    5    5    0    0 -0.64907048803E+03  0.46247533028E+03  0.33487518318E+03  0.86447516903E+03  0.00000000000E+00 0.  1.
        -11    1    5    5    0    0 -0.36302509413E+03  0.18090518557E+03  0.16134270662E+03  0.43651503309E+03  0.00000000000E+00 0. -1.
          3    1    6    6  503    0 -0.62504662682E+02  0.17176175620E+03  0.85415228900E+02  0.20175404600E+03  0.00000000000E+00 0.  1.
         -3    1    6    6    0  503 -0.10153557440E+02  0.22243655806E+03  0.16963745894E+03  0.27992496239E+03  0.00000000000E+00 0. -1.
<mgrwt>
<rscale>  0 0.15555774E+04</rscale>
<asrwt>0</asrwt>
<pdfrwt beam="1">  1        2 0.26077938E+00 0.15555774E+04</pdfrwt>
<pdfrwt beam="2">  1       -2 0.26867535E+00 0.15555774E+04</pdfrwt>
<totfact> 0.45490063E-01</totfact>
</mgrwt>
</event>
<event>
12    1  0.3203156E-008  0.1771805E+04  0.7818608E-02  0.8721438E-01
          2   -1    0    0  501    0  0.00000000000E+00  0.00000000000E+00  0.23704944269E+04  0.23704944269E+04  0.00000000000E+00 0. -1.
         -2   -1    0    0    0  501 -0.00000000000E+00 -0.00000000000E+00 -0.16068004276E+04  0.16068004276E+04  0.00000000000E+00 0.  1.
         23    2    1    2    0    0 -0.39076137623E+03 -0.17099921541E+04  0.11287310794E+04  0.20878421805E+04  0.91013740204E+02 0.  0.
    5000000    2    1    2    0    0  0.39076137623E+03  0.17099921541E+04 -0.36503708014E+03  0.18894526740E+04  0.60000976411E+03 0.  0.
         23    2    4    4    0    0  0.60093682227E+02  0.10384522114E+04  0.17254742641E+02  0.10442811431E+04  0.90725595848E+02 0.  0.
         23    2    4    4    0    0  0.33066769400E+03  0.67153994276E+03 -0.38229182278E+03  0.84517153089E+03  0.88661492691E+02 0.  0.
          5    1    3    3  502    0 -0.23484774846E+03 -0.94978475588E+03  0.67860892357E+03  0.11907042910E+04  0.47000000000E+01 0. -1.
         -5    1    3    3    0  502 -0.15591362777E+03 -0.76020739826E+03  0.45012215580E+03  0.89713788953E+03  0.47000000000E+01 0.  1.
         13    1    5    5    0    0  0.20009354910E+02  0.44475497049E+03  0.51927444509E+02  0.44822295518E+03  0.00000000000E+00 0.  1.
        -13    1    5    5    0    0  0.40084327317E+02  0.59369724088E+03 -0.34672701869E+02  0.59605818792E+03  0.00000000000E+00 0. -1.
          4    1    6    6  503    0  0.20069084403E+03  0.38105922735E+03 -0.17211397160E+03  0.46379539545E+03  0.00000000000E+00 0. -1.
         -4    1    6    6    0  503  0.12997684998E+03  0.29048071542E+03 -0.21017785118E+03  0.38137613544E+03  0.00000000000E+00 0.  1.
<mgrwt>
<rscale>  0 0.17718053E+04</rscale>
<asrwt>0</asrwt>
<pdfrwt beam="1">  1        2 0.36469145E+00 0.17718053E+04</pdfrwt>
<pdfrwt beam="2">  1       -2 0.24720007E+00 0.17718053E+04</pdfrwt>
<totfact> 0.25158850E-01</totfact>
</mgrwt>
</event>
<event>
12    1  0.3203156E-008  0.7438656E+03  0.7818608E-02  0.9645024E-01
          2   -1    0    0  501    0  0.00000000000E+00  0.00000000000E+00  0.12932099468E+04  0.12932099468E+04  0.00000000000E+00 0. -1.
         -2   -1    0    0    0  501 -0.00000000000E+00 -0.00000000000E+00 -0.48952929483E+03  0.48952929483E+03  0.00000000000E+00 0.  1.
         23    2    1    2    0    0 -0.15541437482E+03  0.64941411376E+03  0.48501166740E+03  0.83018665939E+03  0.89895788859E+02 0.  0.
    5000000    2    1    2    0    0  0.15541437482E+03 -0.64941411376E+03  0.31866898460E+03  0.95255258226E+03  0.59992848005E+03 0.  0.
         23    2    4    4    0    0  0.30814867511E+03 -0.35592144326E+03 -0.64548044390E+01  0.47990936702E+03  0.92928232033E+02 0.  0.
         23    2    4    4    0    0 -0.15273430029E+03 -0.29349267050E+03  0.32512378904E+03  0.47264321524E+03  0.90666513080E+02 0.  0.
          5    1    3    3  502    0 -0.14594727093E+03  0.50895424329E+03  0.34749354934E+03  0.63333157547E+03  0.47000000000E+01 0. -1.
         -5    1    3    3    0  502 -0.94671038918E+01  0.14045987048E+03  0.13751811806E+03  0.19685508392E+03  0.47000000000E+01 0.  1.
         13    1    5    5    0    0  0.18371672232E+03 -0.26901414204E+03  0.17608511267E+02  0.32623688073E+03  0.00000000000E+00 0. -1.
        -13    1    5    5    0    0  0.12443195279E+03 -0.86907301220E+02 -0.24063315706E+02  0.15367248629E+03  0.00000000000E+00 0.  1.
          3    1    6    6  503    0 -0.18394588808E+02 -0.11493830701E+03  0.14293191424E+03  0.18433314250E+03  0.00000000000E+00 0. -1.
         -3    1    6    6    0  503 -0.13433971148E+03 -0.17855436349E+03  0.18219187480E+03  0.28831007274E+03  0.00000000000E+00 0.  1.
<mgrwt>
<rscale>  0 0.74386560E+03</rscale>
<asrwt>0</asrwt>
<pdfrwt beam="1">  1        2 0.19895538E+00 0.74386560E+03</pdfrwt>
<pdfrwt beam="2">  1       -2 0.75312200E-01 0.74386560E+03</pdfrwt>
<totfact> 0.26945470E+01</totfact>
</mgrwt>
</event>
<event>
12    1  0.3203156E-008  0.1082540E+04  0.7818608E-02  0.9222379E-01
         -1   -1    0    0    0  501 -0.00000000000E+00  0.00000000000E+00  0.21466736262E+04  0.21466736262E+04  0.00000000000E+00 0.  1.
          1   -1    0    0  501    0  0.00000000000E+00 -0.00000000000E+00 -0.59639434806E+03  0.59639434806E+03  0.00000000000E+00 0. -1.
         23    2    1    2    0    0 -0.27397919274E+03  0.98256820238E+03  0.42067257575E+03  0.11070725852E+04  0.90218748604E+02 0.  0.
    5000000    2    1    2    0    0  0.27397919274E+03 -0.98256820238E+03  0.11296067024E+04  0.16359953890E+04  0.59997061632E+03 0.  0.
         23    2    4    4    0    0  0.33254698029E+03 -0.10046772451E+04  0.10786716334E+04  0.15138292647E+04  0.90458215847E+02 0.  0.
         23    2    4    4    0    0 -0.58567787553E+02  0.22109042756E+02  0.50935068917E+02  0.12216612432E+03  0.91712513738E+02 0.  0.
          5    1    3    3  502    0 -0.24626503853E+03  0.74327646814E+03  0.32720404685E+03  0.84864065161E+03  0.47000000000E+01 0. -1.
         -5    1    3    3    0  502 -0.27714154205E+02  0.23929173424E+03  0.93468528902E+02  0.25843193362E+03  0.47000000000E+01 0.  1.
         11    1    5    5    0    0  0.19724807737E+03 -0.47095566268E+03  0.48714089281E+03  0.70569985807E+03  0.00000000000E+00 0.  1.
        -11    1    5    5    0    0  0.13529890292E+03 -0.53372158245E+03  0.59153074063E+03  0.80812940660E+03  0.00000000000E+00 0. -1.
          2    1    6    6  503    0 -0.52658483227E+01  0.25950386433E+02 -0.20121291579E+02  0.33256850263E+02  0.00000000000E+00 0.  1.
         -2    1    6    6    0  503 -0.53301939230E+02 -0.38413436769E+01  0.71056360497E+02  0.88909274060E+02  0.00000000000E+00 0. -1.
<mgrwt>
<rscale>  0 0.10825397E+04</rscale>
<asrwt>0</asrwt>
<pdfrwt beam="1">  1        1 0.91752978E-01 0.10825397E+04</pdfrwt>
<pdfrwt beam="2">  1       -1 0.33025748E+00 0.10825397E+04</pdfrwt>
<totfact> 0.72916736E-01</totfact>
</mgrwt>
</event>
<event>
12    1  0.3203156E-008  0.1110585E+04  0.7818608E-02  0.9194936E-01
          1   -1    0    0  501    0  0.00000000000E+00  0.00000000000E+00  0.15252868881E+04  0.15252868881E+04  0.00000000000E+00 0. -1.
         -1   -1    0    0    0  501 -0.00000000000E+00 -0.00000000000E+00 -0.91764756417E+03  0.91764756417E+03  0.00000000000E+00 0.  1.
         23    2    1    2    0    0  0.81539724865E+03 -0.72491373513E+03  0.10405927752E+03  0.10997793640E+04  0.91179601599E+02 0.  0.
    5000000    2    1    2    0    0 -0.81539724865E+03  0.72491373513E+03  0.50358004644E+03  0.13431550883E+04  0.60008343722E+03 0.  0.
         23    2    4    4    0    0 -0.42340416079E+03  0.20862926201E+03 -0.52858625937E+02  0.48382698692E+03  0.92180619453E+02 0.  0.
         23    2    4    4    0    0 -0.39199308786E+03  0.51628447312E+03  0.55643867238E+03  0.85932810139E+03  0.92803834024E+02 0.  0.
          5    1    3    3  502    0  0.71015064442E+03 -0.64299698348E+03  0.62668663475E+02  0.96005651391E+03  0.47000000000E+01 0. -1.
         -5    1    3    3    0  502  0.10524660423E+03 -0.81916751650E+02  0.41390614047E+02  0.13972285008E+03  0.47000000000E+01 0.  1.
         13    1    5    5    0    0 -0.12200527216E+03  0.28548640006E+02  0.15113701473E+02  0.12620909338E+03  0.00000000000E+00 0. -1.
        -13    1    5    5    0    0 -0.30139888863E+03  0.18008062200E+03 -0.67972327410E+02  0.35761789354E+03  0.00000000000E+00 0.  1.
          3    1    6    6  503    0 -0.11640499131E+03  0.96785585292E+02  0.15446502363E+03  0.21627994601E+03  0.00000000000E+00 0. -1.
         -3    1    6    6    0  503 -0.27558809655E+03  0.41949888783E+03  0.40197364875E+03  0.64304815538E+03  0.00000000000E+00 0.  1.
<mgrwt>
<rscale>  0 0.11105850E+04</rscale>
<asrwt>0</asrwt>
<pdfrwt beam="1">  1        1 0.23465952E+00 0.11105850E+04</pdfrwt>
<pdfrwt beam="2">  1       -1 0.14117655E+00 0.11105850E+04</pdfrwt>
<totfact> 0.25549117E+00</totfact>
</mgrwt>
</event>
<event>
12    1  0.3681752E-008  0.6405572E+03  0.7818608E-02  0.9824661E-01
         -2   -1    0    0    0  501 -0.00000000000E+00  0.00000000000E+00  0.26269945583E+03  0.26269945583E+03  0.00000000000E+00 0.  1.
          2   -1    0    0  501    0  0.00000000000E+00 -0.00000000000E+00 -0.18186057006E+04  0.18186057006E+04  0.00000000000E+00 0. -1.
         23    2    1    2    0    0 -0.15098397230E+03  0.53517335821E+03 -0.62308896618E+03  0.84058942250E+03  0.95624443589E+02 0.  0.
    5000000    2    1    2    0    0  0.15098397230E+03 -0.53517335821E+03 -0.93281727856E+03  0.12407157339E+04  0.60001731136E+03 0.  0.
         23    2    4    4    0    0  0.30409874006E+03 -0.43246112447E+03 -0.39873354334E+03  0.66841814391E+03  0.91080780824E+02 0.  0.
         23    2    4    4    0    0 -0.15311476776E+03 -0.10271223374E+03 -0.53408373522E+03  0.57229758999E+03  0.91022855479E+02 0.  0.
          5    1    3    3  502    0 -0.79400616468E+02  0.35049949936E+03 -0.46141556085E+03  0.58487671072E+03  0.47000000000E+01 0. -1.
         -5    1    3    3    0  502 -0.71583355834E+02  0.18467385885E+03 -0.16167340533E+03  0.25571271178E+03  0.47000000000E+01 0.  1.
         13    1    5    5    0    0  0.17602127013E+03 -0.32059737503E+03 -0.25641588130E+03  0.44667132055E+03  0.00000000000E+00 0.  1.
        -13    1    5    5    0    0  0.12807746993E+03 -0.11186374944E+03 -0.14231766204E+03  0.22174682336E+03  0.00000000000E+00 0. -1.
          3    1    6    6  503    0 -0.10737370301E+03 -0.51363993841E+02 -0.21365341237E+03  0.24457136500E+03  0.00000000000E+00 0.  1.
         -3    1    6    6    0  503 -0.45741064749E+02 -0.51348239896E+02 -0.32043032286E+03  0.32772622500E+03  0.00000000000E+00 0. -1.
<mgrwt>
<rscale>  0 0.64055719E+03</rscale>
<asrwt>0</asrwt>
<pdfrwt beam="1">  1        2 0.27978550E+00 0.64055719E+03</pdfrwt>
<pdfrwt beam="2">  1       -2 0.40415300E-01 0.64055719E+03</pdfrwt>
<totfact> 0.50822538E+01</totfact>
</mgrwt>
</event>
<event>
12    1  0.3203156E-008  0.1191730E+04  0.7818608E-02  0.9120126E-01
          1   -1    0    0  501    0  0.00000000000E+00  0.00000000000E+00  0.10884758549E+04  0.10884758549E+04  0.00000000000E+00 0. -1.
         -1   -1    0    0    0  501 -0.00000000000E+00 -0.00000000000E+00 -0.19667573793E+04  0.19667573793E+04  0.00000000000E+00 0.  1.
         23    2    1    2    0    0  0.10907691201E+04  0.28087811098E+03  0.44718718351E+03  0.12152617348E+04  0.90636198863E+02 0.  0.
    5000000    2    1    2    0    0 -0.10907691201E+04 -0.28087811098E+03 -0.13254687079E+04  0.18399714994E+04  0.59996502950E+03 0.  0.
         23    2    4    4    0    0 -0.63126002133E+02 -0.20978589440E+03 -0.20028024406E+03  0.31155424769E+03  0.94651251756E+02 0.  0.
         23    2    4    4    0    0 -0.10276431179E+04 -0.71092216580E+02 -0.11251884639E+04  0.15284172518E+04  0.94370202977E+02 0.  0.
          5    1    3    3  502    0  0.54610992855E+03  0.14285622954E+03  0.27252759117E+03  0.62684713792E+03  0.47000000000E+01 0.  1.
         -5    1    3    3    0  502  0.54465919151E+03  0.13802188143E+03  0.17465959234E+03  0.58841459690E+03  0.47000000000E+01 0. -1.
         11    1    5    5    0    0 -0.36642886760E+02 -0.36978170370E+02 -0.92593565053E+02  0.10622454765E+03  0.00000000000E+00 0. -1.
        -11    1    5    5    0    0 -0.26483115374E+02 -0.17280772403E+03 -0.10768667901E+03  0.20532970004E+03  0.00000000000E+00 0.  1.
          1    1    6    6  503    0 -0.26553701386E+03 -0.23930180986E+02 -0.35401383095E+03  0.44317981880E+03  0.00000000000E+00 0. -1.
         -1    1    6    6    0  503 -0.76210610406E+03 -0.47162035594E+02 -0.77117463291E+03  0.10852374330E+04  0.00000000000E+00 0.  1.
<mgrwt>
<rscale>  0 0.11917304E+04</rscale>
<asrwt>0</asrwt>
<pdfrwt beam="1">  1        1 0.16745783E+00 0.11917304E+04</pdfrwt>
<pdfrwt beam="2">  1       -1 0.30257806E+00 0.11917304E+04</pdfrwt>
<totfact> 0.40534831E-01</totfact>
</mgrwt>
</event>
<event>
12    1  0.3203156E-008  0.8063961E+03  0.7818608E-02  0.9550805E-01
          2   -1    0    0  501    0  0.00000000000E+00  0.00000000000E+00  0.91323050741E+03  0.91323050741E+03  0.00000000000E+00 0.  1.
         -2   -1    0    0    0  501 -0.00000000000E+00 -0.00000000000E+00 -0.84687120942E+03  0.84687120942E+03  0.00000000000E+00 0. -1.
         23    2    1    2    0    0  0.56245867590E+02  0.74644201129E+03 -0.16811442915E+03  0.77245320742E+03  0.89901182013E+02 0.  0.
    5000000    2    1    2    0    0 -0.56245867590E+02 -0.74644201129E+03  0.23447372713E+03  0.98764850941E+03  0.60011030285E+03 0.  0.
         23    2    4    4    0    0  0.11801193810E+03 -0.64217351984E+03 -0.63161716225E+01  0.65944491880E+03  0.92271663017E+02 0.  0.
         23    2    4    4    0    0 -0.17425780569E+03 -0.10426849145E+03  0.24078989876E+03  0.32820359061E+03  0.92196097495E+02 0.  0.
          5    1    3    3  502    0 -0.11554598238E+02  0.13814319634E+03 -0.40568919102E+01  0.13876454810E+03  0.47000000000E+01 0. -1.
         -5    1    3    3    0  502  0.67800465829E+02  0.60829881495E+03 -0.16405753724E+03  0.63368865932E+03  0.47000000000E+01 0.  1.
         11    1    5    5    0    0  0.58874514139E+02 -0.47355284186E+03 -0.34942977827E+02  0.47847624199E+03  0.00000000000E+00 0. -1.
        -11    1    5    5    0    0  0.59137423957E+02 -0.16862067798E+03  0.28626806205E+02  0.18096867681E+03  0.00000000000E+00 0.  1.
          1    1    6    6  503    0 -0.12268612614E+03 -0.53823326555E+02  0.91028368561E+02  0.16197221956E+03  0.00000000000E+00 0. -1.
         -1    1    6    6    0  503 -0.51571679550E+02 -0.50445164896E+02  0.14976153019E+03  0.16623137104E+03  0.00000000000E+00 0.  1.
<mgrwt>
<rscale>  0 0.80639607E+03</rscale>
<asrwt>0</asrwt>
<pdfrwt beam="1">  1        2 0.14049700E+00 0.80639607E+03</pdfrwt>
<pdfrwt beam="2">  1       -2 0.13028788E+00 0.80639607E+03</pdfrwt>
<totfact> 0.12531283E+01</totfact>
</mgrwt>
</event>
<event>
12    1  0.3203156E-008  0.1331302E+04  0.7818608E-02  0.9005104E-01
         -1   -1    0    0    0  501 -0.00000000000E+00  0.00000000000E+00  0.54767309369E+04  0.54767309369E+04  0.00000000000E+00 0.  1.
          1   -1    0    0  501    0  0.00000000000E+00 -0.00000000000E+00 -0.55557316597E+03  0.55557316597E+03  0.00000000000E+00 0. -1.
         23    2    1    2    0    0 -0.84474410195E+03 -0.99670011893E+03  0.42470845286E+04  0.44444854332E+04  0.93381197883E+02 0.  0.
    5000000    2    1    2    0    0  0.84474410195E+03  0.99670011893E+03  0.67407324233E+03  0.15878186697E+04  0.59982469675E+03 0.  0.
         23    2    4    4    0    0  0.81824020350E+03  0.91532866205E+03  0.75043496218E+03  0.14417956627E+04  0.90986319596E+02 0.  0.
         23    2    4    4    0    0  0.26503898448E+02  0.81371456878E+02 -0.76361719848E+02  0.14602300695E+03  0.90376079094E+02 0.  0.
          5    1    3    3  502    0 -0.58398707179E+03 -0.64840650895E+03  0.29504294585E+04  0.30767723315E+04  0.47000000000E+01 0. -1.
         -5    1    3    3    0  502 -0.26075703016E+03 -0.34829360998E+03  0.12966550701E+04  0.13677131016E+04  0.47000000000E+01 0.  1.
         11    1    5    5    0    0  0.72975067112E+03  0.85387012724E+03  0.69092700607E+03  0.13187154219E+04  0.00000000000E+00 0. -1.
        -11    1    5    5    0    0  0.88489532381E+02  0.61458534811E+02  0.59507956106E+02  0.12308024083E+03  0.00000000000E+00 0.  1.
          2    1    6    6  503    0 -0.33397204517E+02  0.32231444653E+02 -0.35473057392E+02  0.58417267094E+02  0.00000000000E+00 0. -1.
         -2    1    6    6    0  503  0.59901102964E+02  0.49140012225E+02 -0.40888662455E+02  0.87605739853E+02  0.00000000000E+00 0.  1.
<mgrwt>
<rscale>  0 0.13313022E+04</rscale>
<asrwt>0</asrwt>
<pdfrwt beam="1">  1        1 0.85472798E-01 0.13313022E+04</pdfrwt>
<pdfrwt beam="2">  1       -1 0.84257395E+00 0.13313022E+04</pdfrwt>
<totfact> 0.13574360E-03</totfact>
</mgrwt>
</event>
<event>
12    1  0.3520884E-008  0.7045415E+03  0.7818608E-02  0.9709497E-01
          2   -1    0    0  501    0  0.00000000000E+00  0.00000000000E+00  0.10844786638E+04  0.10844786638E+04  0.00000000000E+00 0.  1.
         -2   -1    0    0    0  501 -0.00000000000E+00 -0.00000000000E+00 -0.63000909004E+03  0.63000909004E+03  0.00000000000E+00 0. -1.
         23    2    1    2    0    0 -0.25051768507E+02  0.61745075608E+03  0.56991589839E+03  0.84541241193E+03  0.89693855551E+02 0.  0.
    5000000    2    1    2    0    0  0.25051768507E+02 -0.61745075608E+03 -0.11544632460E+03  0.86907534194E+03  0.60007588588E+03 0.  0.
         23    2    4    4    0    0  0.22571573280E+03 -0.13769019733E+03  0.10433702159E+03  0.29766650602E+03  0.88390905961E+02 0.  0.
         23    2    4    4    0    0 -0.20066396429E+03 -0.47976055875E+03 -0.21978334619E+03  0.57140883592E+03  0.88131255545E+02 0.  0.
          5    1    3    3  502    0 -0.91189493456E+01  0.29904218263E+03  0.21587906521E+03  0.36896509730E+03  0.47000000000E+01 0. -1.
         -5    1    3    3    0  502 -0.15932819162E+02  0.31840857345E+03  0.35403683318E+03  0.47644731463E+03  0.47000000000E+01 0.  1.
         13    1    5    5    0    0  0.11634160497E+03 -0.10055524879E+03  0.97243990800E+02  0.18194263066E+03  0.00000000000E+00 0.  1.
        -13    1    5    5    0    0  0.10937412783E+03 -0.37134948542E+02  0.70930307945E+01  0.11572387536E+03  0.00000000000E+00 0. -1.
          3    1    6    6  503    0 -0.10603775619E+03 -0.30651680956E+03 -0.17673793769E+03  0.36936818880E+03  0.00000000000E+00 0. -1.
         -3    1    6    6    0  503 -0.94626208102E+02 -0.17324374919E+03 -0.43045408498E+02  0.20204064711E+03  0.00000000000E+00 0.  1.
<mgrwt>
<rscale>  0 0.70454151E+03</rscale>
<asrwt>0</asrwt>
<pdfrwt beam="1">  1        2 0.16684287E+00 0.70454151E+03</pdfrwt>
<pdfrwt beam="2">  1       -2 0.96924475E-01 0.70454151E+03</pdfrwt>
<totfact> 0.20255110E+01</totfact>
</mgrwt>
</event>
<event>
12    1  0.3203156E-008  0.1351184E+04  0.7818608E-02  0.8989932E-01
          2   -1    0    0  501    0  0.00000000000E+00  0.00000000000E+00  0.31604702645E+04  0.31604702645E+04  0.00000000000E+00 0. -1.
         -2   -1    0    0    0  501 -0.00000000000E+00 -0.00000000000E+00 -0.68037183827E+03  0.68037183827E+03  0.00000000000E+00 0.  1.
         23    2    1    2    0    0  0.11020000718E+03 -0.13001670368E+04  0.18661627584E+04  0.22789580858E+04  0.92239638012E+02 0.  0.
    5000000    2    1    2    0    0 -0.11020000718E+03  0.13001670368E+04  0.61393566784E+03  0.15618840170E+04  0.59998859422E+03 0.  0.
         23    2    4    4    0    0  0.16528452438E+03  0.20906796838E+03  0.24913302446E+03  0.37517869167E+03  0.87540832808E+02 0.  0.
         23    2    4    4    0    0 -0.27548453156E+03  0.10910990684E+04  0.36480264338E+03  0.11867053253E+04  0.93806483485E+02 0.  0.
          5    1    3    3  502    0  0.54702915419E+02 -0.10231873836E+04  0.14272596955E+04  0.17569852473E+04  0.47000000000E+01 0. -1.
         -5    1    3    3    0  502  0.55497091766E+02 -0.27697965320E+03  0.43890306294E+03  0.52197283851E+03  0.47000000000E+01 0.  1.
         13    1    5    5    0    0  0.68675953329E+02  0.81196076968E+02  0.44556095383E+02  0.11530149659E+03  0.00000000000E+00 0. -1.
        -13    1    5    5    0    0  0.96608571046E+02  0.12787189141E+03  0.20457692907E+03  0.25987719508E+03  0.00000000000E+00 0.  1.
          3    1    6    6  503    0 -0.14909147049E+03  0.75314309732E+03  0.26710645869E+03  0.81289522812E+03  0.00000000000E+00 0.  1.
         -3    1    6    6    0  503 -0.12639306107E+03  0.33795597108E+03  0.97696184692E+02  0.37381009721E+03  0.00000000000E+00 0. -1.
<mgrwt>
<rscale>  0 0.13511838E+04</rscale>
<asrwt>0</asrwt>
<pdfrwt beam="1">  1        2 0.48622618E+00 0.13511838E+04</pdfrwt>
<pdfrwt beam="2">  1       -2 0.10467259E+00 0.13511838E+04</pdfrwt>
<totfact> 0.99208940E-01</totfact>
</mgrwt>
</event>
<event>
12    1  0.3203156E-008  0.5217236E+03  0.7818608E-02  0.1008259E+00
          2   -1    0    0  501    0  0.00000000000E+00  0.00000000000E+00  0.36683929823E+03  0.36683929823E+03  0.00000000000E+00 0. -1.
         -2   -1    0    0    0  501 -0.00000000000E+00 -0.00000000000E+00 -0.97152314931E+03  0.97152314931E+03  0.00000000000E+00 0.  1.
         23    2    1    2    0    0  0.16152421669E+03 -0.38213460489E+03 -0.39361539276E+03  0.57915531911E+03  0.91492499162E+02 0.  0.
    5000000    2    1    2    0    0 -0.16152421669E+03  0.38213460489E+03 -0.21106845832E+03  0.75920712843E+03  0.59977382481E+03 0.  0.
         23    2    4    4    0    0 -0.23874593940E+03  0.43545019525E+03 -0.31247929411E+03  0.59358849334E+03  0.89930495684E+02 0.  0.
         23    2    4    4    0    0  0.77221722704E+02 -0.53315590360E+02  0.10141083579E+03  0.16561863510E+03  0.91321563957E+02 0.  0.
          5    1    3    3  502    0  0.86176329716E+02 -0.16094169236E+03 -0.11640643110E+03  0.21656669953E+03  0.47000000000E+01 0. -1.
         -5    1    3    3    0  502  0.75347886976E+02 -0.22119291253E+03 -0.27720896166E+03  0.36258861958E+03  0.47000000000E+01 0.  1.
         11    1    5    5    0    0 -0.11822074585E+03  0.21715083269E+03 -0.20847432789E+03  0.32340713393E+03  0.00000000000E+00 0.  1.
        -11    1    5    5    0    0 -0.12052519354E+03  0.21829936256E+03 -0.10400496622E+03  0.27018135941E+03  0.00000000000E+00 0. -1.
          4    1    6    6  503    0  0.59013002508E+02 -0.79250119070E+02  0.82455624743E+02  0.12869361246E+03  0.00000000000E+00 0. -1.
         -4    1    6    6    0  503  0.18208720195E+02  0.25934528710E+02  0.18955211043E+02  0.36925022631E+02  0.00000000000E+00 0.  1.
<mgrwt>
<rscale>  0 0.52172358E+03</rscale>
<asrwt>0</asrwt>
<pdfrwt beam="1">  1        2 0.56436815E-01 0.52172358E+03</pdfrwt>
<pdfrwt beam="2">  1       -2 0.14946510E+00 0.52172358E+03</pdfrwt>
<totfact> 0.27400334E+01</totfact>
</mgrwt>
</event>
<event>
12    1  0.3203156E-008  0.7286184E+03  0.7818608E-02  0.9669505E-01
          2   -1    0    0  501    0  0.00000000000E+00  0.00000000000E+00  0.70775337756E+03  0.70775337756E+03  0.00000000000E+00 0. -1.
         -2   -1    0    0    0  501 -0.00000000000E+00 -0.00000000000E+00 -0.87055070353E+03  0.87055070353E+03  0.00000000000E+00 0.  1.
         23    2    1    2    0    0 -0.46262561021E+03 -0.39201666362E+03 -0.34838398988E+03  0.70532389456E+03  0.91710806629E+02 0.  0.
    5000000    2    1    2    0    0  0.46262561021E+03  0.39201666362E+03  0.18558666391E+03  0.87298018653E+03  0.59996039575E+03 0.  0.
         23    2    4    4    0    0  0.18206602772E+03 -0.13441609991E+03  0.78386311572E+01  0.24373011356E+03  0.90150971990E+02 0.  0.
         23    2    4    4    0    0  0.28055958249E+03  0.52643276353E+03  0.17774803275E+03  0.62925007297E+03  0.92283028469E+02 0.  0.
          5    1    3    3  502    0 -0.36502313545E+03 -0.34366103835E+03 -0.25883243714E+03  0.56423498581E+03  0.47000000000E+01 0. -1.
         -5    1    3    3    0  502 -0.97602474761E+02 -0.48355625271E+02 -0.89551552738E+02  0.14108890875E+03  0.47000000000E+01 0.  1.
         13    1    5    5    0    0  0.16894483040E+03 -0.78996289034E+02  0.96321379373E+01  0.18674995979E+03  0.00000000000E+00 0.  1.
        -13    1    5    5    0    0  0.13121197319E+02 -0.55419810875E+02 -0.17935067801E+01  0.56980153765E+02  0.00000000000E+00 0. -1.
          3    1    6    6  503    0  0.18644346677E+03  0.42982183452E+03  0.14522791490E+03  0.49050904476E+03  0.00000000000E+00 0. -1.
         -3    1    6    6    0  503  0.94116115724E+02  0.96610929012E+02  0.32520117855E+02  0.13874102821E+03  0.00000000000E+00 0.  1.
<mgrwt>
<rscale>  0 0.72861836E+03</rscale>
<asrwt>0</asrwt>
<pdfrwt beam="1">  1        2 0.10888514E+00 0.72861836E+03</pdfrwt>
<pdfrwt beam="2">  1       -2 0.13393088E+00 0.72861836E+03</pdfrwt>
<totfact> 0.16535586E+01</totfact>
</mgrwt>
</event>
<event>
12    1  0.3203156E-008  0.9160244E+03  0.7818608E-02  0.9405769E-01
         -2   -1    0    0    0  501 -0.00000000000E+00  0.00000000000E+00  0.28256648896E+03  0.28256648896E+03  0.00000000000E+00 0.  1.
          2   -1    0    0  501    0  0.00000000000E+00 -0.00000000000E+00 -0.33238954549E+04  0.33238954549E+04  0.00000000000E+00 0. -1.
         23    2    1    2    0    0 -0.26819857569E+03  0.81488856534E+03 -0.16835771692E+04  0.18918259426E+04  0.92733285626E+02 0.  0.
    5000000    2    1    2    0    0  0.26819857569E+03 -0.81488856534E+03 -0.13577517967E+04  0.17146360013E+04  0.60042720255E+03 0.  0.
         23    2    4    4    0    0  0.35781889806E+03 -0.77662296601E+03 -0.93202447520E+03  0.12685002768E+04  0.96154743735E+02 0.  0.
         23    2    4    4    0    0 -0.89620322367E+02 -0.38265599336E+02 -0.42572732149E+03  0.44613572449E+03  0.91089374372E+02 0.  0.
          5    1    3    3  502    0 -0.11227659908E+03  0.40981292136E+03 -0.92242315968E+03  0.10155979720E+04  0.47000000000E+01 0. -1.
         -5    1    3    3    0  502 -0.15592197662E+03  0.40507564399E+03 -0.76115400954E+03  0.87622797055E+03  0.47000000000E+01 0.  1.
         13    1    5    5    0    0  0.64466441453E+02 -0.17568052530E+03 -0.15219056259E+03  0.24120849153E+03  0.00000000000E+00 0. -1.
        -13    1    5    5    0    0  0.29335245661E+03 -0.60094244070E+03 -0.77983391261E+03  0.10272917853E+04  0.00000000000E+00 0.  1.
          1    1    6    6  503    0 -0.99275857659E+02 -0.28140010260E+02 -0.25864557533E+03  0.27846918991E+03  0.00000000000E+00 0. -1.
         -1    1    6    6    0  503  0.96555352927E+01 -0.10125589076E+02 -0.16708174616E+03  0.16766653457E+03  0.00000000000E+00 0.  1.
<mgrwt>
<rscale>  0 0.91602445E+03</rscale>
<asrwt>0</asrwt>
<pdfrwt beam="1">  1        2 0.51136852E+00 0.91602445E+03</pdfrwt>
<pdfrwt beam="2">  1       -2 0.43471768E-01 0.91602445E+03</pdfrwt>
<totfact> 0.56304648E+00</totfact>
</mgrwt>
</event>
<event>
12    1  0.3203156E-008  0.1250397E+04  0.7818608E-02  0.9069853E-01
         -1   -1    0    0    0  501 -0.00000000000E+00  0.00000000000E+00  0.12872857727E+04  0.12872857727E+04  0.00000000000E+00 0. -1.
          1   -1    0    0  501    0  0.00000000000E+00 -0.00000000000E+00 -0.13520698547E+04  0.13520698547E+04  0.00000000000E+00 0.  1.
         23    2    1    2    0    0 -0.95633593350E+03 -0.72281190832E+03 -0.38308354478E+03  0.12616418494E+04  0.89172200135E+02 0.  0.
    5000000    2    1    2    0    0  0.95633593350E+03  0.72281190832E+03  0.31829946284E+03  0.13777137780E+04  0.59978765714E+03 0.  0.
         23    2    4    4    0    0  0.73936349840E+03  0.76443604171E+03  0.13289250624E+03  0.10754323460E+04  0.88732563956E+02 0.  0.
         23    2    4    4    0    0  0.21697243509E+03 -0.41624133387E+02  0.18540695661E+03  0.30228143208E+03  0.90491538555E+02 0.  0.
          5    1    3    3  502    0 -0.61650752321E+03 -0.43555434559E+03 -0.27785649272E+03  0.80437269638E+03  0.47000000000E+01 0. -1.
         -5    1    3    3    0  502 -0.33982841028E+03 -0.28725756273E+03 -0.10522705206E+03  0.45726915298E+03  0.47000000000E+01 0.  1.
         13    1    5    5    0    0  0.39714725831E+03  0.43350597799E+03  0.31921200528E+02  0.58878887623E+03  0.00000000000E+00 0. -1.
        -13    1    5    5    0    0  0.34221624009E+03  0.33093006372E+03  0.10097130571E+03  0.48664346973E+03  0.00000000000E+00 0.  1.
          4    1    6    6  503    0  0.42465270973E+02 -0.45730343973E+02  0.33212493116E+02  0.70693941025E+02  0.00000000000E+00 0. -1.
         -4    1    6    6    0  503  0.17450716412E+03  0.41062105863E+01  0.15219446349E+03  0.23158749105E+03  0.00000000000E+00 0.  1.
<mgrwt>
<rscale>  0 0.12503967E+04</rscale>
<asrwt>0</asrwt>
<pdfrwt beam="1">  1        1 0.20801075E+00 0.12503967E+04</pdfrwt>
<pdfrwt beam="2">  1       -1 0.19804396E+00 0.12503967E+04</pdfrwt>
<totfact> 0.12561036E+00</totfact>
</mgrwt>
</event>
<event>
12    1  0.3203156E-008  0.4627806E+03  0.7818608E-02  0.1023978E+00
          1   -1    0    0  501    0  0.00000000000E+00  0.00000000000E+00  0.87003891268E+03  0.87003891268E+03  0.00000000000E+00 0. -1.
         -1   -1    0    0    0  501 -0.00000000000E+00 -0.00000000000E+00 -0.41441878969E+03  0.41441878969E+03  0.00000000000E+00 0.  1.
         23    2    1    2    0    0 -0.33468839748E+03 -0.24047429414E+03  0.35226132996E+03  0.54934668949E+03  0.88597579615E+02 0.  0.
    5000000    2    1    2    0    0  0.33468839748E+03  0.24047429414E+03  0.10335879303E+03  0.73511101288E+03  0.59988411514E+03 0.  0.
         23    2    4    4    0    0  0.20455984811E+03 -0.21020337334E+02  0.29329014603E+03  0.37268284887E+03  0.10289222537E+03 0.  0.
         23    2    4    4    0    0  0.13012854937E+03  0.26149463148E+03 -0.18993135300E+03  0.36242816401E+03  0.99836734540E+02 0.  0.
          5    1    3    3  502    0 -0.18635407331E+03 -0.11808971120E+03  0.13294460828E+03  0.25762255220E+03  0.47000000000E+01 0. -1.
         -5    1    3    3    0  502 -0.14833432418E+03 -0.12238458294E+03  0.21931672168E+03  0.29172413729E+03  0.47000000000E+01 0.  1.
         11    1    5    5    0    0  0.11579030984E+03 -0.50629873479E+02  0.11288257752E+03  0.16944986352E+03  0.00000000000E+00 0. -1.
        -11    1    5    5    0    0  0.88769538273E+02  0.29609536146E+02  0.18040756851E+03  0.20323298534E+03  0.00000000000E+00 0.  1.
          1    1    6    6  503    0  0.85627929852E+02  0.15341237385E+03 -0.55414065905E+02  0.18422328170E+03  0.00000000000E+00 0. -1.
         -1    1    6    6    0  503  0.44500619518E+02  0.10808225762E+03 -0.13451728709E+03  0.17820488230E+03  0.00000000000E+00 0.  1.
<mgrwt>
<rscale>  0 0.46278059E+03</rscale>
<asrwt>0</asrwt>
<pdfrwt beam="1">  1        1 0.13385214E+00 0.46278059E+03</pdfrwt>
<pdfrwt beam="2">  1       -1 0.63756737E-01 0.46278059E+03</pdfrwt>
<totfact> 0.50918841E+01</totfact>
</mgrwt>
</event>
<event>
12    1  0.3203156E-008  0.7899518E+03  0.7818608E-02  0.9574676E-01
          1   -1    0    0  501    0  0.00000000000E+00  0.00000000000E+00  0.13951434561E+04  0.13951434561E+04  0.00000000000E+00 0. -1.
         -1   -1    0    0    0  501 -0.00000000000E+00 -0.00000000000E+00 -0.93672899189E+03  0.93672899189E+03  0.00000000000E+00 0.  1.
         23    2    1    2    0    0  0.66240218117E+03 -0.41165449633E+03 -0.52165575396E+03  0.94282617677E+03  0.92522429746E+02 0.  0.
    5000000    2    1    2    0    0 -0.66240218117E+03  0.41165449633E+03  0.98007021814E+03  0.13890462712E+04  0.60056293348E+03 0.  0.
         23    2    4    4    0    0 -0.29316132522E+03  0.97382248512E+02  0.80109517962E+03  0.86412758741E+03  0.97653139134E+02 0.  0.
         23    2    4    4    0    0 -0.36924085594E+03  0.31427224782E+03  0.17897503852E+03  0.52491868378E+03  0.91660813446E+02 0.  0.
          5    1    3    3  502    0  0.47316026367E+03 -0.25520003794E+03 -0.39000128066E+03  0.66417677120E+03  0.47000000000E+01 0. -1.
         -5    1    3    3    0  502  0.18924191750E+03 -0.15645445839E+03 -0.13165447329E+03  0.27864940558E+03  0.47000000000E+01 0.  1.
         13    1    5    5    0    0 -0.16083125177E+03  0.73005697344E+02  0.33128372635E+03  0.37542699788E+03  0.00000000000E+00 0.  1.
        -13    1    5    5    0    0 -0.13233007345E+03  0.24376551168E+02  0.46981145327E+03  0.48870058953E+03  0.00000000000E+00 0. -1.
          1    1    6    6  503    0 -0.24126850243E+02  0.12999627951E+02 -0.10253273234E+02  0.29261319887E+02  0.00000000000E+00 0. -1.
         -1    1    6    6    0  503 -0.34511400570E+03  0.30127261987E+03  0.18922831175E+03  0.49565736390E+03  0.00000000000E+00 0.  1.
<mgrwt>
<rscale>  0 0.78995182E+03</rscale>
<asrwt>0</asrwt>
<pdfrwt beam="1">  1        1 0.21463745E+00 0.78995182E+03</pdfrwt>
<pdfrwt beam="2">  1       -1 0.14411215E+00 0.78995182E+03</pdfrwt>
<totfact> 0.31157628E+00</totfact>
</mgrwt>
</event>
<event>
12    1  0.3203156E-008  0.5512043E+03  0.7818608E-02  0.1001216E+00
          1   -1    0    0  501    0  0.00000000000E+00  0.00000000000E+00  0.10922464700E+04  0.10922464700E+04  0.00000000000E+00 0. -1.
         -1   -1    0    0    0  501 -0.00000000000E+00 -0.00000000000E+00 -0.46424135750E+03  0.46424135750E+03  0.00000000000E+00 0.  1.
         23    2    1    2    0    0  0.18107737835E+03  0.35915309240E+03 -0.19955340098E+03  0.45801630009E+03  0.90429036170E+02 0.  0.
    5000000    2    1    2    0    0 -0.18107737835E+03 -0.35915309240E+03  0.82755851342E+03  0.10984715274E+04  0.60000553544E+03 0.  0.
         23    2    4    4    0    0  0.20131166663E+03 -0.95230892491E+02  0.20335770243E+03  0.31506411344E+03  0.91190626895E+02 0.  0.
         23    2    4    4    0    0 -0.38238904498E+03 -0.26392219990E+03  0.62420081099E+03  0.78340741393E+03  0.90687454648E+02 0.  0.
          5    1    3    3  502    0  0.17096189099E+03  0.29774683136E+03 -0.19629866892E+03  0.39552041815E+03  0.47000000000E+01 0. -1.
         -5    1    3    3    0  502  0.10115487357E+02  0.61406261037E+02 -0.32547320610E+01  0.62495881943E+02  0.47000000000E+01 0.  1.
         11    1    5    5    0    0  0.94065836464E+02 -0.71040310332E+02  0.54132074258E+02  0.12971271620E+03  0.00000000000E+00 0.  1.
        -11    1    5    5    0    0  0.10724583016E+03 -0.24190582159E+02  0.14922562817E+03  0.18535139723E+03  0.00000000000E+00 0. -1.
          3    1    6    6  503    0 -0.25335819165E+03 -0.13793929328E+03  0.43564086992E+03  0.52249458318E+03  0.00000000000E+00 0. -1.
         -3    1    6    6    0  503 -0.12903085332E+03 -0.12598290662E+03  0.18855994107E+03  0.26091283075E+03  0.00000000000E+00 0.  1.
<mgrwt>
<rscale>  0 0.55120435E+03</rscale>
<asrwt>0</asrwt>
<pdfrwt beam="1">  1        1 0.16803792E+00 0.55120435E+03</pdfrwt>
<pdfrwt beam="2">  1       -1 0.71421748E-01 0.55120435E+03</pdfrwt>
<totfact> 0.26881779E+01</totfact>
</mgrwt>
</event>
<event>
12    1  0.3203156E-008  0.4848830E+03  0.7818608E-02  0.1017802E+00
         -2   -1    0    0    0  501 -0.00000000000E+00  0.00000000000E+00  0.20222348590E+03  0.20222348590E+03  0.00000000000E+00 0.  1.
          2   -1    0    0  501    0  0.00000000000E+00 -0.00000000000E+00 -0.15539331207E+04  0.15539331207E+04  0.00000000000E+00 0. -1.
         23    2    1    2    0    0 -0.38009473485E+03  0.39459451309E+02 -0.33339118770E+03  0.51397522357E+03  0.83616928005E+02 0.  0.
    5000000    2    1    2    0    0  0.38009473485E+03 -0.39459451309E+02 -0.10183184471E+04  0.12421813830E+04  0.60001089397E+03 0.  0.
         23    2    4    4    0    0  0.26956374114E+03 -0.22602537398E+03 -0.91602556215E+03  0.98564899879E+03  0.93000204731E+02 0.  0.
         23    2    4    4    0    0  0.11053099371E+03  0.18656592267E+03 -0.10229288491E+03  0.25653238421E+03  0.91219985607E+02 0.  0.
          5    1    3    3  502    0 -0.23781609555E+03  0.25776382633E+02 -0.15390930273E+03  0.28448388473E+03  0.47000000000E+01 0. -1.
         -5    1    3    3    0  502 -0.14227863929E+03  0.13683068676E+02 -0.17948188497E+03  0.22949133883E+03  0.47000000000E+01 0.  1.
         11    1    5    5    0    0  0.10142948520E+03 -0.10562287390E+03 -0.26762929372E+03  0.30507305816E+03  0.00000000000E+00 0. -1.
        -11    1    5    5    0    0  0.16813425594E+03 -0.12040250008E+03 -0.64839626843E+03  0.68057594063E+03  0.00000000000E+00 0.  1.
          4    1    6    6  503    0  0.10584318256E+03  0.93945520667E+02 -0.73230387989E+02  0.15934625780E+03  0.00000000000E+00 0.  1.
         -4    1    6    6    0  503  0.46878111451E+01  0.92620402000E+02 -0.29062496922E+02  0.97186126414E+02  0.00000000000E+00 0. -1.
<mgrwt>
<rscale>  0 0.48488297E+03</rscale>
<asrwt>0</asrwt>
<pdfrwt beam="1">  1        2 0.23906663E+00 0.48488297E+03</pdfrwt>
<pdfrwt beam="2">  1       -2 0.31111306E-01 0.48488297E+03</pdfrwt>
<totfact> 0.11880955E+02</totfact>
</mgrwt>
</event>
<event>
12    1  0.3203156E-008  0.2950252E+03  0.7818608E-02  0.1087754E+00
          2   -1    0    0  501    0  0.00000000000E+00  0.00000000000E+00  0.60100868151E+03  0.60100868151E+03  0.00000000000E+00 0. -1.
         -2   -1    0    0    0  501 -0.00000000000E+00 -0.00000000000E+00 -0.44729543331E+03  0.44729543331E+03  0.00000000000E+00 0.  1.
         23    2    1    2    0    0  0.86456784375E+02  0.12920122893E+03 -0.24953647006E+03  0.30890403499E+03  0.94791981845E+02 0.  0.
    5000000    2    1    2    0    0 -0.86456784375E+02 -0.12920122893E+03  0.40324971826E+03  0.73940007983E+03  0.59994533889E+03 0.  0.
         23    2    4    4    0    0 -0.21898062261E+03 -0.16593660398E+03 -0.12993164617E+02  0.29023999942E+03  0.92644294572E+02 0.  0.
         23    2    4    4    0    0  0.13252383824E+03  0.36735375048E+02  0.41624288288E+03  0.44916008041E+03  0.97849807365E+02 0.  0.
          5    1    3    3  502    0  0.72743981981E+02  0.85853563377E+02 -0.93713082843E+02  0.14651536832E+03  0.47000000000E+01 0. -1.
         -5    1    3    3    0  502  0.13712802394E+02  0.43347665554E+02 -0.15582338721E+03  0.16238866667E+03  0.47000000000E+01 0.  1.
         11    1    5    5    0    0 -0.33038403165E+02 -0.18746689840E+02 -0.35542952436E+02  0.52021879354E+02  0.00000000000E+00 0. -1.
        -11    1    5    5    0    0 -0.18594221945E+03 -0.14718991414E+03  0.22549787819E+02  0.23821812007E+03  0.00000000000E+00 0.  1.
          2    1    6    6  503    0  0.31369270629E+02  0.45261116273E+02  0.23557862421E+03  0.24192951033E+03  0.00000000000E+00 0.  1.
         -2    1    6    6    0  503  0.10115456761E+03 -0.85257412252E+01  0.18066425867E+03  0.20723057007E+03  0.00000000000E+00 0. -1.
<mgrwt>
<rscale>  0 0.29502521E+03</rscale>
<asrwt>0</asrwt>
<pdfrwt beam="1">  1        2 0.92462875E-01 0.29502521E+03</pdfrwt>
<pdfrwt beam="2">  1       -2 0.68814682E-01 0.29502521E+03</pdfrwt>
<totfact> 0.10048864E+02</totfact>
</mgrwt>
</event>
<event>
12    1  0.3203156E-008  0.3667952E+03  0.7818608E-02  0.1055925E+00
         -2   -1    0    0    0  501 -0.00000000000E+00  0.00000000000E+00  0.46488363352E+03  0.46488363352E+03  0.00000000000E+00 0.  1.
          2   -1    0    0  501    0  0.00000000000E+00 -0.00000000000E+00 -0.63714781247E+03  0.63714781247E+03  0.00000000000E+00 0. -1.
         23    2    1    2    0    0 -0.14212062061E+03  0.62482974418E+02 -0.40258766487E+03  0.44084921664E+03  0.90381474930E+02 0.  0.
    5000000    2    1    2    0    0  0.14212062061E+03 -0.62482974418E+02  0.23032348591E+03  0.66118222936E+03  0.60000886607E+03 0.  0.
         23    2    4    4    0    0 -0.54927009476E+00  0.23764195724E+03  0.15889760549E+02  0.25629984775E+03  0.94673786905E+02 0.  0.
         23    2    4    4    0    0  0.14266989070E+03 -0.30012493166E+03  0.21443372536E+03  0.40488238161E+03  0.86707831546E+02 0.  0.
          5    1    3    3  502    0 -0.73955765447E+02  0.50787479883E+02 -0.12011504669E+03  0.14999512591E+03  0.47000000000E+01 0.  1.
         -5    1    3    3    0  502 -0.68164855162E+02  0.11695494536E+02 -0.28247261817E+03  0.29085409072E+03  0.47000000000E+01 0. -1.
         13    1    5    5    0    0 -0.39513281760E+01  0.43590509473E+02  0.41768497418E+02  0.60500850300E+02  0.00000000000E+00 0. -1.
        -13    1    5    5    0    0  0.34020580813E+01  0.19405144777E+03 -0.25878736869E+02  0.19579899745E+03  0.00000000000E+00 0.  1.
          3    1    6    6  503    0  0.54975200716E+02 -0.17755031958E+03  0.15800389810E+03  0.24395003687E+03  0.00000000000E+00 0. -1.
         -3    1    6    6    0  503  0.87694689988E+02 -0.12257461208E+03  0.56429827266E+02  0.16093234474E+03  0.00000000000E+00 0.  1.
<mgrwt>
<rscale>  0 0.36679520E+03</rscale>
<asrwt>0</asrwt>
<pdfrwt beam="1">  1        2 0.98022740E-01 0.36679520E+03</pdfrwt>
<pdfrwt beam="2">  1       -2 0.71520559E-01 0.36679520E+03</pdfrwt>
<totfact> 0.85482460E+01</totfact>
</mgrwt>
</event>
<event>
12    1  0.3203156E-008  0.1070669E+04  0.7818608E-02  0.9234261E-01
         -2   -1    0    0    0  501 -0.00000000000E+00  0.00000000000E+00  0.10646563970E+04  0.10646563970E+04  0.00000000000E+00 0.  1.
          2   -1    0    0  501    0  0.00000000000E+00 -0.00000000000E+00 -0.10884936135E+04  0.10884936135E+04  0.00000000000E+00 0. -1.
         23    2    1    2    0    0  0.42153592117E+03  0.89564432736E+03 -0.20782806537E+02  0.99543600714E+03  0.10290590502E+03 0.  0.
    5000000    2    1    2    0    0 -0.42153592117E+03 -0.89564432736E+03 -0.30544100054E+01  0.11577140034E+04  0.60035080603E+03 0.  0.
         23    2    4    4    0    0 -0.14023492989E+03 -0.83369661217E+03 -0.52439079222E+02  0.85196227076E+03  0.91509437036E+02 0.  0.
         23    2    4    4    0    0 -0.28130099128E+03 -0.61947715188E+02  0.49384669217E+02  0.30575173265E+03  0.89874965087E+02 0.  0.
          5    1    3    3  502    0  0.25573954386E+03  0.42916623042E+03 -0.26564483737E+02  0.50031403081E+03  0.47000000000E+01 0. -1.
         -5    1    3    3    0  502  0.16579637731E+03  0.46647809694E+03  0.57816772000E+01  0.49512197633E+03  0.47000000000E+01 0.  1.
         11    1    5    5    0    0 -0.37166767032E+02 -0.25094189872E+03 -0.57618651332E+02  0.26014056602E+03  0.00000000000E+00 0. -1.
        -11    1    5    5    0    0 -0.10306816286E+03 -0.58275471345E+03  0.51795721098E+01  0.59182170475E+03  0.00000000000E+00 0.  1.
          3    1    6    6  503    0 -0.16411448298E+03 -0.80032053542E+02  0.20706036210E+02  0.18375917134E+03  0.00000000000E+00 0. -1.
         -3    1    6    6    0  503 -0.11718650831E+03  0.18084338353E+02  0.28678633007E+02  0.12199256131E+03  0.00000000000E+00 0.  1.
<mgrwt>
<rscale>  0 0.10706687E+04</rscale>
<asrwt>0</asrwt>
<pdfrwt beam="1">  1        2 0.16746056E+00 0.10706687E+04</pdfrwt>
<pdfrwt beam="2">  1       -2 0.16379329E+00 0.10706687E+04</pdfrwt>
<totfact> 0.51493543E+00</totfact>
</mgrwt>
</event>
<event>
12    1  0.3203156E-008  0.1428426E+04  0.7818608E-02  0.8933496E-01
         -2   -1    0    0    0  501 -0.00000000000E+00  0.00000000000E+00  0.22027163670E+04  0.22027163670E+04  0.00000000000E+00 0.  1.
          2   -1    0    0  501    0  0.00000000000E+00 -0.00000000000E+00 -0.94447744411E+03  0.94447744411E+03  0.00000000000E+00 0. -1.
         23    2    1    2    0    0  0.13485738440E+04 -0.24436852988E+03  0.76369121826E+03  0.15714667061E+04  0.88971570762E+02 0.  0.
    5000000    2    1    2    0    0 -0.13485738440E+04  0.24436852988E+03  0.49454770458E+03  0.15757271050E+04  0.59997590453E+03 0.  0.
         23    2    4    4    0    0 -0.72287567704E+03 -0.15120858535E+03  0.31498611057E+03  0.80848496216E+03  0.94965275011E+02 0.  0.
         23    2    4    4    0    0 -0.62569816698E+03  0.39557711523E+03  0.17956159402E+03  0.76724214279E+03  0.91862339267E+02 0.  0.
          5    1    3    3  502    0  0.43214255821E+03 -0.79165886064E+02  0.19817163040E+03  0.48198393461E+03  0.47000000000E+01 0.  1.
         -5    1    3    3    0  502  0.91643128581E+03 -0.16520264381E+03  0.56551958786E+03  0.10894827715E+04  0.47000000000E+01 0. -1.
         13    1    5    5    0    0 -0.83003599711E+02 -0.35602430072E+02  0.67475307754E+02  0.11273884756E+03  0.00000000000E+00 0. -1.
        -13    1    5    5    0    0 -0.63987207733E+03 -0.11560615528E+03  0.24751080281E+03  0.69574611460E+03  0.00000000000E+00 0.  1.
          2    1    6    6  503    0 -0.24696318408E+03  0.20900585844E+03  0.68996960418E+02  0.33080937668E+03  0.00000000000E+00 0. -1.
         -2    1    6    6    0  503 -0.37873498290E+03  0.18657125678E+03  0.11056463360E+03  0.43643276611E+03  0.00000000000E+00 0.  1.
<mgrwt>
<rscale>  0 0.14284258E+04</rscale>
<asrwt>0</asrwt>
<pdfrwt beam="1">  1        2 0.14530422E+00 0.14284258E+04</pdfrwt>
<pdfrwt beam="2">  1       -2 0.33887944E+00 0.14284258E+04</pdfrwt>
<totfact> 0.47883974E-01</totfact>
</mgrwt>
</event>
<event>
12    1  0.3203156E-008  0.4823115E+03  0.7818608E-02  0.1018502E+00
         -2   -1    0    0    0  501 -0.00000000000E+00  0.00000000000E+00  0.45812995269E+03  0.45812995269E+03  0.00000000000E+00 0.  1.
          2   -1    0    0  501    0  0.00000000000E+00 -0.00000000000E+00 -0.69589507368E+03  0.69589507368E+03  0.00000000000E+00 0. -1.
         23    2    1    2    0    0 -0.28645547999E+03 -0.26808387386E+03 -0.15759664194E+03  0.43268692347E+03  0.91954155701E+02 0.  0.
    5000000    2    1    2    0    0  0.28645547999E+03  0.26808387386E+03 -0.80168479044E+02  0.72133810290E+03  0.59997997319E+03 0.  0.
         23    2    4    4    0    0  0.53679673937E+02  0.31666283704E+03 -0.24850682822E+03  0.41661876541E+03  0.93052094371E+02 0.  0.
         23    2    4    4    0    0  0.23277580606E+03 -0.48578963179E+02  0.16833834918E+03  0.30471933749E+03  0.89283723532E+02 0.  0.
          5    1    3    3  502    0 -0.24634005774E+03 -0.18154904516E+03 -0.13530117130E+03  0.33462214033E+03  0.47000000000E+01 0. -1.
         -5    1    3    3    0  502 -0.40115422251E+02 -0.86534828704E+02 -0.22295470644E+02  0.98064783141E+02  0.47000000000E+01 0.  1.
         13    1    5    5    0    0  0.25733899992E+02  0.15847388705E+03 -0.66270958584E+02  0.17368951159E+03  0.00000000000E+00 0.  1.
        -13    1    5    5    0    0  0.27945773944E+02  0.15818894999E+03 -0.18223586964E+03  0.24292925382E+03  0.00000000000E+00 0. -1.
          2    1    6    6  503    0  0.11348223146E+03 -0.10789679064E+01  0.12586633907E+03  0.16947482509E+03  0.00000000000E+00 0. -1.
         -2    1    6    6    0  503  0.11929357460E+03 -0.47499995272E+02  0.42472010104E+02  0.13524451240E+03  0.00000000000E+00 0.  1.
<mgrwt>
<rscale>  0 0.48231150E+03</rscale>
<asrwt>0</asrwt>
<pdfrwt beam="1">  1        2 0.10706078E+00 0.48231150E+03</pdfrwt>
<pdfrwt beam="2">  1       -2 0.70481532E-01 0.48231150E+03</pdfrwt>
<totfact> 0.78222729E+01</totfact>
</mgrwt>
</event>
<event>
12    1  0.3203156E-008  0.7648560E+03  0.7818608E-02  0.9612328E-01
         -2   -1    0    0    0  501 -0.00000000000E+00  0.00000000000E+00  0.12529206637E+04  0.12529206637E+04  0.00000000000E+00 0.  1.
          2   -1    0    0  501    0  0.00000000000E+00 -0.00000000000E+00 -0.64179529184E+03  0.64179529184E+03  0.00000000000E+00 0. -1.
         23    2    1    2    0    0 -0.63282798955E+03  0.16627065236E+03 -0.20179655210E+03  0.69087307091E+03  0.92013898277E+02 0.  0.
    5000000    2    1    2    0    0  0.63282798955E+03 -0.16627065236E+03  0.81292192392E+03  0.12038428846E+04  0.60023199030E+03 0.  0.
         23    2    4    4    0    0  0.34967857745E+03  0.19533930110E+03  0.29984976255E+03  0.50939621328E+03  0.95614182661E+02 0.  0.
         23    2    4    4    0    0  0.28314941210E+03 -0.36160995346E+03  0.51307216137E+03  0.69444667130E+03  0.89876518004E+02 0.  0.
          5    1    3    3  502    0 -0.39564857607E+03  0.14797888148E+03 -0.14019048222E+03  0.44509662593E+03  0.47000000000E+01 0. -1.
         -5    1    3    3    0  502 -0.23717941348E+03  0.18291770879E+02 -0.61606069885E+02  0.24577644498E+03  0.47000000000E+01 0.  1.
         13    1    5    5    0    0  0.70515160719E+02  0.51549419909E+02  0.21940206316E+02  0.90061663528E+02  0.00000000000E+00 0. -1.
        -13    1    5    5    0    0  0.27916341673E+03  0.14378988119E+03  0.27790955623E+03  0.41933454976E+03  0.00000000000E+00 0.  1.
          3    1    6    6  503    0  0.85889939957E+01 -0.57983692665E+02  0.66180909737E+02  0.88406969446E+02  0.00000000000E+00 0. -1.
         -3    1    6    6    0  503  0.27456041810E+03 -0.30362626079E+03  0.44689125163E+03  0.60603970185E+03  0.00000000000E+00 0.  1.
<mgrwt>
<rscale>  0 0.76485600E+03</rscale>
<asrwt>0</asrwt>
<pdfrwt beam="1">  1        2 0.98737737E-01 0.76485600E+03</pdfrwt>
<pdfrwt beam="2">  1       -2 0.19275702E+00 0.76485600E+03</pdfrwt>
<totfact> 0.69042673E+00</totfact>
</mgrwt>
</event>
<event>
12    1  0.3203156E-008  0.4940272E+03  0.7818608E-02  0.1015350E+00
         -1   -1    0    0    0  501 -0.00000000000E+00  0.00000000000E+00  0.23115740351E+03  0.23115740351E+03  0.00000000000E+00 0.  1.
          1   -1    0    0  501    0  0.00000000000E+00 -0.00000000000E+00 -0.14567363369E+04  0.14567363369E+04  0.00000000000E+00 0. -1.
         23    2    1    2    0    0  0.33772262112E+03  0.24738011414E+02 -0.81168382859E+03  0.88416062986E+03  0.90779093235E+02 0.  0.
    5000000    2    1    2    0    0 -0.33772262112E+03 -0.24738011414E+02 -0.41389510480E+03  0.80373311054E+03  0.60000768094E+03 0.  0.
         23    2    4    4    0    0  0.88579017548E+02  0.14525753020E+03 -0.22636723643E+03  0.29777090748E+03  0.92083631453E+02 0.  0.
         23    2    4    4    0    0 -0.42630163867E+03 -0.16999554161E+03 -0.18752786836E+03  0.50596220307E+03  0.10099246616E+03 0.  0.
          5    1    3    3  502    0  0.14658029646E+03 -0.30627405261E+02 -0.39230197515E+03  0.41993660351E+03  0.47000000000E+01 0. -1.
         -5    1    3    3    0  502  0.19114232466E+03  0.55365416675E+02 -0.41938185344E+03  0.46422402634E+03  0.47000000000E+01 0.  1.
         11    1    5    5    0    0  0.58364848404E+02  0.12604893779E+03 -0.11355770118E+03  0.17941611339E+03  0.00000000000E+00 0. -1.
        -11    1    5    5    0    0  0.30214169144E+02  0.19208592406E+02 -0.11280953525E+03  0.11835479409E+03  0.00000000000E+00 0.  1.
          4    1    6    6  503    0 -0.29824995621E+03 -0.82729403821E+02 -0.16054109458E+03  0.34866980610E+03  0.00000000000E+00 0. -1.
         -4    1    6    6    0  503 -0.12805168246E+03 -0.87266137789E+02 -0.26986773788E+02  0.15729239697E+03  0.00000000000E+00 0.  1.
<mgrwt>
<rscale>  0 0.49402724E+03</rscale>
<asrwt>0</asrwt>
<pdfrwt beam="1">  1        1 0.22411328E+00 0.49402724E+03</pdfrwt>
<pdfrwt beam="2">  1       -1 0.35562678E-01 0.49402724E+03</pdfrwt>
<totfact> 0.56131335E+01</totfact>
</mgrwt>
</event>
<event>
12    1  0.3203156E-008  0.4092749E+03  0.7818608E-02  0.1040615E+00
         -2   -1    0    0    0  501 -0.00000000000E+00  0.00000000000E+00  0.93591375733E+02  0.93591375733E+02  0.00000000000E+00 0.  1.
          2   -1    0    0  501    0  0.00000000000E+00 -0.00000000000E+00 -0.22281304163E+04  0.22281304163E+04  0.00000000000E+00 0. -1.
         23    2    1    2    0    0  0.17640291638E+03 -0.15318741901E+03 -0.40637344246E+03  0.47756547844E+03  0.91351175225E+02 0.  0.
    5000000    2    1    2    0    0 -0.17640291638E+03  0.15318741901E+03 -0.17281655981E+04  0.18441563136E+04  0.59980980337E+03 0.  0.
         23    2    4    4    0    0  0.31406329296E+02 -0.15719118971E+03 -0.21452743853E+03  0.28236604279E+03  0.89516102447E+02 0.  0.
         23    2    4    4    0    0 -0.20780924568E+03  0.31037860872E+03 -0.15136381596E+04  0.15617902708E+04  0.92567858825E+02 0.  0.
          5    1    3    3  502    0  0.14878702390E+02 -0.64307805063E+02 -0.97906163009E+02  0.11817180853E+03  0.47000000000E+01 0. -1.
         -5    1    3    3    0  502  0.16152421399E+03 -0.88879613947E+02 -0.30846727945E+03  0.35939366991E+03  0.47000000000E+01 0.  1.
         11    1    5    5    0    0 -0.21743114484E+02 -0.11117147521E+03 -0.13050364449E+03  0.17280932022E+03  0.00000000000E+00 0.  1.
        -11    1    5    5    0    0  0.53149443780E+02 -0.46019714494E+02 -0.84023794036E+02  0.10955672257E+03  0.00000000000E+00 0. -1.
          3    1    6    6  503    0 -0.94283438823E+01  0.79129760930E+02 -0.28418214980E+03  0.29514387509E+03  0.00000000000E+00 0. -1.
         -3    1    6    6    0  503 -0.19838090180E+03  0.23124884779E+03 -0.12294560098E+04  0.12666463957E+04  0.00000000000E+00 0.  1.
<mgrwt>
<rscale>  0 0.40927486E+03</rscale>
<asrwt>0</asrwt>
<pdfrwt beam="1">  1        2 0.34278929E+00 0.40927486E+03</pdfrwt>
<pdfrwt beam="2">  1       -2 0.14398673E-01 0.40927486E+03</pdfrwt>
<totfact> 0.20101185E+02</totfact>
</mgrwt>
</event>
<event>
12    1  0.3203156E-008  0.1643942E+04  0.7818608E-02  0.8793999E-01
          2   -1    0    0  501    0  0.00000000000E+00  0.00000000000E+00  0.12347114489E+04  0.12347114489E+04  0.00000000000E+00 0. -1.
         -2   -1    0    0    0  501 -0.00000000000E+00 -0.00000000000E+00 -0.23035962411E+04  0.23035962411E+04  0.00000000000E+00 0.  1.
         23    2    1    2    0    0 -0.12524828430E+04 -0.10421068262E+04 -0.61258204320E+03  0.17430461128E+04  0.90846478026E+02 0.  0.
    5000000    2    1    2    0    0  0.12524828430E+04  0.10421068262E+04 -0.45630274903E+03  0.17952615771E+04  0.60004335019E+03 0.  0.
         23    2    4    4    0    0  0.11937879124E+04  0.97424291416E+03 -0.26400176414E+03  0.15660693060E+04  0.92721647996E+02 0.  0.
         23    2    4    4    0    0  0.58694930597E+02  0.67863912013E+02 -0.19230098489E+03  0.22919227109E+03  0.86595744163E+02 0.  0.
          5    1    3    3  502    0 -0.82156845436E+03 -0.66333492873E+03 -0.35369925967E+03  0.11136037038E+04  0.47000000000E+01 0. -1.
         -5    1    3    3    0  502 -0.43091438868E+03 -0.37877189744E+03 -0.25888278352E+03  0.62944240902E+03  0.47000000000E+01 0.  1.
         13    1    5    5    0    0  0.93450006232E+03  0.71164611373E+03 -0.19986051457E+03  0.11915010629E+04  0.00000000000E+00 0. -1.
        -13    1    5    5    0    0  0.25928785013E+03  0.26259680043E+03 -0.64141249566E+02  0.37456824307E+03  0.00000000000E+00 0.  1.
          1    1    6    6  503    0  0.42914741632E+02 -0.19635428278E+01 -0.11994783085E+03  0.12740884065E+03  0.00000000000E+00 0. -1.
         -1    1    6    6    0  503  0.15780188965E+02  0.69827454840E+02 -0.72353154040E+02  0.10178343044E+03  0.00000000000E+00 0.  1.
<mgrwt>
<rscale>  0 0.16439416E+04</rscale>
<asrwt>0</asrwt>
<pdfrwt beam="1">  1        2 0.18995561E+00 0.16439416E+04</pdfrwt>
<pdfrwt beam="2">  1       -2 0.35439942E+00 0.16439416E+04</pdfrwt>
<totfact> 0.24546085E-01</totfact>
</mgrwt>
</event>
<event>
12    1  0.3203156E-008  0.5114278E+03  0.7818608E-02  0.1010838E+00
          1   -1    0    0  501    0  0.00000000000E+00  0.00000000000E+00  0.12805053963E+04  0.12805053963E+04  0.00000000000E+00 0. -1.
         -1   -1    0    0    0  501 -0.00000000000E+00 -0.00000000000E+00 -0.30872649803E+03  0.30872649803E+03  0.00000000000E+00 0.  1.
         23    2    1    2    0    0 -0.31968586441E+03 -0.19326630817E+03  0.75993157545E+03  0.85136569019E+03  0.88185153489E+02 0.  0.
    5000000    2    1    2    0    0  0.31968586441E+03  0.19326630817E+03  0.21184732285E+03  0.73786620418E+03  0.60001360759E+03 0.  0.
         23    2    4    4    0    0  0.26210838786E+03  0.36484341056E+03  0.20995515528E+02  0.45824734085E+03  0.87967565072E+02 0.  0.
         23    2    4    4    0    0  0.57577476542E+02 -0.17157710239E+03  0.19085180732E+03  0.27961886333E+03  0.94912741520E+02 0.  0.
          5    1    3    3  502    0 -0.91281712645E+02 -0.34556258140E+02  0.12898329430E+03  0.16181862145E+03  0.47000000000E+01 0. -1.
         -5    1    3    3    0  502 -0.22840415176E+03 -0.15871005003E+03  0.63094828115E+03  0.68954706874E+03  0.47000000000E+01 0.  1.
         11    1    5    5    0    0  0.17786834066E+03  0.20339341740E+03 -0.22142391195E+02  0.27110203677E+03  0.00000000000E+00 0. -1.
        -11    1    5    5    0    0  0.84240047209E+02  0.16144999315E+03  0.43137906722E+02  0.18714530408E+03  0.00000000000E+00 0.  1.
          3    1    6    6  503    0 -0.15576584668E+02 -0.53878788180E+02  0.97658508748E+02  0.11261766352E+03  0.00000000000E+00 0. -1.
         -3    1    6    6    0  503  0.73154061210E+02 -0.11769831421E+03  0.93193298574E+02  0.16700119981E+03  0.00000000000E+00 0.  1.
<mgrwt>
<rscale>  0 0.51142779E+03</rscale>
<asrwt>0</asrwt>
<pdfrwt beam="1">  1        1 0.19700083E+00 0.51142779E+03</pdfrwt>
<pdfrwt beam="2">  1       -1 0.47496385E-01 0.51142779E+03</pdfrwt>
<totfact> 0.43816296E+01</totfact>
</mgrwt>
</event>
<event>
12    1  0.3203156E-008  0.5341027E+03  0.7818608E-02  0.1005242E+00
          2   -1    0    0  501    0  0.00000000000E+00  0.00000000000E+00  0.60256662576E+03  0.60256662576E+03  0.00000000000E+00 0. -1.
         -2   -1    0    0    0  501 -0.00000000000E+00 -0.00000000000E+00 -0.11471903861E+04  0.11471903861E+04  0.00000000000E+00 0.  1.
         23    2    1    2    0    0 -0.48023424924E+03 -0.44095134903E+01  0.32667800574E+03  0.58795141772E+03  0.91235805538E+02 0.  0.
    5000000    2    1    2    0    0  0.48023424924E+03  0.44095134903E+01 -0.87130176605E+03  0.11618055941E+04  0.59998424399E+03 0.  0.
         23    2    4    4    0    0  0.11794076467E+03 -0.13773453426E+03 -0.69517449819E+03  0.72468260305E+03  0.94955075355E+02 0.  0.
         23    2    4    4    0    0  0.36229348457E+03  0.14214404775E+03 -0.17612726786E+03  0.43712299106E+03  0.92704884191E+02 0.  0.
          5    1    3    3  502    0 -0.19704968513E+03 -0.43668829031E+02  0.11655236143E+03  0.23311389490E+03  0.47000000000E+01 0. -1.
         -5    1    3    3    0  502 -0.28318456411E+03  0.39259315541E+02  0.21012564431E+03  0.35483752282E+03  0.47000000000E+01 0.  1.
         13    1    5    5    0    0  0.73604105079E+02 -0.84283624830E+02 -0.57584556511E+03  0.58661691806E+03  0.00000000000E+00 0. -1.
        -13    1    5    5    0    0  0.44336659591E+02 -0.53450909427E+02 -0.11932893308E+03  0.13806568500E+03  0.00000000000E+00 0.  1.
          1    1    6    6  503    0  0.86458433838E+02  0.76642319953E+02 -0.65380185175E+02  0.13275418865E+03  0.00000000000E+00 0. -1.
         -1    1    6    6    0  503  0.27583505074E+03  0.65501727795E+02 -0.11074708268E+03  0.30436880241E+03  0.00000000000E+00 0.  1.
<mgrwt>
<rscale>  0 0.53410266E+03</rscale>
<asrwt>0</asrwt>
<pdfrwt beam="1">  1        2 0.92702558E-01 0.53410266E+03</pdfrwt>
<pdfrwt beam="2">  1       -2 0.17649083E+00 0.53410266E+03</pdfrwt>
<totfact> 0.98950476E+00</totfact>
</mgrwt>
</event>
<event>
12    1  0.3203156E-008  0.1880255E+04  0.7818608E-02  0.8664748E-01
         -2   -1    0    0    0  501 -0.00000000000E+00  0.00000000000E+00  0.13186095141E+04  0.13186095141E+04  0.00000000000E+00 0.  1.
          2   -1    0    0  501    0  0.00000000000E+00 -0.00000000000E+00 -0.33223017062E+04  0.33223017062E+04  0.00000000000E+00 0. -1.
         23    2    1    2    0    0  0.12211004810E+04 -0.13956329622E+04 -0.19479064621E+04  0.26910119797E+04  0.91258643696E+02 0.  0.
    5000000    2    1    2    0    0 -0.12211004810E+04  0.13956329622E+04 -0.55785730100E+02  0.19498992406E+04  0.60009770102E+03 0.  0.
         23    2    4    4    0    0 -0.10716165469E+03 -0.87081413288E+01  0.54367143804E+02  0.15148721653E+03  0.91832121207E+02 0.  0.
         23    2    4    4    0    0 -0.11139388263E+04  0.14043411035E+04 -0.11015287390E+03  0.17984120240E+04  0.95490882881E+02 0.  0.
          5    1    3    3  502    0  0.59911968542E+03 -0.66271609544E+03 -0.87610189922E+03  0.12512847991E+04  0.47000000000E+01 0. -1.
         -5    1    3    3    0  502  0.62198079558E+03 -0.73291686678E+03 -0.10718045629E+04  0.14397271806E+04  0.47000000000E+01 0.  1.
         11    1    5    5    0    0 -0.22333824253E+01 -0.77113849263E+01 -0.20875208132E+02  0.22365772267E+02  0.00000000000E+00 0. -1.
        -11    1    5    5    0    0 -0.10492827227E+03 -0.99675640247E+00  0.75242351935E+02  0.12912144427E+03  0.00000000000E+00 0.  1.
          4    1    6    6  503    0 -0.30730415725E+03  0.41441217661E+03 -0.71682029185E+02  0.52087581101E+03  0.00000000000E+00 0. -1.
         -4    1    6    6    0  503 -0.80663466905E+03  0.98992892694E+03 -0.38470844719E+02  0.12775362130E+04  0.00000000000E+00 0.  1.
<mgrwt>
<rscale>  0 0.18802552E+04</rscale>
<asrwt>0</asrwt>
<pdfrwt beam="1">  1        2 0.51112333E+00 0.18802552E+04</pdfrwt>
<pdfrwt beam="2">  1       -2 0.20286301E+00 0.18802552E+04</pdfrwt>
<totfact> 0.12394977E-01</totfact>
</mgrwt>
</event>
<event>
12    1  0.3203156E-008  0.7889436E+03  0.7818608E-02  0.9576160E-01
         -2   -1    0    0    0  501 -0.00000000000E+00  0.00000000000E+00  0.29960524601E+03  0.29960524601E+03  0.00000000000E+00 0.  1.
          2   -1    0    0  501    0  0.00000000000E+00 -0.00000000000E+00 -0.28591374505E+04  0.28591374505E+04  0.00000000000E+00 0. -1.
         23    2    1    2    0    0 -0.63237224226E+03  0.27530330387E+03 -0.19223369647E+04  0.20444502040E+04  0.93330964730E+02 0.  0.
    5000000    2    1    2    0    0  0.63237224226E+03 -0.27530330387E+03 -0.63719523985E+03  0.11142924925E+04  0.59995285096E+03 0.  0.
         23    2    4    4    0    0 -0.69814473768E+02 -0.15523537940E+03 -0.98365414575E+02  0.21653318745E+03  0.90767740509E+02 0.  0.
         23    2    4    4    0    0  0.70218671603E+03 -0.12006792447E+03 -0.53882982527E+03  0.89775930510E+03  0.90286757865E+02 0.  0.
          5    1    3    3  502    0 -0.23165473984E+03  0.11247558821E+03 -0.59334348475E+03  0.64683325311E+03  0.47000000000E+01 0. -1.
         -5    1    3    3    0  502 -0.40071750242E+03  0.16282771566E+03 -0.13289934799E+04  0.13976169509E+04  0.47000000000E+01 0.  1.
         11    1    5    5    0    0 -0.39129341404E+02 -0.85073457918E+02 -0.10375772616E+03  0.13976503260E+03  0.00000000000E+00 0. -1.
        -11    1    5    5    0    0 -0.30685132364E+02 -0.70161921480E+02  0.53923115836E+01  0.76768154844E+02  0.00000000000E+00 0.  1.
          1    1    6    6  503    0  0.49159773765E+03 -0.12371787000E+03 -0.36480222345E+03  0.62454392099E+03  0.00000000000E+00 0. -1.
         -1    1    6    6    0  503  0.21058897838E+03  0.36499455328E+01 -0.17402760182E+03  0.27321538411E+03  0.00000000000E+00 0.  1.
<mgrwt>
<rscale>  0 0.78894359E+03</rscale>
<asrwt>0</asrwt>
<pdfrwt beam="1">  1        2 0.43986731E+00 0.78894359E+03</pdfrwt>
<pdfrwt beam="2">  1       -2 0.46093114E-01 0.78894359E+03</pdfrwt>
<totfact> 0.99924984E+00</totfact>
</mgrwt>
</event>
<event>
12    1  0.3203156E-008  0.6112977E+03  0.7818608E-02  0.9882240E-01
         -2   -1    0    0    0  501 -0.00000000000E+00  0.00000000000E+00  0.66370028367E+03  0.66370028367E+03  0.00000000000E+00 0. -1.
          2   -1    0    0  501    0  0.00000000000E+00 -0.00000000000E+00 -0.87690816810E+03  0.87690816810E+03  0.00000000000E+00 0.  1.
         23    2    1    2    0    0 -0.54354685454E+03  0.19378328987E+03  0.19221450059E+03  0.61477030479E+03  0.89448124035E+02 0.  0.
    5000000    2    1    2    0    0  0.54354685454E+03 -0.19378328987E+03 -0.40542238503E+03  0.92583814698E+03  0.59984482794E+03 0.  0.
         23    2    4    4    0    0  0.47522581513E+03 -0.87540704082E+02  0.10980034174E+00  0.49174463573E+03  0.91158238614E+02 0.  0.
         23    2    4    4    0    0  0.68321039410E+02 -0.10624258579E+03 -0.40553218537E+03  0.43409351126E+03  0.89585555084E+02 0.  0.
          5    1    3    3  502    0 -0.27219340195E+03  0.14418135375E+03  0.10077527274E+03  0.32412228623E+03  0.47000000000E+01 0. -1.
         -5    1    3    3    0  502 -0.27135345260E+03  0.49601936118E+02  0.91439227851E+02  0.29064801856E+03  0.47000000000E+01 0.  1.
         13    1    5    5    0    0  0.15241386387E+03 -0.50508398410E+02  0.36867103955E+02  0.16474303495E+03  0.00000000000E+00 0. -1.
        -13    1    5    5    0    0  0.32281195126E+03 -0.37032305672E+02 -0.36757303613E+02  0.32700160077E+03  0.00000000000E+00 0.  1.
          2    1    6    6  503    0 -0.10127077442E+02 -0.62538756026E+02 -0.20015159216E+03  0.20993883287E+03  0.00000000000E+00 0. -1.
         -2    1    6    6    0  503  0.78448116852E+02 -0.43703829762E+02 -0.20538059322E+03  0.22415467839E+03  0.00000000000E+00 0.  1.
<mgrwt>
<rscale>  0 0.61129773E+03</rscale>
<asrwt>0</asrwt>
<pdfrwt beam="1">  1        2 0.13490895E+00 0.61129773E+03</pdfrwt>
<pdfrwt beam="2">  1       -2 0.10210774E+00 0.61129773E+03</pdfrwt>
<totfact> 0.24617624E+01</totfact>
</mgrwt>
</event>
<event>
12    1  0.3203156E-008  0.4338725E+03  0.7818608E-02  0.1032644E+00
          1   -1    0    0  501    0  0.00000000000E+00  0.00000000000E+00  0.51970973760E+03  0.51970973760E+03  0.00000000000E+00 0. -1.
         -1   -1    0    0    0  501 -0.00000000000E+00 -0.00000000000E+00 -0.63537753355E+03  0.63537753355E+03  0.00000000000E+00 0.  1.
         23    2    1    2    0    0  0.12821265127E+03  0.34021476894E+03  0.15203562059E+03  0.40432276690E+03  0.90429513738E+02 0.  0.
    5000000    2    1    2    0    0 -0.12821265127E+03 -0.34021476894E+03 -0.26770341653E+03  0.75076450425E+03  0.59983135018E+03 0.  0.
         23    2    4    4    0    0  0.64685226049E+02 -0.22938768064E+03 -0.40138614111E+03  0.47533206877E+03  0.89592716365E+02 0.  0.
         23    2    4    4    0    0 -0.19289787732E+03 -0.11082708830E+03  0.13368272458E+03  0.27543243548E+03  0.92193931946E+02 0.  0.
          5    1    3    3  502    0  0.63281355221E+02  0.26997110117E+03  0.12876586909E+03  0.30576406661E+03  0.47000000000E+01 0. -1.
         -5    1    3    3    0  502  0.64931296052E+02  0.70243667773E+02  0.23269751498E+02  0.98558700296E+02  0.47000000000E+01 0.  1.
         13    1    5    5    0    0  0.72046293008E+02 -0.93883313017E+02 -0.17116681074E+03  0.20809330095E+03  0.00000000000E+00 0.  1.
        -13    1    5    5    0    0 -0.73610669583E+01 -0.13550436763E+03 -0.23021933037E+03  0.26723876782E+03  0.00000000000E+00 0. -1.
          2    1    6    6  503    0 -0.18555765035E+03 -0.12562295045E+03  0.12736281371E+03  0.25774804286E+03  0.00000000000E+00 0. -1.
         -2    1    6    6    0  503 -0.73402269683E+01  0.14795862152E+02  0.63199108682E+01  0.17684392615E+02  0.00000000000E+00 0.  1.
<mgrwt>
<rscale>  0 0.43387254E+03</rscale>
<asrwt>0</asrwt>
<pdfrwt beam="1">  1        1 0.79955345E-01 0.43387254E+03</pdfrwt>
<pdfrwt beam="2">  1       -1 0.97750389E-01 0.43387254E+03</pdfrwt>
<totfact> 0.44694427E+01</totfact>
</mgrwt>
</event>
<event>
12    1  0.3203156E-008  0.4267322E+03  0.7818608E-02  0.1034897E+00
         -2   -1    0    0    0  501 -0.00000000000E+00  0.00000000000E+00  0.52871795709E+03  0.52871795709E+03  0.00000000000E+00 0.  1.
          2   -1    0    0  501    0  0.00000000000E+00 -0.00000000000E+00 -0.58503907672E+03  0.58503907672E+03  0.00000000000E+00 0. -1.
         23    2    1    2    0    0 -0.23408049011E+03  0.19323273261E+03  0.22101284348E+03  0.38642577531E+03  0.91354463717E+02 0.  0.
    5000000    2    1    2    0    0  0.23408049011E+03 -0.19323273261E+03 -0.27733396312E+03  0.72733125849E+03  0.59997005566E+03 0.  0.
         23    2    4    4    0    0 -0.83113356467E+01  0.11760084120E+03  0.95866994342E+02  0.17716053269E+03  0.91084233468E+02 0.  0.
         23    2    4    4    0    0  0.24239182575E+03 -0.31083357380E+03 -0.37320095746E+03  0.55017072581E+03  0.89652468404E+02 0.  0.
          5    1    3    3  502    0 -0.20084869507E+03  0.18089657057E+03  0.15572593825E+03  0.31198786098E+03  0.47000000000E+01 0. -1.
         -5    1    3    3    0  502 -0.33231795039E+02  0.12336162040E+02  0.65286905236E+02  0.74437914336E+02  0.47000000000E+01 0.  1.
         11    1    5    5    0    0 -0.32832529133E+02  0.10341732671E+02  0.43031398318E+02  0.55105604480E+02  0.00000000000E+00 0.  1.
        -11    1    5    5    0    0  0.24521193486E+02  0.10725910853E+03  0.52835596024E+02  0.12205492821E+03  0.00000000000E+00 0. -1.
          2    1    6    6  503    0  0.87941997968E+02 -0.53944117269E+02 -0.76708990012E+02  0.12856139367E+03  0.00000000000E+00 0. -1.
         -2    1    6    6    0  503  0.15444982779E+03 -0.25688945654E+03 -0.29649196745E+03  0.42160933214E+03  0.00000000000E+00 0.  1.
<mgrwt>
<rscale>  0 0.42673218E+03</rscale>
<asrwt>0</asrwt>
<pdfrwt beam="1">  1        2 0.90006012E-01 0.42673218E+03</pdfrwt>
<pdfrwt beam="2">  1       -2 0.81341224E-01 0.42673218E+03</pdfrwt>
<totfact> 0.70755108E+01</totfact>
</mgrwt>
</event>
<event>
12    1  0.3203156E-008  0.9649155E+03  0.7818608E-02  0.9347885E-01
          1   -1    0    0  501    0  0.00000000000E+00  0.00000000000E+00  0.52168447785E+04  0.52168447785E+04  0.00000000000E+00 0. -1.
         -1   -1    0    0    0  501 -0.00000000000E+00 -0.00000000000E+00 -0.23475113070E+03  0.23475113070E+03  0.00000000000E+00 0.  1.
         23    2    1    2    0    0  0.89013886361E+03 -0.89760552082E+02  0.10901264586E+04  0.14132902201E+04  0.92786837149E+02 0.  0.
    5000000    2    1    2    0    0 -0.89013886361E+03  0.89760552082E+02  0.38919671892E+04  0.40383056892E+04  0.60008339756E+03 0.  0.
         23    2    4    4    0    0 -0.16917225701E+03 -0.18868539680E+03  0.63040073823E+03  0.68517656192E+03  0.88546026085E+02 0.  0.
         23    2    4    4    0    0 -0.72096660660E+03  0.27844594889E+03  0.32615664510E+04  0.33531291273E+04  0.91292034296E+02 0.  0.
          5    1    3    3  502    0  0.81804943999E+03 -0.60721348045E+02  0.97309094309E+03  0.12727215100E+04  0.47000000000E+01 0. -1.
         -5    1    3    3    0  502  0.72089423615E+02 -0.29039204037E+02  0.11703551551E+03  0.14056871010E+03  0.47000000000E+01 0.  1.
         13    1    5    5    0    0 -0.14296489952E+03 -0.14565654113E+03  0.39688270415E+03  0.44628541464E+03  0.00000000000E+00 0.  1.
        -13    1    5    5    0    0 -0.26207357488E+02 -0.43028855673E+02  0.23351803408E+03  0.23889114728E+03  0.00000000000E+00 0. -1.
          3    1    6    6  503    0 -0.32012132357E+02  0.32564714052E+02  0.15420723006E+03  0.16082632565E+03  0.00000000000E+00 0. -1.
         -3    1    6    6    0  503 -0.68895447425E+03  0.24588123483E+03  0.31073592209E+04  0.31923028016E+04  0.00000000000E+00 0.  1.
<mgrwt>
<rscale>  0 0.96491552E+03</rscale>
<asrwt>0</asrwt>
<pdfrwt beam="1">  1        1 0.80259142E+00 0.96491552E+03</pdfrwt>
<pdfrwt beam="2">  1       -1 0.36115562E-01 0.96491552E+03</pdfrwt>
<totfact> 0.35942540E-02</totfact>
</mgrwt>
</event>
<event>
12    1  0.3203156E-008  0.6901804E+03  0.7818608E-02  0.9734174E-01
          1   -1    0    0  501    0  0.00000000000E+00  0.00000000000E+00  0.14247537311E+04  0.14247537311E+04  0.00000000000E+00 0. -1.
         -1   -1    0    0    0  501 -0.00000000000E+00 -0.00000000000E+00 -0.40419310886E+03  0.40419310886E+03  0.00000000000E+00 0.  1.
         23    2    1    2    0    0  0.15439603541E+03  0.57082797171E+03  0.71639405573E+03  0.93336945041E+03  0.90969109267E+02 0.  0.
    5000000    2    1    2    0    0 -0.15439603541E+03 -0.57082797171E+03  0.30416656655E+03  0.89557738959E+03  0.59988236471E+03 0.  0.
         23    2    4    4    0    0 -0.30897219622E+03 -0.51338414237E+03  0.95160034869E+02  0.61395116085E+03  0.94093039087E+02 0.  0.
         23    2    4    4    0    0  0.15457616080E+03 -0.57443829341E+02  0.20900653169E+03  0.28162622874E+03  0.91847805676E+02 0.  0.
          5    1    3    3  502    0  0.11640561501E+03  0.34533901179E+03  0.49810845838E+03  0.61720614593E+03  0.47000000000E+01 0. -1.
         -5    1    3    3    0  502  0.37990420402E+02  0.22548895992E+03  0.21828559735E+03  0.31616330448E+03  0.47000000000E+01 0.  1.
         11    1    5    5    0    0 -0.17230603908E+03 -0.25532512220E+03  0.40470753319E+01  0.30805302782E+03  0.00000000000E+00 0.  1.
        -11    1    5    5    0    0 -0.13666615713E+03 -0.25805902017E+03  0.91112959537E+02  0.30589813303E+03  0.00000000000E+00 0. -1.
          3    1    6    6  503    0  0.39321803683E+01 -0.34547960504E+02  0.25581821133E+02  0.43167733203E+02  0.00000000000E+00 0. -1.
         -3    1    6    6    0  503  0.15064398043E+03 -0.22895868837E+02  0.18342471055E+03  0.23845849553E+03  0.00000000000E+00 0.  1.
<mgrwt>
<rscale>  0 0.69018045E+03</rscale>
<asrwt>0</asrwt>
<pdfrwt beam="1">  1        1 0.21919288E+00 0.69018045E+03</pdfrwt>
<pdfrwt beam="2">  1       -1 0.62183556E-01 0.69018045E+03</pdfrwt>
<totfact> 0.20178031E+01</totfact>
</mgrwt>
</event>
<event>
12    1  0.3203156E-008  0.4664416E+03  0.7818608E-02  0.1022929E+00
         -2   -1    0    0    0  501 -0.00000000000E+00  0.00000000000E+00  0.19320555368E+03  0.19320555368E+03  0.00000000000E+00 0.  1.
          2   -1    0    0  501    0  0.00000000000E+00 -0.00000000000E+00 -0.13877750220E+04  0.13877750220E+04  0.00000000000E+00 0. -1.
         23    2    1    2    0    0 -0.37178505778E+02  0.28165854300E+03 -0.12297836995E+03  0.32040419231E+03  0.82591711702E+02 0.  0.
    5000000    2    1    2    0    0  0.37178505778E+02 -0.28165854300E+03 -0.10715910983E+04  0.12605763833E+04  0.60002629945E+03 0.  0.
         23    2    4    4    0    0 -0.21466278162E+03 -0.31126303292E+03 -0.55152846734E+03  0.67464523505E+03  0.89430181768E+02 0.  0.
         23    2    4    4    0    0  0.25184128740E+03  0.29604489926E+02 -0.52006263101E+03  0.58593114829E+03  0.92464644617E+02 0.  0.
          5    1    3    3  502    0  0.15449213164E+02  0.16032720077E+03 -0.87643798102E+02  0.18343122646E+03  0.47000000000E+01 0. -1.
         -5    1    3    3    0  502 -0.52627718942E+02  0.12133134222E+03 -0.35334571845E+02  0.13697296585E+03  0.47000000000E+01 0.  1.
         11    1    5    5    0    0 -0.10005165084E+03 -0.15391786111E+03 -0.34522541525E+03  0.39100080325E+03  0.00000000000E+00 0.  1.
        -11    1    5    5    0    0 -0.11461113078E+03 -0.15734517181E+03 -0.20630305209E+03  0.28364443180E+03  0.00000000000E+00 0. -1.
          3    1    6    6  503    0  0.75914606504E+02  0.38294502591E+02 -0.24470194857E+03  0.25905316065E+03  0.00000000000E+00 0. -1.
         -3    1    6    6    0  503  0.17592668089E+03 -0.86900126648E+01 -0.27536068244E+03  0.32687798764E+03  0.00000000000E+00 0.  1.
<mgrwt>
<rscale>  0 0.46644158E+03</rscale>
<asrwt>0</asrwt>
<pdfrwt beam="1">  1        2 0.21350385E+00 0.46644158E+03</pdfrwt>
<pdfrwt beam="2">  1       -2 0.29723931E-01 0.46644158E+03</pdfrwt>
<totfact> 0.15993397E+02</totfact>
</mgrwt>
</event>
<event>
12    1  0.3203156E-008  0.2979654E+03  0.7818608E-02  0.1086262E+00
          2   -1    0    0  501    0  0.00000000000E+00  0.00000000000E+00  0.72376353922E+03  0.72376353922E+03  0.00000000000E+00 0.  1.
         -2   -1    0    0    0  501 -0.00000000000E+00 -0.00000000000E+00 -0.30257937512E+03  0.30257937512E+03  0.00000000000E+00 0. -1.
         23    2    1    2    0    0 -0.15772213706E+02 -0.25272371696E+03  0.21415501958E+03  0.34343755815E+03  0.89268942528E+02 0.  0.
    5000000    2    1    2    0    0  0.15772213706E+02  0.25272371696E+03  0.20702914452E+03  0.68290535619E+03  0.59948362696E+03 0.  0.
         23    2    4    4    0    0 -0.83560063805E-01  0.23260109815E+03 -0.16449485603E+03  0.29926936500E+03  0.91653245028E+02 0.  0.
         23    2    4    4    0    0  0.15855773770E+02  0.20122618808E+02  0.37152400055E+03  0.38363599119E+03  0.92142093529E+02 0.  0.
          5    1    3    3  502    0  0.58439530120E+01 -0.24483402843E+03  0.19735121566E+03  0.31455912892E+03  0.47000000000E+01 0. -1.
         -5    1    3    3    0  502 -0.21616166718E+02 -0.78896885224E+01  0.16803803928E+02  0.28878429234E+02  0.47000000000E+01 0.  1.
         13    1    5    5    0    0 -0.30573895088E+00  0.18868084873E+03 -0.17127923959E+03  0.25482765562E+03  0.00000000000E+00 0.  1.
        -13    1    5    5    0    0  0.22217888707E+00  0.43920249420E+02  0.67843835569E+01  0.44441709382E+02  0.00000000000E+00 0. -1.
          4    1    6    6  503    0 -0.21193834435E+02  0.45358823425E+02  0.17202230606E+03  0.17915991534E+03  0.00000000000E+00 0. -1.
         -4    1    6    6    0  503  0.37049608205E+02 -0.25236204617E+02  0.19950169449E+03  0.20447607586E+03  0.00000000000E+00 0.  1.
<mgrwt>
<rscale>  0 0.29796535E+03</rscale>
<asrwt>0</asrwt>
<pdfrwt beam="1">  1        2 0.11134824E+00 0.29796535E+03</pdfrwt>
<pdfrwt beam="2">  1       -2 0.46550673E-01 0.29796535E+03</pdfrwt>
<totfact> 0.17958201E+02</totfact>
</mgrwt>
</event>
<event>
12    1  0.3203156E-008  0.5890466E+03  0.7818608E-02  0.9928395E-01
          1   -1    0    0  501    0  0.00000000000E+00  0.00000000000E+00  0.44615165579E+03  0.44615165579E+03  0.00000000000E+00 0. -1.
         -1   -1    0    0    0  501 -0.00000000000E+00 -0.00000000000E+00 -0.91939371786E+03  0.91939371786E+03  0.00000000000E+00 0.  1.
         23    2    1    2    0    0  0.19757511132E+03  0.39077637759E+03  0.60163157143E+02  0.45110825962E+03  0.90205069301E+02 0.  0.
    5000000    2    1    2    0    0 -0.19757511132E+03 -0.39077637759E+03 -0.53340521922E+03  0.91443711403E+03  0.59994333543E+03 0.  0.
         23    2    4    4    0    0  0.20023053953E+03 -0.15122571764E+03 -0.21907814236E+03  0.34554461997E+03  0.91893227692E+02 0.  0.
         23    2    4    4    0    0 -0.39780565085E+03 -0.23955065995E+03 -0.31432707686E+03  0.56889249406E+03  0.95933852325E+02 0.  0.
          5    1    3    3  502    0  0.11982086678E+03  0.31998386157E+03  0.41836095643E+02  0.34426597375E+03  0.47000000000E+01 0. -1.
         -5    1    3    3    0  502  0.77754244535E+02  0.70792516020E+02  0.18327061501E+02  0.10684228587E+03  0.47000000000E+01 0.  1.
         13    1    5    5    0    0  0.12308673515E+03 -0.57381365298E+02 -0.16179013326E+03  0.21123212984E+03  0.00000000000E+00 0. -1.
        -13    1    5    5    0    0  0.77143804373E+02 -0.93844352346E+02 -0.57288009102E+02  0.13431249014E+03  0.00000000000E+00 0.  1.
          4    1    6    6  503    0 -0.32933443845E+03 -0.15208745805E+03 -0.23143467505E+03  0.43029498726E+03  0.00000000000E+00 0. -1.
         -4    1    6    6    0  503 -0.68471212394E+02 -0.87463201893E+02 -0.82892401806E+02  0.13859750679E+03  0.00000000000E+00 0.  1.
<mgrwt>
<rscale>  0 0.58904659E+03</rscale>
<asrwt>0</asrwt>
<pdfrwt beam="1">  1        1 0.68638717E-01 0.58904659E+03</pdfrwt>
<pdfrwt beam="2">  1       -1 0.14144519E+00 0.58904659E+03</pdfrwt>
<totfact> 0.22084437E+01</totfact>
</mgrwt>
</event>
<event>
12    1  0.3203156E-008  0.4209556E+03  0.7818608E-02  0.1036756E+00
         -1   -1    0    0    0  501 -0.00000000000E+00  0.00000000000E+00  0.16866492009E+04  0.16866492009E+04  0.00000000000E+00 0.  1.
          1   -1    0    0  501    0  0.00000000000E+00 -0.00000000000E+00 -0.67253739885E+03  0.67253739885E+03  0.00000000000E+00 0. -1.
         23    2    1    2    0    0 -0.26727427261E+02  0.21865876846E+03  0.15232613123E+04  0.15419706405E+04  0.93927727601E+02 0.  0.
    5000000    2    1    2    0    0  0.26727427261E+02 -0.21865876846E+03 -0.50914951025E+03  0.81721595932E+03  0.60006890270E+03 0.  0.
         23    2    4    4    0    0  0.17626459788E+03  0.12593087165E+03 -0.10379283511E+03  0.25716201436E+03  0.91823505220E+02 0.  0.
         23    2    4    4    0    0 -0.14953717062E+03 -0.34458964011E+03 -0.40535667513E+03  0.56005394495E+03  0.90790978145E+02 0.  0.
          5    1    3    3  502    0 -0.58415388426E+01  0.33966455583E+02  0.86546647674E+02  0.93275162313E+02  0.47000000000E+01 0. -1.
         -5    1    3    3    0  502 -0.20885888418E+02  0.18469231288E+03  0.14367146647E+04  0.14486954782E+04  0.47000000000E+01 0.  1.
         11    1    5    5    0    0  0.86453941577E+02  0.11558585155E+03 -0.72240465918E+02  0.16140959702E+03  0.00000000000E+00 0.  1.
        -11    1    5    5    0    0  0.89810656300E+02  0.10345020102E+02 -0.31552369195E+02  0.95752417347E+02  0.00000000000E+00 0. -1.
          2    1    6    6  503    0 -0.49263874364E+02 -0.22527038662E+03 -0.24252781206E+03  0.33465417378E+03  0.00000000000E+00 0. -1.
         -2    1    6    6    0  503 -0.10027329625E+03 -0.11931925350E+03 -0.16282886307E+03  0.22539977118E+03  0.00000000000E+00 0.  1.
<mgrwt>
<rscale>  0 0.42095560E+03</rscale>
<asrwt>0</asrwt>
<pdfrwt beam="1">  1        1 0.10346729E+00 0.42095560E+03</pdfrwt>
<pdfrwt beam="2">  1       -1 0.25948449E+00 0.42095560E+03</pdfrwt>
<totfact> 0.19806530E+00</totfact>
</mgrwt>
</event>
<event>
12    1  0.3203156E-008  0.7161037E+03  0.7818608E-02  0.9690082E-01
         -1   -1    0    0    0  501 -0.00000000000E+00  0.00000000000E+00  0.39498502825E+03  0.39498502825E+03  0.00000000000E+00 0.  1.
          1   -1    0    0  501    0  0.00000000000E+00 -0.00000000000E+00 -0.16745520681E+04  0.16745520681E+04  0.00000000000E+00 0. -1.
         23    2    1    2    0    0  0.15674842207E+03 -0.57934642418E+03 -0.10108205403E+04  0.11793867169E+04  0.94776137226E+02 0.  0.
    5000000    2    1    2    0    0 -0.15674842207E+03  0.57934642418E+03 -0.26874649950E+03  0.89015037945E+03  0.59994222222E+03 0.  0.
         23    2    4    4    0    0 -0.22325479028E+03 -0.16519161714E+02 -0.84085620982E+02  0.25600243986E+03  0.91385302267E+02 0.  0.
         23    2    4    4    0    0  0.66506368209E+02  0.59586558589E+03 -0.18466087852E+03  0.63414793959E+03  0.92547694535E+02 0.  0.
          5    1    3    3  502    0  0.75909628641E+02 -0.34007737665E+03 -0.66948422474E+03  0.75474903843E+03  0.47000000000E+01 0. -1.
         -5    1    3    3    0  502  0.80838793430E+02 -0.23926904753E+03 -0.34133631559E+03  0.42463767846E+03  0.47000000000E+01 0.  1.
         11    1    5    5    0    0 -0.16148443843E+03 -0.41469255208E+01 -0.14577678919E+02  0.16219411077E+03  0.00000000000E+00 0. -1.
        -11    1    5    5    0    0 -0.61770351850E+02 -0.12372236194E+02 -0.69507942063E+02  0.93808329086E+02  0.00000000000E+00 0.  1.
          1    1    6    6  503    0  0.47716572722E+02  0.10459886044E+03 -0.31191534065E+02  0.11912474434E+03  0.00000000000E+00 0. -1.
         -1    1    6    6    0  503  0.18789795486E+02  0.49126672545E+03 -0.15346934445E+03  0.51502319524E+03  0.00000000000E+00 0.  1.
<mgrwt>
<rscale>  0 0.71610370E+03</rscale>
<asrwt>0</asrwt>
<pdfrwt beam="1">  1        1 0.25762339E+00 0.71610370E+03</pdfrwt>
<pdfrwt beam="2">  1       -1 0.60766928E-01 0.71610370E+03</pdfrwt>
<totfact> 0.14225055E+01</totfact>
</mgrwt>
</event>
<event>
12    1  0.3203156E-008  0.8801644E+03  0.7818608E-02  0.9450722E-01
         -1   -1    0    0    0  501 -0.00000000000E+00  0.00000000000E+00  0.28932045970E+04  0.28932045970E+04  0.00000000000E+00 0.  1.
          1   -1    0    0  501    0  0.00000000000E+00 -0.00000000000E+00 -0.87968737969E+03  0.87968737969E+03  0.00000000000E+00 0. -1.
         23    2    1    2    0    0 -0.72890585555E+03  0.31162118844E+03 -0.58556072439E+03  0.99016478083E+03  0.95568927509E+02 0.  0.
    5000000    2    1    2    0    0  0.72890585555E+03 -0.31162118844E+03  0.25990779417E+04  0.27827271958E+04  0.59996082223E+03 0.  0.
         23    2    4    4    0    0  0.90807850319E+02 -0.31109510981E+03  0.11043940081E+04  0.11549359993E+04  0.95732984749E+02 0.  0.
         23    2    4    4    0    0  0.63809800524E+03 -0.52607862448E+00  0.14946839336E+04  0.16277911965E+04  0.91949862071E+02 0.  0.
          5    1    3    3  502    0 -0.27746960813E+03  0.15401460379E+03 -0.27533079122E+03  0.42016546290E+03  0.47000000000E+01 0. -1.
         -5    1    3    3    0  502 -0.45143624742E+03  0.15760658464E+03 -0.31022993317E+03  0.56999931793E+03  0.47000000000E+01 0.  1.
         13    1    5    5    0    0  0.38827343304E+02 -0.88423331512E+02  0.48875873225E+03  0.49820813572E+03  0.00000000000E+00 0. -1.
        -13    1    5    5    0    0  0.51980507015E+02 -0.22267177830E+03  0.61563527582E+03  0.65672786358E+03  0.00000000000E+00 0.  1.
          1    1    6    6  503    0  0.40613473894E+03 -0.20942804347E+02  0.84830778599E+03  0.94074976854E+03  0.00000000000E+00 0. -1.
         -1    1    6    6    0  503  0.23196326629E+03  0.20416725722E+02  0.64637614758E+03  0.68704142798E+03  0.00000000000E+00 0.  1.
<mgrwt>
<rscale>  0 0.88016444E+03</rscale>
<asrwt>0</asrwt>
<pdfrwt beam="1">  1        1 0.13533652E+00 0.88016444E+03</pdfrwt>
<pdfrwt beam="2">  1       -1 0.44510840E+00 0.88016444E+03</pdfrwt>
<totfact> 0.69539593E-02</totfact>
</mgrwt>
</event>
<event>
12    1  0.3203156E-008  0.4974894E+03  0.7818608E-02  0.1014436E+00
          2   -1    0    0  501    0  0.00000000000E+00  0.00000000000E+00  0.38493839691E+03  0.38493839691E+03  0.00000000000E+00 0. -1.
         -2   -1    0    0    0  501 -0.00000000000E+00 -0.00000000000E+00 -0.11008823297E+04  0.11008823297E+04  0.00000000000E+00 0.  1.
         23    2    1    2    0    0  0.39386865474E+03 -0.19855479292E+03 -0.57067955524E+03  0.72718089439E+03  0.92522296847E+02 0.  0.
    5000000    2    1    2    0    0 -0.39386865474E+03  0.19855479292E+03 -0.14526437752E+03  0.75863983219E+03  0.59989676831E+03 0.  0.
         23    2    4    4    0    0 -0.74671256037E+02  0.20642370852E+03  0.17655505212E+03  0.29623156394E+03  0.91623736715E+02 0.  0.
         23    2    4    4    0    0 -0.31919739871E+03 -0.78689156001E+01 -0.32181942964E+03  0.46240826825E+03  0.91130467345E+02 0.  0.
          5    1    3    3  502    0  0.33253688113E+03 -0.20165579627E+03 -0.49924276590E+03  0.63285959485E+03  0.47000000000E+01 0. -1.
         -5    1    3    3    0  502  0.61331773616E+02  0.31010033562E+01 -0.71436789340E+02  0.94321299546E+02  0.47000000000E+01 0.  1.
         13    1    5    5    0    0 -0.56876413526E+02  0.13357631011E+03  0.16595574316E+03  0.22049686104E+03  0.00000000000E+00 0. -1.
        -13    1    5    5    0    0 -0.17794842510E+02  0.72847398402E+02  0.10599308966E+02  0.75734702907E+02  0.00000000000E+00 0.  1.
          1    1    6    6  503    0 -0.28634725195E+03 -0.24635839191E+02 -0.31208701922E+03  0.42426404613E+03  0.00000000000E+00 0. -1.
         -1    1    6    6    0  503 -0.32850146757E+02  0.16766923591E+02 -0.97324104197E+01  0.38144222122E+02  0.00000000000E+00 0.  1.
<mgrwt>
<rscale>  0 0.49748937E+03</rscale>
<asrwt>0</asrwt>
<pdfrwt beam="1">  1        2 0.59221292E-01 0.49748937E+03</pdfrwt>
<pdfrwt beam="2">  1       -2 0.16936651E+00 0.49748937E+03</pdfrwt>
<totfact> 0.18626555E+01</totfact>
</mgrwt>
</event>
<event>
12    1  0.3203156E-008  0.8629328E+03  0.7818608E-02  0.9473142E-01
          1   -1    0    0  501    0  0.00000000000E+00  0.00000000000E+00  0.15112836647E+04  0.15112836647E+04  0.00000000000E+00 0. -1.
         -1   -1    0    0    0  501 -0.00000000000E+00 -0.00000000000E+00 -0.71428291453E+03  0.71428291453E+03  0.00000000000E+00 0.  1.
         23    2    1    2    0    0  0.71779508725E+03  0.29148069106E+03 -0.22288368089E+03  0.81127861259E+03  0.91132165004E+02 0.  0.
    5000000    2    1    2    0    0 -0.71779508725E+03 -0.29148069106E+03  0.10198844310E+04  0.14142879666E+04  0.59987950399E+03 0.  0.
         23    2    4    4    0    0  0.14097070444E+00 -0.22859422279E+03  0.18235601515E+03  0.30561095653E+03  0.88820053603E+02 0.  0.
         23    2    4    4    0    0 -0.71793605795E+03 -0.62886468273E+02  0.83752841590E+03  0.11086770101E+04  0.91235815782E+02 0.  0.
          5    1    3    3  502    0  0.14009605259E+03  0.45025877217E+02 -0.79986069042E+01  0.14744592664E+03  0.47000000000E+01 0. -1.
         -5    1    3    3    0  502  0.57769903466E+03  0.24645481384E+03 -0.21488507398E+03  0.66383268595E+03  0.47000000000E+01 0.  1.
         11    1    5    5    0    0  0.10860245411E+02 -0.16073561384E+03  0.73937125089E+02  0.17725851447E+03  0.00000000000E+00 0.  1.
        -11    1    5    5    0    0 -0.10719274707E+02 -0.67858608949E+02  0.10841889006E+03  0.12835244205E+03  0.00000000000E+00 0. -1.
          1    1    6    6  503    0 -0.61419352081E+03 -0.50548658109E+02  0.76064044645E+03  0.97896002810E+03  0.00000000000E+00 0. -1.
         -1    1    6    6    0  503 -0.10374253715E+03 -0.12337810163E+02  0.76887969447E+02  0.12971698200E+03  0.00000000000E+00 0.  1.
<mgrwt>
<rscale>  0 0.86293280E+03</rscale>
<asrwt>0</asrwt>
<pdfrwt beam="1">  1        1 0.23250518E+00 0.86293280E+03</pdfrwt>
<pdfrwt beam="2">  1       -1 0.10988968E+00 0.86293280E+03</pdfrwt>
<totfact> 0.50328354E+00</totfact>
</mgrwt>
</event>
<event>
12    1  0.3203156E-008  0.7221138E+03  0.7818608E-02  0.9680145E-01
         -2   -1    0    0    0  501 -0.00000000000E+00  0.00000000000E+00  0.81990504302E+03  0.81990504302E+03  0.00000000000E+00 0.  1.
          2   -1    0    0  501    0  0.00000000000E+00 -0.00000000000E+00 -0.87418878802E+03  0.87418878802E+03  0.00000000000E+00 0. -1.
         23    2    1    2    0    0 -0.62017797004E+03 -0.27550659826E+03 -0.31150918673E+03  0.75220334109E+03  0.90814606355E+02 0.  0.
    5000000    2    1    2    0    0  0.62017797004E+03  0.27550659826E+03  0.25722544173E+03  0.94189048995E+03  0.60039001239E+03 0.  0.
         23    2    4    4    0    0  0.39518307741E+03  0.33783707450E+03 -0.67296851136E+02  0.53191107909E+03  0.89983200180E+02 0.  0.
         23    2    4    4    0    0  0.22499489263E+03 -0.62330476244E+02  0.32452229287E+03  0.40997941085E+03  0.90887891259E+02 0.  0.
          5    1    3    3  502    0 -0.48548468442E+03 -0.21154297772E+03 -0.20060707723E+03  0.56631360540E+03  0.47000000000E+01 0. -1.
         -5    1    3    3    0  502 -0.13469328562E+03 -0.63963620535E+02 -0.11090210950E+03  0.18588973569E+03  0.47000000000E+01 0.  1.
         11    1    5    5    0    0  0.20514024636E+03  0.21469471157E+03 -0.71455181540E+02  0.30542132018E+03  0.00000000000E+00 0.  1.
        -11    1    5    5    0    0  0.19004283105E+03  0.12314236293E+03  0.41583304042E+01  0.22648975891E+03  0.00000000000E+00 0. -1.
          1    1    6    6  503    0  0.13156832626E+03 -0.34325488657E+01  0.22820342253E+03  0.26343653680E+03  0.00000000000E+00 0. -1.
         -1    1    6    6    0  503  0.93426566368E+02 -0.58897927378E+02  0.96318870339E+02  0.14654287405E+03  0.00000000000E+00 0.  1.
<mgrwt>
<rscale>  0 0.72211382E+03</rscale>
<asrwt>0</asrwt>
<pdfrwt beam="1">  1        2 0.13449058E+00 0.72211382E+03</pdfrwt>
<pdfrwt beam="2">  1       -2 0.12613924E+00 0.72211382E+03</pdfrwt>
<totfact> 0.14579557E+01</totfact>
</mgrwt>
</event>
<event>
12    1  0.3203156E-008  0.6621890E+03  0.7818608E-02  0.9784172E-01
          2   -1    0    0  501    0  0.00000000000E+00  0.00000000000E+00  0.14625792831E+04  0.14625792831E+04  0.00000000000E+00 0. -1.
         -2   -1    0    0    0  501 -0.00000000000E+00 -0.00000000000E+00 -0.31017036644E+03  0.31017036644E+03  0.00000000000E+00 0.  1.
         23    2    1    2    0    0 -0.28551171527E+02  0.52661769905E+03  0.34440156356E+03  0.63648990820E+03  0.91463631612E+02 0.  0.
    5000000    2    1    2    0    0  0.28551171527E+02 -0.52661769905E+03  0.80800735314E+03  0.11362597414E+04  0.60005745289E+03 0.  0.
         23    2    4    4    0    0 -0.71939279527E+01  0.11441032355E+03  0.18049747973E+03  0.23396380550E+03  0.94964453135E+02 0.  0.
         23    2    4    4    0    0  0.35745099480E+02 -0.64102802261E+03  0.62750987341E+03  0.90229593586E+03  0.90413919000E+02 0.  0.
          5    1    3    3  502    0  0.28611953541E+02  0.27582441019E+03  0.16297309999E+03  0.32168318337E+03  0.47000000000E+01 0. -1.
         -5    1    3    3    0  502 -0.57163125068E+02  0.25079328887E+03  0.18142846357E+03  0.31480672483E+03  0.47000000000E+01 0.  1.
         11    1    5    5    0    0 -0.27090537974E+02  0.12253745888E+03  0.16574262647E+03  0.20789406991E+03  0.00000000000E+00 0. -1.
        -11    1    5    5    0    0  0.19896610021E+02 -0.81271353216E+01  0.14754853265E+02  0.26069735590E+02  0.00000000000E+00 0.  1.
          2    1    6    6  503    0  0.37904701985E+02 -0.63759586985E+03  0.63031588474E+03  0.89736468296E+03  0.00000000000E+00 0. -1.
         -2    1    6    6    0  503 -0.21596025052E+01 -0.34321527634E+01 -0.28060113328E+01  0.49312529008E+01  0.00000000000E+00 0.  1.
<mgrwt>
<rscale>  0 0.66218900E+03</rscale>
<asrwt>0</asrwt>
<pdfrwt beam="1">  1        2 0.22501219E+00 0.66218900E+03</pdfrwt>
<pdfrwt beam="2">  1       -2 0.47718519E-01 0.66218900E+03</pdfrwt>
<totfact> 0.57150028E+01</totfact>
</mgrwt>
</event>
<event>
12    1  0.3203156E-008  0.5043670E+03  0.7818608E-02  0.1012645E+00
         -1   -1    0    0    0  501 -0.00000000000E+00  0.00000000000E+00  0.76971201830E+03  0.76971201830E+03  0.00000000000E+00 0.  1.
          1   -1    0    0  501    0  0.00000000000E+00 -0.00000000000E+00 -0.10712957682E+04  0.10712957682E+04  0.00000000000E+00 0. -1.
         23    2    1    2    0    0  0.14821499949E+03 -0.43637729402E+03  0.53581115620E+03  0.71249886399E+03  0.90378134885E+02 0.  0.
    5000000    2    1    2    0    0 -0.14821499949E+03  0.43637729402E+03 -0.83739490614E+03  0.11285089225E+04  0.59992443742E+03 0.  0.
         23    2    4    4    0    0 -0.88974111891E+02  0.33043742281E+02  0.55539039853E+02  0.14264313390E+03  0.90852612571E+02 0.  0.
         23    2    4    4    0    0 -0.59240887596E+02  0.40333355174E+03 -0.89293394599E+03  0.98586578864E+03  0.91721778117E+02 0.  0.
          5    1    3    3  502    0  0.75030845837E+02 -0.16651099648E+03  0.27463665981E+03  0.32985288340E+03  0.47000000000E+01 0. -1.
         -5    1    3    3    0  502  0.73184153649E+02 -0.26986629755E+03  0.26117449639E+03  0.38264598059E+03  0.47000000000E+01 0.  1.
         11    1    5    5    0    0 -0.96271691478E+02  0.51454156953E+02  0.36310808899E+02  0.11504018294E+03  0.00000000000E+00 0. -1.
        -11    1    5    5    0    0  0.72975795879E+01 -0.18410414672E+02  0.19228230954E+02  0.27602950962E+02  0.00000000000E+00 0.  1.
          1    1    6    6  503    0 -0.83363628523E+02  0.30759268501E+03 -0.66223882829E+03  0.73493062266E+03  0.00000000000E+00 0. -1.
         -1    1    6    6    0  503  0.24122740927E+02  0.95740866735E+02 -0.23069511770E+03  0.25093516597E+03  0.00000000000E+00 0.  1.
<mgrwt>
<rscale>  0 0.50436703E+03</rscale>
<asrwt>0</asrwt>
<pdfrwt beam="1">  1        1 0.16481473E+00 0.50436703E+03</pdfrwt>
<pdfrwt beam="2">  1       -1 0.11841723E+00 0.50436703E+03</pdfrwt>
<totfact> 0.92008325E+00</totfact>
</mgrwt>
</event>
<event>
12    1  0.3203156E-008  0.1600602E+04  0.7818608E-02  0.8820178E-01
         -2   -1    0    0    0  501 -0.00000000000E+00  0.00000000000E+00  0.28628872626E+04  0.28628872626E+04  0.00000000000E+00 0.  1.
          2   -1    0    0  501    0  0.00000000000E+00 -0.00000000000E+00 -0.95658549973E+03  0.95658549973E+03  0.00000000000E+00 0. -1.
         23    2    1    2    0    0  0.87155361921E+03 -0.12891971907E+04  0.13476666844E+04  0.20605874415E+04  0.90443376967E+02 0.  0.
    5000000    2    1    2    0    0 -0.87155361921E+03  0.12891971907E+04  0.55863507848E+03  0.17588853208E+04  0.59997442716E+03 0.  0.
         23    2    4    4    0    0 -0.32813483447E+03  0.92596533533E+03  0.47212591526E+03  0.10937085141E+04  0.90615463543E+02 0.  0.
         23    2    4    4    0    0 -0.54341878473E+03  0.36323185533E+03  0.86509163223E+02  0.66517680665E+03  0.87948805878E+02 0.  0.
          5    1    3    3  502    0  0.39117608789E+03 -0.50982548399E+03  0.52708596202E+03  0.83113323674E+03  0.47000000000E+01 0. -1.
         -5    1    3    3    0  502  0.48037753132E+03 -0.77937170666E+03  0.82058072235E+03  0.12294542048E+04  0.47000000000E+01 0.  1.
         13    1    5    5    0    0 -0.26805469372E+03  0.80504485716E+03  0.43585865274E+03  0.95389900201E+03  0.00000000000E+00 0. -1.
        -13    1    5    5    0    0 -0.60080140754E+02  0.12092047817E+03  0.36267262515E+02  0.13980951213E+03  0.00000000000E+00 0.  1.
          3    1    6    6  503    0 -0.31721718760E+03  0.15930877846E+03  0.45683673649E+02  0.35790086482E+03  0.00000000000E+00 0. -1.
         -3    1    6    6    0  503 -0.22620159713E+03  0.20392307687E+03  0.40825489574E+02  0.30727594183E+03  0.00000000000E+00 0.  1.
<mgrwt>
<rscale>  0 0.16006024E+04</rscale>
<asrwt>0</asrwt>
<pdfrwt beam="1">  1        2 0.14716700E+00 0.16006024E+04</pdfrwt>
<pdfrwt beam="2">  1       -2 0.44044419E+00 0.16006024E+04</pdfrwt>
<totfact> 0.10133334E-01</totfact>
</mgrwt>
</event>
<event>
12    1  0.3203156E-008  0.1051886E+04  0.7818608E-02  0.9253399E-01
         -2   -1    0    0    0  501 -0.00000000000E+00  0.00000000000E+00  0.49755077529E+03  0.49755077529E+03  0.00000000000E+00 0.  1.
          2   -1    0    0  501    0  0.00000000000E+00 -0.00000000000E+00 -0.28846415781E+04  0.28846415781E+04  0.00000000000E+00 0. -1.
         23    2    1    2    0    0  0.35126322969E+03 -0.97504547452E+03 -0.17233279765E+04  0.20130299387E+04  0.91272589193E+02 0.  0.
    5000000    2    1    2    0    0 -0.35126322969E+03  0.97504547452E+03 -0.66376282628E+03  0.13691624147E+04  0.59993757533E+03 0.  0.
         23    2    4    4    0    0 -0.17554376346E+03  0.73379683595E+03 -0.15990922456E+03  0.77672205393E+03  0.91938999516E+02 0.  0.
         23    2    4    4    0    0 -0.17571946623E+03  0.24124863858E+03 -0.50385360172E+03  0.59244036074E+03  0.89659871984E+02 0.  0.
          5    1    3    3  502    0  0.14332170361E+03 -0.47095622681E+03 -0.89132561144E+03  0.10182457041E+04  0.47000000000E+01 0. -1.
         -5    1    3    3    0  502  0.20794152607E+03 -0.50408924772E+03 -0.83200236508E+03  0.99478423461E+03  0.47000000000E+01 0.  1.
         13    1    5    5    0    0 -0.15757044617E+03  0.53090535730E+03 -0.14515521916E+03  0.57250238564E+03  0.00000000000E+00 0.  1.
        -13    1    5    5    0    0 -0.17973317290E+02  0.20289147865E+03 -0.14754005399E+02  0.20421966829E+03  0.00000000000E+00 0. -1.
          3    1    6    6  503    0 -0.69675633908E+01  0.62363344012E+02 -0.13823384403E+03  0.15181017506E+03  0.00000000000E+00 0. -1.
         -3    1    6    6    0  503 -0.16875190284E+03  0.17888529456E+03 -0.36561975769E+03  0.44063018568E+03  0.00000000000E+00 0.  1.
<mgrwt>
<rscale>  0 0.10518858E+04</rscale>
<asrwt>0</asrwt>
<pdfrwt beam="1">  1        2 0.44379100E+00 0.10518858E+04</pdfrwt>
<pdfrwt beam="2">  1       -2 0.76546275E-01 0.10518858E+04</pdfrwt>
<totfact> 0.31681820E+00</totfact>
</mgrwt>
</event>
<event>
12    1  0.3203156E-008  0.5492522E+03  0.7818608E-02  0.1001667E+00
          1   -1    0    0  501    0  0.00000000000E+00  0.00000000000E+00  0.15796897643E+04  0.15796897643E+04  0.00000000000E+00 0. -1.
         -1   -1    0    0    0  501 -0.00000000000E+00 -0.00000000000E+00 -0.42382214526E+03  0.42382214526E+03  0.00000000000E+00 0.  1.
         23    2    1    2    0    0 -0.11475420322E+03 -0.51406654192E+03 -0.76182636869E+02  0.53539969630E+03  0.58447446154E+02 0.  0.
    5000000    2    1    2    0    0  0.11475420322E+03  0.51406654192E+03  0.12320502559E+04  0.14681122133E+04  0.59997725038E+03 0.  0.
         23    2    4    4    0    0  0.12239227056E+03  0.44556959667E+03  0.37069423752E+03  0.59907351331E+03  0.89234092429E+02 0.  0.
         23    2    4    4    0    0 -0.76380673415E+01  0.68496945252E+02  0.86135601839E+03  0.86903869996E+03  0.92433219246E+02 0.  0.
          5    1    3    3  502    0 -0.33784691668E+02 -0.18624826432E+03 -0.62158194612E+00  0.18934702986E+03  0.47000000000E+01 0. -1.
         -5    1    3    3    0  502 -0.80969511553E+02 -0.32781827760E+03 -0.75561054923E+02  0.34605266644E+03  0.47000000000E+01 0.  1.
         11    1    5    5    0    0  0.85382528714E+02  0.19237668621E+03  0.12762603444E+03  0.24614501879E+03  0.00000000000E+00 0. -1.
        -11    1    5    5    0    0  0.37009741849E+02  0.25319291046E+03  0.24306820309E+03  0.35292849453E+03  0.00000000000E+00 0.  1.
          2    1    6    6  503    0 -0.13864508442E+02 -0.15543502893E+02  0.36387558112E+03  0.36447121095E+03  0.00000000000E+00 0. -1.
         -2    1    6    6    0  503  0.62264411006E+01  0.84040448144E+02  0.49748043727E+03  0.50456748900E+03  0.00000000000E+00 0.  1.
<mgrwt>
<rscale>  0 0.54925223E+03</rscale>
<asrwt>0</asrwt>
<pdfrwt beam="1">  1        1 0.24302919E+00 0.54925223E+03</pdfrwt>
<pdfrwt beam="2">  1       -1 0.65203407E-01 0.54925223E+03</pdfrwt>
<totfact> 0.14743024E+01</totfact>
</mgrwt>
</event>
<event>
12    1  0.3203156E-008  0.6945763E+03  0.7818608E-02  0.9726553E-01
          1   -1    0    0  501    0  0.00000000000E+00  0.00000000000E+00  0.67248308085E+03  0.67248308085E+03  0.00000000000E+00 0. -1.
         -1   -1    0    0    0  501 -0.00000000000E+00 -0.00000000000E+00 -0.81549226920E+03  0.81549226920E+03  0.00000000000E+00 0.  1.
         23    2    1    2    0    0  0.11232156837E+03 -0.59128691931E+03 -0.18807518160E+03  0.63694810800E+03  0.89968120384E+02 0.  0.
    5000000    2    1    2    0    0 -0.11232156837E+03  0.59128691931E+03  0.45065993253E+02  0.85102724204E+03  0.59998338917E+03 0.  0.
         23    2    4    4    0    0 -0.72322579737E+02  0.66508350843E+03 -0.67677111348E+02  0.67811615264E+03  0.87719418306E+02 0.  0.
         23    2    4    4    0    0 -0.39998988635E+02 -0.73796589119E+02  0.11274310460E+03  0.17291108940E+03  0.10070442665E+03 0.  0.
          5    1    3    3  502    0  0.37976030101E+02 -0.71303845519E+02 -0.44668233078E+02  0.92432452604E+02  0.47000000000E+01 0. -1.
         -5    1    3    3    0  502  0.74345538271E+02 -0.51998307379E+03 -0.14340694852E+03  0.54451565540E+03  0.47000000000E+01 0.  1.
         11    1    5    5    0    0  0.54340882442E+01  0.35483816788E+03 -0.37418271836E+02  0.35684700050E+03  0.00000000000E+00 0.  1.
        -11    1    5    5    0    0 -0.77756667981E+02  0.31024534055E+03 -0.30258839512E+02  0.32126915214E+03  0.00000000000E+00 0. -1.
          2    1    6    6  503    0 -0.46180591424E+02 -0.84247611607E+02  0.48672645129E+02  0.10770020181E+03  0.00000000000E+00 0. -1.
         -2    1    6    6    0  503  0.61816027892E+01  0.10451022487E+02  0.64070459471E+02  0.65210887595E+02  0.00000000000E+00 0.  1.
<mgrwt>
<rscale>  0 0.69457625E+03</rscale>
<asrwt>0</asrwt>
<pdfrwt beam="1">  1        1 0.10345894E+00 0.69457625E+03</pdfrwt>
<pdfrwt beam="2">  1       -1 0.12546035E+00 0.69457625E+03</pdfrwt>
<totfact> 0.16609284E+01</totfact>
</mgrwt>
</event>
<event>
12    1  0.3203156E-008  0.6716572E+03  0.7818608E-02  0.9766969E-01
          2   -1    0    0  501    0  0.00000000000E+00  0.00000000000E+00  0.74163743988E+03  0.74163743988E+03  0.00000000000E+00 0. -1.
         -2   -1    0    0    0  501 -0.00000000000E+00 -0.00000000000E+00 -0.68030324387E+03  0.68030324387E+03  0.00000000000E+00 0.  1.
         23    2    1    2    0    0 -0.53893891053E+03  0.20114876051E+03 -0.43544668783E+02  0.58417536916E+03  0.91917085548E+02 0.  0.
    5000000    2    1    2    0    0  0.53893891053E+03 -0.20114876051E+03  0.10487886480E+03  0.83776531459E+03  0.59994597499E+03 0.  0.
         23    2    4    4    0    0 -0.77991137058E+02  0.52317074930E+02  0.10014043096E+03  0.16479707039E+03  0.91160708126E+02 0.  0.
         23    2    4    4    0    0  0.61693004759E+03 -0.25346583544E+03  0.47384338361E+01  0.67296824420E+03  0.89533187137E+02 0.  0.
          5    1    3    3  502    0 -0.21428937095E+03  0.99713237807E+02  0.23179834230E+02  0.23753327980E+03  0.47000000000E+01 0. -1.
         -5    1    3    3    0  502 -0.32464953958E+03  0.10143552270E+03 -0.66724503013E+02  0.34664208936E+03  0.47000000000E+01 0.  1.
         13    1    5    5    0    0 -0.22341978834E+02  0.10336739427E+02  0.91264684943E+02  0.94526477338E+02  0.00000000000E+00 0. -1.
        -13    1    5    5    0    0 -0.55649158224E+02  0.41980335503E+02  0.88757460188E+01  0.70270593049E+02  0.00000000000E+00 0.  1.
          1    1    6    6  503    0  0.39979367684E+03 -0.20768565448E+03  0.15630822925E+02  0.45079112429E+03  0.00000000000E+00 0. -1.
         -1    1    6    6    0  503  0.21713637075E+03 -0.45780180956E+02 -0.10892389089E+02  0.22217711991E+03  0.00000000000E+00 0.  1.
<mgrwt>
<rscale>  0 0.67165716E+03</rscale>
<asrwt>0</asrwt>
<pdfrwt beam="1">  1        2 0.11409807E+00 0.67165716E+03</pdfrwt>
<pdfrwt beam="2">  1       -2 0.10466204E+00 0.67165716E+03</pdfrwt>
<totfact> 0.28783070E+01</totfact>
</mgrwt>
</event>
<event>
12    1  0.3203156E-008  0.9442567E+03  0.7818608E-02  0.9371889E-01
         -2   -1    0    0    0  501 -0.00000000000E+00  0.00000000000E+00  0.82011307010E+03  0.82011307010E+03  0.00000000000E+00 0.  1.
          2   -1    0    0  501    0  0.00000000000E+00 -0.00000000000E+00 -0.13415079517E+04  0.13415079517E+04  0.00000000000E+00 0. -1.
         23    2    1    2    0    0  0.33922325744E+03 -0.85854514094E+03  0.35055809465E+02  0.92810215215E+03  0.89288955749E+02 0.  0.
    5000000    2    1    2    0    0 -0.33922325744E+03  0.85854514094E+03 -0.55645069103E+03  0.12335188696E+04  0.59979934374E+03 0.  0.
         23    2    4    4    0    0 -0.76799512004E+02  0.50904470785E+03 -0.33021834998E+01  0.52255149504E+03  0.89579467083E+02 0.  0.
         23    2    4    4    0    0 -0.26242374544E+03  0.34950043309E+03 -0.55314850753E+03  0.71096737458E+03  0.92111679165E+02 0.  0.
          5    1    3    3  502    0  0.28339798843E+03 -0.68876522117E+03  0.61645844721E+02  0.74735149020E+03  0.47000000000E+01 0. -1.
         -5    1    3    3    0  502  0.55825269017E+02 -0.16977991977E+03 -0.26590035256E+02  0.18075066194E+03  0.47000000000E+01 0.  1.
         11    1    5    5    0    0  0.14426211648E+02  0.59006632627E+02  0.16460937716E+02  0.62935369602E+02  0.00000000000E+00 0.  1.
        -11    1    5    5    0    0 -0.91225723652E+02  0.45003807522E+03 -0.19763121216E+02  0.45961612544E+03  0.00000000000E+00 0. -1.
          3    1    6    6  503    0 -0.11318618981E+03  0.21995329515E+03 -0.33775376040E+03  0.41865041296E+03  0.00000000000E+00 0. -1.
         -3    1    6    6    0  503 -0.14923755563E+03  0.12954713795E+03 -0.21539474713E+03  0.29231696162E+03  0.00000000000E+00 0.  1.
<mgrwt>
<rscale>  0 0.94425665E+03</rscale>
<asrwt>0</asrwt>
<pdfrwt beam="1">  1        2 0.20638584E+00 0.94425665E+03</pdfrwt>
<pdfrwt beam="2">  1       -2 0.12617124E+00 0.94425665E+03</pdfrwt>
<totfact> 0.73139662E+00</totfact>
</mgrwt>
</event>
<event>
12    1  0.3203156E-008  0.6383696E+03  0.7818608E-02  0.9828851E-01
          1   -1    0    0  501    0  0.00000000000E+00  0.00000000000E+00  0.48849472324E+03  0.48849472324E+03  0.00000000000E+00 0. -1.
         -1   -1    0    0    0  501 -0.00000000000E+00 -0.00000000000E+00 -0.92494400256E+03  0.92494400256E+03  0.00000000000E+00 0.  1.
         23    2    1    2    0    0 -0.51845336211E+03  0.12284474631E+03 -0.14286782332E+03  0.55901378789E+03  0.90556500237E+02 0.  0.
    5000000    2    1    2    0    0  0.51845336211E+03 -0.12284474631E+03 -0.29358145599E+03  0.85442493790E+03  0.59997265173E+03 0.  0.
         23    2    4    4    0    0  0.32901514164E+03  0.17414844525E+03  0.46356400931E+01  0.38402754554E+03  0.94217950335E+02 0.  0.
         23    2    4    4    0    0  0.18943822047E+03 -0.29699319155E+03 -0.29821709609E+03  0.47039739236E+03  0.90821116145E+02 0.  0.
          5    1    3    3  502    0 -0.96460350746E+01  0.19744840406E+01 -0.18442768663E+02  0.21428259282E+02  0.47000000000E+01 0. -1.
         -5    1    3    3    0  502 -0.50880732704E+03  0.12087026227E+03 -0.12442505466E+03  0.53758552861E+03  0.47000000000E+01 0.  1.
         11    1    5    5    0    0  0.20846237080E+03  0.57609769928E+02  0.56924957645E+01  0.21635121941E+03  0.00000000000E+00 0.  1.
        -11    1    5    5    0    0  0.12055277084E+03  0.11653867532E+03 -0.10568556714E+01  0.16767632613E+03  0.00000000000E+00 0. -1.
          1    1    6    6  503    0  0.24054971673E+02 -0.69984001158E+01 -0.44574986033E+02  0.51132657335E+02  0.00000000000E+00 0. -1.
         -1    1    6    6    0  503  0.16538324880E+03 -0.28999479144E+03 -0.25364211005E+03  0.41926473503E+03  0.00000000000E+00 0.  1.
<mgrwt>
<rscale>  0 0.63836964E+03</rscale>
<asrwt>0</asrwt>
<pdfrwt beam="1">  1        1 0.75153035E-01 0.63836964E+03</pdfrwt>
<pdfrwt beam="2">  1       -1 0.14229908E+00 0.63836964E+03</pdfrwt>
<totfact> 0.19113783E+01</totfact>
</mgrwt>
</event>
<event>
12    1  0.3203156E-008  0.1085543E+04  0.7818608E-02  0.9219398E-01
          2   -1    0    0  501    0  0.00000000000E+00  0.00000000000E+00  0.74973570330E+03  0.74973570330E+03  0.00000000000E+00 0. -1.
         -2   -1    0    0    0  501 -0.00000000000E+00 -0.00000000000E+00 -0.18596390338E+04  0.18596390338E+04  0.00000000000E+00 0.  1.
         23    2    1    2    0    0  0.85645122795E+03 -0.60170786756E+03 -0.90332200727E+03  0.13853574090E+04  0.87541065726E+02 0.  0.
    5000000    2    1    2    0    0 -0.85645122795E+03  0.60170786756E+03 -0.20658132325E+03  0.12240173281E+04  0.59998459362E+03 0.  0.
         23    2    4    4    0    0 -0.60371599597E+03  0.19106804450E+03  0.96417606360E+02  0.64706380000E+03  0.91734426668E+02 0.  0.
         23    2    4    4    0    0 -0.25273523198E+03  0.41063982306E+03 -0.30299892961E+03  0.57695352808E+03  0.92557336020E+02 0.  0.
          5    1    3    3  502    0  0.66586378069E+03 -0.48089624191E+03 -0.66204186307E+03  0.10549679087E+04  0.47000000000E+01 0. -1.
         -5    1    3    3    0  502  0.19058744726E+03 -0.12081162564E+03 -0.24128014419E+03  0.33038950033E+03  0.47000000000E+01 0.  1.
         11    1    5    5    0    0 -0.15982423217E+01  0.99880420422E+01 -0.28725158284E+01  0.10515070591E+02  0.00000000000E+00 0. -1.
        -11    1    5    5    0    0 -0.60211775365E+03  0.18108000245E+03  0.99290122188E+02  0.63654872941E+03  0.00000000000E+00 0.  1.
          3    1    6    6  503    0 -0.10518021253E+03  0.22188526055E+03 -0.10892766107E+03  0.26862833302E+03  0.00000000000E+00 0. -1.
         -3    1    6    6    0  503 -0.14755501945E+03  0.18875456251E+03 -0.19407126854E+03  0.30832519506E+03  0.00000000000E+00 0.  1.
<mgrwt>
<rscale>  0 0.10855431E+04</rscale>
<asrwt>0</asrwt>
<pdfrwt beam="1">  1        2 0.11534396E+00 0.10855431E+04</pdfrwt>
<pdfrwt beam="2">  1       -2 0.28609831E+00 0.10855431E+04</pdfrwt>
<totfact> 0.14392623E+00</totfact>
</mgrwt>
</event>
<event>
12    1  0.3203156E-008  0.5501838E+03  0.7818608E-02  0.1001451E+00
          1   -1    0    0  501    0  0.00000000000E+00  0.00000000000E+00  0.21055000219E+04  0.21055000219E+04  0.00000000000E+00 0. -1.
         -1   -1    0    0    0  501 -0.00000000000E+00 -0.00000000000E+00 -0.26385682343E+03  0.26385682343E+03  0.00000000000E+00 0.  1.
         23    2    1    2    0    0 -0.48028456249E+03  0.15125863834E+03  0.20141235957E+03  0.55169330010E+03  0.10122313050E+03 0.  0.
    5000000    2    1    2    0    0  0.48028456249E+03 -0.15125863834E+03  0.16402308389E+04  0.18176635453E+04  0.59999260174E+03 0.  0.
         23    2    4    4    0    0  0.77830671839E+02 -0.16474724750E+03  0.10815351284E+03  0.23086682223E+03  0.91668087291E+02 0.  0.
         23    2    4    4    0    0  0.40245389065E+03  0.13488609164E+02  0.15320773261E+04  0.15867967230E+04  0.92259581692E+02 0.  0.
          5    1    3    3  502    0 -0.18201035763E+03  0.73363473405E+02  0.28941290684E+02  0.19841788685E+03  0.47000000000E+01 0. -1.
         -5    1    3    3    0  502 -0.29827420486E+03  0.77895164935E+02  0.17247106889E+03  0.35327541325E+03  0.47000000000E+01 0.  1.
         13    1    5    5    0    0  0.18427835233E+02 -0.27172421336E+02 -0.15760198619E+02  0.36418531727E+02  0.00000000000E+00 0.  1.
        -13    1    5    5    0    0  0.59402836605E+02 -0.13757482617E+03  0.12391371146E+03  0.19444829050E+03  0.00000000000E+00 0. -1.
          3    1    6    6  503    0  0.30358318665E+03 -0.30000914177E+02  0.11409689582E+04  0.11810474036E+04  0.00000000000E+00 0. -1.
         -3    1    6    6    0  503  0.98870704007E+02  0.43489523341E+02  0.39110836790E+03  0.40574931940E+03  0.00000000000E+00 0.  1.
<mgrwt>
<rscale>  0 0.55018380E+03</rscale>
<asrwt>0</asrwt>
<pdfrwt beam="1">  1        1 0.32392307E+00 0.55018380E+03</pdfrwt>
<pdfrwt beam="2">  1       -1 0.40593359E-01 0.55018380E+03</pdfrwt>
<totfact> 0.16191969E+01</totfact>
</mgrwt>
</event>
<event>
12    1  0.3203156E-008  0.7706582E+03  0.7818608E-02  0.9603487E-01
          1   -1    0    0  501    0  0.00000000000E+00  0.00000000000E+00  0.60966654219E+03  0.60966654219E+03  0.00000000000E+00 0. -1.
         -1   -1    0    0    0  501 -0.00000000000E+00 -0.00000000000E+00 -0.12308279484E+04  0.12308279484E+04  0.00000000000E+00 0.  1.
         23    2    1    2    0    0  0.43676251145E+03 -0.57899217255E+03 -0.51310503882E+03  0.89311167663E+03  0.91532828961E+02 0.  0.
    5000000    2    1    2    0    0 -0.43676251145E+03  0.57899217255E+03 -0.10805636736E+03  0.94738281394E+03  0.59988714800E+03 0.  0.
         23    2    4    4    0    0 -0.44765129519E+03  0.55150953215E+03 -0.26229442252E+03  0.76265656751E+03  0.91061680943E+02 0.  0.
         23    2    4    4    0    0  0.10888783744E+02  0.27482640401E+02  0.15423805516E+03  0.18472624643E+03  0.97265344947E+02 0.  0.
          5    1    3    3  502    0  0.41657246554E+03 -0.55364374272E+03 -0.50976629451E+03  0.86019636010E+03  0.47000000000E+01 0. -1.
         -5    1    3    3    0  502  0.20190045908E+02 -0.25348429831E+02 -0.33387443075E+01  0.32915316529E+02  0.47000000000E+01 0. -1.
         13    1    5    5    0    0 -0.17204989759E+03  0.27941058984E+03 -0.10341426051E+03  0.34404353540E+03  0.00000000000E+00 0.  1.
        -13    1    5    5    0    0 -0.27560139761E+03  0.27209894231E+03 -0.15888016201E+03  0.41861303211E+03  0.00000000000E+00 0. -1.
          2    1    6    6  503    0 -0.13226707226E+02 -0.32788163012E+02  0.40454039555E+02  0.53726517978E+02  0.00000000000E+00 0. -1.
         -2    1    6    6    0  503  0.24115490970E+02  0.60270803413E+02  0.11378401560E+03  0.13099972845E+03  0.00000000000E+00 0.  1.
<mgrwt>
<rscale>  0 0.77065819E+03</rscale>
<asrwt>0</asrwt>
<pdfrwt beam="1">  1        1 0.93794853E-01 0.77065819E+03</pdfrwt>
<pdfrwt beam="2">  1       -1 0.18935814E+00 0.77065819E+03</pdfrwt>
<totfact> 0.61622113E+00</totfact>
</mgrwt>
</event>
<event>
12    1  0.3203156E-008  0.9683611E+03  0.7818608E-02  0.9343943E-01
          2   -1    0    0  501    0  0.00000000000E+00  0.00000000000E+00  0.86990610327E+03  0.86990610327E+03  0.00000000000E+00 0. -1.
         -2   -1    0    0    0  501 -0.00000000000E+00 -0.00000000000E+00 -0.12305974918E+04  0.12305974918E+04  0.00000000000E+00 0.  1.
         23    2    1    2    0    0  0.82574379679E+03 -0.39835122436E+03 -0.39908877381E+03  0.10040262396E+04  0.90886327383E+02 0.  0.
    5000000    2    1    2    0    0 -0.82574379679E+03  0.39835122436E+03  0.38397385310E+02  0.10964773555E+04  0.60020972661E+03 0.  0.
         23    2    4    4    0    0 -0.47304588793E+03 -0.15864259970E+01 -0.17826163533E+03  0.51359284779E+03  0.90694398053E+02 0.  0.
         23    2    4    4    0    0 -0.35269790887E+03  0.39993765036E+03  0.21665902064E+03  0.58288450766E+03  0.92017818679E+02 0.  0.
          5    1    3    3  502    0  0.32253181434E+03 -0.18113328147E+03 -0.20239409673E+03  0.42168886315E+03  0.47000000000E+01 0. -1.
         -5    1    3    3    0  502  0.50321198246E+03 -0.21721794289E+03 -0.19669467708E+03  0.58233737643E+03  0.47000000000E+01 0.  1.
         11    1    5    5    0    0 -0.77967886768E+02 -0.30298476532E+02 -0.48860151001E+02  0.96872614309E+02  0.00000000000E+00 0.  1.
        -11    1    5    5    0    0 -0.39507800116E+03  0.28712050535E+02 -0.12940148433E+03  0.41672023348E+03  0.00000000000E+00 0. -1.
          1    1    6    6  503    0 -0.74177887449E+02  0.13740394321E+03  0.39179018722E+02  0.16098819244E+03  0.00000000000E+00 0. -1.
         -1    1    6    6    0  503 -0.27852002142E+03  0.26253370715E+03  0.17748000192E+03  0.42189631522E+03  0.00000000000E+00 0.  1.
<mgrwt>
<rscale>  0 0.96836112E+03</rscale>
<asrwt>0</asrwt>
<pdfrwt beam="1">  1        2 0.13383171E+00 0.96836112E+03</pdfrwt>
<pdfrwt beam="2">  1       -2 0.18932269E+00 0.96836112E+03</pdfrwt>
<totfact> 0.47925463E+00</totfact>
</mgrwt>
</event>
<event>
12    1  0.3203156E-008  0.7765569E+03  0.7818608E-02  0.9594584E-01
         -2   -1    0    0    0  501 -0.00000000000E+00  0.00000000000E+00  0.27447533443E+03  0.27447533443E+03  0.00000000000E+00 0. -1.
          2   -1    0    0  501    0  0.00000000000E+00 -0.00000000000E+00 -0.23649493409E+04  0.23649493409E+04  0.00000000000E+00 0.  1.
         23    2    1    2    0    0 -0.77909463222E+02  0.68046245887E+03 -0.10473321114E+04  0.12547385006E+04  0.91460980358E+02 0.  0.
    5000000    2    1    2    0    0  0.77909463222E+02 -0.68046245887E+03 -0.10431418951E+04  0.13846861748E+04  0.60009311516E+03 0.  0.
         23    2    4    4    0    0 -0.13154177395E+01 -0.75269599209E+03 -0.79001781197E+03  0.10949349253E+04  0.90561363988E+02 0.  0.
         23    2    4    4    0    0  0.79224880961E+02  0.72233533222E+02 -0.25312408315E+03  0.28975124944E+03  0.91595414712E+02 0.  0.
          5    1    3    3  502    0 -0.60636894318E+02  0.38527329023E+03 -0.67079426860E+03  0.77595063110E+03  0.47000000000E+01 0.  1.
         -5    1    3    3    0  502 -0.17272568903E+02  0.29518916864E+03 -0.37653784276E+03  0.47878786947E+03  0.47000000000E+01 0. -1.
         11    1    5    5    0    0  0.27501925352E+02 -0.47801023800E+03 -0.54803919807E+03  0.72773422769E+03  0.00000000000E+00 0. -1.
        -11    1    5    5    0    0 -0.28817343091E+02 -0.27468575409E+03 -0.24197861390E+03  0.36720069764E+03  0.00000000000E+00 0.  1.
          1    1    6    6  503    0  0.55438568809E+02  0.27970562017E+02 -0.22228059616E+03  0.23079092417E+03  0.00000000000E+00 0. -1.
         -1    1    6    6    0  503  0.23786312152E+02  0.44262971206E+02 -0.30843486986E+02  0.58960325264E+02  0.00000000000E+00 0.  1.
<mgrwt>
<rscale>  0 0.77655695E+03</rscale>
<asrwt>0</asrwt>
<pdfrwt beam="1">  1        2 0.36383837E+00 0.77655695E+03</pdfrwt>
<pdfrwt beam="2">  1       -2 0.42226973E-01 0.77655695E+03</pdfrwt>
<totfact> 0.22967651E+01</totfact>
</mgrwt>
</event>
<event>
12    1  0.3255701E-008  0.7955811E+03  0.7818608E-02  0.9566435E-01
         -2   -1    0    0    0  501 -0.00000000000E+00  0.00000000000E+00  0.57959375793E+03  0.57959375793E+03  0.00000000000E+00 0.  1.
          2   -1    0    0  501    0  0.00000000000E+00 -0.00000000000E+00 -0.16805402823E+04  0.16805402823E+04  0.00000000000E+00 0. -1.
         23    2    1    2    0    0 -0.70960326913E+03  0.84981722967E+02  0.11334613492E+03  0.72864321927E+03  0.85527199719E+02 0.  0.
    5000000    2    1    2    0    0  0.70960326913E+03 -0.84981722967E+02 -0.12142926593E+04  0.15314908210E+04  0.60016562669E+03 0.  0.
         23    2    4    4    0    0  0.49695677030E+03 -0.28567784705E+03 -0.55135180970E+03  0.80120484033E+03  0.96760086053E+02 0.  0.
         23    2    4    4    0    0  0.21264649883E+03  0.20069612409E+03 -0.66294084960E+03  0.73028598064E+03  0.91266509536E+02 0.  0.
          5    1    3    3  502    0 -0.31382898285E+03  0.63012208262E+02  0.85001303435E+02  0.33121968609E+03  0.47000000000E+01 0. -1.
         -5    1    3    3    0  502 -0.39577428628E+03  0.21969514705E+02  0.28344831488E+02  0.39742353319E+03  0.47000000000E+01 0.  1.
         11    1    5    5    0    0  0.29701726509E+03 -0.22349457955E+03 -0.36342416353E+03  0.51985209963E+03  0.00000000000E+00 0. -1.
        -11    1    5    5    0    0  0.19993950522E+03 -0.62183267503E+02 -0.18792764617E+03  0.28135274070E+03  0.00000000000E+00 0.  1.
          1    1    6    6  503    0  0.11822110621E+03  0.93915790607E+02 -0.23587194584E+03  0.28005710223E+03  0.00000000000E+00 0. -1.
         -1    1    6    6    0  503  0.94425392619E+02  0.10678033348E+03 -0.42706890376E+03  0.45022887840E+03  0.00000000000E+00 0.  1.
<mgrwt>
<rscale>  0 0.79558113E+03</rscale>
<asrwt>0</asrwt>
<pdfrwt beam="1">  1        2 0.25854465E+00 0.79558113E+03</pdfrwt>
<pdfrwt beam="2">  1       -2 0.89168272E-01 0.79558113E+03</pdfrwt>
<totfact> 0.11092641E+01</totfact>
</mgrwt>
</event>
<event>
12    1  0.3203156E-008  0.1121244E+04  0.7818608E-02  0.9184730E-01
         -2   -1    0    0    0  501 -0.00000000000E+00  0.00000000000E+00  0.12015919148E+04  0.12015919148E+04  0.00000000000E+00 0.  1.
          2   -1    0    0  501    0  0.00000000000E+00 -0.00000000000E+00 -0.11886828901E+04  0.11886828901E+04  0.00000000000E+00 0. -1.
         23    2    1    2    0    0  0.54730039689E+03  0.94343720756E+03 -0.23864416413E+03  0.11203632247E+04  0.93011984015E+02 0.  0.
    5000000    2    1    2    0    0 -0.54730039689E+03 -0.94343720756E+03  0.25155318882E+03  0.12699115802E+04  0.59982074462E+03 0.  0.
         23    2    4    4    0    0  0.22673200210E+01 -0.31334551852E+03  0.27942864193E+03  0.42948019919E+03  0.90456181944E+02 0.  0.
         23    2    4    4    0    0 -0.54956771691E+03 -0.63009168904E+03 -0.27875453116E+02  0.84043138101E+03  0.80670026783E+02 0.  0.
          5    1    3    3  502    0  0.34441370235E+03  0.53406246886E+03 -0.17401734761E+03  0.65889881338E+03  0.47000000000E+01 0. -1.
         -5    1    3    3    0  502  0.20288669454E+03  0.40937473871E+03 -0.64626816514E+02  0.46146441133E+03  0.47000000000E+01 0.  1.
         13    1    5    5    0    0 -0.61804335073E+01 -0.37636650213E+02  0.81480659713E+02  0.89965621794E+02  0.00000000000E+00 0. -1.
        -13    1    5    5    0    0  0.84477535283E+01 -0.27570886831E+03  0.19794798222E+03  0.33951457740E+03  0.00000000000E+00 0.  1.
          1    1    6    6  503    0 -0.24176345014E+03 -0.27618357234E+03  0.27799902677E+02  0.36810292860E+03  0.00000000000E+00 0. -1.
         -1    1    6    6    0  503 -0.30780426677E+03 -0.35390811671E+03 -0.55675355793E+02  0.47232845241E+03  0.00000000000E+00 0.  1.
<mgrwt>
<rscale>  0 0.11212436E+04</rscale>
<asrwt>0</asrwt>
<pdfrwt beam="1">  1        2 0.18287429E+00 0.11212436E+04</pdfrwt>
<pdfrwt beam="2">  1       -2 0.18486029E+00 0.11212436E+04</pdfrwt>
<totfact> 0.31621515E+00</totfact>
</mgrwt>
</event>
<event>
12    1  0.3203156E-008  0.1046138E+04  0.7818608E-02  0.9259340E-01
         -1   -1    0    0    0  501 -0.00000000000E+00  0.00000000000E+00  0.61554489076E+03  0.61554489076E+03  0.00000000000E+00 0.  1.
          1   -1    0    0  501    0  0.00000000000E+00 -0.00000000000E+00 -0.26844465196E+04  0.26844465196E+04  0.00000000000E+00 0. -1.
         23    2    1    2    0    0  0.10128314245E+04 -0.19318674747E+03 -0.15760708058E+03  0.10469571268E+04  0.90169948854E+02 0.  0.
    5000000    2    1    2    0    0 -0.10128314245E+04  0.19318674747E+03 -0.19112945483E+04  0.22530342835E+04  0.59997334824E+03 0.  0.
         23    2    4    4    0    0 -0.11180190787E+03  0.53621051639E+02 -0.79125834008E+03  0.80608545531E+03  0.91154356640E+02 0.  0.
         23    2    4    4    0    0 -0.90102951666E+03  0.13956569583E+03 -0.11200362082E+04  0.14469488282E+04  0.88583466223E+02 0.  0.
          5    1    3    3  502    0  0.27065136927E+03 -0.41099617943E+02 -0.80736136545E+02  0.28545009376E+03  0.47000000000E+01 0. -1.
         -5    1    3    3    0  502  0.74218005526E+03 -0.15208712952E+03 -0.76870944036E+02  0.76150703308E+03  0.47000000000E+01 0.  1.
         13    1    5    5    0    0 -0.10298758549E+03  0.87901666674E+01 -0.44620234433E+03  0.45801773097E+03  0.00000000000E+00 0.  1.
        -13    1    5    5    0    0 -0.88143223838E+01  0.44830884972E+02 -0.34505599575E+03  0.34806772435E+03  0.00000000000E+00 0. -1.
          1    1    6    6  503    0 -0.16026367187E+03  0.21566555273E+02 -0.14860756334E+03  0.21962187667E+03  0.00000000000E+00 0. -1.
         -1    1    6    6    0  503 -0.74076584478E+03  0.11799914055E+03 -0.97142864487E+03  0.12273269516E+04  0.00000000000E+00 0.  1.
<mgrwt>
<rscale>  0 0.10461382E+04</rscale>
<asrwt>0</asrwt>
<pdfrwt beam="1">  1        1 0.41299178E+00 0.10461382E+04</pdfrwt>
<pdfrwt beam="2">  1       -1 0.94699211E-01 0.10461382E+04</pdfrwt>
<totfact> 0.11011217E+00</totfact>
</mgrwt>
</event>
<event>
12    1  0.3203156E-008  0.3084182E+03  0.7818608E-02  0.1081107E+00
         -2   -1    0    0    0  501 -0.00000000000E+00  0.00000000000E+00  0.99048053446E+02  0.99048053446E+02  0.00000000000E+00 0.  1.
          2   -1    0    0  501    0  0.00000000000E+00 -0.00000000000E+00 -0.20126499012E+04  0.20126499012E+04  0.00000000000E+00 0. -1.
         23    2    1    2    0    0 -0.14559673153E+03  0.17358468943E+03 -0.65965305974E+03  0.70327169479E+03  0.90104743696E+02 0.  0.
    5000000    2    1    2    0    0  0.14559673153E+03 -0.17358468943E+03 -0.12539487880E+04  0.14084262598E+04  0.59995575990E+03 0.  0.
         23    2    4    4    0    0  0.14532895223E+03 -0.23237671616E+03 -0.12641522903E+04  0.12968095169E+04  0.92273872586E+02 0.  0.
         23    2    4    4    0    0  0.26777929371E+00  0.58792026732E+02  0.10203502249E+02  0.11161674296E+03  0.94327152703E+02 0.  0.
          5    1    3    3  502    0 -0.59941787532E+02  0.86244241854E+02 -0.43396235149E+03  0.44651595678E+03  0.47000000000E+01 0. -1.
         -5    1    3    3    0  502 -0.85654943996E+02  0.87340447579E+02 -0.22569070825E+03  0.25675573802E+03  0.47000000000E+01 0.  1.
         11    1    5    5    0    0  0.56621836120E+02 -0.43390849222E+02 -0.19922342179E+03  0.21160994757E+03  0.00000000000E+00 0.  1.
        -11    1    5    5    0    0  0.88707116115E+02 -0.18898586694E+03 -0.10649288685E+04  0.10851995693E+04  0.00000000000E+00 0. -1.
          3    1    6    6  503    0 -0.22188283379E+00  0.83980926145E+02 -0.11356949443E+01  0.83988898023E+02  0.00000000000E+00 0. -1.
         -3    1    6    6    0  503  0.48966212750E+00 -0.25188899413E+02  0.11339197194E+02  0.27627844933E+02  0.00000000000E+00 0.  1.
<mgrwt>
<rscale>  0 0.30841817E+03</rscale>
<asrwt>0</asrwt>
<pdfrwt beam="1">  1        2 0.30963844E+00 0.30841817E+03</pdfrwt>
<pdfrwt beam="2">  1       -2 0.15238162E-01 0.30841817E+03</pdfrwt>
<totfact> 0.24310807E+02</totfact>
</mgrwt>
</event>
<event>
12    1  0.3203156E-008  0.5685707E+03  0.7818608E-02  0.9972847E-01
          2   -1    0    0  501    0  0.00000000000E+00  0.00000000000E+00  0.36463664843E+03  0.36463664843E+03  0.00000000000E+00 0. -1.
         -2   -1    0    0    0  501 -0.00000000000E+00 -0.00000000000E+00 -0.17476930774E+04  0.17476930774E+04  0.00000000000E+00 0.  1.
         23    2    1    2    0    0 -0.37705765313E+02 -0.47909239295E+03 -0.12364538102E+04  0.13297656492E+04  0.92235629093E+02 0.  0.
    5000000    2    1    2    0    0  0.37705765313E+02  0.47909239295E+03 -0.14660261876E+03  0.78256407665E+03  0.59996913296E+03 0.  0.
         23    2    4    4    0    0 -0.12526709353E+03 -0.13778847690E+02  0.11629238367E+03  0.19363491626E+03  0.89938094991E+02 0.  0.
         23    2    4    4    0    0  0.16297285884E+03  0.49287124064E+03 -0.26289500244E+03  0.58892916039E+03  0.90783043986E+02 0.  0.
          5    1    3    3  502    0  0.71919261109E+01 -0.16112987631E+03 -0.31449881193E+03  0.35347723201E+03  0.47000000000E+01 0. -1.
         -5    1    3    3    0  502 -0.44897691424E+02 -0.31796251664E+03 -0.92195499829E+03  0.97628841720E+03  0.47000000000E+01 0.  1.
         11    1    5    5    0    0 -0.54372159360E+02 -0.20972757225E+02  0.12250832444E+01  0.58289699674E+02  0.00000000000E+00 0.  1.
        -11    1    5    5    0    0 -0.70894934166E+02  0.71939095356E+01  0.11506730043E+03  0.13534521659E+03  0.00000000000E+00 0. -1.
          4    1    6    6  503    0  0.14018446456E+03  0.30294820018E+03 -0.14282139574E+03  0.36308022141E+03  0.00000000000E+00 0. -1.
         -4    1    6    6    0  503  0.22788394280E+02  0.18992304047E+03 -0.12007360670E+03  0.22584893898E+03  0.00000000000E+00 0.  1.
<mgrwt>
<rscale>  0 0.56857065E+03</rscale>
<asrwt>0</asrwt>
<pdfrwt beam="1">  1        2 0.56097945E-01 0.56857065E+03</pdfrwt>
<pdfrwt beam="2">  1       -2 0.26887586E+00 0.56857065E+03</pdfrwt>
<totfact> 0.46097315E+00</totfact>
</mgrwt>
</event>
<event>
12    1  0.3203156E-008  0.1446234E+04  0.7818608E-02  0.8921015E-01
          2   -1    0    0  501    0  0.00000000000E+00  0.00000000000E+00  0.17704526167E+04  0.17704526167E+04  0.00000000000E+00 0.  1.
         -2   -1    0    0    0  501 -0.00000000000E+00 -0.00000000000E+00 -0.21151290324E+04  0.21151290324E+04  0.00000000000E+00 0. -1.
         23    2    1    2    0    0  0.11748021519E+04  0.77205714668E+03  0.10961952735E+04  0.17850071739E+04  0.91510652026E+02 0.  0.
    5000000    2    1    2    0    0 -0.11748021519E+04 -0.77205714668E+03 -0.14408716891E+04  0.21005744752E+04  0.60005797026E+03 0.  0.
         23    2    4    4    0    0 -0.11003554720E+04 -0.53245125409E+03 -0.98482502928E+03  0.15723486640E+04  0.90074857930E+02 0.  0.
         23    2    4    4    0    0 -0.74446679885E+02 -0.23960589259E+03 -0.45604665986E+03  0.52822581128E+03  0.89948095168E+02 0.  0.
          5    1    3    3  502    0  0.55339813035E+03  0.31851629382E+03  0.46547290801E+03  0.79018304094E+03  0.47000000000E+01 0. -1.
         -5    1    3    3    0  502  0.62140402154E+03  0.45354085287E+03  0.63072236547E+03  0.99482413295E+03  0.47000000000E+01 0.  1.
         11    1    5    5    0    0 -0.40633991811E+03 -0.23888328773E+03 -0.40703168690E+03  0.62277776803E+03  0.00000000000E+00 0.  1.
        -11    1    5    5    0    0 -0.69401555390E+03 -0.29356796636E+03 -0.57779334238E+03  0.94957089594E+03  0.00000000000E+00 0. -1.
          3    1    6    6  503    0 -0.14017288778E+02 -0.15553249698E+03 -0.21360858454E+03  0.26460436389E+03  0.00000000000E+00 0. -1.
         -3    1    6    6    0  503 -0.60429391106E+02 -0.84073395613E+02 -0.24243807532E+03  0.26362144739E+03  0.00000000000E+00 0.  1.
<mgrwt>
<rscale>  0 0.14462345E+04</rscale>
<asrwt>0</asrwt>
<pdfrwt beam="1">  1        2 0.27237733E+00 0.14462345E+04</pdfrwt>
<pdfrwt beam="2">  1       -2 0.32540447E+00 0.14462345E+04</pdfrwt>
<totfact> 0.18788183E-01</totfact>
</mgrwt>
</event>
<event>
12    1  0.3203156E-008  0.1081834E+04  0.7818608E-02  0.9223081E-01
          2   -1    0    0  501    0  0.00000000000E+00  0.00000000000E+00  0.25967440246E+04  0.25967440246E+04  0.00000000000E+00 0.  1.
         -2   -1    0    0    0  501 -0.00000000000E+00 -0.00000000000E+00 -0.81969486477E+03  0.81969486477E+03  0.00000000000E+00 0. -1.
         23    2    1    2    0    0  0.68443074282E+03 -0.74334402455E+03 -0.27541197115E+03  0.10513546854E+04  0.92136530007E+02 0.  0.
    5000000    2    1    2    0    0 -0.68443074282E+03  0.74334402455E+03  0.20524611310E+04  0.23650842039E+04  0.60001734724E+03 0.  0.
         23    2    4    4    0    0 -0.51878070182E+03  0.17722889869E+03  0.75687732425E+03  0.93903099565E+03  0.91500971114E+02 0.  0.
         23    2    4    4    0    0 -0.16565004100E+03  0.56611512586E+03  0.12955838067E+04  0.14260532083E+04  0.84640893253E+02 0.  0.
          5    1    3    3  502    0  0.34705964043E+03 -0.31138909578E+03 -0.13772818822E+03  0.48621467154E+03  0.47000000000E+01 0. -1.
         -5    1    3    3    0  502  0.33737110238E+03 -0.43195492877E+03 -0.13768378293E+03  0.56514001389E+03  0.47000000000E+01 0.  1.
         13    1    5    5    0    0 -0.28136920216E+03  0.56309151443E+02  0.43610275365E+03  0.52203923243E+03  0.00000000000E+00 0.  1.
        -13    1    5    5    0    0 -0.23741149966E+03  0.12091974725E+03  0.32077457061E+03  0.41699176322E+03  0.00000000000E+00 0. -1.
          1    1    6    6  503    0 -0.17500156022E+03  0.51524750339E+03  0.11862793299E+04  0.13051299493E+04  0.00000000000E+00 0. -1.
         -1    1    6    6    0  503  0.93515192148E+01  0.50867622476E+02  0.10930447678E+03  0.12092325902E+03  0.00000000000E+00 0.  1.
<mgrwt>
<rscale>  0 0.10818337E+04</rscale>
<asrwt>0</asrwt>
<pdfrwt beam="1">  1        2 0.39949908E+00 0.10818337E+04</pdfrwt>
<pdfrwt beam="2">  1       -2 0.12610690E+00 0.10818337E+04</pdfrwt>
<totfact> 0.14287131E+00</totfact>
</mgrwt>
</event>
<event>
12    1  0.3203156E-008  0.7153039E+03  0.7818608E-02  0.9691413E-01
         -2   -1    0    0    0  501 -0.00000000000E+00  0.00000000000E+00  0.33710582923E+03  0.33710582923E+03  0.00000000000E+00 0.  1.
          2   -1    0    0  501    0  0.00000000000E+00 -0.00000000000E+00 -0.19811571663E+04  0.19811571663E+04  0.00000000000E+00 0. -1.
         23    2    1    2    0    0 -0.43443032141E+03  0.52774863565E+03 -0.47541228674E+03  0.83737604623E+03  0.89070050117E+02 0.  0.
    5000000    2    1    2    0    0  0.43443032141E+03 -0.52774863565E+03 -0.11686390503E+04  0.14808869493E+04  0.60005049790E+03 0.  0.
         23    2    4    4    0    0  0.42827842703E+03 -0.46561213904E+03 -0.52338761149E+03  0.82621710300E+03  0.92103389510E+02 0.  0.
         23    2    4    4    0    0  0.61518943812E+01 -0.62136496613E+02 -0.64525143881E+03  0.65466984626E+03  0.91347678129E+02 0.  0.
          5    1    3    3  502    0 -0.14495942623E+03  0.13088961236E+03 -0.10243911964E+03  0.22059281291E+03  0.47000000000E+01 0. -1.
         -5    1    3    3    0  502 -0.28947089517E+03  0.39685902330E+03 -0.37297316710E+03  0.61678323332E+03  0.47000000000E+01 0.  1.
         11    1    5    5    0    0  0.41151783359E+03 -0.42282587995E+03 -0.46117182312E+03  0.74887121894E+03  0.00000000000E+00 0. -1.
        -11    1    5    5    0    0  0.16760593434E+02 -0.42786259087E+02 -0.62215788363E+02  0.77345884057E+02  0.00000000000E+00 0.  1.
          2    1    6    6  503    0  0.47056975263E+02 -0.28031842247E+02 -0.39771847339E+03  0.40147244884E+03  0.00000000000E+00 0. -1.
         -2    1    6    6    0  503 -0.40905080881E+02 -0.34104654366E+02 -0.24753296542E+03  0.25319739742E+03  0.00000000000E+00 0.  1.
<mgrwt>
<rscale>  0 0.71530390E+03</rscale>
<asrwt>0</asrwt>
<pdfrwt beam="1">  1        2 0.30479341E+00 0.71530390E+03</pdfrwt>
<pdfrwt beam="2">  1       -2 0.51862436E-01 0.71530390E+03</pdfrwt>
<totfact> 0.24938168E+01</totfact>
</mgrwt>
</event>
<event>
12    1  0.3203156E-008  0.8408244E+03  0.7818608E-02  0.9502736E-01
          2   -1    0    0  501    0  0.00000000000E+00  0.00000000000E+00  0.23449543412E+04  0.23449543412E+04  0.00000000000E+00 0. -1.
         -2   -1    0    0    0  501 -0.00000000000E+00 -0.00000000000E+00 -0.37160649989E+03  0.37160649989E+03  0.00000000000E+00 0.  1.
         23    2    1    2    0    0 -0.29055705588E+03  0.76337060655E+03  0.11341145804E+04  0.14006425360E+04  0.91790776087E+02 0.  0.
    5000000    2    1    2    0    0  0.29055705588E+03 -0.76337060655E+03  0.83923326093E+03  0.13159183051E+04  0.60014201132E+03 0.  0.
         23    2    4    4    0    0  0.12657275825E+03 -0.59918096552E+03  0.86562373566E+03  0.10646614293E+04  0.95713189692E+02 0.  0.
         23    2    4    4    0    0  0.16398429763E+03 -0.16418964103E+03 -0.26390474730E+02  0.25125687582E+03  0.92652427897E+02 0.  0.
          5    1    3    3  502    0 -0.22446422113E+03  0.49174796474E+03  0.79034951954E+03  0.95753574368E+03  0.47000000000E+01 0. -1.
         -5    1    3    3    0  502 -0.66092834754E+02  0.27162264182E+03  0.34376506086E+03  0.44310679234E+03  0.47000000000E+01 0.  1.
         13    1    5    5    0    0  0.66316486589E+02 -0.44510208204E+03  0.57398891116E+03  0.72936754107E+03  0.00000000000E+00 0. -1.
        -13    1    5    5    0    0  0.60256271664E+02 -0.15407888348E+03  0.29163482450E+03  0.33529388821E+03  0.00000000000E+00 0.  1.
          1    1    6    6  503    0  0.17358277336E+03 -0.15434935870E+03 -0.35194817386E+02  0.23493271145E+03  0.00000000000E+00 0. -1.
         -1    1    6    6    0  503 -0.95984757259E+01 -0.98402823344E+01  0.88043426557E+01  0.16324164367E+02  0.00000000000E+00 0.  1.
<mgrwt>
<rscale>  0 0.84082441E+03</rscale>
<asrwt>0</asrwt>
<pdfrwt beam="1">  1        2 0.36076220E+00 0.84082441E+03</pdfrwt>
<pdfrwt beam="2">  1       -2 0.57170232E-01 0.84082441E+03</pdfrwt>
<totfact> 0.12620267E+01</totfact>
</mgrwt>
</event>
<event>
12    1  0.3203156E-008  0.7121884E+03  0.7818608E-02  0.9696613E-01
          4   -1    0    0  501    0  0.00000000000E+00  0.00000000000E+00  0.15551810982E+04  0.15551810982E+04  0.00000000000E+00 0. -1.
         -4   -1    0    0    0  501 -0.00000000000E+00 -0.00000000000E+00 -0.36634028182E+03  0.36634028182E+03  0.00000000000E+00 0.  1.
         23    2    1    2    0    0  0.52396251965E+03 -0.29493922840E+03  0.74899617927E+03  0.96489309016E+03  0.92182039674E+02 0.  0.
    5000000    2    1    2    0    0 -0.52396251965E+03  0.29493922840E+03  0.43984463715E+03  0.95662828989E+03  0.60012374536E+03 0.  0.
         23    2    4    4    0    0 -0.36367144701E+03 -0.97482418749E+02  0.32946117877E+03  0.50887727327E+03  0.93014340807E+02 0.  0.
         23    2    4    4    0    0 -0.16029107264E+03  0.39242164715E+03  0.11038345838E+03  0.44775101663E+03  0.92781937290E+02 0.  0.
          5    1    3    3  502    0  0.15055582276E+03 -0.11163467206E+03  0.17881519606E+03  0.25908747580E+03  0.47000000000E+01 0. -1.
         -5    1    3    3    0  502  0.37340669688E+03 -0.18330455634E+03  0.57018098320E+03  0.70580561436E+03  0.47000000000E+01 0.  1.
         11    1    5    5    0    0 -0.19661965697E+03 -0.98481635644E+02  0.17025414936E+03  0.27810860727E+03  0.00000000000E+00 0.  1.
        -11    1    5    5    0    0 -0.16705179004E+03  0.99921689514E+00  0.15920702942E+03  0.23076866599E+03  0.00000000000E+00 0. -1.
          3    1    6    6  503    0 -0.17229841654E+03  0.35448808335E+03  0.10030269789E+03  0.40670527017E+03  0.00000000000E+00 0. -1.
         -3    1    6    6    0  503  0.12007343903E+02  0.37933563801E+02  0.10080760489E+02  0.41045746458E+02  0.00000000000E+00 0.  1.
<mgrwt>
<rscale>  0 0.71218838E+03</rscale>
<asrwt>0</asrwt>
<pdfrwt beam="1">  1        4 0.23925863E+00 0.71218838E+03</pdfrwt>
<pdfrwt beam="2">  1       -4 0.56360044E-01 0.71218838E+03</pdfrwt>
<totfact> 0.43952315E-01</totfact>
</mgrwt>
</event>
<event>
12    1  0.3203156E-008  0.9943666E+03  0.7818608E-02  0.9314745E-01
         -1   -1    0    0    0  501 -0.00000000000E+00  0.00000000000E+00  0.11363821111E+04  0.11363821111E+04  0.00000000000E+00 0.  1.
          1   -1    0    0  501    0  0.00000000000E+00 -0.00000000000E+00 -0.88348032769E+03  0.88348032769E+03  0.00000000000E+00 0. -1.
         23    2    1    2    0    0 -0.82842072864E+03  0.36711841972E+03  0.54119175948E+02  0.91503292410E+03  0.11532358497E+03 0.  0.
    5000000    2    1    2    0    0  0.82842072864E+03 -0.36711841972E+03  0.19878260742E+03  0.11048295146E+04  0.60006407464E+03 0.  0.
         23    2    4    4    0    0 -0.49447621232E+02 -0.14231963302E+03  0.24849678865E+02  0.17750654274E+03  0.90504811950E+02 0.  0.
         23    2    4    4    0    0  0.87786834987E+03 -0.22479878669E+03  0.17393292856E+03  0.92732297190E+03  0.92129780103E+02 0.  0.
          5    1    3    3  502    0 -0.76643663796E+03  0.35176448400E+03  0.77490305107E+02  0.84687083407E+03  0.47000000000E+01 0. -1.
         -5    1    3    3    0  502 -0.61984090681E+02  0.15353935710E+02 -0.23371129159E+02  0.68162090032E+02  0.47000000000E+01 0.  1.
         13    1    5    5    0    0  0.22648935299E+02 -0.11970583216E+02  0.11084075113E+02  0.27912825973E+02  0.00000000000E+00 0. -1.
        -13    1    5    5    0    0 -0.72096556530E+02 -0.13034904981E+03  0.13765603752E+02  0.14959371676E+03  0.00000000000E+00 0.  1.
          1    1    6    6  503    0  0.58445349438E+03 -0.16586114971E+03  0.15739952873E+03  0.62759096529E+03  0.00000000000E+00 0. -1.
         -1    1    6    6    0  503  0.29341485549E+03 -0.58937636983E+02  0.16533399826E+02  0.29973200661E+03  0.00000000000E+00 0.  1.
<mgrwt>
<rscale>  0 0.99436663E+03</rscale>
<asrwt>0</asrwt>
<pdfrwt beam="1">  1        1 0.13592005E+00 0.99436663E+03</pdfrwt>
<pdfrwt beam="2">  1       -1 0.17482802E+00 0.99436663E+03</pdfrwt>
<totfact> 0.42746950E+00</totfact>
</mgrwt>
</event>
<event>
12    1  0.3203156E-008  0.8840022E+03  0.7818608E-02  0.9445803E-01
          1   -1    0    0  501    0  0.00000000000E+00  0.00000000000E+00  0.10082428516E+04  0.10082428516E+04  0.00000000000E+00 0. -1.
         -1   -1    0    0    0  501 -0.00000000000E+00 -0.00000000000E+00 -0.91896584227E+03  0.91896584227E+03  0.00000000000E+00 0.  1.
         23    2    1    2    0    0 -0.68910096991E+03  0.46388070935E+03 -0.20467047504E+03  0.86114577276E+03  0.98166080391E+02 0.  0.
    5000000    2    1    2    0    0  0.68910096991E+03 -0.46388070935E+03  0.29394748441E+03  0.10660629211E+04  0.60003297327E+03 0.  0.
         23    2    4    4    0    0  0.21712970760E+03  0.47086095804E+02 -0.10171244241E+03  0.26055860689E+03  0.90459694575E+02 0.  0.
         23    2    4    4    0    0  0.47197126231E+03 -0.51096680515E+03  0.39565992682E+03  0.80550431426E+03  0.91904701616E+02 0.  0.
          5    1    3    3  502    0 -0.29732785364E+03  0.25477128444E+03 -0.77370492618E+02  0.39914977521E+03  0.47000000000E+01 0. -1.
         -5    1    3    3    0  502 -0.39177311627E+03  0.20910942491E+03 -0.12729998242E+03  0.46199599754E+03  0.47000000000E+01 0.  1.
         13    1    5    5    0    0  0.48365986141E+02 -0.16384805931E+02 -0.53414105225E+02  0.73897206428E+02  0.00000000000E+00 0. -1.
        -13    1    5    5    0    0  0.16876372146E+03  0.63470901735E+02 -0.48298337187E+02  0.18666140046E+03  0.00000000000E+00 0.  1.
          2    1    6    6  503    0  0.27380757202E+03 -0.35746984096E+03  0.27119262285E+03  0.52564314166E+03  0.00000000000E+00 0.  1.
         -2    1    6    6    0  503  0.19816369030E+03 -0.15349696419E+03  0.12446730397E+03  0.27986117260E+03  0.00000000000E+00 0. -1.
<mgrwt>
<rscale>  0 0.88400217E+03</rscale>
<asrwt>0</asrwt>
<pdfrwt beam="1">  1        1 0.15511429E+00 0.88400217E+03</pdfrwt>
<pdfrwt beam="2">  1       -1 0.14137936E+00 0.88400217E+03</pdfrwt>
<totfact> 0.61896011E+00</totfact>
</mgrwt>
</event>
<event>
12    1  0.3203156E-008  0.9434121E+03  0.7818608E-02  0.9372884E-01
         -2   -1    0    0    0  501 -0.00000000000E+00  0.00000000000E+00  0.41668814451E+03  0.41668814451E+03  0.00000000000E+00 0.  1.
          2   -1    0    0  501    0  0.00000000000E+00 -0.00000000000E+00 -0.23649415489E+04  0.23649415489E+04  0.00000000000E+00 0. -1.
         23    2    1    2    0    0  0.22825671011E+03  0.82408925129E+03 -0.12782962241E+04  0.15406259807E+04  0.90900803012E+02 0.  0.
    5000000    2    1    2    0    0 -0.22825671011E+03 -0.82408925129E+03 -0.66995718030E+03  0.12410037127E+04  0.60001947621E+03 0.  0.
         23    2    4    4    0    0  0.15749796749E+03 -0.79612049357E+02 -0.16595580510E+03  0.25847976141E+03  0.90148597566E+02 0.  0.
         23    2    4    4    0    0 -0.38575467760E+03 -0.74447720193E+03 -0.50400137520E+03  0.98252395134E+03  0.91010731679E+02 0.  0.
          5    1    3    3  502    0  0.14837666177E+03  0.41911544384E+03 -0.72140503109E+03  0.84742002449E+03  0.47000000000E+01 0. -1.
         -5    1    3    3    0  502  0.79880048335E+02  0.40497380745E+03 -0.55689119302E+03  0.69320595620E+03  0.47000000000E+01 0.  1.
         11    1    5    5    0    0  0.21014999854E+02 -0.38518390233E+02 -0.82146446893E+02  0.93130743271E+02  0.00000000000E+00 0.  1.
        -11    1    5    5    0    0  0.13648296764E+03 -0.41093659125E+02 -0.83809358211E+02  0.16534901814E+03  0.00000000000E+00 0. -1.
          2    1    6    6  503    0 -0.75090516630E+02 -0.23033629999E+03 -0.13076412549E+03  0.27530465542E+03  0.00000000000E+00 0. -1.
         -2    1    6    6    0  503 -0.31066416097E+03 -0.51414090194E+03 -0.37323724971E+03  0.70721929592E+03  0.00000000000E+00 0.  1.
<mgrwt>
<rscale>  0 0.94341208E+03</rscale>
<asrwt>0</asrwt>
<pdfrwt beam="1">  1        2 0.36383716E+00 0.94341208E+03</pdfrwt>
<pdfrwt beam="2">  1       -2 0.64105869E-01 0.94341208E+03</pdfrwt>
<totfact> 0.95154961E+00</totfact>
</mgrwt>
</event>
<event>
12    1  0.3203156E-008  0.1197574E+04  0.7818608E-02  0.9114983E-01
         -2   -1    0    0    0  501 -0.00000000000E+00  0.00000000000E+00  0.13615232834E+04  0.13615232834E+04  0.00000000000E+00 0.  1.
          2   -1    0    0  501    0  0.00000000000E+00 -0.00000000000E+00 -0.11684671784E+04  0.11684671784E+04  0.00000000000E+00 0. -1.
         23    2    1    2    0    0 -0.10381759067E+04  0.56513184216E+03  0.20750871116E+03  0.12035862148E+04  0.91524308160E+02 0.  0.
    5000000    2    1    2    0    0  0.10381759067E+04 -0.56513184216E+03 -0.14452606150E+02  0.13264042470E+04  0.60162790529E+03 0.  0.
         23    2    4    4    0    0  0.94762068468E+03 -0.51650786245E+03 -0.19355365942E+03  0.11009078111E+04  0.98841567247E+02 0.  0.
         23    2    4    4    0    0  0.90555221996E+02 -0.48623979705E+02  0.17910105327E+03  0.22549643592E+03  0.90592028887E+02 0.  0.
          5    1    3    3  502    0 -0.79667819944E+03  0.44033084069E+03  0.12106624984E+03  0.91829544787E+03  0.47000000000E+01 0. -1.
         -5    1    3    3    0  502 -0.24149770723E+03  0.12480100147E+03  0.86442461316E+02  0.28529076691E+03  0.47000000000E+01 0.  1.
         13    1    5    5    0    0  0.48505348713E+03 -0.23821267876E+03 -0.14127326044E+03  0.55855196698E+03  0.00000000000E+00 0.  1.
        -13    1    5    5    0    0  0.46256719755E+03 -0.27829518369E+03 -0.52280398978E+02  0.54235584411E+03  0.00000000000E+00 0. -1.
          1    1    6    6  503    0  0.69094804880E+02 -0.72848681365E+02  0.10848492123E+03  0.14781745693E+03  0.00000000000E+00 0. -1.
         -1    1    6    6    0  503  0.21460417116E+02  0.24224701661E+02  0.70616132041E+02  0.77678978995E+02  0.00000000000E+00 0.  1.
<mgrwt>
<rscale>  0 0.11975740E+04</rscale>
<asrwt>0</asrwt>
<pdfrwt beam="1">  1        2 0.17976418E+00 0.11975740E+04</pdfrwt>
<pdfrwt beam="2">  1       -2 0.20946512E+00 0.11975740E+04</pdfrwt>
<totfact> 0.22187804E+00</totfact>
</mgrwt>
</event>
<event>
12    1  0.3203156E-008  0.5369781E+03  0.7818608E-02  0.1004554E+00
          2   -1    0    0  501    0  0.00000000000E+00  0.00000000000E+00  0.19204592587E+04  0.19204592587E+04  0.00000000000E+00 0. -1.
         -2   -1    0    0    0  501 -0.00000000000E+00 -0.00000000000E+00 -0.19409497317E+03  0.19409497317E+03  0.00000000000E+00 0.  1.
         23    2    1    2    0    0 -0.36147809320E+03 -0.11949089336E+03  0.10988600033E+04  0.11665756727E+04  0.91983736730E+02 0.  0.
    5000000    2    1    2    0    0  0.36147809320E+03  0.11949089336E+03  0.62750428225E+03  0.94797855919E+03  0.59996436477E+03 0.  0.
         23    2    4    4    0    0  0.35291673599E+03  0.31320338105E+03  0.33175623639E+03  0.58426722045E+03  0.93055919028E+02 0.  0.
         23    2    4    4    0    0  0.85613572055E+01 -0.19371248769E+03  0.29574804586E+03  0.36371133875E+03  0.84977682823E+02 0.  0.
          5    1    3    3  502    0 -0.23592826022E+03 -0.66746063766E+02  0.82520784061E+03  0.86087586283E+03  0.47000000000E+01 0. -1.
         -5    1    3    3    0  502 -0.12554983298E+03 -0.52744829595E+02  0.27365216270E+03  0.30569980988E+03  0.47000000000E+01 0.  1.
         11    1    5    5    0    0  0.15905321864E+03  0.20283807391E+03  0.17179674298E+03  0.30976657580E+03  0.00000000000E+00 0. -1.
        -11    1    5    5    0    0  0.19386351735E+03  0.11036530714E+03  0.15995949341E+03  0.27450064464E+03  0.00000000000E+00 0.  1.
          3    1    6    6  503    0 -0.27136106965E+02 -0.18574091253E+02  0.49693084800E+02  0.59588319694E+02  0.00000000000E+00 0. -1.
         -3    1    6    6    0  503  0.35697464170E+02 -0.17513839643E+03  0.24605496106E+03  0.30412301905E+03  0.00000000000E+00 0.  1.
<mgrwt>
<rscale>  0 0.53697815E+03</rscale>
<asrwt>0</asrwt>
<pdfrwt beam="1">  1        2 0.29545526E+00 0.53697815E+03</pdfrwt>
<pdfrwt beam="2">  1       -2 0.29860766E-01 0.53697815E+03</pdfrwt>
<totfact> 0.80640053E+01</totfact>
</mgrwt>
</event>
<event>
12    1  0.3203156E-008  0.3290766E+03  0.7818608E-02  0.1071546E+00
          1   -1    0    0  501    0  0.00000000000E+00  0.00000000000E+00  0.55116601679E+03  0.55116601679E+03  0.00000000000E+00 0. -1.
         -1   -1    0    0    0  501 -0.00000000000E+00 -0.00000000000E+00 -0.42284459257E+03  0.42284459257E+03  0.00000000000E+00 0.  1.
         23    2    1    2    0    0  0.19959470842E+03  0.14859444569E+03 -0.10354392125E+03  0.28422971207E+03  0.90259784366E+02 0.  0.
    5000000    2    1    2    0    0 -0.19959470842E+03 -0.14859444569E+03  0.23186534546E+03  0.68978089729E+03  0.60009815108E+03 0.  0.
         23    2    4    4    0    0  0.12293744673E+02 -0.17233257298E+03  0.37263525816E+03  0.42061022656E+03  0.90588493742E+02 0.  0.
         23    2    4    4    0    0 -0.21188845310E+03  0.23738127286E+02 -0.14076991270E+03  0.26917067073E+03  0.84714027289E+02 0.  0.
          5    1    3    3  502    0  0.57322523090E+02  0.87472531971E+02 -0.14894569549E+02  0.10574144743E+03  0.47000000000E+01 0. -1.
         -5    1    3    3    0  502  0.14227218533E+03  0.61121913721E+02 -0.88649351698E+02  0.17848826464E+03  0.47000000000E+01 0.  1.
         11    1    5    5    0    0  0.18756722896E+02 -0.79440385282E+02  0.83153708821E+02  0.11652093700E+03  0.00000000000E+00 0. -1.
        -11    1    5    5    0    0 -0.64629782231E+01 -0.92892187696E+02  0.28948154934E+03  0.30408928957E+03  0.00000000000E+00 0.  1.
          3    1    6    6  503    0 -0.10257452733E+03 -0.22670563358E+02 -0.36730436512E+02  0.11128617644E+03  0.00000000000E+00 0.  1.
         -3    1    6    6    0  503 -0.10931392576E+03  0.46408690644E+02 -0.10403947618E+03  0.15788449429E+03  0.00000000000E+00 0. -1.
<mgrwt>
<rscale>  0 0.32907655E+03</rscale>
<asrwt>0</asrwt>
<pdfrwt beam="1">  1        1 0.84794772E-01 0.32907655E+03</pdfrwt>
<pdfrwt beam="2">  1       -1 0.65053014E-01 0.32907655E+03</pdfrwt>
<totfact> 0.98448820E+01</totfact>
</mgrwt>
</event>
<event>
12    1  0.3203156E-008  0.8310220E+03  0.7818608E-02  0.9516169E-01
         -2   -1    0    0    0  501 -0.00000000000E+00  0.00000000000E+00  0.57355159115E+03  0.57355159115E+03  0.00000000000E+00 0.  1.
          2   -1    0    0  501    0  0.00000000000E+00 -0.00000000000E+00 -0.24497455611E+04  0.24497455611E+04  0.00000000000E+00 0. -1.
         23    2    1    2    0    0  0.53450037117E+03 -0.56007175710E+03 -0.18891243513E+04  0.20437108240E+04  0.92693567998E+02 0.  0.
    5000000    2    1    2    0    0 -0.53450037117E+03  0.56007175710E+03  0.12930381431E+02  0.97958632819E+03  0.60004263159E+03 0.  0.
         23    2    4    4    0    0 -0.22161645602E+03 -0.53285115054E+01  0.18527559832E+03  0.30489461155E+03  0.97423971421E+02 0.  0.
         23    2    4    4    0    0 -0.31288391515E+03  0.56540026861E+03 -0.17234521689E+03  0.67469171663E+03  0.89063070968E+02 0.  0.
          5    1    3    3  502    0  0.27342537363E+03 -0.22114457145E+03 -0.83058490491E+03  0.90197546014E+03  0.47000000000E+01 0. -1.
         -5    1    3    3    0  502  0.26107499754E+03 -0.33892718565E+03 -0.10585394464E+04  0.11417353639E+04  0.47000000000E+01 0.  1.
         13    1    5    5    0    0 -0.15229697186E+03 -0.41700468884E+02  0.15409165422E+03  0.22062985891E+03  0.00000000000E+00 0.  1.
        -13    1    5    5    0    0 -0.69319484166E+02  0.36371957379E+02  0.31183944095E+02  0.84264752643E+02  0.00000000000E+00 0. -1.
          4    1    6    6  503    0 -0.18896702424E+03  0.35384298860E+03 -0.62294508495E+02  0.40594827579E+03  0.00000000000E+00 0. -1.
         -4    1    6    6    0  503 -0.12391689091E+03  0.21155728000E+03 -0.11005070839E+03  0.26874344084E+03  0.00000000000E+00 0.  1.
<mgrwt>
<rscale>  0 0.83102203E+03</rscale>
<asrwt>0</asrwt>
<pdfrwt beam="1">  1        2 0.37688393E+00 0.83102203E+03</pdfrwt>
<pdfrwt beam="2">  1       -2 0.88238707E-01 0.83102203E+03</pdfrwt>
<totfact> 0.42568767E+00</totfact>
</mgrwt>
</event>
<event>
12    1  0.3203156E-008  0.8766056E+03  0.7818608E-02  0.9455307E-01
         -1   -1    0    0    0  501 -0.00000000000E+00  0.00000000000E+00  0.55295433758E+03  0.55295433758E+03  0.00000000000E+00 0.  1.
          1   -1    0    0  501    0  0.00000000000E+00 -0.00000000000E+00 -0.15896976186E+04  0.15896976186E+04  0.00000000000E+00 0. -1.
         23    2    1    2    0    0 -0.68577938469E+03 -0.48163860204E+03 -0.43361145830E+03  0.94850596030E+03  0.96827436864E+02 0.  0.
    5000000    2    1    2    0    0  0.68577938469E+03  0.48163860204E+03 -0.60313182269E+03  0.11941459958E+04  0.59995629540E+03 0.  0.
         23    2    4    4    0    0  0.57486140613E+02 -0.18408345875E+02 -0.32117708193E+03  0.33908053607E+03  0.90428803064E+02 0.  0.
         23    2    4    4    0    0  0.62829324408E+03  0.50004694791E+03 -0.28195474076E+03  0.85506545976E+03  0.82698935792E+02 0.  0.
          5    1    3    3  502    0 -0.12867361047E+03 -0.47462728280E+02 -0.67369411554E+02  0.15287359557E+03  0.47000000000E+01 0. -1.
         -5    1    3    3    0  502 -0.55710577422E+03 -0.43417587376E+03 -0.36624204675E+03  0.79563236474E+03  0.47000000000E+01 0.  1.
         11    1    5    5    0    0  0.69376023210E+02  0.11503113816E+02 -0.16079557799E+03  0.17550091773E+03  0.00000000000E+00 0.  1.
        -11    1    5    5    0    0 -0.11889882598E+02 -0.29911459691E+02 -0.16038150394E+03  0.16357961833E+03  0.00000000000E+00 0. -1.
          3    1    6    6  503    0  0.58515742038E+03  0.43516053728E+03 -0.25861892469E+03  0.77372969960E+03  0.00000000000E+00 0. -1.
         -3    1    6    6    0  503  0.43135823696E+02  0.64886410631E+02 -0.23335816071E+02  0.81335760169E+02  0.00000000000E+00 0.  1.
<mgrwt>
<rscale>  0 0.87660561E+03</rscale>
<asrwt>0</asrwt>
<pdfrwt beam="1">  1        1 0.24456886E+00 0.87660561E+03</pdfrwt>
<pdfrwt beam="2">  1       -1 0.85069900E-01 0.87660561E+03</pdfrwt>
<totfact> 0.79222408E+00</totfact>
</mgrwt>
</event>
<event>
12    1  0.3203156E-008  0.1141089E+04  0.7818608E-02  0.9166044E-01
         -1   -1    0    0    0  501 -0.00000000000E+00  0.00000000000E+00  0.82751066868E+03  0.82751066868E+03  0.00000000000E+00 0.  1.
          1   -1    0    0  501    0  0.00000000000E+00 -0.00000000000E+00 -0.17614099790E+04  0.17614099790E+04  0.00000000000E+00 0. -1.
         23    2    1    2    0    0 -0.93443773483E+03  0.63364621410E+03 -0.50768459334E+03  0.12411898638E+04  0.90151133418E+02 0.  0.
    5000000    2    1    2    0    0  0.93443773483E+03 -0.63364621410E+03 -0.42621471700E+03  0.13477307839E+04  0.60003156236E+03 0.  0.
         23    2    4    4    0    0  0.35686520834E+03 -0.14617370125E+03 -0.43263723783E+03  0.58653876156E+03  0.90184318983E+02 0.  0.
         23    2    4    4    0    0  0.57757252649E+03 -0.48747251285E+03  0.64225208254E+01  0.76119202230E+03  0.90291593685E+02 0.  0.
          5    1    3    3  502    0 -0.62558504520E+03  0.41961589972E+03 -0.29208767482E+03  0.80794272808E+03  0.47000000000E+01 0. -1.
         -5    1    3    3    0  502 -0.30885268963E+03  0.21403031438E+03 -0.21559691852E+03  0.43324713576E+03  0.47000000000E+01 0.  1.
         11    1    5    5    0    0  0.31554093444E+03 -0.93635326974E+02 -0.36347084010E+03  0.49035161605E+03  0.00000000000E+00 0.  1.
        -11    1    5    5    0    0  0.41324273905E+02 -0.52538374277E+02 -0.69166397731E+02  0.96187145506E+02  0.00000000000E+00 0. -1.
          2    1    6    6  503    0  0.90104971824E+02 -0.98225580106E+02 -0.28874395528E+02  0.13638512108E+03  0.00000000000E+00 0. -1.
         -2    1    6    6    0  503  0.48746755467E+03 -0.38924693275E+03  0.35296916353E+02  0.62480690122E+03  0.00000000000E+00 0.  1.
<mgrwt>
<rscale>  0 0.11410886E+04</rscale>
<asrwt>0</asrwt>
<pdfrwt beam="1">  1        1 0.27098615E+00 0.11410886E+04</pdfrwt>
<pdfrwt beam="2">  1       -1 0.12730933E+00 0.11410886E+04</pdfrwt>
<totfact> 0.22900755E+00</totfact>
</mgrwt>
</event>
<event>
12    1  0.3203156E-008  0.1277696E+04  0.7818608E-02  0.9047441E-01
          3   -1    0    0  501    0  0.00000000000E+00  0.00000000000E+00  0.19879724023E+04  0.19879724023E+04  0.00000000000E+00 0. -1.
         -3   -1    0    0    0  501 -0.00000000000E+00 -0.00000000000E+00 -0.11599110946E+04  0.11599110946E+04  0.00000000000E+00 0.  1.
         23    2    1    2    0    0  0.71077306419E+03  0.98867559288E+03  0.12287029089E+04  0.17325219692E+04  0.96144467452E+02 0.  0.
    5000000    2    1    2    0    0 -0.71077306419E+03 -0.98867559288E+03 -0.40064160129E+03  0.14153615277E+04  0.60004731868E+03 0.  0.
         23    2    4    4    0    0 -0.47355561839E+03 -0.96935745853E+03 -0.22625056418E+03  0.11062588732E+04  0.93330438181E+02 0.  0.
         23    2    4    4    0    0 -0.23721744580E+03 -0.19318134350E+02 -0.17439103710E+03  0.30910265446E+03  0.92124428182E+02 0.  0.
          5    1    3    3  502    0  0.36996537442E+03  0.59454153671E+03  0.69328819017E+03  0.98540581578E+03  0.47000000000E+01 0. -1.
         -5    1    3    3    0  502  0.34080768978E+03  0.39413405617E+03  0.53541471877E+03  0.74711615343E+03  0.47000000000E+01 0.  1.
         13    1    5    5    0    0 -0.26096060945E+03 -0.43771312272E+03 -0.86709171270E+02  0.51692523431E+03  0.00000000000E+00 0. -1.
        -13    1    5    5    0    0 -0.21259500894E+03 -0.53164433581E+03 -0.13954139291E+03  0.58933363892E+03  0.00000000000E+00 0.  1.
          2    1    6    6  503    0 -0.23949077670E+03 -0.72526009412E+01 -0.15253488440E+03  0.28403401787E+03  0.00000000000E+00 0. -1.
         -2    1    6    6    0  503  0.22733309042E+01 -0.12065533409E+02 -0.21856152702E+02  0.25068636596E+02  0.00000000000E+00 0.  1.
<mgrwt>
<rscale>  0 0.12776965E+04</rscale>
<asrwt>0</asrwt>
<pdfrwt beam="1">  1        3 0.30584191E+00 0.12776965E+04</pdfrwt>
<pdfrwt beam="2">  1       -3 0.17844786E+00 0.12776965E+04</pdfrwt>
<totfact> 0.17901311E-02</totfact>
</mgrwt>
</event>
<event>
12    1  0.3203156E-008  0.5601910E+03  0.7818608E-02  0.9991623E-01
          3   -1    0    0  501    0  0.00000000000E+00  0.00000000000E+00  0.10648722522E+04  0.10648722522E+04  0.00000000000E+00 0. -1.
         -3   -1    0    0    0  501 -0.00000000000E+00 -0.00000000000E+00 -0.44199648309E+03  0.44199648309E+03  0.00000000000E+00 0.  1.
         23    2    1    2    0    0  0.38776816795E+03 -0.17631015921E+03 -0.13045211631E+03  0.45373838670E+03  0.86089166594E+02 0.  0.
    5000000    2    1    2    0    0 -0.38776816795E+03  0.17631015921E+03  0.75332788546E+03  0.10531303486E+04  0.60010932660E+03 0.  0.
         23    2    4    4    0    0 -0.39663758749E+03  0.33183865053E+03  0.41172030660E+03  0.66723662423E+03  0.90845121275E+02 0.  0.
         23    2    4    4    0    0  0.88694195425E+01 -0.15552849132E+03  0.34160757886E+03  0.38589372439E+03  0.89165298053E+02 0.  0.
          5    1    3    3  502    0  0.28700572523E+03 -0.15455426050E+03 -0.67696484718E+02  0.33296277539E+03  0.47000000000E+01 0. -1.
         -5    1    3    3    0  502  0.10076244272E+03 -0.21755898702E+02 -0.62755631587E+02  0.12077561131E+03  0.47000000000E+01 0.  1.
         11    1    5    5    0    0 -0.23176722317E+03  0.20120954339E+03  0.18687401725E+03  0.35933720154E+03  0.00000000000E+00 0. -1.
        -11    1    5    5    0    0 -0.16487036432E+03  0.13062910714E+03  0.22484628935E+03  0.30789942270E+03  0.00000000000E+00 0.  1.
          2    1    6    6  503    0 -0.18376273588E+02 -0.14255625683E+03  0.23852900012E+03  0.27848888253E+03  0.00000000000E+00 0.  1.
         -2    1    6    6    0  503  0.27245693130E+02 -0.12972234492E+02  0.10307857874E+03  0.10740484187E+03  0.00000000000E+00 0. -1.
<mgrwt>
<rscale>  0 0.56019097E+03</rscale>
<asrwt>0</asrwt>
<pdfrwt beam="1">  1        3 0.16382650E+00 0.56019097E+03</pdfrwt>
<pdfrwt beam="2">  1       -3 0.67999459E-01 0.56019097E+03</pdfrwt>
<totfact> 0.13997713E+00</totfact>
</mgrwt>
</event>
<event>
12    1  0.3203156E-008  0.4846486E+03  0.7818608E-02  0.1017865E+00
         -1   -1    0    0    0  501 -0.00000000000E+00  0.00000000000E+00  0.15503753369E+03  0.15503753369E+03  0.00000000000E+00 0.  1.
          1   -1    0    0  501    0  0.00000000000E+00 -0.00000000000E+00 -0.16651808104E+04  0.16651808104E+04  0.00000000000E+00 0. -1.
         23    2    1    2    0    0  0.31580372241E+03 -0.28421557836E+02 -0.60757332925E+03  0.69099261765E+03  0.88236450471E+02 0.  0.
    5000000    2    1    2    0    0 -0.31580372241E+03  0.28421557836E+02 -0.90256994745E+03  0.11292257264E+04  0.59998204570E+03 0.  0.
         23    2    4    4    0    0 -0.34704347214E+03 -0.20530467283E+03 -0.65210463111E+03  0.77323964654E+03  0.10034899513E+03 0.  0.
         23    2    4    4    0    0  0.31239749732E+02  0.23372623067E+03 -0.25046531633E+03  0.35598607989E+03  0.91593348681E+02 0.  0.
          5    1    3    3  502    0  0.21620284801E+03  0.48192352637E+01 -0.33402925968E+03  0.39795041505E+03  0.47000000000E+01 0. -1.
         -5    1    3    3    0  502  0.99600874400E+02 -0.33240793100E+02 -0.27354406956E+03  0.29304220259E+03  0.47000000000E+01 0.  1.
         11    1    5    5    0    0 -0.12437917036E+03 -0.12107331520E+03 -0.22383682459E+03  0.28325227222E+03  0.00000000000E+00 0.  1.
        -11    1    5    5    0    0 -0.22266430179E+03 -0.84231357631E+02 -0.42826780652E+03  0.48998737432E+03  0.00000000000E+00 0. -1.
          2    1    6    6  503    0  0.10513953813E+02  0.13249485295E+03 -0.20211917405E+03  0.24190409216E+03  0.00000000000E+00 0. -1.
         -2    1    6    6    0  503  0.20725795918E+02  0.10123137772E+03 -0.48346142280E+02  0.11408198773E+03  0.00000000000E+00 0.  1.
<mgrwt>
<rscale>  0 0.48464863E+03</rscale>
<asrwt>0</asrwt>
<pdfrwt beam="1">  1        1 0.25618168E+00 0.48464863E+03</pdfrwt>
<pdfrwt beam="2">  1       -1 0.23851927E-01 0.48464863E+03</pdfrwt>
<totfact> 0.81046589E+01</totfact>
</mgrwt>
</event>
<event>
12    1  0.3203156E-008  0.2022853E+04  0.7818608E-02  0.8596010E-01
          2   -1    0    0  501    0  0.00000000000E+00  0.00000000000E+00  0.16081391442E+04  0.16081391442E+04  0.00000000000E+00 0. -1.
         -2   -1    0    0    0  501 -0.00000000000E+00 -0.00000000000E+00 -0.26440951441E+04  0.26440951441E+04  0.00000000000E+00 0.  1.
         23    2    1    2    0    0 -0.13523259074E+04  0.14957275505E+04 -0.44338789237E+03  0.20665835355E+04  0.90489893340E+02 0.  0.
    5000000    2    1    2    0    0  0.13523259074E+04 -0.14957275505E+04 -0.59256810760E+03  0.21856507528E+04  0.59995498661E+03 0.  0.
         23    2    4    4    0    0  0.83940735920E+03 -0.10273503092E+04 -0.65477120808E+03  0.14827533481E+04  0.98887733288E+02 0.  0.
         23    2    4    4    0    0  0.51291854823E+03 -0.46837724126E+03  0.62203100482E+02  0.70289740473E+03  0.87936673887E+02 0.  0.
          5    1    3    3  502    0 -0.78492825732E+03  0.84549341173E+03 -0.29644080747E+03  0.11911635995E+04  0.47000000000E+01 0. -1.
         -5    1    3    3    0  502 -0.56739765010E+03  0.65023413875E+03 -0.14694708490E+03  0.87541993597E+03  0.47000000000E+01 0.  1.
         13    1    5    5    0    0  0.72740147411E+03 -0.93744808615E+03 -0.57669428301E+03  0.13192793923E+04  0.00000000000E+00 0. -1.
        -13    1    5    5    0    0  0.11200588508E+03 -0.89902223069E+02 -0.78076925074E+02  0.16347395583E+03  0.00000000000E+00 0.  1.
          4    1    6    6  503    0  0.41079219417E+03 -0.41364853966E+03  0.35853309813E+02  0.58407259906E+03  0.00000000000E+00 0. -1.
         -4    1    6    6    0  503  0.10212635406E+03 -0.54728701600E+02  0.26349790669E+02  0.11882480566E+03  0.00000000000E+00 0.  1.
<mgrwt>
<rscale>  0 0.20228527E+04</rscale>
<asrwt>0</asrwt>
<pdfrwt beam="1">  1        2 0.24740602E+00 0.20228527E+04</pdfrwt>
<pdfrwt beam="2">  1       -2 0.40678386E+00 0.20228527E+04</pdfrwt>
<totfact> 0.65777213E-02</totfact>
</mgrwt>
</event>
<event>
12    1  0.3203156E-008  0.8743182E+03  0.7818608E-02  0.9458267E-01
          1   -1    0    0  501    0  0.00000000000E+00  0.00000000000E+00  0.89437275741E+03  0.89437275741E+03  0.00000000000E+00 0. -1.
         -1   -1    0    0    0  501 -0.00000000000E+00 -0.00000000000E+00 -0.90730065944E+03  0.90730065944E+03  0.00000000000E+00 0.  1.
         23    2    1    2    0    0 -0.66208315526E+03 -0.41353078318E+03 -0.17007199338E+03  0.80440017838E+03  0.93666167425E+02 0.  0.
    5000000    2    1    2    0    0  0.66208315526E+03  0.41353078318E+03  0.15714409136E+03  0.99727323848E+03  0.60041471802E+03 0.  0.
         23    2    4    4    0    0  0.43642669594E+03 -0.54339054679E+02  0.85437481970E+01  0.44930790160E+03  0.91562006369E+02 0.  0.
         23    2    4    4    0    0  0.22565645932E+03  0.46786983786E+03  0.14860034316E+03  0.54796533688E+03  0.91438097191E+02 0.  0.
          5    1    3    3  502    0 -0.13654786079E+03 -0.10697126020E+03 -0.73091458673E+02  0.18828866170E+03  0.47000000000E+01 0. -1.
         -5    1    3    3    0  502 -0.52553529447E+03 -0.30655952298E+03 -0.96980534706E+02  0.61611151667E+03  0.47000000000E+01 0.  1.
         13    1    5    5    0    0  0.13300756619E+03 -0.16970900331E+02  0.44987942281E+02  0.14143174704E+03  0.00000000000E+00 0. -1.
        -13    1    5    5    0    0  0.30341912975E+03 -0.37368154348E+02 -0.36444194084E+02  0.30787615455E+03  0.00000000000E+00 0.  1.
          3    1    6    6  503    0  0.11771063879E+03  0.14686033600E+03  0.65077198822E+02  0.19914515957E+03  0.00000000000E+00 0. -1.
         -3    1    6    6    0  503  0.10794582053E+03  0.32100950186E+03  0.83523144339E+02  0.34882017731E+03  0.00000000000E+00 0.  1.
<mgrwt>
<rscale>  0 0.87431820E+03</rscale>
<asrwt>0</asrwt>
<pdfrwt beam="1">  1        1 0.13759581E+00 0.87431820E+03</pdfrwt>
<pdfrwt beam="2">  1       -1 0.13958472E+00 0.87431820E+03</pdfrwt>
<totfact> 0.78968022E+00</totfact>
</mgrwt>
</event>
<event>
12    1  0.3203156E-008  0.6330180E+03  0.7818608E-02  0.9839177E-01
         -2   -1    0    0    0  501 -0.00000000000E+00  0.00000000000E+00  0.20670454243E+03  0.20670454243E+03  0.00000000000E+00 0.  1.
          2   -1    0    0  501    0  0.00000000000E+00 -0.00000000000E+00 -0.21840020257E+04  0.21840020257E+04  0.00000000000E+00 0. -1.
         23    2    1    2    0    0 -0.30922430748E+03 -0.40267329364E+03 -0.50581525587E+03  0.72240890614E+03  0.90885097010E+02 0.  0.
    5000000    2    1    2    0    0  0.30922430748E+03  0.40267329364E+03 -0.14714822274E+04  0.16682976620E+04  0.60015972018E+03 0.  0.
         23    2    4    4    0    0 -0.65629508319E+02  0.36522088670E+03 -0.56525962033E+03  0.68260764276E+03  0.93494530015E+02 0.  0.
         23    2    4    4    0    0  0.37485381579E+03  0.37452406938E+02 -0.90622260705E+03  0.98569001922E+03  0.91800514413E+02 0.  0.
          5    1    3    3  502    0 -0.30331328822E+03 -0.35779272919E+03 -0.47408506358E+03  0.66692827604E+03  0.47000000000E+01 0. -1.
         -5    1    3    3    0  502 -0.59110192522E+01 -0.44880564442E+02 -0.31730192295E+02  0.55480630101E+02  0.47000000000E+01 0.  1.
         13    1    5    5    0    0 -0.14948321499E+01  0.14766864817E+03 -0.15674700721E+03  0.21535526101E+03  0.00000000000E+00 0.  1.
        -13    1    5    5    0    0 -0.64134676169E+02  0.21755223852E+03 -0.40851261312E+03  0.46725238175E+03  0.00000000000E+00 0. -1.
          1    1    6    6  503    0  0.13852865963E+03  0.20354101556E+02 -0.45476129469E+03  0.47582803001E+03  0.00000000000E+00 0. -1.
         -1    1    6    6    0  503  0.23632515616E+03  0.17098305381E+02 -0.45146131236E+03  0.50986198921E+03  0.00000000000E+00 0.  1.
<mgrwt>
<rscale>  0 0.63301803E+03</rscale>
<asrwt>0</asrwt>
<pdfrwt beam="1">  1        2 0.33600031E+00 0.63301803E+03</pdfrwt>
<pdfrwt beam="2">  1       -2 0.31800699E-01 0.63301803E+03</pdfrwt>
<totfact> 0.50877040E+01</totfact>
</mgrwt>
</event>
<event>
12    1  0.3203156E-008  0.8421009E+03  0.7818608E-02  0.9501001E-01
          2   -1    0    0  501    0  0.00000000000E+00  0.00000000000E+00  0.23148751865E+04  0.23148751865E+04  0.00000000000E+00 0. -1.
         -2   -1    0    0    0  501 -0.00000000000E+00 -0.00000000000E+00 -0.46132448228E+03  0.46132448228E+03  0.00000000000E+00 0.  1.
         23    2    1    2    0    0 -0.67376176823E+03  0.48985529993E+03  0.14469286192E+04  0.16720336311E+04  0.90448324562E+02 0.  0.
    5000000    2    1    2    0    0  0.67376176823E+03 -0.48985529993E+03  0.40662208505E+03  0.11041660377E+04  0.59993998322E+03 0.  0.
         23    2    4    4    0    0  0.39053743905E+03 -0.23311107785E+03 -0.88115393607E+02  0.47220210698E+03  0.91379654876E+02 0.  0.
         23    2    4    4    0    0  0.28322432918E+03 -0.25674422208E+03  0.49473747866E+03  0.63196393068E+03  0.92084855880E+02 0.  0.
          5    1    3    3  502    0 -0.17009445812E+03  0.14435908512E+03  0.46241448963E+03  0.51344027926E+03  0.47000000000E+01 0. -1.
         -5    1    3    3    0  502 -0.50366731011E+03  0.34549621481E+03  0.98451412957E+03  0.11585933519E+04  0.47000000000E+01 0.  1.
         11    1    5    5    0    0  0.64458924483E+02 -0.68958704685E+02  0.78899888756E+01  0.94723322481E+02  0.00000000000E+00 0.  1.
        -11    1    5    5    0    0  0.32607851457E+03 -0.16415237317E+03 -0.96005382482E+02  0.37747878450E+03  0.00000000000E+00 0. -1.
          3    1    6    6  503    0  0.17578666654E+03 -0.10462064892E+03  0.29370079240E+03  0.35791980634E+03  0.00000000000E+00 0. -1.
         -3    1    6    6    0  503  0.10743766264E+03 -0.15212357316E+03  0.20103668626E+03  0.27404412434E+03  0.00000000000E+00 0.  1.
<mgrwt>
<rscale>  0 0.84210093E+03</rscale>
<asrwt>0</asrwt>
<pdfrwt beam="1">  1        2 0.35613464E+00 0.84210093E+03</pdfrwt>
<pdfrwt beam="2">  1       -2 0.70972998E-01 0.84210093E+03</pdfrwt>
<totfact> 0.82516822E+00</totfact>
</mgrwt>
</event>
<event>
12    1  0.3203156E-008  0.8822979E+03  0.7818608E-02  0.9447984E-01
         -1   -1    0    0    0  501 -0.00000000000E+00  0.00000000000E+00  0.27092543217E+03  0.27092543217E+03  0.00000000000E+00 0.  1.
          1   -1    0    0  501    0  0.00000000000E+00 -0.00000000000E+00 -0.38224560505E+04  0.38224560505E+04  0.00000000000E+00 0. -1.
         23    2    1    2    0    0 -0.87122526974E+03 -0.45229656741E+02 -0.22532957866E+04  0.24181394885E+04  0.94749624133E+02 0.  0.
    5000000    2    1    2    0    0  0.87122526974E+03  0.45229656741E+02 -0.12982348318E+04  0.16752419942E+04  0.59995238846E+03 0.  0.
         23    2    4    4    0    0  0.31095609116E+03 -0.12311681149E+02 -0.95866986580E+03  0.10121596597E+04  0.92595880303E+02 0.  0.
         23    2    4    4    0    0  0.56026917857E+03  0.57541337890E+02 -0.33956496595E+03  0.66308233452E+03  0.84624217716E+02 0.  0.
          5    1    3    3  502    0 -0.20428650786E+03 -0.17245843330E+02 -0.42755977206E+03  0.47419388976E+03  0.47000000000E+01 0. -1.
         -5    1    3    3    0  502 -0.66693876187E+03 -0.27983813411E+02 -0.18257360145E+04  0.19439455987E+04  0.47000000000E+01 0.  1.
         13    1    5    5    0    0  0.10753057216E+03 -0.45166218799E+02 -0.40190748016E+03  0.41848827209E+03  0.00000000000E+00 0. -1.
        -13    1    5    5    0    0  0.20342551900E+03  0.32854537651E+02 -0.55676238564E+03  0.59367138763E+03  0.00000000000E+00 0.  1.
          1    1    6    6  503    0  0.48355572715E+03  0.20206072543E+02 -0.28164160241E+03  0.55996108689E+03  0.00000000000E+00 0. -1.
         -1    1    6    6    0  503  0.76713451423E+02  0.37335265346E+02 -0.57923363546E+02  0.10312124763E+03  0.00000000000E+00 0.  1.
<mgrwt>
<rscale>  0 0.88229792E+03</rscale>
<asrwt>0</asrwt>
<pdfrwt beam="1">  1        1 0.58807012E+00 0.88229792E+03</pdfrwt>
<pdfrwt beam="2">  1       -1 0.41680839E-01 0.88229792E+03</pdfrwt>
<totfact> 0.82502606E-01</totfact>
</mgrwt>
</event>
<event>
12    1  0.3203156E-008  0.9619898E+03  0.7818608E-02  0.9351245E-01
         -1   -1    0    0    0  501 -0.00000000000E+00  0.00000000000E+00  0.13110920341E+04  0.13110920341E+04  0.00000000000E+00 0.  1.
          1   -1    0    0  501    0  0.00000000000E+00 -0.00000000000E+00 -0.84683697342E+03  0.84683697342E+03  0.00000000000E+00 0. -1.
         23    2    1    2    0    0 -0.87699184793E+03  0.11066035674E+03  0.61233869945E+03  0.10793783684E+04  0.93480284142E+02 0.  0.
    5000000    2    1    2    0    0  0.87699184793E+03 -0.11066035674E+03 -0.14808363875E+03  0.10785506391E+04  0.59998525078E+03 0.  0.
         23    2    4    4    0    0  0.15630940601E+03 -0.25689141329E+03  0.37838056571E+02  0.31454413939E+03  0.84145519601E+02 0.  0.
         23    2    4    4    0    0  0.72068244192E+03  0.14623105655E+03 -0.18592169532E+03  0.76400649971E+03  0.91500550919E+02 0.  0.
          5    1    3    3  502    0 -0.49148938980E+03  0.48425426797E+02  0.39523443648E+03  0.63256556342E+03  0.47000000000E+01 0.  1.
         -5    1    3    3    0  502 -0.38550245813E+03  0.62234929946E+02  0.21710426297E+03  0.44681280502E+03  0.47000000000E+01 0. -1.
         11    1    5    5    0    0  0.51725855725E+02 -0.12534214747E+03  0.53480520064E+02  0.14576139444E+03  0.00000000000E+00 0.  1.
        -11    1    5    5    0    0  0.10458355028E+03 -0.13154926583E+03 -0.15642463493E+02  0.16878274495E+03  0.00000000000E+00 0. -1.
          2    1    6    6  503    0  0.46755728412E+03  0.81038254023E+02 -0.16246950228E+03  0.50157088405E+03  0.00000000000E+00 0. -1.
         -2    1    6    6    0  503  0.25312515780E+03  0.65192802528E+02 -0.23452193042E+02  0.26243561566E+03  0.00000000000E+00 0.  1.
<mgrwt>
<rscale>  0 0.96198977E+03</rscale>
<asrwt>0</asrwt>
<pdfrwt beam="1">  1        1 0.13028261E+00 0.96198977E+03</pdfrwt>
<pdfrwt beam="2">  1       -1 0.20170647E+00 0.96198977E+03</pdfrwt>
<totfact> 0.29781030E+00</totfact>
</mgrwt>
</event>
<event>
12    1  0.3203156E-008  0.1018743E+04  0.7818608E-02  0.9288223E-01
         -2   -1    0    0    0  501 -0.00000000000E+00  0.00000000000E+00  0.60114199893E+03  0.60114199893E+03  0.00000000000E+00 0.  1.
          2   -1    0    0  501    0  0.00000000000E+00 -0.00000000000E+00 -0.21638890605E+04  0.21638890605E+04  0.00000000000E+00 0. -1.
         23    2    1    2    0    0  0.32959855017E+03  0.88992361716E+03 -0.12997351161E+04  0.16118559188E+04  0.90381870104E+02 0.  0.
    5000000    2    1    2    0    0 -0.32959855017E+03 -0.88992361716E+03 -0.26301194544E+03  0.11531751405E+04  0.60003197638E+03 0.  0.
         23    2    4    4    0    0 -0.46306977096E+03 -0.57087722083E+03 -0.28979506151E+03  0.79525806907E+03  0.90109958973E+02 0.  0.
         23    2    4    4    0    0  0.13347122079E+03 -0.31904639634E+03  0.26783116070E+02  0.35791707148E+03  0.88216353119E+02 0.  0.
          5    1    3    3  502    0  0.23793666150E+03  0.56249941634E+03 -0.77827399757E+03  0.98931893419E+03  0.47000000000E+01 0. -1.
         -5    1    3    3    0  502  0.91661888674E+02  0.32742420082E+03 -0.52146111854E+03  0.62253698466E+03  0.47000000000E+01 0.  1.
         11    1    5    5    0    0 -0.44032989036E+03 -0.55164905206E+03 -0.25753160554E+03  0.75135185954E+03  0.00000000000E+00 0. -1.
        -11    1    5    5    0    0 -0.22739880605E+02 -0.19228168763E+02 -0.32263455971E+02  0.43906209528E+02  0.00000000000E+00 0.  1.
          2    1    6    6  503    0  0.10993740680E+03 -0.18697503933E+03  0.47864218835E+02  0.22211907210E+03  0.00000000000E+00 0. -1.
         -2    1    6    6    0  503  0.23533813992E+02 -0.13207135700E+03 -0.21081102765E+02  0.13579799938E+03  0.00000000000E+00 0.  1.
<mgrwt>
<rscale>  0 0.10187431E+04</rscale>
<asrwt>0</asrwt>
<pdfrwt beam="1">  1        2 0.33290601E+00 0.10187431E+04</pdfrwt>
<pdfrwt beam="2">  1       -2 0.92483383E-01 0.10187431E+04</pdfrwt>
<totfact> 0.53748737E+00</totfact>
</mgrwt>
</event>
<event>
12    1  0.3203156E-008  0.2786749E+04  0.7818608E-02  0.8307394E-01
          2   -1    0    0  501    0  0.00000000000E+00  0.00000000000E+00  0.28169851037E+04  0.28169851037E+04  0.00000000000E+00 0. -1.
         -2   -1    0    0    0  501 -0.00000000000E+00 -0.00000000000E+00 -0.37934543779E+04  0.37934543779E+04  0.00000000000E+00 0.  1.
         23    2    1    2    0    0  0.86027233020E+03  0.26321878326E+04 -0.21864630682E+04  0.35294282816E+04  0.88102088921E+02 0.  0.
    5000000    2    1    2    0    0 -0.86027233020E+03 -0.26321878326E+04  0.12099937941E+04  0.30810112000E+04  0.60005313482E+03 0.  0.
         23    2    4    4    0    0 -0.50616500178E+02 -0.71003121669E+03  0.12628642038E+03  0.72877286814E+03  0.91952567117E+02 0.  0.
         23    2    4    4    0    0 -0.80965583003E+03 -0.19221566159E+04  0.10837073737E+04  0.23522383319E+04  0.91514364407E+02 0.  0.
          5    1    3    3  502    0  0.71020363508E+03  0.22608986598E+04 -0.18525671490E+04  0.30080025074E+04  0.47000000000E+01 0. -1.
         -5    1    3    3    0  502  0.15006869512E+03  0.37128917280E+03 -0.33389591924E+03  0.52142577418E+03  0.47000000000E+01 0.  1.
         13    1    5    5    0    0  0.21537566547E+02 -0.32108479605E+03  0.68114783977E+02  0.32893606799E+03  0.00000000000E+00 0.  1.
        -13    1    5    5    0    0 -0.72154066725E+02 -0.38894642064E+03  0.58171636404E+02  0.39983680015E+03  0.00000000000E+00 0. -1.
          1    1    6    6  503    0 -0.68948417146E+03 -0.16516348084E+04  0.89375567613E+03  0.20005212250E+04  0.00000000000E+00 0. -1.
         -1    1    6    6    0  503 -0.12017165856E+03 -0.27052180754E+03  0.18995169755E+03  0.35171710689E+03  0.00000000000E+00 0.  1.
<mgrwt>
<rscale>  0 0.27867486E+04</rscale>
<asrwt>0</asrwt>
<pdfrwt beam="1">  1        2 0.43338232E+00 0.27867486E+04</pdfrwt>
<pdfrwt beam="2">  1       -2 0.58360837E+00 0.27867486E+04</pdfrwt>
<totfact> 0.10617884E-03</totfact>
</mgrwt>
</event>
<event>
12    1  0.3203156E-008  0.1083010E+04  0.7818608E-02  0.9221911E-01
          2   -1    0    0  501    0  0.00000000000E+00  0.00000000000E+00  0.17559588364E+04  0.17559588364E+04  0.00000000000E+00 0. -1.
         -2   -1    0    0    0  501 -0.00000000000E+00 -0.00000000000E+00 -0.70221507772E+03  0.70221507772E+03  0.00000000000E+00 0.  1.
         23    2    1    2    0    0  0.95071884357E+03 -0.32549201105E+03  0.72456310135E+03  0.12421097348E+04  0.89629998353E+02 0.  0.
    5000000    2    1    2    0    0 -0.95071884357E+03  0.32549201105E+03  0.32918065733E+03  0.12160641794E+04  0.60053377456E+03 0.  0.
         23    2    4    4    0    0 -0.43514803504E+03 -0.13631881733E+03  0.19510667371E+03  0.50420609740E+03  0.90667205627E+02 0.  0.
         23    2    4    4    0    0 -0.51557080853E+03  0.46181082838E+03  0.13407398362E+03  0.71185808195E+03  0.98405263780E+02 0.  0.
          5    1    3    3  502    0  0.79083701884E+03 -0.30396165266E+03  0.61836908078E+03  0.10489129071E+04  0.47000000000E+01 0. -1.
         -5    1    3    3    0  502  0.15988182472E+03 -0.21530358394E+02  0.10619402057E+03  0.19319682765E+03  0.47000000000E+01 0.  1.
         13    1    5    5    0    0 -0.15521800282E+03 -0.94936548011E+02  0.75170675907E+02  0.19686596218E+03  0.00000000000E+00 0.  1.
        -13    1    5    5    0    0 -0.27993003222E+03 -0.41382269320E+02  0.11993599780E+03  0.30734013523E+03  0.00000000000E+00 0. -1.
          2    1    6    6  503    0 -0.14204691755E+03  0.13950297951E+03 -0.53886402094E+01  0.19916687858E+03  0.00000000000E+00 0. -1.
         -2    1    6    6    0  503 -0.37352389097E+03  0.32230784887E+03  0.13946262383E+03  0.51269120338E+03  0.00000000000E+00 0.  1.
<mgrwt>
<rscale>  0 0.10830103E+04</rscale>
<asrwt>0</asrwt>
<pdfrwt beam="1">  1        2 0.27014751E+00 0.10830103E+04</pdfrwt>
<pdfrwt beam="2">  1       -2 0.10803309E+00 0.10830103E+04</pdfrwt>
<totfact> 0.61908423E+00</totfact>
</mgrwt>
</event>
<event>
12    1  0.3203156E-008  0.8909519E+03  0.7818608E-02  0.9436963E-01
         -1   -1    0    0    0  501 -0.00000000000E+00  0.00000000000E+00  0.89951779682E+03  0.89951779682E+03  0.00000000000E+00 0.  1.
          1   -1    0    0  501    0  0.00000000000E+00 -0.00000000000E+00 -0.96145116723E+03  0.96145116723E+03  0.00000000000E+00 0. -1.
         23    2    1    2    0    0 -0.59819594398E+03  0.54477273041E+03  0.15874815850E+03  0.82969347300E+03  0.92598953156E+02 0.  0.
    5000000    2    1    2    0    0  0.59819594398E+03 -0.54477273041E+03 -0.22068152891E+03  0.10312754911E+04  0.60017754545E+03 0.  0.
         23    2    4    4    0    0 -0.79917931661E+02 -0.17031858976E+03 -0.13509591270E+03  0.24660606871E+03  0.84666107003E+02 0.  0.
         23    2    4    4    0    0  0.67811387564E+03 -0.37445414064E+03 -0.85585616212E+02  0.78466942235E+03  0.91251700721E+02 0.  0.
          5    1    3    3  502    0 -0.30302556774E+03  0.30342437391E+03  0.12601570986E+03  0.44698198455E+03  0.47000000000E+01 0. -1.
         -5    1    3    3    0  502 -0.29517037624E+03  0.24134835650E+03  0.32732448639E+02  0.38271148845E+03  0.47000000000E+01 0.  1.
         13    1    5    5    0    0 -0.37465090090E+02 -0.37753739055E+02 -0.81766037457E+02  0.97543132355E+02  0.00000000000E+00 0. -1.
        -13    1    5    5    0    0 -0.42452841571E+02 -0.13256485071E+03 -0.53329875243E+02  0.14906293635E+03  0.00000000000E+00 0.  1.
          1    1    6    6  503    0  0.16542021689E+03 -0.13494158391E+03 -0.37524122967E+02  0.21675132994E+03  0.00000000000E+00 0. -1.
         -1    1    6    6    0  503  0.51269365875E+03 -0.23951255673E+03 -0.48061493245E+02  0.56791809241E+03  0.00000000000E+00 0.  1.
<mgrwt>
<rscale>  0 0.89095193E+03</rscale>
<asrwt>0</asrwt>
<pdfrwt beam="1">  1        1 0.14791556E+00 0.89095193E+03</pdfrwt>
<pdfrwt beam="2">  1       -1 0.13838735E+00 0.89095193E+03</pdfrwt>
<totfact> 0.71163078E+00</totfact>
</mgrwt>
</event>
<event>
12    1  0.3203156E-008  0.4360416E+03  0.7818608E-02  0.1031968E+00
         -2   -1    0    0    0  501 -0.00000000000E+00  0.00000000000E+00  0.78673104233E+03  0.78673104233E+03  0.00000000000E+00 0.  1.
          2   -1    0    0  501    0  0.00000000000E+00 -0.00000000000E+00 -0.79395766797E+03  0.79395766797E+03  0.00000000000E+00 0. -1.
         23    2    1    2    0    0  0.20868861379E+03  0.26599763371E+03  0.58040737338E+03  0.67573284824E+03  0.73732519575E+02 0.  0.
    5000000    2    1    2    0    0 -0.20868861379E+03 -0.26599763371E+03 -0.58763399903E+03  0.90495586206E+03  0.59943783397E+03 0.  0.
         23    2    4    4    0    0 -0.53641059801E+01  0.96400727485E+02  0.47496716203E+02  0.14065407830E+03  0.90585637941E+02 0.  0.
         23    2    4    4    0    0 -0.20332450781E+03 -0.36239836119E+03 -0.63513071523E+03  0.76430178376E+03  0.89959788514E+02 0.  0.
          5    1    3    3  502    0  0.10651213197E+03  0.19053189354E+03  0.38565992144E+03  0.44317366993E+03  0.47000000000E+01 0. -1.
         -5    1    3    3    0  502  0.10217648182E+03  0.75465740163E+02  0.19474745194E+03  0.23255917830E+03  0.47000000000E+01 0.  1.
         11    1    5    5    0    0  0.13100992226E+02  0.59035234689E+02 -0.17935340934E+02  0.63075124943E+02  0.00000000000E+00 0. -1.
        -11    1    5    5    0    0 -0.18465098206E+02  0.37365492796E+02  0.65432057137E+02  0.77578953362E+02  0.00000000000E+00 0.  1.
          1    1    6    6  503    0 -0.11819445711E+02 -0.94189358537E+02 -0.16057411875E+03  0.18653520357E+03  0.00000000000E+00 0. -1.
         -1    1    6    6    0  503 -0.19150506210E+03 -0.26820900266E+03 -0.47455659649E+03  0.57776658019E+03  0.00000000000E+00 0.  1.
<mgrwt>
<rscale>  0 0.43604162E+03</rscale>
<asrwt>0</asrwt>
<pdfrwt beam="1">  1        2 0.12214733E+00 0.43604162E+03</pdfrwt>
<pdfrwt beam="2">  1       -2 0.12103555E+00 0.43604162E+03</pdfrwt>
<totfact> 0.19105244E+01</totfact>
</mgrwt>
</event>
<event>
12    1  0.3203156E-008  0.5843000E+03  0.7818608E-02  0.9938525E-01
         -1   -1    0    0    0  501 -0.00000000000E+00  0.00000000000E+00  0.51965873731E+03  0.51965873731E+03  0.00000000000E+00 0.  1.
          1   -1    0    0  501    0  0.00000000000E+00 -0.00000000000E+00 -0.77064991016E+03  0.77064991016E+03  0.00000000000E+00 0. -1.
         23    2    1    2    0    0 -0.57086634386E+02 -0.45601545448E+03  0.62323926958E+02  0.47211996924E+03  0.88340335859E+02 0.  0.
    5000000    2    1    2    0    0  0.57086634386E+02  0.45601545448E+03 -0.31331509981E+03  0.81818867823E+03  0.60004781715E+03 0.  0.
         23    2    4    4    0    0  0.26356649774E+03  0.38745089317E+03 -0.76474560914E+02  0.48307010836E+03  0.89010548648E+02 0.  0.
         23    2    4    4    0    0 -0.20647986335E+03  0.68564561304E+02 -0.23684053890E+03  0.33511856987E+03  0.94212430014E+02 0.  0.
          5    1    3    3  502    0 -0.14155984083E+02 -0.89366517060E+02  0.48293157701E+02  0.10266978785E+03  0.47000000000E+01 0. -1.
         -5    1    3    3    0  502 -0.42930650302E+02 -0.36664893742E+03  0.14030769257E+02  0.36945018139E+03  0.47000000000E+01 0.  1.
         11    1    5    5    0    0  0.16561330780E+03  0.28745503020E+03 -0.20720606930E+02  0.33239660897E+03  0.00000000000E+00 0. -1.
        -11    1    5    5    0    0  0.97953189941E+02  0.99995862977E+02 -0.55753953984E+02  0.15067349939E+03  0.00000000000E+00 0.  1.
          4    1    6    6  503    0 -0.11423882457E+03  0.86277796503E+02 -0.14209603223E+03  0.20170684070E+03  0.00000000000E+00 0.  1.
         -4    1    6    6    0  503 -0.92241038784E+02 -0.17713235200E+02 -0.94744506662E+02  0.13341172917E+03  0.00000000000E+00 0. -1.
<mgrwt>
<rscale>  0 0.58430003E+03</rscale>
<asrwt>0</asrwt>
<pdfrwt beam="1">  1        1 0.11856152E+00 0.58430003E+03</pdfrwt>
<pdfrwt beam="2">  1       -1 0.79947498E-01 0.58430003E+03</pdfrwt>
<totfact> 0.38251106E+01</totfact>
</mgrwt>
</event>
<event>
12    1  0.3203156E-008  0.3110136E+03  0.7818608E-02  0.1079861E+00
         -1   -1    0    0    0  501 -0.00000000000E+00  0.00000000000E+00  0.17705309596E+03  0.17705309596E+03  0.00000000000E+00 0.  1.
          1   -1    0    0  501    0  0.00000000000E+00 -0.00000000000E+00 -0.89398250515E+03  0.89398250515E+03  0.00000000000E+00 0. -1.
         23    2    1    2    0    0  0.41873544446E+02  0.83548849985E+02  0.20235875999E+01  0.12997648831E+03  0.90310511841E+02 0.  0.
    5000000    2    1    2    0    0 -0.41873544446E+02 -0.83548849985E+02 -0.71895299679E+03  0.94105911280E+03  0.59997086440E+03 0.  0.
         23    2    4    4    0    0 -0.19866064457E+03  0.10775752484E+03 -0.60593419518E+03  0.65307319380E+03  0.90942903562E+02 0.  0.
         23    2    4    4    0    0  0.15678710012E+03 -0.19130637482E+03 -0.11301880161E+03  0.28798591900E+03  0.94775082232E+02 0.  0.
          5    1    3    3  502    0 -0.25658555314E+02  0.44710983556E+02  0.38787984758E+01  0.51909234139E+02  0.47000000000E+01 0. -1.
         -5    1    3    3    0  502  0.67532099760E+02  0.38837866430E+02 -0.18552108759E+01  0.78067254174E+02  0.47000000000E+01 0.  1.
         13    1    5    5    0    0 -0.43057196436E+02  0.55792672090E+02 -0.10935238161E+03  0.13009491838E+03  0.00000000000E+00 0. -1.
        -13    1    5    5    0    0 -0.15560344813E+03  0.51964852745E+02 -0.49658181358E+03  0.52297827542E+03  0.00000000000E+00 0.  1.
          2    1    6    6  503    0  0.12310633963E+03 -0.94503782987E+02 -0.10010456576E+03  0.18468096800E+03  0.00000000000E+00 0. -1.
         -2    1    6    6    0  503  0.33680760493E+02 -0.96802591833E+02 -0.12914235850E+02  0.10330495100E+03  0.00000000000E+00 0.  1.
<mgrwt>
<rscale>  0 0.31101363E+03</rscale>
<asrwt>0</asrwt>
<pdfrwt beam="1">  1        1 0.13753577E+00 0.31101363E+03</pdfrwt>
<pdfrwt beam="2">  1       -1 0.27238938E-01 0.31101363E+03</pdfrwt>
<totfact> 0.23347109E+02</totfact>
</mgrwt>
</event>
<event>
12    1  0.3203156E-008  0.6052028E+03  0.7818608E-02  0.9894670E-01
         -2   -1    0    0    0  501 -0.00000000000E+00  0.00000000000E+00  0.10174390609E+03  0.10174390609E+03  0.00000000000E+00 0.  1.
          2   -1    0    0  501    0  0.00000000000E+00 -0.00000000000E+00 -0.44419149206E+04  0.44419149206E+04  0.00000000000E+00 0. -1.
         23    2    1    2    0    0 -0.18112289573E+03 -0.43861157313E+03 -0.92422753757E+03  0.10431147985E+04  0.93307695869E+02 0.  0.
    5000000    2    1    2    0    0  0.18112289573E+03  0.43861157313E+03 -0.34159434770E+04  0.35005440283E+04  0.59996086584E+03 0.  0.
         23    2    4    4    0    0  0.27580547916E+03 -0.44420517956E+01 -0.16399102450E+04  0.16653963977E+04  0.90283751053E+02 0.  0.
         23    2    4    4    0    0 -0.94682583430E+02  0.44305362492E+03 -0.17760332320E+04  0.18351476306E+04  0.90617209751E+02 0.  0.
          5    1    3    3  502    0 -0.45113038819E+02 -0.57617013525E+02 -0.91051695643E+02  0.11690768922E+03  0.47000000000E+01 0. -1.
         -5    1    3    3    0  502 -0.13600985691E+03 -0.38099455960E+03 -0.83317584193E+03  0.92620710923E+03  0.47000000000E+01 0.  1.
         13    1    5    5    0    0  0.21440310467E+03 -0.20684503594E+02 -0.14285982314E+04  0.14447454608E+04  0.00000000000E+00 0.  1.
        -13    1    5    5    0    0  0.61402374484E+02  0.16242451798E+02 -0.21131201360E+03  0.22065093683E+03  0.00000000000E+00 0. -1.
          3    1    6    6  503    0 -0.48692194624E+02  0.27893109225E+03 -0.12699602900E+04  0.13011428139E+04  0.00000000000E+00 0. -1.
         -3    1    6    6    0  503 -0.45990388807E+02  0.16412253267E+03 -0.50607294200E+03  0.53400481666E+03  0.00000000000E+00 0.  1.
<mgrwt>
<rscale>  0 0.60520276E+03</rscale>
<asrwt>0</asrwt>
<pdfrwt beam="1">  1        2 0.68337149E+00 0.60520276E+03</pdfrwt>
<pdfrwt beam="2">  1       -2 0.15652910E-01 0.60520276E+03</pdfrwt>
<totfact> 0.53407771E+00</totfact>
</mgrwt>
</event>
<event>
12    1  0.3203156E-008  0.1533345E+04  0.7818608E-02  0.8862576E-01
         -2   -1    0    0    0  501 -0.00000000000E+00  0.00000000000E+00  0.14515800618E+04  0.14515800618E+04  0.00000000000E+00 0.  1.
          2   -1    0    0  501    0  0.00000000000E+00 -0.00000000000E+00 -0.16654080817E+04  0.16654080817E+04  0.00000000000E+00 0. -1.
         23    2    1    2    0    0 -0.26125823598E+03 -0.14713805635E+04 -0.16124186445E+03  0.15057692661E+04  0.90141639618E+02 0.  0.
    5000000    2    1    2    0    0  0.26125823598E+03  0.14713805635E+04 -0.52586155375E+02  0.16112188775E+04  0.60003694790E+03 0.  0.
         23    2    4    4    0    0  0.89974532280E+02  0.15812548514E+02  0.52940145749E+02  0.13902911053E+03  0.90448777741E+02 0.  0.
         23    2    4    4    0    0  0.17128370370E+03  0.14555680150E+04 -0.10552630112E+03  0.14721897669E+04  0.90501691746E+02 0.  0.
          5    1    3    3  502    0 -0.94510319866E+02 -0.48446055768E+03 -0.94893362044E+02  0.50265402880E+03  0.47000000000E+01 0. -1.
         -5    1    3    3    0  502 -0.16674791611E+03 -0.98692000583E+03 -0.66348502406E+02  0.10031152373E+04  0.47000000000E+01 0.  1.
         13    1    5    5    0    0  0.42376613034E+02 -0.17843274835E+02 -0.16056568748E+02  0.48702907398E+02  0.00000000000E+00 0.  1.
        -13    1    5    5    0    0  0.47597919246E+02  0.33655823348E+02  0.68996714497E+02  0.90326203137E+02  0.00000000000E+00 0. -1.
          1    1    6    6  503    0  0.11988009931E+03  0.12593348844E+04 -0.77379544908E+02  0.12673922768E+04  0.00000000000E+00 0. -1.
         -1    1    6    6    0  503  0.51403604392E+02  0.19623313062E+03 -0.28146756217E+02  0.20479749017E+03  0.00000000000E+00 0.  1.
<mgrwt>
<rscale>  0 0.15333454E+04</rscale>
<asrwt>0</asrwt>
<pdfrwt beam="1">  1        2 0.25621663E+00 0.15333454E+04</pdfrwt>
<pdfrwt beam="2">  1       -2 0.22332001E+00 0.15333454E+04</pdfrwt>
<totfact> 0.90436986E-01</totfact>
</mgrwt>
</event>
<event>
12    1  0.3203156E-008  0.7596134E+03  0.7818608E-02  0.9620388E-01
         -2   -1    0    0    0  501 -0.00000000000E+00  0.00000000000E+00  0.77437797827E+03  0.77437797827E+03  0.00000000000E+00 0.  1.
          2   -1    0    0  501    0  0.00000000000E+00 -0.00000000000E+00 -0.13575560616E+04  0.13575560616E+04  0.00000000000E+00 0. -1.
         23    2    1    2    0    0 -0.50574453935E+03 -0.42663659252E+03 -0.95434752886E+03  0.11646538252E+04  0.88560745346E+02 0.  0.
    5000000    2    1    2    0    0  0.50574453935E+03  0.42663659252E+03  0.37116944555E+03  0.96728021463E+03  0.60005660995E+03 0.  0.
         23    2    4    4    0    0  0.58901986242E+03  0.22507405243E+03  0.35900277652E+03  0.73110944692E+03  0.89639848473E+02 0.  0.
         23    2    4    4    0    0 -0.83275323066E+02  0.20156254009E+03  0.12166669033E+02  0.23617076771E+03  0.89812953887E+02 0.  0.
          5    1    3    3  502    0 -0.22743333018E+03 -0.13724516822E+03 -0.39870664153E+03  0.47911505077E+03  0.47000000000E+01 0. -1.
         -5    1    3    3    0  502 -0.27831120917E+03 -0.28939142430E+03 -0.55564088733E+03  0.68553877445E+03  0.47000000000E+01 0.  1.
         11    1    5    5    0    0  0.13740885309E+03  0.29535882126E+02  0.46022950485E+02  0.14789074756E+03  0.00000000000E+00 0. -1.
        -11    1    5    5    0    0  0.45161100932E+03  0.19553817030E+03  0.31297982603E+03  0.58321869937E+03  0.00000000000E+00 0.  1.
          3    1    6    6  503    0 -0.39541848533E+02  0.12579321056E+03 -0.35481221281E+02  0.13655184609E+03  0.00000000000E+00 0. -1.
         -3    1    6    6    0  503 -0.43733474534E+02  0.75769329529E+02  0.47647890315E+02  0.99618921614E+02  0.00000000000E+00 0.  1.
<mgrwt>
<rscale>  0 0.75961344E+03</rscale>
<asrwt>0</asrwt>
<pdfrwt beam="1">  1        2 0.20885478E+00 0.75961344E+03</pdfrwt>
<pdfrwt beam="2">  1       -2 0.11913508E+00 0.75961344E+03</pdfrwt>
<totfact> 0.84501348E+00</totfact>
</mgrwt>
</event>
<event>
12    1  0.3203156E-008  0.3890106E+03  0.7818608E-02  0.1047653E+00
          1   -1    0    0  501    0  0.00000000000E+00  0.00000000000E+00  0.15277360657E+04  0.15277360657E+04  0.00000000000E+00 0. -1.
         -1   -1    0    0    0  501 -0.00000000000E+00 -0.00000000000E+00 -0.13996915531E+03  0.13996915531E+03  0.00000000000E+00 0.  1.
         23    2    1    2    0    0 -0.21206891741E+03  0.56394515869E+02  0.16626783775E+03  0.28968266412E+03  0.90097085804E+02 0.  0.
    5000000    2    1    2    0    0  0.21206891741E+03 -0.56394515869E+02  0.12214990727E+04  0.13780225569E+04  0.59894291524E+03 0.  0.
         23    2    4    4    0    0 -0.15774582835E+03 -0.20423017647E+02  0.13747161956E+03  0.22857598220E+03  0.89708903925E+02 0.  0.
         23    2    4    4    0    0  0.36981474575E+03 -0.35971498222E+02  0.10840274531E+04  0.11494465747E+04  0.89749730894E+02 0.  0.
          5    1    3    3  502    0 -0.16467020033E+03  0.26709109862E+01  0.10570184056E+03  0.19575080521E+03  0.47000000000E+01 0. -1.
         -5    1    3    3    0  502 -0.47398717073E+02  0.53723604883E+02  0.60565997199E+02  0.93931858911E+02  0.47000000000E+01 0.  1.
         13    1    5    5    0    0 -0.55276752399E+02 -0.18951730452E+02  0.10656857198E+03  0.12153825725E+03  0.00000000000E+00 0. -1.
        -13    1    5    5    0    0 -0.10246907595E+03 -0.14712871946E+01  0.30903047580E+02  0.10703772494E+03  0.00000000000E+00 0.  1.
          4    1    6    6  503    0  0.34763313769E+03 -0.11929539474E+02  0.95625576308E+03  0.10175540265E+04  0.00000000000E+00 0.  1.
         -4    1    6    6    0  503  0.22181608065E+02 -0.24041958748E+02  0.12777169001E+03  0.13189254826E+03  0.00000000000E+00 0. -1.
<mgrwt>
<rscale>  0 0.38901056E+03</rscale>
<asrwt>0</asrwt>
<pdfrwt beam="1">  1        1 0.23503631E+00 0.38901056E+03</pdfrwt>
<pdfrwt beam="2">  1       -1 0.21533717E-01 0.38901056E+03</pdfrwt>
<totfact> 0.12062360E+02</totfact>
</mgrwt>
</event>
<event>
12    1  0.3203156E-008  0.7082737E+03  0.7818608E-02  0.9703187E-01
         -2   -1    0    0    0  501 -0.00000000000E+00  0.00000000000E+00  0.46866319927E+03  0.46866319927E+03  0.00000000000E+00 0.  1.
          2   -1    0    0  501    0  0.00000000000E+00 -0.00000000000E+00 -0.20229600092E+04  0.20229600092E+04  0.00000000000E+00 0. -1.
         23    2    1    2    0    0 -0.59241473436E+03 -0.12067938880E+03 -0.15211959023E+04  0.16394817610E+04  0.91349543484E+02 0.  0.
    5000000    2    1    2    0    0  0.59241473436E+03  0.12067938880E+03 -0.33100907707E+02  0.85214144755E+03  0.59960874258E+03 0.  0.
         23    2    4    4    0    0 -0.34903520556E+02  0.15778572868E+03  0.88811818780E+02  0.20558016844E+03  0.90890453712E+02 0.  0.
         23    2    4    4    0    0  0.62731825492E+03 -0.37106339888E+02 -0.12191272649E+03  0.64656127912E+03  0.90959888760E+02 0.  0.
          5    1    3    3  502    0 -0.30236067155E+03 -0.16988150017E+02 -0.78737524389E+03  0.84361865652E+03  0.47000000000E+01 0. -1.
         -5    1    3    3    0  502 -0.29005406281E+03 -0.10369123878E+03 -0.73382065836E+03  0.79586310443E+03  0.47000000000E+01 0.  1.
         13    1    5    5    0    0  0.58164577779E+01  0.99505429302E+02  0.11161510975E+02  0.10029826005E+03  0.00000000000E+00 0.  1.
        -13    1    5    5    0    0 -0.40719978334E+02  0.58280299382E+02  0.77650307805E+02  0.10528190839E+03  0.00000000000E+00 0. -1.
          1    1    6    6  503    0  0.30559985880E+03 -0.63175790727E+02 -0.53410882520E+02  0.31659939451E+03  0.00000000000E+00 0. -1.
         -1    1    6    6    0  503  0.32171839612E+03  0.26069450839E+02 -0.68501843968E+02  0.32996188461E+03  0.00000000000E+00 0.  1.
<mgrwt>
<rscale>  0 0.70827368E+03</rscale>
<asrwt>0</asrwt>
<pdfrwt beam="1">  1        2 0.31122462E+00 0.70827368E+03</pdfrwt>
<pdfrwt beam="2">  1       -2 0.72102030E-01 0.70827368E+03</pdfrwt>
<totfact> 0.11780732E+01</totfact>
</mgrwt>
</event>
<event>
12    1  0.3203156E-008  0.7535154E+03  0.7818608E-02  0.9629851E-01
         -1   -1    0    0    0  501 -0.00000000000E+00  0.00000000000E+00  0.17137412122E+04  0.17137412122E+04  0.00000000000E+00 0.  1.
          1   -1    0    0  501    0  0.00000000000E+00 -0.00000000000E+00 -0.36043018182E+03  0.36043018182E+03  0.00000000000E+00 0. -1.
         23    2    1    2    0    0  0.43535097676E+03 -0.50241045773E+03  0.49510350141E+03  0.83385493467E+03  0.90773531213E+02 0.  0.
    5000000    2    1    2    0    0 -0.43535097676E+03  0.50241045773E+03  0.85820752898E+03  0.12403164594E+04  0.59993167576E+03 0.  0.
         23    2    4    4    0    0 -0.41009454551E+03  0.10139866712E+03  0.64411034197E+03  0.77603917001E+03  0.94336815734E+02 0.  0.
         23    2    4    4    0    0 -0.25256431248E+02  0.40101179061E+03  0.21409718701E+03  0.46427728936E+03  0.90925532174E+02 0.  0.
          5    1    3    3  502    0  0.27547347494E+03 -0.35861354047E+03  0.37518488393E+03  0.58760113507E+03  0.47000000000E+01 0. -1.
         -5    1    3    3    0  502  0.15987750182E+03 -0.14379691726E+03  0.11991861747E+03  0.24625379960E+03  0.47000000000E+01 0.  1.
         13    1    5    5    0    0 -0.19401972165E+03  0.47166206756E+01  0.32804841409E+03  0.38115831473E+03  0.00000000000E+00 0. -1.
        -13    1    5    5    0    0 -0.21607482387E+03  0.96682046440E+02  0.31606192788E+03  0.39488085528E+03  0.00000000000E+00 0.  1.
          4    1    6    6  503    0 -0.30824350799E+02  0.56459387983E+02  0.55398025160E+02  0.84892545522E+02  0.00000000000E+00 0.  1.
         -4    1    6    6    0  503  0.55679195507E+01  0.34455240263E+03  0.15869916185E+03  0.37938474384E+03  0.00000000000E+00 0. -1.
<mgrwt>
<rscale>  0 0.75351535E+03</rscale>
<asrwt>0</asrwt>
<pdfrwt beam="1">  1        1 0.55450798E-01 0.75351535E+03</pdfrwt>
<pdfrwt beam="2">  1       -1 0.26365249E+00 0.75351535E+03</pdfrwt>
<totfact> 0.40778148E+00</totfact>
</mgrwt>
</event>
<event>
12    1  0.3203156E-008  0.1037727E+04  0.7818608E-02  0.9268108E-01
          1   -1    0    0  501    0  0.00000000000E+00  0.00000000000E+00  0.15429640796E+04  0.15429640796E+04  0.00000000000E+00 0. -1.
         -1   -1    0    0    0  501 -0.00000000000E+00 -0.00000000000E+00 -0.81712347358E+03  0.81712347358E+03  0.00000000000E+00 0.  1.
         23    2    1    2    0    0 -0.82145899129E+03  0.59518865172E+03  0.93702089767E+02  0.10227680399E+04  0.90719216292E+02 0.  0.
    5000000    2    1    2    0    0  0.82145899129E+03 -0.59518865172E+03  0.63213851624E+03  0.13373195133E+04  0.59981661487E+03 0.  0.
         23    2    4    4    0    0  0.54275161743E+03 -0.23222556977E+03  0.63234340388E+03  0.86986535894E+03  0.91101749592E+02 0.  0.
         23    2    4    4    0    0  0.27870737386E+03 -0.36296308195E+03 -0.20488763913E+00  0.46745415437E+03  0.95359033961E+02 0.  0.
          5    1    3    3  502    0 -0.36179904529E+03  0.21024415244E+03  0.24190441821E+02  0.41917588228E+03  0.47000000000E+01 0. -1.
         -5    1    3    3    0  502 -0.45965994600E+03  0.38494449928E+03  0.69511647945E+02  0.60359215757E+03  0.47000000000E+01 0.  1.
         13    1    5    5    0    0  0.36474431254E+03 -0.17300931003E+03  0.37188556147E+03  0.54888022893E+03  0.00000000000E+00 0.  1.
        -13    1    5    5    0    0  0.17800730490E+03 -0.59216259739E+02  0.26045784242E+03  0.32098513001E+03  0.00000000000E+00 0. -1.
          3    1    6    6  503    0  0.23277367700E+02 -0.87056153613E+02 -0.14077962009E+02  0.91207448946E+02  0.00000000000E+00 0. -1.
         -3    1    6    6    0  503  0.25543000616E+03 -0.27590692834E+03  0.13873074370E+02  0.37624670543E+03  0.00000000000E+00 0.  1.
<mgrwt>
<rscale>  0 0.10377267E+04</rscale>
<asrwt>0</asrwt>
<pdfrwt beam="1">  1        1 0.23737909E+00 0.10377267E+04</pdfrwt>
<pdfrwt beam="2">  1       -1 0.12571130E+00 0.10377267E+04</pdfrwt>
<totfact> 0.33737386E+00</totfact>
</mgrwt>
</event>
<event>
12    1  0.3203156E-008  0.8118691E+03  0.7818608E-02  0.9542994E-01
         -1   -1    0    0    0  501 -0.00000000000E+00  0.00000000000E+00  0.53089983961E+03  0.53089983961E+03  0.00000000000E+00 0.  1.
          1   -1    0    0  501    0  0.00000000000E+00 -0.00000000000E+00 -0.17098635837E+04  0.17098635837E+04  0.00000000000E+00 0. -1.
         23    2    1    2    0    0 -0.60047281184E+03  0.39962265946E+03  0.96337414496E+01  0.72655074632E+03  0.86702423801E+02 0.  0.
    5000000    2    1    2    0    0  0.60047281184E+03 -0.39962265946E+03 -0.11885974856E+04  0.15142126770E+04  0.59984179649E+03 0.  0.
         23    2    4    4    0    0  0.24904693930E+03  0.11781791776E+03 -0.25154752195E+03  0.38384600055E+03  0.90311442345E+02 0.  0.
         23    2    4    4    0    0  0.35142587254E+03 -0.51744057722E+03 -0.93704996363E+03  0.11303666765E+04  0.91767609191E+02 0.  0.
          5    1    3    3  502    0 -0.31442429763E+03  0.18430231077E+03 -0.32901514971E+02  0.36597073706E+03  0.47000000000E+01 0. -1.
         -5    1    3    3    0  502 -0.28604851421E+03  0.21532034869E+03  0.42535256420E+02  0.36058000927E+03  0.47000000000E+01 0.  1.
         11    1    5    5    0    0  0.14360409685E+03  0.70571137836E+02 -0.85114857053E+02  0.18123730582E+03  0.00000000000E+00 0.  1.
        -11    1    5    5    0    0  0.10544284245E+03  0.47246779929E+02 -0.16643266490E+03  0.20260869474E+03  0.00000000000E+00 0. -1.
          3    1    6    6  503    0  0.11754160055E+03 -0.18427784141E+03 -0.25278871879E+03  0.33418032114E+03  0.00000000000E+00 0. -1.
         -3    1    6    6    0  503  0.23388427200E+03 -0.33316273581E+03 -0.68426124484E+03  0.79618635533E+03  0.00000000000E+00 0.  1.
<mgrwt>
<rscale>  0 0.81186905E+03</rscale>
<asrwt>0</asrwt>
<pdfrwt beam="1">  1        1 0.26305594E+00 0.81186905E+03</pdfrwt>
<pdfrwt beam="2">  1       -1 0.81676899E-01 0.81186905E+03</pdfrwt>
<totfact> 0.72352287E+00</totfact>
</mgrwt>
</event>
<event>
12    1  0.3203156E-008  0.2591980E+03  0.7818608E-02  0.1107626E+00
          1   -1    0    0  501    0  0.00000000000E+00  0.00000000000E+00  0.12599304434E+04  0.12599304434E+04  0.00000000000E+00 0. -1.
         -1   -1    0    0    0  501 -0.00000000000E+00 -0.00000000000E+00 -0.12804558125E+03  0.12804558125E+03  0.00000000000E+00 0.  1.
         23    2    1    2    0    0 -0.63102265571E+01 -0.15336582824E+03  0.24909750037E+03  0.30953338698E+03  0.10099731052E+03 0.  0.
    5000000    2    1    2    0    0  0.63102265571E+01  0.15336582824E+03  0.88278736182E+03  0.10784426377E+04  0.60013673477E+03 0.  0.
         23    2    4    4    0    0 -0.12262944740E+03  0.12464079664E+03  0.14573586575E+02  0.19556041142E+03  0.86360729118E+02 0.  0.
         23    2    4    4    0    0  0.12893967395E+03  0.28725031606E+02  0.86821377525E+03  0.88288222630E+03  0.90748548310E+02 0.  0.
          5    1    3    3  502    0 -0.49036240172E+02 -0.59475150935E+02  0.78508034114E+02  0.11012469228E+03  0.47000000000E+01 0. -1.
         -5    1    3    3    0  502  0.42726013615E+02 -0.93890677308E+02  0.17058946625E+03  0.19940869470E+03  0.47000000000E+01 0.  1.
         11    1    5    5    0    0 -0.30925785256E+01  0.57469592249E+02  0.96424841941E+01  0.58354910476E+02  0.00000000000E+00 0. -1.
        -11    1    5    5    0    0 -0.11953686887E+03  0.67171204388E+02  0.49311023813E+01  0.13720550094E+03  0.00000000000E+00 0.  1.
          2    1    6    6  503    0  0.10258035688E+03  0.45260232026E+02  0.45933551522E+03  0.47282167226E+03  0.00000000000E+00 0. -1.
         -2    1    6    6    0  503  0.26359317073E+02 -0.16535200420E+02  0.40887826003E+03  0.41006055403E+03  0.00000000000E+00 0.  1.
<mgrwt>
<rscale>  0 0.25919801E+03</rscale>
<asrwt>0</asrwt>
<pdfrwt beam="1">  1        1 0.19383544E+00 0.25919801E+03</pdfrwt>
<pdfrwt beam="2">  1       -1 0.19699321E-01 0.25919801E+03</pdfrwt>
<totfact> 0.21712167E+02</totfact>
</mgrwt>
</event>
<event>
12    1  0.3203156E-008  0.3741613E+03  0.7818608E-02  0.1053113E+00
         -2   -1    0    0    0  501 -0.00000000000E+00  0.00000000000E+00  0.36410281509E+03  0.36410281509E+03  0.00000000000E+00 0. -1.
          2   -1    0    0  501    0  0.00000000000E+00 -0.00000000000E+00 -0.53380523246E+03  0.53380523246E+03  0.00000000000E+00 0.  1.
         23    2    1    2    0    0  0.22195911602E+03 -0.62620096578E+01 -0.73444799686E+02  0.25068666435E+03  0.90247455007E+02 0.  0.
    5000000    2    1    2    0    0 -0.22195911602E+03  0.62620096578E+01 -0.96257617679E+02  0.64722138320E+03  0.60027071223E+03 0.  0.
         23    2    4    4    0    0 -0.18972917790E+03 -0.20882871477E+03  0.12728364506E+03  0.32241709892E+03  0.90250021157E+02 0.  0.
         23    2    4    4    0    0 -0.32229938120E+02  0.21509072443E+03 -0.22354126274E+03  0.32480428428E+03  0.90688137556E+02 0.  0.
          5    1    3    3  502    0  0.96230082735E+02 -0.38390018574E+02 -0.48418440165E+01  0.10382463967E+03  0.47000000000E+01 0. -1.
         -5    1    3    3    0  502  0.12572903328E+03  0.32128008917E+02 -0.68602955670E+02  0.14686202468E+03  0.47000000000E+01 0.  1.
         11    1    5    5    0    0 -0.85800221904E+02 -0.15090589310E+03  0.10004848429E+03  0.20035959138E+03  0.00000000000E+00 0. -1.
        -11    1    5    5    0    0 -0.10392895599E+03 -0.57922821675E+02  0.27235160766E+02  0.12205750754E+03  0.00000000000E+00 0.  1.
          3    1    6    6  503    0  0.38846951849E+01  0.12589300860E+03 -0.17872795900E+03  0.21865000297E+03  0.00000000000E+00 0. -1.
         -3    1    6    6    0  503 -0.36114633305E+02  0.89197715830E+02 -0.44813303733E+02  0.10615428131E+03  0.00000000000E+00 0.  1.
<mgrwt>
<rscale>  0 0.37416131E+03</rscale>
<asrwt>0</asrwt>
<pdfrwt beam="1">  1        2 0.82123882E-01 0.37416131E+03</pdfrwt>
<pdfrwt beam="2">  1       -2 0.56015818E-01 0.37416131E+03</pdfrwt>
<totfact> 0.17621998E+02</totfact>
</mgrwt>
</event>
<event>
12    1  0.3203156E-008  0.4927622E+03  0.7818608E-02  0.1015686E+00
          2   -1    0    0  501    0  0.00000000000E+00  0.00000000000E+00  0.16395467878E+04  0.16395467878E+04  0.00000000000E+00 0. -1.
         -2   -1    0    0    0  501 -0.00000000000E+00 -0.00000000000E+00 -0.15031242833E+03  0.15031242833E+03  0.00000000000E+00 0.  1.
         23    2    1    2    0    0 -0.19278194024E+02 -0.30314972116E+03  0.53341846942E+03  0.62111857893E+03  0.94771426997E+02 0.  0.
    5000000    2    1    2    0    0  0.19278194024E+02  0.30314972116E+03  0.95581589002E+03  0.11687406372E+04  0.60008271027E+03 0.  0.
         23    2    4    4    0    0  0.20251354044E+03  0.39072876842E+03  0.64341190900E+03  0.78493867282E+03  0.92027881128E+02 0.  0.
         23    2    4    4    0    0 -0.18323534641E+03 -0.87579047267E+02  0.31240398102E+03  0.38380196436E+03  0.91991406077E+02 0.  0.
          5    1    3    3  502    0 -0.43474665423E+02 -0.25993916054E+03  0.40314868553E+03  0.48167350598E+03  0.47000000000E+01 0. -1.
         -5    1    3    3    0  502  0.24196471399E+02 -0.43210560618E+02  0.13026978389E+03  0.13944507296E+03  0.47000000000E+01 0.  1.
         13    1    5    5    0    0  0.67589384773E+02  0.22992569572E+03  0.34862774737E+03  0.42305490981E+03  0.00000000000E+00 0.  1.
        -13    1    5    5    0    0  0.13492415567E+03  0.16080307271E+03  0.29478416163E+03  0.36188376300E+03  0.00000000000E+00 0. -1.
          2    1    6    6  503    0 -0.11957891022E+03 -0.10220716394E+03  0.23006218448E+03  0.27870060792E+03  0.00000000000E+00 0. -1.
         -2    1    6    6    0  503 -0.63656436196E+02  0.14628116675E+02  0.82341796549E+02  0.10510135644E+03  0.00000000000E+00 0.  1.
<mgrwt>
<rscale>  0 0.49276223E+03</rscale>
<asrwt>0</asrwt>
<pdfrwt beam="1">  1        2 0.25223796E+00 0.49276223E+03</pdfrwt>
<pdfrwt beam="2">  1       -2 0.23124990E-01 0.49276223E+03</pdfrwt>
<totfact> 0.18249025E+02</totfact>
</mgrwt>
</event>
<event>
12    1  0.3203156E-008  0.6371090E+03  0.7818608E-02  0.9831274E-01
         -1   -1    0    0    0  501 -0.00000000000E+00  0.00000000000E+00  0.17124155246E+04  0.17124155246E+04  0.00000000000E+00 0.  1.
          1   -1    0    0  501    0  0.00000000000E+00 -0.00000000000E+00 -0.31496357825E+03  0.31496357825E+03  0.00000000000E+00 0. -1.
         23    2    1    2    0    0 -0.23587544630E+03  0.55832404331E+03  0.52196762999E+03  0.80496638502E+03  0.90320046272E+02 0.  0.
    5000000    2    1    2    0    0  0.23587544630E+03 -0.55832404331E+03  0.87548431634E+03  0.12224127178E+04  0.60038079665E+03 0.  0.
         23    2    4    4    0    0  0.28699683485E+03 -0.40473744233E+03  0.90254118813E+03  0.10341256896E+04  0.93036364504E+02 0.  0.
         23    2    4    4    0    0 -0.51121388547E+02 -0.15358660098E+03 -0.27056871791E+02  0.18828702823E+03  0.92291333947E+02 0.  0.
          5    1    3    3  502    0 -0.15381471512E+03  0.34835941653E+03  0.26996771856E+03  0.46681678283E+03  0.47000000000E+01 0. -1.
         -5    1    3    3    0  502 -0.82060731180E+02  0.20996462678E+03  0.25199991143E+03  0.33814960219E+03  0.47000000000E+01 0.  1.
         11    1    5    5    0    0  0.69918225553E+02 -0.53105490511E+02  0.11429190171E+03  0.14412283019E+03  0.00000000000E+00 0.  1.
        -11    1    5    5    0    0  0.21707860930E+03 -0.35163195182E+03  0.78824928643E+03  0.89000285938E+03  0.00000000000E+00 0. -1.
          3    1    6    6  503    0 -0.14796213046E+02 -0.80161565630E+01 -0.34164938386E+02  0.38084507368E+02  0.00000000000E+00 0. -1.
         -3    1    6    6    0  503 -0.36325175501E+02 -0.14557044442E+03  0.71080665954E+01  0.15020252087E+03  0.00000000000E+00 0.  1.
<mgrwt>
<rscale>  0 0.63710895E+03</rscale>
<asrwt>0</asrwt>
<pdfrwt beam="1">  1        1 0.48455936E-01 0.63710895E+03</pdfrwt>
<pdfrwt beam="2">  1       -1 0.26344854E+00 0.63710895E+03</pdfrwt>
<totfact> 0.49651807E+00</totfact>
</mgrwt>
</event>
<event>
12    1  0.3203156E-008  0.1980660E+04  0.7818608E-02  0.8615717E-01
          1   -1    0    0  501    0  0.00000000000E+00  0.00000000000E+00  0.19551154915E+04  0.19551154915E+04  0.00000000000E+00 0. -1.
         -1   -1    0    0    0  501 -0.00000000000E+00 -0.00000000000E+00 -0.20843069082E+04  0.20843069082E+04  0.00000000000E+00 0.  1.
         23    2    1    2    0    0  0.16816831903E+03  0.19385527658E+04 -0.38962895189E+03  0.19865853616E+04  0.91887264311E+02 0.  0.
    5000000    2    1    2    0    0 -0.16816831903E+03 -0.19385527658E+04  0.26043753516E+03  0.20528370382E+04  0.60003732068E+03 0.  0.
         23    2    4    4    0    0  0.96455597211E+02 -0.14210134561E+04  0.31770518754E+03  0.14618443571E+04  0.86425769590E+02 0.  0.
         23    2    4    4    0    0 -0.26462391624E+03 -0.51753930971E+03 -0.57267652386E+02  0.59099268103E+03  0.90111103000E+02 0.  0.
          5    1    3    3  502    0  0.79129525612E+02  0.13284020007E+04 -0.28925265890E+03  0.13618379302E+04  0.47000000000E+01 0. -1.
         -5    1    3    3    0  502  0.89038793420E+02  0.61015076505E+03 -0.10037629299E+03  0.62474743139E+03  0.47000000000E+01 0.  1.
         11    1    5    5    0    0  0.39709635758E+02 -0.23194496300E+03  0.30702838467E+02  0.23731410688E+03  0.00000000000E+00 0. -1.
        -11    1    5    5    0    0  0.56745961454E+02 -0.11890684931E+04  0.28700234907E+03  0.12245302503E+04  0.00000000000E+00 0.  1.
          2    1    6    6  503    0 -0.44893162929E+02 -0.17931424752E+03 -0.15247884577E+02  0.18547639587E+03  0.00000000000E+00 0.  1.
         -2    1    6    6    0  503 -0.21973075331E+03 -0.33822506218E+03 -0.42019767809E+02  0.40551628516E+03  0.00000000000E+00 0. -1.
<mgrwt>
<rscale>  0 0.19806597E+04</rscale>
<asrwt>0</asrwt>
<pdfrwt beam="1">  1        1 0.30078700E+00 0.19806597E+04</pdfrwt>
<pdfrwt beam="2">  1       -1 0.32066260E+00 0.19806597E+04</pdfrwt>
<totfact> 0.69201458E-02</totfact>
</mgrwt>
</event>
<event>
12    1  0.3203156E-008  0.4801928E+03  0.7818608E-02  0.1019082E+00
         -2   -1    0    0    0  501 -0.00000000000E+00  0.00000000000E+00  0.61616542636E+03  0.61616542636E+03  0.00000000000E+00 0.  1.
          2   -1    0    0  501    0  0.00000000000E+00 -0.00000000000E+00 -0.57396098950E+03  0.57396098950E+03  0.00000000000E+00 0. -1.
         23    2    1    2    0    0  0.91876915296E+02 -0.27131862945E+03  0.34727745037E+03  0.45858096526E+03  0.87405422703E+02 0.  0.
    5000000    2    1    2    0    0 -0.91876915296E+02  0.27131862945E+03 -0.30507301350E+03  0.73154545060E+03  0.60002836306E+03 0.  0.
         23    2    4    4    0    0  0.14603853286E+03 -0.11028769568E+03 -0.10001664148E+03  0.22841024502E+03  0.93151932654E+02 0.  0.
         23    2    4    4    0    0 -0.23791544816E+03  0.38160632513E+03 -0.20505637202E+03  0.50313520558E+03  0.94179464506E+02 0.  0.
          5    1    3    3  502    0  0.10074206794E+03 -0.17271537861E+03  0.22126876459E+03  0.29826418230E+03  0.47000000000E+01 0. -1.
         -5    1    3    3    0  502 -0.88651526459E+01 -0.98603250839E+02  0.12600868578E+03  0.16031678296E+03  0.47000000000E+01 0.  1.
         11    1    5    5    0    0  0.12277320036E+03 -0.36656603256E+02 -0.62597538004E+02  0.14260230382E+03  0.00000000000E+00 0.  1.
        -11    1    5    5    0    0  0.23265332498E+02 -0.73631092427E+02 -0.37419103476E+02  0.85807941201E+02  0.00000000000E+00 0. -1.
          2    1    6    6  503    0 -0.51721553145E+01  0.52937197882E+02 -0.49210635915E+01  0.53416429842E+02  0.00000000000E+00 0.  1.
         -2    1    6    6    0  503 -0.23274329284E+03  0.32866912725E+03 -0.20013530843E+03  0.44971877574E+03  0.00000000000E+00 0. -1.
<mgrwt>
<rscale>  0 0.48019278E+03</rscale>
<asrwt>0</asrwt>
<pdfrwt beam="1">  1        2 0.88301690E-01 0.48019278E+03</pdfrwt>
<pdfrwt beam="2">  1       -2 0.94794682E-01 0.48019278E+03</pdfrwt>
<totfact> 0.50772139E+01</totfact>
</mgrwt>
</event>
<event>
12    1  0.3203156E-008  0.1471507E+04  0.7818608E-02  0.8903625E-01
         -2   -1    0    0    0  501 -0.00000000000E+00  0.00000000000E+00  0.88396760364E+03  0.88396760364E+03  0.00000000000E+00 0.  1.
          2   -1    0    0  501    0  0.00000000000E+00 -0.00000000000E+00 -0.24868724726E+04  0.24868724726E+04  0.00000000000E+00 0. -1.
         23    2    1    2    0    0  0.25273277562E+03  0.13925802586E+04 -0.62979914782E+03  0.15514642618E+04  0.85092634790E+02 0.  0.
    5000000    2    1    2    0    0 -0.25273277562E+03 -0.13925802586E+04 -0.97310572113E+03  0.18193758144E+04  0.60003331326E+03 0.  0.
         23    2    4    4    0    0  0.17116645615E+03 -0.64041533470E+03 -0.42572625594E+03  0.79339123753E+03  0.93792612533E+02 0.  0.
         23    2    4    4    0    0 -0.42389923176E+03 -0.75216492393E+03 -0.54737946519E+03  0.10259845769E+04  0.87048501613E+02 0.  0.
          5    1    3    3  502    0  0.81099759920E+02  0.49692570614E+03 -0.26753126562E+03  0.57018189779E+03  0.47000000000E+01 0. -1.
         -5    1    3    3    0  502  0.17163301570E+03  0.89565455248E+03 -0.36226788219E+03  0.98128236402E+03  0.47000000000E+01 0.  1.
         11    1    5    5    0    0  0.57333865339E+02 -0.28778940813E+03 -0.13810647882E+03  0.32431977282E+03  0.00000000000E+00 0.  1.
        -11    1    5    5    0    0  0.11383259081E+03 -0.35262592656E+03 -0.28761977712E+03  0.46907146471E+03  0.00000000000E+00 0. -1.
          4    1    6    6  503    0 -0.16417526678E+03 -0.27553272253E+03 -0.25288753121E+03  0.40844081928E+03  0.00000000000E+00 0. -1.
         -4    1    6    6    0  503 -0.25972396498E+03 -0.47663220140E+03 -0.29449193398E+03  0.61754375762E+03  0.00000000000E+00 0.  1.
<mgrwt>
<rscale>  0 0.14715067E+04</rscale>
<asrwt>0</asrwt>
<pdfrwt beam="1">  1        2 0.38259577E+00 0.14715067E+04</pdfrwt>
<pdfrwt beam="2">  1       -2 0.13599502E+00 0.14715067E+04</pdfrwt>
<totfact> 0.13025223E+00</totfact>
</mgrwt>
</event>
<event>
12    1  0.3203156E-008  0.3691101E+03  0.7818608E-02  0.1055034E+00
         -2   -1    0    0    0  501 -0.00000000000E+00  0.00000000000E+00  0.50069131811E+03  0.50069131811E+03  0.00000000000E+00 0.  1.
          2   -1    0    0  501    0  0.00000000000E+00 -0.00000000000E+00 -0.88064665766E+03  0.88064665766E+03  0.00000000000E+00 0. -1.
         23    2    1    2    0    0 -0.27256506148E+03  0.97675084881E+02  0.30153203145E+03  0.42845117356E+03  0.93897322553E+02 0.  0.
    5000000    2    1    2    0    0  0.27256506148E+03 -0.97675084881E+02 -0.68148737099E+03  0.95288680222E+03  0.59978003140E+03 0.  0.
         23    2    4    4    0    0  0.96725728993E+02  0.11984686231E+03  0.30911942648E+02  0.18197054382E+03  0.91861817783E+02 0.  0.
         23    2    4    4    0    0  0.17583933249E+03 -0.21752194719E+03 -0.71239931364E+03  0.77091625839E+03  0.92540947793E+02 0.  0.
          5    1    3    3  502    0 -0.13767841737E+03  0.18823535247E+02  0.90753054599E+02  0.16603577629E+03  0.47000000000E+01 0. -1.
         -5    1    3    3    0  502 -0.13488664411E+03  0.78851549634E+02  0.21077897685E+03  0.26241539726E+03  0.47000000000E+01 0.  1.
         13    1    5    5    0    0  0.18579131403E+02  0.22676701889E+02  0.47863928225E+02  0.56128179709E+02  0.00000000000E+00 0. -1.
        -13    1    5    5    0    0  0.78146597590E+02  0.97170160418E+02 -0.16951985577E+02  0.12584236411E+03  0.00000000000E+00 0.  1.
          4    1    6    6  503    0  0.70897855337E+02 -0.14466322671E+03 -0.32036714595E+03  0.35859317236E+03  0.00000000000E+00 0. -1.
         -4    1    6    6    0  503  0.10494147715E+03 -0.72858720476E+02 -0.39203216769E+03  0.41232308604E+03  0.00000000000E+00 0.  1.
<mgrwt>
<rscale>  0 0.36911013E+03</rscale>
<asrwt>0</asrwt>
<pdfrwt beam="1">  1        2 0.13548410E+00 0.36911013E+03</pdfrwt>
<pdfrwt beam="2">  1       -2 0.77029434E-01 0.36911013E+03</pdfrwt>
<totfact> 0.48231648E+01</totfact>
</mgrwt>
</event>
<event>
12    1  0.3203156E-008  0.6172927E+03  0.7818608E-02  0.9870165E-01
          2   -1    0    0  501    0  0.00000000000E+00  0.00000000000E+00  0.24302134315E+04  0.24302134315E+04  0.00000000000E+00 0.  1.
         -2   -1    0    0    0  501 -0.00000000000E+00 -0.00000000000E+00 -0.30140671094E+03  0.30140671094E+03  0.00000000000E+00 0. -1.
         23    2    1    2    0    0 -0.45269341875E+03  0.25387143868E+03  0.17957511420E+04  0.18714948536E+04  0.91590306392E+02 0.  0.
    5000000    2    1    2    0    0  0.45269341875E+03 -0.25387143868E+03  0.33305557850E+03  0.86012528880E+03  0.59958940560E+03 0.  0.
         23    2    4    4    0    0  0.54125312201E+03 -0.26273099747E+03  0.38778564708E+03  0.72162182184E+03  0.91530467920E+02 0.  0.
         23    2    4    4    0    0 -0.88559703261E+02  0.88595587968E+01 -0.54730068586E+02  0.13850346695E+03  0.90920388947E+02 0.  0.
          5    1    3    3  502    0 -0.22815293926E+03  0.76171210136E+02  0.83543907888E+03  0.86938849858E+03  0.47000000000E+01 0. -1.
         -5    1    3    3    0  502 -0.22454047949E+03  0.17770022854E+03  0.96031206314E+03  0.10021063550E+04  0.47000000000E+01 0.  1.
         13    1    5    5    0    0  0.24032439474E+03 -0.15802482596E+03  0.21551420404E+03  0.35940789150E+03  0.00000000000E+00 0. -1.
        -13    1    5    5    0    0  0.30092872727E+03 -0.10470617151E+03  0.17227144304E+03  0.36221393035E+03  0.00000000000E+00 0.  1.
          3    1    6    6  503    0 -0.23884723558E+02 -0.19420048231E+02  0.19205220955E+02  0.36283037424E+02  0.00000000000E+00 0. -1.
         -3    1    6    6    0  503 -0.64674979703E+02  0.28279607028E+02 -0.73935289541E+02  0.10222042953E+03  0.00000000000E+00 0.  1.
<mgrwt>
<rscale>  0 0.61729266E+03</rscale>
<asrwt>0</asrwt>
<pdfrwt beam="1">  1        2 0.37387898E+00 0.61729266E+03</pdfrwt>
<pdfrwt beam="2">  1       -2 0.46370265E-01 0.61729266E+03</pdfrwt>
<totfact> 0.17994513E+01</totfact>
</mgrwt>
</event>
<event>
12    1  0.3203156E-008  0.5790037E+03  0.7818608E-02  0.9949950E-01
          2   -1    0    0  501    0  0.00000000000E+00  0.00000000000E+00  0.34474385377E+03  0.34474385377E+03  0.00000000000E+00 0. -1.
         -2   -1    0    0    0  501 -0.00000000000E+00 -0.00000000000E+00 -0.11029563525E+04  0.11029563525E+04  0.00000000000E+00 0.  1.
         23    2    1    2    0    0 -0.37812918199E+03 -0.21700861278E+03 -0.48058386183E+03  0.65582717628E+03  0.95257653792E+02 0.  0.
    5000000    2    1    2    0    0  0.37812918199E+03  0.21700861278E+03 -0.27762863690E+03  0.79187303000E+03  0.59992567816E+03 0.  0.
         23    2    4    4    0    0 -0.12372499175E+03  0.16670728904E+03 -0.55306239232E+02  0.23301508550E+03  0.90211175411E+02 0.  0.
         23    2    4    4    0    0  0.50185417373E+03  0.50301323740E+02 -0.22232239767E+03  0.55885794450E+03  0.92234043408E+02 0.  0.
          5    1    3    3  502    0 -0.30484399335E+03 -0.14387089456E+03 -0.32073866010E+03  0.46532147239E+03  0.47000000000E+01 0. -1.
         -5    1    3    3    0  502 -0.73285188642E+02 -0.73137718221E+02 -0.15984520173E+03  0.19050570389E+03  0.47000000000E+01 0.  1.
         13    1    5    5    0    0 -0.16376057868E+02  0.37903612301E+02 -0.50556552249E+02  0.65274988105E+02  0.00000000000E+00 0. -1.
        -13    1    5    5    0    0 -0.10734893388E+03  0.12880367674E+03 -0.47496869824E+01  0.16774009739E+03  0.00000000000E+00 0.  1.
          2    1    6    6  503    0  0.42381944398E+03  0.65289793525E+02 -0.21314073557E+03  0.47886809393E+03  0.00000000000E+00 0. -1.
         -2    1    6    6    0  503  0.78034729757E+02 -0.14988469785E+02 -0.91816621030E+01  0.79989850567E+02  0.00000000000E+00 0.  1.
<mgrwt>
<rscale>  0 0.57900374E+03</rscale>
<asrwt>0</asrwt>
<pdfrwt beam="1">  1        2 0.53037516E-01 0.57900374E+03</pdfrwt>
<pdfrwt beam="2">  1       -2 0.16968559E+00 0.57900374E+03</pdfrwt>
<totfact> 0.20745278E+01</totfact>
</mgrwt>
</event>
<event>
12    1  0.3952294E-008  0.1099597E+04  0.7818608E-02  0.9205585E-01
         -2   -1    0    0    0  501 -0.00000000000E+00  0.00000000000E+00  0.83913464466E+03  0.83913464466E+03  0.00000000000E+00 0.  1.
          2   -1    0    0  501    0  0.00000000000E+00 -0.00000000000E+00 -0.15627487401E+04  0.15627487401E+04  0.00000000000E+00 0. -1.
         23    2    1    2    0    0 -0.86290052195E+03  0.61714500818E+03 -0.24522359022E+03  0.10926043058E+04  0.90467054486E+02 0.  0.
    5000000    2    1    2    0    0  0.86290052195E+03 -0.61714500818E+03 -0.47839050524E+03  0.13092790790E+04  0.59990745888E+03 0.  0.
         23    2    4    4    0    0  0.18801414367E+03  0.35646386725E+02 -0.27085515237E+03  0.34337184651E+03  0.89004091513E+02 0.  0.
         23    2    4    4    0    0  0.67488637828E+03 -0.65279139491E+03 -0.20753535287E+03  0.96590723246E+03  0.91091328763E+02 0.  0.
          5    1    3    3  502    0 -0.28134630448E+03  0.17345069867E+03 -0.40667468832E+02  0.33304177055E+03  0.47000000000E+01 0. -1.
         -5    1    3    3    0  502 -0.58155421748E+03  0.44369430951E+03 -0.20455612139E+03  0.75956253525E+03  0.47000000000E+01 0.  1.
         13    1    5    5    0    0  0.15107777257E+03  0.44888379938E+02 -0.15353659297E+03  0.22002941940E+03  0.00000000000E+00 0.  1.
        -13    1    5    5    0    0  0.36936371105E+02 -0.92419932131E+01 -0.11731855939E+03  0.12334242712E+03  0.00000000000E+00 0. -1.
          1    1    6    6  503    0  0.27663518419E+03 -0.31521220958E+03 -0.62164221547E+02  0.42396951852E+03  0.00000000000E+00 0. -1.
         -1    1    6    6    0  503  0.39825119409E+03 -0.33757918533E+03 -0.14537113133E+03  0.54193771394E+03  0.00000000000E+00 0.  1.
<mgrwt>
<rscale>  0 0.10995968E+04</rscale>
<asrwt>0</asrwt>
<pdfrwt beam="1">  1        2 0.24042288E+00 0.10995968E+04</pdfrwt>
<pdfrwt beam="2">  1       -2 0.12909764E+00 0.10995968E+04</pdfrwt>
<totfact> 0.50868784E+00</totfact>
</mgrwt>
</event>
<event>
12    1  0.3203156E-008  0.7789979E+03  0.7818608E-02  0.9590924E-01
          1   -1    0    0  501    0  0.00000000000E+00  0.00000000000E+00  0.24185361695E+04  0.24185361695E+04  0.00000000000E+00 0. -1.
         -1   -1    0    0    0  501 -0.00000000000E+00 -0.00000000000E+00 -0.35985652106E+03  0.35985652106E+03  0.00000000000E+00 0.  1.
         23    2    1    2    0    0  0.68706771302E+03  0.24252203334E+03  0.15282910956E+04  0.16955296857E+04  0.90929990211E+02 0.  0.
    5000000    2    1    2    0    0 -0.68706771302E+03 -0.24252203334E+03  0.53038855286E+03  0.10828630049E+04  0.60033431645E+03 0.  0.
         23    2    4    4    0    0 -0.23690543332E+03  0.93018827559E+02 -0.45162396677E+02  0.27373711031E+03  0.90087051624E+02 0.  0.
         23    2    4    4    0    0 -0.45016227971E+03 -0.33554086090E+03  0.57555094954E+03  0.80912589462E+03  0.90510057083E+02 0.  0.
          5    1    3    3  502    0  0.54513113035E+03  0.20582168578E+03  0.11364366508E+04  0.12771221034E+04  0.47000000000E+01 0.  1.
         -5    1    3    3    0  502  0.14193658267E+03  0.36700347562E+02  0.39185444481E+03  0.41840758230E+03  0.47000000000E+01 0. -1.
         13    1    5    5    0    0 -0.10672434348E+03  0.70262308465E+02 -0.59226835807E+02  0.14083570415E+03  0.00000000000E+00 0.  1.
        -13    1    5    5    0    0 -0.13018108983E+03  0.22756519094E+02  0.14064439130E+02  0.13290140616E+03  0.00000000000E+00 0. -1.
          3    1    6    6  503    0 -0.21617795762E+03 -0.10550843169E+03  0.24775751183E+03  0.34532408429E+03  0.00000000000E+00 0. -1.
         -3    1    6    6    0  503 -0.23398432208E+03 -0.23003242921E+03  0.32779343770E+03  0.46380181033E+03  0.00000000000E+00 0.  1.
<mgrwt>
<rscale>  0 0.77899787E+03</rscale>
<asrwt>0</asrwt>
<pdfrwt beam="1">  1        1 0.37208248E+00 0.77899787E+03</pdfrwt>
<pdfrwt beam="2">  1       -1 0.55362543E-01 0.77899787E+03</pdfrwt>
<totfact> 0.53504890E+00</totfact>
</mgrwt>
</event>
<event>
12    1  0.3203156E-008  0.8791748E+03  0.7818608E-02  0.9451995E-01
         -2   -1    0    0    0  501 -0.00000000000E+00  0.00000000000E+00  0.81920016367E+03  0.81920016367E+03  0.00000000000E+00 0.  1.
          2   -1    0    0  501    0  0.00000000000E+00 -0.00000000000E+00 -0.18640921802E+04  0.18640921802E+04  0.00000000000E+00 0. -1.
         23    2    1    2    0    0  0.65905375601E+03  0.51659760036E+03  0.38079982669E+03  0.92437585891E+03  0.90759498202E+02 0.  0.
    5000000    2    1    2    0    0 -0.65905375601E+03 -0.51659760036E+03 -0.14256918432E+04  0.17589164849E+04  0.59997086202E+03 0.  0.
         23    2    4    4    0    0 -0.17461061540E+03  0.24640870650E+02 -0.57635213118E+02  0.20726969284E+03  0.92427637972E+02 0.  0.
         23    2    4    4    0    0 -0.48444314061E+03 -0.54123847101E+03 -0.13680566301E+04  0.15516467921E+04  0.91676525844E+02 0.  0.
          5    1    3    3  502    0  0.42159265803E+02  0.65549572767E+02  0.34723161391E+02  0.85451378690E+02  0.47000000000E+01 0. -1.
         -5    1    3    3    0  502  0.61689449020E+03  0.45104802759E+03  0.34607666530E+03  0.83892448022E+03  0.47000000000E+01 0.  1.
         11    1    5    5    0    0 -0.68782723163E+02  0.37003684610E+02  0.13355388246E+02  0.79238261437E+02  0.00000000000E+00 0.  1.
        -11    1    5    5    0    0 -0.10582789224E+03 -0.12362813960E+02 -0.70990601364E+02  0.12803143140E+03  0.00000000000E+00 0. -1.
          4    1    6    6  503    0 -0.25052274030E+03 -0.21601810700E+03 -0.65349681943E+03  0.73245037987E+03  0.00000000000E+00 0. -1.
         -4    1    6    6    0  503 -0.23392040031E+03 -0.32522036401E+03 -0.71455981064E+03  0.81919641225E+03  0.00000000000E+00 0.  1.
<mgrwt>
<rscale>  0 0.87917480E+03</rscale>
<asrwt>0</asrwt>
<pdfrwt beam="1">  1        2 0.28678341E+00 0.87917480E+03</pdfrwt>
<pdfrwt beam="2">  1       -2 0.12603080E+00 0.87917480E+03</pdfrwt>
<totfact> 0.37824954E+00</totfact>
</mgrwt>
</event>
<event>
12    1  0.3203156E-008  0.8153528E+03  0.7818608E-02  0.9538057E-01
          2   -1    0    0  501    0  0.00000000000E+00  0.00000000000E+00  0.33174840037E+04  0.33174840037E+04  0.00000000000E+00 0.  1.
         -2   -1    0    0    0  501 -0.00000000000E+00 -0.00000000000E+00 -0.27873287861E+03  0.27873287861E+03  0.00000000000E+00 0. -1.
         23    2    1    2    0    0 -0.44677428042E+03  0.61779055124E+03  0.21402665482E+04  0.22739555068E+04  0.94129309247E+02 0.  0.
    5000000    2    1    2    0    0  0.44677428042E+03 -0.61779055124E+03  0.89848457688E+03  0.13222613755E+04  0.59985680570E+03 0.  0.
         23    2    4    4    0    0  0.66640621668E+02 -0.42251462062E+03  0.73420703281E+03  0.85456510518E+03  0.90895406265E+02 0.  0.
         23    2    4    4    0    0  0.38013365875E+03 -0.19527593063E+03  0.16427754407E+03  0.46769627029E+03  0.95490324975E+02 0.  0.
          5    1    3    3  502    0 -0.33355107047E+03  0.41705169260E+03  0.13894989947E+04  0.14885959751E+04  0.47000000000E+01 0. -1.
         -5    1    3    3    0  502 -0.11322320995E+03  0.20073885864E+03  0.75076755354E+03  0.78535953174E+03  0.47000000000E+01 0.  1.
         11    1    5    5    0    0  0.70433023092E+02 -0.38511590415E+03  0.61028773971E+03  0.72506978672E+03  0.00000000000E+00 0. -1.
        -11    1    5    5    0    0 -0.37924014241E+01 -0.37398716461E+02  0.12391929310E+03  0.12949531846E+03  0.00000000000E+00 0.  1.
          4    1    6    6  503    0  0.30271643487E+03 -0.11053862283E+03  0.10814793460E+03  0.33992940860E+03  0.00000000000E+00 0.  1.
         -4    1    6    6    0  503  0.77417223882E+02 -0.84737307799E+02  0.56129609469E+02  0.12776686169E+03  0.00000000000E+00 0. -1.
<mgrwt>
<rscale>  0 0.81535281E+03</rscale>
<asrwt>0</asrwt>
<pdfrwt beam="1">  1        2 0.51038213E+00 0.81535281E+03</pdfrwt>
<pdfrwt beam="2">  1       -2 0.42881984E-01 0.81535281E+03</pdfrwt>
<totfact> 0.59426092E+00</totfact>
</mgrwt>
</event>
<event>
12    1  0.3203156E-008  0.5157380E+03  0.7818608E-02  0.1009751E+00
         -2   -1    0    0    0  501 -0.00000000000E+00  0.00000000000E+00  0.14781793377E+03  0.14781793377E+03  0.00000000000E+00 0. -1.
          2   -1    0    0  501    0  0.00000000000E+00 -0.00000000000E+00 -0.20146505866E+04  0.20146505866E+04  0.00000000000E+00 0.  1.
         23    2    1    2    0    0  0.30702272789E+03 -0.18593234422E+03 -0.45212375227E+03  0.58445179854E+03  0.91291978747E+02 0.  0.
    5000000    2    1    2    0    0 -0.30702272789E+03  0.18593234422E+03 -0.14147089006E+04  0.15780167219E+04  0.59991808523E+03 0.  0.
         23    2    4    4    0    0 -0.34958723867E+03 -0.87195262789E+02 -0.10299544468E+04  0.10950743996E+04  0.92560936256E+02 0.  0.
         23    2    4    4    0    0  0.42564510786E+02  0.27312760701E+03 -0.38475445378E+03  0.48294232223E+03  0.93738303842E+02 0.  0.
          5    1    3    3  502    0  0.12398360828E+03 -0.27443546753E+02 -0.13439108174E+03  0.18495441663E+03  0.47000000000E+01 0. -1.
         -5    1    3    3    0  502  0.18303911961E+03 -0.15848879747E+03 -0.31773267052E+03  0.39949738190E+03  0.47000000000E+01 0.  1.
         13    1    5    5    0    0 -0.20574693539E+03 -0.49734058497E+01 -0.59889147068E+03  0.63326734468E+03  0.00000000000E+00 0. -1.
        -13    1    5    5    0    0 -0.14384030328E+03 -0.82221856940E+02 -0.43106297614E+03  0.46180705496E+03  0.00000000000E+00 0.  1.
          3    1    6    6  503    0 -0.14721709591E+02  0.18534584132E+03 -0.22518519318E+03  0.29202428128E+03  0.00000000000E+00 0. -1.
         -3    1    6    6    0  503  0.57286220376E+02  0.87781765691E+02 -0.15956926060E+03  0.19091804095E+03  0.00000000000E+00 0.  1.
<mgrwt>
<rscale>  0 0.51573799E+03</rscale>
<asrwt>0</asrwt>
<pdfrwt beam="1">  1        2 0.30994621E+00 0.51573799E+03</pdfrwt>
<pdfrwt beam="2">  1       -2 0.22741223E-01 0.51573799E+03</pdfrwt>
<totfact> 0.11768371E+02</totfact>
</mgrwt>
</event>
<event>
12    1  0.3203156E-008  0.5103353E+03  0.7818608E-02  0.1011116E+00
          2   -1    0    0  501    0  0.00000000000E+00  0.00000000000E+00  0.16545717987E+04  0.16545717987E+04  0.00000000000E+00 0. -1.
         -2   -1    0    0    0  501 -0.00000000000E+00 -0.00000000000E+00 -0.23291087495E+03  0.23291087495E+03  0.00000000000E+00 0.  1.
         23    2    1    2    0    0 -0.15411100826E+03  0.30618679456E+03  0.10380722100E+04  0.10969633726E+04  0.90742335976E+02 0.  0.
    5000000    2    1    2    0    0  0.15411100826E+03 -0.30618679456E+03  0.38358871373E+03  0.79051930107E+03  0.60023321137E+03 0.  0.
         23    2    4    4    0    0 -0.17093858677E+03 -0.27206143424E+03  0.28314971345E+03  0.43613757955E+03  0.82491233623E+02 0.  0.
         23    2    4    4    0    0  0.32504959504E+03 -0.34125360325E+02  0.10043900029E+03  0.35438172152E+03  0.93148442364E+02 0.  0.
          5    1    3    3  502    0 -0.14123491470E+03  0.21325519710E+03  0.67252986989E+03  0.71954401958E+03  0.47000000000E+01 0. -1.
         -5    1    3    3    0  502 -0.12876093566E+02  0.92931597462E+02  0.36554234013E+03  0.37741935300E+03  0.47000000000E+01 0.  1.
         11    1    5    5    0    0 -0.18102974981E+02 -0.97561024452E+02  0.73701759215E+02  0.12360348096E+03  0.00000000000E+00 0.  1.
        -11    1    5    5    0    0 -0.15283561179E+03 -0.17450040979E+03  0.20944795423E+03  0.31253409859E+03  0.00000000000E+00 0. -1.
          1    1    6    6  503    0  0.45077770255E+02  0.27818390956E+02  0.12029110896E+02  0.54319128818E+02  0.00000000000E+00 0. -1.
         -1    1    6    6    0  503  0.27997182478E+03 -0.61943751282E+02  0.88409889391E+02  0.30006259270E+03  0.00000000000E+00 0.  1.
<mgrwt>
<rscale>  0 0.51033535E+03</rscale>
<asrwt>0</asrwt>
<pdfrwt beam="1">  1        2 0.25454950E+00 0.51033535E+03</pdfrwt>
<pdfrwt beam="2">  1       -2 0.35832443E-01 0.51033535E+03</pdfrwt>
<totfact> 0.80069077E+01</totfact>
</mgrwt>
</event>
<event>
12    1  0.3203156E-008  0.7561610E+03  0.7818608E-02  0.9625734E-01
         -2   -1    0    0    0  501 -0.00000000000E+00  0.00000000000E+00  0.76909028114E+03  0.76909028114E+03  0.00000000000E+00 0.  1.
          2   -1    0    0  501    0  0.00000000000E+00 -0.00000000000E+00 -0.81334881962E+03  0.81334881962E+03  0.00000000000E+00 0. -1.
         23    2    1    2    0    0 -0.30889363724E+02  0.64622859516E+03  0.16912477729E+03  0.67469537715E+03  0.89694546427E+02 0.  0.
    5000000    2    1    2    0    0  0.30889363724E+02 -0.64622859516E+03 -0.21338331577E+03  0.90774372361E+03  0.59991722621E+03 0.  0.
         23    2    4    4    0    0 -0.20179446212E+03 -0.58449342747E+03 -0.17012304445E+03  0.64763918340E+03  0.90227988563E+02 0.  0.
         23    2    4    4    0    0  0.23268382584E+03 -0.61735167692E+02 -0.43260271317E+02  0.26010454021E+03  0.88486874869E+02 0.  0.
          5    1    3    3  502    0 -0.35542515757E+02  0.56578370355E+03  0.17620122883E+03  0.59366946416E+03  0.47000000000E+01 0. -1.
         -5    1    3    3    0  502  0.46531520338E+01  0.80444891612E+02 -0.70764515405E+01  0.81025912995E+02  0.47000000000E+01 0.  1.
         13    1    5    5    0    0 -0.14814392036E+03 -0.30260107921E+03 -0.73372671519E+02  0.34481528853E+03  0.00000000000E+00 0. -1.
        -13    1    5    5    0    0 -0.53650541753E+02 -0.28189234826E+03 -0.96750372935E+02  0.30282389487E+03  0.00000000000E+00 0.  1.
          2    1    6    6  503    0  0.10456423045E+03 -0.30979598402E+02 -0.64411850204E+02  0.12665820247E+03  0.00000000000E+00 0.  1.
         -2    1    6    6    0  503  0.12811959539E+03 -0.30755569290E+02  0.21151578888E+02  0.13344633773E+03  0.00000000000E+00 0. -1.
<mgrwt>
<rscale>  0 0.75616097E+03</rscale>
<asrwt>0</asrwt>
<pdfrwt beam="1">  1        2 0.12513059E+00 0.75616097E+03</pdfrwt>
<pdfrwt beam="2">  1       -2 0.11832158E+00 0.75616097E+03</pdfrwt>
<totfact> 0.18789115E+01</totfact>
</mgrwt>
</event>
<event>
12    1  0.3203156E-008  0.2580385E+03  0.7818608E-02  0.1108328E+00
          2   -1    0    0  501    0  0.00000000000E+00  0.00000000000E+00  0.39501039567E+03  0.39501039567E+03  0.00000000000E+00 0.  1.
         -2   -1    0    0    0  501 -0.00000000000E+00 -0.00000000000E+00 -0.62146487229E+03  0.62146487229E+03  0.00000000000E+00 0. -1.
         23    2    1    2    0    0 -0.22667511323E+03 -0.13541408592E+02  0.13803719000E+03  0.27872955842E+03  0.84088787653E+02 0.  0.
    5000000    2    1    2    0    0  0.22667511323E+03  0.13541408592E+02 -0.36449166662E+03  0.73774570954E+03  0.59987463708E+03 0.  0.
         23    2    4    4    0    0  0.15682451493E+03 -0.28463679957E+02 -0.51244034216E+03  0.54441319768E+03  0.91577922938E+02 0.  0.
         23    2    4    4    0    0  0.69850598302E+02  0.42005088548E+02  0.14794867555E+03  0.19333251186E+03  0.94048476865E+02 0.  0.
          5    1    3    3  502    0 -0.32948674982E+01 -0.16708019225E+01  0.29406692737E+02  0.30008187360E+02  0.47000000000E+01 0. -1.
         -5    1    3    3    0  502 -0.22338024573E+03 -0.11870606669E+02  0.10863049726E+03  0.24872137106E+03  0.47000000000E+01 0.  1.
         13    1    5    5    0    0  0.55055964697E+02  0.21306030747E+02 -0.94782379901E+02  0.11166380674E+03  0.00000000000E+00 0. -1.
        -13    1    5    5    0    0  0.10176855023E+03 -0.49769710704E+02 -0.41765796226E+03  0.43274939094E+03  0.00000000000E+00 0.  1.
          2    1    6    6  503    0  0.62357566173E+02  0.64864164871E+02  0.14271965608E+03  0.16871492576E+03  0.00000000000E+00 0. -1.
         -2    1    6    6    0  503  0.74930321296E+01 -0.22859076322E+02  0.52290194633E+01  0.24617586099E+02  0.00000000000E+00 0.  1.
<mgrwt>
<rscale>  0 0.25803848E+03</rscale>
<asrwt>0</asrwt>
<pdfrwt beam="1">  1        2 0.60770831E-01 0.25803848E+03</pdfrwt>
<pdfrwt beam="2">  1       -2 0.95609979E-01 0.25803848E+03</pdfrwt>
<totfact> 0.77995723E+01</totfact>
</mgrwt>
</event>
<event>
12    1  0.3203156E-008  0.6073687E+03  0.7818608E-02  0.9890235E-01
         -2   -1    0    0    0  501 -0.00000000000E+00  0.00000000000E+00  0.11170774774E+04  0.11170774774E+04  0.00000000000E+00 0.  1.
          2   -1    0    0  501    0  0.00000000000E+00 -0.00000000000E+00 -0.41479939883E+03  0.41479939883E+03  0.00000000000E+00 0. -1.
         23    2    1    2    0    0 -0.43527137208E+03 -0.29643081432E+03  0.12980797363E+03  0.54943610437E+03  0.87735555672E+02 0.  0.
    5000000    2    1    2    0    0  0.43527137208E+03  0.29643081432E+03  0.57247010490E+03  0.98244077183E+03  0.60011286780E+03 0.  0.
         23    2    4    4    0    0  0.13905057149E+03 -0.10605757042E+03  0.40085287884E+03  0.44697559278E+03  0.92308614918E+02 0.  0.
         23    2    4    4    0    0  0.29622080059E+03  0.40248838475E+03  0.17161722606E+03  0.53546517905E+03  0.86757265575E+02 0.  0.
          5    1    3    3  502    0 -0.30001846661E+03 -0.21977427157E+03  0.52087695774E+02  0.37556228352E+03  0.47000000000E+01 0. -1.
         -5    1    3    3    0  502 -0.13525290547E+03 -0.76656542749E+02  0.77720277860E+02  0.17387382085E+03  0.47000000000E+01 0.  1.
         13    1    5    5    0    0  0.82636139453E+02 -0.96940398269E+02  0.34195697195E+03  0.36491196613E+03  0.00000000000E+00 0. -1.
        -13    1    5    5    0    0  0.56414432036E+02 -0.91171721551E+01  0.58895906895E+02  0.82063626650E+02  0.00000000000E+00 0.  1.
          4    1    6    6  503    0  0.23974431048E+03  0.35792438512E+03  0.17107105973E+03  0.46352185207E+03  0.00000000000E+00 0. -1.
         -4    1    6    6    0  503  0.56476490119E+02  0.44563999627E+02  0.54616633053E+00  0.71943326977E+02  0.00000000000E+00 0.  1.
<mgrwt>
<rscale>  0 0.60736866E+03</rscale>
<asrwt>0</asrwt>
<pdfrwt beam="1">  1        2 0.63815292E-01 0.60736866E+03</pdfrwt>
<pdfrwt beam="2">  1       -2 0.17185807E+00 0.60736866E+03</pdfrwt>
<totfact> 0.16244451E+01</totfact>
</mgrwt>
</event>
<event>
12    1  0.3203156E-008  0.4825459E+03  0.7818608E-02  0.1018438E+00
          1   -1    0    0  501    0  0.00000000000E+00  0.00000000000E+00  0.52144169340E+03  0.52144169340E+03  0.00000000000E+00 0. -1.
         -1   -1    0    0    0  501 -0.00000000000E+00 -0.00000000000E+00 -0.65047165622E+03  0.65047165622E+03  0.00000000000E+00 0.  1.
         23    2    1    2    0    0 -0.10997544590E+03 -0.30324663883E+03  0.22547309596E+03  0.40409413669E+03  0.91656050790E+02 0.  0.
    5000000    2    1    2    0    0  0.10997544590E+03  0.30324663883E+03 -0.35450305877E+03  0.76781921293E+03  0.59985065008E+03 0.  0.
         23    2    4    4    0    0  0.47008213667E+02 -0.15716948287E+03 -0.18818325793E+03  0.26598695033E+03  0.91782899753E+02 0.  0.
         23    2    4    4    0    0  0.62967232237E+02  0.46041612170E+03 -0.16631980084E+03  0.50183226259E+03  0.90694355813E+02 0.  0.
          5    1    3    3  502    0 -0.44106862519E+02 -0.17056438536E+03  0.17276267599E+03  0.24679274117E+03  0.47000000000E+01 0. -1.
         -5    1    3    3    0  502 -0.65868583385E+02 -0.13268225347E+03  0.52710419962E+02  0.15730139553E+03  0.47000000000E+01 0.  1.
         13    1    5    5    0    0  0.41801089691E+02 -0.72259781879E+02 -0.15226156313E+03  0.17364443781E+03  0.00000000000E+00 0.  1.
        -13    1    5    5    0    0  0.52071239762E+01 -0.84909700988E+02 -0.35921694802E+02  0.92342512525E+02  0.00000000000E+00 0. -1.
          3    1    6    6  503    0  0.83499858966E+02  0.38384455498E+03 -0.12377326172E+03  0.41186003587E+03  0.00000000000E+00 0. -1.
         -3    1    6    6    0  503 -0.20532626729E+02  0.76571566719E+02 -0.42546539118E+02  0.89972226721E+02  0.00000000000E+00 0.  1.
<mgrwt>
<rscale>  0 0.48254586E+03</rscale>
<asrwt>0</asrwt>
<pdfrwt beam="1">  1        1 0.80221799E-01 0.48254586E+03</pdfrwt>
<pdfrwt beam="2">  1       -1 0.10007256E+00 0.48254586E+03</pdfrwt>
<totfact> 0.41904566E+01</totfact>
</mgrwt>
</event>
<event>
12    1  0.3203156E-008  0.6529220E+03  0.7818608E-02  0.9801312E-01
          2   -1    0    0  501    0  0.00000000000E+00  0.00000000000E+00  0.21276352636E+04  0.21276352636E+04  0.00000000000E+00 0. -1.
         -2   -1    0    0    0  501 -0.00000000000E+00 -0.00000000000E+00 -0.32117943923E+03  0.32117943923E+03  0.00000000000E+00 0.  1.
         23    2    1    2    0    0  0.28471791079E+02 -0.53512989308E+03  0.86803994990E+02  0.55021028482E+03  0.89564382554E+02 0.  0.
    5000000    2    1    2    0    0 -0.28471791079E+02  0.53512989308E+03  0.17196518293E+04  0.18986044180E+04  0.60026800385E+03 0.  0.
         23    2    4    4    0    0  0.17575932207E+03  0.52857974318E+03  0.13931650819E+04  0.15030776215E+04  0.89696749087E+02 0.  0.
         23    2    4    4    0    0 -0.20423111315E+03  0.65501499042E+01  0.32648674745E+03  0.39552679643E+03  0.89969986049E+02 0.  0.
          5    1    3    3  502    0  0.16641375237E+00 -0.14794535843E+03 -0.15170186840E+02  0.14879543455E+03  0.47000000000E+01 0. -1.
         -5    1    3    3    0  502  0.28305377327E+02 -0.38718453465E+03  0.10197418183E+03  0.40141485027E+03  0.47000000000E+01 0.  1.
         11    1    5    5    0    0  0.17173540680E+03  0.40940798939E+03  0.11334028033E+04  0.12172550539E+04  0.00000000000E+00 0.  1.
        -11    1    5    5    0    0  0.40239152704E+01  0.11917175379E+03  0.25976227863E+03  0.28582256768E+03  0.00000000000E+00 0. -1.
          2    1    6    6  503    0 -0.13977371600E+03 -0.89991291531E+01  0.28432316999E+03  0.31695006074E+03  0.00000000000E+00 0.  1.
         -2    1    6    6    0  503 -0.64457397153E+02  0.15549279057E+02  0.42163577452E+02  0.78576735682E+02  0.00000000000E+00 0. -1.
<mgrwt>
<rscale>  0 0.65292196E+03</rscale>
<asrwt>0</asrwt>
<pdfrwt beam="1">  1        2 0.32732849E+00 0.65292196E+03</pdfrwt>
<pdfrwt beam="2">  1       -2 0.49412223E-01 0.65292196E+03</pdfrwt>
<totfact> 0.23116198E+01</totfact>
</mgrwt>
</event>
<event>
12    1  0.3203156E-008  0.1085521E+04  0.7818608E-02  0.9219420E-01
         -1   -1    0    0    0  501 -0.00000000000E+00  0.00000000000E+00  0.36669193831E+03  0.36669193831E+03  0.00000000000E+00 0.  1.
          1   -1    0    0  501    0  0.00000000000E+00 -0.00000000000E+00 -0.34996351407E+04  0.34996351407E+04  0.00000000000E+00 0. -1.
         23    2    1    2    0    0  0.10343603837E+04  0.18700745702E+03 -0.14262157263E+04  0.17740124912E+04  0.90309626468E+02 0.  0.
    5000000    2    1    2    0    0 -0.10343603837E+04 -0.18700745702E+03 -0.17067274761E+04  0.20923145878E+04  0.59999038690E+03 0.  0.
         23    2    4    4    0    0 -0.66567906850E+03 -0.28146658313E+03 -0.14539343188E+04  0.16264806319E+04  0.95719292908E+02 0.  0.
         23    2    4    4    0    0 -0.36868131521E+03  0.94459126112E+02 -0.25279315727E+03  0.46583395586E+03  0.90821007357E+02 0.  0.
          5    1    3    3  502    0  0.79884958711E+03  0.12698190514E+03 -0.10378147211E+04  0.13158140265E+04  0.47000000000E+01 0. -1.
         -5    1    3    3    0  502  0.23551079659E+03  0.60025551877E+02 -0.38840100527E+03  0.45819846473E+03  0.47000000000E+01 0.  1.
         13    1    5    5    0    0 -0.50780088252E+03 -0.17337300354E+03 -0.10307952275E+04  0.11620923955E+04  0.00000000000E+00 0.  1.
        -13    1    5    5    0    0 -0.15787818597E+03 -0.10809357959E+03 -0.42313909128E+03  0.46438823642E+03  0.00000000000E+00 0. -1.
          2    1    6    6  503    0 -0.21464082471E+03  0.86449591612E+01 -0.13284161600E+03  0.25257140355E+03  0.00000000000E+00 0. -1.
         -2    1    6    6    0  503 -0.15404049050E+03  0.85814166950E+02 -0.11995154127E+03  0.21326255231E+03  0.00000000000E+00 0.  1.
<mgrwt>
<rscale>  0 0.10855210E+04</rscale>
<asrwt>0</asrwt>
<pdfrwt beam="1">  1        1 0.53840540E+00 0.10855210E+04</pdfrwt>
<pdfrwt beam="2">  1       -1 0.56414145E-01 0.10855210E+04</pdfrwt>
<totfact> 0.81531907E-01</totfact>
</mgrwt>
</event>
<event>
12    1  0.3203156E-008  0.9786620E+03  0.7818608E-02  0.9332263E-01
         -2   -1    0    0    0  501 -0.00000000000E+00  0.00000000000E+00  0.24829738072E+03  0.24829738072E+03  0.00000000000E+00 0.  1.
          2   -1    0    0  501    0  0.00000000000E+00 -0.00000000000E+00 -0.38848612522E+04  0.38848612522E+04  0.00000000000E+00 0. -1.
         23    2    1    2    0    0 -0.88280245421E+03 -0.80201063145E+02 -0.15393635209E+04  0.17786625681E+04  0.90708863874E+02 0.  0.
    5000000    2    1    2    0    0  0.88280245421E+03  0.80201063145E+02 -0.20972003506E+04  0.23544960648E+04  0.59969160828E+03 0.  0.
         23    2    4    4    0    0  0.86997251318E+03  0.21890567195E+03 -0.18074858654E+04  0.20199123875E+04  0.90934222576E+02 0.  0.
         23    2    4    4    0    0  0.12829941037E+02 -0.13870460881E+03 -0.28971448522E+03  0.33458367730E+03  0.92780268799E+02 0.  0.
          5    1    3    3  502    0 -0.27639426253E+03  0.11992738648E+02 -0.44059236958E+03  0.52027044916E+03  0.47000000000E+01 0. -1.
         -5    1    3    3    0  502 -0.60640819169E+03 -0.92193801792E+02 -0.10987711513E+04  0.12583921189E+04  0.47000000000E+01 0.  1.
         13    1    5    5    0    0  0.16789272341E+03  0.63313942694E+01 -0.34982505122E+03  0.38807939856E+03  0.00000000000E+00 0. -1.
        -13    1    5    5    0    0  0.70207978976E+03  0.21257427769E+03 -0.14576608141E+04  0.16318329889E+04  0.00000000000E+00 0.  1.
          4    1    6    6  503    0  0.44671126479E+02 -0.12155155546E+03 -0.20507807118E+03  0.24254340942E+03  0.00000000000E+00 0. -1.
         -4    1    6    6    0  503 -0.31841185441E+02 -0.17153053348E+02 -0.84636414042E+02  0.92040267880E+02  0.00000000000E+00 0.  1.
<mgrwt>
<rscale>  0 0.97866199E+03</rscale>
<asrwt>0</asrwt>
<pdfrwt beam="1">  1        2 0.59767096E+00 0.97866199E+03</pdfrwt>
<pdfrwt beam="2">  1       -2 0.38199597E-01 0.97866199E+03</pdfrwt>
<totfact> 0.28811378E+00</totfact>
</mgrwt>
</event>
<event>
12    1  0.3203156E-008  0.9142260E+03  0.7818608E-02  0.9407971E-01
          1   -1    0    0  501    0  0.00000000000E+00  0.00000000000E+00  0.24205621848E+04  0.24205621848E+04  0.00000000000E+00 0. -1.
         -1   -1    0    0    0  501 -0.00000000000E+00 -0.00000000000E+00 -0.47242072395E+03  0.47242072395E+03  0.00000000000E+00 0.  1.
         23    2    1    2    0    0  0.88155235236E+03 -0.17553326880E+03  0.14365458601E+04  0.16971515055E+04  0.93342091341E+02 0.  0.
    5000000    2    1    2    0    0 -0.88155235236E+03  0.17553326880E+03  0.51159560071E+03  0.11958314032E+04  0.60028010786E+03 0.  0.
         23    2    4    4    0    0 -0.14142222420E+03 -0.48133809366E+02  0.36338317721E+03  0.40333605863E+03  0.91189547712E+02 0.  0.
         23    2    4    4    0    0 -0.74013012815E+03  0.22366707817E+03  0.14821242350E+03  0.79249534460E+03  0.90897636260E+02 0.  0.
          5    1    3    3  502    0  0.29116489431E+03 -0.29960649043E+02  0.53168554794E+03  0.60694830756E+03  0.47000000000E+01 0. -1.
         -5    1    3    3    0  502  0.59038745805E+03 -0.14557261976E+03  0.90486031218E+03  0.10902031979E+04  0.47000000000E+01 0.  1.
         13    1    5    5    0    0 -0.12977509780E+03 -0.44615472640E+02  0.36600845172E+03  0.39088911872E+03  0.00000000000E+00 0.  1.
        -13    1    5    5    0    0 -0.11647126409E+02 -0.35183367266E+01 -0.26252745079E+01  0.12446939911E+02  0.00000000000E+00 0. -1.
          2    1    6    6  503    0 -0.22660350955E+03  0.26489274757E+02  0.53243092349E+02  0.23427688554E+03  0.00000000000E+00 0. -1.
         -2    1    6    6    0  503 -0.51352661861E+03  0.19717780341E+03  0.94969331153E+02  0.55821845906E+03  0.00000000000E+00 0.  1.
<mgrwt>
<rscale>  0 0.91422605E+03</rscale>
<asrwt>0</asrwt>
<pdfrwt beam="1">  1        1 0.37239418E+00 0.91422605E+03</pdfrwt>
<pdfrwt beam="2">  1       -1 0.72680112E-01 0.91422605E+03</pdfrwt>
<totfact> 0.30250991E+00</totfact>
</mgrwt>
</event>
<event>
12    1  0.3203156E-008  0.8144979E+03  0.7818608E-02  0.9539266E-01
         -1   -1    0    0    0  501 -0.00000000000E+00  0.00000000000E+00  0.10424927533E+04  0.10424927533E+04  0.00000000000E+00 0.  1.
          1   -1    0    0  501    0  0.00000000000E+00 -0.00000000000E+00 -0.15597089169E+04  0.15597089169E+04  0.00000000000E+00 0. -1.
         23    2    1    2    0    0 -0.60085859992E+03  0.47192588362E+03 -0.11924167255E+04  0.14191739708E+04  0.91934843594E+02 0.  0.
    5000000    2    1    2    0    0  0.60085859992E+03 -0.47192588362E+03  0.67520056195E+03  0.11830276994E+04  0.59992803067E+03 0.  0.
         23    2    4    4    0    0  0.85977846917E+02 -0.30061548394E+03  0.51548132271E+03  0.60965207148E+03  0.90514058871E+02 0.  0.
         23    2    4    4    0    0  0.51488075300E+03 -0.17131039968E+03  0.15971923925E+03  0.57337562793E+03  0.93807955263E+02 0.  0.
          5    1    3    3  502    0 -0.32264723430E+03  0.30980806101E+03 -0.67814874557E+03  0.81239773731E+03  0.47000000000E+01 0. -1.
         -5    1    3    3    0  502 -0.27821136562E+03  0.16211782260E+03 -0.51426797994E+03  0.60677623351E+03  0.47000000000E+01 0.  1.
         13    1    5    5    0    0  0.41537446101E+02 -0.13587317386E+03  0.15172369223E+03  0.20786283359E+03  0.00000000000E+00 0.  1.
        -13    1    5    5    0    0  0.44440400816E+02 -0.16474231008E+03  0.36375763047E+03  0.40178923789E+03  0.00000000000E+00 0. -1.
          2    1    6    6  503    0  0.12050004208E+03 -0.71459197255E+02  0.12180078771E+02  0.14062372251E+03  0.00000000000E+00 0. -1.
         -2    1    6    6    0  503  0.39438071092E+03 -0.99851202423E+02  0.14753916047E+03  0.43275190542E+03  0.00000000000E+00 0.  1.
<mgrwt>
<rscale>  0 0.81449793E+03</rscale>
<asrwt>0</asrwt>
<pdfrwt beam="1">  1        1 0.23995522E+00 0.81449793E+03</pdfrwt>
<pdfrwt beam="2">  1       -1 0.16038350E+00 0.81449793E+03</pdfrwt>
<totfact> 0.17892944E+00</totfact>
</mgrwt>
</event>
<event>
12    1  0.3203156E-008  0.1167445E+04  0.7818608E-02  0.9141839E-01
          1   -1    0    0  501    0  0.00000000000E+00  0.00000000000E+00  0.22248121672E+04  0.22248121672E+04  0.00000000000E+00 0. -1.
         -1   -1    0    0    0  501 -0.00000000000E+00 -0.00000000000E+00 -0.68881249193E+03  0.68881249193E+03  0.00000000000E+00 0.  1.
         23    2    1    2    0    0  0.30077172611E+03 -0.11231848872E+04  0.68172908695E+03  0.13509817761E+04  0.91593063726E+02 0.  0.
    5000000    2    1    2    0    0 -0.30077172611E+03  0.11231848872E+04  0.85427058835E+03  0.15626428830E+04  0.60005551372E+03 0.  0.
         23    2    4    4    0    0 -0.22355347015E+02  0.19421210086E+03  0.46795763709E+03  0.51515914070E+03  0.90479215742E+02 0.  0.
         23    2    4    4    0    0 -0.27841637910E+03  0.92897278638E+03  0.38631295126E+03  0.10474837423E+04  0.86477604604E+02 0.  0.
          5    1    3    3  502    0  0.19571699328E+03 -0.86918138726E+03  0.53749371436E+03  0.10405301574E+04  0.47000000000E+01 0. -1.
         -5    1    3    3    0  502  0.10505473284E+03 -0.25400349997E+03  0.14423537259E+03  0.31045161877E+03  0.47000000000E+01 0.  1.
         13    1    5    5    0    0 -0.17137420573E+02  0.12314413025E+03  0.18170411342E+03  0.22016937306E+03  0.00000000000E+00 0.  1.
        -13    1    5    5    0    0 -0.52179264418E+01  0.71067970604E+02  0.28625352366E+03  0.29498976764E+03  0.00000000000E+00 0. -1.
          4    1    6    6  503    0 -0.18137815815E+03  0.45882678535E+03  0.18484840986E+03  0.52686714628E+03  0.00000000000E+00 0. -1.
         -4    1    6    6    0  503 -0.97038220953E+02  0.47014600103E+03  0.20146454140E+03  0.52061659602E+03  0.00000000000E+00 0.  1.
<mgrwt>
<rscale>  0 0.11674452E+04</rscale>
<asrwt>0</asrwt>
<pdfrwt beam="1">  1        1 0.34227879E+00 0.11674452E+04</pdfrwt>
<pdfrwt beam="2">  1       -1 0.10597115E+00 0.11674452E+04</pdfrwt>
<totfact> 0.17306043E+00</totfact>
</mgrwt>
</event>
<event>
12    1  0.3203156E-008  0.7051384E+03  0.7818608E-02  0.9708485E-01
          2   -1    0    0  501    0  0.00000000000E+00  0.00000000000E+00  0.15780814122E+04  0.15780814122E+04  0.00000000000E+00 0. -1.
         -2   -1    0    0    0  501 -0.00000000000E+00 -0.00000000000E+00 -0.34205809848E+03  0.34205809848E+03  0.00000000000E+00 0.  1.
         23    2    1    2    0    0  0.95556354541E+02  0.58450336548E+03  0.69832715511E+03  0.92024859636E+03  0.91768526133E+02 0.  0.
    5000000    2    1    2    0    0 -0.95556354541E+02 -0.58450336548E+03  0.53769615863E+03  0.99989091434E+03  0.59990789328E+03 0.  0.
         23    2    4    4    0    0 -0.22341671971E+03 -0.15412933567E+02  0.23610223047E+03  0.33687559861E+03  0.87110943848E+02 0.  0.
         23    2    4    4    0    0  0.12786036517E+03 -0.56909043191E+03  0.30159392815E+03  0.66301531572E+03  0.91750851275E+02 0.  0.
          5    1    3    3  502    0  0.15797044783E+02  0.60080892178E+02  0.12176740354E+03  0.13677957009E+03  0.47000000000E+01 0. -1.
         -5    1    3    3    0  502  0.79759309759E+02  0.52442247330E+03  0.57655975157E+03  0.78346902627E+03  0.47000000000E+01 0.  1.
         11    1    5    5    0    0 -0.15475855610E+03  0.19038119344E+02  0.19525330115E+03  0.24987299231E+03  0.00000000000E+00 0. -1.
        -11    1    5    5    0    0 -0.68658163608E+02 -0.34451052911E+02  0.40848929323E+02  0.87002606303E+02  0.00000000000E+00 0.  1.
          2    1    6    6  503    0  0.58723575362E+02 -0.35382928993E+03  0.13959537162E+03  0.38487724341E+03  0.00000000000E+00 0.  1.
         -2    1    6    6    0  503  0.69136789810E+02 -0.21526114198E+03  0.16199855653E+03  0.27813807231E+03  0.00000000000E+00 0. -1.
<mgrwt>
<rscale>  0 0.70513842E+03</rscale>
<asrwt>0</asrwt>
<pdfrwt beam="1">  1        2 0.24278175E+00 0.70513842E+03</pdfrwt>
<pdfrwt beam="2">  1       -2 0.52624324E-01 0.70513842E+03</pdfrwt>
<totfact> 0.40217866E+01</totfact>
</mgrwt>
</event>
<event>
12    1  0.3203156E-008  0.1535188E+04  0.7818608E-02  0.8861385E-01
          2   -1    0    0  501    0  0.00000000000E+00  0.00000000000E+00  0.15481233571E+04  0.15481233571E+04  0.00000000000E+00 0.  1.
         -2   -1    0    0    0  501 -0.00000000000E+00 -0.00000000000E+00 -0.16100743424E+04  0.16100743424E+04  0.00000000000E+00 0. -1.
         23    2    1    2    0    0 -0.14225410155E+04 -0.44561642482E+03  0.26900841718E+03  0.15174939864E+04  0.90694716362E+02 0.  0.
    5000000    2    1    2    0    0  0.14225410155E+04  0.44561642482E+03 -0.33095940244E+03  0.16407037131E+04  0.60014798967E+03 0.  0.
         23    2    4    4    0    0  0.11856807452E+04  0.54290480885E+03 -0.15374908075E+03  0.13163377524E+04  0.92313798543E+02 0.  0.
         23    2    4    4    0    0  0.23686027023E+03 -0.97288384027E+02 -0.17721032169E+03  0.32436596077E+03  0.90785247221E+02 0.  0.
          5    1    3    3  502    0 -0.46597224721E+03 -0.18794277611E+03  0.10524611098E+03  0.51337262893E+03  0.47000000000E+01 0. -1.
         -5    1    3    3    0  502 -0.95656876825E+03 -0.25767364871E+03  0.16376230620E+03  0.10041213575E+04  0.47000000000E+01 0.  1.
         11    1    5    5    0    0  0.19621132979E+03  0.12286273382E+03 -0.87707540375E+01  0.23167016084E+03  0.00000000000E+00 0. -1.
        -11    1    5    5    0    0  0.98946941544E+03  0.42004207502E+03 -0.14497832671E+03  0.10846675915E+04  0.00000000000E+00 0.  1.
          4    1    6    6  503    0  0.16383265228E+01  0.11509406696E+02 -0.27337209381E+01  0.11942520105E+02  0.00000000000E+00 0. -1.
         -4    1    6    6    0  503  0.23522194371E+03 -0.10879779072E+03 -0.17447660075E+03  0.31242344067E+03  0.00000000000E+00 0.  1.
<mgrwt>
<rscale>  0 0.15351875E+04</rscale>
<asrwt>0</asrwt>
<pdfrwt beam="1">  1        2 0.23817283E+00 0.15351875E+04</pdfrwt>
<pdfrwt beam="2">  1       -2 0.24770374E+00 0.15351875E+04</pdfrwt>
<totfact> 0.74169702E-01</totfact>
</mgrwt>
</event>
<event>
12    1  0.3203156E-008  0.6199716E+03  0.7818608E-02  0.9864816E-01
         -1   -1    0    0    0  501 -0.00000000000E+00  0.00000000000E+00  0.18049347738E+03  0.18049347738E+03  0.00000000000E+00 0.  1.
          1   -1    0    0  501    0  0.00000000000E+00 -0.00000000000E+00 -0.30686589993E+04  0.30686589993E+04  0.00000000000E+00 0. -1.
         23    2    1    2    0    0 -0.40322257032E+03 -0.42748960275E+03 -0.78720155161E+03  0.98654883247E+03  0.90865363649E+02 0.  0.
    5000000    2    1    2    0    0  0.40322257032E+03  0.42748960275E+03 -0.21009639703E+04  0.22626036442E+04  0.59999153710E+03 0.  0.
         23    2    4    4    0    0  0.36821845958E+03  0.28087715022E+03 -0.20097147405E+04  0.20645693339E+04  0.94954667624E+02 0.  0.
         23    2    4    4    0    0  0.35004110737E+02  0.14661245253E+03 -0.91249229784E+02  0.19803431027E+03  0.90391742439E+02 0.  0.
          5    1    3    3  502    0 -0.10626878966E+03 -0.16764354403E+03 -0.23136228451E+03  0.30487376110E+03  0.47000000000E+01 0. -1.
         -5    1    3    3    0  502 -0.29695378066E+03 -0.25984605872E+03 -0.55583926710E+03  0.68167507137E+03  0.47000000000E+01 0.  1.
         11    1    5    5    0    0  0.12531507813E+03  0.14976592532E+03 -0.75433755990E+03  0.77920398836E+03  0.00000000000E+00 0. -1.
        -11    1    5    5    0    0  0.24290338146E+03  0.13111122490E+03 -0.12553771806E+04  0.12853653456E+04  0.00000000000E+00 0.  1.
          4    1    6    6  503    0 -0.68528747377E+01  0.13041037216E+03 -0.62914350294E+02  0.14495531219E+03  0.00000000000E+00 0. -1.
         -4    1    6    6    0  503  0.41856985475E+02  0.16202080374E+02 -0.28334879490E+02  0.53078998081E+02  0.00000000000E+00 0.  1.
<mgrwt>
<rscale>  0 0.61997165E+03</rscale>
<asrwt>0</asrwt>
<pdfrwt beam="1">  1        1 0.47210136E+00 0.61997165E+03</pdfrwt>
<pdfrwt beam="2">  1       -1 0.27768228E-01 0.61997165E+03</pdfrwt>
<totfact> 0.68033460E+00</totfact>
</mgrwt>
</event>
<event>
12    1  0.3203156E-008  0.5518059E+03  0.7818608E-02  0.1001077E+00
         -2   -1    0    0    0  501 -0.00000000000E+00  0.00000000000E+00  0.37591868393E+03  0.37591868393E+03  0.00000000000E+00 0.  1.
          2   -1    0    0  501    0  0.00000000000E+00 -0.00000000000E+00 -0.11194574416E+04  0.11194574416E+04  0.00000000000E+00 0. -1.
         23    2    1    2    0    0 -0.20702847892E+03  0.40059996331E+03 -0.55682078333E+03  0.72212250620E+03  0.89835446919E+02 0.  0.
    5000000    2    1    2    0    0  0.20702847892E+03 -0.40059996331E+03 -0.18671797432E+03  0.77325361931E+03  0.59976365025E+03 0.  0.
         23    2    4    4    0    0 -0.13890995923E+03 -0.18636001678E+03  0.98552705488E+02  0.26812764964E+03  0.90298217695E+02 0.  0.
         23    2    4    4    0    0  0.34593843815E+03 -0.21423994653E+03 -0.28527067980E+03  0.50512596966E+03  0.90557864363E+02 0.  0.
          5    1    3    3  502    0 -0.62620541848E+02  0.13619892497E+03 -0.25378360064E+03  0.29478752581E+03  0.47000000000E+01 0. -1.
         -5    1    3    3    0  502 -0.14440793707E+03  0.26440103834E+03 -0.30303718270E+03  0.42733498039E+03  0.47000000000E+01 0.  1.
         11    1    5    5    0    0 -0.43589648845E+02 -0.12419810453E+03  0.76406016686E+02  0.15219430358E+03  0.00000000000E+00 0. -1.
        -11    1    5    5    0    0 -0.95320310382E+02 -0.62161912249E+02  0.22146688802E+02  0.11593334607E+03  0.00000000000E+00 0.  1.
          4    1    6    6  503    0  0.97234760623E+02 -0.60627636807E+02 -0.13290175245E+03  0.17547987014E+03  0.00000000000E+00 0. -1.
         -4    1    6    6    0  503  0.24870367752E+03 -0.15361230972E+03 -0.15236892735E+03  0.32964609953E+03  0.00000000000E+00 0.  1.
<mgrwt>
<rscale>  0 0.55180591E+03</rscale>
<asrwt>0</asrwt>
<pdfrwt beam="1">  1        2 0.17222422E+00 0.55180591E+03</pdfrwt>
<pdfrwt beam="2">  1       -2 0.57833644E-01 0.55180591E+03</pdfrwt>
<totfact> 0.61511775E+01</totfact>
</mgrwt>
</event>
<event>
12    1  0.3203156E-008  0.5115201E+03  0.7818608E-02  0.1010815E+00
         -1   -1    0    0    0  501 -0.00000000000E+00  0.00000000000E+00  0.36013629524E+03  0.36013629524E+03  0.00000000000E+00 0. -1.
          1   -1    0    0  501    0  0.00000000000E+00 -0.00000000000E+00 -0.99897959600E+03  0.99897959600E+03  0.00000000000E+00 0.  1.
         23    2    1    2    0    0 -0.24879963583E+03  0.35861896522E+03 -0.33634686373E+03  0.55788145534E+03  0.87141749291E+02 0.  0.
    5000000    2    1    2    0    0  0.24879963583E+03 -0.35861896522E+03 -0.30249643704E+03  0.80123443590E+03  0.59996975410E+03 0.  0.
         23    2    4    4    0    0  0.22970082523E+03 -0.26177354548E+02  0.10180694227E+03  0.26960151591E+03  0.94194484362E+02 0.  0.
         23    2    4    4    0    0  0.19098810599E+02 -0.33244161068E+03 -0.40430337931E+03  0.53163291998E+03  0.91050260902E+02 0.  0.
          5    1    3    3  502    0 -0.14129236374E+03  0.13589836998E+03 -0.17260859522E+03  0.26124263848E+03  0.47000000000E+01 0. -1.
         -5    1    3    3    0  502 -0.10750727209E+03  0.22272059524E+03 -0.16373826850E+03  0.29663881686E+03  0.47000000000E+01 0.  1.
         11    1    5    5    0    0  0.98718763827E+02  0.29871733108E+02  0.19188561195E+02  0.10490908279E+03  0.00000000000E+00 0. -1.
        -11    1    5    5    0    0  0.13098206141E+03 -0.56049087657E+02  0.82618381079E+02  0.16469243313E+03  0.00000000000E+00 0.  1.
          2    1    6    6  503    0  0.20446075329E+02 -0.13559903036E+03 -0.23456881384E+03  0.27171247203E+03  0.00000000000E+00 0. -1.
         -2    1    6    6    0  503 -0.13472647297E+01 -0.19684258031E+03 -0.16973456548E+03  0.25992044795E+03  0.00000000000E+00 0.  1.
<mgrwt>
<rscale>  0 0.51152015E+03</rscale>
<asrwt>0</asrwt>
<pdfrwt beam="1">  1        1 0.15368917E+00 0.51152015E+03</pdfrwt>
<pdfrwt beam="2">  1       -1 0.55405584E-01 0.51152015E+03</pdfrwt>
<totfact> 0.52576866E+01</totfact>
</mgrwt>
</event>
<event>
12    1  0.3203156E-008  0.6715888E+03  0.7818608E-02  0.9767092E-01
         -2   -1    0    0    0  501 -0.00000000000E+00  0.00000000000E+00  0.58734876168E+03  0.58734876168E+03  0.00000000000E+00 0.  1.
          2   -1    0    0  501    0  0.00000000000E+00 -0.00000000000E+00 -0.81172371886E+03  0.81172371886E+03  0.00000000000E+00 0. -1.
         23    2    1    2    0    0  0.12936395799E+03 -0.52740291861E+03 -0.21121753047E+03  0.58967643521E+03  0.90645357763E+02 0.  0.
    5000000    2    1    2    0    0 -0.12936395799E+03  0.52740291861E+03 -0.13157426710E+02  0.80939604533E+03  0.60004997137E+03 0.  0.
         23    2    4    4    0    0  0.22743922136E+03  0.23077330443E+03  0.36616113110E+01  0.33639155333E+03  0.90337989260E+02 0.  0.
         23    2    4    4    0    0 -0.35680317935E+03  0.29662961417E+03 -0.16819038021E+02  0.47300449200E+03  0.90292483730E+02 0.  0.
          5    1    3    3  502    0  0.47714019359E+02 -0.19383534979E+03 -0.12498926744E+03  0.23556989928E+03  0.47000000000E+01 0. -1.
         -5    1    3    3    0  502  0.81649938631E+02 -0.33356756882E+03 -0.86228263033E+02  0.35410653593E+03  0.47000000000E+01 0.  1.
         13    1    5    5    0    0  0.59814493894E+02  0.11535600185E+03  0.22986881342E+02  0.13195899952E+03  0.00000000000E+00 0.  1.
        -13    1    5    5    0    0  0.16762472746E+03  0.11541730259E+03 -0.19325270031E+02  0.20443255380E+03  0.00000000000E+00 0. -1.
          4    1    6    6  503    0 -0.34477830985E+03  0.27188323992E+03  0.30074342016E+01  0.43909181700E+03  0.00000000000E+00 0.  1.
         -4    1    6    6    0  503 -0.12024869491E+02  0.24746374259E+02 -0.19826472222E+02  0.33912675006E+02  0.00000000000E+00 0. -1.
<mgrwt>
<rscale>  0 0.67158882E+03</rscale>
<asrwt>0</asrwt>
<pdfrwt beam="1">  1        2 0.12488057E+00 0.67158882E+03</pdfrwt>
<pdfrwt beam="2">  1       -2 0.90361348E-01 0.67158882E+03</pdfrwt>
<totfact> 0.36127889E+01</totfact>
</mgrwt>
</event>
<event>
12    1  0.3203156E-008  0.7103089E+03  0.7818608E-02  0.9699763E-01
         -1   -1    0    0    0  501 -0.00000000000E+00  0.00000000000E+00  0.46398175534E+03  0.46398175534E+03  0.00000000000E+00 0.  1.
          1   -1    0    0  501    0  0.00000000000E+00 -0.00000000000E+00 -0.12055512436E+04  0.12055512436E+04  0.00000000000E+00 0. -1.
         23    2    1    2    0    0 -0.40212671062E+03 -0.47320913358E+03 -0.24705829521E+03  0.67435404745E+03  0.89904419150E+02 0.  0.
    5000000    2    1    2    0    0  0.40212671062E+03  0.47320913358E+03 -0.49451119305E+03  0.99517895149E+03  0.60017251682E+03 0.  0.
         23    2    4    4    0    0  0.95656670233E+02  0.46976995997E+03 -0.12144178688E+03  0.50361626532E+03  0.95116882019E+02 0.  0.
         23    2    4    4    0    0  0.30647004039E+03  0.34391736090E+01 -0.37306940617E+03  0.49156268617E+03  0.92289647574E+02 0.  0.
          5    1    3    3  502    0 -0.11748594605E+03 -0.17393426767E+03 -0.45807342711E+02  0.21488713232E+03  0.47000000000E+01 0.  1.
         -5    1    3    3    0  502 -0.28464076457E+03 -0.29927486591E+03 -0.20125095250E+03  0.45946691514E+03  0.47000000000E+01 0. -1.
         11    1    5    5    0    0  0.33720153697E+02  0.35491195791E+03 -0.10758316334E+03  0.37238915622E+03  0.00000000000E+00 0. -1.
        -11    1    5    5    0    0  0.61936516536E+02  0.11485800206E+03 -0.13858623544E+02  0.13122710911E+03  0.00000000000E+00 0.  1.
          4    1    6    6  503    0  0.12286212688E+03  0.26143458307E+02 -0.94651561759E+02  0.15728159707E+03  0.00000000000E+00 0. -1.
         -4    1    6    6    0  503  0.18360791351E+03 -0.22704284698E+02 -0.27841784441E+03  0.33428108910E+03  0.00000000000E+00 0.  1.
<mgrwt>
<rscale>  0 0.71030889E+03</rscale>
<asrwt>0</asrwt>
<pdfrwt beam="1">  1        1 0.18546942E+00 0.71030889E+03</pdfrwt>
<pdfrwt beam="2">  1       -1 0.71381808E-01 0.71030889E+03</pdfrwt>
<totfact> 0.21733322E+01</totfact>
</mgrwt>
</event>
<event>
12    1  0.3203156E-008  0.3671193E+03  0.7818608E-02  0.1055800E+00
         -2   -1    0    0    0  501 -0.00000000000E+00  0.00000000000E+00  0.91988801209E+02  0.91988801209E+02  0.00000000000E+00 0. -1.
          2   -1    0    0  501    0  0.00000000000E+00 -0.00000000000E+00 -0.18170900740E+04  0.18170900740E+04  0.00000000000E+00 0.  1.
         23    2    1    2    0    0  0.13937782135E+03 -0.69690421298E+02 -0.25109309915E+03  0.31002671729E+03  0.93733073615E+02 0.  0.
    5000000    2    1    2    0    0 -0.13937782135E+03  0.69690421298E+02 -0.14740081736E+04  0.15990521579E+04  0.59998731310E+03 0.  0.
         23    2    4    4    0    0  0.11767459566E+03 -0.14360988891E+03 -0.23794346381E+03  0.31547846496E+03  0.91861086580E+02 0.  0.
         23    2    4    4    0    0 -0.25705241700E+03  0.21330031021E+03 -0.12360647098E+04  0.12835736929E+04  0.90180324592E+02 0.  0.
          5    1    3    3  502    0  0.97132019817E+01 -0.49298641927E+02 -0.66803767222E+02  0.83722969988E+02  0.47000000000E+01 0. -1.
         -5    1    3    3    0  502  0.12966461936E+03 -0.20391779372E+02 -0.18428933193E+03  0.22630374730E+03  0.47000000000E+01 0.  1.
         11    1    5    5    0    0  0.10060488051E+03 -0.15629623858E+03 -0.21398643282E+03  0.28344320350E+03  0.00000000000E+00 0. -1.
        -11    1    5    5    0    0  0.17069715148E+02  0.12686349671E+02 -0.23957030995E+02  0.32035261468E+02  0.00000000000E+00 0.  1.
          1    1    6    6  503    0 -0.15657175929E+03  0.73094841154E+02 -0.65931456256E+03  0.68158144342E+03  0.00000000000E+00 0. -1.
         -1    1    6    6    0  503 -0.10048065771E+03  0.14020546906E+03 -0.57675014724E+03  0.60199224951E+03  0.00000000000E+00 0.  1.
<mgrwt>
<rscale>  0 0.36711930E+03</rscale>
<asrwt>0</asrwt>
<pdfrwt beam="1">  1        2 0.27955233E+00 0.36711930E+03</pdfrwt>
<pdfrwt beam="2">  1       -2 0.14152123E-01 0.36711930E+03</pdfrwt>
<totfact> 0.34551917E+02</totfact>
</mgrwt>
</event>
<event>
12    1  0.3203156E-008  0.1894361E+04  0.7818608E-02  0.8657668E-01
          2   -1    0    0  501    0  0.00000000000E+00  0.00000000000E+00  0.22479017983E+04  0.22479017983E+04  0.00000000000E+00 0. -1.
         -2   -1    0    0    0  501 -0.00000000000E+00 -0.00000000000E+00 -0.16623415615E+04  0.16623415615E+04  0.00000000000E+00 0.  1.
         23    2    1    2    0    0  0.14426597048E+04  0.11981333491E+04  0.48339045472E+03  0.19386560935E+04  0.89053754855E+02 0.  0.
    5000000    2    1    2    0    0 -0.14426597048E+04 -0.11981333491E+04  0.10216978207E+03  0.19715872662E+04  0.59993927861E+03 0.  0.
         23    2    4    4    0    0 -0.11626827255E+04 -0.11079832445E+04  0.25414206389E+03  0.16286134842E+04  0.91300065654E+02 0.  0.
         23    2    4    4    0    0 -0.27997697926E+03 -0.90150104624E+02 -0.15197228182E+03  0.34297378205E+03  0.89561657261E+02 0.  0.
          5    1    3    3  502    0  0.86502598788E+03  0.75006472313E+03  0.25812303574E+03  0.11736765484E+04  0.47000000000E+01 0. -1.
         -5    1    3    3    0  502  0.57763371687E+03  0.44806862599E+03  0.22526741898E+03  0.76497954516E+03  0.47000000000E+01 0.  1.
         11    1    5    5    0    0 -0.90568916129E+03 -0.81683627182E+03  0.21309143657E+03  0.12381043220E+04  0.00000000000E+00 0.  1.
        -11    1    5    5    0    0 -0.25699356420E+03 -0.29114697267E+03  0.41050627321E+02  0.39050916218E+03  0.00000000000E+00 0. -1.
          3    1    6    6  503    0 -0.21255316733E+03 -0.10286560888E+03 -0.97943962844E+02  0.25564272391E+03  0.00000000000E+00 0. -1.
         -3    1    6    6    0  503 -0.67423811935E+02  0.12715504255E+02 -0.54028318977E+02  0.87331058139E+02  0.00000000000E+00 0.  1.
<mgrwt>
<rscale>  0 0.18943615E+04</rscale>
<asrwt>0</asrwt>
<pdfrwt beam="1">  1        2 0.34583105E+00 0.18943615E+04</pdfrwt>
<pdfrwt beam="2">  1       -2 0.25574486E+00 0.18943615E+04</pdfrwt>
<totfact> 0.25869180E-01</totfact>
</mgrwt>
</event>
<event>
12    1  0.3203156E-008  0.4777982E+03  0.7818608E-02  0.1019742E+00
         -2   -1    0    0    0  501 -0.00000000000E+00  0.00000000000E+00  0.18969791881E+03  0.18969791881E+03  0.00000000000E+00 0.  1.
          2   -1    0    0  501    0  0.00000000000E+00 -0.00000000000E+00 -0.26587275609E+04  0.26587275609E+04  0.00000000000E+00 0. -1.
         23    2    1    2    0    0  0.32843944472E+03  0.82566222447E+02 -0.19619857833E+04  0.19929711981E+04  0.88635955621E+02 0.  0.
    5000000    2    1    2    0    0 -0.32843944472E+03 -0.82566222447E+02 -0.50704385886E+03  0.85545428168E+03  0.60001575255E+03 0.  0.
         23    2    4    4    0    0  0.10363628170E+03 -0.11647526230E+03 -0.33399338484E+03  0.37964334075E+03  0.90942396270E+02 0.  0.
         23    2    4    4    0    0 -0.43207572642E+03  0.33909039858E+02 -0.17305047402E+03  0.47581094094E+03  0.92791856395E+02 0.  0.
          5    1    3    3  502    0  0.14529058225E+03  0.22141504416E+02 -0.62049347481E+03  0.63767847838E+03  0.47000000000E+01 0. -1.
         -5    1    3    3    0  502  0.18314886247E+03  0.60424718030E+02 -0.13414923085E+04  0.13552927197E+04  0.47000000000E+01 0.  1.
         13    1    5    5    0    0  0.14330048795E+02 -0.77695577532E+02 -0.19053591915E+03  0.20626654977E+03  0.00000000000E+00 0.  1.
        -13    1    5    5    0    0  0.89306232904E+02 -0.38779684773E+02 -0.14345746569E+03  0.17337679098E+03  0.00000000000E+00 0. -1.
          3    1    6    6  503    0 -0.16735933517E+03  0.48213589715E+02 -0.37883251245E+02  0.17823814975E+03  0.00000000000E+00 0. -1.
         -3    1    6    6    0  503 -0.26471639125E+03 -0.14304549857E+02 -0.13516722277E+03  0.29757279119E+03  0.00000000000E+00 0.  1.
<mgrwt>
<rscale>  0 0.47779824E+03</rscale>
<asrwt>0</asrwt>
<pdfrwt beam="1">  1        2 0.40903502E+00 0.47779824E+03</pdfrwt>
<pdfrwt beam="2">  1       -2 0.29184295E-01 0.47779824E+03</pdfrwt>
<totfact> 0.33384515E+01</totfact>
</mgrwt>
</event>
<event>
12    1  0.3203156E-008  0.6081195E+03  0.7818608E-02  0.9888702E-01
         -2   -1    0    0    0  501 -0.00000000000E+00  0.00000000000E+00  0.37247095051E+03  0.37247095051E+03  0.00000000000E+00 0.  1.
          2   -1    0    0  501    0  0.00000000000E+00 -0.00000000000E+00 -0.14178569708E+04  0.14178569708E+04  0.00000000000E+00 0. -1.
         23    2    1    2    0    0 -0.50781730526E+03 -0.23648106999E+03 -0.70239846214E+03  0.90079960557E+03  0.65380561322E+02 0.  0.
    5000000    2    1    2    0    0  0.50781730526E+03  0.23648106999E+03 -0.34298755812E+03  0.88952831571E+03  0.59984868713E+03 0.  0.
         23    2    4    4    0    0  0.20607298694E+03 -0.45992867036E+02  0.12234791208E+03  0.26041038444E+03  0.90901798504E+02 0.  0.
         23    2    4    4    0    0  0.30174431832E+03  0.28247393703E+03 -0.46533547020E+03  0.62911793127E+03  0.91712119600E+02 0.  0.
          5    1    3    3  502    0 -0.25154295388E+03 -0.83020864033E+02 -0.31533512700E+03  0.41185513695E+03  0.47000000000E+01 0. -1.
         -5    1    3    3    0  502 -0.25627435137E+03 -0.15346020596E+03 -0.38706333514E+03  0.48894446862E+03  0.47000000000E+01 0.  1.
         11    1    5    5    0    0  0.19567917162E+03 -0.66642616563E+02  0.10846800080E+03  0.23344567622E+03  0.00000000000E+00 0. -1.
        -11    1    5    5    0    0  0.10393815319E+02  0.20649749527E+02  0.13879911283E+02  0.26964708225E+02  0.00000000000E+00 0.  1.
          3    1    6    6  503    0  0.39960078558E+02  0.87890671889E+02 -0.12134398368E+03  0.15506753516E+03  0.00000000000E+00 0. -1.
         -3    1    6    6    0  503  0.26178423976E+03  0.19458326514E+03 -0.34399148652E+03  0.47405039611E+03  0.00000000000E+00 0.  1.
<mgrwt>
<rscale>  0 0.60811951E+03</rscale>
<asrwt>0</asrwt>
<pdfrwt beam="1">  1        2 0.21813184E+00 0.60811951E+03</pdfrwt>
<pdfrwt beam="2">  1       -2 0.57303224E-01 0.60811951E+03</pdfrwt>
<totfact> 0.41876136E+01</totfact>
</mgrwt>
</event>
<event>
12    1  0.3203156E-008  0.4342757E+03  0.7818608E-02  0.1032518E+00
         -1   -1    0    0    0  501 -0.00000000000E+00  0.00000000000E+00  0.49890224574E+03  0.49890224574E+03  0.00000000000E+00 0.  1.
          1   -1    0    0  501    0  0.00000000000E+00 -0.00000000000E+00 -0.11091670393E+04  0.11091670393E+04  0.00000000000E+00 0. -1.
         23    2    1    2    0    0  0.14701587122E+03  0.18480328048E+03  0.36191150693E+03  0.44161186211E+03  0.90968011057E+02 0.  0.
    5000000    2    1    2    0    0 -0.14701587122E+03 -0.18480328048E+03 -0.97217630047E+03  0.11664574229E+04  0.59977515904E+03 0.  0.
         23    2    4    4    0    0  0.15850171171E+02 -0.35259801944E+03 -0.73710349584E+03  0.82244017066E+03  0.92247924087E+02 0.  0.
         23    2    4    4    0    0 -0.16286604239E+03  0.16779473896E+03 -0.23507280463E+03  0.34401725225E+03  0.91696369496E+02 0.  0.
          5    1    3    3  502    0  0.14152996194E+03  0.11385776400E+03  0.26370272293E+03  0.32024293377E+03  0.47000000000E+01 0. -1.
         -5    1    3    3    0  502  0.54859092778E+01  0.70945516487E+02  0.98208783999E+02  0.12136892833E+03  0.47000000000E+01 0.  1.
         11    1    5    5    0    0 -0.38153918630E+02 -0.13651382213E+03 -0.26965282292E+03  0.30463812967E+03  0.00000000000E+00 0. -1.
        -11    1    5    5    0    0  0.54004089802E+02 -0.21608419731E+03 -0.46745067292E+03  0.51780204099E+03  0.00000000000E+00 0.  1.
          2    1    6    6  503    0 -0.15445259914E+03  0.10283070172E+03 -0.16910673426E+03  0.25105148111E+03  0.00000000000E+00 0. -1.
         -2    1    6    6    0  503 -0.84134432521E+01  0.64964037244E+02 -0.65966070377E+02  0.92965771138E+02  0.00000000000E+00 0.  1.
<mgrwt>
<rscale>  0 0.43427571E+03</rscale>
<asrwt>0</asrwt>
<pdfrwt beam="1">  1        1 0.17064108E+00 0.43427571E+03</pdfrwt>
<pdfrwt beam="2">  1       -1 0.76754193E-01 0.43427571E+03</pdfrwt>
<totfact> 0.23011804E+01</totfact>
</mgrwt>
</event>
<event>
12    1  0.3203156E-008  0.9774310E+03  0.7818608E-02  0.9333650E-01
          3   -1    0    0  501    0  0.00000000000E+00  0.00000000000E+00  0.17791150603E+04  0.17791150603E+04  0.00000000000E+00 0. -1.
         -3   -1    0    0    0  501 -0.00000000000E+00 -0.00000000000E+00 -0.58411429840E+03  0.58411429840E+03  0.00000000000E+00 0.  1.
         23    2    1    2    0    0  0.65144923891E+02 -0.92115804143E+03  0.41854002008E+03  0.10155447509E+04  0.58132557808E+02 0.  0.
    5000000    2    1    2    0    0 -0.65144923891E+02  0.92115804143E+03  0.77646074185E+03  0.13476846078E+04  0.60048856784E+03 0.  0.
         23    2    4    4    0    0 -0.15503301344E+03  0.88005710349E+03  0.47276987063E+03  0.10154795016E+04  0.95663613064E+02 0.  0.
         23    2    4    4    0    0  0.89888089547E+02  0.41100937949E+02  0.30369087123E+03  0.33220510626E+03  0.91449065685E+02 0.  0.
          5    1    3    3  502    0  0.19600517326E+02 -0.51136933586E+03  0.25723315352E+03  0.57277723699E+03  0.47000000000E+01 0. -1.
         -5    1    3    3    0  502  0.45544406565E+02 -0.40978870557E+03  0.16130686656E+03  0.44276751392E+03  0.47000000000E+01 0.  1.
         13    1    5    5    0    0 -0.15281961479E+03  0.71278240149E+03  0.35450915801E+03  0.81061046727E+03  0.00000000000E+00 0. -1.
        -13    1    5    5    0    0 -0.22133986510E+01  0.16727470200E+03  0.11826071262E+03  0.20486903429E+03  0.00000000000E+00 0.  1.
          1    1    6    6  503    0  0.79270384060E+02 -0.12142798006E+02  0.17287090971E+03  0.19056650481E+03  0.00000000000E+00 0. -1.
         -1    1    6    6    0  503  0.10617705487E+02  0.53243735954E+02  0.13081996152E+03  0.14163860145E+03  0.00000000000E+00 0.  1.
<mgrwt>
<rscale>  0 0.97743102E+03</rscale>
<asrwt>0</asrwt>
<pdfrwt beam="1">  1        3 0.27371001E+00 0.97743102E+03</pdfrwt>
<pdfrwt beam="2">  1       -3 0.89863739E-01 0.97743102E+03</pdfrwt>
<totfact> 0.15579712E-01</totfact>
</mgrwt>
</event>
<event>
12    1  0.3203156E-008  0.1193632E+04  0.7818608E-02  0.9118449E-01
         -2   -1    0    0    0  501 -0.00000000000E+00  0.00000000000E+00  0.12779180206E+04  0.12779180206E+04  0.00000000000E+00 0.  1.
          2   -1    0    0  501    0  0.00000000000E+00 -0.00000000000E+00 -0.12869743356E+04  0.12869743356E+04  0.00000000000E+00 0. -1.
         23    2    1    2    0    0 -0.21759601535E+03  0.11011103261E+04 -0.45759440626E+03  0.12155552664E+04  0.91596882623E+02 0.  0.
    5000000    2    1    2    0    0  0.21759601535E+03 -0.11011103261E+04  0.44853809127E+03  0.13493370898E+04  0.59977678057E+03 0.  0.
         23    2    4    4    0    0  0.40797966619E+03 -0.62503461609E+03  0.25739174055E+03  0.79476472251E+03  0.91020748790E+02 0.  0.
         23    2    4    4    0    0 -0.19038365084E+03 -0.47607571002E+03  0.19114635072E+03  0.55457236732E+03  0.90108640099E+02 0.  0.
          5    1    3    3  502    0 -0.11055155513E+03  0.76508809228E+03 -0.32911884904E+03  0.84019208642E+03  0.47000000000E+01 0. -1.
         -5    1    3    3    0  502 -0.10704446022E+03  0.33602223383E+03 -0.12847555722E+03  0.37536317999E+03  0.47000000000E+01 0.  1.
         13    1    5    5    0    0  0.37895659159E+03 -0.56768594426E+03  0.20748623619E+03  0.71339047360E+03  0.00000000000E+00 0. -1.
        -13    1    5    5    0    0  0.29023074608E+02 -0.57348671833E+02  0.49905504366E+02  0.81374248917E+02  0.00000000000E+00 0.  1.
          4    1    6    6  503    0 -0.33130977643E+02 -0.13675132600E+03  0.90416353488E+02  0.16725341199E+03  0.00000000000E+00 0.  1.
         -4    1    6    6    0  503 -0.15725267320E+03 -0.33932438402E+03  0.10072999723E+03  0.38731895533E+03  0.00000000000E+00 0. -1.
<mgrwt>
<rscale>  0 0.11936320E+04</rscale>
<asrwt>0</asrwt>
<pdfrwt beam="1">  1        2 0.19799605E+00 0.11936320E+04</pdfrwt>
<pdfrwt beam="2">  1       -2 0.19660277E+00 0.11936320E+04</pdfrwt>
<totfact> 0.22884274E+00</totfact>
</mgrwt>
</event>
<event>
12    1  0.3203156E-008  0.8476853E+03  0.7818608E-02  0.9493449E-01
          1   -1    0    0  501    0  0.00000000000E+00  0.00000000000E+00  0.77679486392E+03  0.77679486392E+03  0.00000000000E+00 0. -1.
         -1   -1    0    0    0  501 -0.00000000000E+00 -0.00000000000E+00 -0.98612402672E+03  0.98612402672E+03  0.00000000000E+00 0.  1.
         23    2    1    2    0    0  0.75245254722E+03  0.10176356507E+03  0.32658208810E+02  0.76552936840E+03  0.91804119173E+02 0.  0.
    5000000    2    1    2    0    0 -0.75245254722E+03 -0.10176356507E+03 -0.24198737162E+03  0.99738952224E+03  0.59973937010E+03 0.  0.
         23    2    4    4    0    0 -0.35124264813E+03  0.22275672849E+03 -0.20501813954E+03  0.47217221979E+03  0.89006795523E+02 0.  0.
         23    2    4    4    0    0 -0.40120989908E+03 -0.32452029355E+03 -0.36969232076E+02  0.52521730244E+03  0.90574205013E+02 0.  0.
          5    1    3    3  502    0  0.30518353318E+03  0.39977641840E+02 -0.31578336203E+02  0.30944221122E+03  0.47000000000E+01 0. -1.
         -5    1    3    3    0  502  0.44726901404E+03  0.61785923227E+02  0.64236545013E+02  0.45608715718E+03  0.47000000000E+01 0.  1.
         13    1    5    5    0    0 -0.22365771676E+03  0.17176815509E+03 -0.17384438357E+03  0.33128378026E+03  0.00000000000E+00 0.  1.
        -13    1    5    5    0    0 -0.12758493138E+03  0.50988573397E+02 -0.31173755974E+02  0.14088843953E+03  0.00000000000E+00 0. -1.
          1    1    6    6  503    0 -0.21113776100E+03 -0.15510724804E+03  0.24979610637E+02  0.26317559435E+03  0.00000000000E+00 0. -1.
         -1    1    6    6    0  503 -0.19007213809E+03 -0.16941304551E+03 -0.61948842713E+02  0.26204170809E+03  0.00000000000E+00 0.  1.
<mgrwt>
<rscale>  0 0.84768531E+03</rscale>
<asrwt>0</asrwt>
<pdfrwt beam="1">  1        1 0.11950690E+00 0.84768531E+03</pdfrwt>
<pdfrwt beam="2">  1       -1 0.15171139E+00 0.84768531E+03</pdfrwt>
<totfact> 0.79934045E+00</totfact>
</mgrwt>
</event>
<event>
12    1  0.3203156E-008  0.7782684E+03  0.7818608E-02  0.9592017E-01
         -1   -1    0    0    0  501 -0.00000000000E+00  0.00000000000E+00  0.44326912869E+03  0.44326912869E+03  0.00000000000E+00 0.  1.
          1   -1    0    0  501    0  0.00000000000E+00 -0.00000000000E+00 -0.15127175534E+04  0.15127175534E+04  0.00000000000E+00 0. -1.
         23    2    1    2    0    0  0.20575241712E+03 -0.66740814125E+03 -0.34441219666E+03  0.78403933488E+03  0.91270111601E+02 0.  0.
    5000000    2    1    2    0    0 -0.20575241712E+03  0.66740814125E+03 -0.72503622803E+03  0.11719473472E+04  0.60001280690E+03 0.  0.
         23    2    4    4    0    0  0.24755634877E+02 -0.45039776579E+02 -0.27282957123E+03  0.29287451513E+03  0.93263517748E+02 0.  0.
         23    2    4    4    0    0 -0.23050805200E+03  0.71244791783E+03 -0.45220665680E+03  0.87907283205E+03  0.86960829861E+02 0.  0.
          5    1    3    3  502    0  0.58614563343E+02 -0.29809244102E+03 -0.11397798779E+03  0.32451169799E+03  0.47000000000E+01 0. -1.
         -5    1    3    3    0  502  0.14713785378E+03 -0.36931570023E+03 -0.23043420887E+03  0.45952763689E+03  0.47000000000E+01 0. -1.
         11    1    5    5    0    0  0.46474256009E+02 -0.62892083118E+02 -0.20783242002E+03  0.22205761730E+03  0.00000000000E+00 0.  1.
        -11    1    5    5    0    0 -0.21718621131E+02  0.17852306539E+02 -0.64997151212E+02  0.70816897830E+02  0.00000000000E+00 0. -1.
          4    1    6    6  503    0 -0.25741150658E+02  0.78274249223E+02 -0.20049536646E+02  0.84802410628E+02  0.00000000000E+00 0. -1.
         -4    1    6    6    0  503 -0.20476690134E+03  0.63417366861E+03 -0.43215712015E+03  0.79427042142E+03  0.00000000000E+00 0.  1.
<mgrwt>
<rscale>  0 0.77826840E+03</rscale>
<asrwt>0</asrwt>
<pdfrwt beam="1">  1        1 0.23272577E+00 0.77826840E+03</pdfrwt>
<pdfrwt beam="2">  1       -1 0.68195252E-01 0.77826840E+03</pdfrwt>
<totfact> 0.14408862E+01</totfact>
</mgrwt>
</event>
<event>
12    1  0.3203156E-008  0.6347583E+03  0.7818608E-02  0.9835807E-01
          1   -1    0    0  501    0  0.00000000000E+00  0.00000000000E+00  0.63349453148E+03  0.63349453148E+03  0.00000000000E+00 0. -1.
         -1   -1    0    0    0  501 -0.00000000000E+00 -0.00000000000E+00 -0.75643206641E+03  0.75643206641E+03  0.00000000000E+00 0.  1.
         23    2    1    2    0    0  0.27313260177E+03  0.48349093101E+03  0.17994252771E+01  0.56266828093E+03  0.90705335651E+02 0.  0.
    5000000    2    1    2    0    0 -0.27313260177E+03 -0.48349093101E+03 -0.12473696021E+03  0.82725831696E+03  0.60035998802E+03 0.  0.
         23    2    4    4    0    0 -0.21754715452E+03 -0.63425484714E+01  0.13586494834E+03  0.27262868390E+03  0.92196110186E+02 0.  0.
         23    2    4    4    0    0 -0.55585447248E+02 -0.47714838254E+03 -0.26060190854E+03  0.55462963306E+03  0.94553446398E+02 0.  0.
          5    1    3    3  502    0  0.12211214986E+03  0.30458661421E+03 -0.81241583697E+01  0.32828718319E+03  0.47000000000E+01 0. -1.
         -5    1    3    3    0  502  0.15102045191E+03  0.17890431680E+03  0.99235836469E+01  0.23438109774E+03  0.47000000000E+01 0.  1.
         11    1    5    5    0    0 -0.17147311176E+03 -0.12081955113E+02  0.14550000899E+03  0.22520935662E+03  0.00000000000E+00 0.  1.
        -11    1    5    5    0    0 -0.46074042767E+02  0.57394066417E+01 -0.96350606477E+01  0.47419327275E+02  0.00000000000E+00 0. -1.
          3    1    6    6  503    0 -0.76868162078E+02 -0.27423939078E+03 -0.16701854630E+03  0.33016837009E+03  0.00000000000E+00 0. -1.
         -3    1    6    6    0  503  0.21282714830E+02 -0.20290899176E+03 -0.93583362243E+02  0.22446126297E+03  0.00000000000E+00 0.  1.
<mgrwt>
<rscale>  0 0.63475833E+03</rscale>
<asrwt>0</asrwt>
<pdfrwt beam="1">  1        1 0.97460697E-01 0.63475833E+03</pdfrwt>
<pdfrwt beam="2">  1       -1 0.11637416E+00 0.63475833E+03</pdfrwt>
<totfact> 0.21952703E+01</totfact>
</mgrwt>
</event>
<event>
12    1  0.3203156E-008  0.8110510E+03  0.7818608E-02  0.9544158E-01
         -1   -1    0    0    0  501 -0.00000000000E+00  0.00000000000E+00  0.59066567817E+03  0.59066567817E+03  0.00000000000E+00 0.  1.
          1   -1    0    0  501    0  0.00000000000E+00 -0.00000000000E+00 -0.13554615132E+04  0.13554615132E+04  0.00000000000E+00 0. -1.
         23    2    1    2    0    0  0.11035513541E+02 -0.74721102987E+03 -0.62362426524E+03  0.97746110353E+03  0.89871458243E+02 0.  0.
    5000000    2    1    2    0    0 -0.11035513541E+02  0.74721102987E+03 -0.14117156979E+03  0.96866608783E+03  0.59994872437E+03 0.  0.
         23    2    4    4    0    0  0.14097943473E+03  0.67007556062E+03  0.53655810601E+02  0.69420858277E+03  0.10084717361E+03 0.  0.
         23    2    4    4    0    0 -0.15201494827E+03  0.77135469245E+02 -0.19482738039E+03  0.27445750506E+03  0.91163527904E+02 0.  0.
          5    1    3    3  502    0  0.49590215452E+02 -0.48312351666E+03 -0.39632441223E+03  0.62686733170E+03  0.47000000000E+01 0. -1.
         -5    1    3    3    0  502 -0.38554701911E+02 -0.26408751321E+03 -0.22729985300E+03  0.35059377183E+03  0.47000000000E+01 0.  1.
         11    1    5    5    0    0  0.85387493211E+02  0.57946533214E+03  0.49759729199E+02  0.58783256613E+03  0.00000000000E+00 0.  1.
        -11    1    5    5    0    0  0.55591941518E+02  0.90610228481E+02  0.38960814017E+01  0.10637601665E+03  0.00000000000E+00 0. -1.
          2    1    6    6  503    0 -0.12581754302E+03  0.82852919229E+02 -0.11291211388E+03  0.18826525388E+03  0.00000000000E+00 0. -1.
         -2    1    6    6    0  503 -0.26197405246E+02 -0.57174499834E+01 -0.81915266509E+02  0.86192251178E+02  0.00000000000E+00 0.  1.
<mgrwt>
<rscale>  0 0.81105098E+03</rscale>
<asrwt>0</asrwt>
<pdfrwt beam="1">  1        1 0.20853254E+00 0.81105098E+03</pdfrwt>
<pdfrwt beam="2">  1       -1 0.90871645E-01 0.81105098E+03</pdfrwt>
<totfact> 0.10036419E+01</totfact>
</mgrwt>
</event>
<event>
12    1  0.3203156E-008  0.6770025E+03  0.7818608E-02  0.9757390E-01
         -1   -1    0    0    0  501 -0.00000000000E+00  0.00000000000E+00  0.14747552186E+04  0.14747552186E+04  0.00000000000E+00 0.  1.
          1   -1    0    0  501    0  0.00000000000E+00 -0.00000000000E+00 -0.38745847049E+03  0.38745847049E+03  0.00000000000E+00 0. -1.
         23    2    1    2    0    0  0.32093822189E+03  0.51353947717E+03  0.68757910098E+03  0.92078370253E+03  0.91397318669E+02 0.  0.
    5000000    2    1    2    0    0 -0.32093822189E+03 -0.51353947717E+03  0.39971764715E+03  0.94142998658E+03  0.59982671273E+03 0.  0.
         23    2    4    4    0    0  0.83618479892E+02 -0.81645339976E+02  0.29999624658E+03  0.33443854330E+03  0.90517288777E+02 0.  0.
         23    2    4    4    0    0 -0.40455670178E+03 -0.43189413719E+03  0.99721400576E+02  0.60699144328E+03  0.91080095416E+02 0.  0.
          5    1    3    3  502    0  0.20928037576E+03  0.38158236424E+03  0.44089141864E+03  0.61952458338E+03  0.47000000000E+01 0. -1.
         -5    1    3    3    0  502  0.11165784613E+03  0.13195711292E+03  0.24668768234E+03  0.30125911915E+03  0.47000000000E+01 0.  1.
         13    1    5    5    0    0  0.59260459880E+02 -0.10032264465E+03  0.24907828384E+03  0.27498441159E+03  0.00000000000E+00 0. -1.
        -13    1    5    5    0    0  0.24358020013E+02  0.18677304676E+02  0.50917962734E+02  0.59454131714E+02  0.00000000000E+00 0.  1.
          3    1    6    6  503    0 -0.72683128565E+02 -0.13510964917E+03  0.20616275081E+02  0.15479820825E+03  0.00000000000E+00 0. -1.
         -3    1    6    6    0  503 -0.33187357322E+03 -0.29678448802E+03  0.79105125495E+02  0.45219323503E+03  0.00000000000E+00 0.  1.
<mgrwt>
<rscale>  0 0.67700251E+03</rscale>
<asrwt>0</asrwt>
<pdfrwt beam="1">  1        1 0.59608996E-01 0.67700251E+03</pdfrwt>
<pdfrwt beam="2">  1       -1 0.22688542E+00 0.67700251E+03</pdfrwt>
<totfact> 0.64867341E+00</totfact>
</mgrwt>
</event>
<event>
12    1  0.3203156E-008  0.1342111E+04  0.7818608E-02  0.8996821E-01
          2   -1    0    0  501    0  0.00000000000E+00  0.00000000000E+00  0.25684135329E+04  0.25684135329E+04  0.00000000000E+00 0.  1.
         -2   -1    0    0    0  501 -0.00000000000E+00 -0.00000000000E+00 -0.10422734838E+04  0.10422734838E+04  0.00000000000E+00 0. -1.
         23    2    1    2    0    0 -0.11311844007E+04  0.67553532900E+03  0.16997908840E+04  0.21525599939E+04  0.91100762056E+02 0.  0.
    5000000    2    1    2    0    0  0.11311844007E+04 -0.67553532900E+03 -0.17365083493E+03  0.14581270228E+04  0.60004472587E+03 0.  0.
         23    2    4    4    0    0  0.50449412502E+03 -0.48498811849E+03  0.15036500361E+03  0.72162701652E+03  0.91695798171E+02 0.  0.
         23    2    4    4    0    0  0.62669027570E+03 -0.19054721051E+03 -0.32401583854E+03  0.73650000630E+03  0.91635443849E+02 0.  0.
          5    1    3    3  502    0 -0.45516934268E+03  0.32205916703E+03  0.69838927219E+03  0.89368389439E+03  0.47000000000E+01 0. -1.
         -5    1    3    3    0  502 -0.67601505804E+03  0.35347616197E+03  0.10014016118E+04  0.12588760995E+04  0.47000000000E+01 0.  1.
         11    1    5    5    0    0  0.89526209597E+02 -0.12198545637E+03  0.60774848061E+02  0.16306126434E+03  0.00000000000E+00 0. -1.
        -11    1    5    5    0    0  0.41496791543E+03 -0.36300266212E+03  0.89590155545E+02  0.55856575218E+03  0.00000000000E+00 0.  1.
          1    1    6    6  503    0  0.48500128192E+03 -0.18569021383E+03 -0.24547486402E+03  0.57442580708E+03  0.00000000000E+00 0. -1.
         -1    1    6    6    0  503  0.14168899377E+03 -0.48569966861E+01 -0.78540974521E+02  0.16207419922E+03  0.00000000000E+00 0.  1.
<mgrwt>
<rscale>  0 0.13421112E+04</rscale>
<asrwt>0</asrwt>
<pdfrwt beam="1">  1        2 0.39514054E+00 0.13421112E+04</pdfrwt>
<pdfrwt beam="2">  1       -2 0.16034977E+00 0.13421112E+04</pdfrwt>
<totfact> 0.76386134E-01</totfact>
</mgrwt>
</event>
<event>
12    1  0.3203156E-008  0.9935165E+03  0.7818608E-02  0.9315684E-01
          2   -1    0    0  501    0  0.00000000000E+00  0.00000000000E+00  0.28258737449E+04  0.28258737449E+04  0.00000000000E+00 0. -1.
         -2   -1    0    0    0  501 -0.00000000000E+00 -0.00000000000E+00 -0.46708747301E+03  0.46708747301E+03  0.00000000000E+00 0.  1.
         23    2    1    2    0    0 -0.21664075764E+03  0.89473747254E+03  0.32413067117E+03  0.98054656414E+03  0.94459037709E+02 0.  0.
    5000000    2    1    2    0    0  0.21664075764E+03 -0.89473747254E+03  0.20346556007E+04  0.23124146537E+04  0.59995812755E+03 0.  0.
         23    2    4    4    0    0 -0.10566758975E+03 -0.65083979745E+03  0.10422911949E+04  0.12367054299E+04  0.91166351887E+02 0.  0.
         23    2    4    4    0    0  0.32230834739E+03 -0.24389767509E+03  0.99236440574E+03  0.10757092239E+04  0.94839200020E+02 0.  0.
          5    1    3    3  502    0 -0.19029158694E+03  0.78458755108E+03  0.31570214217E+03  0.86687856471E+03  0.47000000000E+01 0. -1.
         -5    1    3    3    0  502 -0.26349170700E+02  0.11014992146E+03  0.84285290060E+01  0.11366799943E+03  0.47000000000E+01 0.  1.
         11    1    5    5    0    0 -0.29993827387E+02 -0.29094422286E+03  0.38470584895E+03  0.48326675937E+03  0.00000000000E+00 0. -1.
        -11    1    5    5    0    0 -0.75673762358E+02 -0.35989557459E+03  0.65758534599E+03  0.75343867048E+03  0.00000000000E+00 0.  1.
          2    1    6    6  503    0  0.23578852578E+03 -0.19933634574E+03  0.64702789657E+03  0.71692140892E+03  0.00000000000E+00 0. -1.
         -2    1    6    6    0  503  0.86519821610E+02 -0.44561329351E+02  0.34533650917E+03  0.35878781497E+03  0.00000000000E+00 0.  1.
<mgrwt>
<rscale>  0 0.99351654E+03</rscale>
<asrwt>0</asrwt>
<pdfrwt beam="1">  1        2 0.43474980E+00 0.99351654E+03</pdfrwt>
<pdfrwt beam="2">  1       -2 0.71859613E-01 0.99351654E+03</pdfrwt>
<totfact> 0.39875498E+00</totfact>
</mgrwt>
</event>
<event>
12    1  0.3203156E-008  0.7780650E+03  0.7818608E-02  0.9592321E-01
         -1   -1    0    0    0  501 -0.00000000000E+00  0.00000000000E+00  0.16428617802E+04  0.16428617802E+04  0.00000000000E+00 0.  1.
          1   -1    0    0  501    0  0.00000000000E+00 -0.00000000000E+00 -0.25247861916E+04  0.25247861916E+04  0.00000000000E+00 0. -1.
         23    2    1    2    0    0  0.66697848095E+03 -0.75621484015E+02 -0.23498883168E+04  0.24455833865E+04  0.91236483192E+02 0.  0.
    5000000    2    1    2    0    0 -0.66697848095E+03  0.75621484015E+02  0.14679639055E+04  0.17220645853E+04  0.60000792117E+03 0.  0.
         23    2    4    4    0    0  0.77177367929E+02  0.89056659611E+02  0.24557178802E+03  0.28798041813E+03  0.93486808778E+02 0.  0.
         23    2    4    4    0    0 -0.74415584888E+03 -0.13435175596E+02  0.12223921174E+04  0.14340841672E+04  0.91686850192E+02 0.  0.
          5    1    3    3  502    0  0.33267684121E+03 -0.70242339375E+02 -0.12997103942E+04  0.13434571320E+04  0.47000000000E+01 0. -1.
         -5    1    3    3    0  502  0.33430163973E+03 -0.53791446404E+01 -0.10501779226E+04  0.11021262544E+04  0.47000000000E+01 0.  1.
         13    1    5    5    0    0  0.37592297122E+02  0.89832440679E+02  0.11079215699E+03  0.14750576345E+03  0.00000000000E+00 0. -1.
        -13    1    5    5    0    0  0.39585070807E+02 -0.77578106826E+00  0.13477963103E+03  0.14047465468E+03  0.00000000000E+00 0.  1.
          3    1    6    6  503    0 -0.10723459256E+03  0.72286026455E+01  0.12290287677E+03  0.16326857523E+03  0.00000000000E+00 0. -1.
         -3    1    6    6    0  503 -0.63692125632E+03 -0.20663778241E+02  0.10994892407E+04  0.12708155920E+04  0.00000000000E+00 0.  1.
<mgrwt>
<rscale>  0 0.77806497E+03</rscale>
<asrwt>0</asrwt>
<pdfrwt beam="1">  1        1 0.38842865E+00 0.77806497E+03</pdfrwt>
<pdfrwt beam="2">  1       -1 0.25274797E+00 0.77806497E+03</pdfrwt>
<totfact> 0.94103072E-02</totfact>
</mgrwt>
</event>
<event>
12    1  0.3203156E-008  0.1490456E+04  0.7818608E-02  0.8890825E-01
         -1   -1    0    0    0  501 -0.00000000000E+00  0.00000000000E+00  0.75815857346E+03  0.75815857346E+03  0.00000000000E+00 0.  1.
          1   -1    0    0  501    0  0.00000000000E+00 -0.00000000000E+00 -0.38449215348E+04  0.38449215348E+04  0.00000000000E+00 0. -1.
         23    2    1    2    0    0  0.14467608237E+04  0.23283103247E+03 -0.25292994851E+04  0.29243808361E+04  0.85558273736E+02 0.  0.
    5000000    2    1    2    0    0 -0.14467608237E+04 -0.23283103247E+03 -0.55746347623E+03  0.16786992722E+04  0.59994878834E+03 0.  0.
         23    2    4    4    0    0 -0.26249074063E+03 -0.19239809425E+03 -0.32130945616E+03  0.46682416301E+03  0.93630213910E+02 0.  0.
         23    2    4    4    0    0 -0.11842700831E+04 -0.40432938215E+02 -0.23615402007E+03  0.12118751092E+04  0.93499235600E+02 0.  0.
          5    1    3    3  502    0  0.10653627898E+04  0.17886022200E+03 -0.17894749212E+04  0.20902706611E+04  0.47000000000E+01 0. -1.
         -5    1    3    3    0  502  0.38139803387E+03  0.53970810467E+02 -0.73982456394E+03  0.83411017500E+03  0.47000000000E+01 0.  1.
         13    1    5    5    0    0 -0.12146687690E+03 -0.12176767283E+03 -0.22046553843E+03  0.27961870818E+03  0.00000000000E+00 0. -1.
        -13    1    5    5    0    0 -0.14102386373E+03 -0.70630421424E+02 -0.10084391773E+03  0.18720545482E+03  0.00000000000E+00 0.  1.
          1    1    6    6  503    0 -0.46635885178E+03  0.43650222829E+01 -0.51283123499E+02  0.46919035669E+03  0.00000000000E+00 0. -1.
         -1    1    6    6    0  503 -0.71791123127E+03 -0.44797960498E+02 -0.18487089657E+03  0.74268475254E+03  0.00000000000E+00 0.  1.
<mgrwt>
<rscale>  0 0.14904558E+04</rscale>
<asrwt>0</asrwt>
<pdfrwt beam="1">  1        1 0.59152639E+00 0.14904558E+04</pdfrwt>
<pdfrwt beam="2">  1       -1 0.11663978E+00 0.14904558E+04</pdfrwt>
<totfact> 0.83693758E-02</totfact>
</mgrwt>
</event>
<event>
12    1  0.3203156E-008  0.6008009E+03  0.7818608E-02  0.9903746E-01
         -2   -1    0    0    0  501 -0.00000000000E+00  0.00000000000E+00  0.35262619749E+03  0.35262619749E+03  0.00000000000E+00 0.  1.
          2   -1    0    0  501    0  0.00000000000E+00 -0.00000000000E+00 -0.16011623235E+04  0.16011623235E+04  0.00000000000E+00 0. -1.
         23    2    1    2    0    0  0.48989795834E+03  0.87746891725E+02 -0.10240401932E+04  0.11424799942E+04  0.94354084852E+02 0.  0.
    5000000    2    1    2    0    0 -0.48989795834E+03 -0.87746891725E+02 -0.22449593282E+03  0.81130852677E+03  0.60010297046E+03 0.  0.
         23    2    4    4    0    0 -0.17948028239E+03  0.20209514942E+03 -0.24775685577E+03  0.37751685928E+03  0.89888254364E+02 0.  0.
         23    2    4    4    0    0 -0.31041767595E+03 -0.28984204115E+03  0.23260922949E+02  0.43379166748E+03  0.85244342235E+02 0.  0.
          5    1    3    3  502    0  0.17600035109E+03  0.66497956631E+02 -0.31835823825E+03  0.36982720246E+03  0.47000000000E+01 0. -1.
         -5    1    3    3    0  502  0.31389760725E+03  0.21248935094E+02 -0.70568195493E+03  0.77265279174E+03  0.47000000000E+01 0.  1.
         11    1    5    5    0    0 -0.82300652364E+02  0.85195173824E+02 -0.16880245606E+03  0.20621805012E+03  0.00000000000E+00 0. -1.
        -11    1    5    5    0    0 -0.97179630028E+02  0.11689997560E+03 -0.78954399712E+02  0.17129880916E+03  0.00000000000E+00 0.  1.
          2    1    6    6  503    0 -0.19807245212E+03 -0.21982169801E+03  0.46072908490E+02  0.29946116293E+03  0.00000000000E+00 0. -1.
         -2    1    6    6    0  503 -0.11234522383E+03 -0.70020343142E+02 -0.22811985540E+02  0.13433050456E+03  0.00000000000E+00 0.  1.
<mgrwt>
<rscale>  0 0.60080094E+03</rscale>
<asrwt>0</asrwt>
<pdfrwt beam="1">  1        2 0.24633267E+00 0.60080094E+03</pdfrwt>
<pdfrwt beam="2">  1       -2 0.54250183E-01 0.60080094E+03</pdfrwt>
<totfact> 0.37191498E+01</totfact>
</mgrwt>
</event>
<event>
12    1  0.3203156E-008  0.1164967E+04  0.7818608E-02  0.9144085E-01
         -2   -1    0    0    0  501 -0.00000000000E+00  0.00000000000E+00  0.11714184715E+04  0.11714184715E+04  0.00000000000E+00 0.  1.
          2   -1    0    0  501    0  0.00000000000E+00 -0.00000000000E+00 -0.19043713582E+04  0.19043713582E+04  0.00000000000E+00 0. -1.
         23    2    1    2    0    0  0.10787688699E+04 -0.24768337827E+03 -0.12873143442E+04  0.17001601984E+04  0.90978837535E+02 0.  0.
    5000000    2    1    2    0    0 -0.10787688699E+04  0.24768337827E+03  0.55436145747E+03  0.13756296313E+04  0.59995910402E+03 0.  0.
         23    2    4    4    0    0 -0.10471508867E+04  0.32119739532E+03  0.37897542910E+03  0.11628346766E+04  0.94177295188E+02 0.  0.
         23    2    4    4    0    0 -0.31617983246E+02 -0.73514017050E+02  0.17538602837E+03  0.21279495477E+03  0.90096760550E+02 0.  0.
          5    1    3    3  502    0  0.77179601271E+03 -0.13754562102E+03 -0.88726096984E+03  0.11839940885E+04  0.47000000000E+01 0. -1.
         -5    1    3    3    0  502  0.30697285720E+03 -0.11013775725E+03 -0.40005337437E+03  0.51616610987E+03  0.47000000000E+01 0.  1.
         11    1    5    5    0    0 -0.20186644669E+03  0.24000905958E+02  0.65816774943E+02  0.21367721836E+03  0.00000000000E+00 0. -1.
        -11    1    5    5    0    0 -0.84528443998E+03  0.29719648936E+03  0.31315865416E+03  0.94915745819E+03  0.00000000000E+00 0.  1.
          3    1    6    6  503    0  0.56408150853E+01 -0.82076877224E+02  0.12057988087E+03  0.14597239547E+03  0.00000000000E+00 0. -1.
         -3    1    6    6    0  503 -0.37258798331E+02  0.85628601733E+01  0.54806147505E+02  0.66822559303E+02  0.00000000000E+00 0.  1.
<mgrwt>
<rscale>  0 0.11649674E+04</rscale>
<asrwt>0</asrwt>
<pdfrwt beam="1">  1        2 0.29298021E+00 0.11649674E+04</pdfrwt>
<pdfrwt beam="2">  1       -2 0.18021823E+00 0.11649674E+04</pdfrwt>
<totfact> 0.13307512E+00</totfact>
</mgrwt>
</event>
<event>
12    1  0.3203156E-008  0.1175848E+04  0.7818608E-02  0.9134263E-01
          1   -1    0    0  501    0  0.00000000000E+00  0.00000000000E+00  0.13953250042E+04  0.13953250042E+04  0.00000000000E+00 0. -1.
         -1   -1    0    0    0  501 -0.00000000000E+00 -0.00000000000E+00 -0.12727485681E+04  0.12727485681E+04  0.00000000000E+00 0.  1.
         23    2    1    2    0    0 -0.41764809539E+03  0.10874378414E+04 -0.43128090270E+03  0.12455426449E+04  0.91772940544E+02 0.  0.
    5000000    2    1    2    0    0  0.41764809539E+03 -0.10874378414E+04  0.55385733884E+03  0.14225309274E+04  0.59990440660E+03 0.  0.
         23    2    4    4    0    0  0.18272965886E+03 -0.29212523725E+03 -0.90387825635E+02  0.36860424236E+03  0.94719828945E+02 0.  0.
         23    2    4    4    0    0  0.23491843652E+03 -0.79531260417E+03  0.64424516447E+03  0.10539266850E+04  0.89447276616E+02 0.  0.
          5    1    3    3  502    0 -0.22581677805E+03  0.66054421858E+03 -0.21921681822E+03  0.73170348184E+03  0.47000000000E+01 0. -1.
         -5    1    3    3    0  502 -0.19183131734E+03  0.42689362284E+03 -0.21206408448E+03  0.51383916303E+03  0.47000000000E+01 0.  1.
         13    1    5    5    0    0 -0.81545765947E+01 -0.29930888213E+02  0.28408284404E+01  0.31151653165E+02  0.00000000000E+00 0.  1.
        -13    1    5    5    0    0  0.19088423546E+03 -0.26219434904E+03 -0.93228654075E+02  0.33745258920E+03  0.00000000000E+00 0. -1.
          3    1    6    6  503    0  0.22879230452E+03 -0.73969704255E+03  0.57248452420E+03  0.96293102754E+03  0.00000000000E+00 0. -1.
         -3    1    6    6    0  503  0.61261320074E+01 -0.55615561621E+02  0.71760640280E+02  0.90995657485E+02  0.00000000000E+00 0.  1.
<mgrwt>
<rscale>  0 0.11758480E+04</rscale>
<asrwt>0</asrwt>
<pdfrwt beam="1">  1        1 0.21466539E+00 0.11758480E+04</pdfrwt>
<pdfrwt beam="2">  1       -1 0.19580747E+00 0.11758480E+04</pdfrwt>
<totfact> 0.12242244E+00</totfact>
</mgrwt>
</event>
<event>
12    1  0.3203156E-008  0.7534228E+03  0.7818608E-02  0.9629996E-01
         -2   -1    0    0    0  501 -0.00000000000E+00  0.00000000000E+00  0.56123332270E+03  0.56123332270E+03  0.00000000000E+00 0.  1.
          2   -1    0    0  501    0  0.00000000000E+00 -0.00000000000E+00 -0.12512344686E+04  0.12512344686E+04  0.00000000000E+00 0. -1.
         23    2    1    2    0    0  0.64607209981E+03 -0.12233694134E+02  0.60055359784E+02  0.65491231621E+03  0.88003830942E+02 0.  0.
    5000000    2    1    2    0    0 -0.64607209981E+03  0.12233694134E+02 -0.75005650566E+03  0.11575554751E+04  0.59982588703E+03 0.  0.
         23    2    4    4    0    0 -0.24335117939E+03  0.27256601967E+03 -0.43964802427E+03  0.57890710689E+03  0.91274429999E+02 0.  0.
         23    2    4    4    0    0 -0.40272092042E+03 -0.26033232553E+03 -0.31040848139E+03  0.57864836818E+03  0.92322528235E+02 0.  0.
          5    1    3    3  502    0  0.12060015654E+03 -0.32893145647E+02  0.27007971413E+02  0.12797608100E+03  0.47000000000E+01 0. -1.
         -5    1    3    3    0  502  0.52547194327E+03  0.20659451513E+02  0.33047388371E+02  0.52693623521E+03  0.47000000000E+01 0.  1.
         13    1    5    5    0    0 -0.14443613907E+03  0.10594515149E+03 -0.25193883827E+03  0.30912675656E+03  0.00000000000E+00 0. -1.
        -13    1    5    5    0    0 -0.98915040326E+02  0.16662086817E+03 -0.18770918600E+03  0.26978035033E+03  0.00000000000E+00 0.  1.
          3    1    6    6  503    0 -0.24522321647E+03 -0.19120788948E+03 -0.15779454638E+03  0.34870331482E+03  0.00000000000E+00 0. -1.
         -3    1    6    6    0  503 -0.15749770394E+03 -0.69124436053E+02 -0.15261393501E+03  0.22994505336E+03  0.00000000000E+00 0.  1.
<mgrwt>
<rscale>  0 0.75342284E+03</rscale>
<asrwt>0</asrwt>
<pdfrwt beam="1">  1        2 0.19249761E+00 0.75342284E+03</pdfrwt>
<pdfrwt beam="2">  1       -2 0.86343589E-01 0.75342284E+03</pdfrwt>
<totfact> 0.20926561E+01</totfact>
</mgrwt>
</event>
<event>
12    1  0.3203156E-008  0.4383714E+03  0.7818608E-02  0.1031248E+00
         -1   -1    0    0    0  501 -0.00000000000E+00  0.00000000000E+00  0.34550860199E+03  0.34550860199E+03  0.00000000000E+00 0.  1.
          1   -1    0    0  501    0  0.00000000000E+00 -0.00000000000E+00 -0.10225556754E+04  0.10225556754E+04  0.00000000000E+00 0. -1.
         23    2    1    2    0    0  0.21733375037E+03 -0.29567418347E+03  0.19871183209E+02  0.37797628461E+03  0.88396979537E+02 0.  0.
    5000000    2    1    2    0    0 -0.21733375037E+03  0.29567418347E+03 -0.69691825658E+03  0.99008799275E+03  0.59993499248E+03 0.  0.
         23    2    4    4    0    0  0.68885619076E+02  0.27160154362E+02  0.60873970970E+02  0.13199612689E+03  0.90743785860E+02 0.  0.
         23    2    4    4    0    0 -0.28621936944E+03  0.26851402911E+03 -0.75779222755E+03  0.85809186586E+03  0.89728918629E+02 0.  0.
          5    1    3    3  502    0  0.16649949185E+03 -0.19391757527E+03 -0.22226547851E+02  0.25659738154E+03  0.47000000000E+01 0. -1.
         -5    1    3    3    0  502  0.50834258519E+02 -0.10175660820E+03  0.42097731060E+02  0.12137890307E+03  0.47000000000E+01 0.  1.
         13    1    5    5    0    0  0.75221513077E+02 -0.23446708456E+01  0.14460536763E+02  0.76634722120E+02  0.00000000000E+00 0. -1.
        -13    1    5    5    0    0 -0.63358940011E+01  0.29504825208E+02  0.46413434207E+02  0.55361404771E+02  0.00000000000E+00 0.  1.
          3    1    6    6  503    0 -0.85060061307E+02  0.13777653681E+03 -0.27990068752E+03  0.32336045367E+03  0.00000000000E+00 0. -1.
         -3    1    6    6    0  503 -0.20115930814E+03  0.13073749230E+03 -0.47789154004E+03  0.53473141219E+03  0.00000000000E+00 0.  1.
<mgrwt>
<rscale>  0 0.43837138E+03</rscale>
<asrwt>0</asrwt>
<pdfrwt beam="1">  1        1 0.15731626E+00 0.43837138E+03</pdfrwt>
<pdfrwt beam="2">  1       -1 0.53155170E-01 0.43837138E+03</pdfrwt>
<totfact> 0.55227177E+01</totfact>
</mgrwt>
</event>
<event>
12    1  0.3203156E-008  0.1038830E+04  0.7818608E-02  0.9266953E-01
         -2   -1    0    0    0  501 -0.00000000000E+00  0.00000000000E+00  0.57318472240E+03  0.57318472240E+03  0.00000000000E+00 0.  1.
          2   -1    0    0  501    0  0.00000000000E+00 -0.00000000000E+00 -0.22736837346E+04  0.22736837346E+04  0.00000000000E+00 0. -1.
         23    2    1    2    0    0  0.83853887130E+03 -0.59878124442E+03 -0.47900933496E+03  0.11398708108E+04  0.90383100635E+02 0.  0.
    5000000    2    1    2    0    0 -0.83853887130E+03  0.59878124442E+03 -0.12214896772E+04  0.17069976462E+04  0.60009792141E+03 0.  0.
         23    2    4    4    0    0 -0.45495173297E+03  0.26452727024E+03 -0.10215657807E+04  0.11527921850E+04  0.91528255491E+02 0.  0.
         23    2    4    4    0    0 -0.38358713833E+03  0.33425397418E+03 -0.19992389654E+03  0.55420546120E+03  0.91155454398E+02 0.  0.
          5    1    3    3  502    0  0.43669701623E+03 -0.35314587431E+03 -0.29304244449E+03  0.63349211265E+03  0.47000000000E+01 0. -1.
         -5    1    3    3    0  502  0.40184185507E+03 -0.24563537011E+03 -0.18596689047E+03  0.50637869810E+03  0.47000000000E+01 0.  1.
         11    1    5    5    0    0 -0.13004074921E+03  0.12169607943E+03 -0.37764138700E+03  0.41753269259E+03  0.00000000000E+00 0. -1.
        -11    1    5    5    0    0 -0.32491098376E+03  0.14283119081E+03 -0.64392439367E+03  0.73525949242E+03  0.00000000000E+00 0.  1.
          1    1    6    6  503    0 -0.62803894141E+02  0.85426212811E+02 -0.11552829377E+02  0.10665568349E+03  0.00000000000E+00 0. -1.
         -1    1    6    6    0  503 -0.32078324419E+03  0.24882776137E+03 -0.18837106717E+03  0.44754977771E+03  0.00000000000E+00 0.  1.
<mgrwt>
<rscale>  0 0.10388302E+04</rscale>
<asrwt>0</asrwt>
<pdfrwt beam="1">  1        2 0.34979749E+00 0.10388302E+04</pdfrwt>
<pdfrwt beam="2">  1       -2 0.88182267E-01 0.10388302E+04</pdfrwt>
<totfact> 0.52007988E+00</totfact>
</mgrwt>
</event>
<event>
12    1  0.3203156E-008  0.5106235E+03  0.7818608E-02  0.1011043E+00
          1   -1    0    0  501    0  0.00000000000E+00  0.00000000000E+00  0.13857910292E+04  0.13857910292E+04  0.00000000000E+00 0. -1.
         -1   -1    0    0    0  501 -0.00000000000E+00 -0.00000000000E+00 -0.47006520969E+03  0.47006520969E+03  0.00000000000E+00 0.  1.
         23    2    1    2    0    0  0.19890022027E+03  0.32585725381E+03  0.10597880082E+04  0.11301934622E+04  0.91882491209E+02 0.  0.
    5000000    2    1    2    0    0 -0.19890022027E+03 -0.32585725381E+03 -0.14406218863E+03  0.72566277674E+03  0.60007358205E+03 0.  0.
         23    2    4    4    0    0 -0.10357841282E+03  0.11894476494E+03 -0.18795077462E+03  0.26126983025E+03  0.89777980641E+02 0.  0.
         23    2    4    4    0    0 -0.95321807453E+02 -0.44480201875E+03  0.43888585988E+02  0.46439294649E+03  0.82459189372E+02 0.  0.
          5    1    3    3  502    0  0.32711933405E+01  0.44629377392E+02  0.19243516208E+03  0.19762556423E+03  0.47000000000E+01 0. -1.
         -5    1    3    3    0  502  0.19562902693E+03  0.28122787642E+03  0.86735284608E+03  0.93256789793E+03  0.47000000000E+01 0.  1.
         13    1    5    5    0    0  0.33974974225E+01 -0.10333377303E+02 -0.25472547023E+02  0.27697875858E+02  0.00000000000E+00 0. -1.
        -13    1    5    5    0    0 -0.10697591024E+03  0.12927814224E+03 -0.16247822760E+03  0.23357195439E+03  0.00000000000E+00 0.  1.
          4    1    6    6  503    0 -0.44061200917E+02 -0.22368286728E+03  0.63230577146E+02  0.23658723640E+03  0.00000000000E+00 0.  1.
         -4    1    6    6    0  503 -0.51260606536E+02 -0.22111915147E+03 -0.19341991157E+02  0.22780571009E+03  0.00000000000E+00 0. -1.
<mgrwt>
<rscale>  0 0.51062354E+03</rscale>
<asrwt>0</asrwt>
<pdfrwt beam="1">  1        1 0.21319862E+00 0.51062354E+03</pdfrwt>
<pdfrwt beam="2">  1       -1 0.72317725E-01 0.51062354E+03</pdfrwt>
<totfact> 0.16321457E+01</totfact>
</mgrwt>
</event>
<event>
12    1  0.3203156E-008  0.4512941E+03  0.7818608E-02  0.1027337E+00
          1   -1    0    0  501    0  0.00000000000E+00  0.00000000000E+00  0.49249520794E+03  0.49249520794E+03  0.00000000000E+00 0. -1.
         -1   -1    0    0    0  501 -0.00000000000E+00 -0.00000000000E+00 -0.49323578312E+03  0.49323578312E+03  0.00000000000E+00 0.  1.
         23    2    1    2    0    0  0.21182879295E+03 -0.20578259075E+03 -0.57853029752E+02  0.31454461938E+03  0.91506460704E+02 0.  0.
    5000000    2    1    2    0    0 -0.21182879295E+03  0.20578259075E+03  0.57112454571E+02  0.67118637168E+03  0.60000950066E+03 0.  0.
         23    2    4    4    0    0 -0.14939982704E+03  0.36681959486E+03  0.17585747878E+03  0.44279590461E+03  0.90914447750E+02 0.  0.
         23    2    4    4    0    0 -0.62428965913E+02 -0.16103700411E+03 -0.11874502421E+03  0.22839046706E+03  0.90727791742E+02 0.  0.
          5    1    3    3  502    0  0.15003714758E+03 -0.96541856677E+02 -0.57394670599E+01  0.17856793448E+03  0.47000000000E+01 0. -1.
         -5    1    3    3    0  502  0.61791645374E+02 -0.10924073408E+03 -0.52113562692E+02  0.13597668490E+03  0.47000000000E+01 0.  1.
         13    1    5    5    0    0 -0.11003231386E+02  0.12081704289E+03  0.29522498758E+02  0.12485754638E+03  0.00000000000E+00 0. -1.
        -13    1    5    5    0    0 -0.13839659565E+03  0.24600255197E+03  0.14633498002E+03  0.31793835824E+03  0.00000000000E+00 0.  1.
          4    1    6    6  503    0  0.23479432650E+02 -0.42384833577E+02 -0.25649382507E+02  0.54823796821E+02  0.00000000000E+00 0. -1.
         -4    1    6    6    0  503 -0.85908398563E+02 -0.11865217053E+03 -0.93095641699E+02  0.17356667024E+03  0.00000000000E+00 0.  1.
<mgrwt>
<rscale>  0 0.45129407E+03</rscale>
<asrwt>0</asrwt>
<pdfrwt beam="1">  1        1 0.75768493E-01 0.45129407E+03</pdfrwt>
<pdfrwt beam="2">  1       -1 0.75882428E-01 0.45129407E+03</pdfrwt>
<totfact> 0.82672352E+01</totfact>
</mgrwt>
</event>
<event>
12    1  0.3203156E-008  0.4209186E+03  0.7818608E-02  0.1036768E+00
         -2   -1    0    0    0  501 -0.00000000000E+00  0.00000000000E+00  0.32731896596E+03  0.32731896596E+03  0.00000000000E+00 0.  1.
          2   -1    0    0  501    0  0.00000000000E+00 -0.00000000000E+00 -0.13766812118E+04  0.13766812118E+04  0.00000000000E+00 0. -1.
         23    2    1    2    0    0  0.34986918768E+03  0.19985104715E+03  0.13130663871E+02  0.41880054870E+03  0.11345746218E+03 0.  0.
    5000000    2    1    2    0    0 -0.34986918768E+03 -0.19985104715E+03 -0.10624929098E+04  0.12851996291E+04  0.60041486811E+03 0.  0.
         23    2    4    4    0    0  0.45822697022E+00 -0.38962314839E+02  0.43786598761E+02  0.11014948150E+03  0.93259691688E+02 0.  0.
         23    2    4    4    0    0 -0.35032741465E+03 -0.16088873231E+03 -0.11062795085E+04  0.11750501476E+04  0.90961622662E+02 0.  0.
          5    1    3    3  502    0  0.33891233563E+03  0.16280640326E+03 -0.45755882411E+01  0.37604590437E+03  0.47000000000E+01 0. -1.
         -5    1    3    3    0  502  0.10956852044E+02  0.37044643891E+02  0.17706252112E+02  0.42754644328E+02  0.47000000000E+01 0.  1.
         11    1    5    5    0    0  0.14023962998E+01 -0.10911212958E+02  0.70529165005E+02  0.71381961306E+02  0.00000000000E+00 0. -1.
        -11    1    5    5    0    0 -0.94416932955E+00 -0.28051101881E+02 -0.26742566245E+02  0.38767520192E+02  0.00000000000E+00 0.  1.
          3    1    6    6  503    0 -0.35093173918E+03 -0.15795741424E+03 -0.10435631510E+04  0.11122624153E+04  0.00000000000E+00 0. -1.
         -3    1    6    6    0  503  0.60432452725E+00 -0.29313180683E+01 -0.62716357495E+02  0.62787732330E+02  0.00000000000E+00 0.  1.
<mgrwt>
<rscale>  0 0.42091862E+03</rscale>
<asrwt>0</asrwt>
<pdfrwt beam="1">  1        2 0.21179711E+00 0.42091862E+03</pdfrwt>
<pdfrwt beam="2">  1       -2 0.50356765E-01 0.42091862E+03</pdfrwt>
<totfact> 0.59211711E+01</totfact>
</mgrwt>
</event>
<event>
12    1  0.3203156E-008  0.5381374E+03  0.7818608E-02  0.1004278E+00
          2   -1    0    0  501    0  0.00000000000E+00  0.00000000000E+00  0.27654052236E+04  0.27654052236E+04  0.00000000000E+00 0. -1.
         -2   -1    0    0    0  501 -0.00000000000E+00 -0.00000000000E+00 -0.18726055506E+03  0.18726055506E+03  0.00000000000E+00 0.  1.
         23    2    1    2    0    0 -0.39284592264E+03  0.24539037108E+03  0.31902988812E+03  0.56975283274E+03  0.91070674443E+02 0.  0.
    5000000    2    1    2    0    0  0.39284592264E+03 -0.24539037108E+03  0.22591147805E+04  0.23829129460E+04  0.60010845985E+03 0.  0.
         23    2    4    4    0    0  0.46383929173E+03 -0.21138890541E+03  0.21783216969E+04  0.22390490592E+04  0.91777538006E+02 0.  0.
         23    2    4    4    0    0 -0.70993369088E+02 -0.34001465673E+02  0.80793083536E+02  0.14386388673E+03  0.89292426527E+02 0.  0.
          5    1    3    3  502    0 -0.55062658252E+02  0.43825090144E+02  0.13858614479E+02  0.71879663711E+02  0.47000000000E+01 0. -1.
         -5    1    3    3    0  502 -0.33778326439E+03  0.20156528094E+03  0.30517127365E+03  0.49787316903E+03  0.47000000000E+01 0.  1.
         11    1    5    5    0    0  0.21417176822E+03 -0.14537052814E+03  0.10267818907E+04  0.10589066002E+04  0.00000000000E+00 0.  1.
        -11    1    5    5    0    0  0.24966752351E+03 -0.66018377264E+02  0.11515398062E+04  0.11801424591E+04  0.00000000000E+00 0. -1.
          1    1    6    6  503    0 -0.54121566882E+02 -0.48763239421E+02  0.93159596583E+02  0.11826118533E+03  0.00000000000E+00 0. -1.
         -1    1    6    6    0  503 -0.16871802206E+02  0.14761773748E+02 -0.12366513047E+02  0.25602701397E+02  0.00000000000E+00 0.  1.
<mgrwt>
<rscale>  0 0.53813744E+03</rscale>
<asrwt>0</asrwt>
<pdfrwt beam="1">  1        2 0.42544693E+00 0.53813744E+03</pdfrwt>
<pdfrwt beam="2">  1       -2 0.28809318E-01 0.53813744E+03</pdfrwt>
<totfact> 0.29275138E+01</totfact>
</mgrwt>
</event>
<event>
12    1  0.3203156E-008  0.3920363E+03  0.7818608E-02  0.1046573E+00
          2   -1    0    0  501    0  0.00000000000E+00  0.00000000000E+00  0.10130629632E+04  0.10130629632E+04  0.00000000000E+00 0. -1.
         -2   -1    0    0    0  501 -0.00000000000E+00 -0.00000000000E+00 -0.30902504515E+03  0.30902504515E+03  0.00000000000E+00 0.  1.
         23    2    1    2    0    0 -0.25092491251E+03  0.26331039594E+03  0.80907752797E+02  0.38371244889E+03  0.91616061048E+02 0.  0.
    5000000    2    1    2    0    0  0.25092491251E+03 -0.26331039594E+03  0.62313016526E+03  0.93837555947E+03  0.59996817535E+03 0.  0.
         23    2    4    4    0    0  0.14400479527E+03 -0.80040679502E+02 -0.76241883230E+02  0.20303833635E+03  0.90927717625E+02 0.  0.
         23    2    4    4    0    0  0.10692011724E+03 -0.18326971644E+03  0.69937204849E+03  0.73533722312E+03  0.81116392136E+02 0.  0.
          5    1    3    3  502    0 -0.10099345241E+03  0.17185655902E+03  0.44411787210E+02  0.20427640871E+03  0.47000000000E+01 0. -1.
         -5    1    3    3    0  502 -0.14993146009E+03  0.91453836914E+02  0.36495965587E+02  0.17943604018E+03  0.47000000000E+01 0.  1.
         13    1    5    5    0    0  0.76937261553E+02  0.75730082863E+00 -0.58245007523E+02  0.96500759692E+02  0.00000000000E+00 0. -1.
        -13    1    5    5    0    0  0.67067533716E+02 -0.80797980331E+02 -0.17996875707E+02  0.10653757665E+03  0.00000000000E+00 0.  1.
          3    1    6    6  503    0  0.22386714290E+02  0.29125257510E+01  0.76517705498E+02  0.79778487310E+02  0.00000000000E+00 0. -1.
         -3    1    6    6    0  503  0.84533402949E+02 -0.18618224219E+03  0.62285434299E+03  0.65555873581E+03  0.00000000000E+00 0.  1.
<mgrwt>
<rscale>  0 0.39203633E+03</rscale>
<asrwt>0</asrwt>
<pdfrwt beam="1">  1        2 0.15585584E+00 0.39203633E+03</pdfrwt>
<pdfrwt beam="2">  1       -2 0.47542315E-01 0.39203633E+03</pdfrwt>
<totfact> 0.10873069E+02</totfact>
</mgrwt>
</event>
<event>
12    1  0.3203156E-008  0.3091122E+03  0.7818608E-02  0.1080772E+00
         -2   -1    0    0    0  501 -0.00000000000E+00  0.00000000000E+00  0.97009845433E+02  0.97009845433E+02  0.00000000000E+00 0.  1.
          2   -1    0    0  501    0  0.00000000000E+00 -0.00000000000E+00 -0.17141760406E+04  0.17141760406E+04  0.00000000000E+00 0. -1.
         23    2    1    2    0    0  0.76817036897E+02 -0.55616143023E+02 -0.68898871376E+03  0.70195367966E+03  0.95076328113E+02 0.  0.
    5000000    2    1    2    0    0 -0.76817036897E+02  0.55616143023E+02 -0.92817748139E+03  0.11092322064E+04  0.59990719128E+03 0.  0.
         23    2    4    4    0    0 -0.18225910487E+03 -0.15548048771E+03 -0.16212129315E+03  0.30250165310E+03  0.88495045462E+02 0.  0.
         23    2    4    4    0    0  0.10544206797E+03  0.21109663074E+03 -0.76605618824E+03  0.80673055326E+03  0.91061983375E+02 0.  0.
          5    1    3    3  502    0 -0.19083002216E+02 -0.18411268275E+02 -0.22913966936E+03  0.23071673942E+03  0.47000000000E+01 0. -1.
         -5    1    3    3    0  502  0.95900039113E+02 -0.37204874748E+02 -0.45984904440E+03  0.47123694024E+03  0.47000000000E+01 0.  1.
         13    1    5    5    0    0 -0.13352712415E+03 -0.70867067218E+02 -0.13096307425E+03  0.20000740215E+03  0.00000000000E+00 0. -1.
        -13    1    5    5    0    0 -0.48731980711E+02 -0.84613420497E+02 -0.31158218906E+02  0.10249425095E+03  0.00000000000E+00 0.  1.
          2    1    6    6  503    0  0.81730403205E+02  0.11866680877E+03 -0.32561902491E+03  0.35607501976E+03  0.00000000000E+00 0.  1.
         -2    1    6    6    0  503  0.23711664764E+02  0.92429821967E+02 -0.44043716333E+03  0.45065553350E+03  0.00000000000E+00 0. -1.
<mgrwt>
<rscale>  0 0.30911217E+03</rscale>
<asrwt>0</asrwt>
<pdfrwt beam="1">  1        2 0.26371940E+00 0.30911217E+03</pdfrwt>
<pdfrwt beam="2">  1       -2 0.14924591E-01 0.30911217E+03</pdfrwt>
<totfact> 0.36184464E+02</totfact>
</mgrwt>
</event>
<event>
12    1  0.3203156E-008  0.8098147E+03  0.7818608E-02  0.9545918E-01
          1   -1    0    0  501    0  0.00000000000E+00  0.00000000000E+00  0.53404795418E+03  0.53404795418E+03  0.00000000000E+00 0. -1.
         -1   -1    0    0    0  501 -0.00000000000E+00 -0.00000000000E+00 -0.16182311601E+04  0.16182311601E+04  0.00000000000E+00 0.  1.
         23    2    1    2    0    0  0.31169729721E+02  0.78222384771E+03 -0.16658982474E+03  0.80512813162E+03  0.87369552223E+02 0.  0.
    5000000    2    1    2    0    0 -0.31169729721E+02 -0.78222384771E+03 -0.91759338119E+03  0.13471509827E+04  0.59999371408E+03 0.  0.
         23    2    4    4    0    0  0.10378985803E+03 -0.41707241526E+03 -0.12056468888E+03  0.45559520125E+03  0.91155959712E+02 0.  0.
         23    2    4    4    0    0 -0.13495958775E+03 -0.36515143244E+03 -0.79702869231E+03  0.89155578142E+03  0.89818239145E+02 0.  0.
          5    1    3    3  502    0  0.85682000505E+01  0.24717221792E+03 -0.11750984010E+02  0.24764429125E+03  0.47000000000E+01 0. -1.
         -5    1    3    3    0  502  0.22601529671E+02  0.53505162979E+03 -0.15483884073E+03  0.55748384038E+03  0.47000000000E+01 0.  1.
         11    1    5    5    0    0  0.27192777768E+02 -0.20781290707E+02 -0.19962978849E+02  0.39621076850E+02  0.00000000000E+00 0.  1.
        -11    1    5    5    0    0  0.76597080262E+02 -0.39629112456E+03 -0.10060171003E+03  0.41597412440E+03  0.00000000000E+00 0. -1.
          2    1    6    6  503    0 -0.77298790473E+02 -0.30847616765E+03 -0.61413336883E+03  0.69158690251E+03  0.00000000000E+00 0. -1.
         -2    1    6    6    0  503 -0.57660797279E+02 -0.56675264795E+02 -0.18289532348E+03  0.19996887891E+03  0.00000000000E+00 0.  1.
<mgrwt>
<rscale>  0 0.80981466E+03</rscale>
<asrwt>0</asrwt>
<pdfrwt beam="1">  1        1 0.82161225E-01 0.80981466E+03</pdfrwt>
<pdfrwt beam="2">  1       -1 0.24895864E+00 0.80981466E+03</pdfrwt>
<totfact> 0.29599812E+00</totfact>
</mgrwt>
</event>
<event>
12    1  0.3203156E-008  0.8134191E+03  0.7818608E-02  0.9540794E-01
         -2   -1    0    0    0  501 -0.00000000000E+00  0.00000000000E+00  0.53894102764E+03  0.53894102764E+03  0.00000000000E+00 0.  1.
          2   -1    0    0  501    0  0.00000000000E+00 -0.00000000000E+00 -0.12918487459E+04  0.12918487459E+04  0.00000000000E+00 0. -1.
         23    2    1    2    0    0 -0.51573573204E+03 -0.48615373347E+03 -0.48694321892E+03  0.86482401886E+03  0.92076529509E+02 0.  0.
    5000000    2    1    2    0    0  0.51573573204E+03  0.48615373347E+03 -0.26596449934E+03  0.96596575467E+03  0.60001993835E+03 0.  0.
         23    2    4    4    0    0 -0.11633488112E+03  0.11330613304E+03 -0.24933563515E+02  0.18833993094E+03  0.92076938747E+02 0.  0.
         23    2    4    4    0    0  0.63207061316E+03  0.37284760043E+03 -0.24103093582E+03  0.77762582372E+03  0.89874448736E+02 0.  0.
          5    1    3    3  502    0 -0.25595437235E+03 -0.22908370285E+03 -0.18170508155E+03  0.38862682652E+03  0.47000000000E+01 0. -1.
         -5    1    3    3    0  502 -0.25978135969E+03 -0.25707003062E+03 -0.30523813737E+03  0.47619719234E+03  0.47000000000E+01 0.  1.
         11    1    5    5    0    0 -0.10507635506E+03  0.46463534774E+02 -0.34323988529E+02  0.11990845110E+03  0.00000000000E+00 0. -1.
        -11    1    5    5    0    0 -0.11258526060E+02  0.66842598265E+02  0.93904250138E+01  0.68431479845E+02  0.00000000000E+00 0.  1.
          3    1    6    6  503    0  0.53987605035E+03  0.30002819985E+03 -0.17110081415E+03  0.64090448512E+03  0.00000000000E+00 0. -1.
         -3    1    6    6    0  503  0.92194562809E+02  0.72819400573E+02 -0.69930121675E+02  0.13672133860E+03  0.00000000000E+00 0.  1.
<mgrwt>
<rscale>  0 0.81341914E+03</rscale>
<asrwt>0</asrwt>
<pdfrwt beam="1">  1        2 0.19874596E+00 0.81341914E+03</pdfrwt>
<pdfrwt beam="2">  1       -2 0.82914005E-01 0.81341914E+03</pdfrwt>
<totfact> 0.21593909E+01</totfact>
</mgrwt>
</event>
<event>
12    1  0.3203156E-008  0.5491557E+03  0.7818608E-02  0.1001690E+00
         -3   -1    0    0    0  501 -0.00000000000E+00  0.00000000000E+00  0.71386703469E+03  0.71386703469E+03  0.00000000000E+00 0.  1.
          3   -1    0    0  501    0  0.00000000000E+00 -0.00000000000E+00 -0.45838768122E+03  0.45838768122E+03  0.00000000000E+00 0. -1.
         23    2    1    2    0    0  0.53096286561E+02 -0.39058230486E+03  0.20221308726E+03  0.45247843839E+03  0.92048096327E+02 0.  0.
    5000000    2    1    2    0    0 -0.53096286561E+02  0.39058230486E+03  0.53266266207E+02  0.71977627752E+03  0.59988902478E+03 0.  0.
         23    2    4    4    0    0  0.24138189422E+03  0.30303566735E+03  0.29217990203E+02  0.39819422451E+03  0.87230240966E+02 0.  0.
         23    2    4    4    0    0 -0.29447818078E+03  0.87546637504E+02  0.24048276004E+02  0.32158205301E+03  0.91950446123E+02 0.  0.
          5    1    3    3  502    0  0.18220009722E+02 -0.19366115963E+03  0.49395242632E+02  0.20074509582E+03  0.47000000000E+01 0. -1.
         -5    1    3    3    0  502  0.34876276839E+02 -0.19692114523E+03  0.15281784463E+03  0.25173334257E+03  0.47000000000E+01 0.  1.
         13    1    5    5    0    0  0.85236410468E+02  0.59406005311E+02  0.32312605556E+02  0.10880452019E+03  0.00000000000E+00 0.  1.
        -13    1    5    5    0    0  0.15614548375E+03  0.24362966204E+03 -0.30946153534E+01  0.28938970432E+03  0.00000000000E+00 0. -1.
          4    1    6    6  503    0 -0.10539425060E+03  0.53889705935E+02  0.48604164484E+02  0.12796254636E+03  0.00000000000E+00 0. -1.
         -4    1    6    6    0  503 -0.18908393018E+03  0.33656931568E+02 -0.24555888480E+02  0.19361950665E+03  0.00000000000E+00 0.  1.
<mgrwt>
<rscale>  0 0.54915574E+03</rscale>
<asrwt>0</asrwt>
<pdfrwt beam="1">  1        3 0.70521182E-01 0.54915574E+03</pdfrwt>
<pdfrwt beam="2">  1       -3 0.10982570E+00 0.54915574E+03</pdfrwt>
<totfact> 0.35144166E+00</totfact>
</mgrwt>
</event>
<event>
12    1  0.3203156E-008  0.4342690E+03  0.7818608E-02  0.1032520E+00
         -1   -1    0    0    0  501 -0.00000000000E+00  0.00000000000E+00  0.11122534462E+04  0.11122534462E+04  0.00000000000E+00 0.  1.
          1   -1    0    0  501    0  0.00000000000E+00 -0.00000000000E+00 -0.27520184733E+03  0.27520184733E+03  0.00000000000E+00 0. -1.
         23    2    1    2    0    0  0.31412826118E+03  0.21129528099E+03  0.22527266438E+03  0.45010915987E+03  0.92348374359E+02 0.  0.
    5000000    2    1    2    0    0 -0.31412826118E+03 -0.21129528099E+03  0.61177893450E+03  0.93734613366E+03  0.60085110415E+03 0.  0.
         23    2    4    4    0    0 -0.25399892806E+03 -0.27712539917E+03  0.86627183646E+02  0.39626332326E+03  0.90589238285E+02 0.  0.
         23    2    4    4    0    0 -0.60129333119E+02  0.65830118183E+02  0.52515175086E+03  0.54108281041E+03  0.95063689838E+02 0.  0.
          5    1    3    3  502    0  0.14056303536E+03  0.14497354239E+03  0.13905230453E+03  0.24522016291E+03  0.47000000000E+01 0. -1.
         -5    1    3    3    0  502  0.17356522582E+03  0.66321738598E+02  0.86220359849E+02  0.20488899696E+03  0.47000000000E+01 0.  1.
         11    1    5    5    0    0 -0.14733056526E+03 -0.22152726351E+03  0.67364869567E+02  0.27444243402E+03  0.00000000000E+00 0. -1.
        -11    1    5    5    0    0 -0.10666836280E+03 -0.55598135657E+02  0.19262314079E+02  0.12182088924E+03  0.00000000000E+00 0.  1.
          2    1    6    6  503    0 -0.18331772184E+02  0.42965076869E+02  0.74594195350E+02  0.88013326728E+02  0.00000000000E+00 0.  1.
         -2    1    6    6    0  503 -0.41797560935E+02  0.22865041313E+02  0.45055755551E+03  0.45306948368E+03  0.00000000000E+00 0. -1.
<mgrwt>
<rscale>  0 0.43426898E+03</rscale>
<asrwt>0</asrwt>
<pdfrwt beam="1">  1        1 0.42338746E-01 0.43426898E+03</pdfrwt>
<pdfrwt beam="2">  1       -1 0.17111591E+00 0.43426898E+03</pdfrwt>
<totfact> 0.25246481E+01</totfact>
</mgrwt>
</event>
<event>
12    1  0.3203156E-008  0.1170636E+04  0.7818608E-02  0.9138954E-01
          2   -1    0    0  501    0  0.00000000000E+00  0.00000000000E+00  0.24585702297E+04  0.24585702297E+04  0.00000000000E+00 0. -1.
         -2   -1    0    0    0  501 -0.00000000000E+00 -0.00000000000E+00 -0.61295903046E+03  0.61295903046E+03  0.00000000000E+00 0.  1.
         23    2    1    2    0    0 -0.22144466913E+03 -0.11221924957E+04  0.69399875053E+03  0.13410376370E+04  0.91618443411E+02 0.  0.
    5000000    2    1    2    0    0  0.22144466913E+03  0.11221924957E+04  0.11516124487E+04  0.17304916232E+04  0.60003023839E+03 0.  0.
         23    2    4    4    0    0 -0.67150128525E+02  0.49974702985E+03  0.19250921313E+03  0.54758115815E+03  0.92353094237E+02 0.  0.
         23    2    4    4    0    0  0.28859479765E+03  0.62244546586E+03  0.95910323560E+03  0.11829104650E+04  0.93128065567E+02 0.  0.
          5    1    3    3  502    0 -0.61699991253E+01 -0.14945097691E+02  0.36152908833E+00  0.16841779523E+02  0.47000000000E+01 0. -1.
         -5    1    3    3    0  502 -0.21527467000E+03 -0.11072473980E+04  0.69363722144E+03  0.13241958575E+04  0.47000000000E+01 0.  1.
         11    1    5    5    0    0 -0.82621963283E+02  0.46387751052E+03  0.19120335491E+03  0.50849528662E+03  0.00000000000E+00 0.  1.
        -11    1    5    5    0    0  0.15471834758E+02  0.35869519329E+02  0.13058582213E+01  0.39085871532E+02  0.00000000000E+00 0. -1.
          4    1    6    6  503    0  0.68715391668E+02  0.16078141868E+03  0.17963719674E+03  0.25068305107E+03  0.00000000000E+00 0. -1.
         -4    1    6    6    0  503  0.21987940598E+03  0.46166404718E+03  0.77946603886E+03  0.93222741397E+03  0.00000000000E+00 0.  1.
<mgrwt>
<rscale>  0 0.11706359E+04</rscale>
<asrwt>0</asrwt>
<pdfrwt beam="1">  1        2 0.37824157E+00 0.11706359E+04</pdfrwt>
<pdfrwt beam="2">  1       -2 0.94301391E-01 0.11706359E+04</pdfrwt>
<totfact> 0.34429085E+00</totfact>
</mgrwt>
</event>
<event>
12    1  0.3203156E-008  0.7064426E+03  0.7818608E-02  0.9706278E-01
         -2   -1    0    0    0  501 -0.00000000000E+00  0.00000000000E+00  0.35269197981E+03  0.35269197981E+03  0.00000000000E+00 0.  1.
          2   -1    0    0  501    0  0.00000000000E+00 -0.00000000000E+00 -0.16814707929E+04  0.16814707929E+04  0.00000000000E+00 0. -1.
         23    2    1    2    0    0  0.63973620691E+03  0.91475878543E+02 -0.51115990829E+03  0.83152849511E+03  0.11191485848E+03 0.  0.
    5000000    2    1    2    0    0 -0.63973620691E+03 -0.91475878543E+02 -0.81761890476E+03  0.12026342776E+04  0.60016521174E+03 0.  0.
         23    2    4    4    0    0 -0.31981702859E+01 -0.12702478065E+03 -0.41282652094E+03  0.44186644909E+03  0.93138065501E+02 0.  0.
         23    2    4    4    0    0 -0.63653803662E+03  0.35548902107E+02 -0.40479238382E+03  0.76076782849E+03  0.92013142264E+02 0.  0.
          5    1    3    3  502    0  0.41217238095E+03  0.69551869469E+02 -0.39467191343E+03  0.57490133364E+03  0.47000000000E+01 0. -1.
         -5    1    3    3    0  502  0.22756382596E+03  0.21924009073E+02 -0.11648799485E+03  0.25662716147E+03  0.47000000000E+01 0.  1.
         13    1    5    5    0    0  0.66570688204E+01 -0.25756771698E+02 -0.23881197806E+03  0.24028917728E+03  0.00000000000E+00 0. -1.
        -13    1    5    5    0    0 -0.98552391064E+01 -0.10126800895E+03 -0.17401454288E+03  0.20157727180E+03  0.00000000000E+00 0.  1.
          4    1    6    6  503    0 -0.10426990017E+03  0.13255510130E+02 -0.29679965363E+02  0.10921914198E+03  0.00000000000E+00 0.  1.
         -4    1    6    6    0  503 -0.53226813645E+03  0.22293391977E+02 -0.37511241846E+03  0.65154868651E+03  0.00000000000E+00 0. -1.
<mgrwt>
<rscale>  0 0.70644257E+03</rscale>
<asrwt>0</asrwt>
<pdfrwt beam="1">  1        2 0.25868781E+00 0.70644257E+03</pdfrwt>
<pdfrwt beam="2">  1       -2 0.54260306E-01 0.70644257E+03</pdfrwt>
<totfact> 0.33129002E+01</totfact>
</mgrwt>
</event>
<event>
12    1  0.3203156E-008  0.1766872E+04  0.7818608E-02  0.8724118E-01
         -2   -1    0    0    0  501 -0.00000000000E+00  0.00000000000E+00  0.16674358204E+04  0.16674358204E+04  0.00000000000E+00 0.  1.
          2   -1    0    0  501    0  0.00000000000E+00 -0.00000000000E+00 -0.18928628371E+04  0.18928628371E+04  0.00000000000E+00 0. -1.
         23    2    1    2    0    0  0.15234562881E+04 -0.80546651951E+03 -0.17819644571E+03  0.17349046003E+04  0.91894630470E+02 0.  0.
    5000000    2    1    2    0    0 -0.15234562881E+04  0.80546651951E+03 -0.47230571038E+02  0.18253940572E+04  0.60011445694E+03 0.  0.
         23    2    4    4    0    0 -0.70018483082E+03  0.80733035395E+02 -0.12581488764E+03  0.72194343239E+03  0.92716305533E+02 0.  0.
         23    2    4    4    0    0 -0.82327145728E+03  0.72473348411E+03  0.78584316601E+02  0.11034506248E+04  0.91723885680E+02 0.  0.
          5    1    3    3  502    0  0.87717089659E+03 -0.41857906534E+03 -0.78844737383E+02  0.97512860607E+03  0.47000000000E+01 0. -1.
         -5    1    3    3    0  502  0.64628539151E+03 -0.38688745417E+03 -0.99351708327E+02  0.75977599423E+03  0.47000000000E+01 0.  1.
         13    1    5    5    0    0 -0.25225685995E+03  0.64340342546E+02 -0.74529494891E+02  0.27079115325E+03  0.00000000000E+00 0. -1.
        -13    1    5    5    0    0 -0.44792797087E+03  0.16392692849E+02 -0.51285392748E+02  0.45115227914E+03  0.00000000000E+00 0.  1.
          4    1    6    6  503    0 -0.63222734765E+03  0.50761260715E+03  0.41165613913E+02  0.81183531939E+03  0.00000000000E+00 0. -1.
         -4    1    6    6    0  503 -0.19104410963E+03  0.21712087696E+03  0.37418702688E+02  0.29161530541E+03  0.00000000000E+00 0.  1.
<mgrwt>
<rscale>  0 0.17668722E+04</rscale>
<asrwt>0</asrwt>
<pdfrwt beam="1">  1        2 0.29120967E+00 0.17668722E+04</pdfrwt>
<pdfrwt beam="2">  1       -2 0.25652859E+00 0.17668722E+04</pdfrwt>
<totfact> 0.41008971E-01</totfact>
</mgrwt>
</event>
<event>
12    1  0.3203156E-008  0.1794558E+04  0.7818608E-02  0.8709199E-01
         -2   -1    0    0    0  501 -0.00000000000E+00  0.00000000000E+00  0.16171219492E+04  0.16171219492E+04  0.00000000000E+00 0.  1.
          2   -1    0    0  501    0  0.00000000000E+00 -0.00000000000E+00 -0.24840089602E+04  0.24840089602E+04  0.00000000000E+00 0. -1.
         23    2    1    2    0    0 -0.16734256861E+04 -0.54910478074E+03 -0.12998561949E+04  0.21908027912E+04  0.90117454277E+02 0.  0.
    5000000    2    1    2    0    0  0.16734256861E+04  0.54910478074E+03  0.43296918392E+03  0.19103281182E+04  0.60001801462E+03 0.  0.
         23    2    4    4    0    0  0.15485703865E+04  0.60973524668E+03  0.29018203788E+03  0.16918560155E+04  0.91235131077E+02 0.  0.
         23    2    4    4    0    0  0.12485529957E+03 -0.60630465932E+02  0.14278714604E+03  0.21847210267E+03  0.89872083211E+02 0.  0.
          5    1    3    3  502    0 -0.77839103968E+03 -0.29491876309E+03 -0.58355690850E+03  0.10165778096E+04  0.47000000000E+01 0. -1.
         -5    1    3    3    0  502 -0.89503464639E+03 -0.25418601766E+03 -0.71629928636E+03  0.11742249816E+04  0.47000000000E+01 0.  1.
         11    1    5    5    0    0  0.10524749502E+04  0.36889273161E+03  0.18705630872E+03  0.11308295322E+04  0.00000000000E+00 0.  1.
        -11    1    5    5    0    0  0.49609543629E+03  0.24084251507E+03  0.10312572915E+03  0.56102648332E+03  0.00000000000E+00 0. -1.
          1    1    6    6  503    0  0.39021550378E+01 -0.35885098976E+02  0.59342655678E+02  0.69458749812E+02  0.00000000000E+00 0. -1.
         -1    1    6    6    0  503  0.12095314453E+03 -0.24745366955E+02  0.83444490360E+02  0.14901335286E+03  0.00000000000E+00 0.  1.
<mgrwt>
<rscale>  0 0.17945576E+04</rscale>
<asrwt>0</asrwt>
<pdfrwt beam="1">  1        2 0.38215522E+00 0.17945576E+04</pdfrwt>
<pdfrwt beam="2">  1       -2 0.24878799E+00 0.17945576E+04</pdfrwt>
<totfact> 0.21104803E-01</totfact>
</mgrwt>
</event>
<event>
12    1  0.3203156E-008  0.3823724E+03  0.7818608E-02  0.1050060E+00
          1   -1    0    0  501    0  0.00000000000E+00  0.00000000000E+00  0.15281059286E+03  0.15281059286E+03  0.00000000000E+00 0. -1.
         -1   -1    0    0    0  501 -0.00000000000E+00 -0.00000000000E+00 -0.16373031917E+04  0.16373031917E+04  0.00000000000E+00 0.  1.
         23    2    1    2    0    0  0.24381746051E+03  0.13441369525E+03 -0.23141955602E+03  0.37317841083E+03  0.90515854318E+02 0.  0.
    5000000    2    1    2    0    0 -0.24381746051E+03 -0.13441369525E+03 -0.12530730428E+04  0.14169353737E+04  0.59999983931E+03 0.  0.
         23    2    4    4    0    0 -0.26390861238E+03 -0.23089608108E+03 -0.34739071802E+03  0.50138968504E+03  0.88037204398E+02 0.  0.
         23    2    4    4    0    0  0.20091151874E+02  0.96482385833E+02 -0.90568232482E+03  0.91554568870E+03  0.90834626934E+02 0.  0.
          5    1    3    3  502    0  0.88321067596E+02  0.81758990956E+02 -0.55847552094E+02  0.13276363455E+03  0.47000000000E+01 0. -1.
         -5    1    3    3    0  502  0.15549639291E+03  0.52654704292E+02 -0.17557200392E+03  0.24041477628E+03  0.47000000000E+01 0.  1.
         11    1    5    5    0    0 -0.22628072419E+03 -0.22760472781E+03 -0.32811482182E+03  0.45898389357E+03  0.00000000000E+00 0. -1.
        -11    1    5    5    0    0 -0.37627888194E+02 -0.32913532688E+01 -0.19275896198E+02  0.42405791473E+02  0.00000000000E+00 0.  1.
          1    1    6    6  503    0 -0.24718242904E+02  0.16674133484E+02 -0.43662785811E+03  0.43764472433E+03  0.00000000000E+00 0. -1.
         -1    1    6    6    0  503  0.44809394778E+02  0.79808252350E+02 -0.46905446671E+03  0.47790096437E+03  0.00000000000E+00 0.  1.
<mgrwt>
<rscale>  0 0.38237244E+03</rscale>
<asrwt>0</asrwt>
<pdfrwt beam="1">  1        1 0.23509323E-01 0.38237244E+03</pdfrwt>
<pdfrwt beam="2">  1       -1 0.25189279E+00 0.38237244E+03</pdfrwt>
<totfact> 0.15652687E+01</totfact>
</mgrwt>
</event>
<event>
12    1  0.3203156E-008  0.6514137E+03  0.7818608E-02  0.9804130E-01
          1   -1    0    0  501    0  0.00000000000E+00  0.00000000000E+00  0.37761445005E+03  0.37761445005E+03  0.00000000000E+00 0. -1.
         -1   -1    0    0    0  501 -0.00000000000E+00 -0.00000000000E+00 -0.17751246026E+04  0.17751246026E+04  0.00000000000E+00 0.  1.
         23    2    1    2    0    0 -0.36190637607E+03  0.39370930473E+03 -0.36242756795E+01  0.54368508995E+03  0.97964789531E+02 0.  0.
    5000000    2    1    2    0    0  0.36190637607E+03 -0.39370930473E+03 -0.13938858769E+04  0.16090539627E+04  0.60012796592E+03 0.  0.
         23    2    4    4    0    0  0.47272865062E+03 -0.41946346030E+03 -0.96920662439E+03  0.11605771200E+04  0.90309462238E+02 0.  0.
         23    2    4    4    0    0 -0.11082227455E+03  0.25754155566E+02 -0.42467925252E+03  0.44847684278E+03  0.88510778575E+02 0.  0.
          5    1    3    3  502    0 -0.18427531370E+03  0.26464959446E+03 -0.22212541095E+02  0.32328360006E+03  0.47000000000E+01 0. -1.
         -5    1    3    3    0  502 -0.17763106237E+03  0.12905971027E+03  0.18588265415E+02  0.22040148989E+03  0.47000000000E+01 0.  1.
         13    1    5    5    0    0  0.19484674252E+03 -0.19594260867E+03 -0.49933694856E+03  0.57069794740E+03  0.00000000000E+00 0.  1.
        -13    1    5    5    0    0  0.27788190810E+03 -0.22352085163E+03 -0.46986967583E+03  0.58987917257E+03  0.00000000000E+00 0. -1.
          1    1    6    6  503    0 -0.37375453592E+02  0.37973528411E+02 -0.28748376120E+03  0.29237959290E+03  0.00000000000E+00 0. -1.
         -1    1    6    6    0  503 -0.73446820956E+02 -0.12219372845E+02 -0.13719549132E+03  0.15609724988E+03  0.00000000000E+00 0.  1.
<mgrwt>
<rscale>  0 0.65141374E+03</rscale>
<asrwt>0</asrwt>
<pdfrwt beam="1">  1        1 0.58094530E-01 0.65141374E+03</pdfrwt>
<pdfrwt beam="2">  1       -1 0.27309610E+00 0.65141374E+03</pdfrwt>
<totfact> 0.33931559E+00</totfact>
</mgrwt>
</event>
<event>
12    1  0.3203156E-008  0.5166047E+03  0.7818608E-02  0.1009533E+00
         -1   -1    0    0    0  501 -0.00000000000E+00  0.00000000000E+00  0.17550765857E+03  0.17550765857E+03  0.00000000000E+00 0.  1.
          1   -1    0    0  501    0  0.00000000000E+00 -0.00000000000E+00 -0.18003300307E+04  0.18003300307E+04  0.00000000000E+00 0. -1.
         23    2    1    2    0    0 -0.37156419364E+03  0.12892790547E+03 -0.65246567456E+03  0.76745860363E+03  0.92730237830E+02 0.  0.
    5000000    2    1    2    0    0  0.37156419364E+03 -0.12892790547E+03 -0.97235669757E+03  0.12083790856E+04  0.60001676019E+03 0.  0.
         23    2    4    4    0    0  0.41070018255E+03 -0.24122539123E+03 -0.43716008936E+03  0.65239610728E+03  0.87449458198E+02 0.  0.
         23    2    4    4    0    0 -0.39135988913E+02  0.11229748576E+03 -0.53519660822E+03  0.55598297837E+03  0.92408397120E+02 0.  0.
          5    1    3    3  502    0 -0.14060819313E+03  0.84837843157E+01 -0.18864258940E+03  0.23547984013E+03  0.47000000000E+01 0. -1.
         -5    1    3    3    0  502 -0.23095600051E+03  0.12044412115E+03 -0.46382308516E+03  0.53197876350E+03  0.47000000000E+01 0.  1.
         13    1    5    5    0    0  0.17249208519E+03 -0.56871187758E+02 -0.14052921659E+03  0.22964388118E+03  0.00000000000E+00 0. -1.
        -13    1    5    5    0    0  0.23820809737E+03 -0.18435420347E+03 -0.29663087277E+03  0.42275222609E+03  0.00000000000E+00 0.  1.
          1    1    6    6  503    0  0.22884797705E+02  0.27834244053E+01 -0.11737528422E+03  0.11961780287E+03  0.00000000000E+00 0. -1.
         -1    1    6    6    0  503 -0.62020786618E+02  0.10951406135E+03 -0.41782132400E+03  0.43636517550E+03  0.00000000000E+00 0.  1.
<mgrwt>
<rscale>  0 0.51660468E+03</rscale>
<asrwt>0</asrwt>
<pdfrwt beam="1">  1        1 0.27697386E+00 0.51660468E+03</pdfrwt>
<pdfrwt beam="2">  1       -1 0.27001177E-01 0.51660468E+03</pdfrwt>
<totfact> 0.53137937E+01</totfact>
</mgrwt>
</event>
<event>
12    1  0.3203156E-008  0.4527442E+03  0.7818608E-02  0.1026907E+00
         -2   -1    0    0    0  501 -0.00000000000E+00  0.00000000000E+00  0.15343997930E+03  0.15343997930E+03  0.00000000000E+00 0. -1.
          2   -1    0    0  501    0  0.00000000000E+00 -0.00000000000E+00 -0.13941240347E+04  0.13941240347E+04  0.00000000000E+00 0.  1.
         23    2    1    2    0    0 -0.23435732557E+03  0.10344841885E+03 -0.32346570286E+03  0.42194972684E+03  0.88241598132E+02 0.  0.
    5000000    2    1    2    0    0  0.23435732557E+03 -0.10344841885E+03 -0.91721835253E+03  0.11256142871E+04  0.60007756648E+03 0.  0.
         23    2    4    4    0    0  0.30760580224E+03  0.16458587232E+03 -0.49579777543E+03  0.61271400265E+03  0.88843547793E+02 0.  0.
         23    2    4    4    0    0 -0.73248476671E+02 -0.26803429117E+03 -0.42142057710E+03  0.51290028449E+03  0.90904776833E+02 0.  0.
          5    1    3    3  502    0 -0.60192571185E+02  0.34506802859E+02 -0.15538537692E+03  0.17023680692E+03  0.47000000000E+01 0. -1.
         -5    1    3    3    0  502 -0.17416475439E+03  0.68941615994E+02 -0.16808032594E+03  0.25171291992E+03  0.47000000000E+01 0.  1.
         11    1    5    5    0    0  0.12217314082E+03  0.20760384080E+02 -0.14618450574E+03  0.19164336567E+03  0.00000000000E+00 0. -1.
        -11    1    5    5    0    0  0.18543266142E+03  0.14382548824E+03 -0.34961326969E+03  0.42107063699E+03  0.00000000000E+00 0.  1.
          1    1    6    6  503    0 -0.67151136460E+02 -0.92323422229E+02 -0.13473558355E+03  0.17659718824E+03  0.00000000000E+00 0. -1.
         -1    1    6    6    0  503 -0.60973402109E+01 -0.17571086894E+03 -0.28668499355E+03  0.33630309625E+03  0.00000000000E+00 0.  1.
<mgrwt>
<rscale>  0 0.45274417E+03</rscale>
<asrwt>0</asrwt>
<pdfrwt beam="1">  1        2 0.21448061E+00 0.45274417E+03</pdfrwt>
<pdfrwt beam="2">  1       -2 0.23606152E-01 0.45274417E+03</pdfrwt>
<totfact> 0.24087133E+02</totfact>
</mgrwt>
</event>
<event>
12    1  0.3203156E-008  0.1577195E+04  0.7818608E-02  0.8834682E-01
          1   -1    0    0  501    0  0.00000000000E+00  0.00000000000E+00  0.11673385917E+04  0.11673385917E+04  0.00000000000E+00 0. -1.
         -1   -1    0    0    0  501 -0.00000000000E+00 -0.00000000000E+00 -0.26849401204E+04  0.26849401204E+04  0.00000000000E+00 0.  1.
         23    2    1    2    0    0  0.11905971072E+04  0.95069045338E+03  0.12745903178E+03  0.15311703578E+04  0.83084596250E+02 0.  0.
    5000000    2    1    2    0    0 -0.11905971072E+04 -0.95069045338E+03 -0.16450605605E+04  0.23211083544E+04  0.59998827942E+03 0.  0.
         23    2    4    4    0    0 -0.11098077996E+03 -0.39246586489E+03 -0.44464822519E+03  0.61038279694E+03  0.92243839946E+02 0.  0.
         23    2    4    4    0    0 -0.10796163272E+04 -0.55822458849E+03 -0.12004123353E+04  0.17107255574E+04  0.91684530093E+02 0.  0.
          5    1    3    3  502    0  0.93479785124E+03  0.72085877719E+03  0.70521086498E+02  0.11825733436E+04  0.47000000000E+01 0. -1.
         -5    1    3    3    0  502  0.25579925591E+03  0.22983167619E+03  0.56937945283E+02  0.34859701421E+03  0.47000000000E+01 0.  1.
         11    1    5    5    0    0 -0.94537530840E+02 -0.24175603380E+03 -0.22517015458E+03  0.34363486891E+03  0.00000000000E+00 0. -1.
        -11    1    5    5    0    0 -0.16443249122E+02 -0.15070983108E+03 -0.21947807061E+03  0.26674792802E+03  0.00000000000E+00 0.  1.
          2    1    6    6  503    0 -0.29827421585E+03 -0.20106234305E+03 -0.35986972664E+03  0.50882196669E+03  0.00000000000E+00 0. -1.
         -2    1    6    6    0  503 -0.78134211135E+03 -0.35716224544E+03 -0.84054260865E+03  0.12019035908E+04  0.00000000000E+00 0.  1.
<mgrwt>
<rscale>  0 0.15771946E+04</rscale>
<asrwt>0</asrwt>
<pdfrwt beam="1">  1        1 0.17959055E+00 0.15771946E+04</pdfrwt>
<pdfrwt beam="2">  1       -1 0.41306771E+00 0.15771946E+04</pdfrwt>
<totfact> 0.61861346E-02</totfact>
</mgrwt>
</event>
<event>
12    1  0.3203156E-008  0.1088787E+04  0.7818608E-02  0.9216190E-01
          1   -1    0    0  501    0  0.00000000000E+00  0.00000000000E+00  0.13589535654E+04  0.13589535654E+04  0.00000000000E+00 0. -1.
         -1   -1    0    0    0  501 -0.00000000000E+00 -0.00000000000E+00 -0.15181777906E+04  0.15181777906E+04  0.00000000000E+00 0.  1.
         23    2    1    2    0    0  0.99459115618E+03  0.32556327583E+03 -0.96511421078E+03  0.14264029946E+04  0.89314325079E+02 0.  0.
    5000000    2    1    2    0    0 -0.99459115618E+03 -0.32556327583E+03  0.80588998550E+03  0.14507283614E+04  0.59995924471E+03 0.  0.
         23    2    4    4    0    0 -0.18417967042E+03  0.86124256083E+02 -0.13128611726E+02  0.22363169836E+03  0.92191309693E+02 0.  0.
         23    2    4    4    0    0 -0.81041148577E+03 -0.41168753192E+03  0.81901859722E+03  0.12270966630E+04  0.93388209419E+02 0.  0.
          5    1    3    3  502    0  0.23952079951E+03  0.90776463625E+02 -0.28703807184E+03  0.38473825444E+03  0.47000000000E+01 0. -1.
         -5    1    3    3    0  502  0.75507035668E+03  0.23478681221E+03 -0.67807613893E+03  0.10416647402E+04  0.47000000000E+01 0.  1.
         11    1    5    5    0    0 -0.16447532041E+03  0.37478870451E+02 -0.22920624525E+02  0.17024145143E+03  0.00000000000E+00 0.  1.
        -11    1    5    5    0    0 -0.19704350003E+02  0.48645385632E+02  0.97920127995E+01  0.53390246928E+02  0.00000000000E+00 0. -1.
          2    1    6    6  503    0 -0.71395397921E+03 -0.35174444515E+03  0.67429150648E+03  0.10431315712E+04  0.00000000000E+00 0.  1.
         -2    1    6    6    0  503 -0.96457506557E+02 -0.59943086767E+02  0.14472709074E+03  0.18396509184E+03  0.00000000000E+00 0. -1.
<mgrwt>
<rscale>  0 0.10887873E+04</rscale>
<asrwt>0</asrwt>
<pdfrwt beam="1">  1        1 0.20906978E+00 0.10887873E+04</pdfrwt>
<pdfrwt beam="2">  1       -1 0.23356581E+00 0.10887873E+04</pdfrwt>
<totfact> 0.73066724E-01</totfact>
</mgrwt>
</event>
<event>
12    1  0.3203156E-008  0.1355987E+04  0.7818608E-02  0.8986308E-01
         -2   -1    0    0    0  501 -0.00000000000E+00  0.00000000000E+00  0.87172067288E+03  0.87172067288E+03  0.00000000000E+00 0. -1.
          2   -1    0    0  501    0  0.00000000000E+00 -0.00000000000E+00 -0.24112606399E+04  0.24112606399E+04  0.00000000000E+00 0.  1.
         23    2    1    2    0    0 -0.67225016957E+03  0.11747886625E+04 -0.10772092521E+04  0.17322694267E+04  0.91262817538E+02 0.  0.
    5000000    2    1    2    0    0  0.67225016957E+03 -0.11747886625E+04 -0.46233071491E+03  0.15507118860E+04  0.59909011966E+03 0.  0.
         23    2    4    4    0    0  0.99142548611E+02 -0.19316005773E+03  0.12955371274E+03  0.26595562955E+03  0.82511693468E+02 0.  0.
         23    2    4    4    0    0  0.57310762096E+03 -0.98162860479E+03 -0.59188442764E+03  0.12847562565E+04  0.90688477458E+02 0.  0.
          5    1    3    3  502    0 -0.33330110475E+03  0.57047933836E+03 -0.46842146933E+03  0.80992411055E+03  0.47000000000E+01 0.  1.
         -5    1    3    3    0  502 -0.33894906482E+03  0.60430932417E+03 -0.60878778275E+03  0.92234531616E+03  0.47000000000E+01 0. -1.
         11    1    5    5    0    0  0.97695418997E+02 -0.15638161575E+03  0.72650563190E+02  0.19818604635E+03  0.00000000000E+00 0. -1.
        -11    1    5    5    0    0  0.14471296142E+01 -0.36778441985E+02  0.56903149547E+02  0.67769583201E+02  0.00000000000E+00 0.  1.
          4    1    6    6  503    0  0.25624268958E+03 -0.40660844345E+03 -0.29743440723E+03  0.56520612953E+03  0.00000000000E+00 0. -1.
         -4    1    6    6    0  503  0.31686493138E+03 -0.57502016134E+03 -0.29445002041E+03  0.71955012696E+03  0.00000000000E+00 0.  1.
<mgrwt>
<rscale>  0 0.13559869E+04</rscale>
<asrwt>0</asrwt>
<pdfrwt beam="1">  1        2 0.37096317E+00 0.13559869E+04</pdfrwt>
<pdfrwt beam="2">  1       -2 0.13411087E+00 0.13559869E+04</pdfrwt>
<totfact> 0.15102247E+00</totfact>
</mgrwt>
</event>
<event>
12    1  0.3203156E-008  0.2004895E+04  0.7818608E-02  0.8604335E-01
         -2   -1    0    0    0  501 -0.00000000000E+00  0.00000000000E+00  0.15551052421E+04  0.15551052421E+04  0.00000000000E+00 0.  1.
          2   -1    0    0  501    0  0.00000000000E+00 -0.00000000000E+00 -0.31109807321E+04  0.31109807321E+04  0.00000000000E+00 0. -1.
         23    2    1    2    0    0 -0.14583007451E+04  0.13664232103E+04 -0.16265406780E+04  0.25783081831E+04  0.91022288252E+02 0.  0.
    5000000    2    1    2    0    0  0.14583007451E+04 -0.13664232103E+04  0.70665188067E+02  0.20877777910E+04  0.60005756634E+03 0.  0.
         23    2    4    4    0    0  0.41313239024E+03 -0.51130203971E+03 -0.22863177646E+03  0.70160255361E+03  0.88687689974E+02 0.  0.
         23    2    4    4    0    0  0.10451683549E+04 -0.85512117059E+03  0.29929696453E+03  0.13861752374E+04  0.91071451782E+02 0.  0.
          5    1    3    3  502    0 -0.63249263798E+03  0.65305789054E+03 -0.72711545037E+03  0.11641522725E+04  0.47000000000E+01 0. -1.
         -5    1    3    3    0  502 -0.82580810715E+03  0.71336531976E+03 -0.89942522767E+03  0.14141559106E+04  0.47000000000E+01 0.  1.
         11    1    5    5    0    0  0.30655100757E+03 -0.40802194371E+03 -0.21061657021E+03  0.55210032279E+03  0.00000000000E+00 0.  1.
        -11    1    5    5    0    0  0.10658138267E+03 -0.10328009600E+03 -0.18015206252E+02  0.14950223082E+03  0.00000000000E+00 0. -1.
          2    1    6    6  503    0  0.27845696574E+03 -0.21471792954E+03  0.11783942123E+03  0.37084794759E+03  0.00000000000E+00 0. -1.
         -2    1    6    6    0  503  0.76671138916E+03 -0.64040324105E+03  0.18145754329E+03  0.10153272898E+04  0.00000000000E+00 0.  1.
<mgrwt>
<rscale>  0 0.20048951E+04</rscale>
<asrwt>0</asrwt>
<pdfrwt beam="1">  1        2 0.47861242E+00 0.20048951E+04</pdfrwt>
<pdfrwt beam="2">  1       -2 0.23924696E+00 0.20048951E+04</pdfrwt>
<totfact> 0.98516057E-02</totfact>
</mgrwt>
</event>
<event>
12    1  0.3203156E-008  0.5171091E+03  0.7818608E-02  0.1009407E+00
         -1   -1    0    0    0  501 -0.00000000000E+00  0.00000000000E+00  0.10894420603E+04  0.10894420603E+04  0.00000000000E+00 0.  1.
          1   -1    0    0  501    0  0.00000000000E+00 -0.00000000000E+00 -0.33875065538E+03  0.33875065538E+03  0.00000000000E+00 0. -1.
         23    2    1    2    0    0 -0.21616532373E+03 -0.38568147030E+03  0.17101569322E+03  0.48380534387E+03  0.96662297234E+02 0.  0.
    5000000    2    1    2    0    0  0.21616532373E+03  0.38568147030E+03  0.57967571168E+03  0.94438737179E+03  0.60030486719E+03 0.  0.
         23    2    4    4    0    0  0.28364025867E+03  0.13882461524E+03  0.28301728112E+02  0.32959161884E+03  0.90030979443E+02 0.  0.
         23    2    4    4    0    0 -0.67474934933E+02  0.24685685506E+03  0.55137398357E+03  0.61479575296E+03  0.92029203868E+02 0.  0.
          5    1    3    3  502    0 -0.16397741330E+03 -0.27134499422E+03  0.75681242099E+02  0.32598533458E+03  0.47000000000E+01 0. -1.
         -5    1    3    3    0  502 -0.52187910437E+02 -0.11433647609E+03  0.95334451121E+02  0.15782000928E+03  0.47000000000E+01 0.  1.
         11    1    5    5    0    0  0.16223154906E+01 -0.92525905714E+01 -0.20648894695E+01  0.96180095838E+01  0.00000000000E+00 0.  1.
        -11    1    5    5    0    0  0.28201794318E+03  0.14807720581E+03  0.30366617581E+02  0.31997360925E+03  0.00000000000E+00 0. -1.
          4    1    6    6  503    0 -0.78473315996E+02  0.23232550165E+03  0.54061887037E+03  0.59363453660E+03  0.00000000000E+00 0. -1.
         -4    1    6    6    0  503  0.10998381063E+02  0.14531353408E+02  0.10755113194E+02  0.21161216356E+02  0.00000000000E+00 0.  1.
<mgrwt>
<rscale>  0 0.51710914E+03</rscale>
<asrwt>0</asrwt>
<pdfrwt beam="1">  1        1 0.52115486E-01 0.51710914E+03</pdfrwt>
<pdfrwt beam="2">  1       -1 0.16760647E+00 0.51710914E+03</pdfrwt>
<totfact> 0.20233180E+01</totfact>
</mgrwt>
</event>
<event>
12    1  0.3203156E-008  0.6660375E+03  0.7818608E-02  0.9777143E-01
         -1   -1    0    0    0  501 -0.00000000000E+00  0.00000000000E+00  0.57575816889E+03  0.57575816889E+03  0.00000000000E+00 0.  1.
          1   -1    0    0  501    0  0.00000000000E+00 -0.00000000000E+00 -0.85404596533E+03  0.85404596533E+03  0.00000000000E+00 0. -1.
         23    2    1    2    0    0  0.12544782844E+03 -0.52454970681E+03 -0.29748394038E+03  0.62287940865E+03  0.92695794707E+02 0.  0.
    5000000    2    1    2    0    0 -0.12544782844E+03  0.52454970681E+03  0.19196143945E+02  0.80692472557E+03  0.59989121365E+03 0.  0.
         23    2    4    4    0    0  0.20763651725E+03  0.83859979610E+02  0.47037803141E+02  0.24643447516E+03  0.91498503511E+02 0.  0.
         23    2    4    4    0    0 -0.33308434569E+03  0.44068972720E+03 -0.27841659196E+02  0.56049025042E+03  0.90672740204E+02 0.  0.
          5    1    3    3  502    0  0.94108428398E+02 -0.20953328381E+03 -0.10756018573E+03  0.25367671725E+03  0.47000000000E+01 0. -1.
         -5    1    3    3    0  502  0.31339400045E+02 -0.31501642300E+03 -0.18992375466E+03  0.36920269140E+03  0.47000000000E+01 0.  1.
         11    1    5    5    0    0  0.18201249512E+02  0.17411558949E+02 -0.22707356610E+02  0.33912710199E+02  0.00000000000E+00 0. -1.
        -11    1    5    5    0    0  0.18943526774E+03  0.66448420661E+02  0.69745159752E+02  0.21252176496E+03  0.00000000000E+00 0.  1.
          4    1    6    6  503    0 -0.15025491650E+03  0.27340324085E+03 -0.13533100845E+02  0.31226433812E+03  0.00000000000E+00 0. -1.
         -4    1    6    6    0  503 -0.18282942919E+03  0.16728648635E+03 -0.14308558351E+02  0.24822591230E+03  0.00000000000E+00 0.  1.
<mgrwt>
<rscale>  0 0.66603747E+03</rscale>
<asrwt>0</asrwt>
<pdfrwt beam="1">  1        1 0.13139169E+00 0.66603747E+03</pdfrwt>
<pdfrwt beam="2">  1       -1 0.88578180E-01 0.66603747E+03</pdfrwt>
<totfact> 0.25778816E+01</totfact>
</mgrwt>
</event>
<event>
12    1  0.3203156E-008  0.1130617E+04  0.7818608E-02  0.9175853E-01
         -2   -1    0    0    0  501 -0.00000000000E+00  0.00000000000E+00  0.17635657560E+04  0.17635657560E+04  0.00000000000E+00 0.  1.
          2   -1    0    0  501    0  0.00000000000E+00 -0.00000000000E+00 -0.76196443551E+03  0.76196443551E+03  0.00000000000E+00 0. -1.
         23    2    1    2    0    0  0.98741329309E+03 -0.39901188721E+03  0.65758375032E+03  0.12557040369E+04  0.10089966401E+03 0.  0.
    5000000    2    1    2    0    0 -0.98741329309E+03  0.39901188721E+03  0.34401757013E+03  0.12698261545E+04  0.59992905972E+03 0.  0.
         23    2    4    4    0    0 -0.41922556335E+03 -0.93749714943E+02  0.25371423403E+03  0.50683713645E+03  0.89296631062E+02 0.  0.
         23    2    4    4    0    0 -0.56818772974E+03  0.49276160215E+03  0.90303336097E+02  0.76298901809E+03  0.91357848236E+02 0.  0.
          5    1    3    3  502    0  0.79182943688E+03 -0.35829453312E+03  0.51552608256E+03  0.10105236570E+04  0.47000000000E+01 0. -1.
         -5    1    3    3    0  502  0.19558385621E+03 -0.40717354090E+02  0.14205766777E+03  0.24518037993E+03  0.47000000000E+01 0.  1.
         11    1    5    5    0    0 -0.58997569533E+02  0.15538266431E+02  0.49544263497E+02  0.78592524963E+02  0.00000000000E+00 0.  1.
        -11    1    5    5    0    0 -0.36022799381E+03 -0.10928798137E+03  0.20416997054E+03  0.42824461149E+03  0.00000000000E+00 0. -1.
          1    1    6    6  503    0 -0.47734925637E+03  0.38073189790E+03  0.46984495517E+02  0.61239418143E+03  0.00000000000E+00 0. -1.
         -1    1    6    6    0  503 -0.90838473379E+02  0.11202970425E+03  0.43318840580E+02  0.15059483666E+03  0.00000000000E+00 0.  1.
<mgrwt>
<rscale>  0 0.11306173E+04</rscale>
<asrwt>0</asrwt>
<pdfrwt beam="1">  1        2 0.11722530E+00 0.11306173E+04</pdfrwt>
<pdfrwt beam="2">  1       -2 0.27131781E+00 0.11306173E+04</pdfrwt>
<totfact> 0.17228511E+00</totfact>
</mgrwt>
</event>
<event>
12    1  0.3203156E-008  0.2054853E+04  0.7818608E-02  0.8581396E-01
         -2   -1    0    0    0  501 -0.00000000000E+00  0.00000000000E+00  0.33764262029E+04  0.33764262029E+04  0.00000000000E+00 0.  1.
          2   -1    0    0  501    0  0.00000000000E+00 -0.00000000000E+00 -0.14553961510E+04  0.14553961510E+04  0.00000000000E+00 0. -1.
         23    2    1    2    0    0  0.63713861977E+03 -0.19317536625E+04  0.17831255855E+04  0.27065952350E+04  0.92212139418E+02 0.  0.
    5000000    2    1    2    0    0 -0.63713861977E+03  0.19317536625E+04  0.13790446641E+03  0.21252271190E+04  0.59996235869E+03 0.  0.
         23    2    4    4    0    0 -0.37933701657E+03  0.16380321291E+04  0.26487920380E+03  0.17045751915E+04  0.91486406748E+02 0.  0.
         23    2    4    4    0    0 -0.25780160320E+03  0.29372153341E+03 -0.12697473739E+03  0.42065192749E+03  0.89952511739E+02 0.  0.
          5    1    3    3  502    0  0.47935896406E+03 -0.15606385160E+04  0.14110042507E+04  0.21578537206E+04  0.47000000000E+01 0. -1.
         -5    1    3    3    0  502  0.15777965571E+03 -0.37111514651E+03  0.37212133487E+03  0.54874151437E+03  0.47000000000E+01 0.  1.
         13    1    5    5    0    0 -0.16037742910E+03  0.85582197968E+03  0.16443601040E+03  0.88611025397E+03  0.00000000000E+00 0.  1.
        -13    1    5    5    0    0 -0.21895958747E+03  0.78221014944E+03  0.10044319339E+03  0.81846493751E+03  0.00000000000E+00 0. -1.
          1    1    6    6  503    0 -0.10441665438E+03  0.11962103484E+03 -0.58060001272E+01  0.15888907869E+03  0.00000000000E+00 0. -1.
         -1    1    6    6    0  503 -0.15338494882E+03  0.17410049857E+03 -0.12116873726E+03  0.26176284881E+03  0.00000000000E+00 0.  1.
<mgrwt>
<rscale>  0 0.20548530E+04</rscale>
<asrwt>0</asrwt>
<pdfrwt beam="1">  1        2 0.22390710E+00 0.20548530E+04</pdfrwt>
<pdfrwt beam="2">  1       -2 0.51945018E+00 0.20548530E+04</pdfrwt>
<totfact> 0.14848479E-02</totfact>
</mgrwt>
</event>
<event>
12    1  0.3203156E-008  0.5671673E+03  0.7818608E-02  0.9975967E-01
         -1   -1    0    0    0  501 -0.00000000000E+00  0.00000000000E+00  0.20484514142E+03  0.20484514142E+03  0.00000000000E+00 0.  1.
          1   -1    0    0  501    0  0.00000000000E+00 -0.00000000000E+00 -0.21168042950E+04  0.21168042950E+04  0.00000000000E+00 0. -1.
         23    2    1    2    0    0  0.15903503008E+03  0.38931865579E+03 -0.12921536372E+04  0.13619556794E+04  0.91657481138E+02 0.  0.
    5000000    2    1    2    0    0 -0.15903503008E+03 -0.38931865579E+03 -0.61980551639E+03  0.95969375708E+03  0.59999339386E+03 0.  0.
         23    2    4    4    0    0 -0.83860333830E+02 -0.52986650497E+03 -0.41081066274E+03  0.68167397275E+03  0.90127331208E+02 0.  0.
         23    2    4    4    0    0 -0.75174696246E+02  0.14054784918E+03 -0.20899485365E+03  0.27801978432E+03  0.90615775437E+02 0.  0.
          5    1    3    3  502    0  0.10605610755E+03  0.28961845248E+03 -0.81022252077E+03  0.86695407556E+03  0.47000000000E+01 0. -1.
         -5    1    3    3    0  502  0.52978922528E+02  0.99700203311E+02 -0.48193111645E+03  0.49500160381E+03  0.47000000000E+01 0.  1.
         13    1    5    5    0    0 -0.96638304957E+02 -0.39690256176E+03 -0.33344511833E+03  0.52731039479E+03  0.00000000000E+00 0. -1.
        -13    1    5    5    0    0  0.12777971127E+02 -0.13296394320E+03 -0.77365544411E+02  0.15436357796E+03  0.00000000000E+00 0.  1.
          2    1    6    6  503    0 -0.77190411766E+02  0.83493139889E+02 -0.18263101176E+03  0.21513612094E+03  0.00000000000E+00 0. -1.
         -2    1    6    6    0  503  0.20157155194E+01  0.57054709287E+02 -0.26363841890E+02  0.62883663380E+02  0.00000000000E+00 0.  1.
<mgrwt>
<rscale>  0 0.56716730E+03</rscale>
<asrwt>0</asrwt>
<pdfrwt beam="1">  1        1 0.32566219E+00 0.56716730E+03</pdfrwt>
<pdfrwt beam="2">  1       -1 0.31514638E-01 0.56716730E+03</pdfrwt>
<totfact> 0.24876040E+01</totfact>
</mgrwt>
</event>
<event>
12    1  0.3203156E-008  0.9284137E+03  0.7818608E-02  0.9390744E-01
          1   -1    0    0  501    0  0.00000000000E+00  0.00000000000E+00  0.10441652856E+04  0.10441652856E+04  0.00000000000E+00 0. -1.
         -1   -1    0    0    0  501 -0.00000000000E+00 -0.00000000000E+00 -0.94925559664E+03  0.94925559664E+03  0.00000000000E+00 0.  1.
         23    2    1    2    0    0 -0.81018034278E+03 -0.28391604982E+03 -0.23593504935E+03  0.89496911362E+03  0.91125494033E+02 0.  0.
    5000000    2    1    2    0    0  0.81018034278E+03  0.28391604982E+03  0.33084473833E+03  0.10984517686E+04  0.60011460236E+03 0.  0.
         23    2    4    4    0    0  0.36519238902E+03 -0.12799709636E+03  0.27383798671E+03  0.48254447938E+03  0.90073269818E+02 0.  0.
         23    2    4    4    0    0  0.44498795375E+03  0.41191314618E+03  0.57006751618E+02  0.61590728926E+03  0.91680424551E+02 0.  0.
          5    1    3    3  502    0 -0.57020514167E+03 -0.20353853131E+03 -0.12316070838E+03  0.61786122018E+03  0.47000000000E+01 0. -1.
         -5    1    3    3    0  502 -0.23997520111E+03 -0.80377518511E+02 -0.11277434097E+03  0.27710789345E+03  0.47000000000E+01 0.  1.
         13    1    5    5    0    0  0.69093064888E+02 -0.31239582712E+02  0.14472119826E+02  0.77195889760E+02  0.00000000000E+00 0.  1.
        -13    1    5    5    0    0  0.29609932414E+03 -0.96757513647E+02  0.25936586688E+03  0.40534858962E+03  0.00000000000E+00 0. -1.
          1    1    6    6  503    0  0.38791043530E+03  0.38913355387E+03  0.67424724597E+02  0.55357521807E+03  0.00000000000E+00 0. -1.
         -1    1    6    6    0  503  0.57077518449E+02  0.22779592307E+02 -0.10417972978E+02  0.62332071191E+02  0.00000000000E+00 0.  1.
<mgrwt>
<rscale>  0 0.92841365E+03</rscale>
<asrwt>0</asrwt>
<pdfrwt beam="1">  1        1 0.16064081E+00 0.92841365E+03</pdfrwt>
<pdfrwt beam="2">  1       -1 0.14603932E+00 0.92841365E+03</pdfrwt>
<totfact> 0.53008478E+00</totfact>
</mgrwt>
</event>
<event>
12    1  0.3203156E-008  0.1674935E+04  0.7818608E-02  0.8775791E-01
          2   -1    0    0  501    0  0.00000000000E+00  0.00000000000E+00  0.37796498806E+04  0.37796498806E+04  0.00000000000E+00 0. -1.
         -2   -1    0    0    0  501 -0.00000000000E+00 -0.00000000000E+00 -0.75551279913E+03  0.75551279913E+03  0.00000000000E+00 0.  1.
         23    2    1    2    0    0  0.46473249553E+03  0.15669129376E+04  0.15339587562E+04  0.22433219569E+04  0.90947732108E+02 0.  0.
    5000000    2    1    2    0    0 -0.46473249553E+03 -0.15669129376E+04  0.14901783252E+04  0.22918407228E+04  0.60059138480E+03 0.  0.
         23    2    4    4    0    0  0.10161876474E+03 -0.11435819841E+03  0.17869905273E+03  0.25254693348E+03  0.91882703890E+02 0.  0.
         23    2    4    4    0    0 -0.56635126027E+03 -0.14525547392E+04  0.13114792725E+04  0.20392937894E+04  0.89845738955E+02 0.  0.
          5    1    3    3  502    0  0.93101639458E+02  0.34115650111E+03  0.38299978661E+03  0.52131238242E+03  0.47000000000E+01 0. -1.
         -5    1    3    3    0  502  0.37163085608E+03  0.12257564365E+04  0.11509589696E+04  0.17220095745E+04  0.47000000000E+01 0.  1.
         11    1    5    5    0    0  0.84761990118E+02 -0.10998462676E+03  0.18727285917E+03  0.23313587642E+03  0.00000000000E+00 0. -1.
        -11    1    5    5    0    0  0.16856774619E+02 -0.43735716527E+01 -0.85738064376E+01  0.19411057065E+02  0.00000000000E+00 0.  1.
          2    1    6    6  503    0 -0.38564725760E+03 -0.98159376718E+03  0.94117275016E+03  0.14135261854E+04  0.00000000000E+00 0. -1.
         -2    1    6    6    0  503 -0.18070400267E+03 -0.47096097200E+03  0.37030652235E+03  0.62576760400E+03  0.00000000000E+00 0.  1.
<mgrwt>
<rscale>  0 0.16749347E+04</rscale>
<asrwt>0</asrwt>
<pdfrwt beam="1">  1        2 0.58148459E+00 0.16749347E+04</pdfrwt>
<pdfrwt beam="2">  1       -2 0.11623274E+00 0.16749347E+04</pdfrwt>
<totfact> 0.27567876E-01</totfact>
</mgrwt>
</event>
<event>
12    1  0.3203156E-008  0.7023952E+03  0.7818608E-02  0.9713145E-01
          2   -1    0    0  501    0  0.00000000000E+00  0.00000000000E+00  0.32599497566E+04  0.32599497566E+04  0.00000000000E+00 0. -1.
         -2   -1    0    0    0  501 -0.00000000000E+00 -0.00000000000E+00 -0.80606599640E+03  0.80606599640E+03  0.00000000000E+00 0.  1.
         23    2    1    2    0    0 -0.21978366886E+03  0.57869022451E+03  0.29872905972E+04  0.30521871989E+04  0.93564673114E+02 0.  0.
    5000000    2    1    2    0    0  0.21978366886E+03 -0.57869022451E+03 -0.53340683705E+03  0.10138285540E+04  0.60011519403E+03 0.  0.
         23    2    4    4    0    0 -0.43025683779E+02 -0.49398833516E+03 -0.13617881770E+03  0.52161242674E+03  0.87516676116E+02 0.  0.
         23    2    4    4    0    0  0.26280935264E+03 -0.84701889347E+02 -0.39722801936E+03  0.49221612729E+03  0.90793450791E+02 0.  0.
          5    1    3    3  502    0 -0.76747670427E+02  0.25632858805E+03  0.14967313490E+04  0.15204674843E+04  0.47000000000E+01 0. -1.
         -5    1    3    3    0  502 -0.14303599843E+03  0.32236163646E+03  0.14905592482E+04  0.15317197146E+04  0.47000000000E+01 0.  1.
         13    1    5    5    0    0 -0.31862563569E+02 -0.18720372763E+03 -0.11409614939E+02  0.19023837129E+03  0.00000000000E+00 0. -1.
        -13    1    5    5    0    0 -0.11163120210E+02 -0.30678460753E+03 -0.12476920276E+03  0.33137405545E+03  0.00000000000E+00 0.  1.
          3    1    6    6  503    0  0.92957631072E+02  0.93717959877E+01 -0.16399188239E+03  0.18873867973E+03  0.00000000000E+00 0. -1.
         -3    1    6    6    0  503  0.16985172157E+03 -0.94073685335E+02 -0.23323613696E+03  0.30347744756E+03  0.00000000000E+00 0.  1.
<mgrwt>
<rscale>  0 0.70239518E+03</rscale>
<asrwt>0</asrwt>
<pdfrwt beam="1">  1        2 0.50153073E+00 0.70239518E+03</pdfrwt>
<pdfrwt beam="2">  1       -2 0.12401015E+00 0.70239518E+03</pdfrwt>
<totfact> 0.63242567E-01</totfact>
</mgrwt>
</event>
<event>
12    1  0.3203156E-008  0.6305595E+03  0.7818608E-02  0.9843958E-01
         -2   -1    0    0    0  501 -0.00000000000E+00  0.00000000000E+00  0.29198135124E+03  0.29198135124E+03  0.00000000000E+00 0.  1.
          2   -1    0    0  501    0  0.00000000000E+00 -0.00000000000E+00 -0.15416663778E+04  0.15416663778E+04  0.00000000000E+00 0. -1.
         23    2    1    2    0    0 -0.50402027909E+03  0.13720239340E+03 -0.64162242384E+03  0.83238808902E+03  0.91266957161E+02 0.  0.
    5000000    2    1    2    0    0  0.50402027909E+03 -0.13720239340E+03 -0.60806260275E+03  0.10012596400E+04  0.59993316247E+03 0.  0.
         23    2    4    4    0    0  0.49111524600E+03 -0.27967278310E+03 -0.59806070499E+03  0.82764144833E+03  0.88897186024E+02 0.  0.
         23    2    4    4    0    0  0.12905033094E+02  0.14247038970E+03 -0.10001897753E+02  0.17361819171E+03  0.97871787114E+02 0.  0.
          5    1    3    3  502    0 -0.16402162507E+03  0.13150771504E+01 -0.19761606814E+03  0.25686382250E+03  0.47000000000E+01 0. -1.
         -5    1    3    3    0  502 -0.33999865402E+03  0.13588731625E+03 -0.44400635570E+03  0.57552426652E+03  0.47000000000E+01 0.  1.
         13    1    5    5    0    0  0.10201051083E+03 -0.57955294464E+02 -0.75890469244E+02  0.13972946646E+03  0.00000000000E+00 0. -1.
        -13    1    5    5    0    0  0.38910473517E+03 -0.22171748863E+03 -0.52217023575E+03  0.68791198187E+03  0.00000000000E+00 0.  1.
          1    1    6    6  503    0  0.43843931661E+02  0.11908344773E+03 -0.29391976466E+02  0.13025761455E+03  0.00000000000E+00 0. -1.
         -1    1    6    6    0  503 -0.30938898568E+02  0.23386941971E+02  0.19390078713E+02  0.43360577162E+02  0.00000000000E+00 0.  1.
<mgrwt>
<rscale>  0 0.63055949E+03</rscale>
<asrwt>0</asrwt>
<pdfrwt beam="1">  1        2 0.23717944E+00 0.63055949E+03</pdfrwt>
<pdfrwt beam="2">  1       -2 0.44920208E-01 0.63055949E+03</pdfrwt>
<totfact> 0.58523202E+01</totfact>
</mgrwt>
</event>
<event>
12    1  0.3203156E-008  0.1319698E+04  0.7818608E-02  0.9014088E-01
          2   -1    0    0  501    0  0.00000000000E+00  0.00000000000E+00  0.65994042542E+03  0.65994042542E+03  0.00000000000E+00 0. -1.
         -2   -1    0    0    0  501 -0.00000000000E+00 -0.00000000000E+00 -0.27140274105E+04  0.27140274105E+04  0.00000000000E+00 0.  1.
         23    2    1    2    0    0 -0.86734365749E+03 -0.91247885365E+03 -0.11811658952E+04  0.17287078525E+04  0.91516603836E+02 0.  0.
    5000000    2    1    2    0    0  0.86734365749E+03  0.91247885365E+03 -0.87292108986E+03  0.16452599834E+04  0.59998875433E+03 0.  0.
         23    2    4    4    0    0  0.20734339593E+03 -0.38963341852E+02 -0.90130412643E+02  0.24459688987E+03  0.84821703629E+02 0.  0.
         23    2    4    4    0    0  0.66000026156E+03  0.95144219550E+03 -0.78279067722E+03  0.14006630935E+04  0.90847457948E+02 0.  0.
          5    1    3    3  502    0 -0.46110649449E+03 -0.54434343104E+03 -0.69416181996E+03  0.99539524435E+03  0.47000000000E+01 0. -1.
         -5    1    3    3    0  502 -0.40623716300E+03 -0.36813542261E+03 -0.48700407526E+03  0.73331260817E+03  0.47000000000E+01 0.  1.
         13    1    5    5    0    0  0.18972127071E+03 -0.51135473560E+02 -0.10061152623E+03  0.22075252304E+03  0.00000000000E+00 0. -1.
        -13    1    5    5    0    0  0.17622125220E+02  0.12172131708E+02  0.10481113590E+02  0.23844366833E+02  0.00000000000E+00 0.  1.
          4    1    6    6  503    0  0.63947592742E+03  0.93820254723E+03 -0.75426656581E+03  0.13631109763E+04  0.00000000000E+00 0. -1.
         -4    1    6    6    0  503  0.20524334139E+02  0.13239648275E+02 -0.28524111411E+02  0.37552117252E+02  0.00000000000E+00 0.  1.
<mgrwt>
<rscale>  0 0.13196984E+04</rscale>
<asrwt>0</asrwt>
<pdfrwt beam="1">  1        2 0.10152930E+00 0.13196984E+04</pdfrwt>
<pdfrwt beam="2">  1       -2 0.41754268E+00 0.13196984E+04</pdfrwt>
<totfact> 0.24525990E-01</totfact>
</mgrwt>
</event>
<event>
12    1  0.3203156E-008  0.6222565E+03  0.7818608E-02  0.9860277E-01
         -1   -1    0    0    0  501 -0.00000000000E+00  0.00000000000E+00  0.21834763275E+04  0.21834763275E+04  0.00000000000E+00 0.  1.
          1   -1    0    0  501    0  0.00000000000E+00 -0.00000000000E+00 -0.26393389242E+03  0.26393389242E+03  0.00000000000E+00 0. -1.
         23    2    1    2    0    0 -0.42862214564E+03  0.35836823994E+03  0.32017880282E+03  0.65015402285E+03  0.89671893756E+02 0.  0.
    5000000    2    1    2    0    0  0.42862214564E+03 -0.35836823994E+03  0.15993636323E+04  0.17972561971E+04  0.60001755856E+03 0.  0.
         23    2    4    4    0    0 -0.45791130085E+02 -0.54855661937E+02  0.83809599877E+03  0.84605218293E+03  0.91068226359E+02 0.  0.
         23    2    4    4    0    0  0.47441327572E+03 -0.30351257800E+03  0.76126763352E+03  0.95120401417E+03  0.89848903860E+02 0.  0.
          5    1    3    3  502    0 -0.13980880978E+03  0.66576325534E+02  0.77679535959E+02  0.17330640704E+03  0.47000000000E+01 0. -1.
         -5    1    3    3    0  502 -0.28881333586E+03  0.29179191441E+03  0.24249926686E+03  0.47684761582E+03  0.47000000000E+01 0.  1.
         13    1    5    5    0    0  0.25866802505E+02 -0.30102735718E+02  0.26198567816E+03  0.26497502096E+03  0.00000000000E+00 0. -1.
        -13    1    5    5    0    0 -0.71657932590E+02 -0.24752926219E+02  0.57611032060E+03  0.58107716197E+03  0.00000000000E+00 0.  1.
          1    1    6    6  503    0  0.24320428710E+03 -0.16670091974E+03  0.47111285118E+03  0.55577409121E+03  0.00000000000E+00 0. -1.
         -1    1    6    6    0  503  0.23120898862E+03 -0.13681165826E+03  0.29015478234E+03  0.39542992296E+03  0.00000000000E+00 0.  1.
<mgrwt>
<rscale>  0 0.62225645E+03</rscale>
<asrwt>0</asrwt>
<pdfrwt beam="1">  1        1 0.40605216E-01 0.62225645E+03</pdfrwt>
<pdfrwt beam="2">  1       -1 0.33591942E+00 0.62225645E+03</pdfrwt>
<totfact> 0.21534243E+00</totfact>
</mgrwt>
</event>
<event>
12    1  0.3203156E-008  0.3258260E+03  0.7818608E-02  0.1072999E+00
         -2   -1    0    0    0  501 -0.00000000000E+00  0.00000000000E+00  0.12308327078E+03  0.12308327078E+03  0.00000000000E+00 0.  1.
          2   -1    0    0  501    0  0.00000000000E+00 -0.00000000000E+00 -0.10368311221E+04  0.10368311221E+04  0.00000000000E+00 0. -1.
         23    2    1    2    0    0  0.54217592275E+02 -0.34459739280E+02 -0.15239302103E+03  0.18885089114E+03  0.91181167364E+02 0.  0.
    5000000    2    1    2    0    0 -0.54217592275E+02  0.34459739280E+02 -0.76135483027E+03  0.97106350173E+03  0.59931304497E+03 0.  0.
         23    2    4    4    0    0 -0.27048530307E+03  0.13107176542E+03 -0.57783261805E+03  0.65794664880E+03  0.93065306750E+02 0.  0.
         23    2    4    4    0    0  0.21626771079E+03 -0.96612026141E+02 -0.18352221222E+03  0.31311685293E+03  0.90863385810E+02 0.  0.
          5    1    3    3  502    0  0.21861255761E+02  0.23066744184E+02 -0.98201574178E+02  0.10332293241E+03  0.47000000000E+01 0. -1.
         -5    1    3    3    0  502  0.32356336513E+02 -0.57526483464E+02 -0.54191446851E+02  0.85527958728E+02  0.47000000000E+01 0.  1.
         11    1    5    5    0    0 -0.20378002725E+03  0.56321099635E+02 -0.34737967455E+03  0.40665833824E+03  0.00000000000E+00 0.  1.
        -11    1    5    5    0    0 -0.66705275823E+02  0.74750665786E+02 -0.23045294350E+03  0.25128831056E+03  0.00000000000E+00 0. -1.
          3    1    6    6  503    0  0.68219485026E+02 -0.67208005589E+01 -0.12444526621E+02  0.69670176834E+02  0.00000000000E+00 0. -1.
         -3    1    6    6    0  503  0.14804822577E+03 -0.89891225582E+02 -0.17107768560E+03  0.24344667609E+03  0.00000000000E+00 0.  1.
<mgrwt>
<rscale>  0 0.32582597E+03</rscale>
<asrwt>0</asrwt>
<pdfrwt beam="1">  1        2 0.15951248E+00 0.32582597E+03</pdfrwt>
<pdfrwt beam="2">  1       -2 0.18935888E-01 0.32582597E+03</pdfrwt>
<totfact> 0.57578341E+02</totfact>
</mgrwt>
</event>
<event>
12    1  0.3203156E-008  0.9633730E+03  0.7818608E-02  0.9349655E-01
         -2   -1    0    0    0  501 -0.00000000000E+00  0.00000000000E+00  0.11111493875E+04  0.11111493875E+04  0.00000000000E+00 0.  1.
          2   -1    0    0  501    0  0.00000000000E+00 -0.00000000000E+00 -0.18250053993E+04  0.18250053993E+04  0.00000000000E+00 0. -1.
         23    2    1    2    0    0 -0.66785357861E+03  0.55814647968E+03 -0.14179545236E+04  0.16660041494E+04  0.86133035390E+02 0.  0.
    5000000    2    1    2    0    0  0.66785357861E+03 -0.55814647968E+03  0.70409851175E+03  0.12701506374E+04  0.59997669297E+03 0.  0.
         23    2    4    4    0    0  0.75741206447E+03 -0.43720973369E+03  0.61950245499E+03  0.10755693474E+04  0.90778536467E+02 0.  0.
         23    2    4    4    0    0 -0.89558485857E+02 -0.12093674598E+03  0.84596056761E+02  0.19458128996E+03  0.89771747599E+02 0.  0.
          5    1    3    3  502    0 -0.15696564281E+03  0.86407217116E+02 -0.29011023359E+03  0.34101386749E+03  0.47000000000E+01 0. -1.
         -5    1    3    3    0  502 -0.51088793580E+03  0.47173926256E+03 -0.11278442900E+04  0.13249902819E+04  0.47000000000E+01 0.  1.
         11    1    5    5    0    0  0.31534701099E+03 -0.21906376156E+03  0.23277741396E+03  0.44901892323E+03  0.00000000000E+00 0.  1.
        -11    1    5    5    0    0  0.44206505348E+03 -0.21814597214E+03  0.38672504103E+03  0.62655042417E+03  0.00000000000E+00 0. -1.
          3    1    6    6  503    0 -0.46022360351E+02  0.66615965673E+00  0.20383447337E+02  0.50338716176E+02  0.00000000000E+00 0. -1.
         -3    1    6    6    0  503 -0.43536125506E+02 -0.12160290564E+03  0.64212609424E+02  0.14424257379E+03  0.00000000000E+00 0.  1.
<mgrwt>
<rscale>  0 0.96337297E+03</rscale>
<asrwt>0</asrwt>
<pdfrwt beam="1">  1        2 0.28077005E+00 0.96337297E+03</pdfrwt>
<pdfrwt beam="2">  1       -2 0.17094606E+00 0.96337297E+03</pdfrwt>
<totfact> 0.17548821E+00</totfact>
</mgrwt>
</event>
<event>
12    1  0.3203156E-008  0.9150753E+03  0.7818608E-02  0.9406930E-01
          1   -1    0    0  501    0  0.00000000000E+00  0.00000000000E+00  0.19387084193E+04  0.19387084193E+04  0.00000000000E+00 0. -1.
         -1   -1    0    0    0  501 -0.00000000000E+00 -0.00000000000E+00 -0.49606237016E+03  0.49606237016E+03  0.00000000000E+00 0.  1.
         23    2    1    2    0    0  0.81614493310E+03 -0.34257102392E+03  0.59670771269E+03  0.10712530486E+04  0.89864017185E+02 0.  0.
    5000000    2    1    2    0    0 -0.81614493310E+03  0.34257102392E+03  0.84593833642E+03  0.13635177408E+04  0.60010124328E+03 0.  0.
         23    2    4    4    0    0 -0.62956072841E+02 -0.17385641367E+02 -0.61013598322E+02  0.12765498808E+03  0.91144989815E+02 0.  0.
         23    2    4    4    0    0 -0.75318886025E+03  0.35995666529E+03  0.90695193474E+03  0.12358627527E+04  0.89065546185E+02 0.  0.
          5    1    3    3  502    0  0.44233142705E+03 -0.14687089617E+03  0.28099303219E+03  0.54424932305E+03  0.47000000000E+01 0. -1.
         -5    1    3    3    0  502  0.37381350605E+03 -0.19570012775E+03  0.31571468050E+03  0.52700372560E+03  0.47000000000E+01 0.  1.
         13    1    5    5    0    0 -0.81737075352E+02 -0.21020453570E+02 -0.66839092018E+02  0.10765813103E+03  0.00000000000E+00 0. -1.
        -13    1    5    5    0    0  0.18781002511E+02  0.36348122024E+01  0.58254936961E+01  0.19996857049E+02  0.00000000000E+00 0.  1.
          1    1    6    6  503    0 -0.23469114926E+03  0.72129417089E+02  0.23901114411E+03  0.34264984366E+03  0.00000000000E+00 0. -1.
         -1    1    6    6    0  503 -0.51849771099E+03  0.28782724820E+03  0.66794079063E+03  0.89321290906E+03  0.00000000000E+00 0.  1.
<mgrwt>
<rscale>  0 0.91507526E+03</rscale>
<asrwt>0</asrwt>
<pdfrwt beam="1">  1        1 0.29826283E+00 0.91507526E+03</pdfrwt>
<pdfrwt beam="2">  1       -1 0.76317289E-01 0.91507526E+03</pdfrwt>
<totfact> 0.57768829E+00</totfact>
</mgrwt>
</event>
<event>
12    1  0.3203156E-008  0.8275185E+03  0.7818608E-02  0.9521018E-01
         -1   -1    0    0    0  501 -0.00000000000E+00  0.00000000000E+00  0.96064487888E+03  0.96064487888E+03  0.00000000000E+00 0.  1.
          1   -1    0    0  501    0  0.00000000000E+00 -0.00000000000E+00 -0.11239754992E+04  0.11239754992E+04  0.00000000000E+00 0. -1.
         23    2    1    2    0    0  0.32613177795E+03  0.65963947969E+03  0.52759632231E+03  0.91031704198E+03  0.93984348956E+02 0.  0.
    5000000    2    1    2    0    0 -0.32613177795E+03 -0.65963947969E+03 -0.69092694262E+03  0.11743033361E+04  0.60010174584E+03 0.  0.
         23    2    4    4    0    0  0.12783965350E+03 -0.28058104139E+03 -0.10934309611E+03  0.33966185890E+03  0.91354079998E+02 0.  0.
         23    2    4    4    0    0 -0.45397143145E+03 -0.37905843830E+03 -0.58158384650E+03  0.83464147718E+03  0.92796900304E+02 0.  0.
          5    1    3    3  502    0  0.75171883767E+02  0.25217677863E+03  0.18077498670E+03  0.31928925069E+03  0.47000000000E+01 0. -1.
         -5    1    3    3    0  502  0.25095989418E+03  0.40746270106E+03  0.34682133561E+03  0.59102779129E+03  0.47000000000E+01 0.  1.
         11    1    5    5    0    0  0.84827581485E+02 -0.10831833616E+03 -0.81589591393E+02  0.15995449963E+03  0.00000000000E+00 0.  1.
        -11    1    5    5    0    0  0.43012072013E+02 -0.17226270523E+03 -0.27753504720E+02  0.17970735927E+03  0.00000000000E+00 0. -1.
          2    1    6    6  503    0 -0.40103156495E+02 -0.73420501732E+02 -0.69812981551E+02  0.10896185401E+03  0.00000000000E+00 0. -1.
         -2    1    6    6    0  503 -0.41386827495E+03 -0.30563793657E+03 -0.51177086495E+03  0.72567962318E+03  0.00000000000E+00 0.  1.
<mgrwt>
<rscale>  0 0.82751849E+03</rscale>
<asrwt>0</asrwt>
<pdfrwt beam="1">  1        1 0.17291931E+00 0.82751849E+03</pdfrwt>
<pdfrwt beam="2">  1       -1 0.14779152E+00 0.82751849E+03</pdfrwt>
<totfact> 0.45311276E+00</totfact>
</mgrwt>
</event>
<event>
12    1  0.3203156E-008  0.9578416E+03  0.7818608E-02  0.9356032E-01
         -2   -1    0    0    0  501 -0.00000000000E+00  0.00000000000E+00  0.12700456418E+04  0.12700456418E+04  0.00000000000E+00 0.  1.
          2   -1    0    0  501    0  0.00000000000E+00 -0.00000000000E+00 -0.78451779240E+03  0.78451779240E+03  0.00000000000E+00 0. -1.
         23    2    1    2    0    0 -0.41286702576E+03  0.80129185553E+03  0.31131268446E+03  0.95796670855E+03  0.90866982399E+02 0.  0.
    5000000    2    1    2    0    0  0.41286702576E+03 -0.80129185553E+03  0.17421516490E+03  0.10965967256E+04  0.59970462416E+03 0.  0.
         23    2    4    4    0    0  0.47845734758E+03 -0.80106907576E+03  0.24260783024E+03  0.96841771205E+03  0.91330214741E+02 0.  0.
         23    2    4    4    0    0 -0.65590321820E+02 -0.22277977031E+00 -0.68392665338E+02  0.12817901356E+03  0.86314326150E+02 0.  0.
          5    1    3    3  502    0 -0.81264735567E+02  0.18712232291E+03  0.10849075645E+03  0.23110831922E+03  0.47000000000E+01 0. -1.
         -5    1    3    3    0  502 -0.33160229020E+03  0.61416953262E+03  0.20282192801E+03  0.72685838934E+03  0.47000000000E+01 0.  1.
         13    1    5    5    0    0  0.39218935179E+03 -0.62722135338E+03  0.15659175415E+03  0.75613496894E+03  0.00000000000E+00 0. -1.
        -13    1    5    5    0    0  0.86267995798E+02 -0.17384772238E+03  0.86016076090E+02  0.21228274311E+03  0.00000000000E+00 0.  1.
          1    1    6    6  503    0 -0.32261858058E+02  0.22628996714E+02 -0.77330326410E+02  0.86792156099E+02  0.00000000000E+00 0. -1.
         -1    1    6    6    0  503 -0.33328463763E+02 -0.22851776485E+02  0.89376610725E+01  0.41386857464E+02  0.00000000000E+00 0.  1.
<mgrwt>
<rscale>  0 0.95784157E+03</rscale>
<asrwt>0</asrwt>
<pdfrwt beam="1">  1        2 0.12069505E+00 0.95784157E+03</pdfrwt>
<pdfrwt beam="2">  1       -2 0.19539164E+00 0.95784157E+03</pdfrwt>
<totfact> 0.50275863E+00</totfact>
</mgrwt>
</event>
<event>
12    1  0.3203156E-008  0.4954046E+03  0.7818608E-02  0.1014985E+00
         -3   -1    0    0    0  501 -0.00000000000E+00  0.00000000000E+00  0.28131047042E+03  0.28131047042E+03  0.00000000000E+00 0.  1.
          3   -1    0    0  501    0  0.00000000000E+00 -0.00000000000E+00 -0.11068214653E+04  0.11068214653E+04  0.00000000000E+00 0. -1.
         23    2    1    2    0    0 -0.31938831048E+03 -0.20442301911E+03 -0.40884190470E+03  0.56523430706E+03  0.92414583417E+02 0.  0.
    5000000    2    1    2    0    0  0.31938831048E+03  0.20442301911E+03 -0.41666909013E+03  0.82289762861E+03  0.59979139114E+03 0.  0.
         23    2    4    4    0    0 -0.77477695932E+02 -0.51982486518E+02  0.61746372634E+02  0.14427950056E+03  0.91098778687E+02 0.  0.
         23    2    4    4    0    0  0.39686600642E+03  0.25640550563E+03 -0.47841546276E+03  0.67861812805E+03  0.91623132104E+02 0.  0.
          5    1    3    3  502    0 -0.10523906620E+03 -0.19783352426E+02 -0.10225113321E+03  0.14813516237E+03  0.47000000000E+01 0. -1.
         -5    1    3    3    0  502 -0.21414924428E+03 -0.18463966668E+03 -0.30659077149E+03  0.41709914469E+03  0.47000000000E+01 0.  1.
         11    1    5    5    0    0 -0.92728881129E+02 -0.45535982533E+02  0.70961357545E+02  0.12533030506E+03  0.00000000000E+00 0.  1.
        -11    1    5    5    0    0  0.15251185197E+02 -0.64465039847E+01 -0.92149849113E+01  0.18949195509E+02  0.00000000000E+00 0. -1.
          1    1    6    6  503    0  0.20224798224E+03  0.77435647490E+02 -0.22790819703E+03  0.31439254460E+03  0.00000000000E+00 0. -1.
         -1    1    6    6    0  503  0.19461802417E+03  0.17896985814E+03 -0.25050726573E+03  0.36422558345E+03  0.00000000000E+00 0.  1.
<mgrwt>
<rscale>  0 0.49540460E+03</rscale>
<asrwt>0</asrwt>
<pdfrwt beam="1">  1        3 0.17028023E+00 0.49540460E+03</pdfrwt>
<pdfrwt beam="2">  1       -3 0.43278533E-01 0.49540460E+03</pdfrwt>
<totfact> 0.32369894E+00</totfact>
</mgrwt>
</event>
<event>
12    1  0.3203156E-008  0.1203688E+04  0.7818608E-02  0.9109634E-01
         -2   -1    0    0    0  501 -0.00000000000E+00  0.00000000000E+00  0.10411122311E+04  0.10411122311E+04  0.00000000000E+00 0.  1.
          2   -1    0    0  501    0  0.00000000000E+00 -0.00000000000E+00 -0.15411950623E+04  0.15411950623E+04  0.00000000000E+00 0. -1.
         23    2    1    2    0    0 -0.41945959960E+03  0.10641677580E+04 -0.58457759523E+03  0.12879324279E+04  0.92949455418E+02 0.  0.
    5000000    2    1    2    0    0  0.41945959960E+03 -0.10641677580E+04  0.84494764033E+02  0.12943748654E+04  0.59988961843E+03 0.  0.
         23    2    4    4    0    0  0.54470817550E+03 -0.90998382870E+03  0.11692313564E+03  0.10712987204E+04  0.96085190101E+02 0.  0.
         23    2    4    4    0    0 -0.12524857590E+03 -0.15418392929E+03 -0.32428371604E+02  0.22307614503E+03  0.96184600537E+02 0.  0.
          5    1    3    3  502    0 -0.10796479606E+03  0.33251493762E+03 -0.22030830565E+03  0.41325587771E+03  0.47000000000E+01 0. -1.
         -5    1    3    3    0  502 -0.31149480354E+03  0.73165282038E+03 -0.36426928959E+03  0.87467655024E+03  0.47000000000E+01 0.  1.
         11    1    5    5    0    0  0.29794752487E+03 -0.57039584383E+03  0.99419177423E+02  0.65115921177E+03  0.00000000000E+00 0.  1.
        -11    1    5    5    0    0  0.24676065063E+03 -0.33958798487E+03  0.17503958214E+02  0.42013950865E+03  0.00000000000E+00 0. -1.
          3    1    6    6  503    0 -0.48220186344E+02 -0.47922340732E+02 -0.58001833104E+02  0.89364141330E+02  0.00000000000E+00 0. -1.
         -3    1    6    6    0  503 -0.77028389556E+02 -0.10626158856E+03  0.25573461499E+02  0.13371200370E+03  0.00000000000E+00 0.  1.
<mgrwt>
<rscale>  0 0.12036883E+04</rscale>
<asrwt>0</asrwt>
<pdfrwt beam="1">  1        2 0.23710693E+00 0.12036883E+04</pdfrwt>
<pdfrwt beam="2">  1       -2 0.16017111E+00 0.12036883E+04</pdfrwt>
<totfact> 0.29342984E+00</totfact>
</mgrwt>
</event>
<event>
12    1  0.3203156E-008  0.1634475E+04  0.7818608E-02  0.8799644E-01
          2   -1    0    0  501    0  0.00000000000E+00  0.00000000000E+00  0.18812968437E+04  0.18812968437E+04  0.00000000000E+00 0. -1.
         -2   -1    0    0    0  501 -0.00000000000E+00 -0.00000000000E+00 -0.14563822863E+04  0.14563822863E+04  0.00000000000E+00 0.  1.
         23    2    1    2    0    0  0.68005802918E+03  0.14466592843E+04  0.15236910856E+03  0.16081543811E+04  0.87419450605E+02 0.  0.
    5000000    2    1    2    0    0 -0.68005802918E+03 -0.14466592843E+04  0.27254544878E+03  0.17295247489E+04  0.60139240710E+03 0.  0.
         23    2    4    4    0    0 -0.35885662209E+03 -0.12094882376E+04  0.35147719665E+03  0.13129341610E+04  0.92844059608E+02 0.  0.
         23    2    4    4    0    0 -0.32120140709E+03 -0.23717104678E+03 -0.78931747870E+02  0.41659058785E+03  0.88865334754E+02 0.  0.
          5    1    3    3  502    0  0.58618660207E+03  0.12496933023E+04  0.10160264660E+03  0.13840857163E+04  0.47000000000E+01 0. -1.
         -5    1    3    3    0  502  0.93871427110E+02  0.19696598201E+03  0.50766461954E+02  0.22406866482E+03  0.47000000000E+01 0.  1.
         13    1    5    5    0    0 -0.79422726834E+02 -0.41871890933E+03  0.10921089725E+03  0.43995512799E+03  0.00000000000E+00 0. -1.
        -13    1    5    5    0    0 -0.27943389526E+03 -0.79076932822E+03  0.24226629940E+03  0.87297903302E+03  0.00000000000E+00 0.  1.
          1    1    6    6  503    0 -0.15307564985E+03 -0.15681261124E+03 -0.69941356155E+02  0.23003074343E+03  0.00000000000E+00 0. -1.
         -1    1    6    6    0  503 -0.16812575724E+03 -0.80358435533E+02 -0.89903917146E+01  0.18655984442E+03  0.00000000000E+00 0.  1.
<mgrwt>
<rscale>  0 0.16344752E+04</rscale>
<asrwt>0</asrwt>
<pdfrwt beam="1">  1        2 0.28943028E+00 0.16344752E+04</pdfrwt>
<pdfrwt beam="2">  1       -2 0.22405881E+00 0.16344752E+04</pdfrwt>
<totfact> 0.67127508E-01</totfact>
</mgrwt>
</event>
<event>
12    1  0.3203156E-008  0.8195748E+03  0.7818608E-02  0.9532108E-01
         -2   -1    0    0    0  501 -0.00000000000E+00  0.00000000000E+00  0.74011276264E+03  0.74011276264E+03  0.00000000000E+00 0.  1.
          2   -1    0    0  501    0  0.00000000000E+00 -0.00000000000E+00 -0.93114508417E+03  0.93114508417E+03  0.00000000000E+00 0. -1.
         23    2    1    2    0    0  0.70217084137E+03  0.15243503335E+03 -0.93008908190E+02  0.73018235600E+03  0.90748477340E+02 0.  0.
    5000000    2    1    2    0    0 -0.70217084137E+03 -0.15243503335E+03 -0.98023413336E+02  0.94107549082E+03  0.59977842575E+03 0.  0.
         23    2    4    4    0    0 -0.61719165387E+03 -0.34036304067E+03 -0.77979109321E+02  0.71519519991E+03  0.93010189849E+02 0.  0.
         23    2    4    4    0    0 -0.84979187502E+02  0.18792800732E+03 -0.20044304015E+02  0.22588029091E+03  0.89898461919E+02 0.  0.
          5    1    3    3  502    0  0.20814591318E+03  0.48172651704E+02  0.13562241696E+02  0.21412928325E+03  0.47000000000E+01 0. -1.
         -5    1    3    3    0  502  0.49402492819E+03  0.10426238165E+03 -0.10657114989E+03  0.51605307274E+03  0.47000000000E+01 0.  1.
         13    1    5    5    0    0 -0.14379620409E+03 -0.88986337653E+02  0.20114439723E+02  0.17029535309E+03  0.00000000000E+00 0. -1.
        -13    1    5    5    0    0 -0.47339544978E+03 -0.25137670302E+03 -0.98093549044E+02  0.54489984681E+03  0.00000000000E+00 0.  1.
          3    1    6    6  503    0 -0.81971755117E+02  0.10874139002E+03 -0.43976916221E+02  0.14310145947E+03  0.00000000000E+00 0.  1.
         -3    1    6    6    0  503 -0.30074323843E+01  0.79186617297E+02  0.23932612206E+02  0.82778831446E+02  0.00000000000E+00 0. -1.
<mgrwt>
<rscale>  0 0.81957482E+03</rscale>
<asrwt>0</asrwt>
<pdfrwt beam="1">  1        2 0.14325309E+00 0.81957482E+03</pdfrwt>
<pdfrwt beam="2">  1       -2 0.11386350E+00 0.81957482E+03</pdfrwt>
<totfact> 0.17030093E+01</totfact>
</mgrwt>
</event>
<event>
12    1  0.3203156E-008  0.5678816E+03  0.7818608E-02  0.9974377E-01
          2   -1    0    0  501    0  0.00000000000E+00  0.00000000000E+00  0.28600589732E+04  0.28600589732E+04  0.00000000000E+00 0.  1.
         -2   -1    0    0    0  501 -0.00000000000E+00 -0.00000000000E+00 -0.13515238190E+03  0.13515238190E+03  0.00000000000E+00 0. -1.
         23    2    1    2    0    0  0.29422382753E+03  0.34979199927E+03  0.13324292721E+04  0.14116675070E+04  0.92278284615E+02 0.  0.
    5000000    2    1    2    0    0 -0.29422382753E+03 -0.34979199927E+03  0.13924773192E+04  0.15835438481E+04  0.59974655553E+03 0.  0.
         23    2    4    4    0    0 -0.38298692479E+02 -0.39842782051E+03  0.48621262551E+03  0.63630477597E+03  0.90936971077E+02 0.  0.
         23    2    4    4    0    0 -0.25592513505E+03  0.48635821248E+02  0.90626469370E+03  0.94723907212E+03  0.89905766484E+02 0.  0.
          5    1    3    3  502    0  0.51677989755E+02  0.35625675262E+02  0.27715254913E+03  0.28421018428E+03  0.47000000000E+01 0. -1.
         -5    1    3    3    0  502  0.24254583777E+03  0.31416632400E+03  0.10552767230E+04  0.11274573228E+04  0.47000000000E+01 0.  1.
         13    1    5    5    0    0 -0.27246423784E+02 -0.66411503822E+02  0.47776205213E+02  0.86228888625E+02  0.00000000000E+00 0. -1.
        -13    1    5    5    0    0 -0.11052268695E+02 -0.33201631669E+03  0.43843642030E+03  0.55007588734E+03  0.00000000000E+00 0.  1.
          2    1    6    6  503    0 -0.40993568799E+02  0.39278482873E+02  0.25930019313E+03  0.26544276606E+03  0.00000000000E+00 0. -1.
         -2    1    6    6    0  503 -0.21493156625E+03  0.93573383745E+01  0.64696450058E+03  0.68179630606E+03  0.00000000000E+00 0.  1.
<mgrwt>
<rscale>  0 0.56788161E+03</rscale>
<asrwt>0</asrwt>
<pdfrwt beam="1">  1        2 0.44000903E+00 0.56788161E+03</pdfrwt>
<pdfrwt beam="2">  1       -2 0.20792676E-01 0.56788161E+03</pdfrwt>
<totfact> 0.45906588E+01</totfact>
</mgrwt>
</event>
<event>
12    1  0.3203156E-008  0.1021937E+04  0.7818608E-02  0.9284807E-01
         -2   -1    0    0    0  501 -0.00000000000E+00  0.00000000000E+00  0.68679363693E+03  0.68679363693E+03  0.00000000000E+00 0.  1.
          2   -1    0    0  501    0  0.00000000000E+00 -0.00000000000E+00 -0.31297041916E+04  0.31297041916E+04  0.00000000000E+00 0. -1.
         23    2    1    2    0    0  0.20097744285E+03 -0.99139520212E+03 -0.24371776878E+04  0.26403204444E+04  0.90557098062E+02 0.  0.
    5000000    2    1    2    0    0 -0.20097744285E+03  0.99139520212E+03 -0.57328669228E+01  0.11761773842E+04  0.60008665534E+03 0.  0.
         23    2    4    4    0    0 -0.16696953183E+03  0.53503958055E+03 -0.28423343044E+03  0.63410333734E+03  0.84570811343E+02 0.  0.
         23    2    4    4    0    0 -0.34007911012E+02  0.45635562157E+03  0.27850056351E+03  0.54207404681E+03  0.82853587764E+02 0.  0.
          5    1    3    3  502    0  0.13768047393E+03 -0.79187387151E+03 -0.20045906804E+04  0.21597282300E+04  0.47000000000E+01 0. -1.
         -5    1    3    3    0  502  0.63296968917E+02 -0.19952133061E+03 -0.43258700733E+03  0.48059221441E+03  0.47000000000E+01 0.  1.
         13    1    5    5    0    0 -0.34190044538E+02  0.35077823064E+02 -0.32719252788E+02  0.58906386067E+02  0.00000000000E+00 0.  1.
        -13    1    5    5    0    0 -0.13277948730E+03  0.49996175749E+03 -0.25151417765E+03  0.57519695128E+03  0.00000000000E+00 0. -1.
          2    1    6    6  503    0 -0.55865817557E+02  0.40209857249E+03  0.25234558815E+03  0.47799848057E+03  0.00000000000E+00 0.  1.
         -2    1    6    6    0  503  0.21857906545E+02  0.54257049078E+02  0.26154975362E+02  0.64075566243E+02  0.00000000000E+00 0. -1.
<mgrwt>
<rscale>  0 0.10219367E+04</rscale>
<asrwt>0</asrwt>
<pdfrwt beam="1">  1        2 0.48149295E+00 0.10219367E+04</pdfrwt>
<pdfrwt beam="2">  1       -2 0.10566056E+00 0.10219367E+04</pdfrwt>
<totfact> 0.10623640E+00</totfact>
</mgrwt>
</event>
<event>
12    1  0.3203156E-008  0.1606832E+04  0.7818608E-02  0.8816362E-01
         -1   -1    0    0    0  501 -0.00000000000E+00  0.00000000000E+00  0.14594197561E+04  0.14594197561E+04  0.00000000000E+00 0.  1.
          1   -1    0    0  501    0  0.00000000000E+00 -0.00000000000E+00 -0.21063106165E+04  0.21063106165E+04  0.00000000000E+00 0. -1.
         23    2    1    2    0    0  0.15451517918E+04  0.15294629869E+03 -0.10195697108E+04  0.18598751308E+04  0.93415612711E+02 0.  0.
    5000000    2    1    2    0    0 -0.15451517918E+04 -0.15294629869E+03  0.37267885047E+03  0.17058552419E+04  0.60013827614E+03 0.  0.
         23    2    4    4    0    0 -0.10976782016E+03 -0.16886363227E+03  0.26191631974E+02  0.22634255500E+03  0.99905204948E+02 0.  0.
         23    2    4    4    0    0 -0.14353839717E+04  0.15917333574E+02  0.34648721850E+03  0.14795126869E+04  0.91235356741E+02 0.  0.
          5    1    3    3  502    0  0.51175345014E+03  0.61420499971E+02 -0.28828127988E+03  0.59058636784E+03  0.47000000000E+01 0. -1.
         -5    1    3    3    0  502  0.10333983417E+04  0.91525798720E+02 -0.73128843095E+03  0.12692887629E+04  0.47000000000E+01 0.  1.
         13    1    5    5    0    0 -0.11538369230E+03 -0.97028369129E+02  0.34959544419E+01  0.15079828435E+03  0.00000000000E+00 0. -1.
        -13    1    5    5    0    0  0.56158721459E+01 -0.71835263136E+02  0.22695677532E+02  0.75544270653E+02  0.00000000000E+00 0.  1.
          4    1    6    6  503    0 -0.36467040692E+03  0.40814246235E+02  0.10402653698E+03  0.38140769365E+03  0.00000000000E+00 0.  1.
         -4    1    6    6    0  503 -0.10707135648E+04 -0.24896912661E+02  0.24246068151E+03  0.10981049932E+04  0.00000000000E+00 0. -1.
<mgrwt>
<rscale>  0 0.16068321E+04</rscale>
<asrwt>0</asrwt>
<pdfrwt beam="1">  1        1 0.32404779E+00 0.16068321E+04</pdfrwt>
<pdfrwt beam="2">  1       -1 0.22452612E+00 0.16068321E+04</pdfrwt>
<totfact> 0.24155619E-01</totfact>
</mgrwt>
</event>
<event>
12    1  0.3203156E-008  0.4410853E+03  0.7818608E-02  0.1030414E+00
         -2   -1    0    0    0  501 -0.00000000000E+00  0.00000000000E+00  0.28359954439E+03  0.28359954439E+03  0.00000000000E+00 0.  1.
          2   -1    0    0  501    0  0.00000000000E+00 -0.00000000000E+00 -0.78928683712E+03  0.78928683712E+03  0.00000000000E+00 0. -1.
         23    2    1    2    0    0  0.15808207367E+03  0.21625231217E+03 -0.23494114793E+03  0.36223197834E+03  0.65266060159E+02 0.  0.
    5000000    2    1    2    0    0 -0.15808207367E+03 -0.21625231217E+03 -0.27074614480E+03  0.71065440317E+03  0.59997600059E+03 0.  0.
         23    2    4    4    0    0  0.57658370248E+02 -0.34395602618E+03 -0.49593314297E+02  0.36394615085E+03  0.91471680265E+02 0.  0.
         23    2    4    4    0    0 -0.21574044392E+03  0.12770371401E+03 -0.22115283050E+03  0.34670825231E+03  0.91901360548E+02 0.  0.
          5    1    3    3  502    0  0.14421688127E+03  0.18830134431E+03 -0.17603965275E+03  0.29541150020E+03  0.47000000000E+01 0. -1.
         -5    1    3    3    0  502  0.13865192406E+02  0.27950967861E+02 -0.58901495177E+02  0.66820478140E+02  0.47000000000E+01 0.  1.
         11    1    5    5    0    0  0.29831362150E+02 -0.18377959823E+03 -0.72424403721E+02  0.19977523657E+03  0.00000000000E+00 0.  1.
        -11    1    5    5    0    0  0.27827008097E+02 -0.16017642795E+03  0.22831089423E+02  0.16417091428E+03  0.00000000000E+00 0. -1.
          4    1    6    6  503    0 -0.47608849643E+02  0.74250841253E+02 -0.96211082851E+02  0.13052341726E+03  0.00000000000E+00 0.  1.
         -4    1    6    6    0  503 -0.16813159428E+03  0.53452872759E+02 -0.12494174765E+03  0.21618483505E+03  0.00000000000E+00 0. -1.
<mgrwt>
<rscale>  0 0.44108529E+03</rscale>
<asrwt>0</asrwt>
<pdfrwt beam="1">  1        2 0.12142874E+00 0.44108529E+03</pdfrwt>
<pdfrwt beam="2">  1       -2 0.43630699E-01 0.44108529E+03</pdfrwt>
<totfact> 0.18021754E+02</totfact>
</mgrwt>
</event>
<event>
12    1  0.3203156E-008  0.1582722E+04  0.7818608E-02  0.8831234E-01
          2   -1    0    0  501    0  0.00000000000E+00  0.00000000000E+00  0.23911097674E+04  0.23911097674E+04  0.00000000000E+00 0. -1.
         -2   -1    0    0    0  501 -0.00000000000E+00 -0.00000000000E+00 -0.11250337376E+04  0.11250337376E+04  0.00000000000E+00 0.  1.
         23    2    1    2    0    0 -0.19222716657E+03  0.15431996584E+04  0.93304730964E+03  0.18164243692E+04  0.10199871539E+03 0.  0.
    5000000    2    1    2    0    0  0.19222716657E+03 -0.15431996584E+04  0.33302872018E+03  0.16997191358E+04  0.59976707384E+03 0.  0.
         23    2    4    4    0    0  0.81763011755E+02 -0.14365802492E+04  0.15907398793E+03  0.14503060258E+04  0.87378673198E+02 0.  0.
         23    2    4    4    0    0  0.11046415482E+03 -0.10661940924E+03  0.17395473225E+03  0.24941310997E+03  0.91523891026E+02 0.  0.
          5    1    3    3  502    0 -0.10343435685E+03  0.70145508300E+03  0.48143375132E+03  0.85705218426E+03  0.47000000000E+01 0. -1.
         -5    1    3    3    0  502 -0.88792809727E+02  0.84174457539E+03  0.45161355832E+03  0.95937218499E+03  0.47000000000E+01 0.  1.
         13    1    5    5    0    0 -0.95445730231E+01 -0.57330413134E+03  0.55763819030E+02  0.57608882075E+03  0.00000000000E+00 0. -1.
        -13    1    5    5    0    0  0.91307584779E+02 -0.86327611782E+03  0.10331016890E+03  0.87421720506E+03  0.00000000000E+00 0.  1.
          1    1    6    6  503    0 -0.90410483259E+01 -0.16476387266E+02  0.55278921549E+02  0.58386394475E+02  0.00000000000E+00 0. -1.
         -1    1    6    6    0  503  0.11950520314E+03 -0.90143021974E+02  0.11867581070E+03  0.19102671550E+03  0.00000000000E+00 0.  1.
<mgrwt>
<rscale>  0 0.15827215E+04</rscale>
<asrwt>0</asrwt>
<pdfrwt beam="1">  1        2 0.36786304E+00 0.15827215E+04</pdfrwt>
<pdfrwt beam="2">  1       -2 0.17308211E+00 0.15827215E+04</pdfrwt>
<totfact> 0.76143139E-01</totfact>
</mgrwt>
</event>
<event>
12    1  0.3203156E-008  0.6799323E+03  0.7818608E-02  0.9752180E-01
          2   -1    0    0  501    0  0.00000000000E+00  0.00000000000E+00  0.32563663256E+03  0.32563663256E+03  0.00000000000E+00 0. -1.
         -2   -1    0    0    0  501 -0.00000000000E+00 -0.00000000000E+00 -0.16805521255E+04  0.16805521255E+04  0.00000000000E+00 0.  1.
         23    2    1    2    0    0 -0.19690300789E+03  0.52048054696E+03 -0.21664298164E+03  0.60424656806E+03  0.92243911661E+02 0.  0.
    5000000    2    1    2    0    0  0.19690300789E+03 -0.52048054696E+03 -0.11382725113E+04  0.14019421900E+04  0.60008899327E+03 0.  0.
         23    2    4    4    0    0  0.37997301677E+03 -0.23092636975E+03 -0.52589593230E+03  0.69409872818E+03  0.86602720142E+02 0.  0.
         23    2    4    4    0    0 -0.18307000888E+03 -0.28955417721E+03 -0.61237657898E+03  0.70784346180E+03  0.93172110866E+02 0.  0.
          5    1    3    3  502    0 -0.13750038175E+03  0.34720459445E+03 -0.98551488557E+02  0.38625363595E+03  0.47000000000E+01 0. -1.
         -5    1    3    3    0  502 -0.59402626140E+02  0.17327595251E+03 -0.11809149309E+03  0.21799293211E+03  0.47000000000E+01 0.  1.
         11    1    5    5    0    0  0.96459542702E+02 -0.25060821767E+02 -0.85363453877E+02  0.13122273974E+03  0.00000000000E+00 0. -1.
        -11    1    5    5    0    0  0.28351347406E+03 -0.20586554798E+03 -0.44053247843E+03  0.56287598845E+03  0.00000000000E+00 0.  1.
          2    1    6    6  503    0 -0.90297027173E+01 -0.80956453999E+02 -0.11220639467E+03  0.13865697956E+03  0.00000000000E+00 0.  1.
         -2    1    6    6    0  503 -0.17404030616E+03 -0.20859772321E+03 -0.50017018431E+03  0.56918648224E+03  0.00000000000E+00 0. -1.
<mgrwt>
<rscale>  0 0.67993233E+03</rscale>
<asrwt>0</asrwt>
<pdfrwt beam="1">  1        2 0.50097942E-01 0.67993233E+03</pdfrwt>
<pdfrwt beam="2">  1       -2 0.25854649E+00 0.67993233E+03</pdfrwt>
<totfact> 0.59262830E+00</totfact>
</mgrwt>
</event>
<event>
12    1  0.3203156E-008  0.7775508E+03  0.7818608E-02  0.9593092E-01
         -1   -1    0    0    0  501 -0.00000000000E+00  0.00000000000E+00  0.11226963077E+04  0.11226963077E+04  0.00000000000E+00 0.  1.
          1   -1    0    0  501    0  0.00000000000E+00 -0.00000000000E+00 -0.56610670274E+03  0.56610670274E+03  0.00000000000E+00 0. -1.
         23    2    1    2    0    0  0.12480293811E+03 -0.66797857234E+03  0.28292415326E+03  0.74169781803E+03  0.91095720568E+02 0.  0.
    5000000    2    1    2    0    0 -0.12480293811E+03  0.66797857234E+03  0.27366545173E+03  0.94710519245E+03  0.60028686445E+03 0.  0.
         23    2    4    4    0    0  0.14632594473E+03  0.55465287060E+03  0.85098456452E+02  0.58661264120E+03  0.88439553101E+02 0.  0.
         23    2    4    4    0    0 -0.27112888284E+03  0.11332570173E+03  0.18856699527E+03  0.36049255125E+03  0.89687134068E+02 0.  0.
          5    1    3    3  502    0  0.98818221099E+02 -0.58007247325E+03  0.27510187895E+03  0.64957851631E+03  0.47000000000E+01 0. -1.
         -5    1    3    3    0  502  0.25984717009E+02 -0.87906099082E+02  0.78222743172E+01  0.92119301720E+02  0.47000000000E+01 0.  1.
         13    1    5    5    0    0  0.43455323935E+02  0.29226730477E+03  0.73792678034E+02  0.30455525270E+03  0.00000000000E+00 0.  1.
        -13    1    5    5    0    0  0.10287062080E+03  0.26238556584E+03  0.11305778419E+02  0.28205738850E+03  0.00000000000E+00 0. -1.
          2    1    6    6  503    0 -0.11450085114E+03  0.73097751053E+02  0.13133708085E+03  0.18895278492E+03  0.00000000000E+00 0.  1.
         -2    1    6    6    0  503 -0.15662803170E+03  0.40227950679E+02  0.57229914424E+02  0.17153976633E+03  0.00000000000E+00 0. -1.
<mgrwt>
<rscale>  0 0.77755084E+03</rscale>
<asrwt>0</asrwt>
<pdfrwt beam="1">  1        1 0.87093339E-01 0.77755084E+03</pdfrwt>
<pdfrwt beam="2">  1       -1 0.17272251E+00 0.77755084E+03</pdfrwt>
<totfact> 0.89929309E+00</totfact>
</mgrwt>
</event>
<event>
12    1  0.3203156E-008  0.7348338E+03  0.7818608E-02  0.9659449E-01
          4   -1    0    0  501    0  0.00000000000E+00  0.00000000000E+00  0.11607145593E+04  0.11607145593E+04  0.00000000000E+00 0. -1.
         -4   -1    0    0    0  501 -0.00000000000E+00 -0.00000000000E+00 -0.54049110712E+03  0.54049110712E+03  0.00000000000E+00 0.  1.
         23    2    1    2    0    0  0.61694850492E+03 -0.27351855751E+03  0.28888176241E+03  0.73922676612E+03  0.86980917883E+02 0.  0.
    5000000    2    1    2    0    0 -0.61694850492E+03  0.27351855751E+03  0.33134168979E+03  0.96197890031E+03  0.60014850681E+03 0.  0.
         23    2    4    4    0    0 -0.24751718116E+03 -0.86704511361E+02 -0.87374880682E+02  0.29111075109E+03  0.91261560160E+02 0.  0.
         23    2    4    4    0    0 -0.36943132376E+03  0.36022306887E+03  0.41871657047E+03  0.67086814923E+03  0.92197315261E+02 0.  0.
          5    1    3    3  502    0  0.14453528862E+03 -0.28727715327E+02  0.47076253409E+02  0.15477078187E+03  0.47000000000E+01 0. -1.
         -5    1    3    3    0  502  0.47241321630E+03 -0.24479084218E+03  0.24180550900E+03  0.58445598426E+03  0.47000000000E+01 0.  1.
         13    1    5    5    0    0 -0.22016204125E+03 -0.91206605418E+02 -0.10263116666E+03  0.25946700301E+03  0.00000000000E+00 0.  1.
        -13    1    5    5    0    0 -0.27355139908E+02  0.45020940574E+01  0.15256285980E+02  0.31643748075E+02  0.00000000000E+00 0. -1.
          4    1    6    6  503    0 -0.24442548459E+03  0.29502908452E+03  0.30998832679E+03  0.49282729325E+03  0.00000000000E+00 0.  1.
         -4    1    6    6    0  503 -0.12500583917E+03  0.65193984349E+02  0.10872824368E+03  0.17804085597E+03  0.00000000000E+00 0. -1.
<mgrwt>
<rscale>  0 0.73483384E+03</rscale>
<asrwt>0</asrwt>
<pdfrwt beam="1">  1        4 0.17857147E+00 0.73483384E+03</pdfrwt>
<pdfrwt beam="2">  1       -4 0.83152479E-01 0.73483384E+03</pdfrwt>
<totfact> 0.45812659E-01</totfact>
</mgrwt>
</event>
<event>
12    1  0.3203156E-008  0.8016271E+03  0.7818608E-02  0.9557665E-01
          1   -1    0    0  501    0  0.00000000000E+00  0.00000000000E+00  0.17353763771E+04  0.17353763771E+04  0.00000000000E+00 0. -1.
         -1   -1    0    0    0  501 -0.00000000000E+00 -0.00000000000E+00 -0.51020476086E+03  0.51020476086E+03  0.00000000000E+00 0.  1.
         23    2    1    2    0    0  0.70661182721E+03 -0.10162405969E+03  0.10857652103E+04  0.13027636201E+04  0.93162407536E+02 0.  0.
    5000000    2    1    2    0    0 -0.70661182721E+03  0.10162405969E+03  0.13940640592E+03  0.94281751781E+03  0.59986915408E+03 0.  0.
         23    2    4    4    0    0  0.52104084431E+02  0.73098148922E+02 -0.70833996313E+02  0.14977315605E+03  0.96728321855E+02 0.  0.
         23    2    4    4    0    0 -0.75871591164E+03  0.28525910767E+02  0.21024040223E+03  0.79304436176E+03  0.90855769399E+02 0.  0.
          5    1    3    3  502    0  0.51314344574E+03 -0.97511104281E+02  0.85056596364E+03  0.99815287399E+03  0.47000000000E+01 0. -1.
         -5    1    3    3    0  502  0.19346838147E+03 -0.41129554075E+01  0.23519924664E+03  0.30461074612E+03  0.47000000000E+01 0.  1.
         11    1    5    5    0    0  0.36319958433E+02 -0.14477479998E+02 -0.57368630979E+01  0.39517697376E+02  0.00000000000E+00 0.  1.
        -11    1    5    5    0    0  0.15784125997E+02  0.87575628920E+02 -0.65097133215E+02  0.11025545867E+03  0.00000000000E+00 0. -1.
          4    1    6    6  503    0 -0.26901622771E+03  0.10013357243E+02  0.12008087413E+03  0.29477010436E+03  0.00000000000E+00 0.  1.
         -4    1    6    6    0  503 -0.48969968393E+03  0.18512553524E+02  0.90159528100E+02  0.49827425740E+03  0.00000000000E+00 0. -1.
<mgrwt>
<rscale>  0 0.80162711E+03</rscale>
<asrwt>0</asrwt>
<pdfrwt beam="1">  1        1 0.26698098E+00 0.80162711E+03</pdfrwt>
<pdfrwt beam="2">  1       -1 0.78493041E-01 0.80162711E+03</pdfrwt>
<totfact> 0.75795009E+00</totfact>
</mgrwt>
</event>
<event>
12    1  0.3203156E-008  0.5029013E+03  0.7818608E-02  0.1013024E+00
         -1   -1    0    0    0  501 -0.00000000000E+00  0.00000000000E+00  0.23037188800E+03  0.23037188800E+03  0.00000000000E+00 0.  1.
          1   -1    0    0  501    0  0.00000000000E+00 -0.00000000000E+00 -0.15040135673E+04  0.15040135673E+04  0.00000000000E+00 0. -1.
         23    2    1    2    0    0 -0.33761687789E+03  0.22607813713E+03 -0.26528065464E+03  0.49360292179E+03  0.90407623307E+02 0.  0.
    5000000    2    1    2    0    0  0.33761687789E+03 -0.22607813713E+03 -0.10083610247E+04  0.12407825335E+04  0.59804085067E+03 0.  0.
         23    2    4    4    0    0 -0.87591629553E+02 -0.35990987912E+02 -0.62117146226E+01  0.13179744727E+03  0.91456748961E+02 0.  0.
         23    2    4    4    0    0  0.42520850744E+03 -0.19008714922E+03 -0.10021493100E+04  0.11089850862E+04  0.92786220799E+02 0.  0.
          5    1    3    3  502    0 -0.11095805180E+03  0.12598170493E+03 -0.95450508945E+02  0.19317341663E+03  0.47000000000E+01 0. -1.
         -5    1    3    3    0  502 -0.22665882609E+03  0.10009643220E+03 -0.16983014570E+03  0.30042950516E+03  0.47000000000E+01 0.  1.
         13    1    5    5    0    0 -0.76983449804E+02  0.88480466967E+01 -0.25880997704E+02  0.81698014151E+02  0.00000000000E+00 0. -1.
        -13    1    5    5    0    0 -0.10608179750E+02 -0.44839034609E+02  0.19669283081E+02  0.50099433123E+02  0.00000000000E+00 0.  1.
          3    1    6    6  503    0  0.40544346437E+03 -0.17497208789E+03 -0.98285479378E+03  0.10774985754E+04  0.00000000000E+00 0. -1.
         -3    1    6    6    0  503  0.19765043069E+02 -0.15115061329E+02 -0.19294516271E+02  0.31486510836E+02  0.00000000000E+00 0.  1.
<mgrwt>
<rscale>  0 0.50290127E+03</rscale>
<asrwt>0</asrwt>
<pdfrwt beam="1">  1        1 0.23138671E+00 0.50290127E+03</pdfrwt>
<pdfrwt beam="2">  1       -1 0.35441828E-01 0.50290127E+03</pdfrwt>
<totfact> 0.52375219E+01</totfact>
</mgrwt>
</event>
<event>
12    1  0.3203156E-008  0.5164331E+03  0.7818608E-02  0.1009576E+00
          2   -1    0    0  501    0  0.00000000000E+00  0.00000000000E+00  0.89759633983E+03  0.89759633983E+03  0.00000000000E+00 0. -1.
         -2   -1    0    0    0  501 -0.00000000000E+00 -0.00000000000E+00 -0.37389920412E+03  0.37389920412E+03  0.00000000000E+00 0.  1.
         23    2    1    2    0    0  0.24227250625E+02 -0.35679935608E+03 -0.43608857119E+02  0.37174231759E+03  0.91639937220E+02 0.  0.
    5000000    2    1    2    0    0 -0.24227250625E+02  0.35679935608E+03  0.56730599283E+03  0.89975322637E+03  0.59985584826E+03 0.  0.
         23    2    4    4    0    0 -0.26220671240E+03  0.34166484329E+03  0.31745258088E+03  0.54301843586E+03  0.92766671875E+02 0.  0.
         23    2    4    4    0    0  0.23797946178E+03  0.15134512790E+02  0.24985341195E+03  0.35673479051E+03  0.89273207582E+02 0.  0.
          5    1    3    3  502    0 -0.14808022125E+02 -0.20945946624E+03 -0.59820308375E+02  0.21838751065E+03  0.47000000000E+01 0. -1.
         -5    1    3    3    0  502  0.39035272750E+02 -0.14733988984E+03  0.16211451257E+02  0.15335480693E+03  0.47000000000E+01 0.  1.
         13    1    5    5    0    0 -0.11470032866E+03  0.17338216401E+03  0.20735589080E+03  0.29362221585E+03  0.00000000000E+00 0.  1.
        -13    1    5    5    0    0 -0.14750638374E+03  0.16828267928E+03  0.11009669008E+03  0.24939622001E+03  0.00000000000E+00 0. -1.
          1    1    6    6  503    0  0.10853475414E+03  0.19309990287E+01  0.17693268436E+03  0.20757816939E+03  0.00000000000E+00 0. -1.
         -1    1    6    6    0  503  0.12944470764E+03  0.13203513761E+02  0.72920727591E+02  0.14915662112E+03  0.00000000000E+00 0.  1.
<mgrwt>
<rscale>  0 0.51643314E+03</rscale>
<asrwt>0</asrwt>
<pdfrwt beam="1">  1        2 0.13809174E+00 0.51643314E+03</pdfrwt>
<pdfrwt beam="2">  1       -2 0.57522955E-01 0.51643314E+03</pdfrwt>
<totfact> 0.86158824E+01</totfact>
</mgrwt>
</event>
<event>
12    1  0.3203156E-008  0.6129800E+03  0.7818608E-02  0.9878837E-01
         -2   -1    0    0    0  501 -0.00000000000E+00  0.00000000000E+00  0.12930913387E+03  0.12930913387E+03  0.00000000000E+00 0. -1.
          2   -1    0    0  501    0  0.00000000000E+00 -0.00000000000E+00 -0.29849434163E+04  0.29849434163E+04  0.00000000000E+00 0.  1.
         23    2    1    2    0    0 -0.13036420031E+03  0.45087052943E+03 -0.11868821888E+04  0.12798458525E+04  0.95063226490E+02 0.  0.
    5000000    2    1    2    0    0  0.13036420031E+03 -0.45087052943E+03 -0.16687520936E+04  0.18344066976E+04  0.60002943546E+03 0.  0.
         23    2    4    4    0    0  0.35216461602E+03 -0.26447502615E+03 -0.87149163868E+03  0.98093276093E+03  0.93618635622E+02 0.  0.
         23    2    4    4    0    0 -0.22180041571E+03 -0.18639550327E+03 -0.79726045491E+03  0.85347393671E+03  0.94100051102E+02 0.  0.
          5    1    3    3  502    0 -0.40549077343E+02  0.30341149555E+03 -0.75697690387E+03  0.81654080504E+03  0.47000000000E+01 0. -1.
         -5    1    3    3    0  502 -0.89815122965E+02  0.14745903387E+03 -0.42990528496E+03  0.46330504748E+03  0.47000000000E+01 0.  1.
         11    1    5    5    0    0  0.34249978669E+03 -0.27239263714E+03 -0.85121705771E+03  0.95711772107E+03  0.00000000000E+00 0. -1.
        -11    1    5    5    0    0  0.96648293321E+01  0.79176109918E+01 -0.20274580974E+02  0.23815039859E+02  0.00000000000E+00 0.  1.
          2    1    6    6  503    0 -0.22148300899E+03 -0.19094344431E+03 -0.73485261079E+03  0.79089979250E+03  0.00000000000E+00 0. -1.
         -2    1    6    6    0  503 -0.31740671679E+00  0.45479410307E+01 -0.62407844122E+02  0.62574144202E+02  0.00000000000E+00 0.  1.
<mgrwt>
<rscale>  0 0.61297996E+03</rscale>
<asrwt>0</asrwt>
<pdfrwt beam="1">  1        2 0.45922204E+00 0.61297996E+03</pdfrwt>
<pdfrwt beam="2">  1       -2 0.19893714E-01 0.61297996E+03</pdfrwt>
<totfact> 0.41389268E+01</totfact>
</mgrwt>
</event>
<event>
12    1  0.3203156E-008  0.4896176E+03  0.7818608E-02  0.1016525E+00
          1   -1    0    0  501    0  0.00000000000E+00  0.00000000000E+00  0.22841955210E+03  0.22841955210E+03  0.00000000000E+00 0. -1.
         -1   -1    0    0    0  501 -0.00000000000E+00 -0.00000000000E+00 -0.16347279618E+04  0.16347279618E+04  0.00000000000E+00 0.  1.
         23    2    1    2    0    0 -0.24963124797E+03 -0.31543234438E+03 -0.87080451940E+03  0.96357303006E+03  0.91428384008E+02 0.  0.
    5000000    2    1    2    0    0  0.24963124797E+03  0.31543234438E+03 -0.53550389031E+03  0.89957448385E+03  0.60054684381E+03 0.  0.
         23    2    4    4    0    0  0.14398798183E+03 -0.65992909486E+02 -0.44860968696E+03  0.48373627676E+03  0.87535885285E+02 0.  0.
         23    2    4    4    0    0  0.10564326614E+03  0.38142525386E+03 -0.86894203353E+02  0.41583820708E+03  0.93408179142E+02 0.  0.
          5    1    3    3  502    0 -0.12201475092E+03 -0.16159459042E+03 -0.54375129509E+03  0.58024819862E+03  0.47000000000E+01 0. -1.
         -5    1    3    3    0  502 -0.12761649705E+03 -0.15383775395E+03 -0.32705322432E+03  0.38332483144E+03  0.47000000000E+01 0.  1.
         13    1    5    5    0    0  0.85178047748E+02  0.83644938706E+01 -0.19361050085E+03  0.21168441279E+03  0.00000000000E+00 0.  1.
        -13    1    5    5    0    0  0.58809934081E+02 -0.74357403357E+02 -0.25499918610E+03  0.27205186398E+03  0.00000000000E+00 0. -1.
          4    1    6    6  503    0  0.65581371927E+02  0.27336373651E+03 -0.18287235252E+02  0.28171452173E+03  0.00000000000E+00 0. -1.
         -4    1    6    6    0  503  0.40061894212E+02  0.10806151736E+03 -0.68606968101E+02  0.13412368535E+03  0.00000000000E+00 0.  1.
<mgrwt>
<rscale>  0 0.48961763E+03</rscale>
<asrwt>0</asrwt>
<pdfrwt beam="1">  1        1 0.35141469E-01 0.48961763E+03</pdfrwt>
<pdfrwt beam="2">  1       -1 0.25149661E+00 0.48961763E+03</pdfrwt>
<totfact> 0.91860153E+00</totfact>
</mgrwt>
</event>
<event>
12    1  0.3203156E-008  0.1062944E+04  0.7818608E-02  0.9242081E-01
          1   -1    0    0  501    0  0.00000000000E+00  0.00000000000E+00  0.11251381594E+04  0.11251381594E+04  0.00000000000E+00 0. -1.
         -1   -1    0    0    0  501 -0.00000000000E+00 -0.00000000000E+00 -0.11715359476E+04  0.11715359476E+04  0.00000000000E+00 0.  1.
         23    2    1    2    0    0 -0.61274719113E+03  0.82854548282E+03 -0.30078173748E+03  0.10770692027E+04  0.87531002757E+02 0.  0.
    5000000    2    1    2    0    0  0.61274719113E+03 -0.82854548282E+03  0.25438394923E+03  0.12196049043E+04  0.60064814294E+03 0.  0.
         23    2    4    4    0    0  0.57790973760E+03 -0.80719164627E+03  0.56537878024E+02  0.99867354194E+03  0.92813216165E+02 0.  0.
         23    2    4    4    0    0  0.34837453530E+02 -0.21353836549E+02  0.19784607121E+03  0.22093136236E+03  0.89431339457E+02 0.  0.
          5    1    3    3  502    0 -0.35086920073E+03  0.41113747175E+03 -0.13468976426E+03  0.55705173844E+03  0.47000000000E+01 0. -1.
         -5    1    3    3    0  502 -0.26187799040E+03  0.41740801107E+03 -0.16609197322E+03  0.52001746425E+03  0.47000000000E+01 0.  1.
         11    1    5    5    0    0  0.10381933535E+03 -0.21168175371E+03  0.20024494188E+02  0.23661910239E+03  0.00000000000E+00 0.  1.
        -11    1    5    5    0    0  0.47409040225E+03 -0.59550989255E+03  0.36513383836E+02  0.76205443955E+03  0.00000000000E+00 0. -1.
          1    1    6    6  503    0  0.35854486458E+02  0.28481899846E+02  0.69325721294E+02  0.83083201978E+02  0.00000000000E+00 0. -1.
         -1    1    6    6    0  503 -0.10170329282E+01 -0.49835736395E+02  0.12852034991E+03  0.13784816038E+03  0.00000000000E+00 0.  1.
<mgrwt>
<rscale>  0 0.10629443E+04</rscale>
<asrwt>0</asrwt>
<pdfrwt beam="1">  1        1 0.17309818E+00 0.10629443E+04</pdfrwt>
<pdfrwt beam="2">  1       -1 0.18023630E+00 0.10629443E+04</pdfrwt>
<totfact> 0.25062028E+00</totfact>
</mgrwt>
</event>
<event>
12    1  0.3203156E-008  0.5767410E+03  0.7818608E-02  0.9954872E-01
          2   -1    0    0  501    0  0.00000000000E+00  0.00000000000E+00  0.27917560299E+04  0.27917560299E+04  0.00000000000E+00 0.  1.
         -2   -1    0    0    0  501 -0.00000000000E+00 -0.00000000000E+00 -0.12236525983E+03  0.12236525983E+03  0.00000000000E+00 0. -1.
         23    2    1    2    0    0  0.21256975161E+03 -0.36663666356E+03  0.94074091452E+03  0.10358172566E+04  0.91189793500E+02 0.  0.
    5000000    2    1    2    0    0 -0.21256975161E+03  0.36663666356E+03  0.17286498556E+04  0.18783040332E+04  0.60015612587E+03 0.  0.
         23    2    4    4    0    0  0.16815541746E+03  0.27313153576E+03  0.78365993994E+03  0.85174263662E+03  0.92008354692E+02 0.  0.
         23    2    4    4    0    0 -0.38072516908E+03  0.93505127804E+02  0.94498991563E+03  0.10265613965E+04  0.84424504127E+02 0.  0.
          5    1    3    3  502    0  0.59703263101E+02 -0.14681085456E+03  0.26313239152E+03  0.30721108721E+03  0.47000000000E+01 0. -1.
         -5    1    3    3    0  502  0.15286648851E+03 -0.21982580900E+03  0.67760852300E+03  0.72860616938E+03  0.47000000000E+01 0.  1.
         13    1    5    5    0    0  0.74208211037E+02  0.18567603911E+03  0.54888827794E+03  0.58417530908E+03  0.00000000000E+00 0.  1.
        -13    1    5    5    0    0  0.93947206428E+02  0.87455496652E+02  0.23477166200E+03  0.26756732754E+03  0.00000000000E+00 0. -1.
          2    1    6    6  503    0 -0.19184732284E+03  0.84775214393E+02  0.55037405017E+03  0.58898542202E+03  0.00000000000E+00 0.  1.
         -2    1    6    6    0  503 -0.18887784624E+03  0.87299134109E+01  0.39461586546E+03  0.43757597450E+03  0.00000000000E+00 0. -1.
<mgrwt>
<rscale>  0 0.57674102E+03</rscale>
<asrwt>0</asrwt>
<pdfrwt beam="1">  1        2 0.42950088E+00 0.57674102E+03</pdfrwt>
<pdfrwt beam="2">  1       -2 0.18825427E-01 0.57674102E+03</pdfrwt>
<totfact> 0.59767458E+01</totfact>
</mgrwt>
</event>
<event>
12    1  0.3203156E-008  0.1690113E+04  0.7818608E-02  0.8767024E-01
         -1   -1    0    0    0  501 -0.00000000000E+00  0.00000000000E+00  0.10073168230E+04  0.10073168230E+04  0.00000000000E+00 0.  1.
          1   -1    0    0  501    0  0.00000000000E+00 -0.00000000000E+00 -0.30044747686E+04  0.30044747686E+04  0.00000000000E+00 0. -1.
         23    2    1    2    0    0 -0.94788822184E+03 -0.13864713243E+04 -0.11514454345E+04  0.20379524186E+04  0.81416567824E+02 0.  0.
    5000000    2    1    2    0    0  0.94788822184E+03  0.13864713243E+04 -0.84571251109E+03  0.19738391731E+04  0.60001384625E+03 0.  0.
         23    2    4    4    0    0  0.63768595422E+03  0.10982305566E+04 -0.86760950352E+03  0.15406015860E+04  0.89181077580E+02 0.  0.
         23    2    4    4    0    0  0.31020226762E+03  0.28824076765E+03  0.21896992429E+02  0.43323758706E+03  0.88922109676E+02 0.  0.
          5    1    3    3  502    0 -0.35516630011E+03 -0.46867847997E+03 -0.37187294235E+03  0.69578315126E+03  0.47000000000E+01 0. -1.
         -5    1    3    3    0  502 -0.59272192172E+03 -0.91779284431E+03 -0.77957249216E+03  0.13421692673E+04  0.47000000000E+01 0.  1.
         11    1    5    5    0    0  0.40371371877E+03  0.65109937094E+03 -0.56821082505E+03  0.95382320126E+03  0.00000000000E+00 0.  1.
        -11    1    5    5    0    0  0.23397223545E+03  0.44713118569E+03 -0.29939867847E+03  0.58677838478E+03  0.00000000000E+00 0. -1.
          1    1    6    6  503    0  0.30716944327E+03  0.29213804319E+03  0.14265434722E+02  0.42414762263E+03  0.00000000000E+00 0. -1.
         -1    1    6    6    0  503  0.30328243457E+01 -0.38972755387E+01  0.76315577073E+01  0.90899644211E+01  0.00000000000E+00 0.  1.
<mgrwt>
<rscale>  0 0.16901126E+04</rscale>
<asrwt>0</asrwt>
<pdfrwt beam="1">  1        1 0.46222687E+00 0.16901126E+04</pdfrwt>
<pdfrwt beam="2">  1       -1 0.15497182E+00 0.16901126E+04</pdfrwt>
<totfact> 0.17627395E-01</totfact>
</mgrwt>
</event>
<event>
12    1  0.3203156E-008  0.7052147E+03  0.7818608E-02  0.9708356E-01
         -2   -1    0    0    0  501 -0.00000000000E+00  0.00000000000E+00  0.53937994168E+03  0.53937994168E+03  0.00000000000E+00 0.  1.
          2   -1    0    0  501    0  0.00000000000E+00 -0.00000000000E+00 -0.12430426273E+04  0.12430426273E+04  0.00000000000E+00 0. -1.
         23    2    1    2    0    0 -0.43500954834E+03 -0.55212091562E+03 -0.22715023577E+03  0.74244548703E+03  0.74547025433E+02 0.  0.
    5000000    2    1    2    0    0  0.43500954834E+03  0.55212091562E+03 -0.47651244985E+03  0.10399770819E+04  0.60034773548E+03 0.  0.
         23    2    4    4    0    0  0.23811522463E+03  0.25619985204E+03  0.84088348816E+02  0.37002373952E+03  0.86657331011E+02 0.  0.
         23    2    4    4    0    0  0.19689432370E+03  0.29592106358E+03 -0.56060079867E+03  0.66995334242E+03  0.90705980923E+02 0.  0.
          5    1    3    3  502    0 -0.33303543915E+03 -0.40621439510E+03 -0.13710592315E+03  0.54290225887E+03  0.47000000000E+01 0. -1.
         -5    1    3    3    0  502 -0.10197410919E+03 -0.14590652051E+03 -0.90044312618E+02  0.19954322817E+03  0.47000000000E+01 0.  1.
         13    1    5    5    0    0  0.81304151949E+02  0.70988567868E+02 -0.12858236249E+02  0.10869717628E+03  0.00000000000E+00 0. -1.
        -13    1    5    5    0    0  0.15681107268E+03  0.18521128417E+03  0.96946585065E+02  0.26132656324E+03  0.00000000000E+00 0.  1.
          1    1    6    6  503    0  0.50295029934E+02  0.97850985302E+02 -0.10554433575E+03  0.15245987068E+03  0.00000000000E+00 0. -1.
         -1    1    6    6    0  503  0.14659929377E+03  0.19807007828E+03 -0.45505646292E+03  0.51749347174E+03  0.00000000000E+00 0.  1.
<mgrwt>
<rscale>  0 0.70521472E+03</rscale>
<asrwt>0</asrwt>
<pdfrwt beam="1">  1        2 0.19123733E+00 0.70521472E+03</pdfrwt>
<pdfrwt beam="2">  1       -2 0.82981529E-01 0.70521472E+03</pdfrwt>
<totfact> 0.23286641E+01</totfact>
</mgrwt>
</event>
<event>
12    1  0.3203156E-008  0.3001954E+03  0.7818608E-02  0.1085143E+00
          2   -1    0    0  501    0  0.00000000000E+00  0.00000000000E+00  0.14712903266E+03  0.14712903266E+03  0.00000000000E+00 0. -1.
         -2   -1    0    0    0  501 -0.00000000000E+00 -0.00000000000E+00 -0.17659875655E+04  0.17659875655E+04  0.00000000000E+00 0.  1.
         23    2    1    2    0    0 -0.22427492946E+03 -0.13186215111E+03 -0.90084037623E+03  0.94175014398E+03  0.87710201008E+02 0.  0.
    5000000    2    1    2    0    0  0.22427492946E+03  0.13186215111E+03 -0.71801815662E+03  0.97136645418E+03  0.60026314579E+03 0.  0.
         23    2    4    4    0    0  0.13914688419E+03 -0.24739668342E+02 -0.74842366251E+03  0.76744019938E+03  0.94088120668E+02 0.  0.
         23    2    4    4    0    0  0.85128045273E+02  0.15660181945E+03  0.30405505888E+02  0.20392625481E+03  0.94289493919E+02 0.  0.
          5    1    3    3  502    0 -0.29488754982E+02 -0.33038500672E+02 -0.72513155829E+02  0.85096280561E+02  0.47000000000E+01 0. -1.
         -5    1    3    3    0  502 -0.19478617448E+03 -0.98823650436E+02 -0.82832722040E+03  0.85665386342E+03  0.47000000000E+01 0.  1.
         11    1    5    5    0    0  0.11011760576E+03 -0.46546998786E+02 -0.40999701577E+03  0.42707149651E+03  0.00000000000E+00 0. -1.
        -11    1    5    5    0    0  0.29029278429E+02  0.21807330444E+02 -0.33842664674E+03  0.34036870287E+03  0.00000000000E+00 0.  1.
          2    1    6    6  503    0  0.59233804815E+02  0.13632614467E+03 -0.13296051511E+02  0.14923218935E+03  0.00000000000E+00 0. -1.
         -2    1    6    6    0  503  0.25894240458E+02  0.20275674782E+02  0.43701557399E+02  0.54694065454E+02  0.00000000000E+00 0.  1.
<mgrwt>
<rscale>  0 0.30019536E+03</rscale>
<asrwt>0</asrwt>
<pdfrwt beam="1">  1        2 0.22635235E-01 0.30019536E+03</pdfrwt>
<pdfrwt beam="2">  1       -2 0.27169040E+00 0.30019536E+03</pdfrwt>
<totfact> 0.12844100E+01</totfact>
</mgrwt>
</event>
<event>
12    1  0.3203156E-008  0.8273498E+03  0.7818608E-02  0.9521252E-01
         -1   -1    0    0    0  501 -0.00000000000E+00  0.00000000000E+00  0.53611471346E+03  0.53611471346E+03  0.00000000000E+00 0.  1.
          1   -1    0    0  501    0  0.00000000000E+00 -0.00000000000E+00 -0.16910003759E+04  0.16910003759E+04  0.00000000000E+00 0. -1.
         23    2    1    2    0    0  0.67619608010E+03  0.44316539216E+03 -0.84710684989E+03  0.11746249409E+04  0.92287772885E+02 0.  0.
    5000000    2    1    2    0    0 -0.67619608010E+03 -0.44316539216E+03 -0.30777881258E+03  0.10524901485E+04  0.59947561394E+03 0.  0.
         23    2    4    4    0    0 -0.11687472284E+03 -0.10215083449E+03 -0.34423754589E+03  0.39034809378E+03  0.98882012966E+02 0.  0.
         23    2    4    4    0    0 -0.55932135726E+03 -0.34101455767E+03  0.36458733312E+02  0.66214205474E+03  0.89283549398E+02 0.  0.
          5    1    3    3  502    0  0.41650084394E+03  0.22054585488E+03 -0.47429569972E+03  0.66864933102E+03  0.47000000000E+01 0. -1.
         -5    1    3    3    0  502  0.25969523616E+03  0.22261953728E+03 -0.37281115017E+03  0.50597560984E+03  0.47000000000E+01 0.  1.
         13    1    5    5    0    0 -0.84233252754E+00  0.16289558865E+02 -0.17345704154E+02  0.23810348689E+02  0.00000000000E+00 0. -1.
        -13    1    5    5    0    0 -0.11603239031E+03 -0.11844039335E+03 -0.32689184174E+03  0.36653774509E+03  0.00000000000E+00 0.  1.
          1    1    6    6  503    0 -0.35862859445E+03 -0.17665489210E+03  0.46946139196E+02  0.40252373798E+03  0.00000000000E+00 0. -1.
         -1    1    6    6    0  503 -0.20069276281E+03 -0.16435966558E+03 -0.10487405884E+02  0.25961831676E+03  0.00000000000E+00 0.  1.
<mgrwt>
<rscale>  0 0.82734976E+03</rscale>
<asrwt>0</asrwt>
<pdfrwt beam="1">  1        1 0.26015390E+00 0.82734976E+03</pdfrwt>
<pdfrwt beam="2">  1       -1 0.82479188E-01 0.82734976E+03</pdfrwt>
<totfact> 0.72794557E+00</totfact>
</mgrwt>
</event>
<event>
12    1  0.3203156E-008  0.9869733E+03  0.7818608E-02  0.9322949E-01
         -2   -1    0    0    0  501 -0.00000000000E+00  0.00000000000E+00  0.57903801854E+03  0.57903801854E+03  0.00000000000E+00 0.  1.
          2   -1    0    0  501    0  0.00000000000E+00 -0.00000000000E+00 -0.19560230685E+04  0.19560230685E+04  0.00000000000E+00 0. -1.
         23    2    1    2    0    0  0.18827905046E+03  0.91796729509E+03 -0.96598379469E+03  0.13489038452E+04  0.91125936096E+02 0.  0.
    5000000    2    1    2    0    0 -0.18827905046E+03 -0.91796729509E+03 -0.41100125528E+03  0.11861572419E+04  0.59994500989E+03 0.  0.
         23    2    4    4    0    0 -0.32449691639E+03 -0.74698654423E+03 -0.46596565537E+03  0.94271642612E+03  0.91121468889E+02 0.  0.
         23    2    4    4    0    0  0.13621786593E+03 -0.17098075087E+03  0.54964400087E+02  0.24344081575E+03  0.91938138596E+02 0.  0.
          5    1    3    3  502    0  0.67762472835E+02  0.21551358521E+03 -0.18952771070E+03  0.29492490783E+03  0.47000000000E+01 0. -1.
         -5    1    3    3    0  502  0.12051657762E+03  0.70245370988E+03 -0.77645608398E+03  0.10539789373E+04  0.47000000000E+01 0.  1.
         13    1    5    5    0    0 -0.21038988738E+03 -0.41770446605E+03 -0.22482545135E+03  0.51892909848E+03  0.00000000000E+00 0. -1.
        -13    1    5    5    0    0 -0.11410702900E+03 -0.32928207818E+03 -0.24114020402E+03  0.42378732764E+03  0.00000000000E+00 0.  1.
          1    1    6    6  503    0  0.75471377827E+02 -0.83463417537E+02  0.74742154639E+02  0.13508686323E+03  0.00000000000E+00 0. -1.
         -1    1    6    6    0  503  0.60746488105E+02 -0.87517333329E+02 -0.19777754552E+02  0.10835395251E+03  0.00000000000E+00 0.  1.
<mgrwt>
<rscale>  0 0.98697327E+03</rscale>
<asrwt>0</asrwt>
<pdfrwt beam="1">  1        2 0.30092662E+00 0.98697327E+03</pdfrwt>
<pdfrwt beam="2">  1       -2 0.89082774E-01 0.98697327E+03</pdfrwt>
<totfact> 0.76664067E+00</totfact>
</mgrwt>
</event>
<event>
12    1  0.3203156E-008  0.1962822E+04  0.7818608E-02  0.8624203E-01
          1   -1    0    0  501    0  0.00000000000E+00  0.00000000000E+00  0.30644203504E+04  0.30644203504E+04  0.00000000000E+00 0. -1.
         -1   -1    0    0    0  501 -0.00000000000E+00 -0.00000000000E+00 -0.15784605109E+04  0.15784605109E+04  0.00000000000E+00 0.  1.
         23    2    1    2    0    0  0.54458365516E+03 -0.18653485069E+04 -0.26004220096E+03  0.19624672365E+04  0.86944225024E+02 0.  0.
    5000000    2    1    2    0    0 -0.54458365516E+03  0.18653485069E+04  0.17460020405E+04  0.26804136248E+04  0.59999805419E+03 0.  0.
         23    2    4    4    0    0 -0.52865875723E+03  0.18407704614E+04  0.15543317109E+04  0.24682360277E+04  0.91247179737E+02 0.  0.
         23    2    4    4    0    0 -0.15924897928E+02  0.24578045457E+02  0.19167032964E+03  0.21217759711E+03  0.86163418900E+02 0.  0.
          5    1    3    3  502    0  0.20454480654E+03 -0.60922211391E+03 -0.11783862272E+03  0.65337446611E+03  0.47000000000E+01 0. -1.
         -5    1    3    3    0  502  0.34003884862E+03 -0.12561263930E+04 -0.14220357823E+03  0.13090927703E+04  0.47000000000E+01 0.  1.
         11    1    5    5    0    0 -0.85768914690E+02  0.40877709722E+03  0.36770003704E+03  0.55646953122E+03  0.00000000000E+00 0. -1.
        -11    1    5    5    0    0 -0.44288984254E+03  0.14319933642E+04  0.11866316738E+04  0.19117664965E+04  0.00000000000E+00 0.  1.
          1    1    6    6  503    0  0.20064010070E+02  0.20724479126E+02  0.16343791284E+02  0.33154005017E+02  0.00000000000E+00 0. -1.
         -1    1    6    6    0  503 -0.35988907998E+02  0.38535663309E+01  0.17532653836E+03  0.17902359209E+03  0.00000000000E+00 0.  1.
<mgrwt>
<rscale>  0 0.19628217E+04</rscale>
<asrwt>0</asrwt>
<pdfrwt beam="1">  1        1 0.47144928E+00 0.19628217E+04</pdfrwt>
<pdfrwt beam="2">  1       -1 0.24284008E+00 0.19628217E+04</pdfrwt>
<totfact> 0.37200573E-02</totfact>
</mgrwt>
</event>
<event>
12    1  0.5415948E-008  0.1701553E+04  0.7818608E-02  0.8760479E-01
         -2   -1    0    0    0  501 -0.00000000000E+00  0.00000000000E+00  0.16623704040E+04  0.16623704040E+04  0.00000000000E+00 0.  1.
          2   -1    0    0  501    0  0.00000000000E+00 -0.00000000000E+00 -0.17591496219E+04  0.17591496219E+04  0.00000000000E+00 0. -1.
         23    2    1    2    0    0  0.51929535042E+03 -0.15724120939E+04 -0.75202282022E+02  0.16601797622E+04  0.91618805743E+02 0.  0.
    5000000    2    1    2    0    0 -0.51929535042E+03  0.15724120939E+04 -0.21576935943E+02  0.17613402637E+04  0.59975537211E+03 0.  0.
         23    2    4    4    0    0 -0.41365982376E+03  0.15595319533E+04  0.14719287782E+02  0.16161820374E+04  0.92592427664E+02 0.  0.
         23    2    4    4    0    0 -0.10563552666E+03  0.12880140657E+02 -0.36296223725E+02  0.14515822629E+03  0.91808127557E+02 0.  0.
          5    1    3    3  502    0  0.30285733845E+03 -0.10459414869E+04 -0.64756024429E+02  0.10908398573E+04  0.47000000000E+01 0. -1.
         -5    1    3    3    0  502  0.21643801196E+03 -0.52647060698E+03 -0.10446257593E+02  0.56933990492E+03  0.47000000000E+01 0.  1.
         11    1    5    5    0    0 -0.10854167166E+03  0.55869387335E+03 -0.16887344832E+02  0.56939030640E+03  0.00000000000E+00 0.  1.
        -11    1    5    5    0    0 -0.30511815210E+03  0.10008380799E+04  0.31606632614E+02  0.10467917310E+04  0.00000000000E+00 0. -1.
          1    1    6    6  503    0 -0.54606649834E+02 -0.30472262134E+02  0.10580106790E+02  0.63422264430E+02  0.00000000000E+00 0. -1.
         -1    1    6    6    0  503 -0.51028876825E+02  0.43352402792E+02 -0.46876330515E+02  0.81735961855E+02  0.00000000000E+00 0.  1.
<mgrwt>
<rscale>  0 0.17015530E+04</rscale>
<asrwt>0</asrwt>
<pdfrwt beam="1">  1        2 0.27063840E+00 0.17015530E+04</pdfrwt>
<pdfrwt beam="2">  1       -2 0.25574929E+00 0.17015530E+04</pdfrwt>
<totfact> 0.49560023E-01</totfact>
</mgrwt>
</event>
<event>
12    1  0.3706673E-008  0.1285021E+04  0.7818608E-02  0.9041528E-01
         -2   -1    0    0    0  501 -0.00000000000E+00  0.00000000000E+00  0.95312802584E+03  0.95312802584E+03  0.00000000000E+00 0.  1.
          2   -1    0    0  501    0  0.00000000000E+00 -0.00000000000E+00 -0.18621688332E+04  0.18621688332E+04  0.00000000000E+00 0. -1.
         23    2    1    2    0    0 -0.30302478308E+03 -0.12232763651E+04 -0.34364434562E+03  0.13093334601E+04  0.89630290748E+02 0.  0.
    5000000    2    1    2    0    0  0.30302478308E+03  0.12232763651E+04 -0.56539646178E+03  0.15059633989E+04  0.60001959584E+03 0.  0.
         23    2    4    4    0    0  0.47800887190E+02  0.85382562122E+03 -0.59677457697E+03  0.10467059526E+04  0.90279228670E+02 0.  0.
         23    2    4    4    0    0  0.25522389589E+03  0.36945074387E+03  0.31378115188E+02  0.45925744638E+03  0.91102836191E+02 0.  0.
          5    1    3    3  502    0 -0.26632560775E+03 -0.97039731373E+03 -0.30003386513E+03  0.10500679435E+04  0.47000000000E+01 0. -1.
         -5    1    3    3    0  502 -0.36699175335E+02 -0.25287905136E+03 -0.43610480484E+02  0.25926551660E+03  0.47000000000E+01 0.  1.
         13    1    5    5    0    0 -0.19445565726E+02  0.29077458217E+03 -0.17424555305E+03  0.33954307594E+03  0.00000000000E+00 0. -1.
        -13    1    5    5    0    0  0.67246452916E+02  0.56305103905E+03 -0.42252902392E+03  0.70716287661E+03  0.00000000000E+00 0.  1.
          4    1    6    6  503    0  0.13021363686E+03  0.20993332380E+03  0.60950505976E+02  0.25444558523E+03  0.00000000000E+00 0. -1.
         -4    1    6    6    0  503  0.12501025904E+03  0.15951742007E+03 -0.29572390788E+02  0.20481186115E+03  0.00000000000E+00 0.  1.
<mgrwt>
<rscale>  0 0.12850213E+04</rscale>
<asrwt>0</asrwt>
<pdfrwt beam="1">  1        2 0.28648751E+00 0.12850213E+04</pdfrwt>
<pdfrwt beam="2">  1       -2 0.14663508E+00 0.12850213E+04</pdfrwt>
<totfact> 0.24452324E+00</totfact>
</mgrwt>
</event>
<event>
12    1  0.3203156E-008  0.5554300E+03  0.7818608E-02  0.1000245E+00
          2   -1    0    0  501    0  0.00000000000E+00  0.00000000000E+00  0.24803786085E+04  0.24803786085E+04  0.00000000000E+00 0. -1.
         -2   -1    0    0    0  501 -0.00000000000E+00 -0.00000000000E+00 -0.15781912833E+03  0.15781912833E+03  0.00000000000E+00 0.  1.
         23    2    1    2    0    0  0.43805737689E+03  0.18590776500E+03  0.85622779230E+03  0.98393839718E+03  0.92481212243E+02 0.  0.
    5000000    2    1    2    0    0 -0.43805737689E+03 -0.18590776500E+03  0.14663316879E+04  0.16542593397E+04  0.59999115112E+03 0.  0.
         23    2    4    4    0    0  0.28169965561E+01  0.79053267471E+02  0.79131657120E+03  0.80049064090E+03  0.91356421491E+02 0.  0.
         23    2    4    4    0    0 -0.44087437344E+03 -0.26496103247E+03  0.67501511670E+03  0.85376869878E+03  0.93279265349E+02 0.  0.
          5    1    3    3  502    0  0.15925146910E+03  0.55070508690E+02  0.22079512736E+03  0.27778835397E+03  0.47000000000E+01 0. -1.
         -5    1    3    3    0  502  0.27880590779E+03  0.13083725631E+03  0.63543266494E+03  0.70615004322E+03  0.47000000000E+01 0.  1.
         13    1    5    5    0    0 -0.36698576581E+02  0.69495294078E+02  0.45659765227E+03  0.46331177136E+03  0.00000000000E+00 0.  1.
        -13    1    5    5    0    0  0.39515573137E+02  0.95579733929E+01  0.33471891893E+03  0.33717886954E+03  0.00000000000E+00 0. -1.
          3    1    6    6  503    0 -0.27869013629E+03 -0.15268861462E+03  0.34301136051E+03  0.46758827887E+03  0.00000000000E+00 0. -1.
         -3    1    6    6    0  503 -0.16218423716E+03 -0.11227241785E+03  0.33200375619E+03  0.38618041990E+03  0.00000000000E+00 0.  1.
<mgrwt>
<rscale>  0 0.55542998E+03</rscale>
<asrwt>0</asrwt>
<pdfrwt beam="1">  1        2 0.38159668E+00 0.55542998E+03</pdfrwt>
<pdfrwt beam="2">  1       -2 0.24279868E-01 0.55542998E+03</pdfrwt>
<totfact> 0.57825808E+01</totfact>
</mgrwt>
</event>
<event>
12    1  0.3203156E-008  0.6366557E+03  0.7818608E-02  0.9832146E-01
          2   -1    0    0  501    0  0.00000000000E+00  0.00000000000E+00  0.77655992497E+03  0.77655992497E+03  0.00000000000E+00 0.  1.
         -2   -1    0    0    0  501 -0.00000000000E+00 -0.00000000000E+00 -0.15658150604E+04  0.15658150604E+04  0.00000000000E+00 0. -1.
         23    2    1    2    0    0 -0.68147740238E+02  0.53189075034E+03  0.55391303600E+03  0.77660739824E+03  0.93528149585E+02 0.  0.
    5000000    2    1    2    0    0  0.68147740238E+02 -0.53189075034E+03 -0.13431681714E+04  0.15657675871E+04  0.59997959578E+03 0.  0.
         23    2    4    4    0    0  0.23501175612E+03 -0.94856972014E+02 -0.79451485166E+03  0.83891544057E+03  0.91087300227E+02 0.  0.
         23    2    4    4    0    0 -0.16686401588E+03 -0.43703377833E+03 -0.54865331972E+03  0.72685214651E+03  0.91931792417E+02 0.  0.
          5    1    3    3  502    0  0.16628803382E+02  0.62217972511E+02  0.92040335660E+02  0.11243267583E+03  0.47000000000E+01 0. -1.
         -5    1    3    3    0  502 -0.84776543620E+02  0.46967277783E+03  0.46187270034E+03  0.66417472242E+03  0.47000000000E+01 0.  1.
         13    1    5    5    0    0  0.42442028381E+02 -0.50129894758E+02 -0.13053458393E+03  0.14612874366E+03  0.00000000000E+00 0.  1.
        -13    1    5    5    0    0  0.19256972774E+03 -0.44727077256E+02 -0.66398026773E+03  0.69278669691E+03  0.00000000000E+00 0. -1.
          2    1    6    6  503    0 -0.14409020652E+03 -0.36072573029E+03 -0.50137459105E+03  0.63424090113E+03  0.00000000000E+00 0. -1.
         -2    1    6    6    0  503 -0.22773809361E+02 -0.76308048033E+02 -0.47278728668E+02  0.92611245385E+02  0.00000000000E+00 0.  1.
<mgrwt>
<rscale>  0 0.63665566E+03</rscale>
<asrwt>0</asrwt>
<pdfrwt beam="1">  1        2 0.11947076E+00 0.63665566E+03</pdfrwt>
<pdfrwt beam="2">  1       -2 0.24089462E+00 0.63665566E+03</pdfrwt>
<totfact> 0.27486168E+00</totfact>
</mgrwt>
</event>
<event>
12    1  0.3203156E-008  0.8025539E+03  0.7818608E-02  0.9556328E-01
          2   -1    0    0  501    0  0.00000000000E+00  0.00000000000E+00  0.22178973268E+04  0.22178973268E+04  0.00000000000E+00 0. -1.
         -2   -1    0    0    0  501 -0.00000000000E+00 -0.00000000000E+00 -0.63309987566E+03  0.63309987566E+03  0.00000000000E+00 0.  1.
         23    2    1    2    0    0  0.15144448096E+03  0.68555048414E+03  0.17724800115E+04  0.19086289617E+04  0.90907785020E+02 0.  0.
    5000000    2    1    2    0    0 -0.15144448096E+03 -0.68555048414E+03 -0.18768256033E+03  0.94236824072E+03  0.59993187993E+03 0.  0.
         23    2    4    4    0    0 -0.32925275846E+03 -0.62070406125E+03 -0.10610615350E+03  0.71662445477E+03  0.92796458740E+02 0.  0.
         23    2    4    4    0    0  0.17780827750E+03 -0.64846422890E+02 -0.81576406835E+02  0.22574378596E+03  0.92112456464E+02 0.  0.
          5    1    3    3  502    0  0.16649346625E+02  0.11825602489E+03  0.39847833881E+03  0.41601534186E+03  0.47000000000E+01 0. -1.
         -5    1    3    3    0  502  0.13479513433E+03  0.56729445925E+03  0.13740016727E+04  0.14926136199E+04  0.47000000000E+01 0.  1.
         11    1    5    5    0    0 -0.17158629594E+03 -0.22923857453E+03 -0.54098420860E+02  0.29140833919E+03  0.00000000000E+00 0. -1.
        -11    1    5    5    0    0 -0.15766646252E+03 -0.39146548672E+03 -0.52007732636E+02  0.42521611558E+03  0.00000000000E+00 0.  1.
          4    1    6    6  503    0  0.32445595172E+02  0.50301651784E+01  0.16740101178E+02  0.36854446071E+02  0.00000000000E+00 0. -1.
         -4    1    6    6    0  503  0.14536268233E+03 -0.69876588068E+02 -0.98316508013E+02  0.18888933989E+03  0.00000000000E+00 0.  1.
<mgrwt>
<rscale>  0 0.80255393E+03</rscale>
<asrwt>0</asrwt>
<pdfrwt beam="1">  1        2 0.34121497E+00 0.80255393E+03</pdfrwt>
<pdfrwt beam="2">  1       -2 0.97399982E-01 0.80255393E+03</pdfrwt>
<totfact> 0.45799907E+00</totfact>
</mgrwt>
</event>
<event>
12    1  0.3203156E-008  0.7140988E+03  0.7818608E-02  0.9693421E-01
          2   -1    0    0  501    0  0.00000000000E+00  0.00000000000E+00  0.97373168890E+03  0.97373168890E+03  0.00000000000E+00 0. -1.
         -2   -1    0    0    0  501 -0.00000000000E+00 -0.00000000000E+00 -0.13265216888E+04  0.13265216888E+04  0.00000000000E+00 0.  1.
         23    2    1    2    0    0 -0.13974703962E+03  0.59513990499E+03  0.70569926817E+03  0.93841444266E+03  0.94283972697E+02 0.  0.
    5000000    2    1    2    0    0  0.13974703962E+03 -0.59513990499E+03 -0.10584892681E+04  0.13618389350E+04  0.60040404130E+03 0.  0.
         23    2    4    4    0    0  0.33212694151E+03 -0.30112799285E+03 -0.77797903988E+03  0.90274394300E+03  0.93321309387E+02 0.  0.
         23    2    4    4    0    0 -0.19237990189E+03 -0.29401191214E+03 -0.28051022819E+03  0.45909499204E+03  0.92893446870E+02 0.  0.
          5    1    3    3  502    0 -0.10464029034E+03  0.28551874306E+03  0.39308061796E+03  0.49699598109E+03  0.47000000000E+01 0. -1.
         -5    1    3    3    0  502 -0.35106749276E+02  0.30962116192E+03  0.31261865020E+03  0.44141846157E+03  0.47000000000E+01 0.  1.
         11    1    5    5    0    0  0.14434258605E+03 -0.18868812963E+03 -0.44110141739E+03  0.50100743791E+03  0.00000000000E+00 0. -1.
        -11    1    5    5    0    0  0.18778435546E+03 -0.11243986321E+03 -0.33687762249E+03  0.40173650510E+03  0.00000000000E+00 0.  1.
          1    1    6    6  503    0 -0.12860043856E+03 -0.24054998181E+03 -0.17247824331E+03  0.32272451250E+03  0.00000000000E+00 0. -1.
         -1    1    6    6    0  503 -0.63779463324E+02 -0.53461930327E+02 -0.10803198488E+03  0.13637047955E+03  0.00000000000E+00 0.  1.
<mgrwt>
<rscale>  0 0.71409881E+03</rscale>
<asrwt>0</asrwt>
<pdfrwt beam="1">  1        2 0.14980488E+00 0.71409881E+03</pdfrwt>
<pdfrwt beam="2">  1       -2 0.20408026E+00 0.71409881E+03</pdfrwt>
<totfact> 0.33747835E+00</totfact>
</mgrwt>
</event>
<event>
12    1  0.3203156E-008  0.1169281E+04  0.7818608E-02  0.9140178E-01
          2   -1    0    0  501    0  0.00000000000E+00  0.00000000000E+00  0.13581414626E+04  0.13581414626E+04  0.00000000000E+00 0.  1.
         -2   -1    0    0    0  501 -0.00000000000E+00 -0.00000000000E+00 -0.11332665109E+04  0.11332665109E+04  0.00000000000E+00 0. -1.
         23    2    1    2    0    0 -0.17816851876E+03 -0.10939844023E+04 -0.26018154712E+03  0.11412465152E+04  0.78760887582E+02 0.  0.
    5000000    2    1    2    0    0  0.17816851876E+03  0.10939844023E+04  0.48505649891E+03  0.13501614583E+04  0.59925809358E+03 0.  0.
         23    2    4    4    0    0  0.12843056649E+03  0.11291802528E+04  0.39111345557E+03  0.12054488349E+04  0.92707629974E+02 0.  0.
         23    2    4    4    0    0  0.49737952275E+02 -0.35195850475E+02  0.93943043341E+02  0.14471262342E+03  0.91672439684E+02 0.  0.
          5    1    3    3  502    0 -0.45500070575E+02 -0.18964474590E+03 -0.19481646067E+02  0.19605359116E+03  0.47000000000E+01 0. -1.
         -5    1    3    3    0  502 -0.13266844819E+03 -0.90433965642E+03 -0.24069990105E+03  0.94519292406E+03  0.47000000000E+01 0.  1.
         11    1    5    5    0    0  0.10211074790E+03  0.10763404635E+04  0.36890373684E+03  0.11423770679E+04  0.00000000000E+00 0.  1.
        -11    1    5    5    0    0  0.26319818592E+02  0.52839789311E+02  0.22209718727E+02  0.63071766988E+02  0.00000000000E+00 0. -1.
          3    1    6    6  503    0  0.55654270084E+02 -0.21759228157E+01  0.96125805855E+02  0.11109591788E+03  0.00000000000E+00 0. -1.
         -3    1    6    6    0  503 -0.59163178091E+01 -0.33019927659E+02 -0.21827625138E+01  0.33616705538E+02  0.00000000000E+00 0.  1.
<mgrwt>
<rscale>  0 0.11692811E+04</rscale>
<asrwt>0</asrwt>
<pdfrwt beam="1">  1        2 0.20894484E+00 0.11692811E+04</pdfrwt>
<pdfrwt beam="2">  1       -2 0.17434869E+00 0.11692811E+04</pdfrwt>
<totfact> 0.29576526E+00</totfact>
</mgrwt>
</event>
<event>
12    1  0.3203156E-008  0.7040195E+03  0.7818608E-02  0.9710383E-01
         -2   -1    0    0    0  501 -0.00000000000E+00  0.00000000000E+00  0.11280532253E+04  0.11280532253E+04  0.00000000000E+00 0.  1.
          2   -1    0    0  501    0  0.00000000000E+00 -0.00000000000E+00 -0.59588732422E+03  0.59588732422E+03  0.00000000000E+00 0. -1.
         23    2    1    2    0    0  0.50668836467E+03  0.33028215029E+03 -0.15279189666E+03  0.63086095723E+03  0.93919039496E+02 0.  0.
    5000000    2    1    2    0    0 -0.50668836467E+03 -0.33028215029E+03  0.68495779777E+03  0.10930795923E+04  0.59986366181E+03 0.  0.
         23    2    4    4    0    0 -0.14971862965E+03  0.13215045477E+03  0.49506498202E+02  0.22486055170E+03  0.90730169102E+02 0.  0.
         23    2    4    4    0    0 -0.35696973502E+03 -0.46243260506E+03  0.63545129957E+03  0.86821904063E+03  0.93459309088E+02 0.  0.
          5    1    3    3  502    0  0.72427867564E+02  0.23692384392E+02 -0.44398160055E+02  0.88319939393E+02  0.47000000000E+01 0. -1.
         -5    1    3    3    0  502  0.43426049710E+03  0.30658976590E+03 -0.10839373660E+03  0.54254101784E+03  0.47000000000E+01 0.  1.
         13    1    5    5    0    0  0.84736504205E+01  0.18241647342E+02 -0.79586114414E+01  0.21630995014E+02  0.00000000000E+00 0.  1.
        -13    1    5    5    0    0 -0.15819228007E+03  0.11390880743E+03  0.57465109643E+02  0.20322955668E+03  0.00000000000E+00 0. -1.
          2    1    6    6  503    0 -0.26816258706E+03 -0.36880243460E+03  0.43756484109E+03  0.63197262521E+03  0.00000000000E+00 0. -1.
         -2    1    6    6    0  503 -0.88807147957E+02 -0.93630170468E+02  0.19788645848E+03  0.23624641542E+03  0.00000000000E+00 0.  1.
<mgrwt>
<rscale>  0 0.70401947E+03</rscale>
<asrwt>0</asrwt>
<pdfrwt beam="1">  1        2 0.91674973E-01 0.70401947E+03</pdfrwt>
<pdfrwt beam="2">  1       -2 0.17354665E+00 0.70401947E+03</pdfrwt>
<totfact> 0.10278895E+01</totfact>
</mgrwt>
</event>
<event>
12    1  0.3203156E-008  0.8493370E+03  0.7818608E-02  0.9491227E-01
          2   -1    0    0  501    0  0.00000000000E+00  0.00000000000E+00  0.62106688691E+03  0.62106688691E+03  0.00000000000E+00 0. -1.
         -2   -1    0    0    0  501 -0.00000000000E+00 -0.00000000000E+00 -0.17401614331E+04  0.17401614331E+04  0.00000000000E+00 0.  1.
         23    2    1    2    0    0 -0.19520722325E+03 -0.74541082952E+03 -0.11464880243E+04  0.13842756183E+04  0.89671805566E+02 0.  0.
    5000000    2    1    2    0    0  0.19520722325E+03  0.74541082952E+03  0.27393478186E+02  0.97695270166E+03  0.59995250968E+03 0.  0.
         23    2    4    4    0    0  0.12482776714E+03 -0.21124700202E+02 -0.10827131154E+03  0.19021595711E+03  0.91821615260E+02 0.  0.
         23    2    4    4    0    0  0.70379456108E+02  0.76653552972E+03  0.13566478972E+03  0.78673674455E+03  0.89553246127E+02 0.  0.
          5    1    3    3  502    0 -0.18550363229E+03 -0.57350820503E+03 -0.91599662207E+03  0.10965378062E+04  0.47000000000E+01 0. -1.
         -5    1    3    3    0  502 -0.97035909585E+01 -0.17190262449E+03 -0.23049140227E+03  0.28773781209E+03  0.47000000000E+01 0.  1.
         13    1    5    5    0    0  0.74619810745E+02  0.26862748645E+02 -0.28085530446E+02  0.84133943452E+02  0.00000000000E+00 0. -1.
        -13    1    5    5    0    0  0.50207956398E+02 -0.47987448848E+02 -0.80185781092E+02  0.10608201366E+03  0.00000000000E+00 0.  1.
          1    1    6    6  503    0  0.53108316255E+02  0.16991028599E+03  0.35271092708E+02  0.18147740499E+03  0.00000000000E+00 0. -1.
         -1    1    6    6    0  503  0.17271139853E+02  0.59662524373E+03  0.10039369702E+03  0.60525933956E+03  0.00000000000E+00 0.  1.
<mgrwt>
<rscale>  0 0.84933698E+03</rscale>
<asrwt>0</asrwt>
<pdfrwt beam="1">  1        2 0.95548753E-01 0.84933698E+03</pdfrwt>
<pdfrwt beam="2">  1       -2 0.26771714E+00 0.84933698E+03</pdfrwt>
<totfact> 0.24271163E+00</totfact>
</mgrwt>
</event>
<event>
12    1  0.3203156E-008  0.1816502E+04  0.7818608E-02  0.8697573E-01
         -2   -1    0    0    0  501 -0.00000000000E+00  0.00000000000E+00  0.13815557170E+04  0.13815557170E+04  0.00000000000E+00 0.  1.
          2   -1    0    0  501    0  0.00000000000E+00 -0.00000000000E+00 -0.24579120676E+04  0.24579120676E+04  0.00000000000E+00 0. -1.
         23    2    1    2    0    0  0.72044089241E+03 -0.16196890528E+04 -0.24601864312E+03  0.17920267740E+04  0.91690123764E+02 0.  0.
    5000000    2    1    2    0    0 -0.72044089241E+03  0.16196890528E+04 -0.83033770756E+03  0.20474410106E+04  0.60010522099E+03 0.  0.
         23    2    4    4    0    0 -0.52748659413E+03  0.52989359912E+03 -0.25227537994E+03  0.79519638302E+03  0.98311173651E+02 0.  0.
         23    2    4    4    0    0 -0.19295429827E+03  0.10897954536E+04 -0.57806232762E+03  0.12522446276E+04  0.95263113160E+02 0.  0.
          5    1    3    3  502    0  0.68425197687E+03 -0.14783287063E+04 -0.22198080808E+03  0.16440663311E+04  0.47000000000E+01 0. -1.
         -5    1    3    3    0  502  0.36188915538E+02 -0.14136034642E+03 -0.24037835037E+02  0.14796044290E+03  0.47000000000E+01 0.  1.
         13    1    5    5    0    0 -0.32256788415E+03  0.35187599275E+03 -0.20568986915E+03  0.51978368234E+03  0.00000000000E+00 0. -1.
        -13    1    5    5    0    0 -0.20491870998E+03  0.17801760637E+03 -0.46585510792E+02  0.27541270068E+03  0.00000000000E+00 0.  1.
          2    1    6    6  503    0 -0.19534568602E+03  0.97488391050E+03 -0.49671468042E+03  0.11114333312E+04  0.00000000000E+00 0. -1.
         -2    1    6    6    0  503  0.23913877516E+01  0.11491154315E+03 -0.81347647194E+02  0.14081129638E+03  0.00000000000E+00 0.  1.
<mgrwt>
<rscale>  0 0.18165018E+04</rscale>
<asrwt>0</asrwt>
<pdfrwt beam="1">  1        2 0.37814032E+00 0.18165018E+04</pdfrwt>
<pdfrwt beam="2">  1       -2 0.21254703E+00 0.18165018E+04</pdfrwt>
<totfact> 0.36901497E-01</totfact>
</mgrwt>
</event>
<event>
12    1  0.3203156E-008  0.3369550E+03  0.7818608E-02  0.1068100E+00
         -2   -1    0    0    0  501 -0.00000000000E+00  0.00000000000E+00  0.12195844938E+03  0.12195844938E+03  0.00000000000E+00 0.  1.
          2   -1    0    0  501    0  0.00000000000E+00 -0.00000000000E+00 -0.32891015389E+04  0.32891015389E+04  0.00000000000E+00 0. -1.
         23    2    1    2    0    0  0.77747185555E+02  0.29704344130E+03 -0.22168129965E+03  0.38944091296E+03  0.90786536377E+02 0.  0.
    5000000    2    1    2    0    0 -0.77747185555E+02 -0.29704344130E+03 -0.29454617898E+04  0.30216190753E+04  0.60013102730E+03 0.  0.
         23    2    4    4    0    0 -0.38865291360E+02 -0.43026520154E+02 -0.63139341171E+02  0.12645507213E+03  0.92965136238E+02 0.  0.
         23    2    4    4    0    0 -0.38881894195E+02 -0.25401692115E+03 -0.28823224487E+04  0.28951640031E+04  0.90307857918E+02 0.  0.
          5    1    3    3  502    0  0.20972612458E+02  0.88050954226E+02 -0.18621771674E+02  0.92529354228E+02  0.47000000000E+01 0. -1.
         -5    1    3    3    0  502  0.56774573096E+02  0.20899248707E+03 -0.20305952798E+03  0.29691155873E+03  0.47000000000E+01 0.  1.
         13    1    5    5    0    0 -0.35145494957E+02 -0.72019609252E+02 -0.49557985923E+02  0.94223266242E+02  0.00000000000E+00 0.  1.
        -13    1    5    5    0    0 -0.37197964029E+01  0.28993089097E+02 -0.13581355248E+02  0.32231805892E+02  0.00000000000E+00 0. -1.
          2    1    6    6  503    0 -0.70401655912E+01 -0.22080129617E+02 -0.68759582706E+03  0.68798627707E+03  0.00000000000E+00 0. -1.
         -2    1    6    6    0  503 -0.31841728604E+02 -0.23193679153E+03 -0.21947266216E+04  0.22071777261E+04  0.00000000000E+00 0.  1.
<mgrwt>
<rscale>  0 0.33695498E+03</rscale>
<asrwt>0</asrwt>
<pdfrwt beam="1">  1        2 0.50601566E+00 0.33695498E+03</pdfrwt>
<pdfrwt beam="2">  1       -2 0.18762837E-01 0.33695498E+03</pdfrwt>
<totfact> 0.31877463E+01</totfact>
</mgrwt>
</event>
<event>
12    1  0.3203156E-008  0.6695339E+03  0.7818608E-02  0.9770800E-01
          1   -1    0    0  501    0  0.00000000000E+00  0.00000000000E+00  0.40284756660E+03  0.40284756660E+03  0.00000000000E+00 0. -1.
         -1   -1    0    0    0  501 -0.00000000000E+00 -0.00000000000E+00 -0.14951625079E+04  0.14951625079E+04  0.00000000000E+00 0.  1.
         23    2    1    2    0    0 -0.18737451127E+03  0.58489738857E+03 -0.18279582936E+03  0.64716558589E+03  0.90525232434E+02 0.  0.
    5000000    2    1    2    0    0  0.18737451127E+03 -0.58489738857E+03 -0.90951911198E+03  0.12508444887E+04  0.60014394699E+03 0.  0.
         23    2    4    4    0    0  0.28285570772E+02  0.48601434894E+02  0.28621261241E+02  0.10397899631E+03  0.82645520697E+02 0.  0.
         23    2    4    4    0    0  0.15908894050E+03 -0.63349882346E+03 -0.93814037322E+03  0.11468654923E+04  0.92536735100E+02 0.  0.
          5    1    3    3  502    0 -0.85184165281E+02  0.32395801628E+03 -0.14232619971E+03  0.36398348239E+03  0.47000000000E+01 0. -1.
         -5    1    3    3    0  502 -0.10219034599E+03  0.26093937229E+03 -0.40469629655E+02  0.28318210351E+03  0.47000000000E+01 0.  1.
         11    1    5    5    0    0  0.37283044654E+02  0.23802423658E+02  0.52322917960E+02  0.68514732245E+02  0.00000000000E+00 0. -1.
        -11    1    5    5    0    0 -0.89974738816E+01  0.24799011236E+02 -0.23701656720E+02  0.35464264067E+02  0.00000000000E+00 0.  1.
          2    1    6    6  503    0  0.40600622218E+02 -0.15679662968E+03 -0.30695123927E+03  0.34706290049E+03  0.00000000000E+00 0.  1.
         -2    1    6    6    0  503  0.11848831828E+03 -0.47670219378E+03 -0.63118913395E+03  0.79980259185E+03  0.00000000000E+00 0. -1.
<mgrwt>
<rscale>  0 0.66953390E+03</rscale>
<asrwt>0</asrwt>
<pdfrwt beam="1">  1        1 0.61976548E-01 0.66953390E+03</pdfrwt>
<pdfrwt beam="2">  1       -1 0.23002500E+00 0.66953390E+03</pdfrwt>
<totfact> 0.58831485E+00</totfact>
</mgrwt>
</event>
<event>
12    1  0.3203156E-008  0.1258404E+04  0.7818608E-02  0.9063218E-01
          1   -1    0    0  501    0  0.00000000000E+00  0.00000000000E+00  0.16639556200E+04  0.16639556200E+04  0.00000000000E+00 0. -1.
         -1   -1    0    0    0  501 -0.00000000000E+00 -0.00000000000E+00 -0.17071798344E+04  0.17071798344E+04  0.00000000000E+00 0.  1.
         23    2    1    2    0    0 -0.47433819927E+03  0.11291071118E+04  0.10558061303E+04  0.16195900064E+04  0.92008732840E+02 0.  0.
    5000000    2    1    2    0    0  0.47433819927E+03 -0.11291071118E+04 -0.10990303447E+04  0.17515454480E+04  0.60013678487E+03 0.  0.
         23    2    4    4    0    0  0.47648577081E+03 -0.65116162926E+03 -0.41462631958E+03  0.91160844939E+03  0.89804359067E+02 0.  0.
         23    2    4    4    0    0 -0.21475715341E+01 -0.47794548250E+03 -0.68440402517E+03  0.83993699859E+03  0.92998901226E+02 0.  0.
          5    1    3    3  502    0 -0.17432296933E+03  0.52878604817E+03  0.46360865316E+03  0.72454003041E+03  0.47000000000E+01 0. -1.
         -5    1    3    3    0  502 -0.30001522994E+03  0.60032106360E+03  0.59219747718E+03  0.89504997602E+03  0.47000000000E+01 0.  1.
         13    1    5    5    0    0  0.20059922440E+03 -0.34139040214E+03 -0.17901071106E+03  0.43454837495E+03  0.00000000000E+00 0. -1.
        -13    1    5    5    0    0  0.27588654641E+03 -0.30977122713E+03 -0.23561560852E+03  0.47706007444E+03  0.00000000000E+00 0.  1.
          2    1    6    6  503    0  0.49367336745E+01 -0.22066186587E+03 -0.23757289007E+03  0.32427905959E+03  0.00000000000E+00 0. -1.
         -2    1    6    6    0  503 -0.70843052086E+01 -0.25728361663E+03 -0.44683113510E+03  0.51565793900E+03  0.00000000000E+00 0.  1.
<mgrwt>
<rscale>  0 0.12584036E+04</rscale>
<asrwt>0</asrwt>
<pdfrwt beam="1">  1        1 0.25599317E+00 0.12584036E+04</pdfrwt>
<pdfrwt beam="2">  1       -1 0.26264305E+00 0.12584036E+04</pdfrwt>
<totfact> 0.28328403E-01</totfact>
</mgrwt>
</event>
<event>
12    1  0.3203156E-008  0.4659160E+03  0.7818608E-02  0.1023079E+00
          1   -1    0    0  501    0  0.00000000000E+00  0.00000000000E+00  0.86421204059E+03  0.86421204059E+03  0.00000000000E+00 0. -1.
         -1   -1    0    0    0  501 -0.00000000000E+00 -0.00000000000E+00 -0.27584151701E+03  0.27584151701E+03  0.00000000000E+00 0.  1.
         23    2    1    2    0    0 -0.25016647096E+03  0.13267083279E+03  0.27968320662E+03  0.40821932257E+03  0.90749689742E+02 0.  0.
    5000000    2    1    2    0    0  0.25016647096E+03 -0.13267083279E+03  0.30868731696E+03  0.73183423503E+03  0.60009055553E+03 0.  0.
         23    2    4    4    0    0 -0.17389850298E+03  0.28924885306E+02  0.66121044657E+02  0.20935315048E+03  0.91539121362E+02 0.  0.
         23    2    4    4    0    0  0.42406497394E+03 -0.16159571809E+03  0.24256627230E+03  0.52248108455E+03  0.90574880730E+02 0.  0.
          5    1    3    3  502    0 -0.14689431526E+03  0.76299503529E+02  0.10017329856E+03  0.19353638893E+03  0.47000000000E+01 0. -1.
         -5    1    3    3    0  502 -0.10327215570E+03  0.56371329256E+02  0.17950990806E+03  0.21468293365E+03  0.47000000000E+01 0.  1.
         13    1    5    5    0    0 -0.73786588106E+02  0.50969795590E+02  0.45963168044E+01  0.89797030992E+02  0.00000000000E+00 0.  1.
        -13    1    5    5    0    0 -0.10011191487E+03 -0.22044910284E+02  0.61524727853E+02  0.11955611949E+03  0.00000000000E+00 0. -1.
          3    1    6    6  503    0  0.15802878827E+03 -0.85083708693E+02  0.53591403032E+02  0.18730823229E+03  0.00000000000E+00 0. -1.
         -3    1    6    6    0  503  0.26603618568E+03 -0.76512009398E+02  0.18897486927E+03  0.33517285225E+03  0.00000000000E+00 0.  1.
<mgrwt>
<rscale>  0 0.46591602E+03</rscale>
<asrwt>0</asrwt>
<pdfrwt beam="1">  1        1 0.13295570E+00 0.46591602E+03</pdfrwt>
<pdfrwt beam="2">  1       -1 0.42437157E-01 0.46591602E+03</pdfrwt>
<totfact> 0.11127915E+02</totfact>
</mgrwt>
</event>
<event>
12    1  0.3203156E-008  0.1598764E+04  0.7818608E-02  0.8821308E-01
          2   -1    0    0  501    0  0.00000000000E+00  0.00000000000E+00  0.20432931979E+04  0.20432931979E+04  0.00000000000E+00 0. -1.
         -2   -1    0    0    0  501 -0.00000000000E+00 -0.00000000000E+00 -0.14010048410E+04  0.14010048410E+04  0.00000000000E+00 0.  1.
         23    2    1    2    0    0  0.10772790052E+04 -0.11473403797E+04 -0.14740083332E+03  0.15837750842E+04  0.98470857285E+02 0.  0.
    5000000    2    1    2    0    0 -0.10772790052E+04  0.11473403797E+04  0.78968919022E+03  0.18605229548E+04  0.60084660779E+03 0.  0.
         23    2    4    4    0    0 -0.99954907239E+03  0.88969631484E+03  0.82438729934E+03  0.15744117612E+04  0.92195953122E+02 0.  0.
         23    2    4    4    0    0 -0.77729932767E+02  0.25764406489E+03 -0.34698109121E+02  0.28611119354E+03  0.90737256251E+02 0.  0.
          5    1    3    3  502    0  0.32228833622E+03 -0.31165968224E+03 -0.80782845334E+02  0.45557599508E+03  0.47000000000E+01 0. -1.
         -5    1    3    3    0  502  0.75499066894E+03 -0.83568069749E+03 -0.66617987984E+02  0.11281990891E+04  0.47000000000E+01 0.  1.
         13    1    5    5    0    0 -0.86842599825E+03  0.80369267212E+03  0.74931232504E+03  0.14005550993E+04  0.00000000000E+00 0. -1.
        -13    1    5    5    0    0 -0.13112307414E+03  0.86003642723E+02  0.75074974308E+02  0.17385666194E+03  0.00000000000E+00 0.  1.
          4    1    6    6  503    0 -0.93674596070E+02  0.17288730774E+03 -0.12362104970E+02  0.19702226464E+03  0.00000000000E+00 0.  1.
         -4    1    6    6    0  503  0.15944663303E+02  0.84756757147E+02 -0.22336004152E+02  0.89088928893E+02  0.00000000000E+00 0. -1.
<mgrwt>
<rscale>  0 0.15987642E+04</rscale>
<asrwt>0</asrwt>
<pdfrwt beam="1">  1        2 0.31435280E+00 0.15987642E+04</pdfrwt>
<pdfrwt beam="2">  1       -2 0.21553921E+00 0.15987642E+04</pdfrwt>
<totfact> 0.61964946E-01</totfact>
</mgrwt>
</event>
<event>
12    1  0.3203156E-008  0.1002741E+04  0.7818608E-02  0.9305543E-01
         -2   -1    0    0    0  501 -0.00000000000E+00  0.00000000000E+00  0.65731580186E+03  0.65731580186E+03  0.00000000000E+00 0.  1.
          2   -1    0    0  501    0  0.00000000000E+00 -0.00000000000E+00 -0.25187357620E+04  0.25187357620E+04  0.00000000000E+00 0. -1.
         23    2    1    2    0    0  0.57559591056E+03 -0.72399723605E+03  0.91228861675E+02  0.93366231319E+03  0.88994156052E+02 0.  0.
    5000000    2    1    2    0    0 -0.57559591056E+03  0.72399723605E+03 -0.19526488218E+04  0.22423892506E+04  0.59999123337E+03 0.  0.
         23    2    4    4    0    0 -0.65846746463E+03  0.49795366668E+03 -0.13171269035E+04  0.15570051084E+04  0.88906532384E+02 0.  0.
         23    2    4    4    0    0  0.82871554077E+02  0.22604356937E+03 -0.63552191824E+03  0.68538414221E+03  0.88881517203E+02 0.  0.
          5    1    3    3  502    0  0.13671085506E+03 -0.14417864731E+03  0.51808993679E+02  0.20538646999E+03  0.47000000000E+01 0. -1.
         -5    1    3    3    0  502  0.43888505549E+03 -0.57981858874E+03  0.39419867996E+02  0.72827584319E+03  0.47000000000E+01 0.  1.
         11    1    5    5    0    0 -0.14130761423E+02  0.51115046176E+01 -0.82900392221E+01  0.17161895237E+02  0.00000000000E+00 0.  1.
        -11    1    5    5    0    0 -0.64433670321E+03  0.49284216206E+03 -0.13088368643E+04  0.15398432132E+04  0.00000000000E+00 0. -1.
          3    1    6    6  503    0  0.31714140818E+02  0.18501719360E+03 -0.41850309932E+03  0.45867416844E+03  0.00000000000E+00 0. -1.
         -3    1    6    6    0  503  0.51157413259E+02  0.41026375768E+02 -0.21701881892E+03  0.22670997377E+03  0.00000000000E+00 0.  1.
<mgrwt>
<rscale>  0 0.10027412E+04</rscale>
<asrwt>0</asrwt>
<pdfrwt beam="1">  1        2 0.38749781E+00 0.10027412E+04</pdfrwt>
<pdfrwt beam="2">  1       -2 0.10112551E+00 0.10027412E+04</pdfrwt>
<totfact> 0.27537572E+00</totfact>
</mgrwt>
</event>
<event>
12    1  0.3203156E-008  0.4642239E+03  0.7818608E-02  0.1023563E+00
         -1   -1    0    0    0  501 -0.00000000000E+00  0.00000000000E+00  0.10347208051E+04  0.10347208051E+04  0.00000000000E+00 0.  1.
          1   -1    0    0  501    0  0.00000000000E+00 -0.00000000000E+00 -0.31775189813E+03  0.31775189813E+03  0.00000000000E+00 0. -1.
         23    2    1    2    0    0  0.91316286421E+02 -0.27211552819E+03  0.60747650512E+03  0.67829957489E+03  0.93150867806E+02 0.  0.
    5000000    2    1    2    0    0 -0.91316286421E+02  0.27211552819E+03  0.10949240189E+03  0.67417312838E+03  0.60011273617E+03 0.  0.
         23    2    4    4    0    0 -0.26854265093E+03 -0.27378297646E+02  0.13325178727E+03  0.31375995662E+03  0.88456458315E+02 0.  0.
         23    2    4    4    0    0  0.17722636451E+03  0.29949382583E+03 -0.23759385380E+02  0.36041317176E+03  0.90705071523E+02 0.  0.
          5    1    3    3  502    0  0.38077805978E+02 -0.22145974159E+03  0.41039906932E+03  0.46791433249E+03  0.47000000000E+01 0. -1.
         -5    1    3    3    0  502  0.53238480443E+02 -0.50655786595E+02  0.19707743580E+03  0.21038524240E+03  0.47000000000E+01 0.  1.
         11    1    5    5    0    0 -0.19876909691E+03  0.62892530786E+01  0.12716390021E+03  0.23604949928E+03  0.00000000000E+00 0. -1.
        -11    1    5    5    0    0 -0.69773554015E+02 -0.33667550724E+02  0.60878870610E+01  0.77710457343E+02  0.00000000000E+00 0.  1.
          4    1    6    6  503    0  0.10531026787E+03  0.23331080871E+03 -0.46255632259E+02  0.26012260474E+03  0.00000000000E+00 0. -1.
         -4    1    6    6    0  503  0.71916096637E+02  0.66183017120E+02  0.22496246879E+02  0.10029056703E+03  0.00000000000E+00 0.  1.
<mgrwt>
<rscale>  0 0.46422392E+03</rscale>
<asrwt>0</asrwt>
<pdfrwt beam="1">  1        1 0.48884908E-01 0.46422392E+03</pdfrwt>
<pdfrwt beam="2">  1       -1 0.15918781E+00 0.46422392E+03</pdfrwt>
<totfact> 0.25565811E+01</totfact>
</mgrwt>
</event>
<event>
12    1  0.3203156E-008  0.5750776E+03  0.7818608E-02  0.9958505E-01
          2   -1    0    0  501    0  0.00000000000E+00  0.00000000000E+00  0.19135804122E+04  0.19135804122E+04  0.00000000000E+00 0. -1.
         -2   -1    0    0    0  501 -0.00000000000E+00 -0.00000000000E+00 -0.26462804544E+03  0.26462804544E+03  0.00000000000E+00 0.  1.
         23    2    1    2    0    0  0.23973659288E+03  0.44773051326E+03  0.24886298399E+03  0.57251825738E+03  0.88927632194E+02 0.  0.
    5000000    2    1    2    0    0 -0.23973659288E+03 -0.44773051326E+03  0.14000893827E+04  0.16056902002E+04  0.60004540909E+03 0.  0.
         23    2    4    4    0    0  0.83486761201E+02 -0.53694896867E+02  0.22265599797E+02  0.13375269639E+03  0.86838042425E+02 0.  0.
         23    2    4    4    0    0 -0.32322335408E+03 -0.39403561639E+03  0.13778237829E+04  0.14719375038E+04  0.92001275759E+02 0.  0.
          5    1    3    3  502    0  0.82757159721E+02  0.10918591197E+03  0.31584643209E+02  0.14067690124E+03  0.47000000000E+01 0. -1.
         -5    1    3    3    0  502  0.15697943316E+03  0.33854460129E+03  0.21727834078E+03  0.43184135614E+03  0.47000000000E+01 0.  1.
         13    1    5    5    0    0  0.19546248229E+02  0.23055600081E+02  0.14590050947E+02  0.33563165845E+02  0.00000000000E+00 0. -1.
        -13    1    5    5    0    0  0.63940512972E+02 -0.76750496947E+02  0.76755488504E+01  0.10018953055E+03  0.00000000000E+00 0.  1.
          2    1    6    6  503    0 -0.11089243128E+03 -0.12747601879E+03  0.34137342371E+03  0.38089773049E+03  0.00000000000E+00 0. -1.
         -2    1    6    6    0  503 -0.21233092280E+03 -0.26655959761E+03  0.10364503592E+04  0.10910397733E+04  0.00000000000E+00 0.  1.
<mgrwt>
<rscale>  0 0.57507763E+03</rscale>
<asrwt>0</asrwt>
<pdfrwt beam="1">  1        2 0.29439698E+00 0.57507763E+03</pdfrwt>
<pdfrwt beam="2">  1       -2 0.40712008E-01 0.57507763E+03</pdfrwt>
<totfact> 0.44937792E+01</totfact>
</mgrwt>
</event>
<event>
12    1  0.3203156E-008  0.3630181E+03  0.7818608E-02  0.1057395E+00
         -2   -1    0    0    0  501 -0.00000000000E+00  0.00000000000E+00  0.22315835669E+03  0.22315835669E+03  0.00000000000E+00 0. -1.
          2   -1    0    0  501    0  0.00000000000E+00 -0.00000000000E+00 -0.72983570128E+03  0.72983570128E+03  0.00000000000E+00 0.  1.
         23    2    1    2    0    0  0.11529799026E+03 -0.11365092201E+03 -0.12611671215E+03  0.22431186840E+03  0.90555124594E+02 0.  0.
    5000000    2    1    2    0    0 -0.11529799026E+03  0.11365092201E+03 -0.38056063244E+03  0.72868218957E+03  0.59995098117E+03 0.  0.
         23    2    4    4    0    0 -0.11773296244E+03  0.32502099761E+03 -0.11263367014E+03  0.37521891385E+03  0.92753384484E+02 0.  0.
         23    2    4    4    0    0  0.24349721759E+01 -0.21137007559E+03 -0.26792696230E+03  0.35346327572E+03  0.92022780933E+02 0.  0.
          5    1    3    3  502    0  0.93755712813E+02 -0.96668010054E+02 -0.50779408290E+02  0.14399818110E+03  0.47000000000E+01 0. -1.
         -5    1    3    3    0  502  0.21542277450E+02 -0.16982911960E+02 -0.75337303855E+02  0.80313687305E+02  0.47000000000E+01 0.  1.
         11    1    5    5    0    0 -0.11846101330E+03  0.27085738187E+03 -0.12277363772E+03  0.32010951111E+03  0.00000000000E+00 0. -1.
        -11    1    5    5    0    0  0.72805086386E+00  0.54163615740E+02  0.10139967578E+02  0.55109402742E+02  0.00000000000E+00 0.  1.
          2    1    6    6  503    0 -0.12866554726E+02 -0.14399236389E+03 -0.23734034375E+03  0.27790247905E+03  0.00000000000E+00 0. -1.
         -2    1    6    6    0  503  0.15301526902E+02 -0.67377711696E+02 -0.30586618547E+02  0.75560796668E+02  0.00000000000E+00 0.  1.
<mgrwt>
<rscale>  0 0.36301812E+03</rscale>
<asrwt>0</asrwt>
<pdfrwt beam="1">  1        2 0.11228241E+00 0.36301812E+03</pdfrwt>
<pdfrwt beam="2">  1       -2 0.34332055E-01 0.36301812E+03</pdfrwt>
<totfact> 0.31739504E+02</totfact>
</mgrwt>
</event>
<event>
12    1  0.3203156E-008  0.8631907E+03  0.7818608E-02  0.9472802E-01
         -1   -1    0    0    0  501 -0.00000000000E+00  0.00000000000E+00  0.16455185216E+04  0.16455185216E+04  0.00000000000E+00 0.  1.
          1   -1    0    0  501    0  0.00000000000E+00 -0.00000000000E+00 -0.63173675869E+03  0.63173675869E+03  0.00000000000E+00 0. -1.
         23    2    1    2    0    0  0.18513799167E+03 -0.83537034534E+03  0.60386456620E+02  0.86261083707E+03  0.91275638879E+02 0.  0.
    5000000    2    1    2    0    0 -0.18513799167E+03  0.83537034534E+03  0.95339530632E+03  0.14146444433E+04  0.60011382326E+03 0.  0.
         23    2    4    4    0    0 -0.14345851241E+03  0.45018344680E+03  0.12838658569E+03  0.49871568916E+03  0.94808979901E+02 0.  0.
         23    2    4    4    0    0 -0.41679479253E+02  0.38518689854E+03  0.82500872063E+03  0.91592875409E+03  0.90443173672E+02 0.  0.
          5    1    3    3  502    0  0.48279874590E+02 -0.35975693047E+03 -0.71926930837E+01  0.36308376464E+03  0.47000000000E+01 0. -1.
         -5    1    3    3    0  502  0.13685811708E+03 -0.47561341488E+03  0.67579149704E+02  0.49952707244E+03  0.47000000000E+01 0.  1.
         11    1    5    5    0    0 -0.38371696559E+02  0.19158279283E+03  0.10391263949E+02  0.19566382387E+03  0.00000000000E+00 0.  1.
        -11    1    5    5    0    0 -0.10508681585E+03  0.25860065397E+03  0.11799532175E+03  0.30305186528E+03  0.00000000000E+00 0. -1.
          1    1    6    6  503    0 -0.61099151516E+02  0.25127188228E+03  0.47790925703E+03  0.54338561179E+03  0.00000000000E+00 0. -1.
         -1    1    6    6    0  503  0.19419672263E+02  0.13391501627E+03  0.34709946359E+03  0.37254314231E+03  0.00000000000E+00 0.  1.
<mgrwt>
<rscale>  0 0.86319072E+03</rscale>
<asrwt>0</asrwt>
<pdfrwt beam="1">  1        1 0.97190271E-01 0.86319072E+03</pdfrwt>
<pdfrwt beam="2">  1       -1 0.25315669E+00 0.86319072E+03</pdfrwt>
<totfact> 0.21695132E+00</totfact>
</mgrwt>
</event>
<event>
12    1  0.3203156E-008  0.5580518E+03  0.7818608E-02  0.9996472E-01
         -2   -1    0    0    0  501 -0.00000000000E+00  0.00000000000E+00  0.53338435483E+03  0.53338435483E+03  0.00000000000E+00 0. -1.
          2   -1    0    0  501    0  0.00000000000E+00 -0.00000000000E+00 -0.74824452308E+03  0.74824452308E+03  0.00000000000E+00 0.  1.
         23    2    1    2    0    0  0.42247134526E+03 -0.20708507612E+03  0.32601139312E+02  0.48042357561E+03  0.91529838853E+02 0.  0.
    5000000    2    1    2    0    0 -0.42247134526E+03  0.20708507612E+03 -0.24746130756E+03  0.80120530230E+03  0.59943854679E+03 0.  0.
         23    2    4    4    0    0  0.60955078050E+02  0.80483935278E+02 -0.26150653535E+03  0.29390765658E+03  0.88333782830E+02 0.  0.
         23    2    4    4    0    0 -0.48342642331E+03  0.12660114084E+03  0.14045227786E+02  0.50729764572E+03  0.86166567257E+02 0.  0.
          5    1    3    3  502    0  0.20729783339E+03 -0.51703448999E+02  0.20773998606E+02  0.21470744604E+03  0.47000000000E+01 0. -1.
         -5    1    3    3    0  502  0.21517351187E+03 -0.15538162712E+03  0.11827140706E+02  0.26571612957E+03  0.47000000000E+01 0.  1.
         11    1    5    5    0    0  0.63473373531E+02  0.16062038211E+02 -0.16820066284E+03  0.18049465698E+03  0.00000000000E+00 0. -1.
        -11    1    5    5    0    0 -0.25182954809E+01  0.64421897067E+02 -0.93305872515E+02  0.11341299961E+03  0.00000000000E+00 0.  1.
          3    1    6    6  503    0 -0.24888841921E+03  0.20946300481E+02  0.11895309228E+02  0.25005137693E+03  0.00000000000E+00 0. -1.
         -3    1    6    6    0  503 -0.23453800409E+03  0.10565484036E+03  0.21499185584E+01  0.25724626879E+03  0.00000000000E+00 0.  1.
<mgrwt>
<rscale>  0 0.55805182E+03</rscale>
<asrwt>0</asrwt>
<pdfrwt beam="1">  1        2 0.11511454E+00 0.55805182E+03</pdfrwt>
<pdfrwt beam="2">  1       -2 0.82059132E-01 0.55805182E+03</pdfrwt>
<totfact> 0.50602248E+01</totfact>
</mgrwt>
</event>
<event>
12    1  0.3203156E-008  0.1532816E+04  0.7818608E-02  0.8862919E-01
          1   -1    0    0  501    0  0.00000000000E+00  0.00000000000E+00  0.18905431247E+04  0.18905431247E+04  0.00000000000E+00 0. -1.
         -1   -1    0    0    0  501 -0.00000000000E+00 -0.00000000000E+00 -0.14496142440E+04  0.14496142440E+04  0.00000000000E+00 0.  1.
         23    2    1    2    0    0  0.64992033896E+03  0.13782469334E+04 -0.27791983124E+03  0.15516640812E+04  0.91983324042E+02 0.  0.
    5000000    2    1    2    0    0 -0.64992033896E+03 -0.13782469334E+04  0.71884871194E+03  0.17884932874E+04  0.60000309333E+03 0.  0.
         23    2    4    4    0    0 -0.62365433073E+02 -0.30714840554E+03 -0.69029184227E+02  0.33194827964E+03  0.84823592289E+02 0.  0.
         23    2    4    4    0    0 -0.58755490589E+03 -0.10710985279E+04  0.78787789617E+03  0.14565450078E+04  0.91098609060E+02 0.  0.
          5    1    3    3  502    0  0.15667952249E+03  0.25389198512E+03 -0.68367734811E+02  0.30611411277E+03  0.47000000000E+01 0. -1.
         -5    1    3    3    0  502  0.49324081647E+03  0.11243549483E+04 -0.20955209643E+03  0.12455499685E+04  0.47000000000E+01 0.  1.
         13    1    5    5    0    0 -0.49837099720E+02 -0.11663635075E+03  0.55904615442E+01  0.12696073443E+03  0.00000000000E+00 0.  1.
        -13    1    5    5    0    0 -0.12528333352E+02 -0.19051205479E+03 -0.74619645771E+02  0.20498754521E+03  0.00000000000E+00 0. -1.
          2    1    6    6  503    0 -0.49044256386E+03 -0.88786169309E+03  0.69330185686E+03  0.12286170108E+04  0.00000000000E+00 0. -1.
         -2    1    6    6    0  503 -0.97112342028E+02 -0.18323683480E+03  0.94576039312E+02  0.22792799700E+03  0.00000000000E+00 0.  1.
<mgrwt>
<rscale>  0 0.15328163E+04</rscale>
<asrwt>0</asrwt>
<pdfrwt beam="1">  1        1 0.29085279E+00 0.15328163E+04</pdfrwt>
<pdfrwt beam="2">  1       -1 0.22301758E+00 0.15328163E+04</pdfrwt>
<totfact> 0.34955414E-01</totfact>
</mgrwt>
</event>
<event>
12    1  0.3203156E-008  0.5914680E+03  0.7818608E-02  0.9923267E-01
          2   -1    0    0  501    0  0.00000000000E+00  0.00000000000E+00  0.17638820095E+04  0.17638820095E+04  0.00000000000E+00 0. -1.
         -2   -1    0    0    0  501 -0.00000000000E+00 -0.00000000000E+00 -0.25601135088E+03  0.25601135088E+03  0.00000000000E+00 0.  1.
         23    2    1    2    0    0  0.15645126577E+03 -0.47805951095E+03  0.87509758312E+03  0.10132070976E+04  0.88175665464E+02 0.  0.
    5000000    2    1    2    0    0 -0.15645126577E+03  0.47805951095E+03  0.63277307553E+03  0.10066862629E+04  0.59999797679E+03 0.  0.
         23    2    4    4    0    0 -0.11701022045E+03 -0.40439863482E+02  0.40145290258E+03  0.42996204815E+03  0.91521339647E+02 0.  0.
         23    2    4    4    0    0 -0.39441045323E+02  0.51849937443E+03  0.23132017294E+03  0.57672421471E+03  0.93298446297E+02 0.  0.
          5    1    3    3  502    0  0.51072684714E+02 -0.67794644316E+02  0.11457203995E+03  0.14266525597E+03  0.47000000000E+01 0. -1.
         -5    1    3    3    0  502  0.10537858106E+03 -0.41026486663E+03  0.76052554317E+03  0.87054184159E+03  0.47000000000E+01 0.  1.
         13    1    5    5    0    0 -0.13117583039E+03 -0.26003694711E+02  0.34971541580E+03  0.37441175551E+03  0.00000000000E+00 0. -1.
        -13    1    5    5    0    0  0.14165609941E+02 -0.14436168771E+02  0.51737486785E+02  0.55550292642E+02  0.00000000000E+00 0.  1.
          1    1    6    6  503    0 -0.22856440686E+02  0.40667178398E+03  0.13775878456E+03  0.42997888261E+03  0.00000000000E+00 0. -1.
         -1    1    6    6    0  503 -0.16584604637E+02  0.11182759045E+03  0.93561388383E+02  0.14674533210E+03  0.00000000000E+00 0.  1.
<mgrwt>
<rscale>  0 0.59146798E+03</rscale>
<asrwt>0</asrwt>
<pdfrwt beam="1">  1        2 0.27136646E+00 0.59146798E+03</pdfrwt>
<pdfrwt beam="2">  1       -2 0.39386363E-01 0.59146798E+03</pdfrwt>
<totfact> 0.57596426E+01</totfact>
</mgrwt>
</event>
<event>
12    1  0.3203156E-008  0.6722562E+03  0.7818608E-02  0.9765891E-01
          2   -1    0    0  501    0  0.00000000000E+00  0.00000000000E+00  0.87739410733E+03  0.87739410733E+03  0.00000000000E+00 0. -1.
         -2   -1    0    0    0  501 -0.00000000000E+00 -0.00000000000E+00 -0.55159757834E+03  0.55159757834E+03  0.00000000000E+00 0.  1.
         23    2    1    2    0    0 -0.15184602333E+03 -0.53799290955E+03  0.19162437533E+03  0.59801897645E+03  0.91723549049E+02 0.  0.
    5000000    2    1    2    0    0  0.15184602333E+03  0.53799290955E+03  0.13417215366E+03  0.83097270923E+03  0.60001657572E+03 0.  0.
         23    2    4    4    0    0  0.31296313195E+03  0.14085979132E+03 -0.44684951549E+02  0.35794407370E+03  0.91322572392E+02 0.  0.
         23    2    4    4    0    0 -0.16111710862E+03  0.39713311823E+03  0.17885710521E+03  0.47302863553E+03  0.89959933668E+02 0.  0.
          5    1    3    3  502    0 -0.47106398080E+02 -0.80375509192E+02  0.69880469606E+01  0.93542279309E+02  0.47000000000E+01 0. -1.
         -5    1    3    3    0  502 -0.10473962525E+03 -0.45761740036E+03  0.18463632837E+03  0.50447669714E+03  0.47000000000E+01 0.  1.
         13    1    5    5    0    0  0.22389964335E+03  0.14009442535E+03 -0.16953664317E+02  0.26466001784E+03  0.00000000000E+00 0.  1.
        -13    1    5    5    0    0  0.89063488597E+02  0.76536597238E+00 -0.27731287232E+02  0.93284055860E+02  0.00000000000E+00 0. -1.
          1    1    6    6  503    0 -0.91886203049E+02  0.22453085169E+03  0.52575507425E+02  0.24823650347E+03  0.00000000000E+00 0. -1.
         -1    1    6    6    0  503 -0.69230905569E+02  0.17260226654E+03  0.12628159778E+03  0.22479213206E+03  0.00000000000E+00 0.  1.
<mgrwt>
<rscale>  0 0.67225621E+03</rscale>
<asrwt>0</asrwt>
<pdfrwt beam="1">  1        2 0.13498371E+00 0.67225621E+03</pdfrwt>
<pdfrwt beam="2">  1       -2 0.84861166E-01 0.67225621E+03</pdfrwt>
<totfact> 0.37551581E+01</totfact>
</mgrwt>
</event>
<event>
12    1  0.3203156E-008  0.1637899E+04  0.7818608E-02  0.8797597E-01
         -2   -1    0    0    0  501 -0.00000000000E+00  0.00000000000E+00  0.18222429372E+04  0.18222429372E+04  0.00000000000E+00 0.  1.
          2   -1    0    0  501    0  0.00000000000E+00 -0.00000000000E+00 -0.17763891492E+04  0.17763891492E+04  0.00000000000E+00 0. -1.
         23    2    1    2    0    0 -0.55233053075E+03  0.15383192163E+04 -0.59748954496E+03  0.17425845964E+04  0.90068268138E+02 0.  0.
    5000000    2    1    2    0    0  0.55233053075E+03 -0.15383192163E+04  0.64334333295E+03  0.18560474900E+04  0.59960538235E+03 0.  0.
         23    2    4    4    0    0  0.68599336009E+02 -0.23172411230E+03  0.34161009144E+03  0.42756251786E+03  0.87808422049E+02 0.  0.
         23    2    4    4    0    0  0.48373119474E+03 -0.13065951040E+04  0.30173324151E+03  0.14284849721E+04  0.91322132907E+02 0.  0.
          5    1    3    3  502    0 -0.31690167518E+03  0.96581784148E+03 -0.40645569341E+03  0.10947415656E+04  0.47000000000E+01 0. -1.
         -5    1    3    3    0  502 -0.23542885557E+03  0.57250137482E+03 -0.19103385155E+03  0.64784303086E+03  0.47000000000E+01 0.  1.
         11    1    5    5    0    0  0.47175851859E+02 -0.94907763651E+02  0.21598670564E+03  0.24058948774E+03  0.00000000000E+00 0. -1.
        -11    1    5    5    0    0  0.21423484151E+02 -0.13681634865E+03  0.12562338580E+03  0.18697303012E+03  0.00000000000E+00 0.  1.
          4    1    6    6  503    0  0.15567956725E+03 -0.31537802745E+03  0.91869445935E+02  0.36350986638E+03  0.00000000000E+00 0. -1.
         -4    1    6    6    0  503  0.32805162749E+03 -0.99121707654E+03  0.20986379557E+03  0.10649751057E+04  0.00000000000E+00 0.  1.
<mgrwt>
<rscale>  0 0.16378994E+04</rscale>
<asrwt>0</asrwt>
<pdfrwt beam="1">  1        2 0.27329064E+00 0.16378994E+04</pdfrwt>
<pdfrwt beam="2">  1       -2 0.28034507E+00 0.16378994E+04</pdfrwt>
<totfact> 0.34475847E-01</totfact>
</mgrwt>
</event>
<event>
12    1  0.3203156E-008  0.7340526E+03  0.7818608E-02  0.9660707E-01
          2   -1    0    0  501    0  0.00000000000E+00  0.00000000000E+00  0.58462516580E+03  0.58462516580E+03  0.00000000000E+00 0.  1.
         -2   -1    0    0    0  501 -0.00000000000E+00 -0.00000000000E+00 -0.18068389897E+04  0.18068389897E+04  0.00000000000E+00 0. -1.
         23    2    1    2    0    0 -0.50991580348E+03  0.51674441445E+03  0.13063444033E+03  0.74307753858E+03  0.89777251227E+02 0.  0.
    5000000    2    1    2    0    0  0.50991580348E+03 -0.51674441445E+03 -0.13528482643E+04  0.16483866169E+04  0.59995091157E+03 0.  0.
         23    2    4    4    0    0  0.21013172926E+03 -0.14153801729E+03 -0.73136624692E+02  0.27875900285E+03  0.90383968806E+02 0.  0.
         23    2    4    4    0    0  0.29978407422E+03 -0.37520639716E+03 -0.12797116396E+04  0.13696276141E+04  0.86991891690E+02 0.  0.
          5    1    3    3  502    0 -0.14368314600E+03  0.18928651970E+03  0.71614514123E+02  0.24824375444E+03  0.47000000000E+01 0. -1.
         -5    1    3    3    0  502 -0.36623265747E+03  0.32745789475E+03  0.59019926205E+02  0.49483378414E+03  0.47000000000E+01 0.  1.
         11    1    5    5    0    0  0.95260021234E+00 -0.10210074333E+02  0.13556824770E+02  0.16998251760E+02  0.00000000000E+00 0.  1.
        -11    1    5    5    0    0  0.20917912904E+03 -0.13132794296E+03 -0.86693449462E+02  0.26176075109E+03  0.00000000000E+00 0. -1.
          1    1    6    6  503    0  0.98581376943E+02 -0.15398541160E+03 -0.38375236989E+03  0.42508314042E+03  0.00000000000E+00 0. -1.
         -1    1    6    6    0  503  0.20120269728E+03 -0.22122098555E+03 -0.89595926968E+03  0.94454447368E+03  0.00000000000E+00 0.  1.
<mgrwt>
<rscale>  0 0.73405259E+03</rscale>
<asrwt>0</asrwt>
<pdfrwt beam="1">  1        2 0.89942334E-01 0.73405259E+03</pdfrwt>
<pdfrwt beam="2">  1       -2 0.27797523E+00 0.73405259E+03</pdfrwt>
<totfact> 0.23040681E+00</totfact>
</mgrwt>
</event>
<event>
12    1  0.3203156E-008  0.5327676E+03  0.7818608E-02  0.1005563E+00
         -2   -1    0    0    0  501 -0.00000000000E+00  0.00000000000E+00  0.37775337093E+03  0.37775337093E+03  0.00000000000E+00 0.  1.
          2   -1    0    0  501    0  0.00000000000E+00 -0.00000000000E+00 -0.10216947829E+04  0.10216947829E+04  0.00000000000E+00 0. -1.
         23    2    1    2    0    0  0.24263072593E+03  0.28284731042E+03  0.76387070501E+02  0.39018429999E+03  0.86813208940E+02 0.  0.
    5000000    2    1    2    0    0 -0.24263072593E+03 -0.28284731042E+03 -0.72032848248E+03  0.10092638539E+04  0.60072300926E+03 0.  0.
         23    2    4    4    0    0  0.10789012344E+03 -0.30132453033E+03 -0.43130634513E+03  0.54521933074E+03  0.93820061556E+02 0.  0.
         23    2    4    4    0    0 -0.35052084936E+03  0.18477219912E+02 -0.28902213735E+03  0.46404452312E+03  0.92721357088E+02 0.  0.
          5    1    3    3  502    0  0.62941811715E+02  0.13325054890E+03  0.13746035017E+02  0.14808249026E+03  0.47000000000E+01 0. -1.
         -5    1    3    3    0  502  0.17968891421E+03  0.14959676152E+03  0.62641035484E+02  0.24210180973E+03  0.47000000000E+01 0.  1.
         13    1    5    5    0    0 -0.10207161455E+02 -0.41211038127E+02 -0.94377707080E+02  0.10348761956E+03  0.00000000000E+00 0.  1.
        -13    1    5    5    0    0  0.11809728489E+03 -0.26011349220E+03 -0.33692863805E+03  0.44173171118E+03  0.00000000000E+00 0. -1.
          1    1    6    6  503    0 -0.14519238031E+03 -0.21943641135E+02 -0.75668392333E+02  0.16519096914E+03  0.00000000000E+00 0. -1.
         -1    1    6    6    0  503 -0.20532846905E+03  0.40420861047E+02 -0.21335374502E+03  0.29885355398E+03  0.00000000000E+00 0.  1.
<mgrwt>
<rscale>  0 0.53276758E+03</rscale>
<asrwt>0</asrwt>
<pdfrwt beam="1">  1        2 0.15718381E+00 0.53276758E+03</pdfrwt>
<pdfrwt beam="2">  1       -2 0.58115903E-01 0.53276758E+03</pdfrwt>
<totfact> 0.70042756E+01</totfact>
</mgrwt>
</event>
<event>
12    1  0.3203156E-008  0.9309905E+03  0.7818608E-02  0.9387650E-01
         -2   -1    0    0    0  501 -0.00000000000E+00  0.00000000000E+00  0.25013430712E+04  0.25013430712E+04  0.00000000000E+00 0.  1.
          2   -1    0    0  501    0  0.00000000000E+00 -0.00000000000E+00 -0.11440968593E+04  0.11440968593E+04  0.00000000000E+00 0. -1.
         23    2    1    2    0    0 -0.47450149160E+03 -0.70481519085E+03  0.21654950752E+04  0.23281717578E+04  0.95387074629E+02 0.  0.
    5000000    2    1    2    0    0  0.47450149160E+03  0.70481519085E+03 -0.80824886328E+03  0.13172681727E+04  0.60001091250E+03 0.  0.
         23    2    4    4    0    0  0.86633373980E+02 -0.86464041214E+02 -0.11919562972E+03  0.19484523719E+03  0.93678687005E+02 0.  0.
         23    2    4    4    0    0  0.38786811762E+03  0.79127923206E+03 -0.68905323356E+03  0.11224229355E+04  0.92056438149E+02 0.  0.
          5    1    3    3  502    0 -0.20536823038E+03 -0.22565807826E+03  0.74625093474E+03  0.80623211666E+03  0.47000000000E+01 0. -1.
         -5    1    3    3    0  502 -0.26913326122E+03 -0.47915711258E+03  0.14192441405E+04  0.15219396411E+04  0.47000000000E+01 0.  1.
         13    1    5    5    0    0  0.11246282814E+02 -0.29346309528E+02 -0.90812523576E+02  0.96096821999E+02  0.00000000000E+00 0. -1.
        -13    1    5    5    0    0  0.75387091166E+02 -0.57117731686E+02 -0.28383106146E+02  0.98748415187E+02  0.00000000000E+00 0.  1.
          1    1    6    6  503    0  0.89291711882E+02  0.18303754109E+03 -0.21050750124E+03  0.29289786503E+03  0.00000000000E+00 0. -1.
         -1    1    6    6    0  503  0.29857640574E+03  0.60824169097E+03 -0.47854573232E+03  0.82952507052E+03  0.00000000000E+00 0.  1.
<mgrwt>
<rscale>  0 0.93099054E+03</rscale>
<asrwt>0</asrwt>
<pdfrwt beam="1">  1        2 0.17601490E+00 0.93099054E+03</pdfrwt>
<pdfrwt beam="2">  1       -2 0.38482201E+00 0.93099054E+03</pdfrwt>
<totfact> 0.19618253E-01</totfact>
</mgrwt>
</event>
<event>
12    1  0.3203156E-008  0.7337313E+03  0.7818608E-02  0.9661225E-01
         -1   -1    0    0    0  501 -0.00000000000E+00  0.00000000000E+00  0.55410733832E+03  0.55410733832E+03  0.00000000000E+00 0.  1.
          1   -1    0    0  501    0  0.00000000000E+00 -0.00000000000E+00 -0.12813661977E+04  0.12813661977E+04  0.00000000000E+00 0. -1.
         23    2    1    2    0    0  0.29852777517E+03 -0.53733867229E+03  0.11576900027E+03  0.63191459135E+03  0.89788128651E+02 0.  0.
    5000000    2    1    2    0    0 -0.29852777517E+03  0.53733867229E+03 -0.84302785969E+03  0.12035589447E+04  0.60000539988E+03 0.  0.
         23    2    4    4    0    0 -0.46795928488E+03  0.38429538253E+03 -0.62225732446E+03  0.87297436226E+03  0.90615815282E+02 0.  0.
         23    2    4    4    0    0  0.16943150971E+03  0.15304328976E+03 -0.22077053522E+03  0.33058458244E+03  0.91745582467E+02 0.  0.
          5    1    3    3  502    0  0.28735923712E+02 -0.10190598776E+03 -0.31513085747E+01  0.10603114825E+03  0.47000000000E+01 0. -1.
         -5    1    3    3    0  502  0.26979185146E+03 -0.43543268453E+03  0.11892030884E+03  0.52588344310E+03  0.47000000000E+01 0.  1.
         11    1    5    5    0    0 -0.22884713439E+03  0.13686189738E+03 -0.24124032628E+03  0.35958181947E+03  0.00000000000E+00 0. -1.
        -11    1    5    5    0    0 -0.23911215050E+03  0.24743348516E+03 -0.38101699819E+03  0.51339254279E+03  0.00000000000E+00 0.  1.
          2    1    6    6  503    0  0.35636324088E+02  0.59237838761E+00 -0.67571037701E+02  0.76394657160E+02  0.00000000000E+00 0. -1.
         -2    1    6    6    0  503  0.13379518562E+03  0.15245091137E+03 -0.15319949752E+03  0.25418992528E+03  0.00000000000E+00 0.  1.
<mgrwt>
<rscale>  0 0.73373126E+03</rscale>
<asrwt>0</asrwt>
<pdfrwt beam="1">  1        1 0.19713326E+00 0.73373126E+03</pdfrwt>
<pdfrwt beam="2">  1       -1 0.85247284E-01 0.73373126E+03</pdfrwt>
<totfact> 0.13154950E+01</totfact>
</mgrwt>
</event>
<event>
12    1  0.3203156E-008  0.1950635E+04  0.7818608E-02  0.8630055E-01
         -1   -1    0    0    0  501 -0.00000000000E+00  0.00000000000E+00  0.14468757191E+04  0.14468757191E+04  0.00000000000E+00 0.  1.
          1   -1    0    0  501    0  0.00000000000E+00 -0.00000000000E+00 -0.26717362598E+04  0.26717362598E+04  0.00000000000E+00 0. -1.
         23    2    1    2    0    0  0.63757070961E+03 -0.18046996619E+04 -0.74611219962E+03  0.20564803173E+04  0.94818783053E+02 0.  0.
    5000000    2    1    2    0    0 -0.63757070961E+03  0.18046996619E+04 -0.47874834107E+03  0.20621316616E+04  0.59979141088E+03 0.  0.
         23    2    4    4    0    0 -0.61725761116E+03  0.97898838414E+03 -0.40061528870E+03  0.12280758674E+04  0.90843336873E+02 0.  0.
         23    2    4    4    0    0 -0.20313098446E+02  0.82571127772E+03 -0.78133052372E+02  0.83405579418E+03  0.85630355684E+02 0.  0.
          5    1    3    3  502    0  0.35380728921E+03 -0.10942165223E+04 -0.48481270240E+03  0.12480203692E+04  0.47000000000E+01 0. -1.
         -5    1    3    3    0  502  0.28376342040E+03 -0.71048313956E+03 -0.26129949722E+03  0.80845994805E+03  0.47000000000E+01 0.  1.
         13    1    5    5    0    0 -0.43989982351E+03  0.75309748844E+03 -0.32837294817E+03  0.93193158274E+03  0.00000000000E+00 0. -1.
        -13    1    5    5    0    0 -0.17735778765E+03  0.22589089570E+03 -0.72242340530E+02  0.29614428471E+03  0.00000000000E+00 0.  1.
          3    1    6    6  503    0 -0.30150823144E+02  0.45706179297E+03 -0.81557001598E+02  0.46525917427E+03  0.00000000000E+00 0. -1.
         -3    1    6    6    0  503  0.98377246986E+01  0.36864948475E+03  0.34239492259E+01  0.36879661991E+03  0.00000000000E+00 0.  1.
<mgrwt>
<rscale>  0 0.19506349E+04</rscale>
<asrwt>0</asrwt>
<pdfrwt beam="1">  1        1 0.41103635E+00 0.19506349E+04</pdfrwt>
<pdfrwt beam="2">  1       -1 0.22259627E+00 0.19506349E+04</pdfrwt>
<totfact> 0.97530627E-02</totfact>
</mgrwt>
</event>
<event>
12    1  0.3203156E-008  0.9252517E+03  0.7818608E-02  0.9394555E-01
          1   -1    0    0  501    0  0.00000000000E+00  0.00000000000E+00  0.79130231244E+03  0.79130231244E+03  0.00000000000E+00 0. -1.
         -1   -1    0    0    0  501 -0.00000000000E+00 -0.00000000000E+00 -0.20866710245E+04  0.20866710245E+04  0.00000000000E+00 0.  1.
         23    2    1    2    0    0  0.10658459509E+03 -0.83404325994E+03  0.36597640134E+03  0.92168332380E+03  0.92590429644E+02 0.  0.
    5000000    2    1    2    0    0 -0.10658459509E+03  0.83404325994E+03 -0.16613451134E+04  0.19562900132E+04  0.60001216181E+03 0.  0.
         23    2    4    4    0    0 -0.28825054927E+03  0.75134130898E+03 -0.13811982701E+04  0.16005000441E+04  0.79306923677E+02 0.  0.
         23    2    4    4    0    0  0.18166595418E+03  0.82701950963E+02 -0.28014684331E+03  0.35578996903E+03  0.90896186098E+02 0.  0.
          5    1    3    3  502    0  0.11111904873E+03 -0.64502434740E+03  0.31135209095E+03  0.72482140302E+03  0.47000000000E+01 0. -1.
         -5    1    3    3    0  502 -0.45344536406E+01 -0.18901891254E+03  0.54624310392E+02  0.19686192078E+03  0.47000000000E+01 0.  1.
         13    1    5    5    0    0 -0.17708542422E+03  0.44586554241E+03 -0.89829430578E+03  0.10183751711E+04  0.00000000000E+00 0. -1.
        -13    1    5    5    0    0 -0.11116512505E+03  0.30547576657E+03 -0.48290396434E+03  0.58212487300E+03  0.00000000000E+00 0.  1.
          2    1    6    6  503    0  0.10040782847E+03  0.62526202690E+02 -0.91985672261E+02  0.14984198991E+03  0.00000000000E+00 0.  1.
         -2    1    6    6    0  503  0.81258125715E+02  0.20175748272E+02 -0.18816117105E+03  0.20594797912E+03  0.00000000000E+00 0. -1.
<mgrwt>
<rscale>  0 0.92525170E+03</rscale>
<asrwt>0</asrwt>
<pdfrwt beam="1">  1        1 0.12173882E+00 0.92525170E+03</pdfrwt>
<pdfrwt beam="2">  1       -1 0.32102631E+00 0.92525170E+03</pdfrwt>
<totfact> 0.55795559E-01</totfact>
</mgrwt>
</event>
<event>
12    1  0.3203156E-008  0.6383912E+03  0.7818608E-02  0.9828810E-01
          2   -1    0    0  501    0  0.00000000000E+00  0.00000000000E+00  0.65982531740E+03  0.65982531740E+03  0.00000000000E+00 0. -1.
         -2   -1    0    0    0  501 -0.00000000000E+00 -0.00000000000E+00 -0.76284088039E+03  0.76284088039E+03  0.00000000000E+00 0.  1.
         23    2    1    2    0    0  0.89883527980E+02 -0.56501709670E+03 -0.12626619756E+03  0.59322439277E+03  0.92998168621E+02 0.  0.
    5000000    2    1    2    0    0 -0.89883527980E+02  0.56501709670E+03  0.23250634567E+02  0.82944180502E+03  0.60009144949E+03 0.  0.
         23    2    4    4    0    0  0.52451350696E+02 -0.85479460156E+01  0.18247628915E+03  0.21107648027E+03  0.91823051844E+02 0.  0.
         23    2    4    4    0    0 -0.14233487868E+03  0.57356504271E+03 -0.15922565458E+03  0.61836532475E+03  0.88242789309E+02 0.  0.
          5    1    3    3  502    0  0.21493127658E+02 -0.33578669143E+03 -0.10735755165E+03  0.35321720028E+03  0.47000000000E+01 0. -1.
         -5    1    3    3    0  502  0.68390400322E+02 -0.22923040527E+03 -0.18908645905E+02  0.24000719249E+03  0.47000000000E+01 0.  1.
         11    1    5    5    0    0 -0.37792425815E+01 -0.39360712350E+02  0.92440982398E+02  0.10054294395E+03  0.00000000000E+00 0.  1.
        -11    1    5    5    0    0  0.56230593277E+02  0.30812766335E+02  0.90035306754E+02  0.11053353632E+03  0.00000000000E+00 0. -1.
          1    1    6    6  503    0  0.61600114377E+01  0.11876762166E+03 -0.25999606108E+02  0.12173608016E+03  0.00000000000E+00 0. -1.
         -1    1    6    6    0  503 -0.14849489011E+03  0.45479742106E+03 -0.13322604848E+03  0.49662924459E+03  0.00000000000E+00 0.  1.
<mgrwt>
<rscale>  0 0.63839116E+03</rscale>
<asrwt>0</asrwt>
<pdfrwt beam="1">  1        2 0.10151159E+00 0.63839116E+03</pdfrwt>
<pdfrwt beam="2">  1       -2 0.11736013E+00 0.63839116E+03</pdfrwt>
<totfact> 0.25355811E+01</totfact>
</mgrwt>
</event>
<event>
12    1  0.3203156E-008  0.4479525E+03  0.7818608E-02  0.1028334E+00
          1   -1    0    0  501    0  0.00000000000E+00  0.00000000000E+00  0.10085016801E+04  0.10085016801E+04  0.00000000000E+00 0. -1.
         -1   -1    0    0    0  501 -0.00000000000E+00 -0.00000000000E+00 -0.37719351036E+03  0.37719351036E+03  0.00000000000E+00 0.  1.
         23    2    1    2    0    0  0.41193994486E+03 -0.13538629236E+03  0.52743662583E+02  0.44623968379E+03  0.91235931041E+02 0.  0.
    5000000    2    1    2    0    0 -0.41193994486E+03  0.13538629236E+03  0.57856450713E+03  0.93945550664E+03  0.59984647512E+03 0.  0.
         23    2    4    4    0    0 -0.27959851569E+03  0.11206515459E+03  0.67910829740E+03  0.74841563478E+03  0.90575680708E+02 0.  0.
         23    2    4    4    0    0 -0.13234142917E+03  0.23321137776E+02 -0.10054379027E+03  0.19103987186E+03  0.91263626574E+02 0.  0.
          5    1    3    3  502    0  0.32314783068E+03 -0.68929600763E+02  0.22654334261E+02  0.33122668853E+03  0.47000000000E+01 0. -1.
         -5    1    3    3    0  502  0.88792114183E+02 -0.66456691602E+02  0.30089328322E+02  0.11501299526E+03  0.47000000000E+01 0.  1.
         11    1    5    5    0    0 -0.21664081278E+03  0.11934018881E+03  0.58295115111E+03  0.63325142479E+03  0.00000000000E+00 0.  1.
        -11    1    5    5    0    0 -0.62957702908E+02 -0.72750342176E+01  0.96157146296E+02  0.11516420999E+03  0.00000000000E+00 0. -1.
          2    1    6    6  503    0 -0.60058381773E+02 -0.15024524824E+02 -0.65071885187E+00  0.61912591630E+02  0.00000000000E+00 0. -1.
         -2    1    6    6    0  503 -0.72283047393E+02  0.38345662600E+02 -0.99893071419E+02  0.12912728022E+03  0.00000000000E+00 0.  1.
<mgrwt>
<rscale>  0 0.44795250E+03</rscale>
<asrwt>0</asrwt>
<pdfrwt beam="1">  1        1 0.15515410E+00 0.44795250E+03</pdfrwt>
<pdfrwt beam="2">  1       -1 0.58029771E-01 0.44795250E+03</pdfrwt>
<totfact> 0.47762723E+01</totfact>
</mgrwt>
</event>
<event>
12    1  0.3203156E-008  0.1607908E+04  0.7818608E-02  0.8815705E-01
          2   -1    0    0  501    0  0.00000000000E+00  0.00000000000E+00  0.39057615108E+04  0.39057615108E+04  0.00000000000E+00 0. -1.
         -2   -1    0    0    0  501 -0.00000000000E+00 -0.00000000000E+00 -0.68116422594E+03  0.68116422594E+03  0.00000000000E+00 0.  1.
         23    2    1    2    0    0  0.14124720133E+04  0.69575785239E+03  0.15760164747E+04  0.22296180239E+04  0.90622439146E+02 0.  0.
    5000000    2    1    2    0    0 -0.14124720133E+04 -0.69575785239E+03  0.16485808102E+04  0.23573077128E+04  0.59993731981E+03 0.  0.
         23    2    4    4    0    0 -0.32242569573E+03 -0.38000690822E+03  0.28671384569E+03  0.58223318491E+03  0.91799089003E+02 0.  0.
         23    2    4    4    0    0 -0.10900463176E+04 -0.31575094417E+03  0.13618669645E+04  0.17750745279E+04  0.91149972302E+02 0.  0.
          5    1    3    3  502    0  0.61860045786E+03  0.28211097038E+03  0.73680953101E+03  0.10025784264E+04  0.47000000000E+01 0. -1.
         -5    1    3    3    0  502  0.79387155547E+03  0.41364688200E+03  0.83920694368E+03  0.12270395975E+04  0.47000000000E+01 0.  1.
         13    1    5    5    0    0 -0.17300821096E+03 -0.13771860194E+03  0.14318304114E+03  0.26343810972E+03  0.00000000000E+00 0. -1.
        -13    1    5    5    0    0 -0.14941748477E+03 -0.24228830628E+03  0.14353080455E+03  0.31879507520E+03  0.00000000000E+00 0.  1.
          3    1    6    6  503    0 -0.65262678378E+03 -0.19587029808E+03  0.74790765443E+03  0.10117572595E+04  0.00000000000E+00 0. -1.
         -3    1    6    6    0  503 -0.43741953381E+03 -0.11988064608E+03  0.61395931008E+03  0.76331726844E+03  0.00000000000E+00 0.  1.
<mgrwt>
<rscale>  0 0.16079078E+04</rscale>
<asrwt>0</asrwt>
<pdfrwt beam="1">  1        2 0.60088637E+00 0.16079078E+04</pdfrwt>
<pdfrwt beam="2">  1       -2 0.10479450E+00 0.16079078E+04</pdfrwt>
<totfact> 0.28679713E-01</totfact>
</mgrwt>
</event>
<event>
12    1  0.3203156E-008  0.1153737E+04  0.7818608E-02  0.9154343E-01
          1   -1    0    0  501    0  0.00000000000E+00  0.00000000000E+00  0.13471925358E+04  0.13471925358E+04  0.00000000000E+00 0. -1.
         -1   -1    0    0    0  501 -0.00000000000E+00 -0.00000000000E+00 -0.23869293297E+04  0.23869293297E+04  0.00000000000E+00 0.  1.
         23    2    1    2    0    0  0.10037787122E+04 -0.46198093836E+03  0.89621362954E+03  0.14256238746E+04  0.90589577777E+02 0.  0.
    5000000    2    1    2    0    0 -0.10037787122E+04  0.46198093836E+03 -0.19359504234E+04  0.23084979909E+04  0.60021732858E+03 0.  0.
         23    2    4    4    0    0 -0.12743437608E+03  0.26989876851E+03 -0.79513604081E+03  0.85417738829E+03  0.91064931943E+02 0.  0.
         23    2    4    4    0    0 -0.87634433615E+03  0.19208216984E+03 -0.11408143826E+04  0.14543206026E+04  0.93359542219E+02 0.  0.
          5    1    3    3  502    0  0.49452852562E+03 -0.24475845437E+03  0.39300561401E+03  0.67745159700E+03  0.47000000000E+01 0. -1.
         -5    1    3    3    0  502  0.50925018660E+03 -0.21722248399E+03  0.50320801553E+03  0.74817227762E+03  0.47000000000E+01 0.  1.
         13    1    5    5    0    0 -0.82788380357E+02  0.12554495061E+03 -0.28647381152E+03  0.32354705258E+03  0.00000000000E+00 0. -1.
        -13    1    5    5    0    0 -0.44645995719E+02  0.14435381791E+03 -0.50866222928E+03  0.53063033571E+03  0.00000000000E+00 0.  1.
          2    1    6    6  503    0 -0.39056721088E+03  0.12531000911E+03 -0.56113859253E+03  0.69506968329E+03  0.00000000000E+00 0. -1.
         -2    1    6    6    0  503 -0.48577712527E+03  0.66772160732E+02 -0.57967579010E+03  0.75925091933E+03  0.00000000000E+00 0.  1.
<mgrwt>
<rscale>  0 0.11537369E+04</rscale>
<asrwt>0</asrwt>
<pdfrwt beam="1">  1        1 0.20726039E+00 0.11537369E+04</pdfrwt>
<pdfrwt beam="2">  1       -1 0.36721990E+00 0.11537369E+04</pdfrwt>
<totfact> 0.99516967E-02</totfact>
</mgrwt>
</event>
<event>
12    1  0.3203156E-008  0.7500601E+03  0.7818608E-02  0.9635256E-01
         -1   -1    0    0    0  501 -0.00000000000E+00  0.00000000000E+00  0.23295048547E+03  0.23295048547E+03  0.00000000000E+00 0.  1.
          1   -1    0    0  501    0  0.00000000000E+00 -0.00000000000E+00 -0.33275412243E+04  0.33275412243E+04  0.00000000000E+00 0. -1.
         23    2    1    2    0    0  0.65200582364E+03 -0.24806787662E+03 -0.20552582747E+04  0.21723230602E+04  0.90838520121E+02 0.  0.
    5000000    2    1    2    0    0 -0.65200582364E+03  0.24806787662E+03 -0.10393324641E+04  0.13881686496E+04  0.60012578943E+03 0.  0.
         23    2    4    4    0    0 -0.25795350592E+03  0.29651987236E+03 -0.84454407526E+03  0.93599118729E+03  0.91437200928E+02 0.  0.
         23    2    4    4    0    0 -0.39405231772E+03 -0.48451995743E+02 -0.19478838887E+03  0.45217746226E+03  0.94324524641E+02 0.  0.
          5    1    3    3  502    0  0.20656310860E+03 -0.10966246342E+03 -0.59323413145E+03  0.63768565802E+03  0.47000000000E+01 0. -1.
         -5    1    3    3    0  502  0.44544271504E+03 -0.13840541320E+03 -0.14620241432E+04  0.15346374022E+04  0.47000000000E+01 0.  1.
         11    1    5    5    0    0 -0.28560858624E+02  0.63094252955E+01 -0.10629924629E+03  0.11024999435E+03  0.00000000000E+00 0. -1.
        -11    1    5    5    0    0 -0.22939264730E+03  0.29021044706E+03 -0.73824482897E+03  0.82574119294E+03  0.00000000000E+00 0.  1.
          2    1    6    6  503    0 -0.24627341944E+03 -0.42453882459E+01 -0.76894426677E+02  0.25803366699E+03  0.00000000000E+00 0. -1.
         -2    1    6    6    0  503 -0.14777889828E+03 -0.44206607497E+02 -0.11789396219E+03  0.19414379528E+03  0.00000000000E+00 0.  1.
<mgrwt>
<rscale>  0 0.75006010E+03</rscale>
<asrwt>0</asrwt>
<pdfrwt beam="1">  1        1 0.51192941E+00 0.75006010E+03</pdfrwt>
<pdfrwt beam="2">  1       -1 0.35838537E-01 0.75006010E+03</pdfrwt>
<totfact> 0.27309532E+00</totfact>
</mgrwt>
</event>
<event>
12    1  0.3203156E-008  0.1089160E+04  0.7818608E-02  0.9215822E-01
          2   -1    0    0  501    0  0.00000000000E+00  0.00000000000E+00  0.96365437885E+03  0.96365437885E+03  0.00000000000E+00 0. -1.
         -2   -1    0    0    0  501 -0.00000000000E+00 -0.00000000000E+00 -0.15732432927E+04  0.15732432927E+04  0.00000000000E+00 0.  1.
         23    2    1    2    0    0  0.97642781392E+03 -0.44499130058E+03  0.15704075047E+03  0.10880251142E+04  0.87797029298E+02 0.  0.
    5000000    2    1    2    0    0 -0.97642781392E+03  0.44499130058E+03 -0.76662966428E+03  0.14488725573E+04  0.60006842265E+03 0.  0.
         23    2    4    4    0    0 -0.41661408374E+03  0.76174025426E+02 -0.62112561077E+03  0.75712013480E+03  0.89800318742E+02 0.  0.
         23    2    4    4    0    0 -0.55981373018E+03  0.36881727515E+03 -0.14550405351E+03  0.69175242254E+03  0.89063963216E+02 0.  0.
          5    1    3    3  502    0  0.99147865984E+02 -0.17984259157E+02  0.18171808567E+02  0.10249896357E+03  0.47000000000E+01 0. -1.
         -5    1    3    3    0  502  0.87727994794E+03 -0.42700704142E+03  0.13886894190E+03  0.98552615060E+03  0.47000000000E+01 0.  1.
         13    1    5    5    0    0 -0.26764781071E+03  0.28137920147E+02 -0.32316263858E+03  0.42054867032E+03  0.00000000000E+00 0.  1.
        -13    1    5    5    0    0 -0.14896627303E+03  0.48036105279E+02 -0.29796297219E+03  0.33657146448E+03  0.00000000000E+00 0. -1.
          1    1    6    6  503    0 -0.11900143903E+03  0.12404666598E+03 -0.43729228584E+02  0.17737294964E+03  0.00000000000E+00 0. -1.
         -1    1    6    6    0  503 -0.44081229115E+03  0.24477060917E+03 -0.10177482493E+03  0.51437947290E+03  0.00000000000E+00 0.  1.
<mgrwt>
<rscale>  0 0.10891597E+04</rscale>
<asrwt>0</asrwt>
<pdfrwt beam="1">  1        2 0.14825452E+00 0.10891597E+04</pdfrwt>
<pdfrwt beam="2">  1       -2 0.24203743E+00 0.10891597E+04</pdfrwt>
<totfact> 0.18861672E+00</totfact>
</mgrwt>
</event>
<event>
12    1  0.3203156E-008  0.8193567E+03  0.7818608E-02  0.9532414E-01
         -2   -1    0    0    0  501 -0.00000000000E+00  0.00000000000E+00  0.34301750933E+03  0.34301750933E+03  0.00000000000E+00 0.  1.
          2   -1    0    0  501    0  0.00000000000E+00 -0.00000000000E+00 -0.24469916715E+04  0.24469916715E+04  0.00000000000E+00 0. -1.
         23    2    1    2    0    0 -0.67863707448E+03 -0.41966579279E+03 -0.69325861021E+03  0.10617617404E+04  0.10031368970E+03 0.  0.
    5000000    2    1    2    0    0  0.67863707448E+03  0.41966579279E+03 -0.14107155520E+04  0.17282474404E+04  0.60004432349E+03 0.  0.
         23    2    4    4    0    0  0.34964729353E+03  0.33108140656E+03 -0.32965057627E+03  0.59056356043E+03  0.90706608497E+02 0.  0.
         23    2    4    4    0    0  0.32898978094E+03  0.88584386228E+02 -0.10810649757E+04  0.11376838800E+04  0.97681418898E+02 0.  0.
          5    1    3    3  502    0 -0.24445877421E+03 -0.17264426279E+03 -0.20179277669E+03  0.36098275373E+03  0.47000000000E+01 0. -1.
         -5    1    3    3    0  502 -0.43417830027E+03 -0.24702152999E+03 -0.49146583351E+03  0.70077898671E+03  0.47000000000E+01 0.  1.
         13    1    5    5    0    0  0.11814397782E+03  0.58279370984E+02 -0.10030271817E+03  0.16557511844E+03  0.00000000000E+00 0. -1.
        -13    1    5    5    0    0  0.23150331572E+03  0.27280203557E+03 -0.22934785811E+03  0.42498844198E+03  0.00000000000E+00 0.  1.
          4    1    6    6  503    0  0.10968857266E+03 -0.94688052381E+01 -0.26400709945E+03  0.28604368514E+03  0.00000000000E+00 0. -1.
         -4    1    6    6    0  503  0.21930120829E+03  0.98053191466E+02 -0.81705787624E+03  0.85164019482E+03  0.00000000000E+00 0.  1.
<mgrwt>
<rscale>  0 0.81935669E+03</rscale>
<asrwt>0</asrwt>
<pdfrwt beam="1">  1        2 0.37646026E+00 0.81935669E+03</pdfrwt>
<pdfrwt beam="2">  1       -2 0.52771924E-01 0.81935669E+03</pdfrwt>
<totfact> 0.13099755E+01</totfact>
</mgrwt>
</event>
<event>
12    1  0.3203156E-008  0.7434898E+03  0.7818608E-02  0.9645619E-01
         -2   -1    0    0    0  501 -0.00000000000E+00  0.00000000000E+00  0.41280710536E+03  0.41280710536E+03  0.00000000000E+00 0.  1.
          2   -1    0    0  501    0  0.00000000000E+00 -0.00000000000E+00 -0.25511046336E+04  0.25511046336E+04  0.00000000000E+00 0. -1.
         23    2    1    2    0    0  0.38035992584E+02  0.72401345061E+03 -0.18359595302E+04  0.19761042562E+04  0.92727675199E+02 0.  0.
    5000000    2    1    2    0    0 -0.38035992584E+02 -0.72401345061E+03 -0.30233799812E+03  0.98780748276E+03  0.59892666036E+03 0.  0.
         23    2    4    4    0    0 -0.74173041168E+01 -0.92714757943E+02  0.15497839243E+03  0.20250808251E+03  0.91324578398E+02 0.  0.
         23    2    4    4    0    0 -0.30618688467E+02 -0.63129869266E+03 -0.45731639055E+03  0.78529940025E+03  0.89896181896E+02 0.  0.
          5    1    3    3  502    0  0.27919616772E+02  0.49444311134E+03 -0.11326832474E+04  0.12362228457E+04  0.47000000000E+01 0. -1.
         -5    1    3    3    0  502  0.10116375813E+02  0.22957033927E+03 -0.70327628277E+03  0.73988141053E+03  0.47000000000E+01 0.  1.
         11    1    5    5    0    0 -0.74898854506E+01  0.15060395047E+02  0.44928337616E+01  0.17409751240E+02  0.00000000000E+00 0. -1.
        -11    1    5    5    0    0  0.72581333846E-01 -0.10777515299E+03  0.15048555867E+03  0.18509833127E+03  0.00000000000E+00 0.  1.
          4    1    6    6  503    0  0.19362497444E+02 -0.46645886932E+02 -0.49477008515E+02  0.70701622658E+02  0.00000000000E+00 0. -1.
         -4    1    6    6    0  503 -0.49981185911E+02 -0.58465280573E+03 -0.40783938204E+03  0.71459777759E+03  0.00000000000E+00 0.  1.
<mgrwt>
<rscale>  0 0.74348985E+03</rscale>
<asrwt>0</asrwt>
<pdfrwt beam="1">  1        2 0.39247763E+00 0.74348985E+03</pdfrwt>
<pdfrwt beam="2">  1       -2 0.63508786E-01 0.74348985E+03</pdfrwt>
<totfact> 0.78458368E+00</totfact>
</mgrwt>
</event>
<event>
12    1  0.3203156E-008  0.4765848E+03  0.7818608E-02  0.1020078E+00
         -1   -1    0    0    0  501 -0.00000000000E+00  0.00000000000E+00  0.56515789160E+03  0.56515789160E+03  0.00000000000E+00 0.  1.
          1   -1    0    0  501    0  0.00000000000E+00 -0.00000000000E+00 -0.67641171567E+03  0.67641171567E+03  0.00000000000E+00 0. -1.
         23    2    1    2    0    0 -0.34212840592E+03  0.72990441153E+02  0.26772842960E+03  0.45031524672E+03  0.93412305270E+02 0.  0.
    5000000    2    1    2    0    0  0.34212840592E+03 -0.72990441153E+02 -0.37898225366E+03  0.79125436056E+03  0.60006371651E+03 0.  0.
         23    2    4    4    0    0  0.33584644225E+03  0.14355763266E+03 -0.40607474946E+03  0.55382434719E+03  0.91777332304E+02 0.  0.
         23    2    4    4    0    0  0.62819636640E+01 -0.21654807382E+03  0.27092495795E+02  0.23743001337E+03  0.93308502168E+02 0.  0.
          5    1    3    3  502    0 -0.30328706335E+03  0.74115931410E+02  0.19618245371E+03  0.36876260552E+03  0.47000000000E+01 0. -1.
         -5    1    3    3    0  502 -0.38841342563E+02 -0.11254902575E+01  0.71545975886E+02  0.81552641196E+02  0.47000000000E+01 0.  1.
         11    1    5    5    0    0  0.26762478329E+03  0.14545204167E+03 -0.29883955219E+03  0.42671348586E+03  0.00000000000E+00 0.  1.
        -11    1    5    5    0    0  0.68221658963E+02 -0.18944090029E+01 -0.10723519727E+03  0.12711086134E+03  0.00000000000E+00 0. -1.
          4    1    6    6  503    0 -0.61655999256E+01 -0.21640027660E+03  0.10574101968E+02  0.21674617866E+03  0.00000000000E+00 0. -1.
         -4    1    6    6    0  503  0.12447563590E+02 -0.14779722261E+00  0.16518393828E+02  0.20683834702E+02  0.00000000000E+00 0.  1.
<mgrwt>
<rscale>  0 0.47658476E+03</rscale>
<asrwt>0</asrwt>
<pdfrwt beam="1">  1        1 0.10406334E+00 0.47658476E+03</pdfrwt>
<pdfrwt beam="2">  1       -1 0.86947368E-01 0.47658476E+03</pdfrwt>
<totfact> 0.39549041E+01</totfact>
</mgrwt>
</event>
<event>
12    1  0.3203156E-008  0.5295945E+03  0.7818608E-02  0.1006331E+00
         -1   -1    0    0    0  501 -0.00000000000E+00  0.00000000000E+00  0.11292875020E+03  0.11292875020E+03  0.00000000000E+00 0.  1.
          1   -1    0    0  501    0  0.00000000000E+00 -0.00000000000E+00 -0.28733927169E+04  0.28733927169E+04  0.00000000000E+00 0. -1.
         23    2    1    2    0    0  0.30485524841E+03 -0.22164060201E+03 -0.61643293068E+03  0.72824392850E+03  0.91040553728E+02 0.  0.
    5000000    2    1    2    0    0 -0.30485524841E+03  0.22164060201E+03 -0.21440310360E+04  0.22580775386E+04  0.59998650648E+03 0.  0.
         23    2    4    4    0    0 -0.43399230521E+03  0.30408543741E+02 -0.11320977795E+04  0.12161532564E+04  0.90051985934E+02 0.  0.
         23    2    4    4    0    0  0.12913705680E+03  0.19123205827E+03 -0.10119332565E+04  0.10419242822E+04  0.91384980457E+02 0.  0.
          5    1    3    3  502    0  0.98761654709E+02 -0.73499534220E+02 -0.12726241122E+03  0.17712667016E+03  0.47000000000E+01 0. -1.
         -5    1    3    3    0  502  0.20609359370E+03 -0.14814106779E+03 -0.48917051946E+03  0.55111725834E+03  0.47000000000E+01 0.  1.
         11    1    5    5    0    0 -0.37573641573E+03  0.35887012463E+02 -0.88324947312E+03  0.96051827860E+03  0.00000000000E+00 0. -1.
        -11    1    5    5    0    0 -0.58255889480E+02 -0.54784687221E+01 -0.24884830643E+03  0.25563497783E+03  0.00000000000E+00 0.  1.
          4    1    6    6  503    0 -0.36832866166E+01  0.57759706130E+02 -0.18590336679E+03  0.19470442223E+03  0.00000000000E+00 0. -1.
         -4    1    6    6    0  503  0.13282034342E+03  0.13347235214E+03 -0.82602988968E+03  0.84721985993E+03  0.00000000000E+00 0.  1.
<mgrwt>
<rscale>  0 0.52959447E+03</rscale>
<asrwt>0</asrwt>
<pdfrwt beam="1">  1        1 0.44206035E+00 0.52959447E+03</pdfrwt>
<pdfrwt beam="2">  1       -1 0.17373657E-01 0.52959447E+03</pdfrwt>
<totfact> 0.20942898E+01</totfact>
</mgrwt>
</event>
<event>
12    1  0.3203156E-008  0.3900106E+03  0.7818608E-02  0.1047295E+00
          1   -1    0    0  501    0  0.00000000000E+00  0.00000000000E+00  0.91548639705E+03  0.91548639705E+03  0.00000000000E+00 0. -1.
         -1   -1    0    0    0  501 -0.00000000000E+00 -0.00000000000E+00 -0.28363083542E+03  0.28363083542E+03  0.00000000000E+00 0.  1.
         23    2    1    2    0    0 -0.14064388526E+03  0.28976117886E+03  0.16073800959E+03  0.37104482646E+03  0.89973953345E+02 0.  0.
    5000000    2    1    2    0    0  0.14064388526E+03 -0.28976117886E+03  0.47111755204E+03  0.82807240601E+03  0.60000826538E+03 0.  0.
         23    2    4    4    0    0  0.21080090210E+03 -0.27511708468E+03  0.57058132547E+03  0.67370843311E+03  0.90518358706E+02 0.  0.
         23    2    4    4    0    0 -0.70157016841E+02 -0.14644094180E+02 -0.99463773432E+02  0.15436397290E+03  0.93801585258E+02 0.  0.
          5    1    3    3  502    0 -0.11937110320E+03  0.25467939340E+03  0.17005298939E+03  0.32871136717E+03  0.47000000000E+01 0. -1.
         -5    1    3    3    0  502 -0.21272782055E+02  0.35081785457E+02 -0.93149797967E+01  0.42333459294E+02  0.47000000000E+01 0.  1.
         11    1    5    5    0    0  0.17558901406E+03 -0.23616373482E+03  0.53397020856E+03  0.60969582181E+03  0.00000000000E+00 0.  1.
        -11    1    5    5    0    0  0.35211888037E+02 -0.38953349857E+02  0.36611116912E+02  0.64012611303E+02  0.00000000000E+00 0. -1.
          2    1    6    6  503    0  0.14370468794E+02  0.15260082333E+02 -0.44518007105E+02  0.49206030553E+02  0.00000000000E+00 0. -1.
         -2    1    6    6    0  503 -0.84527485636E+02 -0.29904176513E+02 -0.54945766327E+02  0.10515794234E+03  0.00000000000E+00 0.  1.
<mgrwt>
<rscale>  0 0.39001059E+03</rscale>
<asrwt>0</asrwt>
<pdfrwt beam="1">  1        1 0.14084406E+00 0.39001059E+03</pdfrwt>
<pdfrwt beam="2">  1       -1 0.43635514E-01 0.39001059E+03</pdfrwt>
<totfact> 0.97180316E+01</totfact>
</mgrwt>
</event>
<event>
12    1  0.3203156E-008  0.5566726E+03  0.7818608E-02  0.9999612E-01
         -2   -1    0    0    0  501 -0.00000000000E+00  0.00000000000E+00  0.10076054319E+04  0.10076054319E+04  0.00000000000E+00 0.  1.
          2   -1    0    0  501    0  0.00000000000E+00 -0.00000000000E+00 -0.47361432073E+03  0.47361432073E+03  0.00000000000E+00 0. -1.
         23    2    1    2    0    0  0.25956434792E+03  0.47739799359E+03  0.90263433337E+02  0.55808946576E+03  0.89631854890E+02 0.  0.
    5000000    2    1    2    0    0 -0.25956434792E+03 -0.47739799359E+03  0.44372767783E+03  0.92313028687E+03  0.59999398286E+03 0.  0.
         23    2    4    4    0    0 -0.14412467469E+03 -0.31239736232E+03  0.56839869965E+03  0.66926280724E+03  0.80446190336E+02 0.  0.
         23    2    4    4    0    0 -0.11543967323E+03 -0.16500063126E+03 -0.12467102183E+03  0.25386747963E+03  0.91401898557E+02 0.  0.
          5    1    3    3  502    0  0.25063352805E+02  0.90922753795E+02 -0.10204400897E+02  0.94980727567E+02  0.47000000000E+01 0. -1.
         -5    1    3    3    0  502  0.23450099511E+03  0.38647523979E+03  0.10046783423E+03  0.46310873820E+03  0.47000000000E+01 0.  1.
         11    1    5    5    0    0 -0.89064756542E+02 -0.10741197087E+03  0.25645538030E+03  0.29195757299E+03  0.00000000000E+00 0. -1.
        -11    1    5    5    0    0 -0.55059918150E+02 -0.20498539146E+03  0.31194331936E+03  0.37730523425E+03  0.00000000000E+00 0.  1.
          3    1    6    6  503    0 -0.18941891762E+02  0.49815071895E+01 -0.32072723200E+02  0.37580184284E+02  0.00000000000E+00 0. -1.
         -3    1    6    6    0  503 -0.96497781464E+02 -0.16998213845E+03 -0.92598298627E+02  0.21628729535E+03  0.00000000000E+00 0.  1.
<mgrwt>
<rscale>  0 0.55667257E+03</rscale>
<asrwt>0</asrwt>
<pdfrwt beam="1">  1        2 0.72863742E-01 0.55667257E+03</pdfrwt>
<pdfrwt beam="2">  1       -2 0.15501622E+00 0.55667257E+03</pdfrwt>
<totfact> 0.18609301E+01</totfact>
</mgrwt>
</event>
<event>
12    1  0.3203156E-008  0.9074432E+03  0.7818608E-02  0.9416325E-01
          1   -1    0    0  501    0  0.00000000000E+00  0.00000000000E+00  0.14259569622E+04  0.14259569622E+04  0.00000000000E+00 0. -1.
         -1   -1    0    0    0  501 -0.00000000000E+00 -0.00000000000E+00 -0.71473899065E+03  0.71473899065E+03  0.00000000000E+00 0.  1.
         23    2    1    2    0    0 -0.79847052817E+03  0.38176827588E+03  0.58339227482E+03  0.10638589853E+04  0.90261804961E+02 0.  0.
    5000000    2    1    2    0    0  0.79847052817E+03 -0.38176827588E+03  0.12782569673E+03  0.10768369675E+04  0.59994686857E+03 0.  0.
         23    2    4    4    0    0  0.44825125440E+03 -0.70683723339E+02 -0.19344489661E+03  0.50150613706E+03  0.90344350554E+02 0.  0.
         23    2    4    4    0    0  0.35021927377E+03 -0.31108455254E+03  0.32127059333E+03  0.57533083049E+03  0.91452893959E+02 0.  0.
          5    1    3    3  502    0 -0.39929481191E+03  0.17861612289E+03  0.23627217493E+03  0.49717873730E+03  0.47000000000E+01 0. -1.
         -5    1    3    3    0  502 -0.39917571626E+03  0.20315215299E+03  0.34712009989E+03  0.56668024799E+03  0.47000000000E+01 0.  1.
         13    1    5    5    0    0  0.35045502988E+03 -0.51766397792E+02 -0.10823437397E+03  0.37042295774E+03  0.00000000000E+00 0.  1.
        -13    1    5    5    0    0  0.97796224518E+02 -0.18917325548E+02 -0.85210522632E+02  0.13108317933E+03  0.00000000000E+00 0. -1.
          4    1    6    6  503    0  0.24247964010E+03 -0.16164433855E+03  0.21971003293E+03  0.36496269209E+03  0.00000000000E+00 0.  1.
         -4    1    6    6    0  503  0.10773963368E+03 -0.14944021399E+03  0.10156056040E+03  0.21036813840E+03  0.00000000000E+00 0. -1.
<mgrwt>
<rscale>  0 0.90744322E+03</rscale>
<asrwt>0</asrwt>
<pdfrwt beam="1">  1        1 0.21937799E+00 0.90744322E+03</pdfrwt>
<pdfrwt beam="2">  1       -1 0.10995984E+00 0.90744322E+03</pdfrwt>
<totfact> 0.57208343E+00</totfact>
</mgrwt>
</event>
<event>
12    1  0.3203156E-008  0.6515475E+03  0.7818608E-02  0.9803880E-01
         -3   -1    0    0    0  501 -0.00000000000E+00  0.00000000000E+00  0.11817696961E+04  0.11817696961E+04  0.00000000000E+00 0.  1.
          3   -1    0    0  501    0  0.00000000000E+00 -0.00000000000E+00 -0.50907978669E+03  0.50907978669E+03  0.00000000000E+00 0. -1.
         23    2    1    2    0    0  0.55707803994E+03 -0.28454238200E+03  0.50297736489E+03  0.80765507835E+03  0.89555492612E+02 0.  0.
    5000000    2    1    2    0    0 -0.55707803994E+03  0.28454238200E+03  0.16971254448E+03  0.88319440441E+03  0.59994141255E+03 0.  0.
         23    2    4    4    0    0 -0.37476335108E+03  0.90982545843E+02  0.36864141901E+03  0.54067165815E+03  0.87772166186E+02 0.  0.
         23    2    4    4    0    0 -0.18231468886E+03  0.19355983615E+03 -0.19892887453E+03  0.34252274626E+03  0.83934966723E+02 0.  0.
          5    1    3    3  502    0  0.16477258361E+03 -0.44716936639E+02  0.15965508742E+03  0.23379787354E+03  0.47000000000E+01 0. -1.
         -5    1    3    3    0  502  0.39230545632E+03 -0.23982544536E+03  0.34332227747E+03  0.57385720481E+03  0.47000000000E+01 0.  1.
         13    1    5    5    0    0 -0.22027358789E+03  0.97488131029E+02  0.22361870664E+03  0.32867874159E+03  0.00000000000E+00 0. -1.
        -13    1    5    5    0    0 -0.15448976319E+03 -0.65055851856E+01  0.14502271237E+03  0.21199291656E+03  0.00000000000E+00 0.  1.
          4    1    6    6  503    0 -0.54784480214E+02  0.13692648819E+02 -0.57383141598E+02  0.80508712843E+02  0.00000000000E+00 0.  1.
         -4    1    6    6    0  503 -0.12753020864E+03  0.17986718733E+03 -0.14154573293E+03  0.26201403341E+03  0.00000000000E+00 0. -1.
<mgrwt>
<rscale>  0 0.65154750E+03</rscale>
<asrwt>0</asrwt>
<pdfrwt beam="1">  1        3 0.78319968E-01 0.65154750E+03</pdfrwt>
<pdfrwt beam="2">  1       -3 0.18181072E+00 0.65154750E+03</pdfrwt>
<totfact> 0.76731297E-01</totfact>
</mgrwt>
</event>
<event>
12    1  0.3203156E-008  0.1265266E+04  0.7818608E-02  0.9057572E-01
         -2   -1    0    0    0  501 -0.00000000000E+00  0.00000000000E+00  0.75668675784E+03  0.75668675784E+03  0.00000000000E+00 0.  1.
          2   -1    0    0  501    0  0.00000000000E+00 -0.00000000000E+00 -0.21537632726E+04  0.21537632726E+04  0.00000000000E+00 0. -1.
         23    2    1    2    0    0  0.14218465501E+03 -0.11957451035E+04 -0.68052984957E+03  0.13861747666E+04  0.91305962648E+02 0.  0.
    5000000    2    1    2    0    0 -0.14218465501E+03  0.11957451035E+04 -0.71654666519E+03  0.15242752638E+04  0.59996093854E+03 0.  0.
         23    2    4    4    0    0 -0.20226034974E+03  0.97913768642E+02 -0.13491109676E+03  0.27720235060E+03  0.90242916514E+02 0.  0.
         23    2    4    4    0    0  0.60075694728E+02  0.10978313349E+04 -0.58163556842E+03  0.12470729132E+04  0.89711690890E+02 0.  0.
          5    1    3    3  502    0  0.62050426288E+02 -0.66264146698E+03 -0.32761160611E+03  0.74181899653E+03  0.47000000000E+01 0. -1.
         -5    1    3    3    0  502  0.80134228725E+02 -0.53310363653E+03 -0.35291824346E+03  0.64435577010E+03  0.47000000000E+01 0.  1.
         11    1    5    5    0    0 -0.66392412172E+02  0.32105239271E+02 -0.96449822894E+02  0.12141361999E+03  0.00000000000E+00 0.  1.
        -11    1    5    5    0    0 -0.13586793757E+03  0.65808529371E+02 -0.38461273867E+02  0.15578873061E+03  0.00000000000E+00 0. -1.
          2    1    6    6  503    0 -0.28942522003E+01  0.50027630512E+03 -0.30153063487E+03  0.58412796708E+03  0.00000000000E+00 0.  1.
         -2    1    6    6    0  503  0.62969946929E+02  0.59755502974E+03 -0.28010493355E+03  0.66294494612E+03  0.00000000000E+00 0. -1.
<mgrwt>
<rscale>  0 0.12652663E+04</rscale>
<asrwt>0</asrwt>
<pdfrwt beam="1">  1        2 0.33134819E+00 0.12652663E+04</pdfrwt>
<pdfrwt beam="2">  1       -2 0.11641335E+00 0.12652663E+04</pdfrwt>
<totfact> 0.30465021E+00</totfact>
</mgrwt>
</event>
<event>
12    1  0.3203156E-008  0.2096877E+04  0.7818608E-02  0.8562620E-01
          1   -1    0    0  501    0  0.00000000000E+00  0.00000000000E+00  0.20561154064E+04  0.20561154064E+04  0.00000000000E+00 0. -1.
         -1   -1    0    0    0  501 -0.00000000000E+00 -0.00000000000E+00 -0.21800953108E+04  0.21800953108E+04  0.00000000000E+00 0.  1.
         23    2    1    2    0    0  0.19956884465E+04  0.50433788431E+03 -0.31143306271E+03  0.20839346928E+04  0.93081545018E+02 0.  0.
    5000000    2    1    2    0    0 -0.19956884465E+04 -0.50433788431E+03  0.18745315834E+03  0.21522760244E+04  0.60002026748E+03 0.  0.
         23    2    4    4    0    0 -0.61301683585E+03 -0.42736326353E+03  0.12406329384E+03  0.76314995065E+03  0.92612883811E+02 0.  0.
         23    2    4    4    0    0 -0.13826716107E+04 -0.76974620783E+02  0.63389864501E+02  0.13891260737E+04  0.89146500639E+02 0.  0.
          5    1    3    3  502    0  0.13633297610E+04  0.30015908819E+03 -0.20650824864E+03  0.14111808042E+04  0.47000000000E+01 0. -1.
         -5    1    3    3    0  502  0.63235868558E+03  0.20417879612E+03 -0.10492481407E+03  0.67275388859E+03  0.47000000000E+01 0.  1.
         13    1    5    5    0    0 -0.14043604364E+03 -0.85584830195E+02  0.65403666113E+02  0.17698781047E+03  0.00000000000E+00 0. -1.
        -13    1    5    5    0    0 -0.47258079221E+03 -0.34177843333E+03  0.58659627722E+02  0.58616214018E+03  0.00000000000E+00 0.  1.
          2    1    6    6  503    0 -0.63926009582E+03 -0.58386044033E+02 -0.88478553901E+01  0.64198184148E+03  0.00000000000E+00 0.  1.
         -2    1    6    6    0  503 -0.74341151487E+03 -0.18588576750E+02  0.72237719891E+02  0.74714423226E+03  0.00000000000E+00 0. -1.
<mgrwt>
<rscale>  0 0.20968773E+04</rscale>
<asrwt>0</asrwt>
<pdfrwt beam="1">  1        1 0.31632545E+00 0.20968773E+04</pdfrwt>
<pdfrwt beam="2">  1       -1 0.33539928E+00 0.20968773E+04</pdfrwt>
<totfact> 0.46674331E-02</totfact>
</mgrwt>
</event>
<event>
12    1  0.3203156E-008  0.1169511E+04  0.7818608E-02  0.9139970E-01
         -1   -1    0    0    0  501 -0.00000000000E+00  0.00000000000E+00  0.15425641630E+04  0.15425641630E+04  0.00000000000E+00 0.  1.
          1   -1    0    0  501    0  0.00000000000E+00 -0.00000000000E+00 -0.11820405552E+04  0.11820405552E+04  0.00000000000E+00 0. -1.
         23    2    1    2    0    0  0.33004633814E+03  0.10535767713E+04 -0.48556592983E+03  0.12097091163E+04  0.93098203253E+02 0.  0.
    5000000    2    1    2    0    0 -0.33004633814E+03 -0.10535767713E+04  0.84608953770E+03  0.15148956019E+04  0.60007214617E+03 0.  0.
         23    2    4    4    0    0  0.13178182384E+03 -0.16902884147E+03  0.57771941808E+02  0.24001817430E+03  0.91290352140E+02 0.  0.
         23    2    4    4    0    0 -0.46182816198E+03 -0.88454792983E+03  0.78831759589E+03  0.12748774276E+04  0.90319057318E+02 0.  0.
          5    1    3    3  502    0  0.19815744314E+02  0.99858788931E+02 -0.72437462488E+02  0.12503486482E+03  0.47000000000E+01 0. -1.
         -5    1    3    3    0  502  0.31023059382E+03  0.95371798237E+03 -0.41312846734E+03  0.10846742515E+04  0.47000000000E+01 0.  1.
         13    1    5    5    0    0  0.11769170072E+03 -0.80343301002E+02  0.44217324680E+02  0.14920306376E+03  0.00000000000E+00 0.  1.
        -13    1    5    5    0    0  0.14090123119E+02 -0.88685540466E+02  0.13554617127E+02  0.90815110541E+02  0.00000000000E+00 0. -1.
          2    1    6    6  503    0 -0.10217809829E+03 -0.28478578958E+03  0.23281065768E+03  0.38176447195E+03  0.00000000000E+00 0. -1.
         -2    1    6    6    0  503 -0.35965006369E+03 -0.59976214025E+03  0.55550693821E+03  0.89311295568E+03  0.00000000000E+00 0.  1.
<mgrwt>
<rscale>  0 0.11695107E+04</rscale>
<asrwt>0</asrwt>
<pdfrwt beam="1">  1        1 0.18185239E+00 0.11695107E+04</pdfrwt>
<pdfrwt beam="2">  1       -1 0.23731756E+00 0.11695107E+04</pdfrwt>
<totfact> 0.91578831E-01</totfact>
</mgrwt>
</event>
<event>
12    1  0.3203156E-008  0.5203858E+03  0.7818608E-02  0.1008591E+00
          1   -1    0    0  501    0  0.00000000000E+00  0.00000000000E+00  0.16119234389E+04  0.16119234389E+04  0.00000000000E+00 0. -1.
         -1   -1    0    0    0  501 -0.00000000000E+00 -0.00000000000E+00 -0.23199369872E+03  0.23199369872E+03  0.00000000000E+00 0.  1.
         23    2    1    2    0    0  0.41597406980E+03 -0.19551927068E+03  0.51585027391E+03  0.69593814698E+03  0.83463688956E+02 0.  0.
    5000000    2    1    2    0    0 -0.41597406980E+03  0.19551927068E+03  0.86407946625E+03  0.11479789906E+04  0.59996685489E+03 0.  0.
         23    2    4    4    0    0 -0.30288033350E+03  0.26693579757E+03  0.19104763956E+03  0.45585680807E+03  0.91186690034E+02 0.  0.
         23    2    4    4    0    0 -0.11309373631E+03 -0.71416526890E+02  0.67303182669E+03  0.69212218256E+03  0.90392269248E+02 0.  0.
          5    1    3    3  502    0  0.25174161892E+03 -0.73172186579E+02  0.28252534290E+03  0.38544866191E+03  0.47000000000E+01 0. -1.
         -5    1    3    3    0  502  0.16423245089E+03 -0.12234708410E+03  0.23332493100E+03  0.31048948507E+03  0.47000000000E+01 0.  1.
         11    1    5    5    0    0 -0.23968780428E+03  0.15585776302E+03  0.12560034912E+03  0.31227765452E+03  0.00000000000E+00 0.  1.
        -11    1    5    5    0    0 -0.63192529219E+02  0.11107803455E+03  0.65447290441E+02  0.14357915355E+03  0.00000000000E+00 0. -1.
          2    1    6    6  503    0  0.92320668924E+01 -0.29182396576E+02  0.96198550417E+02  0.10095050486E+03  0.00000000000E+00 0. -1.
         -2    1    6    6    0  503 -0.12232580320E+03 -0.42234130314E+02  0.57683327628E+03  0.59117167770E+03  0.00000000000E+00 0.  1.
<mgrwt>
<rscale>  0 0.52038579E+03</rscale>
<asrwt>0</asrwt>
<pdfrwt beam="1">  1        1 0.24798821E+00 0.52038579E+03</pdfrwt>
<pdfrwt beam="2">  1       -1 0.35691339E-01 0.52038579E+03</pdfrwt>
<totfact> 0.43634265E+01</totfact>
</mgrwt>
</event>
<event>
12    1  0.3203156E-008  0.1191919E+04  0.7818608E-02  0.9119959E-01
          2   -1    0    0  501    0  0.00000000000E+00  0.00000000000E+00  0.22266305362E+04  0.22266305362E+04  0.00000000000E+00 0. -1.
         -2   -1    0    0    0  501 -0.00000000000E+00 -0.00000000000E+00 -0.83682612257E+03  0.83682612257E+03  0.00000000000E+00 0.  1.
         23    2    1    2    0    0  0.47306172713E+03  0.10280540054E+04  0.13743564457E+04  0.17827660216E+04  0.93362797708E+02 0.  0.
    5000000    2    1    2    0    0 -0.47306172713E+03 -0.10280540054E+04  0.15447967855E+02  0.12806906372E+04  0.59937253255E+03 0.  0.
         23    2    4    4    0    0 -0.29378064066E+03 -0.10175673920E+04  0.84277432429E+02  0.10663321173E+04  0.90614771211E+02 0.  0.
         23    2    4    4    0    0 -0.17928108648E+03 -0.10486613381E+02 -0.68829464574E+02  0.21435851983E+03  0.94659404201E+02 0.  0.
          5    1    3    3  502    0  0.18789696154E+03  0.37785037435E+03  0.44582546551E+03  0.61388810808E+03  0.47000000000E+01 0. -1.
         -5    1    3    3    0  502  0.28516476559E+03  0.65020363104E+03  0.92853098024E+03  0.11688779135E+04  0.47000000000E+01 0.  1.
         11    1    5    5    0    0 -0.10100992599E+03 -0.30751603773E+03  0.66060198499E+02  0.33035294525E+03  0.00000000000E+00 0.  1.
        -11    1    5    5    0    0 -0.19277071466E+03 -0.71005135427E+03  0.18217233930E+02  0.73597917209E+03  0.00000000000E+00 0. -1.
          1    1    6    6  503    0 -0.46671107637E+02 -0.33951280110E+02 -0.53715475258E+02  0.78843097297E+02  0.00000000000E+00 0. -1.
         -1    1    6    6    0  503 -0.13260997884E+03  0.23464666729E+02 -0.15113989316E+02  0.13551542254E+03  0.00000000000E+00 0.  1.
<mgrwt>
<rscale>  0 0.11919195E+04</rscale>
<asrwt>0</asrwt>
<pdfrwt beam="1">  1        2 0.34255854E+00 0.11919195E+04</pdfrwt>
<pdfrwt beam="2">  1       -2 0.12874248E+00 0.11919195E+04</pdfrwt>
<totfact> 0.21713475E+00</totfact>
</mgrwt>
</event>
<event>
12    1  0.3203156E-008  0.8216213E+03  0.7818608E-02  0.9529238E-01
         -1   -1    0    0    0  501 -0.00000000000E+00  0.00000000000E+00  0.29166743655E+03  0.29166743655E+03  0.00000000000E+00 0.  1.
          1   -1    0    0  501    0  0.00000000000E+00 -0.00000000000E+00 -0.28223811438E+04  0.28223811438E+04  0.00000000000E+00 0. -1.
         23    2    1    2    0    0 -0.44947102604E+02  0.77514657022E+03 -0.76401045782E+03  0.10931417756E+04  0.91512373417E+02 0.  0.
    5000000    2    1    2    0    0  0.44947102604E+02 -0.77514657022E+03 -0.17667032494E+04  0.20209068048E+04  0.59995957755E+03 0.  0.
         23    2    4    4    0    0 -0.11707735307E+03 -0.74354538725E+02 -0.77347658920E+03  0.79111355874E+03  0.91427155432E+02 0.  0.
         23    2    4    4    0    0  0.16202445567E+03 -0.70079203150E+03 -0.99322666022E+03  0.12297932460E+04  0.92362512771E+02 0.  0.
          5    1    3    3  502    0 -0.41159234748E+02  0.18633428347E+03 -0.22250486978E+03  0.29316387035E+03  0.47000000000E+01 0. -1.
         -5    1    3    3    0  502 -0.37878678560E+01  0.58881228675E+03 -0.54150558804E+03  0.79997790523E+03  0.47000000000E+01 0.  1.
         13    1    5    5    0    0 -0.82091317800E+02 -0.46681590792E+02 -0.69030759855E+03  0.69673720727E+03  0.00000000000E+00 0. -1.
        -13    1    5    5    0    0 -0.34986035268E+02 -0.27672947934E+02 -0.83168990649E+02  0.94376351470E+02  0.00000000000E+00 0.  1.
          4    1    6    6  503    0  0.15319138873E+03 -0.48762188227E+03 -0.72516725592E+03  0.88719234144E+03  0.00000000000E+00 0. -1.
         -4    1    6    6    0  503  0.88330669412E+01 -0.21317014923E+03 -0.26805940430E+03  0.34260090459E+03  0.00000000000E+00 0.  1.
<mgrwt>
<rscale>  0 0.82162127E+03</rscale>
<asrwt>0</asrwt>
<pdfrwt beam="1">  1        1 0.43421247E+00 0.82162127E+03</pdfrwt>
<pdfrwt beam="2">  1       -1 0.44871914E-01 0.82162127E+03</pdfrwt>
<totfact> 0.41617272E+00</totfact>
</mgrwt>
</event>
<event>
12    1  0.3203156E-008  0.7620710E+03  0.7818608E-02  0.9616601E-01
         -2   -1    0    0    0  501 -0.00000000000E+00  0.00000000000E+00  0.33624606543E+03  0.33624606543E+03  0.00000000000E+00 0.  1.
          2   -1    0    0  501    0  0.00000000000E+00 -0.00000000000E+00 -0.20198225772E+04  0.20198225772E+04  0.00000000000E+00 0. -1.
         23    2    1    2    0    0  0.53654228896E+03 -0.37838774975E+03 -0.33920609719E+03  0.74413892434E+03  0.87332956829E+02 0.  0.
    5000000    2    1    2    0    0 -0.53654228896E+03  0.37838774975E+03 -0.13443704146E+04  0.16119297183E+04  0.59994223734E+03 0.  0.
         23    2    4    4    0    0 -0.59931927684E+03  0.13434318339E+03 -0.96228699309E+03  0.11451380027E+04  0.90072756918E+02 0.  0.
         23    2    4    4    0    0  0.62776987878E+02  0.24404456636E+03 -0.38208342153E+03  0.46679171568E+03  0.91695497406E+02 0.  0.
          5    1    3    3  502    0  0.31603340785E+03 -0.24616515536E+03 -0.24861342962E+03  0.47149244531E+03  0.47000000000E+01 0.  1.
         -5    1    3    3    0  502  0.22050888110E+03 -0.13222259438E+03 -0.90592667570E+02  0.27264647903E+03  0.47000000000E+01 0. -1.
         13    1    5    5    0    0 -0.42413334191E+03  0.10205353040E+03 -0.75363796016E+03  0.87078940610E+03  0.00000000000E+00 0. -1.
        -13    1    5    5    0    0 -0.17518593493E+03  0.32289652994E+02 -0.20864903293E+03  0.27434859655E+03  0.00000000000E+00 0.  1.
          2    1    6    6  503    0  0.27132119074E+02  0.10390507933E+03 -0.24516299692E+03  0.26765147572E+03  0.00000000000E+00 0. -1.
         -2    1    6    6    0  503  0.35644868804E+02  0.14013948703E+03 -0.13692042461E+03  0.19914023996E+03  0.00000000000E+00 0.  1.
<mgrwt>
<rscale>  0 0.76207096E+03</rscale>
<asrwt>0</asrwt>
<pdfrwt beam="1">  1        2 0.31074194E+00 0.76207096E+03</pdfrwt>
<pdfrwt beam="2">  1       -2 0.51730164E-01 0.76207096E+03</pdfrwt>
<totfact> 0.23729164E+01</totfact>
</mgrwt>
</event>
<event>
12    1  0.3203156E-008  0.8936334E+03  0.7818608E-02  0.9433575E-01
         -2   -1    0    0    0  501 -0.00000000000E+00  0.00000000000E+00  0.24416231224E+03  0.24416231224E+03  0.00000000000E+00 0.  1.
          2   -1    0    0  501    0  0.00000000000E+00 -0.00000000000E+00 -0.35578396769E+04  0.35578396769E+04  0.00000000000E+00 0. -1.
         23    2    1    2    0    0  0.66456495475E+03  0.49312550419E+03 -0.16811198368E+04  0.18758621106E+04  0.88743509137E+02 0.  0.
    5000000    2    1    2    0    0 -0.66456495475E+03 -0.49312550419E+03 -0.16325575279E+04  0.19261398785E+04  0.59995950524E+03 0.  0.
         23    2    4    4    0    0 -0.56376054278E+03 -0.58892234308E+03 -0.11291366946E+04  0.13957559950E+04  0.92356086717E+02 0.  0.
         23    2    4    4    0    0 -0.10080441197E+03  0.95796838889E+02 -0.50342083325E+03  0.53038388351E+03  0.92390284773E+02 0.  0.
          5    1    3    3  502    0  0.16686986262E+03  0.17026247959E+03 -0.45103230381E+03  0.51018339064E+03  0.47000000000E+01 0. -1.
         -5    1    3    3    0  502  0.49769509212E+03  0.32286302460E+03 -0.12300875330E+04  0.13656787200E+04  0.47000000000E+01 0.  1.
         13    1    5    5    0    0 -0.35227668597E+03 -0.39882780545E+03 -0.66871987341E+03  0.85460444123E+03  0.00000000000E+00 0. -1.
        -13    1    5    5    0    0 -0.21148385681E+03 -0.19009453763E+03 -0.46041682120E+03  0.54115155379E+03  0.00000000000E+00 0.  1.
          3    1    6    6  503    0 -0.95250785640E+02  0.90634901216E+02 -0.30893425900E+03  0.33574957016E+03  0.00000000000E+00 0. -1.
         -3    1    6    6    0  503 -0.55536263314E+01  0.51619376735E+01 -0.19448657425E+03  0.19463431334E+03  0.00000000000E+00 0.  1.
<mgrwt>
<rscale>  0 0.89363339E+03</rscale>
<asrwt>0</asrwt>
<pdfrwt beam="1">  1        2 0.54735995E+00 0.89363339E+03</pdfrwt>
<pdfrwt beam="2">  1       -2 0.37563433E-01 0.89363339E+03</pdfrwt>
<totfact> 0.52276700E+00</totfact>
</mgrwt>
</event>
<event>
12    1  0.3203156E-008  0.6086562E+03  0.7818608E-02  0.9887608E-01
         -1   -1    0    0    0  501 -0.00000000000E+00  0.00000000000E+00  0.85569623773E+03  0.85569623773E+03  0.00000000000E+00 0.  1.
          1   -1    0    0  501    0  0.00000000000E+00 -0.00000000000E+00 -0.60875831115E+03  0.60875831115E+03  0.00000000000E+00 0. -1.
         23    2    1    2    0    0  0.45124880591E+03  0.38134039146E+03  0.51310643867E+02  0.59983500893E+03  0.90129222589E+02 0.  0.
    5000000    2    1    2    0    0 -0.45124880591E+03 -0.38134039146E+03  0.19562728271E+03  0.86461953995E+03  0.60020907700E+03 0.  0.
         23    2    4    4    0    0 -0.38343112390E+03 -0.31365249787E+03  0.38471187189E+03  0.63374222543E+03  0.90712004344E+02 0.  0.
         23    2    4    4    0    0 -0.67817682017E+02 -0.67687893592E+02 -0.18908458917E+03  0.23087731451E+03  0.91490237522E+02 0.  0.
          5    1    3    3  502    0  0.37826021933E+03  0.34960295279E+03  0.24354816949E+02  0.51567263379E+03  0.47000000000E+01 0. -1.
         -5    1    3    3    0  502  0.72988586579E+02  0.31737438669E+02  0.26955826918E+02  0.84162375138E+02  0.47000000000E+01 0.  1.
         11    1    5    5    0    0 -0.17810616488E+03 -0.96921724175E+02  0.12627120408E+03  0.23887244203E+03  0.00000000000E+00 0.  1.
        -11    1    5    5    0    0 -0.20532495902E+03 -0.21673077369E+03  0.25844066781E+03  0.39486978340E+03  0.00000000000E+00 0. -1.
          4    1    6    6  503    0 -0.69131700147E+02 -0.81740750794E+02 -0.18846660649E+03  0.21674963453E+03  0.00000000000E+00 0. -1.
         -4    1    6    6    0  503  0.13140181299E+01  0.14052857202E+02 -0.61798268077E+00  0.14127679986E+02  0.00000000000E+00 0.  1.
<mgrwt>
<rscale>  0 0.60865618E+03</rscale>
<asrwt>0</asrwt>
<pdfrwt beam="1">  1        1 0.93655125E-01 0.60865618E+03</pdfrwt>
<pdfrwt beam="2">  1       -1 0.13164557E+00 0.60865618E+03</pdfrwt>
<totfact> 0.17230215E+01</totfact>
</mgrwt>
</event>
<event>
12    1  0.3203156E-008  0.7592090E+03  0.7818608E-02  0.9621013E-01
         -2   -1    0    0    0  501 -0.00000000000E+00  0.00000000000E+00  0.19886380057E+03  0.19886380057E+03  0.00000000000E+00 0.  1.
          2   -1    0    0  501    0  0.00000000000E+00 -0.00000000000E+00 -0.38179188032E+04  0.38179188032E+04  0.00000000000E+00 0. -1.
         23    2    1    2    0    0  0.60197397629E+03 -0.24613991710E+03 -0.67285803263E+03  0.94057338419E+03  0.94777803505E+02 0.  0.
    5000000    2    1    2    0    0 -0.60197397629E+03  0.24613991710E+03 -0.29461969700E+04  0.30762092196E+04  0.60002420766E+03 0.  0.
         23    2    4    4    0    0 -0.52886666834E+03 -0.59171362470E+02 -0.21245874740E+04  0.21921236212E+04  0.91284352228E+02 0.  0.
         23    2    4    4    0    0 -0.73107307953E+02  0.30531127957E+03 -0.82160949603E+03  0.88408559842E+03  0.89473601994E+02 0.  0.
          5    1    3    3  502    0  0.32243173436E+03 -0.81380137025E+02 -0.34982037154E+03  0.48268139841E+03  0.47000000000E+01 0. -1.
         -5    1    3    3    0  502  0.27954224193E+03 -0.16475978008E+03 -0.32303766109E+03  0.45789198578E+03  0.47000000000E+01 0.  1.
         13    1    5    5    0    0 -0.12372137239E+03 -0.53395572318E+02 -0.52883017419E+03  0.54572833742E+03  0.00000000000E+00 0. -1.
        -13    1    5    5    0    0 -0.40514529595E+03 -0.57757901515E+01 -0.15957572998E+04  0.16463952838E+04  0.00000000000E+00 0.  1.
          3    1    6    6  503    0  0.74179651909E+01  0.10828713974E+03 -0.35502775350E+03  0.37124902235E+03  0.00000000000E+00 0. -1.
         -3    1    6    6    0  503 -0.80525273144E+02  0.19702413983E+03 -0.46658174253E+03  0.51283657607E+03  0.00000000000E+00 0.  1.
<mgrwt>
<rscale>  0 0.75920897E+03</rscale>
<asrwt>0</asrwt>
<pdfrwt beam="1">  1        2 0.58737215E+00 0.75920897E+03</pdfrwt>
<pdfrwt beam="2">  1       -2 0.30594430E-01 0.75920897E+03</pdfrwt>
<totfact> 0.51451547E+00</totfact>
</mgrwt>
</event>
<event>
12    1  0.3203156E-008  0.7250381E+03  0.7818608E-02  0.9675346E-01
          1   -1    0    0  501    0  0.00000000000E+00  0.00000000000E+00  0.50302086457E+03  0.50302086457E+03  0.00000000000E+00 0. -1.
         -1   -1    0    0    0  501 -0.00000000000E+00 -0.00000000000E+00 -0.14496054119E+04  0.14496054119E+04  0.00000000000E+00 0.  1.
         23    2    1    2    0    0  0.42681973960E+03  0.46289599198E+03  0.39795425018E+02  0.63754832700E+03  0.91849898791E+02 0.  0.
    5000000    2    1    2    0    0 -0.42681973960E+03 -0.46289599198E+03 -0.98637997238E+03  0.13150779495E+04  0.60003064409E+03 0.  0.
         23    2    4    4    0    0 -0.23647787329E+03  0.68604528611E+02 -0.15641383039E+03  0.30703847064E+03  0.95806942409E+02 0.  0.
         23    2    4    4    0    0 -0.19034186631E+03 -0.53150052059E+03 -0.82996614200E+03  0.10080394789E+04  0.92611903306E+02 0.  0.
          5    1    3    3  502    0  0.33461175115E+03  0.35161402668E+03 -0.73440946784E+01  0.48546212364E+03  0.47000000000E+01 0. -1.
         -5    1    3    3    0  502  0.92207988452E+02  0.11128196530E+03  0.47139519696E+02  0.15208620336E+03  0.47000000000E+01 0.  1.
         13    1    5    5    0    0 -0.14259040110E+03  0.75039657438E+01 -0.12730932364E+03  0.19130079946E+03  0.00000000000E+00 0.  1.
        -13    1    5    5    0    0 -0.93887472186E+02  0.61100562867E+02 -0.29104506744E+02  0.11573767118E+03  0.00000000000E+00 0. -1.
          3    1    6    6  503    0 -0.79556113799E+02 -0.26419339369E+03 -0.48299789588E+03  0.55625020623E+03  0.00000000000E+00 0. -1.
         -3    1    6    6    0  503 -0.11078575251E+03 -0.26730712691E+03 -0.34696824612E+03  0.45178927264E+03  0.00000000000E+00 0.  1.
<mgrwt>
<rscale>  0 0.72503814E+03</rscale>
<asrwt>0</asrwt>
<pdfrwt beam="1">  1        1 0.77387826E-01 0.72503814E+03</pdfrwt>
<pdfrwt beam="2">  1       -1 0.22301622E+00 0.72503814E+03</pdfrwt>
<totfact> 0.48092210E+00</totfact>
</mgrwt>
</event>
<event>
12    1  0.3203156E-008  0.7089514E+03  0.7818608E-02  0.9702045E-01
          2   -1    0    0  501    0  0.00000000000E+00  0.00000000000E+00  0.13478905302E+04  0.13478905302E+04  0.00000000000E+00 0. -1.
         -2   -1    0    0    0  501 -0.00000000000E+00 -0.00000000000E+00 -0.40855091148E+03  0.40855091148E+03  0.00000000000E+00 0.  1.
         23    2    1    2    0    0  0.51884813102E+03  0.28490111793E+03  0.60051955121E+03  0.84810140795E+03  0.90995805989E+02 0.  0.
    5000000    2    1    2    0    0 -0.51884813102E+03 -0.28490111793E+03  0.33882006748E+03  0.90834003372E+03  0.59992545259E+03 0.  0.
         23    2    4    4    0    0 -0.61887997268E+03 -0.29453102453E+03  0.34529805956E+03  0.77277558763E+03  0.90500905487E+02 0.  0.
         23    2    4    4    0    0  0.10003184166E+03  0.96299066051E+01 -0.64779920800E+01  0.13556444609E+03  0.90755992724E+02 0.  0.
          5    1    3    3  502    0  0.44672609673E+03  0.21944706190E+03  0.53438276762E+03  0.73027957030E+03  0.47000000000E+01 0. -1.
         -5    1    3    3    0  502  0.72122034296E+02  0.65454056026E+02  0.66136783595E+02  0.11782183764E+03  0.47000000000E+01 0.  1.
         11    1    5    5    0    0 -0.53564604494E+03 -0.22243026702E+03  0.30666321645E+03  0.65607487185E+03  0.00000000000E+00 0.  1.
        -11    1    5    5    0    0 -0.83233927745E+02 -0.72100757508E+02  0.38634843113E+02  0.11670071578E+03  0.00000000000E+00 0. -1.
          4    1    6    6  503    0  0.39723125122E+02  0.47043904664E+02 -0.16858642056E+02  0.63837837115E+02  0.00000000000E+00 0. -1.
         -4    1    6    6    0  503  0.60308716540E+02 -0.37413998059E+02  0.10380649976E+02  0.71726608977E+02  0.00000000000E+00 0.  1.
<mgrwt>
<rscale>  0 0.70895136E+03</rscale>
<asrwt>0</asrwt>
<pdfrwt beam="1">  1        2 0.20736777E+00 0.70895136E+03</pdfrwt>
<pdfrwt beam="2">  1       -2 0.62853987E-01 0.70895136E+03</pdfrwt>
<totfact> 0.37285502E+01</totfact>
</mgrwt>
</event>
<event>
12    1  0.3203156E-008  0.4500193E+03  0.7818608E-02  0.1027716E+00
         -1   -1    0    0    0  501 -0.00000000000E+00  0.00000000000E+00  0.44415951864E+03  0.44415951864E+03  0.00000000000E+00 0.  1.
          1   -1    0    0  501    0  0.00000000000E+00 -0.00000000000E+00 -0.54296719885E+03  0.54296719885E+03  0.00000000000E+00 0. -1.
         23    2    1    2    0    0 -0.18828421117E+03 -0.18383677889E+03  0.11306820334E+03  0.29872525623E+03  0.84884949486E+02 0.  0.
    5000000    2    1    2    0    0  0.18828421117E+03  0.18383677889E+03 -0.21187588355E+03  0.68840146127E+03  0.59979852984E+03 0.  0.
         23    2    4    4    0    0 -0.43854955817E+02  0.34126585685E+03 -0.14942826482E+03  0.38519535753E+03  0.87527223987E+02 0.  0.
         23    2    4    4    0    0  0.23213916699E+03 -0.15742907795E+03 -0.62447618731E+02  0.30320610373E+03  0.96756027310E+02 0.  0.
          5    1    3    3  502    0 -0.14686314547E+03 -0.17612134485E+03  0.11439019187E+03  0.25630980785E+03  0.47000000000E+01 0. -1.
         -5    1    3    3    0  502 -0.41421065708E+02 -0.77154340491E+01 -0.13219885292E+01  0.42415448372E+02  0.47000000000E+01 0.  1.
         13    1    5    5    0    0 -0.12766974742E+02  0.23239658840E+03 -0.13993995458E+03  0.27157754110E+03  0.00000000000E+00 0.  1.
        -13    1    5    5    0    0 -0.31087981075E+02  0.10886926844E+03 -0.94883102447E+01  0.11361781643E+03  0.00000000000E+00 0. -1.
          4    1    6    6  503    0  0.13583659181E+03 -0.11088024439E+03  0.73255140240E+01  0.17549835163E+03  0.00000000000E+00 0. -1.
         -4    1    6    6    0  503  0.96302575181E+02 -0.46548833566E+02 -0.69773132755E+02  0.12770775210E+03  0.00000000000E+00 0.  1.
<mgrwt>
<rscale>  0 0.45001926E+03</rscale>
<asrwt>0</asrwt>
<pdfrwt beam="1">  1        1 0.83533416E-01 0.45001926E+03</pdfrwt>
<pdfrwt beam="2">  1       -1 0.68332233E-01 0.45001926E+03</pdfrwt>
<totfact> 0.89639525E+01</totfact>
</mgrwt>
</event>
<event>
12    1  0.3203156E-008  0.1410280E+04  0.7818608E-02  0.8946411E-01
          2   -1    0    0  501    0  0.00000000000E+00  0.00000000000E+00  0.47364931389E+04  0.47364931389E+04  0.00000000000E+00 0. -1.
         -2   -1    0    0    0  501 -0.00000000000E+00 -0.00000000000E+00 -0.57037385455E+03  0.57037385455E+03  0.00000000000E+00 0.  1.
         23    2    1    2    0    0  0.11405250441E+03  0.13681067327E+04  0.72913845624E+03  0.15574928581E+04  0.97041788533E+02 0.  0.
    5000000    2    1    2    0    0 -0.11405250441E+03 -0.13681067327E+04  0.34369808281E+04  0.37493741354E+04  0.60020428914E+03 0.  0.
         23    2    4    4    0    0 -0.28201084529E+03 -0.73353193274E+03  0.14097680106E+04  0.16165588067E+04  0.90649426749E+02 0.  0.
         23    2    4    4    0    0  0.16795834088E+03 -0.63457479995E+03  0.20272128176E+04  0.21328153288E+04  0.91729155325E+02 0.  0.
          5    1    3    3  502    0 -0.31199330046E+01  0.38322225411E+03  0.23232969829E+03  0.44818323121E+03  0.47000000000E+01 0. -1.
         -5    1    3    3    0  502  0.11717243741E+03  0.98488447858E+03  0.49680875795E+03  0.11093096268E+04  0.47000000000E+01 0.  1.
         13    1    5    5    0    0 -0.55641545891E+02 -0.19909462526E+03  0.44478690134E+03  0.49047939716E+03  0.00000000000E+00 0.  1.
        -13    1    5    5    0    0 -0.22636929940E+03 -0.53443730748E+03  0.96498110924E+03  0.11260794095E+04  0.00000000000E+00 0. -1.
          2    1    6    6  503    0  0.88885655927E+02 -0.24048818236E+03  0.67184026639E+03  0.71909983259E+03  0.00000000000E+00 0. -1.
         -2    1    6    6    0  503  0.79072684951E+02 -0.39408661759E+03  0.13553725512E+04  0.14137154962E+04  0.00000000000E+00 0.  1.
<mgrwt>
<rscale>  0 0.14102802E+04</rscale>
<asrwt>0</asrwt>
<pdfrwt beam="1">  1        2 0.72869123E+00 0.14102802E+04</pdfrwt>
<pdfrwt beam="2">  1       -2 0.87749827E-01 0.14102802E+04</pdfrwt>
<totfact> 0.78748395E-02</totfact>
</mgrwt>
</event>
<event>
12    1  0.3203156E-008  0.1277690E+04  0.7818608E-02  0.9047447E-01
         -1   -1    0    0    0  501 -0.00000000000E+00  0.00000000000E+00  0.96994233449E+03  0.96994233449E+03  0.00000000000E+00 0.  1.
          1   -1    0    0  501    0  0.00000000000E+00 -0.00000000000E+00 -0.18504757568E+04  0.18504757568E+04  0.00000000000E+00 0. -1.
         23    2    1    2    0    0 -0.87785315647E+03  0.91031460831E+03 -0.28678647140E+03  0.12999531549E+04  0.91284578211E+02 0.  0.
    5000000    2    1    2    0    0  0.87785315647E+03 -0.91031460831E+03 -0.59374695090E+03  0.15204649364E+04  0.59998277536E+03 0.  0.
         23    2    4    4    0    0  0.96983925927E+01 -0.82120119752E+02  0.70821396244E+02  0.14574578333E+03  0.96893706215E+02 0.  0.
         23    2    4    4    0    0  0.86815476388E+03 -0.82819448856E+03 -0.66456834714E+03  0.13747191531E+04  0.92751587151E+02 0.  0.
          5    1    3    3  502    0 -0.48737971103E+03  0.45179959755E+03 -0.17700571441E+03  0.68776083925E+03  0.47000000000E+01 0. -1.
         -5    1    3    3    0  502 -0.39047344544E+03  0.45851501075E+03 -0.10978075699E+03  0.61219231560E+03  0.47000000000E+01 0.  1.
         11    1    5    5    0    0  0.17812345388E+02 -0.53865497206E+02  0.92987561983E+02  0.10892868365E+03  0.00000000000E+00 0. -1.
        -11    1    5    5    0    0 -0.81139527951E+01 -0.28254622546E+02 -0.22166165739E+02  0.36817099679E+02  0.00000000000E+00 0.  1.
          3    1    6    6  503    0  0.63185380756E+03 -0.64938414749E+03 -0.47603228153E+03  0.10234968189E+04  0.00000000000E+00 0. -1.
         -3    1    6    6    0  503  0.23630095632E+03 -0.17881034107E+03 -0.18853606561E+03  0.35122233423E+03  0.00000000000E+00 0.  1.
<mgrwt>
<rscale>  0 0.12776896E+04</rscale>
<asrwt>0</asrwt>
<pdfrwt beam="1">  1        1 0.28468858E+00 0.12776896E+04</pdfrwt>
<pdfrwt beam="2">  1       -1 0.14922190E+00 0.12776896E+04</pdfrwt>
<totfact> 0.12960282E+00</totfact>
</mgrwt>
</event>
<event>
12    1  0.3203156E-008  0.1017206E+04  0.7818608E-02  0.9289872E-01
         -2   -1    0    0    0  501 -0.00000000000E+00  0.00000000000E+00  0.58837312240E+03  0.58837312240E+03  0.00000000000E+00 0.  1.
          2   -1    0    0  501    0  0.00000000000E+00 -0.00000000000E+00 -0.18652260489E+04  0.18652260489E+04  0.00000000000E+00 0. -1.
         23    2    1    2    0    0 -0.91689000332E+03 -0.23205805977E+03 -0.77538419680E+03  0.12266410636E+04  0.94283747517E+02 0.  0.
    5000000    2    1    2    0    0  0.91689000332E+03  0.23205805977E+03 -0.50146872966E+03  0.12269581076E+04  0.59951404467E+03 0.  0.
         23    2    4    4    0    0  0.66188870680E+03  0.39026884504E+03 -0.22025447254E+03  0.80594108594E+03  0.10306585145E+03 0.  0.
         23    2    4    4    0    0  0.25500129652E+03 -0.15821078527E+03 -0.28121425712E+03  0.42101702169E+03  0.90097504622E+02 0.  0.
          5    1    3    3  502    0 -0.55092597949E+03 -0.13585775104E+03 -0.52356274756E+03  0.77208600818E+03  0.47000000000E+01 0. -1.
         -5    1    3    3    0  502 -0.36596402384E+03 -0.96200308732E+02 -0.25182144923E+03  0.45455505545E+03  0.47000000000E+01 0.  1.
         11    1    5    5    0    0  0.36645785878E+03  0.15642027499E+03 -0.10946129424E+03  0.41320750190E+03  0.00000000000E+00 0. -1.
        -11    1    5    5    0    0  0.29543084802E+03  0.23384857005E+03 -0.11079317830E+03  0.39273358404E+03  0.00000000000E+00 0.  1.
          3    1    6    6  503    0  0.11089779853E+03 -0.18184954826E+02 -0.10302091466E+03  0.15245433138E+03  0.00000000000E+00 0. -1.
         -3    1    6    6    0  503  0.14410349799E+03 -0.14002583045E+03 -0.17819334246E+03  0.26856269031E+03  0.00000000000E+00 0.  1.
<mgrwt>
<rscale>  0 0.10172060E+04</rscale>
<asrwt>0</asrwt>
<pdfrwt beam="1">  1        2 0.28695785E+00 0.10172060E+04</pdfrwt>
<pdfrwt beam="2">  1       -2 0.90518943E-01 0.10172060E+04</pdfrwt>
<totfact> 0.82597876E+00</totfact>
</mgrwt>
</event>
<event>
12    1  0.3203156E-008  0.3712684E+03  0.7818608E-02  0.1054209E+00
         -1   -1    0    0    0  501 -0.00000000000E+00  0.00000000000E+00  0.23583978865E+03  0.23583978865E+03  0.00000000000E+00 0.  1.
          1   -1    0    0  501    0  0.00000000000E+00 -0.00000000000E+00 -0.71627162377E+03  0.71627162377E+03  0.00000000000E+00 0. -1.
         23    2    1    2    0    0  0.11049622096E+03  0.86405814572E+02  0.94137056851E+01  0.16447742507E+03  0.85374620723E+02 0.  0.
    5000000    2    1    2    0    0 -0.11049622096E+03 -0.86405814572E+02 -0.48984554080E+03  0.78763398735E+03  0.60061906775E+03 0.  0.
         23    2    4    4    0    0 -0.27395311591E+03  0.14152611345E+03 -0.26209488441E+03  0.41515606614E+03  0.92633041139E+02 0.  0.
         23    2    4    4    0    0  0.16345689495E+03 -0.22793192802E+03 -0.22775065639E+03  0.37247792121E+03  0.90544574580E+02 0.  0.
          5    1    3    3  502    0  0.99613950970E+02  0.67268477321E+02  0.39760803421E+02  0.12669253631E+03  0.47000000000E+01 0. -1.
         -5    1    3    3    0  502  0.10882269993E+02  0.19137337252E+02 -0.30347097736E+02  0.37784888756E+02  0.47000000000E+01 0.  1.
         11    1    5    5    0    0 -0.23082904459E+03  0.14958450681E+03 -0.24404785311E+03  0.36771854334E+03  0.00000000000E+00 0.  1.
        -11    1    5    5    0    0 -0.43124071321E+02 -0.80583933615E+01 -0.18047031299E+02  0.47437522802E+02  0.00000000000E+00 0. -1.
          1    1    6    6  503    0  0.54539368024E+02 -0.65471279274E+02 -0.20779675114E+02  0.87708756530E+02  0.00000000000E+00 0. -1.
         -1    1    6    6    0  503  0.10891752692E+03 -0.16246064875E+03 -0.20697098128E+03  0.28476916468E+03  0.00000000000E+00 0.  1.
<mgrwt>
<rscale>  0 0.37126843E+03</rscale>
<asrwt>0</asrwt>
<pdfrwt beam="1">  1        1 0.11019563E+00 0.37126843E+03</pdfrwt>
<pdfrwt beam="2">  1       -1 0.36283044E-01 0.37126843E+03</pdfrwt>
<totfact> 0.19958299E+02</totfact>
</mgrwt>
</event>
<event>
12    1  0.3203156E-008  0.3918468E+03  0.7818608E-02  0.1046640E+00
         -2   -1    0    0    0  501 -0.00000000000E+00  0.00000000000E+00  0.11477200035E+03  0.11477200035E+03  0.00000000000E+00 0.  1.
          2   -1    0    0  501    0  0.00000000000E+00 -0.00000000000E+00 -0.32795365809E+04  0.32795365809E+04  0.00000000000E+00 0. -1.
         23    2    1    2    0    0  0.24453757573E+03 -0.48794908741E+02 -0.22865389473E+04  0.23018227581E+04  0.89152023473E+02 0.  0.
    5000000    2    1    2    0    0 -0.24453757573E+03  0.48794908741E+02 -0.87822563324E+03  0.10924858231E+04  0.60005453232E+03 0.  0.
         23    2    4    4    0    0 -0.26721151099E+03  0.21946874392E+03 -0.25095964655E+03  0.43688162675E+03  0.91193697320E+02 0.  0.
         23    2    4    4    0    0  0.22673935267E+02 -0.17067383518E+03 -0.62726598669E+03  0.65560419636E+03  0.81918122976E+02 0.  0.
          5    1    3    3  502    0  0.19519900258E+03 -0.53352967844E+02 -0.14838292445E+04  0.14975715364E+04  0.47000000000E+01 0. -1.
         -5    1    3    3    0  502  0.49338573146E+02  0.45580591028E+01 -0.80270970274E+03  0.80425122168E+03  0.47000000000E+01 0.  1.
         11    1    5    5    0    0 -0.23414398472E+03  0.14337154664E+03 -0.18862958420E+03  0.33310647847E+03  0.00000000000E+00 0.  1.
        -11    1    5    5    0    0 -0.33067526276E+02  0.76097197276E+02 -0.62330062346E+02  0.10377514827E+03  0.00000000000E+00 0. -1.
          4    1    6    6  503    0  0.15359364377E+02 -0.36337579487E+02 -0.28713868277E+03  0.28983607936E+03  0.00000000000E+00 0. -1.
         -4    1    6    6    0  503  0.73145708894E+01 -0.13433625569E+03 -0.34012730392E+03  0.36576811700E+03  0.00000000000E+00 0.  1.
<mgrwt>
<rscale>  0 0.39184683E+03</rscale>
<asrwt>0</asrwt>
<pdfrwt beam="1">  1        2 0.50454412E+00 0.39184683E+03</pdfrwt>
<pdfrwt beam="2">  1       -2 0.17657230E-01 0.39184683E+03</pdfrwt>
<totfact> 0.35185455E+01</totfact>
</mgrwt>
</event>
<event>
12    1  0.3203156E-008  0.5234734E+03  0.7818608E-02  0.1007827E+00
         -1   -1    0    0    0  501 -0.00000000000E+00  0.00000000000E+00  0.39565885468E+03  0.39565885468E+03  0.00000000000E+00 0.  1.
          1   -1    0    0  501    0  0.00000000000E+00 -0.00000000000E+00 -0.89061247221E+03  0.89061247221E+03  0.00000000000E+00 0. -1.
         23    2    1    2    0    0 -0.11379756554E+03  0.34064302482E+03  0.82651866368E+02  0.37925471274E+03  0.89527927708E+02 0.  0.
    5000000    2    1    2    0    0  0.11379756554E+03 -0.34064302482E+03 -0.57760548390E+03  0.90701661415E+03  0.60005290352E+03 0.  0.
         23    2    4    4    0    0 -0.22756184485E+03 -0.79512796082E+02 -0.20114810670E+03  0.32702401791E+03  0.91528517383E+02 0.  0.
         23    2    4    4    0    0  0.34135941039E+03 -0.26113022874E+03 -0.37645737720E+03  0.57999259623E+03  0.99779814661E+02 0.  0.
          5    1    3    3  502    0 -0.10754665484E+03  0.18593966687E+03  0.56541928117E+02  0.22216867987E+03  0.47000000000E+01 0. -1.
         -5    1    3    3    0  502 -0.62509107061E+01  0.15470335795E+03  0.26109938251E+02  0.15708603287E+03  0.47000000000E+01 0.  1.
         13    1    5    5    0    0 -0.18398520222E+03 -0.68926559800E+02 -0.10933761610E+03  0.22484692476E+03  0.00000000000E+00 0. -1.
        -13    1    5    5    0    0 -0.43576642628E+02 -0.10586236282E+02 -0.91810490594E+02  0.10217709315E+03  0.00000000000E+00 0.  1.
          1    1    6    6  503    0  0.23848483202E+03 -0.22196997905E+03 -0.31838308339E+03  0.45553646889E+03  0.00000000000E+00 0. -1.
         -1    1    6    6    0  503  0.10287457837E+03 -0.39160249694E+02 -0.58074293803E+02  0.12445612734E+03  0.00000000000E+00 0.  1.
<mgrwt>
<rscale>  0 0.52347335E+03</rscale>
<asrwt>0</asrwt>
<pdfrwt beam="1">  1        1 0.13701730E+00 0.52347335E+03</pdfrwt>
<pdfrwt beam="2">  1       -1 0.60870594E-01 0.52347335E+03</pdfrwt>
<totfact> 0.53213276E+01</totfact>
</mgrwt>
</event>
<event>
12    1  0.3203156E-008  0.9566688E+03  0.7818608E-02  0.9357390E-01
          2   -1    0    0  501    0  0.00000000000E+00  0.00000000000E+00  0.43346945731E+04  0.43346945731E+04  0.00000000000E+00 0.  1.
         -2   -1    0    0    0  501 -0.00000000000E+00 -0.00000000000E+00 -0.37431935767E+03  0.37431935767E+03  0.00000000000E+00 0. -1.
         23    2    1    2    0    0 -0.51194155400E+03  0.78836173325E+03  0.32530643134E+04  0.33884454581E+04  0.12464677393E+03 0.  0.
    5000000    2    1    2    0    0  0.51194155400E+03 -0.78836173325E+03  0.70731090208E+03  0.13205684727E+04  0.60001166800E+03 0.  0.
         23    2    4    4    0    0  0.26777935642E+03 -0.23369410613E+03  0.59203888428E+03  0.69671738176E+03  0.92662562997E+02 0.  0.
         23    2    4    4    0    0  0.24416219758E+03 -0.55466762712E+03  0.11527201780E+03  0.62385109095E+03  0.92904199532E+02 0.  0.
          5    1    3    3  502    0 -0.57932460251E+02  0.12928873653E+03  0.36560329386E+03  0.39212192724E+03  0.47000000000E+01 0. -1.
         -5    1    3    3    0  502 -0.45400909375E+03  0.65907299672E+03  0.28874610195E+04  0.29963235308E+04  0.47000000000E+01 0.  1.
         11    1    5    5    0    0  0.74885111343E+02 -0.38137506689E+02  0.81994429836E+02  0.11741096985E+03  0.00000000000E+00 0. -1.
        -11    1    5    5    0    0  0.19289424508E+03 -0.19555659944E+03  0.51004445444E+03  0.57930641191E+03  0.00000000000E+00 0.  1.
          1    1    6    6  503    0  0.14420702463E+03 -0.21828045196E+03  0.62564428414E+02  0.26899131838E+03  0.00000000000E+00 0. -1.
         -1    1    6    6    0  503  0.99955172956E+02 -0.33638717516E+03  0.52707589391E+02  0.35485977257E+03  0.00000000000E+00 0.  1.
<mgrwt>
<rscale>  0 0.95666881E+03</rscale>
<asrwt>0</asrwt>
<pdfrwt beam="1">  1        2 0.66687605E+00 0.95666881E+03</pdfrwt>
<pdfrwt beam="2">  1       -2 0.57587597E-01 0.95666881E+03</pdfrwt>
<totfact> 0.53704692E-01</totfact>
</mgrwt>
</event>
<event>
12    1  0.3203156E-008  0.9137444E+03  0.7818608E-02  0.9408562E-01
          2   -1    0    0  501    0  0.00000000000E+00  0.00000000000E+00  0.20753156547E+04  0.20753156547E+04  0.00000000000E+00 0.  1.
         -2   -1    0    0    0  501 -0.00000000000E+00 -0.00000000000E+00 -0.49741553066E+03  0.49741553066E+03  0.00000000000E+00 0. -1.
         23    2    1    2    0    0 -0.22110254386E+02 -0.83634599651E+03  0.22195539768E+03  0.87023096595E+03  0.89856810016E+02 0.  0.
    5000000    2    1    2    0    0  0.22110254386E+02  0.83634599651E+03  0.13559447264E+04  0.17025002194E+04  0.59996450477E+03 0.  0.
         23    2    4    4    0    0  0.20826236230E+03  0.14367504951E+03  0.59347573649E+03  0.65170997467E+03  0.92177599661E+02 0.  0.
         23    2    4    4    0    0 -0.18615210792E+03  0.69267094700E+03  0.76246898988E+03  0.10507902448E+04  0.91408587466E+02 0.  0.
          5    1    3    3  502    0  0.14326520344E+02 -0.69048068587E+03  0.19226789119E+03  0.71690854280E+03  0.47000000000E+01 0. -1.
         -5    1    3    3    0  502 -0.36436774729E+02 -0.14586531064E+03  0.29687506496E+02  0.15332242315E+03  0.47000000000E+01 0.  1.
         13    1    5    5    0    0  0.16259310433E+03  0.14475559984E+03  0.42991546854E+03  0.48189004073E+03  0.00000000000E+00 0.  1.
        -13    1    5    5    0    0  0.45669257973E+02 -0.10805503351E+01  0.16356026795E+03  0.16981993394E+03  0.00000000000E+00 0. -1.
          1    1    6    6  503    0 -0.74823869957E+02  0.13478421419E+03  0.16125641418E+03  0.22308972864E+03  0.00000000000E+00 0. -1.
         -1    1    6    6    0  503 -0.11132823796E+03  0.55788673282E+03  0.60121257570E+03  0.82770051613E+03  0.00000000000E+00 0.  1.
<mgrwt>
<rscale>  0 0.91374437E+03</rscale>
<asrwt>0</asrwt>
<pdfrwt beam="1">  1        2 0.31927933E+00 0.91374437E+03</pdfrwt>
<pdfrwt beam="2">  1       -2 0.76525468E-01 0.91374437E+03</pdfrwt>
<totfact> 0.93900629E+00</totfact>
</mgrwt>
</event>
<event>
12    1  0.3203156E-008  0.1296556E+04  0.7818608E-02  0.9032301E-01
         -2   -1    0    0    0  501 -0.00000000000E+00  0.00000000000E+00  0.66629738312E+03  0.66629738312E+03  0.00000000000E+00 0.  1.
          2   -1    0    0  501    0  0.00000000000E+00 -0.00000000000E+00 -0.28246666882E+04  0.28246666882E+04  0.00000000000E+00 0. -1.
         23    2    1    2    0    0 -0.92335531035E+03 -0.87155262187E+03 -0.14093550402E+04  0.18993568978E+04  0.95320481377E+02 0.  0.
    5000000    2    1    2    0    0  0.92335531035E+03  0.87155262187E+03 -0.74901426489E+03  0.15916071735E+04  0.60000168656E+03 0.  0.
         23    2    4    4    0    0  0.58948264223E+03  0.77029625621E+03 -0.30707955907E+03  0.10214526822E+04  0.90673141580E+02 0.  0.
         23    2    4    4    0    0  0.33387266812E+03  0.10125636566E+03 -0.44193470583E+03  0.57015449127E+03  0.89699774810E+02 0.  0.
          5    1    3    3  502    0 -0.74066134533E+03 -0.69415521995E+03 -0.11806961515E+04  0.15570793782E+04  0.47000000000E+01 0. -1.
         -5    1    3    3    0  502 -0.18269396502E+03 -0.17739740191E+03 -0.22865888866E+03  0.34227751960E+03  0.47000000000E+01 0.  1.
         13    1    5    5    0    0  0.31461501616E+03  0.48151818692E+03 -0.16821709349E+03  0.59928237357E+03  0.00000000000E+00 0. -1.
        -13    1    5    5    0    0  0.27486762607E+03  0.28877806929E+03 -0.13886246558E+03  0.42217030866E+03  0.00000000000E+00 0.  1.
          3    1    6    6  503    0  0.15816364254E+03  0.37772118361E+02 -0.27567957378E+03  0.32006514673E+03  0.00000000000E+00 0. -1.
         -3    1    6    6    0  503  0.17570902558E+03  0.63484247299E+02 -0.16625513204E+03  0.25008934455E+03  0.00000000000E+00 0.  1.
<mgrwt>
<rscale>  0 0.12965557E+04</rscale>
<asrwt>0</asrwt>
<pdfrwt beam="1">  1        2 0.43456411E+00 0.12965557E+04</pdfrwt>
<pdfrwt beam="2">  1       -2 0.10250729E+00 0.12965557E+04</pdfrwt>
<totfact> 0.16976041E+00</totfact>
</mgrwt>
</event>
<event>
12    1  0.3203156E-008  0.7704160E+03  0.7818608E-02  0.9603854E-01
         -1   -1    0    0    0  501 -0.00000000000E+00  0.00000000000E+00  0.82396460150E+03  0.82396460150E+03  0.00000000000E+00 0.  1.
          1   -1    0    0  501    0  0.00000000000E+00 -0.00000000000E+00 -0.11010796838E+04  0.11010796838E+04  0.00000000000E+00 0. -1.
         23    2    1    2    0    0  0.36029083123E+03 -0.63370571087E+03 -0.57966723102E+03  0.93416900405E+03  0.72561824363E+02 0.  0.
    5000000    2    1    2    0    0 -0.36029083123E+03  0.63370571087E+03  0.30255214873E+03  0.99087528123E+03  0.59908564429E+03 0.  0.
         23    2    4    4    0    0 -0.30835675402E+03  0.22239765771E+03 -0.10236218283E+03  0.40409886950E+03  0.90957539312E+02 0.  0.
         23    2    4    4    0    0 -0.51934077212E+02  0.41130805315E+03  0.40491433156E+03  0.58677641173E+03  0.92084083804E+02 0.  0.
          5    1    3    3  502    0  0.18912183574E+03 -0.34141838089E+03 -0.26471788312E+03  0.47162615196E+03  0.47000000000E+01 0. -1.
         -5    1    3    3    0  502  0.17116899548E+03 -0.29228732997E+03 -0.31494934790E+03  0.46254285209E+03  0.47000000000E+01 0.  1.
         11    1    5    5    0    0 -0.18427386018E+02  0.41885158847E+02 -0.30774465247E+02  0.55145288088E+02  0.00000000000E+00 0. -1.
        -11    1    5    5    0    0 -0.28992936800E+03  0.18051249887E+03 -0.71587717581E+02  0.34895358142E+03  0.00000000000E+00 0.  1.
          2    1    6    6  503    0  0.10055976473E+02  0.17114828630E+01  0.12806226501E+02  0.16372271486E+02  0.00000000000E+00 0. -1.
         -2    1    6    6    0  503 -0.61990053685E+02  0.40959657029E+03  0.39210810506E+03  0.57040414024E+03  0.00000000000E+00 0.  1.
<mgrwt>
<rscale>  0 0.77041603E+03</rscale>
<asrwt>0</asrwt>
<pdfrwt beam="1">  1        1 0.16939688E+00 0.77041603E+03</pdfrwt>
<pdfrwt beam="2">  1       -1 0.12676378E+00 0.77041603E+03</pdfrwt>
<totfact> 0.70590742E+00</totfact>
</mgrwt>
</event>
<event>
12    1  0.3203156E-008  0.5083634E+03  0.7818608E-02  0.1011619E+00
         -1   -1    0    0    0  501 -0.00000000000E+00  0.00000000000E+00  0.29188701887E+03  0.29188701887E+03  0.00000000000E+00 0.  1.
          1   -1    0    0  501    0  0.00000000000E+00 -0.00000000000E+00 -0.15846873402E+04  0.15846873402E+04  0.00000000000E+00 0. -1.
         23    2    1    2    0    0 -0.95769614956E+02 -0.45819751560E+03 -0.90389139809E+03  0.10219697982E+04  0.91026514853E+02 0.  0.
    5000000    2    1    2    0    0  0.95769614956E+02  0.45819751560E+03 -0.38890892322E+03  0.85460456086E+03  0.59998501851E+03 0.  0.
         23    2    4    4    0    0  0.43773454314E+02  0.43929375092E+03  0.53593923414E+00  0.45128547733E+03  0.93611857753E+02 0.  0.
         23    2    4    4    0    0  0.51996160643E+02  0.18903764671E+02 -0.38944486246E+03  0.40331908354E+03  0.89095618351E+02 0.  0.
          5    1    3    3  502    0 -0.96455047358E+02 -0.24502972283E+03 -0.48222609077E+03  0.54946085743E+03  0.47000000000E+01 0. -1.
         -5    1    3    3    0  502  0.68543240137E+00 -0.21316779276E+03 -0.42166530733E+03  0.47250894075E+03  0.47000000000E+01 0.  1.
         13    1    5    5    0    0  0.61981086105E+02  0.17354336733E+03  0.11959657023E+02  0.18466723796E+03  0.00000000000E+00 0. -1.
        -13    1    5    5    0    0 -0.18207631792E+02  0.26575038360E+03 -0.11423717789E+02  0.26661823937E+03  0.00000000000E+00 0.  1.
          2    1    6    6  503    0  0.11016043445E+02  0.41324689421E+02 -0.83365871623E+02  0.93696060325E+02  0.00000000000E+00 0. -1.
         -2    1    6    6    0  503  0.40980117197E+02 -0.22420924750E+02 -0.30607899083E+03  0.30962302321E+03  0.00000000000E+00 0.  1.
<mgrwt>
<rscale>  0 0.50836342E+03</rscale>
<asrwt>0</asrwt>
<pdfrwt beam="1">  1        1 0.24379804E+00 0.50836342E+03</pdfrwt>
<pdfrwt beam="2">  1       -1 0.44905697E-01 0.50836342E+03</pdfrwt>
<totfact> 0.30116685E+01</totfact>
</mgrwt>
</event>
<event>
12    1  0.3203156E-008  0.1143498E+04  0.7818608E-02  0.9163803E-01
          1   -1    0    0  501    0  0.00000000000E+00  0.00000000000E+00  0.20408898861E+04  0.20408898861E+04  0.00000000000E+00 0. -1.
         -1   -1    0    0    0  501 -0.00000000000E+00 -0.00000000000E+00 -0.67519871164E+03  0.67519871164E+03  0.00000000000E+00 0.  1.
         23    2    1    2    0    0 -0.37270584034E+03 -0.10055938120E+04  0.38270440008E+03  0.11425525681E+04  0.93995504299E+02 0.  0.
    5000000    2    1    2    0    0  0.37270584034E+03  0.10055938120E+04  0.98298677438E+03  0.15735360297E+04  0.59968665151E+03 0.  0.
         23    2    4    4    0    0  0.78074866042E+02  0.88945700434E+03  0.69032246703E+03  0.11326468419E+04  0.95468909104E+02 0.  0.
         23    2    4    4    0    0  0.29463097430E+03  0.11613680764E+03  0.29266430735E+03  0.44088918783E+03  0.91846121549E+02 0.  0.
          5    1    3    3  502    0 -0.63970454509E+02 -0.14208266732E+03  0.89548927594E+02  0.17977987606E+03  0.47000000000E+01 0. -1.
         -5    1    3    3    0  502 -0.30873538583E+03 -0.86351114466E+03  0.29315547249E+03  0.96277269200E+03  0.47000000000E+01 0.  1.
         11    1    5    5    0    0  0.37410076527E+02  0.22281509507E+03  0.22342124260E+03  0.31774696232E+03  0.00000000000E+00 0. -1.
        -11    1    5    5    0    0  0.40664789515E+02  0.66664190927E+03  0.46690122443E+03  0.81489987954E+03  0.00000000000E+00 0.  1.
          4    1    6    6  503    0  0.45880535748E+02  0.37784925078E+02  0.10116894495E+03  0.11733660786E+03  0.00000000000E+00 0. -1.
         -4    1    6    6    0  503  0.24875043855E+03  0.78351882558E+02  0.19149536241E+03  0.32355257996E+03  0.00000000000E+00 0.  1.
<mgrwt>
<rscale>  0 0.11434980E+04</rscale>
<asrwt>0</asrwt>
<pdfrwt beam="1">  1        1 0.31398306E+00 0.11434980E+04</pdfrwt>
<pdfrwt beam="2">  1       -1 0.10387673E+00 0.11434980E+04</pdfrwt>
<totfact> 0.24227384E+00</totfact>
</mgrwt>
</event>
<event>
12    1  0.3203156E-008  0.5288636E+03  0.7818608E-02  0.1006508E+00
         -2   -1    0    0    0  501 -0.00000000000E+00  0.00000000000E+00  0.26961455984E+04  0.26961455984E+04  0.00000000000E+00 0.  1.
          2   -1    0    0  501    0  0.00000000000E+00 -0.00000000000E+00 -0.14473580854E+03  0.14473580854E+03  0.00000000000E+00 0. -1.
         23    2    1    2    0    0  0.20218457080E+03  0.41685904304E+03  0.12310995150E+04  0.13184910904E+04  0.90347535280E+02 0.  0.
    5000000    2    1    2    0    0 -0.20218457080E+03 -0.41685904304E+03  0.13203102749E+04  0.15223903166E+04  0.59983580389E+03 0.  0.
         23    2    4    4    0    0 -0.27922235992E+03 -0.36178659877E+03  0.47547529263E+03  0.66715273012E+03  0.10080348247E+03 0.  0.
         23    2    4    4    0    0  0.77037789122E+02 -0.55072444275E+02  0.84483498223E+03  0.85523758644E+03  0.93366948061E+02 0.  0.
          5    1    3    3  502    0  0.15245629091E+03  0.34025591841E+03  0.10717745821E+04  0.11347862598E+04  0.47000000000E+01 0. -1.
         -5    1    3    3    0  502  0.49728279887E+02  0.76603124630E+02  0.15932493289E+03  0.18370483054E+03  0.47000000000E+01 0.  1.
         11    1    5    5    0    0 -0.11138351519E+03 -0.22351354765E+03  0.23463521885E+03  0.34266350749E+03  0.00000000000E+00 0. -1.
        -11    1    5    5    0    0 -0.16783884473E+03 -0.13827305111E+03  0.24084007378E+03  0.32448922263E+03  0.00000000000E+00 0.  1.
          3    1    6    6  503    0  0.78630965489E+02 -0.79201594150E+01  0.38757852306E+03  0.39555362367E+03  0.00000000000E+00 0. -1.
         -3    1    6    6    0  503 -0.15931763677E+01 -0.47152284860E+02  0.45725645917E+03  0.45968396277E+03  0.00000000000E+00 0.  1.
<mgrwt>
<rscale>  0 0.52886361E+03</rscale>
<asrwt>0</asrwt>
<pdfrwt beam="1">  1        2 0.22267049E-01 0.52886361E+03</pdfrwt>
<pdfrwt beam="2">  1       -2 0.41479159E+00 0.52886361E+03</pdfrwt>
<totfact> 0.16463841E+00</totfact>
</mgrwt>
</event>
<event>
12    1  0.3203156E-008  0.9280472E+03  0.7818608E-02  0.9391185E-01
         -2   -1    0    0    0  501 -0.00000000000E+00  0.00000000000E+00  0.16924749055E+04  0.16924749055E+04  0.00000000000E+00 0.  1.
          2   -1    0    0  501    0  0.00000000000E+00 -0.00000000000E+00 -0.13461234132E+04  0.13461234132E+04  0.00000000000E+00 0. -1.
         23    2    1    2    0    0  0.20793943885E+02 -0.85225143544E+03 -0.10121052966E+04  0.13262852945E+04  0.88941855087E+02 0.  0.
    5000000    2    1    2    0    0 -0.20793943885E+02  0.85225143544E+03  0.13584567889E+04  0.17123130242E+04  0.59987177652E+03 0.  0.
         23    2    4    4    0    0  0.23337675036E+03  0.55720856744E+03  0.60861436659E+03  0.86249412321E+03  0.92404383620E+02 0.  0.
         23    2    4    4    0    0 -0.25417069425E+03  0.29504286800E+03  0.74984242229E+03  0.84981890099E+03  0.90969612728E+02 0.  0.
          5    1    3    3  502    0  0.15989683779E+02 -0.31310829535E+03 -0.30881369482E+03  0.44009142540E+03  0.47000000000E+01 0. -1.
         -5    1    3    3    0  502  0.48042601055E+01 -0.53914314008E+03 -0.70329160179E+03  0.88619386906E+03  0.47000000000E+01 0.  1.
         11    1    5    5    0    0  0.12183215857E+03  0.18275467925E+03  0.19834945549E+03  0.29594738408E+03  0.00000000000E+00 0. -1.
        -11    1    5    5    0    0  0.11154459179E+03  0.37445388819E+03  0.41026491111E+03  0.56654673913E+03  0.00000000000E+00 0.  1.
          4    1    6    6  503    0 -0.11783873385E+03  0.97302573086E+02  0.37117325062E+03  0.40140171886E+03  0.00000000000E+00 0. -1.
         -4    1    6    6    0  503 -0.13633196040E+03  0.19774029491E+03  0.37866917167E+03  0.44841718213E+03  0.00000000000E+00 0.  1.
<mgrwt>
<rscale>  0 0.92804722E+03</rscale>
<asrwt>0</asrwt>
<pdfrwt beam="1">  1        2 0.20709591E+00 0.92804722E+03</pdfrwt>
<pdfrwt beam="2">  1       -2 0.26038075E+00 0.92804722E+03</pdfrwt>
<totfact> 0.87084398E-01</totfact>
</mgrwt>
</event>
<event>
12    1  0.3203156E-008  0.1208316E+04  0.7818608E-02  0.9105609E-01
          2   -1    0    0  501    0  0.00000000000E+00  0.00000000000E+00  0.15588587035E+04  0.15588587035E+04  0.00000000000E+00 0.  1.
         -2   -1    0    0    0  501 -0.00000000000E+00 -0.00000000000E+00 -0.12122972115E+04  0.12122972115E+04  0.00000000000E+00 0. -1.
         23    2    1    2    0    0 -0.11199144668E+04 -0.18560418868E+03 -0.48896354650E+03  0.12393455885E+04  0.90745854654E+02 0.  0.
    5000000    2    1    2    0    0  0.11199144668E+04  0.18560418868E+03  0.83552503846E+03  0.15318103265E+04  0.59973615772E+03 0.  0.
         23    2    4    4    0    0  0.69718547635E+03 -0.16968274732E+03  0.50318306194E+03  0.88075931270E+03  0.87658142334E+02 0.  0.
         23    2    4    4    0    0  0.42272899042E+03  0.35528693600E+03  0.33234197652E+03  0.65105101384E+03  0.92128318304E+02 0.  0.
          5    1    3    3  502    0 -0.86117604083E+03 -0.17353059727E+03 -0.40168228872E+03  0.96597504758E+03  0.47000000000E+01 0. -1.
         -5    1    3    3    0  502 -0.25873842595E+03 -0.12073591411E+02 -0.87281257782E+02  0.27337054090E+03  0.47000000000E+01 0.  1.
         13    1    5    5    0    0  0.69814766834E+03 -0.16750640588E+03  0.50498964387E+03  0.87777166919E+03  0.00000000000E+00 0. -1.
        -13    1    5    5    0    0 -0.96219198393E+00 -0.21763414406E+01 -0.18065819340E+01  0.29876435136E+01  0.00000000000E+00 0.  1.
          3    1    6    6  503    0  0.38142663843E+03  0.34891066172E+03  0.29610891993E+03  0.59573939171E+03  0.00000000000E+00 0. -1.
         -3    1    6    6    0  503  0.41302351987E+02  0.63762742802E+01  0.36233056597E+02  0.55311622139E+02  0.00000000000E+00 0.  1.
<mgrwt>
<rscale>  0 0.12083157E+04</rscale>
<asrwt>0</asrwt>
<pdfrwt beam="1">  1        2 0.23982442E+00 0.12083157E+04</pdfrwt>
<pdfrwt beam="2">  1       -2 0.18650726E+00 0.12083157E+04</pdfrwt>
<totfact> 0.18655564E+00</totfact>
</mgrwt>
</event>
<event>
12    1  0.3203156E-008  0.4843711E+03  0.7818608E-02  0.1017941E+00
          2   -1    0    0  501    0  0.00000000000E+00  0.00000000000E+00  0.21020312447E+04  0.21020312447E+04  0.00000000000E+00 0. -1.
         -2   -1    0    0    0  501 -0.00000000000E+00 -0.00000000000E+00 -0.15022057072E+03  0.15022057072E+03  0.00000000000E+00 0.  1.
         23    2    1    2    0    0  0.24388266445E+03  0.18824107543E+03  0.20985704352E+03  0.38433260063E+03  0.93584788815E+02 0.  0.
    5000000    2    1    2    0    0 -0.24388266445E+03 -0.18824107543E+03  0.17419536304E+04  0.18679192148E+04  0.59983854975E+03 0.  0.
         23    2    4    4    0    0 -0.84956326885E+02 -0.38484882200E+03  0.10793660446E+04  0.11527894357E+04  0.92553938690E+02 0.  0.
         23    2    4    4    0    0 -0.15892633757E+03  0.19660774657E+03  0.66258758589E+03  0.71512977910E+03  0.92065765605E+02 0.  0.
          5    1    3    3  502    0  0.16626532761E+03  0.70691895389E+02  0.12623572644E+03  0.22045192643E+03  0.47000000000E+01 0. -1.
         -5    1    3    3    0  502  0.77617336843E+02  0.11754918004E+03  0.83621317074E+02  0.16388067420E+03  0.47000000000E+01 0.  1.
         11    1    5    5    0    0 -0.41219074319E+02 -0.18203973429E+03  0.64422804259E+03  0.67072143831E+03  0.00000000000E+00 0.  1.
        -11    1    5    5    0    0 -0.43737252566E+02 -0.20280908770E+03  0.43513800196E+03  0.48206799735E+03  0.00000000000E+00 0. -1.
          2    1    6    6  503    0 -0.36122331278E+02  0.50492636454E+02  0.75235288957E+02  0.97543210206E+02  0.00000000000E+00 0. -1.
         -2    1    6    6    0  503 -0.12280400629E+03  0.14611511012E+03  0.58735229693E+03  0.61758656889E+03  0.00000000000E+00 0.  1.
<mgrwt>
<rscale>  0 0.48437108E+03</rscale>
<asrwt>0</asrwt>
<pdfrwt beam="1">  1        2 0.32338940E+00 0.48437108E+03</pdfrwt>
<pdfrwt beam="2">  1       -2 0.23110859E-01 0.48437108E+03</pdfrwt>
<totfact> 0.10311496E+02</totfact>
</mgrwt>
</event>
<event>
12    1  0.3203156E-008  0.7295183E+03  0.7818608E-02  0.9668042E-01
          1   -1    0    0  501    0  0.00000000000E+00  0.00000000000E+00  0.22674746712E+04  0.22674746712E+04  0.00000000000E+00 0. -1.
         -1   -1    0    0    0  501 -0.00000000000E+00 -0.00000000000E+00 -0.56415789410E+03  0.56415789410E+03  0.00000000000E+00 0.  1.
         23    2    1    2    0    0  0.98522625457E+02 -0.65151983044E+03 -0.22898713664E+03  0.70383040151E+03  0.93580597166E+02 0.  0.
    5000000    2    1    2    0    0 -0.98522625457E+02  0.65151983044E+03  0.19323039137E+04  0.21278021638E+04  0.59963225063E+03 0.  0.
         23    2    4    4    0    0 -0.18800954753E+03  0.66273819938E+03  0.12205869262E+04  0.14046127542E+04  0.92385247764E+02 0.  0.
         23    2    4    4    0    0  0.89486922072E+02 -0.11218368943E+02  0.71171698754E+03  0.72318940958E+03  0.91258373582E+02 0.  0.
          5    1    3    3  502    0  0.55213684545E+02 -0.16773111736E+03 -0.31306359324E+02  0.17940026986E+03  0.47000000000E+01 0. -1.
         -5    1    3    3    0  502  0.43308940912E+02 -0.48378871308E+03 -0.19768077732E+03  0.52443013165E+03  0.47000000000E+01 0.  1.
         13    1    5    5    0    0 -0.97051142580E+02  0.27374069045E+03  0.59937059528E+03  0.66603153106E+03  0.00000000000E+00 0. -1.
        -13    1    5    5    0    0 -0.90958404949E+02  0.38899750893E+03  0.62121633090E+03  0.73858122313E+03  0.00000000000E+00 0.  1.
          1    1    6    6  503    0  0.53320872560E+02  0.21933175564E+02  0.57597234164E+03  0.57885085987E+03  0.00000000000E+00 0. -1.
         -1    1    6    6    0  503  0.36166049512E+02 -0.33151544507E+02  0.13574464590E+03  0.14433854971E+03  0.00000000000E+00 0.  1.
<mgrwt>
<rscale>  0 0.72951832E+03</rscale>
<asrwt>0</asrwt>
<pdfrwt beam="1">  1        1 0.34884225E+00 0.72951832E+03</pdfrwt>
<pdfrwt beam="2">  1       -1 0.86793523E-01 0.72951832E+03</pdfrwt>
<totfact> 0.27221284E+00</totfact>
</mgrwt>
</event>
<event>
12    1  0.3203156E-008  0.9835420E+03  0.7818608E-02  0.9326782E-01
         -2   -1    0    0    0  501 -0.00000000000E+00  0.00000000000E+00  0.11310834355E+04  0.11310834355E+04  0.00000000000E+00 0.  1.
          2   -1    0    0  501    0  0.00000000000E+00 -0.00000000000E+00 -0.91348408018E+03  0.91348408018E+03  0.00000000000E+00 0. -1.
         23    2    1    2    0    0  0.24834503500E+03  0.89149775942E+03  0.10332381191E+03  0.93575424628E+03  0.92285902807E+02 0.  0.
    5000000    2    1    2    0    0 -0.24834503500E+03 -0.89149775942E+03  0.11427554339E+03  0.11088132694E+04  0.59997037850E+03 0.  0.
         23    2    4    4    0    0 -0.26577070400E+03 -0.91061281669E+03 -0.95663742001E+01  0.95296083498E+03  0.90515570218E+02 0.  0.
         23    2    4    4    0    0  0.17425669002E+02  0.19115057267E+02  0.12384191759E+03  0.15585243441E+03  0.91017148963E+02 0.  0.
          5    1    3    3  502    0  0.20925825414E+03  0.83555513464E+03  0.89997262408E+02  0.86606177446E+03  0.47000000000E+01 0. -1.
         -5    1    3    3    0  502  0.39086780868E+02  0.55942624786E+02  0.13326549506E+02  0.69692471819E+02  0.47000000000E+01 0.  1.
         13    1    5    5    0    0 -0.20150260396E+03 -0.77649356458E+03 -0.30386124249E+02  0.80278818612E+03  0.00000000000E+00 0. -1.
        -13    1    5    5    0    0 -0.64268100047E+02 -0.13411925212E+03  0.20819750049E+02  0.15017264885E+03  0.00000000000E+00 0.  1.
          1    1    6    6  503    0 -0.33102151403E+02  0.12617691314E+02  0.84047534848E+02  0.91208259909E+02  0.00000000000E+00 0. -1.
         -1    1    6    6    0  503  0.50527820406E+02  0.64973659529E+01  0.39794382738E+02  0.64644174500E+02  0.00000000000E+00 0.  1.
<mgrwt>
<rscale>  0 0.98354204E+03</rscale>
<asrwt>0</asrwt>
<pdfrwt beam="1">  1        2 0.14053601E+00 0.98354204E+03</pdfrwt>
<pdfrwt beam="2">  1       -2 0.17401284E+00 0.98354204E+03</pdfrwt>
<totfact> 0.56925104E+00</totfact>
</mgrwt>
</event>
<event>
12    1  0.3203156E-008  0.6363615E+03  0.7818608E-02  0.9832713E-01
         -1   -1    0    0    0  501 -0.00000000000E+00  0.00000000000E+00  0.77891582764E+03  0.77891582764E+03  0.00000000000E+00 0.  1.
          1   -1    0    0  501    0  0.00000000000E+00 -0.00000000000E+00 -0.73211302864E+03  0.73211302864E+03  0.00000000000E+00 0. -1.
         23    2    1    2    0    0 -0.47085704758E+03 -0.33780601499E+03 -0.23331363048E+03  0.63105020410E+03  0.89273999058E+02 0.  0.
    5000000    2    1    2    0    0  0.47085704758E+03  0.33780601499E+03  0.28011642947E+03  0.87997865217E+03  0.60006495581E+03 0.  0.
         23    2    4    4    0    0  0.46379916433E+03  0.38226952121E+03  0.29064392982E+02  0.60888928519E+03  0.93068635979E+02 0.  0.
         23    2    4    4    0    0  0.70578832530E+01 -0.44463506217E+02  0.25105203649E+03  0.27108936698E+03  0.91844993131E+02 0.  0.
          5    1    3    3  502    0 -0.20425131579E+03 -0.14888008799E+03 -0.14944712931E+03  0.29366718417E+03  0.47000000000E+01 0. -1.
         -5    1    3    3    0  502 -0.26660573179E+03 -0.18892592701E+03 -0.83866501171E+02  0.33738301993E+03  0.47000000000E+01 0.  1.
         11    1    5    5    0    0  0.13866559046E+03  0.15689935049E+03 -0.19569541981E+02  0.21030577532E+03  0.00000000000E+00 0.  1.
        -11    1    5    5    0    0  0.32513357387E+03  0.22537017072E+03  0.48633934963E+02  0.39858350987E+03  0.00000000000E+00 0. -1.
          3    1    6    6  503    0 -0.26219100481E+02  0.67368436230E+01  0.15445814935E+03  0.15681245548E+03  0.00000000000E+00 0. -1.
         -3    1    6    6    0  503  0.33276983734E+02 -0.51200349840E+02  0.96593887140E+02  0.11427691150E+03  0.00000000000E+00 0.  1.
<mgrwt>
<rscale>  0 0.63636146E+03</rscale>
<asrwt>0</asrwt>
<pdfrwt beam="1">  1        1 0.11263277E+00 0.63636146E+03</pdfrwt>
<pdfrwt beam="2">  1       -1 0.11983320E+00 0.63636146E+03</pdfrwt>
<totfact> 0.16482005E+01</totfact>
</mgrwt>
</event>
<event>
12    1  0.3203156E-008  0.4269364E+03  0.7818608E-02  0.1034832E+00
          1   -1    0    0  501    0  0.00000000000E+00  0.00000000000E+00  0.23669806893E+03  0.23669806893E+03  0.00000000000E+00 0. -1.
         -1   -1    0    0    0  501 -0.00000000000E+00 -0.00000000000E+00 -0.13871884957E+04  0.13871884957E+04  0.00000000000E+00 0.  1.
         23    2    1    2    0    0 -0.10786408320E+03 -0.22220607490E+03 -0.88398342140E+03  0.92237269920E+03  0.91293519815E+02 0.  0.
    5000000    2    1    2    0    0  0.10786408320E+03  0.22220607490E+03 -0.26650700534E+03  0.70151386540E+03  0.60007126184E+03 0.  0.
         23    2    4    4    0    0  0.21842637374E+03 -0.97318302741E+02  0.94162243748E+01  0.25585053518E+03  0.90498056754E+02 0.  0.
         23    2    4    4    0    0 -0.11056229054E+03  0.31952437764E+03 -0.27592322972E+03  0.44566333022E+03  0.90345598723E+02 0.  0.
          5    1    3    3  502    0 -0.10493009870E+03 -0.12684399184E+03 -0.48836295627E+03  0.51538353771E+03  0.47000000000E+01 0. -1.
         -5    1    3    3    0  502 -0.29339845091E+01 -0.95362083062E+02 -0.39562046512E+03  0.40698916150E+03  0.47000000000E+01 0.  1.
         11    1    5    5    0    0  0.19959694224E+03 -0.71068755351E+02 -0.19138954949E+02  0.21273459271E+03  0.00000000000E+00 0. -1.
        -11    1    5    5    0    0  0.18829431500E+02 -0.26249547390E+02  0.28555179324E+02  0.43115942469E+02  0.00000000000E+00 0.  1.
          2    1    6    6  503    0 -0.11465491466E+02  0.16827108911E+03 -0.12141526087E+03  0.20781790706E+03  0.00000000000E+00 0. -1.
         -2    1    6    6    0  503 -0.99096799071E+02  0.15125328853E+03 -0.15450796885E+03  0.23784542315E+03  0.00000000000E+00 0.  1.
<mgrwt>
<rscale>  0 0.42693641E+03</rscale>
<asrwt>0</asrwt>
<pdfrwt beam="1">  1        1 0.36415087E-01 0.42693641E+03</pdfrwt>
<pdfrwt beam="2">  1       -1 0.21341362E+00 0.42693641E+03</pdfrwt>
<totfact> 0.15681867E+01</totfact>
</mgrwt>
</event>
<event>
12    1  0.3203156E-008  0.8076136E+03  0.7818608E-02  0.9549062E-01
         -2   -1    0    0    0  501 -0.00000000000E+00  0.00000000000E+00  0.29038533448E+03  0.29038533448E+03  0.00000000000E+00 0.  1.
          2   -1    0    0  501    0  0.00000000000E+00 -0.00000000000E+00 -0.24019626077E+04  0.24019626077E+04  0.00000000000E+00 0. -1.
         23    2    1    2    0    0 -0.19249975056E+03 -0.68110523313E+03 -0.11702442403E+04  0.13706178136E+04  0.90338898068E+02 0.  0.
    5000000    2    1    2    0    0  0.19249975056E+03  0.68110523313E+03 -0.94133303297E+03  0.13217301286E+04  0.59991846223E+03 0.  0.
         23    2    4    4    0    0  0.20052229661E+03 -0.12481844455E+02 -0.30187444116E+03  0.37374826035E+03  0.90524007936E+02 0.  0.
         23    2    4    4    0    0 -0.80225460442E+01  0.69358707759E+03 -0.63945859181E+03  0.94798186825E+03  0.92924358729E+02 0.  0.
          5    1    3    3  502    0 -0.64654967013E+02 -0.23523051963E+03 -0.32427594957E+03  0.40582095017E+03  0.47000000000E+01 0. -1.
         -5    1    3    3    0  502 -0.12784478355E+03 -0.44587471351E+03 -0.84596829068E+03  0.96479686342E+03  0.47000000000E+01 0.  1.
         13    1    5    5    0    0  0.13612043463E+03  0.17185322052E+02 -0.25242411758E+03  0.28730131074E+03  0.00000000000E+00 0. -1.
        -13    1    5    5    0    0  0.64401861978E+02 -0.29667166507E+02 -0.49450323581E+02  0.86446949611E+02  0.00000000000E+00 0.  1.
          1    1    6    6  503    0 -0.44587992285E+02  0.51717609679E+03 -0.49125605219E+03  0.71469693785E+03  0.00000000000E+00 0. -1.
         -1    1    6    6    0  503  0.36565446241E+02  0.17641098079E+03 -0.14820253962E+03  0.23328493040E+03  0.00000000000E+00 0.  1.
<mgrwt>
<rscale>  0 0.80761360E+03</rscale>
<asrwt>0</asrwt>
<pdfrwt beam="1">  1        2 0.36953272E+00 0.80761360E+03</pdfrwt>
<pdfrwt beam="2">  1       -2 0.44674666E-01 0.80761360E+03</pdfrwt>
<totfact> 0.19496894E+01</totfact>
</mgrwt>
</event>
<event>
12    1  0.3203156E-008  0.1018560E+04  0.7818608E-02  0.9288420E-01
         -1   -1    0    0    0  501 -0.00000000000E+00  0.00000000000E+00  0.10425829342E+04  0.10425829342E+04  0.00000000000E+00 0.  1.
          1   -1    0    0  501    0  0.00000000000E+00 -0.00000000000E+00 -0.11385654867E+04  0.11385654867E+04  0.00000000000E+00 0. -1.
         23    2    1    2    0    0  0.47780699633E+03 -0.88385762421E+03 -0.38565157991E+02  0.10095394310E+04  0.90436528594E+02 0.  0.
    5000000    2    1    2    0    0 -0.47780699633E+03  0.88385762421E+03 -0.57417394520E+02  0.11716089898E+04  0.59988919167E+03 0.  0.
         23    2    4    4    0    0 -0.36867912236E+03  0.49046098927E+03 -0.29957119943E+03  0.68897122424E+03  0.91990037700E+02 0.  0.
         23    2    4    4    0    0 -0.10912787397E+03  0.39339663494E+03  0.24215380491E+03  0.48263776561E+03  0.87355264899E+02 0.  0.
          5    1    3    3  502    0  0.78754176342E+02 -0.10930671892E+03  0.19886241335E+02  0.13626346424E+03  0.47000000000E+01 0. -1.
         -5    1    3    3    0  502  0.39905281999E+03 -0.77455090529E+03 -0.58451399326E+02  0.87327596675E+03  0.47000000000E+01 0.  1.
         11    1    5    5    0    0 -0.30470467982E+03  0.40462223607E+03 -0.20608125628E+03  0.54683962916E+03  0.00000000000E+00 0. -1.
        -11    1    5    5    0    0 -0.63974442532E+02  0.85838753206E+02 -0.93489943150E+02  0.14213159508E+03  0.00000000000E+00 0.  1.
          1    1    6    6  503    0 -0.90071947671E+02  0.16295862586E+03  0.10349943790E+03  0.21302723568E+03  0.00000000000E+00 0. -1.
         -1    1    6    6    0  503 -0.19055926299E+02  0.23043800908E+03  0.13865436701E+03  0.26961052993E+03  0.00000000000E+00 0.  1.
<mgrwt>
<rscale>  0 0.10185596E+04</rscale>
<asrwt>0</asrwt>
<pdfrwt beam="1">  1        1 0.17516392E+00 0.10185596E+04</pdfrwt>
<pdfrwt beam="2">  1       -1 0.16039738E+00 0.10185596E+04</pdfrwt>
<totfact> 0.34461630E+00</totfact>
</mgrwt>
</event>
<event>
12    1  0.3203156E-008  0.6733602E+03  0.7818608E-02  0.9763906E-01
         -1   -1    0    0    0  501 -0.00000000000E+00  0.00000000000E+00  0.56274135582E+03  0.56274135582E+03  0.00000000000E+00 0.  1.
          1   -1    0    0  501    0  0.00000000000E+00 -0.00000000000E+00 -0.96863762306E+03  0.96863762306E+03  0.00000000000E+00 0. -1.
         23    2    1    2    0    0 -0.11630500514E+03  0.59458735719E+03 -0.76906980670E+02  0.61751051175E+03  0.91343138197E+02 0.  0.
    5000000    2    1    2    0    0  0.11630500514E+03 -0.59458735719E+03 -0.32898928657E+03  0.91386846714E+03  0.59988385959E+03 0.  0.
         23    2    4    4    0    0 -0.13302810279E+03 -0.35341184376E+03 -0.38879810566E+03  0.54983047743E+03  0.92483401210E+02 0.  0.
         23    2    4    4    0    0  0.24933310793E+03 -0.24117551343E+03  0.59808819090E+02  0.36403798971E+03  0.92811293084E+02 0.  0.
          5    1    3    3  502    0  0.24932542985E+01  0.20246747459E+03 -0.36184542079E+02  0.20574427250E+03  0.47000000000E+01 0. -1.
         -5    1    3    3    0  502 -0.11879825944E+03  0.39211988260E+03 -0.40722438590E+02  0.41176623925E+03  0.47000000000E+01 0.  1.
         13    1    5    5    0    0 -0.49127913269E+02 -0.13408220024E+03 -0.21321537321E+03  0.25661719283E+03  0.00000000000E+00 0. -1.
        -13    1    5    5    0    0 -0.83900189518E+02 -0.21932964352E+03 -0.17558273246E+03  0.29321328460E+03  0.00000000000E+00 0.  1.
          3    1    6    6  503    0  0.14576573329E+03 -0.19487960862E+03  0.59763675586E+02  0.25059410962E+03  0.00000000000E+00 0. -1.
         -3    1    6    6    0  503  0.10356737464E+03 -0.46295904808E+02  0.45143504444E-01  0.11344388009E+03  0.00000000000E+00 0.  1.
<mgrwt>
<rscale>  0 0.67336024E+03</rscale>
<asrwt>0</asrwt>
<pdfrwt beam="1">  1        1 0.14902117E+00 0.67336024E+03</pdfrwt>
<pdfrwt beam="2">  1       -1 0.86575594E-01 0.67336024E+03</pdfrwt>
<totfact> 0.21877102E+01</totfact>
</mgrwt>
</event>
<event>
12    1  0.3203156E-008  0.8885353E+03  0.7818608E-02  0.9440027E-01
         -2   -1    0    0    0  501 -0.00000000000E+00  0.00000000000E+00  0.55576989535E+03  0.55576989535E+03  0.00000000000E+00 0.  1.
          2   -1    0    0  501    0  0.00000000000E+00 -0.00000000000E+00 -0.14822662716E+04  0.14822662716E+04  0.00000000000E+00 0. -1.
         23    2    1    2    0    0 -0.14065910608E+03  0.78428826673E+03 -0.26923223817E+03  0.84352894887E+03  0.64513719866E+02 0.  0.
    5000000    2    1    2    0    0  0.14065910608E+03 -0.78428826673E+03 -0.65726413804E+03  0.11945072180E+04  0.59996523012E+03 0.  0.
         23    2    4    4    0    0  0.18813366420E+03 -0.17548743730E+02 -0.22999548366E+03  0.31090191302E+03  0.89776628410E+02 0.  0.
         23    2    4    4    0    0 -0.47474558117E+02 -0.76673952300E+03 -0.42726865438E+03  0.88360530502E+03  0.89758020503E+02 0.  0.
          5    1    3    3  502    0 -0.10913064200E+03  0.51712123408E+03 -0.15134081148E+03  0.54977267937E+03  0.47000000000E+01 0. -1.
         -5    1    3    3    0  502 -0.31528464079E+02  0.26716703265E+03 -0.11789142669E+03  0.29375626950E+03  0.47000000000E+01 0.  1.
         13    1    5    5    0    0  0.34111125838E+02  0.31052762381E+02 -0.36253835059E+02  0.58670124543E+02  0.00000000000E+00 0. -1.
        -13    1    5    5    0    0  0.15402253836E+03 -0.48601506111E+02 -0.19374164860E+03  0.25223178848E+03  0.00000000000E+00 0.  1.
          2    1    6    6  503    0 -0.67865939138E+02 -0.56025107217E+03 -0.33715446848E+03  0.65738891471E+03  0.00000000000E+00 0. -1.
         -2    1    6    6    0  503  0.20391381020E+02 -0.20648845083E+03 -0.90114185900E+02  0.22621639031E+03  0.00000000000E+00 0.  1.
<mgrwt>
<rscale>  0 0.88853527E+03</rscale>
<asrwt>0</asrwt>
<pdfrwt beam="1">  1        2 0.22804096E+00 0.88853527E+03</pdfrwt>
<pdfrwt beam="2">  1       -2 0.85503064E-01 0.88853527E+03</pdfrwt>
<totfact> 0.15561353E+01</totfact>
</mgrwt>
</event>
<event>
12    1  0.3203156E-008  0.1713428E+04  0.7818608E-02  0.8753742E-01
         -2   -1    0    0    0  501 -0.00000000000E+00  0.00000000000E+00  0.10455457028E+04  0.10455457028E+04  0.00000000000E+00 0.  1.
          2   -1    0    0  501    0  0.00000000000E+00 -0.00000000000E+00 -0.30693466898E+04  0.30693466898E+04  0.00000000000E+00 0. -1.
         23    2    1    2    0    0  0.17066939515E+04 -0.70835555881E+02 -0.60375267857E+03  0.18138371740E+04  0.87556134375E+02 0.  0.
    5000000    2    1    2    0    0 -0.17066939515E+04  0.70835555881E+02 -0.14200483084E+04  0.23010552187E+04  0.60041319191E+03 0.  0.
         23    2    4    4    0    0 -0.14331893057E+04  0.10161280436E+03 -0.87826662746E+03  0.16865248779E+04  0.93043791242E+02 0.  0.
         23    2    4    4    0    0 -0.27350464588E+03 -0.30777248482E+02 -0.54178168095E+03  0.61453034075E+03  0.91477426476E+02 0.  0.
          5    1    3    3  502    0  0.66512113576E+03 -0.32526117271E+02 -0.28024622700E+03  0.72249851992E+03  0.47000000000E+01 0. -1.
         -5    1    3    3    0  502  0.10415728158E+04 -0.38309438610E+02 -0.32350645157E+03  0.10913386541E+04  0.47000000000E+01 0.  1.
         11    1    5    5    0    0 -0.84655075601E+03  0.19805248360E+02 -0.49084946671E+03  0.97876127290E+03  0.00000000000E+00 0.  1.
        -11    1    5    5    0    0 -0.58663854965E+03  0.81807556003E+02 -0.38741716074E+03  0.70776360502E+03  0.00000000000E+00 0. -1.
          2    1    6    6  503    0 -0.92750323666E+02  0.12736828401E+02 -0.26545817059E+03  0.28148337371E+03  0.00000000000E+00 0. -1.
         -2    1    6    6    0  503 -0.18075432221E+03 -0.43514076883E+02 -0.27632351036E+03  0.33304696705E+03  0.00000000000E+00 0.  1.
<mgrwt>
<rscale>  0 0.17134284E+04</rscale>
<asrwt>0</asrwt>
<pdfrwt beam="1">  1        2 0.47220718E+00 0.17134284E+04</pdfrwt>
<pdfrwt beam="2">  1       -2 0.16085319E+00 0.17134284E+04</pdfrwt>
<totfact> 0.36152458E-01</totfact>
</mgrwt>
</event>
<event>
12    1  0.3203156E-008  0.4112383E+03  0.7818608E-02  0.1039956E+00
         -2   -1    0    0    0  501 -0.00000000000E+00  0.00000000000E+00  0.20179101280E+03  0.20179101280E+03  0.00000000000E+00 0.  1.
          2   -1    0    0  501    0  0.00000000000E+00 -0.00000000000E+00 -0.15684082692E+04  0.15684082692E+04  0.00000000000E+00 0. -1.
         23    2    1    2    0    0 -0.35263952639E+03 -0.10272565559E+03 -0.72842745744E+03  0.82037624496E+03  0.86622321920E+02 0.  0.
    5000000    2    1    2    0    0  0.35263952639E+03  0.10272565559E+03 -0.63818979895E+03  0.94982303704E+03  0.59997532142E+03 0.  0.
         23    2    4    4    0    0  0.25116828372E+03 -0.46535755311E+02 -0.69005223051E+03  0.74143476508E+03  0.91117214465E+02 0.  0.
         23    2    4    4    0    0  0.10147124268E+03  0.14926141090E+03  0.51862431554E+02  0.20838827196E+03  0.90335918708E+02 0.  0.
          5    1    3    3  502    0 -0.24956260912E+03 -0.91401609534E+02 -0.59207757197E+03  0.64900977752E+03  0.47000000000E+01 0. -1.
         -5    1    3    3    0  502 -0.10307691727E+03 -0.11324046058E+02 -0.13634988547E+03  0.17136646744E+03  0.47000000000E+01 0.  1.
         13    1    5    5    0    0  0.14644215381E+03 -0.79197046551E+01 -0.49963815522E+03  0.52071711350E+03  0.00000000000E+00 0. -1.
        -13    1    5    5    0    0  0.10472612991E+03 -0.38616050656E+02 -0.19041407529E+03  0.22071765158E+03  0.00000000000E+00 0.  1.
          1    1    6    6  503    0  0.11215393924E+03  0.12422805819E+03  0.23376570195E+02  0.16898988302E+03  0.00000000000E+00 0. -1.
         -1    1    6    6    0  503 -0.10682696562E+02  0.25033352712E+02  0.28485861359E+02  0.39398388942E+02  0.00000000000E+00 0.  1.
<mgrwt>
<rscale>  0 0.41123830E+03</rscale>
<asrwt>0</asrwt>
<pdfrwt beam="1">  1        2 0.24129358E+00 0.41123830E+03</pdfrwt>
<pdfrwt beam="2">  1       -2 0.31044771E-01 0.41123830E+03</pdfrwt>
<totfact> 0.11843676E+02</totfact>
</mgrwt>
</event>
<event>
12    1  0.3203156E-008  0.1843041E+04  0.7818608E-02  0.8683740E-01
         -2   -1    0    0    0  501 -0.00000000000E+00  0.00000000000E+00  0.11799682935E+04  0.11799682935E+04  0.00000000000E+00 0.  1.
          2   -1    0    0  501    0  0.00000000000E+00 -0.00000000000E+00 -0.29420117778E+04  0.29420117778E+04  0.00000000000E+00 0. -1.
         23    2    1    2    0    0  0.17394685106E+04  0.50829704429E+03 -0.94138330135E+03  0.20441628837E+04  0.91009837515E+02 0.  0.
    5000000    2    1    2    0    0 -0.17394685106E+04 -0.50829704429E+03 -0.82066018291E+03  0.20778171875E+04  0.59977040969E+03 0.  0.
         23    2    4    4    0    0 -0.16844459988E+04 -0.42258306457E+03 -0.85308253369E+03  0.19369960662E+04  0.90935040651E+02 0.  0.
         23    2    4    4    0    0 -0.55022511811E+02 -0.85713979723E+02  0.32422350778E+02  0.14082112139E+03  0.91678875831E+02 0.  0.
          5    1    3    3  502    0  0.10795024543E+04  0.33300324609E+03 -0.54087394929E+03  0.12525108502E+04  0.47000000000E+01 0. -1.
         -5    1    3    3    0  502  0.65996605629E+03  0.17529379820E+03 -0.40050935206E+03  0.79165203355E+03  0.47000000000E+01 0.  1.
         11    1    5    5    0    0 -0.14601342859E+04 -0.38658663555E+03 -0.71483729463E+03  0.16710576643E+04  0.00000000000E+00 0. -1.
        -11    1    5    5    0    0 -0.22431171293E+03 -0.35996429014E+02 -0.13824523906E+03  0.26593840186E+03  0.00000000000E+00 0.  1.
          4    1    6    6  503    0  0.25187881291E+02 -0.22134337978E+02  0.25422473260E+00  0.33532415837E+02  0.00000000000E+00 0.  1.
         -4    1    6    6    0  503 -0.80210393102E+02 -0.63579641746E+02  0.32168126045E+02  0.10728870555E+03  0.00000000000E+00 0. -1.
<mgrwt>
<rscale>  0 0.18430414E+04</rscale>
<asrwt>0</asrwt>
<pdfrwt beam="1">  1        2 0.45261719E+00 0.18430414E+04</pdfrwt>
<pdfrwt beam="2">  1       -2 0.18153359E+00 0.18430414E+04</pdfrwt>
<totfact> 0.30467158E-01</totfact>
</mgrwt>
</event>
<event>
12    1  0.3203156E-008  0.7992528E+03  0.7818608E-02  0.9561099E-01
         -2   -1    0    0    0  501 -0.00000000000E+00  0.00000000000E+00  0.43801534260E+03  0.43801534260E+03  0.00000000000E+00 0.  1.
          2   -1    0    0  501    0  0.00000000000E+00 -0.00000000000E+00 -0.19131534913E+04  0.19131534913E+04  0.00000000000E+00 0. -1.
         23    2    1    2    0    0  0.21822980197E+03  0.72757437507E+03 -0.28343418533E+03  0.81586025164E+03  0.91127904981E+02 0.  0.
    5000000    2    1    2    0    0 -0.21822980197E+03 -0.72757437507E+03 -0.11917039634E+04  0.15353085823E+04  0.60002115692E+03 0.  0.
         23    2    4    4    0    0 -0.28852365409E+03 -0.56633978585E+03 -0.49215667512E+03  0.80824206213E+03  0.83966577388E+02 0.  0.
         23    2    4    4    0    0  0.70293852120E+02 -0.16123458922E+03 -0.69954728828E+03  0.72706652016E+03  0.91222244004E+02 0.  0.
          5    1    3    3  502    0  0.11891065457E+03  0.27893335224E+03 -0.14351991795E+03  0.33550501577E+03  0.47000000000E+01 0. -1.
         -5    1    3    3    0  502  0.99319147400E+02  0.44864102283E+03 -0.13991426739E+03  0.48035523587E+03  0.47000000000E+01 0.  1.
         11    1    5    5    0    0 -0.97749573532E+02 -0.27143617530E+03 -0.19557842714E+03  0.34854482861E+03  0.00000000000E+00 0. -1.
        -11    1    5    5    0    0 -0.19077408056E+03 -0.29490361055E+03 -0.29657824798E+03  0.45969723351E+03  0.00000000000E+00 0.  1.
          3    1    6    6  503    0  0.79878857143E+02 -0.76130993223E+02 -0.33991489196E+03  0.35737752269E+03  0.00000000000E+00 0. -1.
         -3    1    6    6    0  503 -0.95850050235E+01 -0.85103595997E+02 -0.35963239632E+03  0.36968899748E+03  0.00000000000E+00 0.  1.
<mgrwt>
<rscale>  0 0.79925285E+03</rscale>
<asrwt>0</asrwt>
<pdfrwt beam="1">  1        2 0.29433130E+00 0.79925285E+03</pdfrwt>
<pdfrwt beam="2">  1       -2 0.67386977E-01 0.79925285E+03</pdfrwt>
<totfact> 0.15468578E+01</totfact>
</mgrwt>
</event>
<event>
12    1  0.3203156E-008  0.5623524E+03  0.7818608E-02  0.9986746E-01
          1   -1    0    0  501    0  0.00000000000E+00  0.00000000000E+00  0.20205700220E+04  0.20205700220E+04  0.00000000000E+00 0. -1.
         -1   -1    0    0    0  501 -0.00000000000E+00 -0.00000000000E+00 -0.16410472419E+03  0.16410472419E+03  0.00000000000E+00 0.  1.
         23    2    1    2    0    0 -0.40062928296E+03  0.10005182617E+03  0.66635480574E+03  0.78929860781E+03  0.91920481217E+02 0.  0.
    5000000    2    1    2    0    0  0.40062928296E+03 -0.10005182617E+03  0.11901104920E+04  0.13953761383E+04  0.60016447240E+03 0.  0.
         23    2    4    4    0    0  0.51042353237E+02  0.20881271211E+03  0.55874106590E+03  0.60536365074E+03  0.89808130790E+02 0.  0.
         23    2    4    4    0    0  0.34958692973E+03 -0.30886453829E+03  0.63136942612E+03  0.79001248759E+03  0.88792194840E+02 0.  0.
          5    1    3    3  502    0 -0.22117621165E+03  0.10089724518E+03  0.39968578518E+03  0.46783542786E+03  0.47000000000E+01 0. -1.
         -5    1    3    3    0  502 -0.17945307131E+03 -0.84541900823E+00  0.26666902057E+03  0.32146317995E+03  0.47000000000E+01 0.  1.
         11    1    5    5    0    0  0.70196636433E+02  0.12509496116E+03  0.29566667164E+03  0.32862607595E+03  0.00000000000E+00 0. -1.
        -11    1    5    5    0    0 -0.19154283195E+02  0.83717750953E+02  0.26307439426E+03  0.27673757480E+03  0.00000000000E+00 0.  1.
          3    1    6    6  503    0  0.26436995761E+03 -0.18622723743E+03  0.46576502747E+03  0.56701774158E+03  0.00000000000E+00 0. -1.
         -3    1    6    6    0  503  0.85216972118E+02 -0.12263730086E+03  0.16560439865E+03  0.22299474602E+03  0.00000000000E+00 0.  1.
<mgrwt>
<rscale>  0 0.56235238E+03</rscale>
<asrwt>0</asrwt>
<pdfrwt beam="1">  1        1 0.31085691E+00 0.56235238E+03</pdfrwt>
<pdfrwt beam="2">  1       -1 0.25246882E-01 0.56235238E+03</pdfrwt>
<totfact> 0.42246944E+01</totfact>
</mgrwt>
</event>
<event>
12    1  0.3203156E-008  0.5871970E+03  0.7818608E-02  0.9932330E-01
         -2   -1    0    0    0  501 -0.00000000000E+00  0.00000000000E+00  0.45688352652E+03  0.45688352652E+03  0.00000000000E+00 0.  1.
          2   -1    0    0  501    0  0.00000000000E+00 -0.00000000000E+00 -0.93331033491E+03  0.93331033491E+03  0.00000000000E+00 0. -1.
         23    2    1    2    0    0 -0.50334521511E+03 -0.77889445236E+02 -0.15245786640E+03  0.53910371260E+03  0.89253799113E+02 0.  0.
    5000000    2    1    2    0    0  0.50334521511E+03  0.77889445236E+02 -0.32396894199E+03  0.85109014882E+03  0.59997949531E+03 0.  0.
         23    2    4    4    0    0  0.17700251486E+02  0.16235907578E+03 -0.29439003863E+03  0.34878421769E+03  0.91165603563E+02 0.  0.
         23    2    4    4    0    0  0.48564496363E+03 -0.84469630546E+02 -0.29578903355E+02  0.50230593113E+03  0.91924902753E+02 0.  0.
          5    1    3    3  502    0 -0.21679047019E+03 -0.53467681515E+02 -0.25805156462E+02  0.22482192294E+03  0.47000000000E+01 0. -1.
         -5    1    3    3    0  502 -0.28655474492E+03 -0.24421763721E+02 -0.12665270994E+03  0.31428178966E+03  0.47000000000E+01 0.  1.
         11    1    5    5    0    0  0.98416664095E+01  0.77944185484E+02 -0.22783867042E+03  0.24100334892E+03  0.00000000000E+00 0.  1.
        -11    1    5    5    0    0  0.78585850764E+01  0.84414890298E+02 -0.66551368209E+02  0.10778086878E+03  0.00000000000E+00 0. -1.
          4    1    6    6  503    0  0.16808525258E+03  0.11107965274E+02 -0.27411879437E+02  0.17066765998E+03  0.00000000000E+00 0. -1.
         -4    1    6    6    0  503  0.31755971105E+03 -0.95577595819E+02 -0.21670239182E+01  0.33163827116E+03  0.00000000000E+00 0.  1.
<mgrwt>
<rscale>  0 0.58719702E+03</rscale>
<asrwt>0</asrwt>
<pdfrwt beam="1">  1        2 0.14358620E+00 0.58719702E+03</pdfrwt>
<pdfrwt beam="2">  1       -2 0.70289774E-01 0.58719702E+03</pdfrwt>
<totfact> 0.52865557E+01</totfact>
</mgrwt>
</event>
<event>
12    1  0.3203156E-008  0.6307997E+03  0.7818608E-02  0.9843489E-01
          2   -1    0    0  501    0  0.00000000000E+00  0.00000000000E+00  0.94670634992E+03  0.94670634992E+03  0.00000000000E+00 0. -1.
         -2   -1    0    0    0  501 -0.00000000000E+00 -0.00000000000E+00 -0.84104296660E+03  0.84104296660E+03  0.00000000000E+00 0.  1.
         23    2    1    2    0    0 -0.49992823027E+03 -0.46768411095E+02  0.65593167466E+03  0.83125507596E+03  0.92860754891E+02 0.  0.
    5000000    2    1    2    0    0  0.49992823027E+03  0.46768411095E+02 -0.55026829133E+03  0.95649424056E+03  0.59997543290E+03 0.  0.
         23    2    4    4    0    0  0.27810437214E+03  0.29824140651E+03 -0.39464063546E+03  0.57585595949E+03  0.97871735228E+02 0.  0.
         23    2    4    4    0    0  0.22182385813E+03 -0.25147299541E+03 -0.15562765587E+03  0.38063828107E+03  0.90669963550E+02 0.  0.
          5    1    3    3  502    0 -0.18967479963E+03  0.15740779345E+02  0.29605317741E+03  0.35198561846E+03  0.47000000000E+01 0. -1.
         -5    1    3    3    0  502 -0.31025343064E+03 -0.62509190440E+02  0.35987849725E+03  0.47926945751E+03  0.47000000000E+01 0.  1.
         11    1    5    5    0    0  0.20172840549E+03  0.14594739051E+03 -0.23592902650E+03  0.34301238450E+03  0.00000000000E+00 0.  1.
        -11    1    5    5    0    0  0.76375966650E+02  0.15229401599E+03 -0.15871160897E+03  0.23284357498E+03  0.00000000000E+00 0. -1.
          2    1    6    6  503    0  0.96082399593E+02 -0.10769885498E+03 -0.18502517536E+02  0.14551018531E+03  0.00000000000E+00 0. -1.
         -2    1    6    6    0  503  0.12574145854E+03 -0.14377414044E+03 -0.13712513833E+03  0.23512809576E+03  0.00000000000E+00 0.  1.
<mgrwt>
<rscale>  0 0.63079971E+03</rscale>
<asrwt>0</asrwt>
<pdfrwt beam="1">  1        2 0.14564713E+00 0.63079971E+03</pdfrwt>
<pdfrwt beam="2">  1       -2 0.12939123E+00 0.63079971E+03</pdfrwt>
<totfact> 0.12372578E+01</totfact>
</mgrwt>
</event>
<event>
12    1  0.3203156E-008  0.1353718E+04  0.7818608E-02  0.8988018E-01
          2   -1    0    0  501    0  0.00000000000E+00  0.00000000000E+00  0.30821362781E+04  0.30821362781E+04  0.00000000000E+00 0. -1.
         -2   -1    0    0    0  501 -0.00000000000E+00 -0.00000000000E+00 -0.64891526404E+03  0.64891526404E+03  0.00000000000E+00 0.  1.
         23    2    1    2    0    0  0.54231828576E+03  0.12339420843E+04  0.12360632310E+04  0.18310726552E+04  0.90843641502E+02 0.  0.
    5000000    2    1    2    0    0 -0.54231828576E+03 -0.12339420843E+04  0.11971577831E+04  0.18999788869E+04  0.60000901892E+03 0.  0.
         23    2    4    4    0    0 -0.36423173287E+03 -0.92563107457E+03  0.11596421941E+04  0.15305367081E+04  0.91186375028E+02 0.  0.
         23    2    4    4    0    0 -0.17808655290E+03 -0.30831100972E+03  0.37515588973E+02  0.36944217887E+03  0.91157035233E+02 0.  0.
          5    1    3    3  502    0  0.95055054302E+00  0.28905604466E+02  0.34948037373E+02  0.45605842083E+02  0.47000000000E+01 0. -1.
         -5    1    3    3    0  502  0.54136773522E+03  0.12050364798E+04  0.12011151936E+04  0.17854668131E+04  0.47000000000E+01 0.  1.
         13    1    5    5    0    0 -0.36505305139E+01 -0.41962495864E+02  0.72931381469E+02  0.84220922788E+02  0.00000000000E+00 0. -1.
        -13    1    5    5    0    0 -0.36058120235E+03 -0.88366857871E+03  0.10867108126E+04  0.14463157853E+04  0.00000000000E+00 0.  1.
          4    1    6    6  503    0 -0.15239749392E+03 -0.21348262775E+03  0.59053532436E+02  0.26886269395E+03  0.00000000000E+00 0. -1.
         -4    1    6    6    0  503 -0.25689058982E+02 -0.94828381966E+02 -0.21537943463E+02  0.10057948492E+03  0.00000000000E+00 0.  1.
<mgrwt>
<rscale>  0 0.13537179E+04</rscale>
<asrwt>0</asrwt>
<pdfrwt beam="1">  1        2 0.47417480E+00 0.13537179E+04</pdfrwt>
<pdfrwt beam="2">  1       -2 0.99833119E-01 0.13537179E+04</pdfrwt>
<totfact> 0.12467114E+00</totfact>
</mgrwt>
</event>
<event>
12    1  0.3203156E-008  0.5913530E+03  0.7818608E-02  0.9923510E-01
          1   -1    0    0  501    0  0.00000000000E+00  0.00000000000E+00  0.19197536027E+04  0.19197536027E+04  0.00000000000E+00 0. -1.
         -1   -1    0    0    0  501 -0.00000000000E+00 -0.00000000000E+00 -0.26235453344E+03  0.26235453344E+03  0.00000000000E+00 0.  1.
         23    2    1    2    0    0  0.17325075387E+03  0.54969865043E+03  0.76638520595E+03  0.96309948540E+03  0.89609736501E+02 0.  0.
    5000000    2    1    2    0    0 -0.17325075387E+03 -0.54969865043E+03  0.89101386332E+03  0.12190086507E+04  0.59990995653E+03 0.  0.
         23    2    4    4    0    0 -0.15716582329E+03 -0.23855501907E+03  0.35020158788E+02  0.30344283225E+03  0.96132969305E+02 0.  0.
         23    2    4    4    0    0 -0.16084930580E+02 -0.31114363137E+03  0.85599370454E+03  0.91556581850E+03  0.92013376545E+02 0.  0.
          5    1    3    3  502    0  0.83538807542E+02  0.25985392285E+03  0.28999355341E+03  0.39827270131E+03  0.47000000000E+01 0. -1.
         -5    1    3    3    0  502  0.89711946328E+02  0.28984472758E+03  0.47639165253E+03  0.56482678409E+03  0.47000000000E+01 0.  1.
         11    1    5    5    0    0 -0.45458701266E+02 -0.12724929405E+03  0.52110378315E+02  0.14482530126E+03  0.00000000000E+00 0.  1.
        -11    1    5    5    0    0 -0.11170712202E+03 -0.11130572502E+03 -0.17090219528E+02  0.15861753099E+03  0.00000000000E+00 0. -1.
          4    1    6    6  503    0  0.10537927430E+02 -0.62540473455E+02  0.92327060468E+02  0.11201180665E+03  0.00000000000E+00 0. -1.
         -4    1    6    6    0  503 -0.26622858010E+02 -0.24860315791E+03  0.76366664407E+03  0.80355401185E+03  0.00000000000E+00 0.  1.
<mgrwt>
<rscale>  0 0.59135302E+03</rscale>
<asrwt>0</asrwt>
<pdfrwt beam="1">  1        1 0.29534670E+00 0.59135302E+03</pdfrwt>
<pdfrwt beam="2">  1       -1 0.40362237E-01 0.59135302E+03</pdfrwt>
<totfact> 0.21561737E+01</totfact>
</mgrwt>
</event>
<event>
12    1  0.3203156E-008  0.2844305E+04  0.7818608E-02  0.8289644E-01
         -2   -1    0    0    0  501 -0.00000000000E+00  0.00000000000E+00  0.33653479264E+04  0.33653479264E+04  0.00000000000E+00 0.  1.
          2   -1    0    0  501    0  0.00000000000E+00 -0.00000000000E+00 -0.26564646019E+04  0.26564646019E+04  0.00000000000E+00 0. -1.
         23    2    1    2    0    0 -0.32558993083E+03  0.27992460293E+04 -0.55626371446E+03  0.28749060902E+04  0.11776490000E+03 0.  0.
    5000000    2    1    2    0    0  0.32558993083E+03 -0.27992460293E+04  0.12651470389E+04  0.31469064381E+04  0.60052973623E+03 0.  0.
         23    2    4    4    0    0  0.22516577834E+03 -0.26877819205E+04  0.12362478777E+04  0.29683381172E+04  0.88606337403E+02 0.  0.
         23    2    4    4    0    0  0.10042415249E+03 -0.11146410889E+03  0.28899161223E+02  0.17856832092E+03  0.92424162118E+02 0.  0.
          5    1    3    3  502    0 -0.30242760854E+03  0.25185797281E+04 -0.53473021923E+03  0.25924245028E+04  0.47000000000E+01 0. -1.
         -5    1    3    3    0  502 -0.23162322289E+02  0.28066630126E+03 -0.21533495224E+02  0.28248158746E+03  0.47000000000E+01 0.  1.
         11    1    5    5    0    0  0.14582168018E+03 -0.16971026556E+04  0.82739410491E+03  0.18936743096E+04  0.00000000000E+00 0.  1.
        -11    1    5    5    0    0  0.79344098164E+02 -0.99067926490E+03  0.40885377277E+03  0.10746638076E+04  0.00000000000E+00 0. -1.
          4    1    6    6  503    0  0.58712288368E+02 -0.11708090535E+03  0.70999720627E+01  0.13116966420E+03  0.00000000000E+00 0. -1.
         -4    1    6    6    0  503  0.41711864119E+02  0.56167964613E+01  0.21799189160E+02  0.47398656719E+02  0.00000000000E+00 0.  1.
<mgrwt>
<rscale>  0 0.28443047E+04</rscale>
<asrwt>0</asrwt>
<pdfrwt beam="1">  1        2 0.40868686E+00 0.28443047E+04</pdfrwt>
<pdfrwt beam="2">  1       -2 0.51774584E+00 0.28443047E+04</pdfrwt>
<totfact> 0.29105186E-03</totfact>
</mgrwt>
</event>
<event>
12    1  0.3203156E-008  0.3039220E+03  0.7818608E-02  0.1083296E+00
          1   -1    0    0  501    0  0.00000000000E+00  0.00000000000E+00  0.19214363695E+03  0.19214363695E+03  0.00000000000E+00 0. -1.
         -1   -1    0    0    0  501 -0.00000000000E+00 -0.00000000000E+00 -0.11768204807E+04  0.11768204807E+04  0.00000000000E+00 0.  1.
         23    2    1    2    0    0  0.23289758674E+03 -0.25219539678E+02 -0.88094121303E+02  0.26516219402E+03  0.87596254691E+02 0.  0.
    5000000    2    1    2    0    0 -0.23289758674E+03  0.25219539678E+02 -0.89658272244E+03  0.11038019236E+04  0.59970058972E+03 0.  0.
         23    2    4    4    0    0 -0.21198572068E+03 -0.60488472124E+02 -0.42556101380E+02  0.24027256994E+03  0.85575025976E+02 0.  0.
         23    2    4    4    0    0 -0.20911866068E+02  0.85708011803E+02 -0.85402662106E+03  0.86352935368E+03  0.92402953184E+02 0.  0.
          5    1    3    3  502    0  0.17461660919E+03 -0.56451757271E+02 -0.59589727837E+02  0.19300462887E+03  0.47000000000E+01 0. -1.
         -5    1    3    3    0  502  0.58280977556E+02  0.31232217593E+02 -0.28504393466E+02  0.72157565144E+02  0.47000000000E+01 0.  1.
         13    1    5    5    0    0 -0.73178206206E+01  0.12449026633E+02  0.89315975024E+01  0.16979463969E+02  0.00000000000E+00 0.  1.
        -13    1    5    5    0    0 -0.20466790006E+03 -0.72937498757E+02 -0.51487698883E+02  0.22329310597E+03  0.00000000000E+00 0. -1.
          4    1    6    6  503    0 -0.55455122258E+02  0.37448745637E+02 -0.38633315270E+03  0.39208542948E+03  0.00000000000E+00 0. -1.
         -4    1    6    6    0  503  0.34543256190E+02  0.48259266166E+02 -0.46769346836E+03  0.47144392420E+03  0.00000000000E+00 0.  1.
<mgrwt>
<rscale>  0 0.30392202E+03</rscale>
<asrwt>0</asrwt>
<pdfrwt beam="1">  1        1 0.29560560E-01 0.30392202E+03</pdfrwt>
<pdfrwt beam="2">  1       -1 0.18104930E+00 0.30392202E+03</pdfrwt>
<totfact> 0.34749826E+01</totfact>
</mgrwt>
</event>
<event>
12    1  0.3203156E-008  0.6552857E+03  0.7818608E-02  0.9796911E-01
         -1   -1    0    0    0  501 -0.00000000000E+00  0.00000000000E+00  0.15275365255E+03  0.15275365255E+03  0.00000000000E+00 0.  1.
          1   -1    0    0  501    0  0.00000000000E+00 -0.00000000000E+00 -0.42126008650E+04  0.42126008650E+04  0.00000000000E+00 0. -1.
         23    2    1    2    0    0  0.35003295053E+03  0.39695782710E+03 -0.29428554432E+04  0.29914692145E+04  0.91604140731E+02 0.  0.
    5000000    2    1    2    0    0 -0.35003295053E+03 -0.39695782710E+03 -0.11169917693E+04  0.13738853031E+04  0.59982633364E+03 0.  0.
         23    2    4    4    0    0 -0.26341406955E+03 -0.53281926028E+03 -0.95130144773E+03  0.11255186966E+04  0.92382659078E+02 0.  0.
         23    2    4    4    0    0 -0.86618880980E+02  0.13586143318E+03 -0.16569032156E+03  0.24836660656E+03  0.90947946797E+02 0.  0.
          5    1    3    3  502    0  0.27289053357E+03  0.27968964239E+03 -0.19545369295E+04  0.19932215728E+04  0.47000000000E+01 0. -1.
         -5    1    3    3    0  502  0.77142416958E+02  0.11726818471E+03 -0.98831851371E+03  0.99824764171E+03  0.47000000000E+01 0.  1.
         13    1    5    5    0    0 -0.94518974126E+01 -0.85705381018E+02 -0.16154065802E+03  0.18311235593E+03  0.00000000000E+00 0. -1.
        -13    1    5    5    0    0 -0.25396217214E+03 -0.44711387927E+03 -0.78976078971E+03  0.94240634064E+03  0.00000000000E+00 0.  1.
          3    1    6    6  503    0  0.11249133324E+02  0.41342363189E+02 -0.69841754728E+02  0.81936589495E+02  0.00000000000E+00 0. -1.
         -3    1    6    6    0  503 -0.97868014304E+02  0.94519069994E+02 -0.95848566828E+02  0.16643001706E+03  0.00000000000E+00 0.  1.
<mgrwt>
<rscale>  0 0.65528569E+03</rscale>
<asrwt>0</asrwt>
<pdfrwt beam="1">  1        1 0.64809248E+00 0.65528569E+03</pdfrwt>
<pdfrwt beam="2">  1       -1 0.23500561E-01 0.65528569E+03</pdfrwt>
<totfact> 0.10907472E+00</totfact>
</mgrwt>
</event>
<event>
12    1  0.3203156E-008  0.5367001E+03  0.7818608E-02  0.1004620E+00
         -2   -1    0    0    0  501 -0.00000000000E+00  0.00000000000E+00  0.22923082368E+03  0.22923082368E+03  0.00000000000E+00 0.  1.
          2   -1    0    0  501    0  0.00000000000E+00 -0.00000000000E+00 -0.13165564382E+04  0.13165564382E+04  0.00000000000E+00 0. -1.
         23    2    1    2    0    0 -0.29025486745E+03 -0.22472428024E+03 -0.25228905072E+03  0.45408205906E+03  0.88271518811E+02 0.  0.
    5000000    2    1    2    0    0  0.29025486745E+03  0.22472428024E+03 -0.83503656376E+03  0.10917052028E+04  0.59982105396E+03 0.  0.
         23    2    4    4    0    0  0.17215198635E+03 -0.18300722571E+03 -0.35640414858E+03  0.44515921107E+03  0.89525722610E+02 0.  0.
         23    2    4    4    0    0  0.11810288110E+03  0.40773150596E+03 -0.47863241518E+03  0.64654599172E+03  0.93485074058E+02 0.  0.
          5    1    3    3  502    0 -0.18230686981E+03 -0.89893175314E+02 -0.11654398715E+03  0.23435265880E+03  0.47000000000E+01 0. -1.
         -5    1    3    3    0  502 -0.10794799764E+03 -0.13483110493E+03 -0.13574506357E+03  0.21972940025E+03  0.47000000000E+01 0.  1.
         13    1    5    5    0    0  0.94283698737E+02 -0.15207583048E+03 -0.20490257320E+03  0.27203223810E+03  0.00000000000E+00 0. -1.
        -13    1    5    5    0    0  0.77868287609E+02 -0.30931395237E+02 -0.15150157538E+03  0.17312697297E+03  0.00000000000E+00 0.  1.
          1    1    6    6  503    0  0.46778317973E+02  0.31043582465E+03 -0.33999761209E+03  0.46277098924E+03  0.00000000000E+00 0. -1.
         -1    1    6    6    0  503  0.71324563132E+02  0.97295681305E+02 -0.13863480309E+03  0.18377500248E+03  0.00000000000E+00 0.  1.
<mgrwt>
<rscale>  0 0.53670012E+03</rscale>
<asrwt>0</asrwt>
<pdfrwt beam="1">  1        2 0.20254715E+00 0.53670012E+03</pdfrwt>
<pdfrwt beam="2">  1       -2 0.35266280E-01 0.53670012E+03</pdfrwt>
<totfact> 0.12640955E+02</totfact>
</mgrwt>
</event>
<event>
12    1  0.3203156E-008  0.7685226E+03  0.7818608E-02  0.9606731E-01
          1   -1    0    0  501    0  0.00000000000E+00  0.00000000000E+00  0.37240503555E+03  0.37240503555E+03  0.00000000000E+00 0. -1.
         -1   -1    0    0    0  501 -0.00000000000E+00 -0.00000000000E+00 -0.19348314623E+04  0.19348314623E+04  0.00000000000E+00 0.  1.
         23    2    1    2    0    0 -0.59060922941E+03  0.44486018570E+03 -0.71250961215E+03  0.10309960522E+04  0.92536833688E+02 0.  0.
    5000000    2    1    2    0    0  0.59060922941E+03 -0.44486018570E+03 -0.84991681459E+03  0.12762404456E+04  0.59975931560E+03 0.  0.
         23    2    4    4    0    0  0.33698827094E+03 -0.40055918305E+03 -0.85083975508E+03  0.10031553218E+04  0.91561765632E+02 0.  0.
         23    2    4    4    0    0  0.25362095847E+03 -0.44301002647E+02  0.92294048867E+00  0.27308512384E+03  0.91040999736E+02 0.  0.
          5    1    3    3  502    0 -0.20861503628E+03  0.11064976238E+03 -0.25619128317E+03  0.34845324916E+03  0.47000000000E+01 0. -1.
         -5    1    3    3    0  502 -0.38199419313E+03  0.33421042331E+03 -0.45631832898E+03  0.68254280305E+03  0.47000000000E+01 0.  1.
         13    1    5    5    0    0  0.19489198286E+03 -0.16484693576E+03 -0.43888270103E+03  0.50771588755E+03  0.00000000000E+00 0.  1.
        -13    1    5    5    0    0  0.14209628807E+03 -0.23571224729E+03 -0.41195705405E+03  0.49543943423E+03  0.00000000000E+00 0. -1.
          1    1    6    6  503    0  0.17699422318E+02 -0.18260364499E+02  0.23543196421E+02  0.34655339556E+02  0.00000000000E+00 0. -1.
         -1    1    6    6    0  503  0.23592153615E+03 -0.26040638149E+02 -0.22620255932E+02  0.23842978429E+03  0.00000000000E+00 0.  1.
<mgrwt>
<rscale>  0 0.76852259E+03</rscale>
<asrwt>0</asrwt>
<pdfrwt beam="1">  1        1 0.57293083E-01 0.76852259E+03</pdfrwt>
<pdfrwt beam="2">  1       -1 0.29766637E+00 0.76852259E+03</pdfrwt>
<totfact> 0.23621275E+00</totfact>
</mgrwt>
</event>
<event>
12    1  0.3203156E-008  0.5205005E+03  0.7818608E-02  0.1008562E+00
         -3   -1    0    0    0  501 -0.00000000000E+00  0.00000000000E+00  0.44553724432E+03  0.44553724432E+03  0.00000000000E+00 0.  1.
          3   -1    0    0  501    0  0.00000000000E+00 -0.00000000000E+00 -0.84938893070E+03  0.84938893070E+03  0.00000000000E+00 0. -1.
         23    2    1    2    0    0 -0.32689145398E+03  0.13263203319E+03  0.16113765278E+03  0.39837221080E+03  0.91026349361E+02 0.  0.
    5000000    2    1    2    0    0  0.32689145398E+03 -0.13263203319E+03 -0.56498933916E+03  0.89655396423E+03  0.60012230296E+03 0.  0.
         23    2    4    4    0    0 -0.63873673115E+02 -0.25412742852E+03 -0.20746845550E+03  0.34598085630E+03  0.89437111203E+02 0.  0.
         23    2    4    4    0    0  0.39076512710E+03  0.12149539533E+03 -0.35752088366E+03  0.55057310793E+03  0.88606146977E+02 0.  0.
          5    1    3    3  502    0 -0.20010311863E+03  0.10180404895E+03  0.57854148487E+02  0.23189332669E+03  0.47000000000E+01 0. -1.
         -5    1    3    3    0  502 -0.12678833536E+03  0.30827984237E+02  0.10328350429E+03  0.16647888410E+03  0.47000000000E+01 0.  1.
         13    1    5    5    0    0 -0.80201555557E+00 -0.17670656340E+03 -0.14030945244E+03  0.22563819540E+03  0.00000000000E+00 0. -1.
        -13    1    5    5    0    0 -0.63071657559E+02 -0.77420865119E+02 -0.67159003054E+02  0.12034266091E+03  0.00000000000E+00 0.  1.
          1    1    6    6  503    0  0.13057986919E+03  0.44805861903E+02 -0.17814400736E+03  0.22537514249E+03  0.00000000000E+00 0. -1.
         -1    1    6    6    0  503  0.26018525791E+03  0.76689533426E+02 -0.17937687630E+03  0.32519796543E+03  0.00000000000E+00 0.  1.
<mgrwt>
<rscale>  0 0.52050051E+03</rscale>
<asrwt>0</asrwt>
<pdfrwt beam="1">  1        3 0.13067522E+00 0.52050051E+03</pdfrwt>
<pdfrwt beam="2">  1       -3 0.68544192E-01 0.52050051E+03</pdfrwt>
<totfact> 0.24563483E+00</totfact>
</mgrwt>
</event>
<event>
12    1  0.3203156E-008  0.6355559E+03  0.7818608E-02  0.9834266E-01
          2   -1    0    0  501    0  0.00000000000E+00  0.00000000000E+00  0.68248622939E+03  0.68248622939E+03  0.00000000000E+00 0. -1.
         -2   -1    0    0    0  501 -0.00000000000E+00 -0.00000000000E+00 -0.72612118756E+03  0.72612118756E+03  0.00000000000E+00 0.  1.
         23    2    1    2    0    0 -0.10021450704E+03  0.48520919887E+03  0.26769300871E+03  0.57058750843E+03  0.91867533837E+02 0.  0.
    5000000    2    1    2    0    0  0.10021450704E+03 -0.48520919887E+03 -0.31132796688E+03  0.83801990852E+03  0.59990111687E+03 0.  0.
         23    2    4    4    0    0  0.91354223429E+02 -0.61188413717E+03 -0.26239769788E+03  0.67819928403E+03  0.91399811491E+02 0.  0.
         23    2    4    4    0    0  0.88602836122E+01  0.12667493830E+03 -0.48930268999E+02  0.15982062449E+03  0.83805824204E+02 0.  0.
          5    1    3    3  502    0 -0.12515292499E+02  0.21899559861E+03  0.15413737668E+03  0.26813452901E+03  0.47000000000E+01 0. -1.
         -5    1    3    3    0  502 -0.87699214542E+02  0.26621360027E+03  0.11355563204E+03  0.30245297943E+03  0.47000000000E+01 0.  1.
         11    1    5    5    0    0  0.23658631777E+02 -0.27266481946E+03 -0.16189230206E+03  0.31798577342E+03  0.00000000000E+00 0. -1.
        -11    1    5    5    0    0  0.67695591651E+02 -0.33921931771E+03 -0.10050539583E+03  0.36021351061E+03  0.00000000000E+00 0.  1.
          4    1    6    6  503    0  0.44208123346E+02  0.46486712935E+02 -0.15258310947E+02  0.65940796948E+02  0.00000000000E+00 0. -1.
         -4    1    6    6    0  503 -0.35347839734E+02  0.80188225365E+02 -0.33671958052E+02  0.93879827546E+02  0.00000000000E+00 0.  1.
<mgrwt>
<rscale>  0 0.63555589E+03</rscale>
<asrwt>0</asrwt>
<pdfrwt beam="1">  1        2 0.10499788E+00 0.63555589E+03</pdfrwt>
<pdfrwt beam="2">  1       -2 0.11171095E+00 0.63555589E+03</pdfrwt>
<totfact> 0.27425808E+01</totfact>
</mgrwt>
</event>
<event>
12    1  0.3203156E-008  0.7731668E+03  0.7818608E-02  0.9599690E-01
         -2   -1    0    0    0  501 -0.00000000000E+00  0.00000000000E+00  0.38893813012E+03  0.38893813012E+03  0.00000000000E+00 0.  1.
          2   -1    0    0  501    0  0.00000000000E+00 -0.00000000000E+00 -0.18673458050E+04  0.18673458050E+04  0.00000000000E+00 0. -1.
         23    2    1    2    0    0 -0.55445544891E+03  0.44734574273E+03 -0.93447998677E+03  0.11776060644E+04  0.77227837907E+02 0.  0.
    5000000    2    1    2    0    0  0.55445544891E+03 -0.44734574273E+03 -0.54392768815E+03  0.10786778707E+04  0.60012462079E+03 0.  0.
         23    2    4    4    0    0  0.61784713082E+03 -0.37971687383E+03 -0.27807632799E+03  0.78202820041E+03  0.91223246563E+02 0.  0.
         23    2    4    4    0    0 -0.63391681908E+02 -0.67628868897E+02 -0.26585136015E+03  0.29664967031E+03  0.93444699986E+02 0.  0.
          5    1    3    3  502    0 -0.42198533072E+03  0.31616299629E+03 -0.73427405339E+03  0.90399730920E+03  0.47000000000E+01 0. -1.
         -5    1    3    3    0  502 -0.13247011819E+03  0.13118274644E+03 -0.20020593338E+03  0.27360875523E+03  0.47000000000E+01 0.  1.
         13    1    5    5    0    0  0.45097183752E+03 -0.30540850005E+03 -0.17392916847E+03  0.57175283627E+03  0.00000000000E+00 0.  1.
        -13    1    5    5    0    0  0.16687529330E+03 -0.74308373784E+02 -0.10414715952E+03  0.21027536414E+03  0.00000000000E+00 0. -1.
          2    1    6    6  503    0 -0.17334106454E+02 -0.54682147870E+02 -0.51714596526E+02  0.77233464483E+02  0.00000000000E+00 0. -1.
         -2    1    6    6    0  503 -0.46057575454E+02 -0.12946721027E+02 -0.21413676363E+03  0.21941620583E+03  0.00000000000E+00 0.  1.
<mgrwt>
<rscale>  0 0.77316682E+03</rscale>
<asrwt>0</asrwt>
<pdfrwt beam="1">  1        2 0.28728397E+00 0.77316682E+03</pdfrwt>
<pdfrwt beam="2">  1       -2 0.59836636E-01 0.77316682E+03</pdfrwt>
<totfact> 0.21198940E+01</totfact>
</mgrwt>
</event>
<event>
12    1  0.3203156E-008  0.8866566E+03  0.7818608E-02  0.9442417E-01
         -2   -1    0    0    0  501 -0.00000000000E+00  0.00000000000E+00  0.10839227581E+04  0.10839227581E+04  0.00000000000E+00 0.  1.
          2   -1    0    0  501    0  0.00000000000E+00 -0.00000000000E+00 -0.77484992192E+03  0.77484992192E+03  0.00000000000E+00 0. -1.
         23    2    1    2    0    0 -0.79713199456E+03  0.11903979583E+02  0.31406499301E+03  0.86147542545E+03  0.89117716129E+02 0.  0.
    5000000    2    1    2    0    0  0.79713199456E+03 -0.11903979583E+02 -0.49921568627E+01  0.99729725455E+03  0.59917924765E+03 0.  0.
         23    2    4    4    0    0  0.22914108570E+03 -0.25416404371E+03 -0.94945647731E+02  0.36738571813E+03  0.94088211776E+02 0.  0.
         23    2    4    4    0    0  0.56799090887E+03  0.24226006413E+03  0.89953490869E+02  0.62991153641E+03  0.85984312285E+02 0.  0.
          5    1    3    3  502    0 -0.47793916722E+03  0.37905921724E+02  0.22099226276E+03  0.52794164135E+03  0.47000000000E+01 0. -1.
         -5    1    3    3    0  502 -0.31919282734E+03 -0.26001942141E+02  0.93072730253E+02  0.33353378410E+03  0.47000000000E+01 0.  1.
         11    1    5    5    0    0  0.99165795697E+02 -0.16506052467E+03 -0.81931090403E+02  0.20926427171E+03  0.00000000000E+00 0.  1.
        -11    1    5    5    0    0  0.12997529000E+03 -0.89103519043E+02 -0.13014557329E+02  0.15812144642E+03  0.00000000000E+00 0. -1.
          3    1    6    6  503    0  0.28862206384E+03  0.76538729251E+02  0.39816725699E+02  0.30124117324E+03  0.00000000000E+00 0. -1.
         -3    1    6    6    0  503  0.27936884503E+03  0.16572133488E+03  0.50136765170E+02  0.32867036317E+03  0.00000000000E+00 0.  1.
<mgrwt>
<rscale>  0 0.88665663E+03</rscale>
<asrwt>0</asrwt>
<pdfrwt beam="1">  1        2 0.11920768E+00 0.88665663E+03</pdfrwt>
<pdfrwt beam="2">  1       -2 0.16675735E+00 0.88665663E+03</pdfrwt>
<totfact> 0.80997816E+00</totfact>
</mgrwt>
</event>
<event>
12    1  0.3203156E-008  0.4632726E+03  0.7818608E-02  0.1023836E+00
         -1   -1    0    0    0  501 -0.00000000000E+00  0.00000000000E+00  0.14125648500E+04  0.14125648500E+04  0.00000000000E+00 0.  1.
          1   -1    0    0  501    0  0.00000000000E+00 -0.00000000000E+00 -0.35909071057E+03  0.35909071057E+03  0.00000000000E+00 0. -1.
         23    2    1    2    0    0 -0.39018448736E+03 -0.17230710094E+02 -0.99875834543E+02  0.41422664192E+03  0.95224455891E+02 0.  0.
    5000000    2    1    2    0    0  0.39018448736E+03  0.17230710094E+02  0.11533499740E+04  0.13574289186E+04  0.59988021735E+03 0.  0.
         23    2    4    4    0    0  0.10398616910E+03 -0.16043429926E+03  0.74142095699E+02  0.22326818394E+03  0.88313893944E+02 0.  0.
         23    2    4    4    0    0  0.28619831827E+03  0.17766500935E+03  0.10792078783E+04  0.11341607347E+04  0.90313867736E+02 0.  0.
          5    1    3    3  502    0 -0.11048625209E+03 -0.37457525697E+02 -0.58926693034E+02  0.13078502699E+03  0.47000000000E+01 0.  1.
         -5    1    3    3    0  502 -0.27969823527E+03  0.20226815603E+02 -0.40949141509E+02  0.28344161493E+03  0.47000000000E+01 0. -1.
         11    1    5    5    0    0  0.44469508711E+02 -0.79408666934E+02 -0.10802619812E+02  0.91651351240E+02  0.00000000000E+00 0.  1.
        -11    1    5    5    0    0  0.59516660386E+02 -0.81025632323E+02  0.84944715511E+02  0.13161683270E+03  0.00000000000E+00 0. -1.
          1    1    6    6  503    0  0.13704117512E+03  0.70530645943E+02  0.63606694347E+03  0.65447384384E+03  0.00000000000E+00 0. -1.
         -1    1    6    6    0  503  0.14915714314E+03  0.10713436341E+03  0.44314093479E+03  0.47968689085E+03  0.00000000000E+00 0.  1.
<mgrwt>
<rscale>  0 0.46327262E+03</rscale>
<asrwt>0</asrwt>
<pdfrwt beam="1">  1        1 0.55244725E-01 0.46327262E+03</pdfrwt>
<pdfrwt beam="2">  1       -1 0.21731767E+00 0.46327262E+03</pdfrwt>
<totfact> 0.85973484E+00</totfact>
</mgrwt>
</event>
<event>
12    1  0.3203156E-008  0.5329779E+03  0.7818608E-02  0.1005512E+00
          2   -1    0    0  501    0  0.00000000000E+00  0.00000000000E+00  0.16321067408E+04  0.16321067408E+04  0.00000000000E+00 0. -1.
         -2   -1    0    0    0  501 -0.00000000000E+00 -0.00000000000E+00 -0.31040135727E+03  0.31040135727E+03  0.00000000000E+00 0.  1.
         23    2    1    2    0    0 -0.46966361942E+03 -0.21354043069E+03  0.18140446095E+03  0.55441318045E+03  0.91010797491E+02 0.  0.
    5000000    2    1    2    0    0  0.46966361942E+03  0.21354043069E+03  0.11403009226E+04  0.13880949176E+04  0.60028149674E+03 0.  0.
         23    2    4    4    0    0  0.34309115685E+03  0.88177129360E+02  0.11306796899E+04  0.11885232166E+04  0.93081293645E+02 0.  0.
         23    2    4    4    0    0  0.12657246257E+03  0.12536330133E+03  0.96212326864E+01  0.19957170101E+03  0.89441322236E+02 0.  0.
          5    1    3    3  502    0 -0.31924521307E+03 -0.18830426477E+03  0.14076843134E+03  0.39650200941E+03  0.47000000000E+01 0. -1.
         -5    1    3    3    0  502 -0.15041840635E+03 -0.25236165917E+02  0.40636029610E+02  0.15791117105E+03  0.47000000000E+01 0.  1.
         11    1    5    5    0    0  0.23654202442E+03  0.50745303487E+02  0.89597738602E+03  0.92806394791E+03  0.00000000000E+00 0.  1.
        -11    1    5    5    0    0  0.10654913243E+03  0.37431825874E+02  0.23470230388E+03  0.26045926871E+03  0.00000000000E+00 0. -1.
          1    1    6    6  503    0 -0.41449780808E+01  0.18602041223E+02  0.23465389966E+02  0.30229808256E+02  0.00000000000E+00 0. -1.
         -1    1    6    6    0  503  0.13071744065E+03  0.10676126011E+03 -0.13844157279E+02  0.16934189275E+03  0.00000000000E+00 0.  1.
<mgrwt>
<rscale>  0 0.53297792E+03</rscale>
<asrwt>0</asrwt>
<pdfrwt beam="1">  1        2 0.25109334E+00 0.53297792E+03</pdfrwt>
<pdfrwt beam="2">  1       -2 0.47754056E-01 0.53297792E+03</pdfrwt>
<totfact> 0.46847019E+01</totfact>
</mgrwt>
</event>
<event>
12    1  0.3203156E-008  0.7370008E+03  0.7818608E-02  0.9655968E-01
         -2   -1    0    0    0  501 -0.00000000000E+00  0.00000000000E+00  0.69824905899E+03  0.69824905899E+03  0.00000000000E+00 0.  1.
          2   -1    0    0  501    0  0.00000000000E+00 -0.00000000000E+00 -0.15358972016E+04  0.15358972016E+04  0.00000000000E+00 0. -1.
         23    2    1    2    0    0  0.67443994421E+03  0.59794780085E+02 -0.10980900104E+04  0.12931417106E+04  0.89270144499E+02 0.  0.
    5000000    2    1    2    0    0 -0.67443994421E+03 -0.59794780085E+02  0.26044186772E+03  0.94100455004E+03  0.59934542850E+03 0.  0.
         23    2    4    4    0    0 -0.54362952325E+03 -0.21407946734E+03  0.36530453588E+03  0.69517283470E+03  0.91949928167E+02 0.  0.
         23    2    4    4    0    0 -0.13081042096E+03  0.15428468726E+03 -0.10486266815E+03  0.24583171534E+03  0.92314257524E+02 0.  0.
          5    1    3    3  502    0  0.10213504620E+03  0.14820597327E+02 -0.11407656473E+03  0.15390506940E+03  0.47000000000E+01 0. -1.
         -5    1    3    3    0  502  0.57230489800E+03  0.44974182758E+02 -0.98401344564E+03  0.11392366412E+04  0.47000000000E+01 0.  1.
         11    1    5    5    0    0 -0.17744340386E+03 -0.24900249261E+02  0.10467391140E+03  0.20751581076E+03  0.00000000000E+00 0. -1.
        -11    1    5    5    0    0 -0.36618611939E+03 -0.18917921808E+03  0.26063062447E+03  0.48765702394E+03  0.00000000000E+00 0.  1.
          3    1    6    6  503    0 -0.92904306667E+02  0.13156148297E+03 -0.11807578145E+03  0.19970359077E+03  0.00000000000E+00 0. -1.
         -3    1    6    6    0  503 -0.37906114293E+02  0.22723204281E+02  0.13213113301E+02  0.46128124574E+02  0.00000000000E+00 0.  1.
<mgrwt>
<rscale>  0 0.73700080E+03</rscale>
<asrwt>0</asrwt>
<pdfrwt beam="1">  1        2 0.23629187E+00 0.73700080E+03</pdfrwt>
<pdfrwt beam="2">  1       -2 0.10742293E+00 0.73700080E+03</pdfrwt>
<totfact> 0.86605842E+00</totfact>
</mgrwt>
</event>
<event>
12    1  0.3203156E-008  0.9711291E+03  0.7818608E-02  0.9340789E-01
          1   -1    0    0  501    0  0.00000000000E+00  0.00000000000E+00  0.19490218852E+04  0.19490218852E+04  0.00000000000E+00 0. -1.
         -1   -1    0    0    0  501 -0.00000000000E+00 -0.00000000000E+00 -0.68854292837E+03  0.68854292837E+03  0.00000000000E+00 0.  1.
         23    2    1    2    0    0  0.15246087965E+03 -0.94932906884E+03  0.29530645853E+02  0.96449446102E+03  0.70053590314E+02 0.  0.
    5000000    2    1    2    0    0 -0.15246087965E+03  0.94932906884E+03  0.12309483110E+04  0.16730703526E+04  0.59955038115E+03 0.  0.
         23    2    4    4    0    0 -0.39046439792E+02  0.81526714922E+02 -0.38436102166E+02  0.12780819001E+03  0.81770225502E+02 0.  0.
         23    2    4    4    0    0 -0.11341443986E+03  0.86780235392E+03  0.12693844131E+04  0.15452621625E+04  0.10273559276E+03 0.  0.
          5    1    3    3  502    0  0.10575756450E+03 -0.58606372595E+03 -0.13421812482E+02  0.59569924322E+03  0.47000000000E+01 0. -1.
         -5    1    3    3    0  502  0.46703315152E+02 -0.36326534290E+03  0.42952458335E+02  0.36879521780E+03  0.47000000000E+01 0.  1.
         13    1    5    5    0    0 -0.31215793852E+02  0.87484816714E+02 -0.50743193113E+01  0.93025629038E+02  0.00000000000E+00 0. -1.
        -13    1    5    5    0    0 -0.78306459397E+01 -0.59581017928E+01 -0.33361782855E+02  0.34782560976E+02  0.00000000000E+00 0.  1.
          3    1    6    6  503    0 -0.59963390292E+02  0.23097826857E+03  0.28619745092E+03  0.37263326427E+03  0.00000000000E+00 0. -1.
         -3    1    6    6    0  503 -0.53451049570E+02  0.63682408535E+03  0.98318696222E+03  0.11726288983E+04  0.00000000000E+00 0.  1.
<mgrwt>
<rscale>  0 0.97112915E+03</rscale>
<asrwt>0</asrwt>
<pdfrwt beam="1">  1        1 0.29984952E+00 0.97112915E+03</pdfrwt>
<pdfrwt beam="2">  1       -1 0.10592968E+00 0.97112915E+03</pdfrwt>
<totfact> 0.27306673E+00</totfact>
</mgrwt>
</event>
<event>
12    1  0.3203156E-008  0.8218479E+03  0.7818608E-02  0.9528921E-01
         -2   -1    0    0    0  501 -0.00000000000E+00  0.00000000000E+00  0.89215207874E+03  0.89215207874E+03  0.00000000000E+00 0.  1.
          2   -1    0    0  501    0  0.00000000000E+00 -0.00000000000E+00 -0.10936269436E+04  0.10936269436E+04  0.00000000000E+00 0. -1.
         23    2    1    2    0    0  0.71700584365E+03  0.31191280784E+03  0.34406836516E+03  0.85923394945E+03  0.92265705814E+02 0.  0.
    5000000    2    1    2    0    0 -0.71700584365E+03 -0.31191280784E+03 -0.54554323003E+03  0.11265450729E+04  0.60008283253E+03 0.  0.
         23    2    4    4    0    0  0.20137158570E+01  0.22753216773E+02  0.75030528570E+02  0.11639386654E+03  0.86001093167E+02 0.  0.
         23    2    4    4    0    0 -0.71901955950E+03 -0.33466602461E+03 -0.62057375860E+03  0.10101512063E+04  0.79392662370E+02 0.  0.
          5    1    3    3  502    0  0.50513831502E+03  0.24391515047E+03  0.20749709779E+03  0.59811073684E+03  0.47000000000E+01 0. -1.
         -5    1    3    3    0  502  0.21186752862E+03  0.67997657368E+02  0.13657126737E+03  0.26112321261E+03  0.47000000000E+01 0.  1.
         11    1    5    5    0    0 -0.23756703393E+02  0.28408304996E+02  0.81246128984E+02  0.89287995967E+02  0.00000000000E+00 0.  1.
        -11    1    5    5    0    0  0.25770419250E+02 -0.56550882229E+01 -0.62156004140E+01  0.27105870575E+02  0.00000000000E+00 0. -1.
          3    1    6    6  503    0 -0.23346760495E+03 -0.69906991565E+02 -0.20267414359E+03  0.31697147902E+03  0.00000000000E+00 0. -1.
         -3    1    6    6    0  503 -0.48555195455E+03 -0.26475903305E+03 -0.41789961500E+03  0.69317972732E+03  0.00000000000E+00 0.  1.
<mgrwt>
<rscale>  0 0.82184791E+03</rscale>
<asrwt>0</asrwt>
<pdfrwt beam="1">  1        2 0.16825030E+00 0.82184791E+03</pdfrwt>
<pdfrwt beam="2">  1       -2 0.13725417E+00 0.82184791E+03</pdfrwt>
<totfact> 0.83965875E+00</totfact>
</mgrwt>
</event>
<event>
12    1  0.3203156E-008  0.8813206E+03  0.7818608E-02  0.9449238E-01
         -2   -1    0    0    0  501 -0.00000000000E+00  0.00000000000E+00  0.34280490437E+03  0.34280490437E+03  0.00000000000E+00 0.  1.
          2   -1    0    0  501    0  0.00000000000E+00 -0.00000000000E+00 -0.32472700619E+04  0.32472700619E+04  0.00000000000E+00 0. -1.
         23    2    1    2    0    0 -0.41683473016E+03  0.69338293426E+03 -0.22401010384E+04  0.23834727254E+04  0.91424750117E+02 0.  0.
    5000000    2    1    2    0    0  0.41683473016E+03 -0.69338293426E+03 -0.66436411913E+03  0.12066022408E+04  0.59998183218E+03 0.  0.
         23    2    4    4    0    0  0.18788990667E+03  0.30145773486E+02 -0.29077585635E+02  0.21260535793E+03  0.90244930871E+02 0.  0.
         23    2    4    4    0    0  0.22894482350E+03 -0.72352870775E+03 -0.63528653349E+03  0.99399688288E+03  0.92365038808E+02 0.  0.
          5    1    3    3  502    0 -0.84327257738E+02  0.19818350673E+03 -0.67562901703E+03  0.70914346038E+03  0.47000000000E+01 0. -1.
         -5    1    3    3    0  502 -0.33250747243E+03  0.49519942754E+03 -0.15644720214E+04  0.16743292651E+04  0.47000000000E+01 0.  1.
         11    1    5    5    0    0  0.90508671132E+02  0.91039973174E+01 -0.59187922403E+02  0.10852609122E+03  0.00000000000E+00 0. -1.
        -11    1    5    5    0    0  0.97381235536E+02  0.21041776168E+02  0.30110336767E+02  0.10407926671E+03  0.00000000000E+00 0.  1.
          4    1    6    6  503    0  0.33790705340E+02 -0.16659320781E+03 -0.18836993160E+03  0.25372887062E+03  0.00000000000E+00 0. -1.
         -4    1    6    6    0  503  0.19515411816E+03 -0.55693549994E+03 -0.44691660190E+03  0.74026801226E+03  0.00000000000E+00 0.  1.
<mgrwt>
<rscale>  0 0.88132062E+03</rscale>
<asrwt>0</asrwt>
<pdfrwt beam="1">  1        2 0.49958003E+00 0.88132062E+03</pdfrwt>
<pdfrwt beam="2">  1       -2 0.52739214E-01 0.88132062E+03</pdfrwt>
<totfact> 0.42962481E+00</totfact>
</mgrwt>
</event>
<event>
12    1  0.3203156E-008  0.1395791E+04  0.7818608E-02  0.8956871E-01
         -2   -1    0    0    0  501 -0.00000000000E+00  0.00000000000E+00  0.18101091714E+04  0.18101091714E+04  0.00000000000E+00 0.  1.
          2   -1    0    0  501    0  0.00000000000E+00 -0.00000000000E+00 -0.11630734287E+04  0.11630734287E+04  0.00000000000E+00 0. -1.
         23    2    1    2    0    0 -0.13387979118E+04 -0.33284256288E+03  0.46005925369E+03  0.14572039003E+04  0.92869101051E+02 0.  0.
    5000000    2    1    2    0    0  0.13387979118E+04  0.33284256288E+03  0.18697648901E+03  0.15159786999E+04  0.60005598964E+03 0.  0.
         23    2    4    4    0    0  0.79832671083E+03  0.34259470357E+03  0.35739863742E+03  0.94312387812E+03  0.83977349972E+02 0.  0.
         23    2    4    4    0    0  0.54047120097E+03 -0.97521406907E+01 -0.17042214841E+03  0.57285482175E+03  0.83154764201E+02 0.  0.
          5    1    3    3  502    0 -0.67668280013E+03 -0.14857047748E+03  0.18660782094E+03  0.71750774742E+03  0.47000000000E+01 0. -1.
         -5    1    3    3    0  502 -0.66211511166E+03 -0.18427208540E+03  0.27345143275E+03  0.73969615290E+03  0.47000000000E+01 0.  1.
         11    1    5    5    0    0  0.30907523796E+03  0.16545920733E+03  0.17431763086E+03  0.39152380316E+03  0.00000000000E+00 0. -1.
        -11    1    5    5    0    0  0.48925147287E+03  0.17713549624E+03  0.18308100655E+03  0.55160007496E+03  0.00000000000E+00 0.  1.
          2    1    6    6  503    0  0.10993972429E+03 -0.12165517608E+01 -0.71099494489E+02  0.13093265861E+03  0.00000000000E+00 0. -1.
         -2    1    6    6    0  503  0.43053147667E+03 -0.85355889299E+01 -0.99322653922E+02  0.44192216313E+03  0.00000000000E+00 0.  1.
<mgrwt>
<rscale>  0 0.13957910E+04</rscale>
<asrwt>0</asrwt>
<pdfrwt beam="1">  1        2 0.17893437E+00 0.13957910E+04</pdfrwt>
<pdfrwt beam="2">  1       -2 0.27847833E+00 0.13957910E+04</pdfrwt>
<totfact> 0.81853248E-01</totfact>
</mgrwt>
</event>
<event>
12    1  0.3203156E-008  0.1018281E+04  0.7818608E-02  0.9288719E-01
          2   -1    0    0  501    0  0.00000000000E+00  0.00000000000E+00  0.13230389652E+04  0.13230389652E+04  0.00000000000E+00 0. -1.
         -2   -1    0    0    0  501 -0.00000000000E+00 -0.00000000000E+00 -0.10238306175E+04  0.10238306175E+04  0.00000000000E+00 0.  1.
         23    2    1    2    0    0 -0.30320150406E+03 -0.89327439842E+03  0.67930718810E+03  0.11660366849E+04  0.91175610122E+02 0.  0.
    5000000    2    1    2    0    0  0.30320150406E+03  0.89327439842E+03 -0.38009884047E+03  0.11808328978E+04  0.60001741730E+03 0.  0.
         23    2    4    4    0    0  0.44353803355E+03  0.57200779350E+03 -0.13130838532E+03  0.74125336002E+03  0.91081000522E+02 0.  0.
         23    2    4    4    0    0 -0.14033652950E+03  0.32126660492E+03 -0.24879045514E+03  0.43957953777E+03  0.91798183591E+02 0.  0.
          5    1    3    3  502    0 -0.78509495669E+02 -0.13091722684E+03  0.11853197501E+03  0.19332609833E+03  0.47000000000E+01 0. -1.
         -5    1    3    3    0  502 -0.22469200839E+03 -0.76235717158E+03  0.56077521309E+03  0.97271058661E+03  0.47000000000E+01 0.  1.
         13    1    5    5    0    0  0.22390394003E+03  0.36173348708E+03 -0.80634430920E+02  0.43299653750E+03  0.00000000000E+00 0.  1.
        -13    1    5    5    0    0  0.21963409352E+03  0.21027430642E+03 -0.50673954401E+02  0.30825682252E+03  0.00000000000E+00 0. -1.
          1    1    6    6  503    0 -0.57202986047E+02  0.22595493792E+03 -0.18696336306E+03  0.29880280238E+03  0.00000000000E+00 0. -1.
         -1    1    6    6    0  503 -0.83133543449E+02  0.95311666998E+02 -0.61827092086E+02  0.14077673539E+03  0.00000000000E+00 0.  1.
<mgrwt>
<rscale>  0 0.10182807E+04</rscale>
<asrwt>0</asrwt>
<pdfrwt beam="1">  1        2 0.20354446E+00 0.10182807E+04</pdfrwt>
<pdfrwt beam="2">  1       -2 0.15751240E+00 0.10182807E+04</pdfrwt>
<totfact> 0.41694585E+00</totfact>
</mgrwt>
</event>
<event>
12    1  0.3203156E-008  0.9151233E+03  0.7818608E-02  0.9406872E-01
          2   -1    0    0  501    0  0.00000000000E+00  0.00000000000E+00  0.22161029494E+04  0.22161029494E+04  0.00000000000E+00 0. -1.
         -2   -1    0    0    0  501 -0.00000000000E+00 -0.00000000000E+00 -0.73374765286E+03  0.73374765286E+03  0.00000000000E+00 0.  1.
         23    2    1    2    0    0 -0.61619406530E+02 -0.81824255012E+03 -0.31551295308E+03  0.88451348108E+03  0.97456926722E+02 0.  0.
    5000000    2    1    2    0    0  0.61619406530E+02  0.81824255012E+03  0.17978682496E+04  0.20653371212E+04  0.59997446535E+03 0.  0.
         23    2    4    4    0    0 -0.24786488030E+03  0.25547370096E+03  0.64475250954E+03  0.74227825353E+03  0.92560230854E+02 0.  0.
         23    2    4    4    0    0  0.30948428683E+03  0.56276884916E+03  0.11531157401E+04  0.13230588677E+04  0.91211599544E+02 0.  0.
          5    1    3    3  502    0  0.22482450365E+02 -0.14001998263E+03 -0.70939902793E+02  0.15863674202E+03  0.47000000000E+01 0. -1.
         -5    1    3    3    0  502 -0.84101856895E+02 -0.67822256748E+03 -0.24457305028E+03  0.72587673906E+03  0.47000000000E+01 0.  1.
         11    1    5    5    0    0 -0.15291941626E+03  0.20279037255E+03  0.50527177351E+03  0.56551555962E+03  0.00000000000E+00 0.  1.
        -11    1    5    5    0    0 -0.94945464039E+02  0.52683328415E+02  0.13948073603E+03  0.17676269391E+03  0.00000000000E+00 0. -1.
          1    1    6    6  503    0  0.12166038157E+03  0.20975569856E+03  0.34851390656E+03  0.42457113019E+03  0.00000000000E+00 0. -1.
         -1    1    6    6    0  503  0.18782390526E+03  0.35301315060E+03  0.80460183355E+03  0.89848773750E+03  0.00000000000E+00 0.  1.
<mgrwt>
<rscale>  0 0.91512327E+03</rscale>
<asrwt>0</asrwt>
<pdfrwt beam="1">  1        2 0.34093891E+00 0.91512327E+03</pdfrwt>
<pdfrwt beam="2">  1       -2 0.11288426E+00 0.91512327E+03</pdfrwt>
<totfact> 0.31656684E+00</totfact>
</mgrwt>
</event>
<event>
12    1  0.3203156E-008  0.1072495E+04  0.7818608E-02  0.9232423E-01
          1   -1    0    0  501    0  0.00000000000E+00  0.00000000000E+00  0.12035937356E+04  0.12035937356E+04  0.00000000000E+00 0. -1.
         -1   -1    0    0    0  501 -0.00000000000E+00 -0.00000000000E+00 -0.10192033266E+04  0.10192033266E+04  0.00000000000E+00 0.  1.
         23    2    1    2    0    0 -0.63756401041E+03  0.77114798888E+03 -0.13357795723E+03  0.10135669906E+04  0.91202442686E+02 0.  0.
    5000000    2    1    2    0    0  0.63756401041E+03 -0.77114798888E+03  0.31796836627E+03  0.12092300717E+04  0.59998032988E+03 0.  0.
         23    2    4    4    0    0  0.34478636019E+03 -0.77489465152E+03  0.17469541704E+03  0.87078916519E+03  0.91738358183E+02 0.  0.
         23    2    4    4    0    0  0.29277765022E+03  0.37466626341E+01  0.14327294923E+03  0.33844090651E+03  0.91007248444E+02 0.  0.
          5    1    3    3  502    0 -0.42505850109E+03  0.53720367108E+03 -0.51379820367E+02  0.68696760441E+03  0.47000000000E+01 0. -1.
         -5    1    3    3    0  502 -0.21250550932E+03  0.23394431781E+03 -0.82198136865E+02  0.32659938615E+03  0.47000000000E+01 0.  1.
         13    1    5    5    0    0  0.23522201837E+03 -0.54992740347E+03  0.80943561225E+02  0.60357386219E+03  0.00000000000E+00 0. -1.
        -13    1    5    5    0    0  0.10956434181E+03 -0.22496724805E+03  0.93751855810E+02  0.26721530301E+03  0.00000000000E+00 0.  1.
          1    1    6    6  503    0  0.69288291144E+02  0.17928594818E+02  0.76498818219E+02  0.10475863206E+03  0.00000000000E+00 0. -1.
         -1    1    6    6    0  503  0.22348935908E+03 -0.14181932184E+02  0.66774131010E+02  0.23368227445E+03  0.00000000000E+00 0.  1.
<mgrwt>
<rscale>  0 0.10724949E+04</rscale>
<asrwt>0</asrwt>
<pdfrwt beam="1">  1        1 0.18516827E+00 0.10724949E+04</pdfrwt>
<pdfrwt beam="2">  1       -1 0.15680051E+00 0.10724949E+04</pdfrwt>
<totfact> 0.32660986E+00</totfact>
</mgrwt>
</event>
<event>
12    1  0.3203156E-008  0.3107588E+04  0.7818608E-02  0.8213659E-01
         -2   -1    0    0    0  501 -0.00000000000E+00  0.00000000000E+00  0.27948442304E+04  0.27948442304E+04  0.00000000000E+00 0.  1.
          2   -1    0    0  501    0  0.00000000000E+00 -0.00000000000E+00 -0.36581659655E+04  0.36581659655E+04  0.00000000000E+00 0. -1.
         23    2    1    2    0    0 -0.15519989752E+04 -0.26618079527E+04 -0.11739956754E+04  0.32985818990E+04  0.91947280264E+02 0.  0.
    5000000    2    1    2    0    0  0.15519989752E+04  0.26618079527E+04  0.31067394035E+03  0.31544282970E+04  0.59998098920E+03 0.  0.
         23    2    4    4    0    0  0.11353391136E+04  0.23410254993E+04  0.21551901594E+03  0.26123074368E+04  0.91139490371E+02 0.  0.
         23    2    4    4    0    0  0.41665986165E+03  0.32078245338E+03  0.95154924411E+02  0.54212086020E+03  0.91289346164E+02 0.  0.
          5    1    3    3  502    0 -0.78396757229E+03 -0.13812947369E+04 -0.56036769281E+03  0.16842251470E+04  0.47000000000E+01 0. -1.
         -5    1    3    3    0  502 -0.76803140292E+03 -0.12805132158E+04 -0.61362798264E+03  0.16143567520E+04  0.47000000000E+01 0.  1.
         13    1    5    5    0    0  0.97629957166E+03  0.20449892605E+04  0.16028873162E+03  0.22717469944E+04  0.00000000000E+00 0.  1.
        -13    1    5    5    0    0  0.15903954191E+03  0.29603623879E+03  0.55230284315E+02  0.34056044232E+03  0.00000000000E+00 0. -1.
          4    1    6    6  503    0  0.32856426802E+03  0.20959355960E+03  0.90977337452E+02  0.40020096748E+03  0.00000000000E+00 0. -1.
         -4    1    6    6    0  503  0.88095593631E+02  0.11118889378E+03  0.41775869583E+01  0.14191989272E+03  0.00000000000E+00 0.  1.
<mgrwt>
<rscale>  0 0.31075881E+04</rscale>
<asrwt>0</asrwt>
<pdfrwt beam="1">  1        2 0.56279477E+00 0.31075881E+04</pdfrwt>
<pdfrwt beam="2">  1       -2 0.42997603E+00 0.31075881E+04</pdfrwt>
<totfact> 0.23091200E-03</totfact>
</mgrwt>
</event>
<event>
12    1  0.3203156E-008  0.6449333E+03  0.7818608E-02  0.9816333E-01
          1   -1    0    0  501    0  0.00000000000E+00  0.00000000000E+00  0.10307781387E+04  0.10307781387E+04  0.00000000000E+00 0. -1.
         -1   -1    0    0    0  501 -0.00000000000E+00 -0.00000000000E+00 -0.54046538355E+03  0.54046538355E+03  0.00000000000E+00 0.  1.
         23    2    1    2    0    0 -0.48821876924E+03 -0.37613490443E+03  0.11767251340E+03  0.63389014632E+03  0.90193482192E+02 0.  0.
    5000000    2    1    2    0    0  0.48821876924E+03  0.37613490443E+03  0.37264024177E+03  0.93735337595E+03  0.59994630481E+03 0.  0.
         23    2    4    4    0    0  0.50639074174E+03  0.31871873641E+03  0.48869441738E+03  0.77805733865E+03  0.92400067086E+02 0.  0.
         23    2    4    4    0    0 -0.18171972505E+02  0.57416168024E+02 -0.11605417561E+03  0.15929603729E+03  0.90993510126E+02 0.  0.
          5    1    3    3  502    0 -0.21704453214E+03 -0.21765134554E+03  0.78938680616E+02  0.31738595187E+03  0.47000000000E+01 0. -1.
         -5    1    3    3    0  502 -0.27117423710E+03 -0.15848355888E+03  0.38733832788E+02  0.31650419445E+03  0.47000000000E+01 0.  1.
         11    1    5    5    0    0  0.81739307513E+02  0.94192075470E+02  0.11184451804E+03  0.16751912634E+03  0.00000000000E+00 0.  1.
        -11    1    5    5    0    0  0.42465143423E+03  0.22452666094E+03  0.37684989934E+03  0.61053821231E+03  0.00000000000E+00 0. -1.
          1    1    6    6  503    0 -0.13297997914E+02  0.13065297882E+02 -0.11305037113E+03  0.11457715815E+03  0.00000000000E+00 0. -1.
         -1    1    6    6    0  503 -0.48739745919E+01  0.44350870142E+02 -0.30038044855E+01  0.44718879146E+02  0.00000000000E+00 0.  1.
<mgrwt>
<rscale>  0 0.64493335E+03</rscale>
<asrwt>0</asrwt>
<pdfrwt beam="1">  1        1 0.15858125E+00 0.64493335E+03</pdfrwt>
<pdfrwt beam="2">  1       -1 0.83148521E-01 0.64493335E+03</pdfrwt>
<totfact> 0.21451548E+01</totfact>
</mgrwt>
</event>
<event>
12    1  0.3203156E-008  0.7140974E+03  0.7818608E-02  0.9693423E-01
          2   -1    0    0  501    0  0.00000000000E+00  0.00000000000E+00  0.79957349360E+03  0.79957349360E+03  0.00000000000E+00 0. -1.
         -2   -1    0    0    0  501 -0.00000000000E+00 -0.00000000000E+00 -0.79175007147E+03  0.79175007147E+03  0.00000000000E+00 0.  1.
         23    2    1    2    0    0  0.46554221331E+03 -0.42089013185E+03 -0.25627431566E+03  0.68381239429E+03  0.89692866243E+02 0.  0.
    5000000    2    1    2    0    0 -0.46554221331E+03  0.42089013185E+03  0.26409773779E+03  0.90751117079E+03  0.59995904405E+03 0.  0.
         23    2    4    4    0    0 -0.47164885210E+03  0.49022220430E+03  0.34317367465E+03  0.76707809264E+03  0.88714034731E+02 0.  0.
         23    2    4    4    0    0  0.61066387860E+01 -0.69332072454E+02 -0.79075936861E+02  0.14043307815E+03  0.92866669695E+02 0.  0.
          5    1    3    3  502    0  0.28804939378E+03 -0.29803123676E+03 -0.13374428358E+03  0.43555102426E+03  0.47000000000E+01 0. -1.
         -5    1    3    3    0  502  0.17749281953E+03 -0.12285889508E+03 -0.12253003209E+03  0.24826137003E+03  0.47000000000E+01 0.  1.
         13    1    5    5    0    0 -0.13765971152E+03  0.17827879331E+03  0.76083746073E+02  0.23774410768E+03  0.00000000000E+00 0. -1.
        -13    1    5    5    0    0 -0.33398914058E+03  0.31194341099E+03  0.26708992858E+03  0.52933398496E+03  0.00000000000E+00 0.  1.
          3    1    6    6  503    0  0.22604544172E+02  0.16582694820E+02 -0.25157827269E+02  0.37667857088E+02  0.00000000000E+00 0. -1.
         -3    1    6    6    0  503 -0.16497905386E+02 -0.85914767274E+02 -0.53918109591E+02  0.10276522106E+03  0.00000000000E+00 0.  1.
<mgrwt>
<rscale>  0 0.71409738E+03</rscale>
<asrwt>0</asrwt>
<pdfrwt beam="1">  1        2 0.12301131E+00 0.71409738E+03</pdfrwt>
<pdfrwt beam="2">  1       -2 0.12180770E+00 0.71409738E+03</pdfrwt>
<totfact> 0.17959788E+01</totfact>
</mgrwt>
</event>
<event>
12    1  0.3203156E-008  0.3622763E+03  0.7818608E-02  0.1057686E+00
          3   -1    0    0  501    0  0.00000000000E+00  0.00000000000E+00  0.11766788939E+04  0.11766788939E+04  0.00000000000E+00 0. -1.
         -3   -1    0    0    0  501 -0.00000000000E+00 -0.00000000000E+00 -0.13476984827E+03  0.13476984827E+03  0.00000000000E+00 0.  1.
         23    2    1    2    0    0  0.30595980268E+02  0.13970155700E+03  0.14267615964E+03  0.22107826560E+03  0.89813551064E+02 0.  0.
    5000000    2    1    2    0    0 -0.30595980268E+02 -0.13970155700E+03  0.89923288603E+03  0.10903704766E+04  0.59986277922E+03 0.  0.
         23    2    4    4    0    0 -0.27732876591E+03 -0.13141383477E+03  0.31300748850E+03  0.44791397333E+03  0.92045636933E+02 0.  0.
         23    2    4    4    0    0  0.24673278564E+03 -0.82877222328E+01  0.58622539753E+03  0.64245650327E+03  0.90246263327E+02 0.  0.
          5    1    3    3  502    0  0.47385612814E+02  0.73924063568E+02  0.12116470469E+03  0.14971018382E+03  0.47000000000E+01 0. -1.
         -5    1    3    3    0  502 -0.16789632546E+02  0.65777493433E+02  0.21511454949E+02  0.71368081782E+02  0.47000000000E+01 0.  1.
         13    1    5    5    0    0 -0.71962622440E+02 -0.22991584814E+02  0.28697021368E+02  0.80813062286E+02  0.00000000000E+00 0.  1.
        -13    1    5    5    0    0 -0.20536614347E+03 -0.10842224995E+03  0.28431046713E+03  0.36710091104E+03  0.00000000000E+00 0. -1.
          3    1    6    6  503    0  0.51905293926E+02 -0.37164544307E+02  0.11125706100E+03  0.12827118349E+03  0.00000000000E+00 0. -1.
         -3    1    6    6    0  503  0.19482749171E+03  0.28876822074E+02  0.47496833653E+03  0.51418531978E+03  0.00000000000E+00 0.  1.
<mgrwt>
<rscale>  0 0.36227629E+03</rscale>
<asrwt>0</asrwt>
<pdfrwt beam="1">  1        3 0.18102752E+00 0.36227629E+03</pdfrwt>
<pdfrwt beam="2">  1       -3 0.20733824E-01 0.36227629E+03</pdfrwt>
<totfact> 0.11044316E+01</totfact>
</mgrwt>
</event>
<event>
12    1  0.3203156E-008  0.1090736E+04  0.7818608E-02  0.9214268E-01
          1   -1    0    0  501    0  0.00000000000E+00  0.00000000000E+00  0.18843735582E+04  0.18843735582E+04  0.00000000000E+00 0. -1.
         -1   -1    0    0    0  501 -0.00000000000E+00 -0.00000000000E+00 -0.10900019724E+04  0.10900019724E+04  0.00000000000E+00 0.  1.
         23    2    1    2    0    0 -0.10196517052E+04 -0.38308738216E+02 -0.56648675441E+03  0.11706911786E+04  0.91942555046E+02 0.  0.
    5000000    2    1    2    0    0  0.10196517052E+04  0.38308738216E+02  0.13608583402E+04  0.18036843520E+04  0.60015386383E+03 0.  0.
         23    2    4    4    0    0  0.25828023736E+03  0.25093509018E+03  0.56925780292E+03  0.68106897926E+03  0.10061514710E+03 0.  0.
         23    2    4    4    0    0  0.76137146779E+03 -0.21262635197E+03  0.79160053727E+03  0.11226153727E+04  0.93473990756E+02 0.  0.
          5    1    3    3  502    0 -0.62572527627E+03 -0.67979576324E+02 -0.35056971837E+03  0.72046829327E+03  0.47000000000E+01 0. -1.
         -5    1    3    3    0  502 -0.39392642888E+03  0.29670838108E+02 -0.21591703604E+03  0.45022288531E+03  0.47000000000E+01 0.  1.
         11    1    5    5    0    0  0.13666488685E+03  0.85908241174E+02  0.31942394989E+03  0.35789548329E+03  0.00000000000E+00 0. -1.
        -11    1    5    5    0    0  0.12161535051E+03  0.16502684901E+03  0.24983385304E+03  0.32317349597E+03  0.00000000000E+00 0.  1.
          1    1    6    6  503    0  0.31109895351E+03 -0.82262729281E+02  0.25874631850E+03  0.41291569701E+03  0.00000000000E+00 0. -1.
         -1    1    6    6    0  503  0.45027251428E+03 -0.13036362269E+03  0.53285421878E+03  0.70969967571E+03  0.00000000000E+00 0.  1.
<mgrwt>
<rscale>  0 0.10907360E+04</rscale>
<asrwt>0</asrwt>
<pdfrwt beam="1">  1        1 0.28990362E+00 0.10907360E+04</pdfrwt>
<pdfrwt beam="2">  1       -1 0.16769261E+00 0.10907360E+04</pdfrwt>
<totfact> 0.91024770E-01</totfact>
</mgrwt>
</event>
<event>
12    1  0.3203156E-008  0.4434576E+03  0.7818608E-02  0.1029691E+00
          2   -1    0    0  501    0  0.00000000000E+00  0.00000000000E+00  0.26360682341E+04  0.26360682341E+04  0.00000000000E+00 0.  1.
         -2   -1    0    0    0  501 -0.00000000000E+00 -0.00000000000E+00 -0.15188826422E+03  0.15188826422E+03  0.00000000000E+00 0. -1.
         23    2    1    2    0    0 -0.36741431469E+02 -0.29334443585E+03  0.18175495095E+04  0.18436548343E+04  0.90421445586E+02 0.  0.
    5000000    2    1    2    0    0  0.36741431469E+02  0.29334443585E+03  0.66663046040E+03  0.94430166402E+03  0.59992380441E+03 0.  0.
         23    2    4    4    0    0  0.77673486872E+02 -0.12640755083E+03  0.40212302845E+03  0.43805623470E+03  0.90433927693E+02 0.  0.
         23    2    4    4    0    0 -0.40932055402E+02  0.41975198668E+03  0.26450743195E+03  0.50624542932E+03  0.91940685602E+02 0.  0.
          5    1    3    3  502    0 -0.28826825324E+02 -0.12265152742E+03  0.10350925157E+04  0.10427430120E+04  0.47000000000E+01 0. -1.
         -5    1    3    3    0  502 -0.79146061452E+01 -0.17069290844E+03  0.78245699374E+03  0.80091182226E+03  0.47000000000E+01 0.  1.
         13    1    5    5    0    0  0.53963640185E+02 -0.24214443749E+02  0.22067179886E+03  0.22846106137E+03  0.00000000000E+00 0. -1.
        -13    1    5    5    0    0  0.23709846687E+02 -0.10219310708E+03  0.18145122959E+03  0.20959517333E+03  0.00000000000E+00 0.  1.
          1    1    6    6  503    0 -0.56329063425E+02  0.32634953675E+03  0.16911903201E+03  0.37185780953E+03  0.00000000000E+00 0. -1.
         -1    1    6    6    0  503  0.15397008023E+02  0.93402449934E+02  0.95388399935E+02  0.13438761979E+03  0.00000000000E+00 0.  1.
<mgrwt>
<rscale>  0 0.44345761E+03</rscale>
<asrwt>0</asrwt>
<pdfrwt beam="1">  1        2 0.40554893E+00 0.44345761E+03</pdfrwt>
<pdfrwt beam="2">  1       -2 0.23367427E-01 0.44345761E+03</pdfrwt>
<totfact> 0.51745690E+01</totfact>
</mgrwt>
</event>
<event>
12    1  0.3203156E-008  0.7588802E+03  0.7818608E-02  0.9621521E-01
          1   -1    0    0  501    0  0.00000000000E+00  0.00000000000E+00  0.12334894603E+04  0.12334894603E+04  0.00000000000E+00 0. -1.
         -1   -1    0    0    0  501 -0.00000000000E+00 -0.00000000000E+00 -0.68794437394E+03  0.68794437394E+03  0.00000000000E+00 0.  1.
         23    2    1    2    0    0  0.54074251977E+03  0.44408489984E+03  0.69251752431E+03  0.98819826904E+03  0.85682124850E+02 0.  0.
    5000000    2    1    2    0    0 -0.54074251977E+03 -0.44408489984E+03 -0.14697243796E+03  0.93323556519E+03  0.59976149564E+03 0.  0.
         23    2    4    4    0    0 -0.51012805740E+03 -0.19636014337E+03 -0.29573987887E+03  0.62873085891E+03  0.95144501392E+02 0.  0.
         23    2    4    4    0    0 -0.30614462375E+02 -0.24772475646E+03  0.14876744090E+03  0.30450470628E+03  0.91030568501E+02 0.  0.
          5    1    3    3  502    0  0.18609077576E+03  0.20654193543E+03  0.27689750417E+03  0.39240752507E+03  0.47000000000E+01 0. -1.
         -5    1    3    3    0  502  0.35465174401E+03  0.23754296440E+03  0.41562002013E+03  0.59579074397E+03  0.47000000000E+01 0.  1.
         13    1    5    5    0    0 -0.29549838738E+03 -0.13634039377E+03 -0.22216161026E+03  0.39403525349E+03  0.00000000000E+00 0. -1.
        -13    1    5    5    0    0 -0.21462967002E+03 -0.60019749609E+02 -0.73578268605E+02  0.23469560542E+03  0.00000000000E+00 0.  1.
          4    1    6    6  503    0  0.14093929979E+02 -0.19455001512E+03  0.12190480527E+03  0.23001984434E+03  0.00000000000E+00 0. -1.
         -4    1    6    6    0  503 -0.44708392354E+02 -0.53174741347E+02  0.26862635631E+02  0.74484861933E+02  0.00000000000E+00 0.  1.
<mgrwt>
<rscale>  0 0.75888021E+03</rscale>
<asrwt>0</asrwt>
<pdfrwt beam="1">  1        1 0.18976761E+00 0.75888021E+03</pdfrwt>
<pdfrwt beam="2">  1       -1 0.10583760E+00 0.75888021E+03</pdfrwt>
<totfact> 0.87318924E+00</totfact>
</mgrwt>
</event>
<event>
12    1  0.3203156E-008  0.8759957E+03  0.7818608E-02  0.9456096E-01
          1   -1    0    0  501    0  0.00000000000E+00  0.00000000000E+00  0.40952702206E+03  0.40952702206E+03  0.00000000000E+00 0. -1.
         -1   -1    0    0    0  501 -0.00000000000E+00 -0.00000000000E+00 -0.23792407884E+04  0.23792407884E+04  0.00000000000E+00 0.  1.
         23    2    1    2    0    0 -0.11037846745E+03 -0.77578898911E+03 -0.15019893237E+04  0.16966299138E+04  0.92461745005E+02 0.  0.
    5000000    2    1    2    0    0  0.11037846745E+03  0.77578898911E+03 -0.46772444272E+03  0.10921378967E+04  0.59997255722E+03 0.  0.
         23    2    4    4    0    0  0.30722673359E+03  0.67063787863E+03 -0.32085985919E+03  0.80974053332E+03  0.92656634860E+02 0.  0.
         23    2    4    4    0    0 -0.19684826614E+03  0.10515111048E+03 -0.14686458352E+03  0.28239736338E+03  0.91504475494E+02 0.  0.
          5    1    3    3  502    0 -0.36296459748E+02 -0.33972404847E+03 -0.56113975762E+03  0.65698537250E+03  0.47000000000E+01 0. -1.
         -5    1    3    3    0  502 -0.74082007700E+02 -0.43606494064E+03 -0.94084956605E+03  0.10396445413E+04  0.47000000000E+01 0.  1.
         11    1    5    5    0    0  0.36678912937E+02  0.17318491307E+03 -0.83749639976E+02  0.19583758313E+03  0.00000000000E+00 0. -1.
        -11    1    5    5    0    0  0.27054782065E+03  0.49745296556E+03 -0.23711021922E+03  0.61390295020E+03  0.00000000000E+00 0.  1.
          1    1    6    6  503    0 -0.49348664342E+02  0.39554743167E+02  0.13339028858E+01  0.63258577887E+02  0.00000000000E+00 0. -1.
         -1    1    6    6    0  503 -0.14749960180E+03  0.65596367311E+02 -0.14819848641E+03  0.21913878550E+03  0.00000000000E+00 0.  1.
<mgrwt>
<rscale>  0 0.87599569E+03</rscale>
<asrwt>0</asrwt>
<pdfrwt beam="1">  1        1 0.63004157E-01 0.87599569E+03</pdfrwt>
<pdfrwt beam="2">  1       -1 0.36603705E+00 0.87599569E+03</pdfrwt>
<totfact> 0.73613222E-01</totfact>
</mgrwt>
</event>
<event>
12    1  0.3203156E-008  0.7215987E+03  0.7818608E-02  0.9680992E-01
         -2   -1    0    0    0  501 -0.00000000000E+00  0.00000000000E+00  0.95209774464E+03  0.95209774464E+03  0.00000000000E+00 0.  1.
          2   -1    0    0  501    0  0.00000000000E+00 -0.00000000000E+00 -0.14178380262E+04  0.14178380262E+04  0.00000000000E+00 0. -1.
         23    2    1    2    0    0  0.69234571141E+03 -0.54445146318E+02 -0.10642298854E+04  0.12742217341E+04  0.93535665728E+02 0.  0.
    5000000    2    1    2    0    0 -0.69234571141E+03  0.54445146318E+02  0.59848960378E+03  0.10957140367E+04  0.60007715036E+03 0.  0.
         23    2    4    4    0    0 -0.38444380907E+03 -0.92944196632E+02  0.61733501676E+01  0.40597704432E+03  0.91343222203E+02 0.  0.
         23    2    4    4    0    0 -0.30790190234E+03  0.14738934295E+03  0.59231625361E+03  0.68973699241E+03  0.91495215863E+02 0.  0.
          5    1    3    3  502    0  0.54478094511E+03 -0.39148642485E+02 -0.76236990591E+03  0.93784266154E+03  0.47000000000E+01 0. -1.
         -5    1    3    3    0  502  0.14756476630E+03 -0.15296503833E+02 -0.30185997945E+03  0.33637907259E+03  0.47000000000E+01 0.  1.
         13    1    5    5    0    0 -0.21752079504E+03 -0.28507354540E+02  0.42341852144E+02  0.22342962646E+03  0.00000000000E+00 0.  1.
        -13    1    5    5    0    0 -0.16692301403E+03 -0.64436842091E+02 -0.36168501976E+02  0.18254741786E+03  0.00000000000E+00 0. -1.
          4    1    6    6  503    0 -0.11264930263E+03  0.96864294136E+02  0.20656869971E+03  0.25444682070E+03  0.00000000000E+00 0. -1.
         -4    1    6    6    0  503 -0.19525259971E+03  0.50525048814E+02  0.38574755390E+03  0.43529017171E+03  0.00000000000E+00 0.  1.
<mgrwt>
<rscale>  0 0.72159870E+03</rscale>
<asrwt>0</asrwt>
<pdfrwt beam="1">  1        2 0.21812893E+00 0.72159870E+03</pdfrwt>
<pdfrwt beam="2">  1       -2 0.14647658E+00 0.72159870E+03</pdfrwt>
<totfact> 0.46415179E+00</totfact>
</mgrwt>
</event>
<event>
12    1  0.3203156E-008  0.5556702E+03  0.7818608E-02  0.1000190E+00
          2   -1    0    0  501    0  0.00000000000E+00  0.00000000000E+00  0.18091182908E+04  0.18091182908E+04  0.00000000000E+00 0.  1.
         -2   -1    0    0    0  501 -0.00000000000E+00 -0.00000000000E+00 -0.19141403244E+03  0.19141403244E+03  0.00000000000E+00 0. -1.
         23    2    1    2    0    0  0.37646360785E+03 -0.15759464311E+03  0.83171443535E+03  0.93080455881E+03  0.89929445441E+02 0.  0.
    5000000    2    1    2    0    0 -0.37646360785E+03  0.15759464311E+03  0.78598982301E+03  0.10697277644E+04  0.59998047347E+03 0.  0.
         23    2    4    4    0    0 -0.62651047054E+02  0.32283307954E+03  0.26012153746E+03  0.42909711529E+03  0.91185356066E+02 0.  0.
         23    2    4    4    0    0 -0.31381256080E+03 -0.16523843643E+03  0.52586828555E+03  0.64063064913E+03  0.89933923932E+02 0.  0.
          5    1    3    3  502    0  0.46137940624E+02 -0.49154877953E+02  0.17753749183E+03  0.18996463512E+03  0.47000000000E+01 0. -1.
         -5    1    3    3    0  502  0.33032566723E+03 -0.10843976515E+03  0.65417694352E+03  0.74083992369E+03  0.47000000000E+01 0.  1.
         11    1    5    5    0    0 -0.63227976691E+02  0.10513156925E+03  0.10874186141E+03  0.16393662285E+03  0.00000000000E+00 0.  1.
        -11    1    5    5    0    0  0.57692963687E+00  0.21770151029E+03  0.15137967605E+03  0.26516049244E+03  0.00000000000E+00 0. -1.
          2    1    6    6  503    0 -0.24272015609E+03 -0.14021392074E+03  0.46833813647E+03  0.54581464603E+03  0.00000000000E+00 0. -1.
         -2    1    6    6    0  503 -0.71092404707E+02 -0.25024515692E+02  0.57530149079E+02  0.94816003109E+02  0.00000000000E+00 0.  1.
<mgrwt>
<rscale>  0 0.55567022E+03</rscale>
<asrwt>0</asrwt>
<pdfrwt beam="1">  1        2 0.27832588E+00 0.55567022E+03</pdfrwt>
<pdfrwt beam="2">  1       -2 0.29448314E-01 0.55567022E+03</pdfrwt>
<totfact> 0.94741763E+01</totfact>
</mgrwt>
</event>
<event>
12    1  0.3203156E-008  0.1067330E+04  0.7818608E-02  0.9237633E-01
          1   -1    0    0  501    0  0.00000000000E+00  0.00000000000E+00  0.24361831233E+04  0.24361831233E+04  0.00000000000E+00 0. -1.
         -1   -1    0    0    0  501 -0.00000000000E+00 -0.00000000000E+00 -0.84569176768E+03  0.84569176768E+03  0.00000000000E+00 0.  1.
         23    2    1    2    0    0 -0.40948444057E+03 -0.90498752828E+03 -0.31902054953E+03  0.10472786009E+04  0.91314968177E+02 0.  0.
    5000000    2    1    2    0    0  0.40948444057E+03  0.90498752828E+03  0.19095119051E+04  0.22345962901E+04  0.60042062790E+03 0.  0.
         23    2    4    4    0    0  0.15921854385E+03  0.85171346248E+03  0.16033233803E+04  0.18248565470E+04  0.93215817205E+02 0.  0.
         23    2    4    4    0    0  0.25026589672E+03  0.53274065800E+02  0.30618852483E+03  0.40973974304E+03  0.93081142802E+02 0.  0.
          5    1    3    3  502    0 -0.10850907324E+03 -0.21640076649E+03 -0.11801123658E+03  0.26935525365E+03  0.47000000000E+01 0. -1.
         -5    1    3    3    0  502 -0.30097536733E+03 -0.68858676180E+03 -0.20100931295E+03  0.77792334722E+03  0.47000000000E+01 0.  1.
         11    1    5    5    0    0  0.36673123312E+02  0.43676545854E+03  0.77594662401E+03  0.89118019899E+03  0.00000000000E+00 0. -1.
        -11    1    5    5    0    0  0.12254542054E+03  0.41494800394E+03  0.82737675629E+03  0.93367634806E+03  0.00000000000E+00 0.  1.
          2    1    6    6  503    0 -0.70089343131E+01  0.41237426414E+01  0.21005832032E+02  0.22524994848E+02  0.00000000000E+00 0. -1.
         -2    1    6    6    0  503  0.25727483103E+03  0.49150323159E+02  0.28518269280E+03  0.38721474820E+03  0.00000000000E+00 0.  1.
<mgrwt>
<rscale>  0 0.10673299E+04</rscale>
<asrwt>0</asrwt>
<pdfrwt beam="1">  1        1 0.37479740E+00 0.10673299E+04</pdfrwt>
<pdfrwt beam="2">  1       -1 0.13010643E+00 0.10673299E+04</pdfrwt>
<totfact> 0.76397045E-01</totfact>
</mgrwt>
</event>
<event>
12    1  0.3203156E-008  0.4388759E+03  0.7818608E-02  0.1031092E+00
          3   -1    0    0  501    0  0.00000000000E+00  0.00000000000E+00  0.10279655916E+04  0.10279655916E+04  0.00000000000E+00 0. -1.
         -3   -1    0    0    0  501 -0.00000000000E+00 -0.00000000000E+00 -0.27165683897E+03  0.27165683897E+03  0.00000000000E+00 0.  1.
         23    2    1    2    0    0  0.26889871350E+03  0.21597869015E+03  0.33664160372E+03  0.49036566637E+03  0.90430109338E+02 0.  0.
    5000000    2    1    2    0    0 -0.26889871350E+03 -0.21597869015E+03  0.41966714891E+03  0.80925676421E+03  0.59985221665E+03 0.  0.
         23    2    4    4    0    0 -0.25352528178E+03  0.52515110288E+02  0.44721859460E+03  0.52466222901E+03  0.90736309630E+02 0.  0.
         23    2    4    4    0    0 -0.15373431720E+02 -0.26849380044E+03 -0.27551445697E+02  0.28459453519E+03  0.88936516821E+02 0.  0.
          5    1    3    3  502    0  0.23273041214E+03  0.18205507377E+03  0.32489680683E+03  0.43918961703E+03  0.47000000000E+01 0. -1.
         -5    1    3    3    0  502  0.36168301362E+02  0.33923616383E+02  0.11744796893E+02  0.51176049339E+02  0.47000000000E+01 0.  1.
         11    1    5    5    0    0 -0.90854985694E+02  0.37814694774E+02  0.24948864622E+03  0.26819613002E+03  0.00000000000E+00 0. -1.
        -11    1    5    5    0    0 -0.16267029608E+03  0.14700415514E+02  0.19772994839E+03  0.25646609900E+03  0.00000000000E+00 0.  1.
          1    1    6    6  503    0 -0.15552603818E+01 -0.22585929472E+03  0.10056066759E+02  0.22608839936E+03  0.00000000000E+00 0. -1.
         -1    1    6    6    0  503 -0.13818171338E+02 -0.42634505722E+02 -0.37607512456E+02  0.58506135836E+02  0.00000000000E+00 0.  1.
<mgrwt>
<rscale>  0 0.43887594E+03</rscale>
<asrwt>0</asrwt>
<pdfrwt beam="1">  1        3 0.15814855E+00 0.43887594E+03</pdfrwt>
<pdfrwt beam="2">  1       -3 0.41793360E-01 0.43887594E+03</pdfrwt>
<totfact> 0.42202440E+00</totfact>
</mgrwt>
</event>
<event>
12    1  0.3203156E-008  0.1765030E+04  0.7818608E-02  0.8725121E-01
          2   -1    0    0  501    0  0.00000000000E+00  0.00000000000E+00  0.16647935906E+04  0.16647935906E+04  0.00000000000E+00 0. -1.
         -2   -1    0    0    0  501 -0.00000000000E+00 -0.00000000000E+00 -0.19126219927E+04  0.19126219927E+04  0.00000000000E+00 0.  1.
         23    2    1    2    0    0 -0.20075574715E+03  0.17132744214E+04  0.43094570328E+02  0.17278947264E+04  0.90282503125E+02 0.  0.
    5000000    2    1    2    0    0  0.20075574715E+03 -0.17132744214E+04 -0.29092297245E+03  0.18495208569E+04  0.60039912667E+03 0.  0.
         23    2    4    4    0    0  0.31816476200E+03 -0.58750357303E+03 -0.22991647092E+03  0.71233711806E+03  0.90406427128E+02 0.  0.
         23    2    4    4    0    0 -0.11740901485E+03 -0.11257708484E+04 -0.61006501534E+02  0.11371837389E+04  0.91215036748E+02 0.  0.
          5    1    3    3  502    0 -0.16089213918E+03  0.11491966433E+04 -0.41363099518E+01  0.11604216495E+04  0.47000000000E+01 0. -1.
         -5    1    3    3    0  502 -0.39863607977E+02  0.56407777807E+03  0.47230880280E+02  0.56747307690E+03  0.47000000000E+01 0.  1.
         13    1    5    5    0    0  0.29127643972E+03 -0.56034160493E+03 -0.19600923991E+03  0.66124450900E+03  0.00000000000E+00 0. -1.
        -13    1    5    5    0    0  0.26888322279E+02 -0.27161968103E+02 -0.33907231010E+02  0.51092609064E+02  0.00000000000E+00 0.  1.
          1    1    6    6  503    0 -0.36316408813E+02 -0.70178132451E+03 -0.12922431008E+02  0.70283916952E+03  0.00000000000E+00 0. -1.
         -1    1    6    6    0  503 -0.81092606034E+02 -0.42398952386E+03 -0.48084070526E+02  0.43434456937E+03  0.00000000000E+00 0.  1.
<mgrwt>
<rscale>  0 0.17650295E+04</rscale>
<asrwt>0</asrwt>
<pdfrwt beam="1">  1        2 0.25612209E+00 0.17650295E+04</pdfrwt>
<pdfrwt beam="2">  1       -2 0.29424953E+00 0.17650295E+04</pdfrwt>
<totfact> 0.32341676E-01</totfact>
</mgrwt>
</event>
<event>
12    1  0.3203156E-008  0.1258611E+04  0.7818608E-02  0.9063047E-01
          2   -1    0    0  501    0  0.00000000000E+00  0.00000000000E+00  0.32898849165E+04  0.32898849165E+04  0.00000000000E+00 0. -1.
         -2   -1    0    0    0  501 -0.00000000000E+00 -0.00000000000E+00 -0.56998904007E+03  0.56998904007E+03  0.00000000000E+00 0.  1.
         23    2    1    2    0    0  0.69008069707E+03  0.10331744051E+04  0.74645124059E+03  0.14519904536E+04  0.86174839304E+02 0.  0.
    5000000    2    1    2    0    0 -0.69008069707E+03 -0.10331744051E+04  0.19734446359E+04  0.24078835030E+04  0.59979872737E+03 0.  0.
         23    2    4    4    0    0 -0.45886695641E+03 -0.45271124721E+03  0.55497340586E+03  0.85522947672E+03  0.88969767895E+02 0.  0.
         23    2    4    4    0    0 -0.23121374065E+03 -0.58046315790E+03  0.14184712300E+04  0.15526540263E+04  0.90975949706E+02 0.  0.
          5    1    3    3  502    0  0.37563045069E+03  0.62618012653E+03  0.46453701202E+03  0.86545740038E+03  0.47000000000E+01 0. -1.
         -5    1    3    3    0  502  0.31445024637E+03  0.40699427859E+03  0.28191422858E+03  0.58653305322E+03  0.47000000000E+01 0.  1.
         13    1    5    5    0    0 -0.23963288395E+03 -0.20936613561E+03  0.22084233719E+03  0.38733633409E+03  0.00000000000E+00 0.  1.
        -13    1    5    5    0    0 -0.21923407246E+03 -0.24334511160E+03  0.33413106868E+03  0.46789314263E+03  0.00000000000E+00 0. -1.
          4    1    6    6  503    0 -0.63121959549E+02 -0.22540924572E+03  0.62165426745E+03  0.66426481020E+03  0.00000000000E+00 0.  1.
         -4    1    6    6    0  503 -0.16809178110E+03 -0.35505391218E+03  0.79681696256E+03  0.88838921608E+03  0.00000000000E+00 0. -1.
<mgrwt>
<rscale>  0 0.12586109E+04</rscale>
<asrwt>0</asrwt>
<pdfrwt beam="1">  1        2 0.50613613E+00 0.12586109E+04</pdfrwt>
<pdfrwt beam="2">  1       -2 0.87690624E-01 0.12586109E+04</pdfrwt>
<totfact> 0.12564812E+00</totfact>
</mgrwt>
</event>
<event>
12    1  0.3203156E-008  0.1388635E+04  0.7818608E-02  0.8962086E-01
         -2   -1    0    0    0  501 -0.00000000000E+00  0.00000000000E+00  0.56907443431E+03  0.56907443431E+03  0.00000000000E+00 0.  1.
          2   -1    0    0  501    0  0.00000000000E+00 -0.00000000000E+00 -0.34923360754E+04  0.34923360754E+04  0.00000000000E+00 0. -1.
         23    2    1    2    0    0 -0.12030130223E+04  0.59984495211E+03 -0.13755251692E+04  0.19254105510E+04  0.89899945020E+02 0.  0.
    5000000    2    1    2    0    0  0.12030130223E+04 -0.59984495211E+03 -0.15477364719E+04  0.21359999588E+04  0.59996111451E+03 0.  0.
         23    2    4    4    0    0  0.22329328296E+03 -0.35867707409E+03 -0.65919555818E+03  0.78842364489E+03  0.92541483700E+02 0.  0.
         23    2    4    4    0    0  0.97971973938E+03 -0.24116787802E+03 -0.88854091372E+03  0.13475763139E+04  0.91892618055E+02 0.  0.
          5    1    3    3  502    0 -0.36342542174E+03  0.20367937425E+03 -0.47853881735E+03  0.63449571659E+03  0.47000000000E+01 0. -1.
         -5    1    3    3    0  502 -0.83958760060E+03  0.39616557786E+03 -0.89698635187E+03  0.12909148344E+04  0.47000000000E+01 0.  1.
         13    1    5    5    0    0  0.19612943524E+02 -0.38426351132E+02 -0.26524238583E+02  0.50643728609E+02  0.00000000000E+00 0.  1.
        -13    1    5    5    0    0  0.20368033944E+03 -0.32025072296E+03 -0.63267131960E+03  0.73777991628E+03  0.00000000000E+00 0. -1.
          2    1    6    6  503    0  0.52157483840E+03 -0.14653495724E+03 -0.53284988666E+03  0.75989591883E+03  0.00000000000E+00 0. -1.
         -2    1    6    6    0  503  0.45814490098E+03 -0.94632920775E+02 -0.35569102706E+03  0.58768039505E+03  0.00000000000E+00 0.  1.
<mgrwt>
<rscale>  0 0.13886350E+04</rscale>
<asrwt>0</asrwt>
<pdfrwt beam="1">  1        2 0.53728248E+00 0.13886350E+04</pdfrwt>
<pdfrwt beam="2">  1       -2 0.87549912E-01 0.13886350E+04</pdfrwt>
<totfact> 0.90595390E-01</totfact>
</mgrwt>
</event>
<event>
12    1  0.3203156E-008  0.7509455E+03  0.7818608E-02  0.9633868E-01
         -1   -1    0    0    0  501 -0.00000000000E+00  0.00000000000E+00  0.10628570677E+04  0.10628570677E+04  0.00000000000E+00 0.  1.
          1   -1    0    0  501    0  0.00000000000E+00 -0.00000000000E+00 -0.17092979698E+04  0.17092979698E+04  0.00000000000E+00 0. -1.
         23    2    1    2    0    0 -0.68523523139E+03 -0.25333001156E+03  0.77250942802E+03  0.10671120393E+04  0.90740680055E+02 0.  0.
    5000000    2    1    2    0    0  0.68523523139E+03  0.25333001156E+03 -0.14189503301E+04  0.17050429981E+04  0.60002347369E+03 0.  0.
         23    2    4    4    0    0  0.33094316245E+03  0.23183335004E+03 -0.26011536086E+03  0.48977210048E+03  0.94586629563E+02 0.  0.
         23    2    4    4    0    0  0.35429206894E+03  0.21496661514E+02 -0.11588349693E+04  0.12152708976E+04  0.89442115792E+02 0.  0.
          5    1    3    3  502    0 -0.31558711870E+03 -0.14137490034E+03  0.42117896636E+03  0.54497330544E+03  0.47000000000E+01 0. -1.
         -5    1    3    3    0  502 -0.36964811270E+03 -0.11195511122E+03  0.35133046165E+03  0.52213873390E+03  0.47000000000E+01 0.  1.
         11    1    5    5    0    0  0.13012000967E+03  0.10453024435E+03 -0.54948677932E+02  0.17571894066E+03  0.00000000000E+00 0. -1.
        -11    1    5    5    0    0  0.20082315278E+03  0.12730310570E+03 -0.20516668292E+03  0.31405315982E+03  0.00000000000E+00 0.  1.
          1    1    6    6  503    0  0.99745278608E+02 -0.32494310667E+02 -0.29510817851E+03  0.31319935800E+03  0.00000000000E+00 0. -1.
         -1    1    6    6    0  503  0.25454679034E+03  0.53990972181E+02 -0.86372679077E+03  0.90207153965E+03  0.00000000000E+00 0.  1.
<mgrwt>
<rscale>  0 0.75094553E+03</rscale>
<asrwt>0</asrwt>
<pdfrwt beam="1">  1        1 0.26296891E+00 0.75094553E+03</pdfrwt>
<pdfrwt beam="2">  1       -1 0.16351648E+00 0.75094553E+03</pdfrwt>
<totfact> 0.13588237E+00</totfact>
</mgrwt>
</event>
<event>
12    1  0.3203156E-008  0.4621877E+03  0.7818608E-02  0.1024149E+00
         -2   -1    0    0    0  501 -0.00000000000E+00  0.00000000000E+00  0.20346036001E+03  0.20346036001E+03  0.00000000000E+00 0. -1.
          2   -1    0    0  501    0  0.00000000000E+00 -0.00000000000E+00 -0.20604202973E+04  0.20604202973E+04  0.00000000000E+00 0.  1.
         23    2    1    2    0    0 -0.24634563615E+02 -0.30764291263E+03 -0.14293401822E+04  0.14651161772E+04  0.91110004666E+02 0.  0.
    5000000    2    1    2    0    0  0.24634563615E+02  0.30764291263E+03 -0.42761975513E+03  0.79876448010E+03  0.59992917605E+03 0.  0.
         23    2    4    4    0    0 -0.13269130041E+03 -0.96371458552E+02 -0.26912016246E+03  0.32855387657E+03  0.92884599037E+02 0.  0.
         23    2    4    4    0    0  0.15732586402E+03  0.40401437118E+03 -0.15849959267E+03  0.47021060353E+03  0.89425114958E+02 0.  0.
          5    1    3    3  502    0  0.46105002740E+01 -0.28345445214E+03 -0.12649631795E+04  0.12963493428E+04  0.47000000000E+01 0. -1.
         -5    1    3    3    0  502 -0.29245063889E+02 -0.24188460486E+02 -0.16437700270E+03  0.16876683442E+03  0.47000000000E+01 0.  1.
         13    1    5    5    0    0 -0.89563457433E+02 -0.51019808086E+02 -0.23648343791E+03  0.25797102576E+03  0.00000000000E+00 0. -1.
        -13    1    5    5    0    0 -0.43127842973E+02 -0.45351650466E+02 -0.32636724555E+02  0.70582850815E+02  0.00000000000E+00 0.  1.
          3    1    6    6  503    0  0.92177691359E+02  0.30326620094E+03 -0.14787839535E+03  0.34976439961E+03  0.00000000000E+00 0. -1.
         -3    1    6    6    0  503  0.65148172662E+02  0.10074817024E+03 -0.10621197314E+02  0.12044620392E+03  0.00000000000E+00 0.  1.
<mgrwt>
<rscale>  0 0.46218769E+03</rscale>
<asrwt>0</asrwt>
<pdfrwt beam="1">  1        2 0.31698774E+00 0.46218769E+03</pdfrwt>
<pdfrwt beam="2">  1       -2 0.31301593E-01 0.46218769E+03</pdfrwt>
<totfact> 0.62938808E+01</totfact>
</mgrwt>
</event>
<event>
12    1  0.3203156E-008  0.9257693E+03  0.7818608E-02  0.9393930E-01
         -1   -1    0    0    0  501 -0.00000000000E+00  0.00000000000E+00  0.81633693305E+03  0.81633693305E+03  0.00000000000E+00 0.  1.
          1   -1    0    0  501    0  0.00000000000E+00 -0.00000000000E+00 -0.14466400374E+04  0.14466400374E+04  0.00000000000E+00 0. -1.
         23    2    1    2    0    0 -0.44476113900E+03  0.70490071533E+03  0.28675659334E+03  0.88620407849E+03  0.91819582209E+02 0.  0.
    5000000    2    1    2    0    0  0.44476113900E+03 -0.70490071533E+03 -0.91705969767E+03  0.13767728920E+04  0.59983965998E+03 0.  0.
         23    2    4    4    0    0  0.21537195475E+03  0.43698247663E+02 -0.20350931814E+03  0.31344729240E+03  0.92404257500E+02 0.  0.
         23    2    4    4    0    0  0.22938918425E+03 -0.74859896299E+03 -0.71355037954E+03  0.10633255995E+04  0.92126984510E+02 0.  0.
          5    1    3    3  502    0 -0.38937129612E+03  0.56402820705E+03  0.21278978538E+03  0.71766246060E+03  0.47000000000E+01 0. -1.
         -5    1    3    3    0  502 -0.55389842883E+02  0.14087250828E+03  0.73966807955E+02  0.16854161789E+03  0.47000000000E+01 0.  1.
         13    1    5    5    0    0  0.37193620363E+02  0.33515905593E+02 -0.11629913968E+02  0.51399768699E+02  0.00000000000E+00 0.  1.
        -13    1    5    5    0    0  0.17817833439E+03  0.10182342070E+02 -0.19187940417E+03  0.26204752370E+03  0.00000000000E+00 0. -1.
          3    1    6    6  503    0  0.16801005935E+03 -0.42893618851E+03 -0.45677678362E+03  0.64873620518E+03  0.00000000000E+00 0. -1.
         -3    1    6    6    0  503  0.61379124899E+02 -0.31966277448E+03 -0.25677359591E+03  0.41458939437E+03  0.00000000000E+00 0.  1.
<mgrwt>
<rscale>  0 0.92576927E+03</rscale>
<asrwt>0</asrwt>
<pdfrwt beam="1">  1        1 0.22256000E+00 0.92576927E+03</pdfrwt>
<pdfrwt beam="2">  1       -1 0.12559030E+00 0.92576927E+03</pdfrwt>
<totfact> 0.39994893E+00</totfact>
</mgrwt>
</event>
<event>
12    1  0.3203156E-008  0.6910198E+03  0.7818608E-02  0.9732714E-01
         -1   -1    0    0    0  501 -0.00000000000E+00  0.00000000000E+00  0.34486451404E+03  0.34486451404E+03  0.00000000000E+00 0.  1.
          1   -1    0    0  501    0  0.00000000000E+00 -0.00000000000E+00 -0.24476109625E+04  0.24476109625E+04  0.00000000000E+00 0. -1.
         23    2    1    2    0    0  0.54951851046E+03 -0.27860377512E+03 -0.17597015655E+04  0.18665743315E+04  0.89215910253E+02 0.  0.
    5000000    2    1    2    0    0 -0.54951851046E+03  0.27860377512E+03 -0.34304488295E+03  0.92590114501E+03  0.60001873451E+03 0.  0.
         23    2    4    4    0    0 -0.16914290658E+03 -0.10436337689E+03 -0.30698820073E+03  0.37716669955E+03  0.92260102887E+02 0.  0.
         23    2    4    4    0    0 -0.38037560389E+03  0.38296715201E+03 -0.36056682226E+02  0.54873444546E+03  0.91978082970E+02 0.  0.
          5    1    3    3  502    0  0.18120210446E+03 -0.50446457619E+02 -0.58497577987E+03  0.61448987037E+03  0.47000000000E+01 0. -1.
         -5    1    3    3    0  502  0.36831640600E+03 -0.22815731750E+03 -0.11747257856E+04  0.12520844612E+04  0.47000000000E+01 0.  1.
         11    1    5    5    0    0 -0.75240461712E+02  0.26136726883E+01 -0.12773301301E+03  0.14826894812E+03  0.00000000000E+00 0.  1.
        -11    1    5    5    0    0 -0.93902444865E+02 -0.10697704958E+03 -0.17925518772E+03  0.22889775143E+03  0.00000000000E+00 0. -1.
          2    1    6    6  503    0 -0.17389910347E+03  0.13405890998E+03  0.20109904631E+02  0.22049285203E+03  0.00000000000E+00 0. -1.
         -2    1    6    6    0  503 -0.20647650041E+03  0.24890824203E+03 -0.56166586856E+02  0.32824159342E+03  0.00000000000E+00 0.  1.
<mgrwt>
<rscale>  0 0.69101983E+03</rscale>
<asrwt>0</asrwt>
<pdfrwt beam="1">  1        1 0.37655553E+00 0.69101983E+03</pdfrwt>
<pdfrwt beam="2">  1       -1 0.53056080E-01 0.69101983E+03</pdfrwt>
<totfact> 0.56383986E+00</totfact>
</mgrwt>
</event>
<event>
12    1  0.3203156E-008  0.4338825E+03  0.7818608E-02  0.1032640E+00
          1   -1    0    0  501    0  0.00000000000E+00  0.00000000000E+00  0.47515124450E+03  0.47515124450E+03  0.00000000000E+00 0. -1.
         -1   -1    0    0    0  501 -0.00000000000E+00 -0.00000000000E+00 -0.64075478690E+03  0.64075478690E+03  0.00000000000E+00 0.  1.
         23    2    1    2    0    0  0.18851825604E+03  0.33120585131E+03 -0.82219949792E+02  0.40024952030E+03  0.90571019375E+02 0.  0.
    5000000    2    1    2    0    0 -0.18851825604E+03 -0.33120585131E+03 -0.83383592603E+02  0.71565651111E+03  0.59997914095E+03 0.  0.
         23    2    4    4    0    0 -0.24143172683E+03 -0.23817599535E+03 -0.29837410350E+03  0.45984057297E+03  0.86076497568E+02 0.  0.
         23    2    4    4    0    0  0.52913470797E+02 -0.93029855965E+02  0.21499051089E+03  0.25581593813E+03  0.88127662722E+02 0.  0.
          5    1    3    3  502    0  0.11461328435E+02  0.75441049911E+02  0.65370906596E+01  0.76730291381E+02  0.47000000000E+01 0.  1.
         -5    1    3    3    0  502  0.17705692760E+03  0.25576480140E+03 -0.88757040452E+02  0.32351922891E+03  0.47000000000E+01 0.  1.
         11    1    5    5    0    0 -0.14479364259E+03 -0.87067231695E+02 -0.12300976359E+03  0.20899115701E+03  0.00000000000E+00 0.  1.
        -11    1    5    5    0    0 -0.96638084243E+02 -0.15110876365E+03 -0.17536433990E+03  0.25084941596E+03  0.00000000000E+00 0. -1.
          1    1    6    6  503    0  0.69788552195E+02 -0.50541176421E+02  0.99608726471E+02  0.13170706481E+03  0.00000000000E+00 0. -1.
         -1    1    6    6    0  503 -0.16875081398E+02 -0.42488679544E+02  0.11538178442E+03  0.12410887333E+03  0.00000000000E+00 0.  1.
<mgrwt>
<rscale>  0 0.43388249E+03</rscale>
<asrwt>0</asrwt>
<pdfrwt beam="1">  1        1 0.73100192E-01 0.43388249E+03</pdfrwt>
<pdfrwt beam="2">  1       -1 0.98577658E-01 0.43388249E+03</pdfrwt>
<totfact> 0.49511508E+01</totfact>
</mgrwt>
</event>
<event>
12    1  0.3203156E-008  0.1875171E+04  0.7818608E-02  0.8667315E-01
          1   -1    0    0  501    0  0.00000000000E+00  0.00000000000E+00  0.17870316273E+04  0.17870316273E+04  0.00000000000E+00 0. -1.
         -1   -1    0    0    0  501 -0.00000000000E+00 -0.00000000000E+00 -0.19847479591E+04  0.19847479591E+04  0.00000000000E+00 0.  1.
         23    2    1    2    0    0 -0.16899286930E+04 -0.70606200021E+03  0.51731277139E+01  0.18338743170E+04  0.93197176684E+02 0.  0.
    5000000    2    1    2    0    0  0.16899286930E+04  0.70606200021E+03 -0.20288945950E+03  0.19379052695E+04  0.59994180154E+03 0.  0.
         23    2    4    4    0    0  0.15699641463E+04  0.46239657981E+03 -0.12678550462E+03  0.16440781226E+04  0.91215631231E+02 0.  0.
         23    2    4    4    0    0  0.11996454663E+03  0.24366542040E+03 -0.76103954874E+02  0.29382714683E+03  0.82330132521E+02 0.  0.
          5    1    3    3  502    0 -0.65465865510E+03 -0.22687599764E+03  0.14883587025E+02  0.69303267178E+03  0.47000000000E+01 0. -1.
         -5    1    3    3    0  502 -0.10352700379E+04 -0.47918600257E+03 -0.97104593111E+01  0.11408416452E+04  0.47000000000E+01 0.  1.
         13    1    5    5    0    0  0.74358149535E+03  0.22614837268E+03 -0.10538200203E+03  0.78432256951E+03  0.00000000000E+00 0. -1.
        -13    1    5    5    0    0  0.82638265098E+03  0.23624820713E+03 -0.21403502592E+02  0.85975555313E+03  0.00000000000E+00 0.  1.
          4    1    6    6  503    0  0.12715670252E+03  0.24063226661E+03 -0.81770588213E+02  0.28418153323E+03  0.00000000000E+00 0. -1.
         -4    1    6    6    0  503 -0.71921558943E+01  0.30331537826E+01  0.56666333396E+01  0.96456135980E+01  0.00000000000E+00 0.  1.
<mgrwt>
<rscale>  0 0.18751708E+04</rscale>
<asrwt>0</asrwt>
<pdfrwt beam="1">  1        1 0.27492794E+00 0.18751708E+04</pdfrwt>
<pdfrwt beam="2">  1       -1 0.30534584E+00 0.18751708E+04</pdfrwt>
<totfact> 0.11475578E-01</totfact>
</mgrwt>
</event>
<event>
12    1  0.3203156E-008  0.7568580E+03  0.7818608E-02  0.9624652E-01
          2   -1    0    0  501    0  0.00000000000E+00  0.00000000000E+00  0.22349773233E+04  0.22349773233E+04  0.00000000000E+00 0. -1.
         -2   -1    0    0    0  501 -0.00000000000E+00 -0.00000000000E+00 -0.33689925653E+03  0.33689925653E+03  0.00000000000E+00 0.  1.
         23    2    1    2    0    0 -0.33679097760E+03  0.65204505461E+03  0.11361531090E+04  0.13556618390E+04  0.91565379704E+02 0.  0.
    5000000    2    1    2    0    0  0.33679097760E+03 -0.65204505461E+03  0.76192495776E+03  0.12162147408E+04  0.60004811367E+03 0.  0.
         23    2    4    4    0    0  0.28296568082E+03 -0.33097829781E+03  0.76908784049E+02  0.45111390879E+03  0.89289347080E+02 0.  0.
         23    2    4    4    0    0  0.53825296774E+02 -0.32106675681E+03  0.68501617371E+03  0.76510083203E+03  0.10075266763E+03 0.  0.
          5    1    3    3  502    0 -0.17834423363E+03  0.34240297326E+03  0.68055124893E+03  0.78244396233E+03  0.47000000000E+01 0. -1.
         -5    1    3    3    0  502 -0.15844674397E+03  0.30964208136E+03  0.45560186004E+03  0.57321787663E+03  0.47000000000E+01 0.  1.
         13    1    5    5    0    0  0.18309649905E+03 -0.14733752526E+03  0.50863862352E+02  0.24045749480E+03  0.00000000000E+00 0.  1.
        -13    1    5    5    0    0  0.99869181774E+02 -0.18364077255E+03  0.26044921697E+02  0.21065641399E+03  0.00000000000E+00 0. -1.
          4    1    6    6  503    0 -0.21905774202E+02 -0.59815186119E+02  0.18831957047E+03  0.19880135828E+03  0.00000000000E+00 0. -1.
         -4    1    6    6    0  503  0.75731070976E+02 -0.26125157069E+03  0.49669660324E+03  0.56629947375E+03  0.00000000000E+00 0.  1.
<mgrwt>
<rscale>  0 0.75685798E+03</rscale>
<asrwt>0</asrwt>
<pdfrwt beam="1">  1        2 0.34384266E+00 0.75685798E+03</pdfrwt>
<pdfrwt beam="2">  1       -2 0.51830656E-01 0.75685798E+03</pdfrwt>
<totfact> 0.18018076E+01</totfact>
</mgrwt>
</event>
<event>
12    1  0.3203156E-008  0.1201545E+04  0.7818608E-02  0.9111505E-01
         -1   -1    0    0    0  501 -0.00000000000E+00  0.00000000000E+00  0.11276835646E+04  0.11276835646E+04  0.00000000000E+00 0.  1.
          1   -1    0    0  501    0  0.00000000000E+00 -0.00000000000E+00 -0.14242896325E+04  0.14242896325E+04  0.00000000000E+00 0. -1.
         23    2    1    2    0    0  0.82449350482E+03  0.86354145558E+03 -0.17621413018E+03  0.12103021285E+04  0.91029872167E+02 0.  0.
    5000000    2    1    2    0    0 -0.82449350482E+03 -0.86354145558E+03 -0.12039193775E+03  0.13416710686E+04  0.60007803879E+03 0.  0.
         23    2    4    4    0    0 -0.47136336126E+03 -0.40576426546E+03 -0.34258615143E+03  0.71562117886E+03  0.88996309015E+02 0.  0.
         23    2    4    4    0    0 -0.35313014356E+03 -0.45777719012E+03  0.22219421367E+03  0.62604988974E+03  0.91144620066E+02 0.  0.
          5    1    3    3  502    0  0.30091437385E+03  0.25741144531E+03 -0.73337275467E+02  0.40275371946E+03  0.47000000000E+01 0. -1.
         -5    1    3    3    0  502  0.52357913097E+03  0.60613001027E+03 -0.10287685471E+03  0.80754840906E+03  0.47000000000E+01 0.  1.
         13    1    5    5    0    0 -0.44599486575E+03 -0.35574452795E+03 -0.29601468643E+03  0.64272100014E+03  0.00000000000E+00 0.  1.
        -13    1    5    5    0    0 -0.25368495511E+02 -0.50019737508E+02 -0.46571464995E+02  0.72900178715E+02  0.00000000000E+00 0. -1.
          2    1    6    6  503    0 -0.37209493398E+02 -0.30377519194E+02  0.44958263147E+02  0.65791986568E+02  0.00000000000E+00 0. -1.
         -2    1    6    6    0  503 -0.31592065016E+03 -0.42739967092E+03  0.17723595053E+03  0.56025790317E+03  0.00000000000E+00 0.  1.
<mgrwt>
<rscale>  0 0.12015450E+04</rscale>
<asrwt>0</asrwt>
<pdfrwt beam="1">  1        1 0.21912148E+00 0.12015450E+04</pdfrwt>
<pdfrwt beam="2">  1       -1 0.17348978E+00 0.12015450E+04</pdfrwt>
<totfact> 0.16795018E+00</totfact>
</mgrwt>
</event>
<event>
12    1  0.3203156E-008  0.1600832E+04  0.7818608E-02  0.8820037E-01
          1   -1    0    0  501    0  0.00000000000E+00  0.00000000000E+00  0.21026404087E+04  0.21026404087E+04  0.00000000000E+00 0. -1.
         -1   -1    0    0    0  501 -0.00000000000E+00 -0.00000000000E+00 -0.13123546293E+04  0.13123546293E+04  0.00000000000E+00 0.  1.
         23    2    1    2    0    0  0.13384784141E+04  0.81240249303E+03  0.74834655343E+03  0.17377422213E+04  0.90571452375E+02 0.  0.
    5000000    2    1    2    0    0 -0.13384784141E+04 -0.81240249303E+03  0.41939225962E+02  0.16772528167E+04  0.59991319105E+03 0.  0.
         23    2    4    4    0    0 -0.96594979465E+03 -0.79155365192E+03  0.18717375687E+03  0.12661399365E+04  0.91978986752E+02 0.  0.
         23    2    4    4    0    0 -0.37252861946E+03 -0.20848841110E+02 -0.14523453090E+03  0.41111288017E+03  0.93319262674E+02 0.  0.
          5    1    3    3  502    0  0.44044398868E+03  0.31104331553E+03  0.23444683748E+03  0.58798491554E+03  0.47000000000E+01 0. -1.
         -5    1    3    3    0  502  0.89803442543E+03  0.50135917749E+03  0.51389971596E+03  0.11497573058E+04  0.47000000000E+01 0.  1.
         11    1    5    5    0    0 -0.57976707748E+03 -0.53239919722E+03  0.12081174543E+03  0.79635058057E+03  0.00000000000E+00 0.  1.
        -11    1    5    5    0    0 -0.38618271717E+03 -0.25915445469E+03  0.66362011433E+02  0.46978935598E+03  0.00000000000E+00 0. -1.
          4    1    6    6  503    0 -0.33523196065E+03  0.67722730719E+01 -0.11013834553E+03  0.35292603514E+03  0.00000000000E+00 0. -1.
         -4    1    6    6    0  503 -0.37296658807E+02 -0.27621114182E+02 -0.35096185377E+02  0.58186845032E+02  0.00000000000E+00 0.  1.
<mgrwt>
<rscale>  0 0.16008317E+04</rscale>
<asrwt>0</asrwt>
<pdfrwt beam="1">  1        1 0.32348314E+00 0.16008317E+04</pdfrwt>
<pdfrwt beam="2">  1       -1 0.20190071E+00 0.16008317E+04</pdfrwt>
<totfact> 0.34644495E-01</totfact>
</mgrwt>
</event>
<event>
12    1  0.3203156E-008  0.4567166E+03  0.7818608E-02  0.1025738E+00
          2   -1    0    0  501    0  0.00000000000E+00  0.00000000000E+00  0.10118441782E+04  0.10118441782E+04  0.00000000000E+00 0. -1.
         -2   -1    0    0    0  501 -0.00000000000E+00 -0.00000000000E+00 -0.22564468551E+03  0.22564468551E+03  0.00000000000E+00 0.  1.
         23    2    1    2    0    0 -0.25767016749E+03 -0.90282039925E+02  0.16435605862E+03  0.33127310583E+03  0.90466539100E+02 0.  0.
    5000000    2    1    2    0    0  0.25767016749E+03  0.90282039925E+02  0.62184343411E+03  0.90621575790E+03  0.59999415112E+03 0.  0.
         23    2    4    4    0    0 -0.67889119076E+01  0.29157923554E+03  0.21868654394E+03  0.37605331685E+03  0.92345832029E+02 0.  0.
         23    2    4    4    0    0  0.26445907940E+03 -0.20129719561E+03  0.40315689016E+03  0.53016244105E+03  0.89875303487E+02 0.  0.
          5    1    3    3  502    0 -0.20106523082E+03 -0.34894024038E+02  0.14262513355E+03  0.24901573982E+03  0.47000000000E+01 0. -1.
         -5    1    3    3    0  502 -0.56604936670E+02 -0.55388015887E+02  0.21730925073E+02  0.82257366015E+02  0.47000000000E+01 0.  1.
         11    1    5    5    0    0  0.26230684597E+02  0.11371699756E+03  0.44428771268E+02  0.12487401677E+03  0.00000000000E+00 0. -1.
        -11    1    5    5    0    0 -0.33019596505E+02  0.17786223798E+03  0.17425777268E+03  0.25117930008E+03  0.00000000000E+00 0.  1.
          3    1    6    6  503    0  0.17496791364E+03 -0.13505741687E+03  0.19802592096E+03  0.29676344456E+03  0.00000000000E+00 0. -1.
         -3    1    6    6    0  503  0.89491165759E+02 -0.66239778744E+02  0.20513096920E+03  0.23339899649E+03  0.00000000000E+00 0.  1.
<mgrwt>
<rscale>  0 0.45671656E+03</rscale>
<asrwt>0</asrwt>
<pdfrwt beam="1">  1        2 0.15566833E+00 0.45671656E+03</pdfrwt>
<pdfrwt beam="2">  1       -2 0.34714568E-01 0.45671656E+03</pdfrwt>
<totfact> 0.19891625E+02</totfact>
</mgrwt>
</event>
<event>
12    1  0.3203156E-008  0.6484496E+03  0.7818608E-02  0.9809693E-01
          2   -1    0    0  501    0  0.00000000000E+00  0.00000000000E+00  0.83773545185E+03  0.83773545185E+03  0.00000000000E+00 0.  1.
         -2   -1    0    0    0  501 -0.00000000000E+00 -0.00000000000E+00 -0.75442093078E+03  0.75442093078E+03  0.00000000000E+00 0. -1.
         23    2    1    2    0    0  0.12993543742E+03 -0.50373757920E+03  0.47157839865E+03  0.70805301002E+03  0.91203685949E+02 0.  0.
    5000000    2    1    2    0    0 -0.12993543742E+03  0.50373757920E+03 -0.38826387759E+03  0.88410337261E+03  0.60021260252E+03 0.  0.
         23    2    4    4    0    0 -0.34551975742E+03  0.21815838997E+03 -0.14498217321E+03  0.44262845027E+03  0.89011957366E+02 0.  0.
         23    2    4    4    0    0  0.21558432000E+03  0.28557918922E+03 -0.24328170438E+03  0.44147492235E+03  0.87647287608E+02 0.  0.
          5    1    3    3  502    0  0.35824158068E+02 -0.97770459670E+02  0.51301734947E+02  0.11617396909E+03  0.47000000000E+01 0. -1.
         -5    1    3    3    0  502  0.94111279351E+02 -0.40596711953E+03  0.42027666371E+03  0.59187904093E+03  0.47000000000E+01 0.  1.
         13    1    5    5    0    0 -0.46186310067E+02  0.68152442905E+02 -0.41423744453E+02  0.92162125171E+02  0.00000000000E+00 0. -1.
        -13    1    5    5    0    0 -0.29933344735E+03  0.15000594707E+03 -0.10355842876E+03  0.35046632509E+03  0.00000000000E+00 0.  1.
          3    1    6    6  503    0  0.97264284880E+02  0.15045265750E+03 -0.17164129142E+03  0.24810698536E+03  0.00000000000E+00 0. -1.
         -3    1    6    6    0  503  0.11832003512E+03  0.13512653172E+03 -0.71640412964E+02  0.19336793699E+03  0.00000000000E+00 0.  1.
<mgrwt>
<rscale>  0 0.64844962E+03</rscale>
<asrwt>0</asrwt>
<pdfrwt beam="1">  1        2 0.12888238E+00 0.64844962E+03</pdfrwt>
<pdfrwt beam="2">  1       -2 0.11606476E+00 0.64844962E+03</pdfrwt>
<totfact> 0.19150641E+01</totfact>
</mgrwt>
</event>
<event>
12    1  0.3203156E-008  0.2037523E+04  0.7818608E-02  0.8589276E-01
          2   -1    0    0  501    0  0.00000000000E+00  0.00000000000E+00  0.36489212544E+04  0.36489212544E+04  0.00000000000E+00 0. -1.
         -2   -1    0    0    0  501 -0.00000000000E+00 -0.00000000000E+00 -0.14108181800E+04  0.14108181800E+04  0.00000000000E+00 0.  1.
         23    2    1    2    0    0 -0.83613568868E+03 -0.18390339856E+04  0.21484678559E+04  0.29504195667E+04  0.88840312763E+02 0.  0.
    5000000    2    1    2    0    0  0.83613568868E+03  0.18390339856E+04  0.89635218416E+02  0.21093198677E+04  0.60002245110E+03 0.  0.
         23    2    4    4    0    0  0.44216202726E+03  0.13655596413E+04  0.26452394143E+03  0.14623433391E+04  0.90635167703E+02 0.  0.
         23    2    4    4    0    0  0.39397366141E+03  0.47347434433E+03 -0.17488872301E+03  0.64697652860E+03  0.92732747647E+02 0.  0.
          5    1    3    3  502    0 -0.54792015091E+03 -0.12276792632E+04  0.13698114347E+04  0.19193275702E+04  0.47000000000E+01 0. -1.
         -5    1    3    3    0  502 -0.28821553776E+03 -0.61135472240E+03  0.77865642127E+03  0.10310919965E+04  0.47000000000E+01 0.  1.
         11    1    5    5    0    0  0.15900602206E+03  0.62407756360E+03  0.99408891366E+02  0.65164242352E+03  0.00000000000E+00 0.  1.
        -11    1    5    5    0    0  0.28315600520E+03  0.74148207768E+03  0.16511505006E+03  0.81070091560E+03  0.00000000000E+00 0. -1.
          1    1    6    6  503    0  0.24144636515E+03  0.26224572418E+03 -0.14460155176E+03  0.38468009549E+03  0.00000000000E+00 0. -1.
         -1    1    6    6    0  503  0.15252729627E+03  0.21122862016E+03 -0.30287171256E+02  0.26229643311E+03  0.00000000000E+00 0.  1.
<mgrwt>
<rscale>  0 0.20375225E+04</rscale>
<asrwt>0</asrwt>
<pdfrwt beam="1">  1        2 0.56137250E+00 0.20375225E+04</pdfrwt>
<pdfrwt beam="2">  1       -2 0.21704895E+00 0.20375225E+04</pdfrwt>
<totfact> 0.58361566E-02</totfact>
</mgrwt>
</event>
<event>
12    1  0.3203156E-008  0.7303862E+03  0.7818608E-02  0.9666634E-01
         -2   -1    0    0    0  501 -0.00000000000E+00  0.00000000000E+00  0.28006661776E+03  0.28006661776E+03  0.00000000000E+00 0. -1.
          2   -1    0    0  501    0  0.00000000000E+00 -0.00000000000E+00 -0.19664518923E+04  0.19664518923E+04  0.00000000000E+00 0.  1.
         23    2    1    2    0    0  0.17656525996E+03 -0.58464765024E+03 -0.83984642191E+03  0.10425357185E+04  0.92469162522E+02 0.  0.
    5000000    2    1    2    0    0 -0.17656525996E+03  0.58464765024E+03 -0.84653885260E+03  0.12039827915E+04  0.59996530515E+03 0.  0.
         23    2    4    4    0    0 -0.37334389212E+03  0.48242364672E+03 -0.59698180239E+03  0.85837681593E+03  0.91133139051E+02 0.  0.
         23    2    4    4    0    0  0.19677863216E+03  0.10222400352E+03 -0.24955705021E+03  0.34560597560E+03  0.89404653662E+02 0.  0.
          5    1    3    3  502    0  0.81915310229E+02 -0.32479408102E+03 -0.53196130702E+03  0.62865430507E+03  0.47000000000E+01 0. -1.
         -5    1    3    3    0  502  0.94649949729E+02 -0.25985356922E+03 -0.30788511489E+03  0.41388141344E+03  0.47000000000E+01 0.  1.
         13    1    5    5    0    0 -0.16029482097E+03  0.25945276379E+03 -0.34195794163E+03  0.45819799227E+03  0.00000000000E+00 0. -1.
        -13    1    5    5    0    0 -0.21304907114E+03  0.22297088293E+03 -0.25502386076E+03  0.40017882366E+03  0.00000000000E+00 0.  1.
          1    1    6    6  503    0  0.12685720879E+03  0.10667700867E+03 -0.14789178617E+03  0.22213670570E+03  0.00000000000E+00 0. -1.
         -1    1    6    6    0  503  0.69921423362E+02 -0.44530051496E+01 -0.10166526403E+03  0.12346926991E+03  0.00000000000E+00 0.  1.
<mgrwt>
<rscale>  0 0.73038624E+03</rscale>
<asrwt>0</asrwt>
<pdfrwt beam="1">  1        2 0.30253105E+00 0.73038624E+03</pdfrwt>
<pdfrwt beam="2">  1       -2 0.43087174E-01 0.73038624E+03</pdfrwt>
<totfact> 0.36812731E+01</totfact>
</mgrwt>
</event>
<event>
12    1  0.3203156E-008  0.4217137E+03  0.7818608E-02  0.1036510E+00
          1   -1    0    0  501    0  0.00000000000E+00  0.00000000000E+00  0.91440363200E+03  0.91440363200E+03  0.00000000000E+00 0. -1.
         -1   -1    0    0    0  501 -0.00000000000E+00 -0.00000000000E+00 -0.36290921165E+03  0.36290921165E+03  0.00000000000E+00 0.  1.
         23    2    1    2    0    0  0.12588076231E+03  0.22237771169E+03  0.56309194666E+03  0.62510483872E+03  0.91573500605E+02 0.  0.
    5000000    2    1    2    0    0 -0.12588076231E+03 -0.22237771169E+03 -0.11597526314E+02  0.65220800493E+03  0.59995246986E+03 0.  0.
         23    2    4    4    0    0 -0.31730559396E+03 -0.17418245066E+03  0.12760140677E+03  0.39425626990E+03  0.90186036969E+02 0.  0.
         23    2    4    4    0    0  0.19142483165E+03 -0.48195261031E+02 -0.13919893308E+03  0.25795173503E+03  0.90534552936E+02 0.  0.
          5    1    3    3  502    0  0.33071655630E+02  0.98581695943E+02  0.13904624124E+03  0.17368947114E+03  0.47000000000E+01 0. -1.
         -5    1    3    3    0  502  0.92809106683E+02  0.12379601575E+03  0.42404570543E+03  0.45141536758E+03  0.47000000000E+01 0.  1.
         13    1    5    5    0    0 -0.13624248211E+03 -0.11794071662E+03  0.88120819039E+02  0.20059238599E+03  0.00000000000E+00 0. -1.
        -13    1    5    5    0    0 -0.18106311186E+03 -0.56241734036E+02  0.39480587729E+02  0.19366388391E+03  0.00000000000E+00 0.  1.
          1    1    6    6  503    0  0.11465338413E+03  0.14584344812E+02 -0.55651046847E+02  0.12827759205E+03  0.00000000000E+00 0. -1.
         -1    1    6    6    0  503  0.76771447523E+02 -0.62779605843E+02 -0.83547886235E+02  0.12967414298E+03  0.00000000000E+00 0.  1.
<mgrwt>
<rscale>  0 0.42171368E+03</rscale>
<asrwt>0</asrwt>
<pdfrwt beam="1">  1        1 0.14067748E+00 0.42171368E+03</pdfrwt>
<pdfrwt beam="2">  1       -1 0.55832187E-01 0.42171368E+03</pdfrwt>
<totfact> 0.61140160E+01</totfact>
</mgrwt>
</event>
<event>
12    1  0.3203156E-008  0.6624144E+03  0.7818608E-02  0.9783759E-01
          1   -1    0    0  501    0  0.00000000000E+00  0.00000000000E+00  0.95568697975E+03  0.95568697975E+03  0.00000000000E+00 0. -1.
         -1   -1    0    0    0  501 -0.00000000000E+00 -0.00000000000E+00 -0.10972418738E+04  0.10972418738E+04  0.00000000000E+00 0.  1.
         23    2    1    2    0    0 -0.49556434950E+03  0.25270158292E+03 -0.81652932002E+03  0.99224231522E+03  0.91556360592E+02 0.  0.
    5000000    2    1    2    0    0  0.49556434950E+03 -0.25270158292E+03  0.67497442594E+03  0.10606865384E+04  0.60001945176E+03 0.  0.
         23    2    4    4    0    0  0.60326443986E+03 -0.24485217277E+03  0.45327565879E+03  0.79822150050E+03  0.88420416731E+02 0.  0.
         23    2    4    4    0    0 -0.10770009037E+03 -0.78494101551E+01  0.22169876715E+03  0.26246503786E+03  0.89870073104E+02 0.  0.
          5    1    3    3  502    0 -0.92130898067E+02  0.71967715566E+02 -0.22682437307E+03  0.25522311941E+03  0.47000000000E+01 0. -1.
         -5    1    3    3    0  502 -0.40343345143E+03  0.18073386736E+03 -0.58970494695E+03  0.73701919582E+03  0.47000000000E+01 0.  1.
         13    1    5    5    0    0  0.51140809781E+03 -0.17257588659E+03  0.36155959165E+03  0.64965068879E+03  0.00000000000E+00 0. -1.
        -13    1    5    5    0    0  0.91856342057E+02 -0.72276286176E+02  0.91716067140E+02  0.14857081171E+03  0.00000000000E+00 0.  1.
          4    1    6    6  503    0 -0.69857419225E+02 -0.12555743364E+02  0.50596847488E+02  0.87165054282E+02  0.00000000000E+00 0. -1.
         -4    1    6    6    0  503 -0.37842671141E+02  0.47063332088E+01  0.17110191966E+03  0.17529998358E+03  0.00000000000E+00 0.  1.
<mgrwt>
<rscale>  0 0.66241444E+03</rscale>
<asrwt>0</asrwt>
<pdfrwt beam="1">  1        1 0.14702877E+00 0.66241444E+03</pdfrwt>
<pdfrwt beam="2">  1       -1 0.16880644E+00 0.66241444E+03</pdfrwt>
<totfact> 0.43368030E+00</totfact>
</mgrwt>
</event>
<event>
12    1  0.3203156E-008  0.1652191E+04  0.7818608E-02  0.8789111E-01
         -1   -1    0    0    0  501 -0.00000000000E+00  0.00000000000E+00  0.12338299772E+04  0.12338299772E+04  0.00000000000E+00 0.  1.
          1   -1    0    0  501    0  0.00000000000E+00 -0.00000000000E+00 -0.23418415920E+04  0.23418415920E+04  0.00000000000E+00 0. -1.
         23    2    1    2    0    0  0.15424877454E+04  0.56774725969E+03 -0.62007620272E+03  0.17591196944E+04  0.91663549874E+02 0.  0.
    5000000    2    1    2    0    0 -0.15424877454E+04 -0.56774725969E+03 -0.48793541208E+03  0.18165518749E+04  0.60014527587E+03 0.  0.
         23    2    4    4    0    0 -0.55288398663E+03 -0.29079567255E+03  0.83269070837E+02  0.63700054607E+03  0.92699146106E+02 0.  0.
         23    2    4    4    0    0 -0.98960375878E+03 -0.27695158714E+03 -0.57120448292E+03  0.11795513288E+04  0.95126205603E+02 0.  0.
          5    1    3    3  502    0  0.47871460782E+03  0.14747700374E+03 -0.22338762426E+03  0.54848998445E+03  0.47000000000E+01 0. -1.
         -5    1    3    3    0  502  0.10637731376E+04  0.42027025595E+03 -0.39668857846E+03  0.12106297099E+04  0.47000000000E+01 0.  1.
         13    1    5    5    0    0 -0.15449109070E+03 -0.11277016372E+03  0.58163607715E+02  0.19991901408E+03  0.00000000000E+00 0.  1.
        -13    1    5    5    0    0 -0.39839289593E+03 -0.17802550883E+03  0.25105463122E+02  0.43708153199E+03  0.00000000000E+00 0. -1.
          1    1    6    6  503    0 -0.54570457127E+03 -0.10347870983E+03 -0.30794234249E+03  0.63508252124E+03  0.00000000000E+00 0. -1.
         -1    1    6    6    0  503 -0.44389918751E+03 -0.17347287731E+03 -0.26326214043E+03  0.54446880757E+03  0.00000000000E+00 0.  1.
<mgrwt>
<rscale>  0 0.16521913E+04</rscale>
<asrwt>0</asrwt>
<pdfrwt beam="1">  1        1 0.36028332E+00 0.16521913E+04</pdfrwt>
<pdfrwt beam="2">  1       -1 0.18982000E+00 0.16521913E+04</pdfrwt>
<totfact> 0.28715754E-01</totfact>
</mgrwt>
</event>
<event>
12    1  0.3203156E-008  0.6788236E+03  0.7818608E-02  0.9754148E-01
          1   -1    0    0  501    0  0.00000000000E+00  0.00000000000E+00  0.15380429807E+04  0.15380429807E+04  0.00000000000E+00 0. -1.
         -1   -1    0    0    0  501 -0.00000000000E+00 -0.00000000000E+00 -0.63019644155E+03  0.63019644155E+03  0.00000000000E+00 0.  1.
         23    2    1    2    0    0 -0.16593161548E+03  0.63315228072E+03  0.10777874260E+04  0.12642066925E+04  0.90430714415E+02 0.  0.
    5000000    2    1    2    0    0  0.16593161548E+03 -0.63315228072E+03 -0.16994088687E+03  0.90403272974E+03  0.59998346629E+03 0.  0.
         23    2    4    4    0    0 -0.43467000946E+02 -0.88406345815E+02  0.17452499288E+03  0.22030600229E+03  0.91491526129E+02 0.  0.
         23    2    4    4    0    0  0.20939861643E+03 -0.54474593491E+03 -0.34446587975E+03  0.68372672745E+03  0.90717040080E+02 0.  0.
          5    1    3    3  502    0 -0.38770723277E+02  0.30468482252E+03  0.46236024633E+03  0.55509917803E+03  0.47000000000E+01 0. -1.
         -5    1    3    3    0  502 -0.12716089220E+03  0.32846745821E+03  0.61542717968E+03  0.70910751448E+03  0.47000000000E+01 0.  1.
         11    1    5    5    0    0 -0.51359887877E+02 -0.64266950942E+02  0.17660232541E+03  0.19482417819E+03  0.00000000000E+00 0. -1.
        -11    1    5    5    0    0  0.78928869315E+01 -0.24139394874E+02 -0.20773325332E+01  0.25481824099E+02  0.00000000000E+00 0.  1.
          4    1    6    6  503    0  0.89921589316E+02 -0.12402146301E+03 -0.84951314358E+02  0.17516832283E+03  0.00000000000E+00 0.  1.
         -4    1    6    6    0  503  0.11947702711E+03 -0.42072447189E+03 -0.25951456539E+03  0.50855840462E+03  0.00000000000E+00 0. -1.
<mgrwt>
<rscale>  0 0.67882358E+03</rscale>
<asrwt>0</asrwt>
<pdfrwt beam="1">  1        1 0.23662200E+00 0.67882358E+03</pdfrwt>
<pdfrwt beam="2">  1       -1 0.96953299E-01 0.67882358E+03</pdfrwt>
<totfact> 0.66345933E+00</totfact>
</mgrwt>
</event>
<event>
12    1  0.3203156E-008  0.1037315E+04  0.7818608E-02  0.9268540E-01
          2   -1    0    0  501    0  0.00000000000E+00  0.00000000000E+00  0.84327079424E+03  0.84327079424E+03  0.00000000000E+00 0. -1.
         -2   -1    0    0    0  501 -0.00000000000E+00 -0.00000000000E+00 -0.15009573641E+04  0.15009573641E+04  0.00000000000E+00 0.  1.
         23    2    1    2    0    0 -0.31236326912E+03  0.97645244307E+03 -0.10688736427E+03  0.10349062113E+04  0.92605464386E+02 0.  0.
    5000000    2    1    2    0    0  0.31236326912E+03 -0.97645244307E+03 -0.55079920562E+03  0.13093219471E+04  0.59992833801E+03 0.  0.
         23    2    4    4    0    0  0.31345748845E+03 -0.72891406214E+03 -0.64742834220E+03  0.10282400949E+04  0.92427958128E+02 0.  0.
         23    2    4    4    0    0 -0.10942193369E+01 -0.24753838093E+03  0.96629136582E+02  0.28108185218E+03  0.91615338444E+02 0.  0.
          5    1    3    3  502    0 -0.29356233515E+03  0.80578390735E+03 -0.89034684430E+02  0.86221564298E+03  0.47000000000E+01 0. -1.
         -5    1    3    3    0  502 -0.18800933962E+02  0.17066853572E+03 -0.17852679835E+02  0.17269056830E+03  0.47000000000E+01 0.  1.
         13    1    5    5    0    0  0.23648011803E+03 -0.55005410683E+03 -0.53765409256E+03  0.80470758038E+03  0.00000000000E+00 0. -1.
        -13    1    5    5    0    0  0.76977370424E+02 -0.17885995531E+03 -0.10977424964E+03  0.22353251453E+03  0.00000000000E+00 0.  1.
          1    1    6    6  503    0  0.18624718669E+02 -0.19135792241E+03  0.10792014700E+03  0.22048014138E+03  0.00000000000E+00 0. -1.
         -1    1    6    6    0  503 -0.19718938006E+02 -0.56180458519E+02 -0.11291010416E+02  0.60601710798E+02  0.00000000000E+00 0.  1.
<mgrwt>
<rscale>  0 0.10373148E+04</rscale>
<asrwt>0</asrwt>
<pdfrwt beam="1">  1        2 0.12973397E+00 0.10373148E+04</pdfrwt>
<pdfrwt beam="2">  1       -2 0.23091652E+00 0.10373148E+04</pdfrwt>
<totfact> 0.26829650E+00</totfact>
</mgrwt>
</event>
<event>
12    1  0.3203156E-008  0.5563430E+03  0.7818608E-02  0.1000036E+00
          1   -1    0    0  501    0  0.00000000000E+00  0.00000000000E+00  0.65111995604E+03  0.65111995604E+03  0.00000000000E+00 0. -1.
         -1   -1    0    0    0  501 -0.00000000000E+00 -0.00000000000E+00 -0.10182452686E+04  0.10182452686E+04  0.00000000000E+00 0.  1.
         23    2    1    2    0    0 -0.56612576293E+02 -0.50728739282E+03  0.33250780906E+03  0.61573975843E+03  0.89602032962E+02 0.  0.
    5000000    2    1    2    0    0  0.56612576293E+02  0.50728739282E+03 -0.69963312163E+03  0.10536254662E+04  0.60007885770E+03 0.  0.
         23    2    4    4    0    0  0.53418837867E+02  0.49366324178E+03 -0.77726382879E+03  0.92675373696E+03  0.90423784946E+02 0.  0.
         23    2    4    4    0    0  0.31937384265E+01  0.13624151044E+02  0.77630707160E+02  0.12687172926E+03  0.99368463480E+02 0.  0.
          5    1    3    3  502    0 -0.19492763808E+02 -0.26247122874E+03  0.22281135919E+03  0.34487404301E+03  0.47000000000E+01 0.  1.
         -5    1    3    3    0  502 -0.37119812486E+02 -0.24481616409E+03  0.10969644987E+03  0.27086571543E+03  0.47000000000E+01 0. -1.
         11    1    5    5    0    0  0.72904684420E+02  0.38454176995E+03 -0.56551841351E+03  0.68774889449E+03  0.00000000000E+00 0. -1.
        -11    1    5    5    0    0 -0.19485846554E+02  0.10912147183E+03 -0.21174541528E+03  0.23900484247E+03  0.00000000000E+00 0.  1.
          1    1    6    6  503    0 -0.41272782430E+01 -0.42626943787E+02  0.41384781866E+02  0.59554940454E+02  0.00000000000E+00 0. -1.
         -1    1    6    6    0  503  0.73210166695E+01  0.56251094831E+02  0.36245925293E+02  0.67316788806E+02  0.00000000000E+00 0.  1.
<mgrwt>
<rscale>  0 0.55634301E+03</rscale>
<asrwt>0</asrwt>
<pdfrwt beam="1">  1        1 0.10017230E+00 0.55634301E+03</pdfrwt>
<pdfrwt beam="2">  1       -1 0.15665312E+00 0.55634301E+03</pdfrwt>
<totfact> 0.99931140E+00</totfact>
</mgrwt>
</event>
<event>
12    1  0.3203156E-008  0.4906714E+03  0.7818608E-02  0.1016243E+00
          2   -1    0    0  501    0  0.00000000000E+00  0.00000000000E+00  0.10261599785E+04  0.10261599785E+04  0.00000000000E+00 0. -1.
         -2   -1    0    0    0  501 -0.00000000000E+00 -0.00000000000E+00 -0.51022578673E+03  0.51022578673E+03  0.00000000000E+00 0.  1.
         23    2    1    2    0    0 -0.13458927541E+03  0.29982430438E+03  0.74141798009E+03  0.81623246049E+03  0.92335918303E+02 0.  0.
    5000000    2    1    2    0    0  0.13458927541E+03 -0.29982430438E+03 -0.22548378836E+03  0.72015330469E+03  0.59980743317E+03 0.  0.
         23    2    4    4    0    0  0.33728077855E+03 -0.11325489480E+03 -0.22446793547E+03  0.43050708734E+03  0.91463126025E+02 0.  0.
         23    2    4    4    0    0 -0.20269150314E+03 -0.18656940958E+03 -0.10158528910E+01  0.28964621735E+03  0.89453391398E+02 0.  0.
          5    1    3    3  502    0 -0.11053761799E+03  0.18547459873E+03  0.38916496145E+03  0.44507398147E+03  0.47000000000E+01 0.  1.
         -5    1    3    3    0  502 -0.24051657424E+02  0.11434970565E+03  0.35225301864E+03  0.37115847902E+03  0.47000000000E+01 0. -1.
         13    1    5    5    0    0  0.24023742484E+03 -0.12246329434E+03 -0.15812613095E+03  0.31259422906E+03  0.00000000000E+00 0.  1.
        -13    1    5    5    0    0  0.97043353713E+02  0.92083995306E+01 -0.66341804523E+02  0.11791285829E+03  0.00000000000E+00 0. -1.
          1    1    6    6  503    0 -0.15943711287E+03 -0.11114590552E+03  0.31359290655E+02  0.19686800244E+03  0.00000000000E+00 0. -1.
         -1    1    6    6    0  503 -0.43254390262E+02 -0.75423504057E+02 -0.32375143546E+02  0.92778214904E+02  0.00000000000E+00 0.  1.
<mgrwt>
<rscale>  0 0.49067138E+03</rscale>
<asrwt>0</asrwt>
<pdfrwt beam="1">  1        2 0.15787077E+00 0.49067138E+03</pdfrwt>
<pdfrwt beam="2">  1       -2 0.78496275E-01 0.49067138E+03</pdfrwt>
<totfact> 0.36613238E+01</totfact>
</mgrwt>
</event>
<event>
12    1  0.3203156E-008  0.7314312E+03  0.7818608E-02  0.9664941E-01
          1   -1    0    0  501    0  0.00000000000E+00  0.00000000000E+00  0.10649559022E+04  0.10649559022E+04  0.00000000000E+00 0. -1.
         -1   -1    0    0    0  501 -0.00000000000E+00 -0.00000000000E+00 -0.64221213277E+03  0.64221213277E+03  0.00000000000E+00 0.  1.
         23    2    1    2    0    0  0.59809502490E+03  0.19049295935E+03 -0.16889665093E+03  0.65642838977E+03  0.91470901468E+02 0.  0.
    5000000    2    1    2    0    0 -0.59809502490E+03 -0.19049295935E+03  0.59164042032E+03  0.10507396452E+04  0.60000849042E+03 0.  0.
         23    2    4    4    0    0 -0.49054174471E+03 -0.36163722729E+03  0.30354995038E+03  0.68692311290E+03  0.91148796950E+02 0.  0.
         23    2    4    4    0    0 -0.10755328019E+03  0.17114426794E+03  0.28809046993E+03  0.36381653226E+03  0.92240347750E+02 0.  0.
          5    1    3    3  502    0  0.32327153111E+03  0.14770011820E+03 -0.79345694345E+02  0.36419450428E+03  0.47000000000E+01 0. -1.
         -5    1    3    3    0  502  0.27482349380E+03  0.42792841152E+02 -0.89550956589E+02  0.29223388548E+03  0.47000000000E+01 0.  1.
         11    1    5    5    0    0 -0.91974812662E+02 -0.28965659877E+02  0.59040013232E+02  0.11306678902E+03  0.00000000000E+00 0. -1.
        -11    1    5    5    0    0 -0.39856693205E+03 -0.33267156742E+03  0.24450993715E+03  0.57385632388E+03  0.00000000000E+00 0.  1.
          4    1    6    6  503    0 -0.36011212061E+02  0.10047926902E+02  0.96432575323E+02  0.10342634970E+03  0.00000000000E+00 0. -1.
         -4    1    6    6    0  503 -0.71542068133E+02  0.16109634104E+03  0.19165789461E+03  0.26039018256E+03  0.00000000000E+00 0.  1.
<mgrwt>
<rscale>  0 0.73143118E+03</rscale>
<asrwt>0</asrwt>
<pdfrwt beam="1">  1        1 0.16383937E+00 0.73143118E+03</pdfrwt>
<pdfrwt beam="2">  1       -1 0.98801867E-01 0.73143118E+03</pdfrwt>
<totfact> 0.13657704E+01</totfact>
</mgrwt>
</event>
<event>
12    1  0.3203156E-008  0.6476865E+03  0.7818608E-02  0.9811130E-01
          1   -1    0    0  501    0  0.00000000000E+00  0.00000000000E+00  0.45211320029E+03  0.45211320029E+03  0.00000000000E+00 0. -1.
         -1   -1    0    0    0  501 -0.00000000000E+00 -0.00000000000E+00 -0.99425310372E+03  0.99425310372E+03  0.00000000000E+00 0.  1.
         23    2    1    2    0    0 -0.42962375657E+03  0.31234972916E+03 -0.20068807704E+03  0.57540803088E+03  0.93165295142E+02 0.  0.
    5000000    2    1    2    0    0  0.42962375657E+03 -0.31234972916E+03 -0.34145182639E+03  0.87095827313E+03  0.59986668375E+03 0.  0.
         23    2    4    4    0    0 -0.98502099726E+02  0.35395552261E+02  0.16836099053E+02  0.13854557764E+03  0.89195930861E+02 0.  0.
         23    2    4    4    0    0  0.52812585629E+03 -0.34774528143E+03 -0.35828792544E+03  0.73241269549E+03  0.90633427376E+02 0.  0.
          5    1    3    3  502    0 -0.67577177667E+02  0.56606782509E+02 -0.71720239808E+02  0.11374043065E+03  0.47000000000E+01 0.  1.
         -5    1    3    3    0  502 -0.36204657890E+03  0.25574294665E+03 -0.12896783724E+03  0.46166760023E+03  0.47000000000E+01 0. -1.
         11    1    5    5    0    0 -0.23633337045E+02  0.48439769345E+02 -0.15309940731E+02  0.56029814914E+02  0.00000000000E+00 0.  1.
        -11    1    5    5    0    0 -0.74868762680E+02 -0.13044217083E+02  0.32146039784E+02  0.82515762727E+02  0.00000000000E+00 0. -1.
          4    1    6    6  503    0  0.31019243601E+03 -0.23037293228E+03 -0.17367799055E+03  0.42362138719E+03  0.00000000000E+00 0. -1.
         -4    1    6    6    0  503  0.21793342029E+03 -0.11737234915E+03 -0.18460993489E+03  0.30879130830E+03  0.00000000000E+00 0.  1.
<mgrwt>
<rscale>  0 0.64768647E+03</rscale>
<asrwt>0</asrwt>
<pdfrwt beam="1">  1        1 0.69555877E-01 0.64768647E+03</pdfrwt>
<pdfrwt beam="2">  1       -1 0.15296202E+00 0.64768647E+03</pdfrwt>
<totfact> 0.17496357E+01</totfact>
</mgrwt>
</event>
<event>
12    1  0.3203156E-008  0.3290757E+03  0.7818608E-02  0.1071547E+00
          2   -1    0    0  501    0  0.00000000000E+00  0.00000000000E+00  0.14664969917E+04  0.14664969917E+04  0.00000000000E+00 0. -1.
         -2   -1    0    0    0  501 -0.00000000000E+00 -0.00000000000E+00 -0.96392932030E+02  0.96392932030E+02  0.00000000000E+00 0.  1.
         23    2    1    2    0    0  0.63665223653E+01  0.10560921734E+03  0.22790927114E+03  0.26740102128E+03  0.91470382719E+02 0.  0.
    5000000    2    1    2    0    0 -0.63665223653E+01 -0.10560921734E+03  0.11421947886E+04  0.12954889025E+04  0.60207036304E+03 0.  0.
         23    2    4    4    0    0  0.16426329807E+03  0.13184561380E+03  0.20007687721E+03  0.30477074204E+03  0.92134420487E+02 0.  0.
         23    2    4    4    0    0 -0.17062982043E+03 -0.23745483114E+03  0.94211791135E+03  0.99071816045E+03  0.91853046185E+02 0.  0.
          5    1    3    3  502    0  0.43135248064E+02  0.88757767449E+02  0.15262370612E+03  0.18180945129E+03  0.47000000000E+01 0. -1.
         -5    1    3    3    0  502 -0.36768725699E+02  0.16851449892E+02  0.75285565017E+02  0.85591569988E+02  0.47000000000E+01 0.  1.
         13    1    5    5    0    0  0.10377928951E+03  0.10181169057E+03  0.77316732083E+02  0.16466219459E+03  0.00000000000E+00 0.  1.
        -13    1    5    5    0    0  0.60484008563E+02  0.30033923223E+02  0.12276014512E+03  0.14010854744E+03  0.00000000000E+00 0. -1.
          4    1    6    6  503    0 -0.60100631049E+02 -0.15956506800E+03  0.49041104135E+03  0.51920717084E+03  0.00000000000E+00 0. -1.
         -4    1    6    6    0  503 -0.11052918939E+03 -0.77889763143E+02  0.45170687001E+03  0.47151098961E+03  0.00000000000E+00 0.  1.
<mgrwt>
<rscale>  0 0.32907571E+03</rscale>
<asrwt>0</asrwt>
<pdfrwt beam="1">  1        2 0.22561491E+00 0.32907571E+03</pdfrwt>
<pdfrwt beam="2">  1       -2 0.14829683E-01 0.32907571E+03</pdfrwt>
<totfact> 0.49492054E+02</totfact>
</mgrwt>
</event>
<event>
12    1  0.3203156E-008  0.2941223E+03  0.7818608E-02  0.1088216E+00
         -1   -1    0    0    0  501 -0.00000000000E+00  0.00000000000E+00  0.40793093689E+03  0.40793093689E+03  0.00000000000E+00 0.  1.
          1   -1    0    0  501    0  0.00000000000E+00 -0.00000000000E+00 -0.56018889658E+03  0.56018889658E+03  0.00000000000E+00 0. -1.
         23    2    1    2    0    0  0.17122077317E+02 -0.25486477554E+03 -0.16149967907E+03  0.31593042226E+03  0.92090531701E+02 0.  0.
    5000000    2    1    2    0    0 -0.17122077317E+02  0.25486477554E+03  0.92417193823E+01  0.65218941120E+03  0.60001366598E+03 0.  0.
         23    2    4    4    0    0 -0.82214190069E+02  0.80035857573E+02 -0.26811511152E+03  0.30553048253E+03  0.91094737389E+02 0.  0.
         23    2    4    4    0    0  0.65092112752E+02  0.17482891796E+03  0.27735683091E+03  0.34665892867E+03  0.91888342448E+02 0.  0.
          5    1    3    3  502    0  0.43398793988E+02 -0.10055989399E+03 -0.97672315817E+02  0.14682547080E+03  0.47000000000E+01 0. -1.
         -5    1    3    3    0  502 -0.26276716671E+02 -0.15430488155E+03 -0.63827363255E+02  0.16910495146E+03  0.47000000000E+01 0.  1.
         13    1    5    5    0    0 -0.50456699982E+02  0.54206338739E+02 -0.65639640506E+02  0.98958416208E+02  0.00000000000E+00 0.  1.
        -13    1    5    5    0    0 -0.31757490087E+02  0.25829518834E+02 -0.20247547102E+03  0.20657206632E+03  0.00000000000E+00 0. -1.
          2    1    6    6  503    0  0.74203489977E+02  0.70660211217E+02  0.15360889637E+03  0.18464754647E+03  0.00000000000E+00 0. -1.
         -2    1    6    6    0  503 -0.91113772242E+01  0.10416870675E+03  0.12374793454E+03  0.16201138220E+03  0.00000000000E+00 0.  1.
<mgrwt>
<rscale>  0 0.29412231E+03</rscale>
<asrwt>0</asrwt>
<pdfrwt beam="1">  1        1 0.86182907E-01 0.29412231E+03</pdfrwt>
<pdfrwt beam="2">  1       -1 0.62758606E-01 0.29412231E+03</pdfrwt>
<totfact> 0.10390478E+02</totfact>
</mgrwt>
</event>
<event>
12    1  0.3203156E-008  0.1209333E+04  0.7818608E-02  0.9104727E-01
          2   -1    0    0  501    0  0.00000000000E+00  0.00000000000E+00  0.16487190154E+04  0.16487190154E+04  0.00000000000E+00 0. -1.
         -2   -1    0    0    0  501 -0.00000000000E+00 -0.00000000000E+00 -0.89044520852E+03  0.89044520852E+03  0.00000000000E+00 0.  1.
         23    2    1    2    0    0 -0.11144048355E+04  0.21462852417E+03  0.39342469577E+03  0.12045674882E+04  0.90754072412E+02 0.  0.
    5000000    2    1    2    0    0  0.11144048355E+04 -0.21462852417E+03  0.36484911108E+03  0.13345967357E+04  0.60005835727E+03 0.  0.
         23    2    4    4    0    0  0.82707173308E+03  0.11006821102E+03  0.26820472256E+03  0.88072939026E+03  0.87108110491E+02 0.  0.
         23    2    4    4    0    0  0.28733310244E+03 -0.32469673519E+03  0.96644388519E+02  0.45386734540E+03  0.93097517595E+02 0.  0.
          5    1    3    3  502    0 -0.38333958885E+03  0.10236686975E+03  0.17210097786E+03  0.43251480089E+03  0.47000000000E+01 0. -1.
         -5    1    3    3    0  502 -0.73106524667E+03  0.11226165442E+03  0.22132371791E+03  0.77205268736E+03  0.47000000000E+01 0.  1.
         13    1    5    5    0    0  0.18520855328E+03  0.61635972005E+02  0.60165411554E+02  0.20425738175E+03  0.00000000000E+00 0. -1.
        -13    1    5    5    0    0  0.64186317981E+03  0.48432239017E+02  0.20803931101E+03  0.67647200851E+03  0.00000000000E+00 0.  1.
          3    1    6    6  503    0  0.18088244083E+03 -0.13462702184E+03  0.43752219157E+02  0.22968924461E+03  0.00000000000E+00 0. -1.
         -3    1    6    6    0  503  0.10645066161E+03 -0.19006971335E+03  0.52892169362E+02  0.22417810078E+03  0.00000000000E+00 0.  1.
<mgrwt>
<rscale>  0 0.12093327E+04</rscale>
<asrwt>0</asrwt>
<pdfrwt beam="1">  1        2 0.25364908E+00 0.12093327E+04</pdfrwt>
<pdfrwt beam="2">  1       -2 0.13699157E+00 0.12093327E+04</pdfrwt>
<totfact> 0.38696362E+00</totfact>
</mgrwt>
</event>
<event>
12    1  0.3203156E-008  0.7318701E+03  0.7818608E-02  0.9664231E-01
         -1   -1    0    0    0  501 -0.00000000000E+00  0.00000000000E+00  0.39465910288E+03  0.39465910288E+03  0.00000000000E+00 0.  1.
          1   -1    0    0  501    0  0.00000000000E+00 -0.00000000000E+00 -0.18648769602E+04  0.18648769602E+04  0.00000000000E+00 0. -1.
         23    2    1    2    0    0 -0.27805157737E+03 -0.56225894159E+03 -0.10676474883E+03  0.64321804253E+03  0.94249358453E+02 0.  0.
    5000000    2    1    2    0    0  0.27805157737E+03  0.56225894159E+03 -0.13634531085E+04  0.16163180206E+04  0.60002647228E+03 0.  0.
         23    2    4    4    0    0 -0.40808504561E+02 -0.80984862203E+02 -0.33354953427E+03  0.35746211721E+03  0.91104289008E+02 0.  0.
         23    2    4    4    0    0  0.31886008193E+03  0.64324380380E+03 -0.10299035743E+04  0.12588559034E+04  0.92641622572E+02 0.  0.
          5    1    3    3  502    0 -0.18700564015E+03 -0.28306858827E+03 -0.36667382242E+02  0.34127045292E+03  0.47000000000E+01 0. -1.
         -5    1    3    3    0  502 -0.91045937218E+02 -0.27919035333E+03 -0.70097366583E+02  0.30194758962E+03  0.47000000000E+01 0.  1.
         11    1    5    5    0    0  0.33331566314E+00 -0.61997238564E+02 -0.28241427536E+03  0.28913939824E+03  0.00000000000E+00 0.  1.
        -11    1    5    5    0    0 -0.41141820224E+02 -0.18987623639E+02 -0.51135258907E+02  0.68322718962E+02  0.00000000000E+00 0. -1.
          3    1    6    6  503    0  0.26037864267E+03  0.58763267558E+03 -0.90048013651E+03  0.11063334376E+04  0.00000000000E+00 0. -1.
         -3    1    6    6    0  503  0.58481439265E+02  0.55611128212E+02 -0.12942343776E+03  0.15252246576E+03  0.00000000000E+00 0.  1.
<mgrwt>
<rscale>  0 0.73187012E+03</rscale>
<asrwt>0</asrwt>
<pdfrwt beam="1">  1        1 0.28690415E+00 0.73187012E+03</pdfrwt>
<pdfrwt beam="2">  1       -1 0.60716784E-01 0.73187012E+03</pdfrwt>
<totfact> 0.10595268E+01</totfact>
</mgrwt>
</event>
<event>
12    1  0.3203156E-008  0.9035421E+03  0.7818608E-02  0.9421164E-01
          1   -1    0    0  501    0  0.00000000000E+00  0.00000000000E+00  0.19313971073E+04  0.19313971073E+04  0.00000000000E+00 0. -1.
         -1   -1    0    0    0  501 -0.00000000000E+00 -0.00000000000E+00 -0.50710971640E+03  0.50710971640E+03  0.00000000000E+00 0.  1.
         23    2    1    2    0    0 -0.16191493394E+03 -0.79600015342E+03  0.11149030000E+04  0.13824343435E+04  0.91012771516E+02 0.  0.
    5000000    2    1    2    0    0  0.16191493394E+03  0.79600015342E+03  0.30938439086E+03  0.10560724802E+04  0.59978137016E+03 0.  0.
         23    2    4    4    0    0 -0.20341983137E+03  0.18728732411E+03  0.53303141497E+02  0.29639061109E+03  0.92466209429E+02 0.  0.
         23    2    4    4    0    0  0.36533476531E+03  0.60871282931E+03  0.25608124936E+03  0.75968186907E+03  0.86822443035E+02 0.  0.
          5    1    3    3  502    0 -0.10953058608E+03 -0.41782035378E+03  0.52681819949E+03  0.68127109335E+03  0.47000000000E+01 0. -1.
         -5    1    3    3    0  502 -0.52384347860E+02 -0.37817979963E+03  0.58808480055E+03  0.70116325017E+03  0.47000000000E+01 0.  1.
         13    1    5    5    0    0 -0.12053421092E+03  0.89072138066E+02  0.72431695934E+02  0.16645928138E+03  0.00000000000E+00 0.  1.
        -13    1    5    5    0    0 -0.82885620443E+02  0.98215186041E+02 -0.19128554438E+02  0.12993132971E+03  0.00000000000E+00 0. -1.
          1    1    6    6  503    0  0.31871812755E+03  0.57485046832E+03  0.22926674116E+03  0.69613040758E+03  0.00000000000E+00 0. -1.
         -1    1    6    6    0  503  0.46616637760E+02  0.33862360993E+02  0.26814508207E+02  0.63551461498E+02  0.00000000000E+00 0.  1.
<mgrwt>
<rscale>  0 0.90354207E+03</rscale>
<asrwt>0</asrwt>
<pdfrwt beam="1">  1        1 0.29713801E+00 0.90354207E+03</pdfrwt>
<pdfrwt beam="2">  1       -1 0.78016881E-01 0.90354207E+03</pdfrwt>
<totfact> 0.55863292E+00</totfact>
</mgrwt>
</event>
<event>
12    1  0.3203156E-008  0.9524429E+03  0.7818608E-02  0.9362300E-01
          2   -1    0    0  501    0  0.00000000000E+00  0.00000000000E+00  0.63000084151E+03  0.63000084151E+03  0.00000000000E+00 0.  1.
         -2   -1    0    0    0  501 -0.00000000000E+00 -0.00000000000E+00 -0.16757168133E+04  0.16757168133E+04  0.00000000000E+00 0. -1.
         23    2    1    2    0    0 -0.91019929192E+02  0.92375604856E+03 -0.61924567814E+03  0.11211443438E+04  0.10903928200E+03 0.  0.
    5000000    2    1    2    0    0  0.91019929192E+02 -0.92375604856E+03 -0.42647029367E+03  0.11845733110E+04  0.59977258440E+03 0.  0.
         23    2    4    4    0    0  0.16244096763E+03 -0.85378174726E+03 -0.52059660523E+03  0.10172131167E+04  0.91495133395E+02 0.  0.
         23    2    4    4    0    0 -0.71421038437E+02 -0.69974301305E+02  0.94126311554E+02  0.16736019434E+03  0.95667677656E+02 0.  0.
          5    1    3    3  502    0 -0.29737684229E+02  0.36822428268E+03 -0.18396018523E+03  0.41271890188E+03  0.47000000000E+01 0. -1.
         -5    1    3    3    0  502 -0.61282244963E+02  0.55553176589E+03 -0.43528549292E+03  0.70842544195E+03  0.47000000000E+01 0.  1.
         13    1    5    5    0    0  0.84789840615E+02 -0.52822170699E+03 -0.27105047300E+03  0.59972981226E+03  0.00000000000E+00 0.  1.
        -13    1    5    5    0    0  0.77651127014E+02 -0.32556004027E+03 -0.24954613223E+03  0.41748330441E+03  0.00000000000E+00 0. -1.
          4    1    6    6  503    0  0.33354065476E+01 -0.11360693216E+02  0.67742140794E+02  0.68769091360E+02  0.00000000000E+00 0. -1.
         -4    1    6    6    0  503 -0.74756444985E+02 -0.58613608090E+02  0.26384170760E+02  0.98591102980E+02  0.00000000000E+00 0.  1.
<mgrwt>
<rscale>  0 0.95244295E+03</rscale>
<asrwt>0</asrwt>
<pdfrwt beam="1">  1        2 0.96923208E-01 0.95244295E+03</pdfrwt>
<pdfrwt beam="2">  1       -2 0.25780258E+00 0.95244295E+03</pdfrwt>
<totfact> 0.27029712E+00</totfact>
</mgrwt>
</event>
<event>
12    1  0.3203156E-008  0.1073884E+04  0.7818608E-02  0.9231027E-01
         -2   -1    0    0    0  501 -0.00000000000E+00  0.00000000000E+00  0.39707274704E+03  0.39707274704E+03  0.00000000000E+00 0.  1.
          2   -1    0    0  501    0  0.00000000000E+00 -0.00000000000E+00 -0.31355401108E+04  0.31355401108E+04  0.00000000000E+00 0. -1.
         23    2    1    2    0    0  0.73350855997E+03 -0.69561258908E+03 -0.16086805767E+04  0.19021835577E+04  0.92398094077E+02 0.  0.
    5000000    2    1    2    0    0 -0.73350855997E+03  0.69561258908E+03 -0.11297867871E+04  0.16304293002E+04  0.59997486354E+03 0.  0.
         23    2    4    4    0    0 -0.55664473260E+03  0.18845171209E+03 -0.38580303371E+03  0.70875804116E+03  0.90147512261E+02 0.  0.
         23    2    4    4    0    0 -0.17686382737E+03  0.50716087699E+03 -0.74398375340E+03  0.92167125900E+03  0.86447184891E+02 0.  0.
          5    1    3    3  502    0  0.44353139982E+03 -0.39415558835E+03 -0.10193982891E+04  0.11795226544E+04  0.47000000000E+01 0. -1.
         -5    1    3    3    0  502  0.28997716014E+03 -0.30145700073E+03 -0.58928228761E+03  0.72266090332E+03  0.47000000000E+01 0.  1.
         13    1    5    5    0    0 -0.15407596948E+03  0.87448799080E+02 -0.14484021526E+03  0.22883484173E+03  0.00000000000E+00 0.  1.
        -13    1    5    5    0    0 -0.40256876312E+03  0.10100291301E+03 -0.24096281844E+03  0.47992319943E+03  0.00000000000E+00 0. -1.
          4    1    6    6  503    0 -0.17607047960E+03  0.51072021474E+03 -0.73691750083E+03  0.91371951635E+03  0.00000000000E+00 0. -1.
         -4    1    6    6    0  503 -0.79334776802E+00 -0.35593377494E+01 -0.70662525676E+01  0.79517426545E+01  0.00000000000E+00 0.  1.
<mgrwt>
<rscale>  0 0.10738836E+04</rscale>
<asrwt>0</asrwt>
<pdfrwt beam="1">  1        2 0.48239077E+00 0.10738836E+04</pdfrwt>
<pdfrwt beam="2">  1       -2 0.61088116E-01 0.10738836E+04</pdfrwt>
<totfact> 0.36141386E+00</totfact>
</mgrwt>
</event>
<event>
12    1  0.3203156E-008  0.4950810E+03  0.7818608E-02  0.1015071E+00
         -1   -1    0    0    0  501 -0.00000000000E+00  0.00000000000E+00  0.34525099249E+03  0.34525099249E+03  0.00000000000E+00 0.  1.
          1   -1    0    0  501    0  0.00000000000E+00 -0.00000000000E+00 -0.15210538061E+04  0.15210538061E+04  0.00000000000E+00 0. -1.
         23    2    1    2    0    0  0.31929010397E+03  0.36179107918E+03 -0.94382709559E+03  0.10623623083E+04  0.70463694806E+02 0.  0.
    5000000    2    1    2    0    0 -0.31929010397E+03 -0.36179107918E+03 -0.23197571804E+03  0.80394249030E+03  0.59972646972E+03 0.  0.
         23    2    4    4    0    0 -0.10429803926E+03 -0.84890602522E+02 -0.37995695539E+03  0.41352419568E+03  0.92468789718E+02 0.  0.
         23    2    4    4    0    0 -0.21499206471E+03 -0.27690047665E+03  0.14798123735E+03  0.39041829462E+03  0.87364388089E+02 0.  0.
          5    1    3    3  502    0  0.88691307128E+02  0.14459607242E+03 -0.36451759433E+03  0.40208125882E+03  0.47000000000E+01 0. -1.
         -5    1    3    3    0  502  0.23059879685E+03  0.21719500675E+03 -0.57930950126E+03  0.66028104949E+03  0.47000000000E+01 0.  1.
         11    1    5    5    0    0 -0.94576261061E+02 -0.42811934963E+02 -0.17016384445E+03  0.19933204682E+03  0.00000000000E+00 0. -1.
        -11    1    5    5    0    0 -0.97217782018E+01 -0.42078667559E+02 -0.20979311093E+03  0.21419214885E+03  0.00000000000E+00 0.  1.
          4    1    6    6  503    0 -0.17850887789E+03 -0.26246256697E+03  0.11033989197E+03  0.33604599434E+03  0.00000000000E+00 0. -1.
         -4    1    6    6    0  503 -0.36483186818E+02 -0.14437909681E+02  0.37641345376E+02  0.54372300283E+02  0.00000000000E+00 0.  1.
<mgrwt>
<rscale>  0 0.49508104E+03</rscale>
<asrwt>0</asrwt>
<pdfrwt beam="1">  1        1 0.23400828E+00 0.49508104E+03</pdfrwt>
<pdfrwt beam="2">  1       -1 0.53115536E-01 0.49508104E+03</pdfrwt>
<totfact> 0.24337375E+01</totfact>
</mgrwt>
</event>
<event>
12    1  0.3203156E-008  0.9684539E+03  0.7818608E-02  0.9343837E-01
         -2   -1    0    0    0  501 -0.00000000000E+00  0.00000000000E+00  0.16120977300E+04  0.16120977300E+04  0.00000000000E+00 0.  1.
          2   -1    0    0  501    0  0.00000000000E+00 -0.00000000000E+00 -0.59809338869E+03  0.59809338869E+03  0.00000000000E+00 0. -1.
         23    2    1    2    0    0 -0.87320654716E+03 -0.15247160821E+03  0.40662979192E+03  0.97950231655E+03  0.91322150249E+02 0.  0.
    5000000    2    1    2    0    0  0.87320654716E+03  0.15247160821E+03  0.60737454937E+03  0.12306888021E+04  0.59996151470E+03 0.  0.
         23    2    4    4    0    0 -0.55426203894E+02 -0.33017972975E+02  0.99769382395E+02  0.15232400362E+03  0.95322724452E+02 0.  0.
         23    2    4    4    0    0  0.92863275106E+03  0.18548958119E+03  0.50760516697E+03  0.10783647985E+04  0.91882871333E+02 0.  0.
          5    1    3    3  502    0 -0.82408853641E+03 -0.12272858670E+03  0.38652914445E+03  0.91848303814E+03  0.47000000000E+01 0. -1.
         -5    1    3    3    0  502 -0.49118010755E+02 -0.29743021514E+02  0.20100647472E+02  0.61019278414E+02  0.47000000000E+01 0.  1.
         13    1    5    5    0    0  0.10474937301E+02 -0.31362300277E+02  0.74887815829E+02  0.81862709152E+02  0.00000000000E+00 0. -1.
        -13    1    5    5    0    0 -0.65901141195E+02 -0.16556726981E+01  0.24881566567E+02  0.70461294466E+02  0.00000000000E+00 0.  1.
          2    1    6    6  503    0  0.28655117865E+03  0.64912147260E+02  0.20578689187E+03  0.35871076052E+03  0.00000000000E+00 0.  1.
         -2    1    6    6    0  503  0.64208157241E+03  0.12057743393E+03  0.30181827511E+03  0.71965403798E+03  0.00000000000E+00 0. -1.
<mgrwt>
<rscale>  0 0.96845394E+03</rscale>
<asrwt>0</asrwt>
<pdfrwt beam="1">  1        2 0.92014368E-01 0.96845394E+03</pdfrwt>
<pdfrwt beam="2">  1       -2 0.24801503E+00 0.96845394E+03</pdfrwt>
<totfact> 0.32978884E+00</totfact>
</mgrwt>
</event>
<event>
12    1  0.3203156E-008  0.4091579E+03  0.7818608E-02  0.1040654E+00
         -1   -1    0    0    0  501 -0.00000000000E+00  0.00000000000E+00  0.49783322329E+03  0.49783322329E+03  0.00000000000E+00 0.  1.
          1   -1    0    0  501    0  0.00000000000E+00 -0.00000000000E+00 -0.15301417837E+04  0.15301417837E+04  0.00000000000E+00 0. -1.
         23    2    1    2    0    0 -0.24564780692E+03  0.37095267356E+02  0.38639934272E+03  0.46771330037E+03  0.87933926218E+02 0.  0.
    5000000    2    1    2    0    0  0.24564780692E+03 -0.37095267356E+02 -0.14187079031E+04  0.15602617066E+04  0.59997131167E+03 0.  0.
         23    2    4    4    0    0 -0.31858982851E+02  0.18590431724E+03 -0.20712300070E+03  0.29423668305E+03  0.89999323752E+02 0.  0.
         23    2    4    4    0    0  0.27750678977E+03 -0.22299958460E+03 -0.12115849024E+04  0.12660250235E+04  0.90236087041E+02 0.  0.
          5    1    3    3  502    0 -0.16479334355E+03  0.18206877661E+02  0.32314805197E+03  0.36322870201E+03  0.47000000000E+01 0. -1.
         -5    1    3    3    0  502 -0.80854463373E+02  0.18888389695E+02  0.63251290758E+02  0.10448459836E+03  0.47000000000E+01 0.  1.
         13    1    5    5    0    0 -0.63061506093E+02  0.13919564020E+03 -0.15157659767E+03  0.21523857638E+03  0.00000000000E+00 0.  1.
        -13    1    5    5    0    0  0.31202523242E+02  0.46708677041E+02 -0.55546403026E+02  0.78998106665E+02  0.00000000000E+00 0. -1.
          3    1    6    6  503    0  0.16331597659E+03 -0.16526650122E+03 -0.89230933440E+03  0.92206348637E+03  0.00000000000E+00 0. -1.
         -3    1    6    6    0  503  0.11419081319E+03 -0.57733083374E+02 -0.31927556800E+03  0.34396153718E+03  0.00000000000E+00 0.  1.
<mgrwt>
<rscale>  0 0.40915795E+03</rscale>
<asrwt>0</asrwt>
<pdfrwt beam="1">  1        1 0.23540642E+00 0.40915795E+03</pdfrwt>
<pdfrwt beam="2">  1       -1 0.76589728E-01 0.40915795E+03</pdfrwt>
<totfact> 0.11854545E+01</totfact>
</mgrwt>
</event>
<event>
12    1  0.3203156E-008  0.2729278E+03  0.7818608E-02  0.1099616E+00
         -2   -1    0    0    0  501 -0.00000000000E+00  0.00000000000E+00  0.15137241625E+03  0.15137241625E+03  0.00000000000E+00 0.  1.
          2   -1    0    0  501    0  0.00000000000E+00 -0.00000000000E+00 -0.15061968779E+04  0.15061968779E+04  0.00000000000E+00 0. -1.
         23    2    1    2    0    0  0.14829870965E+03  0.10646989445E+03 -0.78189706603E+03  0.80804771098E+03  0.90828055390E+02 0.  0.
    5000000    2    1    2    0    0 -0.14829870965E+03 -0.10646989445E+03 -0.57292739564E+03  0.84952158318E+03  0.60009397090E+03 0.  0.
         23    2    4    4    0    0 -0.98303416817E+01  0.90004289687E+02 -0.57634601456E+03  0.59044666720E+03  0.90857748911E+02 0.  0.
         23    2    4    4    0    0 -0.13846836797E+03 -0.19647418414E+03  0.34186189172E+01  0.25907491598E+03  0.96605026645E+02 0.  0.
          5    1    3    3  502    0  0.97345163516E+02  0.84557839511E+02 -0.67810403830E+03  0.69027044399E+03  0.47000000000E+01 0. -1.
         -5    1    3    3    0  502  0.50953546131E+02  0.21912054941E+02 -0.10379302773E+03  0.11777726699E+03  0.47000000000E+01 0.  1.
         11    1    5    5    0    0 -0.29998207610E+02  0.82667015784E+02 -0.28376526817E+03  0.29707988047E+03  0.00000000000E+00 0. -1.
        -11    1    5    5    0    0  0.20167865929E+02  0.73372739034E+01 -0.29258074639E+03  0.29336678674E+03  0.00000000000E+00 0.  1.
          1    1    6    6  503    0 -0.25934887889E+02 -0.69521916592E+00 -0.18986429298E+02  0.32149436029E+02  0.00000000000E+00 0. -1.
         -1    1    6    6    0  503 -0.11253348008E+03 -0.19577896497E+03  0.22405048215E+02  0.22692547995E+03  0.00000000000E+00 0.  1.
<mgrwt>
<rscale>  0 0.27292781E+03</rscale>
<asrwt>0</asrwt>
<pdfrwt beam="1">  1        2 0.23172259E+00 0.27292781E+03</pdfrwt>
<pdfrwt beam="2">  1       -2 0.23288065E-01 0.27292781E+03</pdfrwt>
<totfact> 0.21999455E+02</totfact>
</mgrwt>
</event>
<event>
12    1  0.3203156E-008  0.8404503E+03  0.7818608E-02  0.9503245E-01
         -2   -1    0    0    0  501 -0.00000000000E+00  0.00000000000E+00  0.44804901679E+03  0.44804901679E+03  0.00000000000E+00 0.  1.
          2   -1    0    0  501    0  0.00000000000E+00 -0.00000000000E+00 -0.17236205592E+04  0.17236205592E+04  0.00000000000E+00 0. -1.
         23    2    1    2    0    0 -0.14870973918E+03  0.72770175539E+03 -0.83161550577E+03  0.11187244881E+04  0.91080730367E+02 0.  0.
    5000000    2    1    2    0    0  0.14870973918E+03 -0.72770175539E+03 -0.44395603662E+03  0.10529450879E+04  0.59994330097E+03 0.  0.
         23    2    4    4    0    0 -0.19208940948E+03 -0.99342716531E+02 -0.11140999589E+03  0.25960027126E+03  0.90624483945E+02 0.  0.
         23    2    4    4    0    0  0.34079914866E+03 -0.62835903885E+03 -0.33254604072E+03  0.79334481665E+03  0.88487216357E+02 0.  0.
          5    1    3    3  502    0 -0.13210688442E+03  0.42993799070E+03 -0.48609948775E+03  0.66227917584E+03  0.47000000000E+01 0. -1.
         -5    1    3    3    0  502 -0.16602854756E+02  0.29776376468E+03 -0.34551601802E+03  0.45644531223E+03  0.47000000000E+01 0.  1.
         11    1    5    5    0    0 -0.12354056803E+03 -0.52063415553E+02 -0.11445132483E+03  0.17627245089E+03  0.00000000000E+00 0.  1.
        -11    1    5    5    0    0 -0.68548841452E+02 -0.47279300978E+02  0.30413289382E+01  0.83327820366E+02  0.00000000000E+00 0. -1.
          3    1    6    6  503    0  0.18706925503E+03 -0.37694291724E+03 -0.24012599785E+03  0.48450114951E+03  0.00000000000E+00 0. -1.
         -3    1    6    6    0  503  0.15372989363E+03 -0.25141612162E+03 -0.92420042872E+02  0.30884366713E+03  0.00000000000E+00 0.  1.
<mgrwt>
<rscale>  0 0.84045033E+03</rscale>
<asrwt>0</asrwt>
<pdfrwt beam="1">  1        2 0.26517239E+00 0.84045033E+03</pdfrwt>
<pdfrwt beam="2">  1       -2 0.68930618E-01 0.84045033E+03</pdfrwt>
<totfact> 0.18600715E+01</totfact>
</mgrwt>
</event>
<event>
12    1  0.3203156E-008  0.7522794E+03  0.7818608E-02  0.9631781E-01
         -2   -1    0    0    0  501 -0.00000000000E+00  0.00000000000E+00  0.64534087896E+03  0.64534087896E+03  0.00000000000E+00 0.  1.
          2   -1    0    0  501    0  0.00000000000E+00 -0.00000000000E+00 -0.12656151442E+04  0.12656151442E+04  0.00000000000E+00 0. -1.
         23    2    1    2    0    0  0.55530432643E+03 -0.38017642935E+03  0.18285071645E+03  0.70341285207E+03  0.91968709744E+02 0.  0.
    5000000    2    1    2    0    0 -0.55530432643E+03  0.38017642935E+03 -0.80312498171E+03  0.12075431711E+04  0.60021143060E+03 0.  0.
         23    2    4    4    0    0  0.29805791959E+02  0.21924772612E+03 -0.42173189202E+03  0.48488975912E+03  0.91117172411E+02 0.  0.
         23    2    4    4    0    0 -0.58511011839E+03  0.16092870323E+03 -0.38139308969E+03  0.72265341198E+03  0.92278745188E+02 0.  0.
          5    1    3    3  502    0  0.34537977122E+03 -0.22839947231E+03  0.66512961319E+02  0.41940382610E+03  0.47000000000E+01 0. -1.
         -5    1    3    3    0  502  0.20992455520E+03 -0.15177695704E+03  0.11633775514E+03  0.28400902598E+03  0.47000000000E+01 0.  1.
         13    1    5    5    0    0  0.15043512248E+02  0.14023902849E+03 -0.34926574199E+03  0.37666941859E+03  0.00000000000E+00 0.  1.
        -13    1    5    5    0    0  0.14762279712E+02  0.79008697634E+02 -0.72466150024E+02  0.10822034053E+03  0.00000000000E+00 0. -1.
          1    1    6    6  503    0 -0.17489798073E+03  0.19197857135E+02 -0.74325308770E+02  0.19100291334E+03  0.00000000000E+00 0. -1.
         -1    1    6    6    0  503 -0.41021213766E+03  0.14173084609E+03 -0.30706778092E+03  0.53165049863E+03  0.00000000000E+00 0.  1.
<mgrwt>
<rscale>  0 0.75227938E+03</rscale>
<asrwt>0</asrwt>
<pdfrwt beam="1">  1        2 0.19471002E+00 0.75227938E+03</pdfrwt>
<pdfrwt beam="2">  1       -2 0.99283214E-01 0.75227938E+03</pdfrwt>
<totfact> 0.14841531E+01</totfact>
</mgrwt>
</event>
<event>
12    1  0.3203156E-008  0.4792579E+03  0.7818608E-02  0.1019339E+00
         -1   -1    0    0    0  501 -0.00000000000E+00  0.00000000000E+00  0.13283566834E+03  0.13283566834E+03  0.00000000000E+00 0.  1.
          1   -1    0    0  501    0  0.00000000000E+00 -0.00000000000E+00 -0.32595061467E+04  0.32595061467E+04  0.00000000000E+00 0. -1.
         23    2    1    2    0    0  0.34330305365E+03 -0.24386518508E+03 -0.20179600389E+04  0.20632183928E+04  0.85908104698E+02 0.  0.
    5000000    2    1    2    0    0 -0.34330305365E+03  0.24386518508E+03 -0.11087104394E+04  0.13291234222E+04  0.60000251497E+03 0.  0.
         23    2    4    4    0    0  0.27729760820E+02  0.51369349497E+02  0.30145911233E+02  0.11247919437E+03  0.91296459401E+02 0.  0.
         23    2    4    4    0    0 -0.37103281447E+03  0.19249583558E+03 -0.11388563506E+04  0.12166442279E+04  0.92246374974E+02 0.  0.
          5    1    3    3  502    0  0.54602902853E+02 -0.14992048751E+02 -0.18239178086E+03  0.19103688192E+03  0.47000000000E+01 0. -1.
         -5    1    3    3    0  502  0.28870015080E+03 -0.22887313632E+03 -0.18355682581E+04  0.18721815109E+04  0.47000000000E+01 0.  1.
         13    1    5    5    0    0 -0.28134090036E+02  0.43668598113E+02  0.15666903691E+02  0.54257951994E+02  0.00000000000E+00 0.  1.
        -13    1    5    5    0    0  0.55863850856E+02  0.77007513840E+01  0.14479007542E+02  0.58221242376E+02  0.00000000000E+00 0. -1.
          4    1    6    6  503    0 -0.10056243499E+03  0.15688609055E+02 -0.21416645236E+03  0.23712065515E+03  0.00000000000E+00 0. -1.
         -4    1    6    6    0  503 -0.27047037948E+03  0.17680722652E+03 -0.92468989828E+03  0.97952357272E+03  0.00000000000E+00 0.  1.
<mgrwt>
<rscale>  0 0.47925788E+03</rscale>
<asrwt>0</asrwt>
<pdfrwt beam="1">  1        1 0.50146246E+00 0.47925788E+03</pdfrwt>
<pdfrwt beam="2">  1       -1 0.20436258E-01 0.47925788E+03</pdfrwt>
<totfact> 0.85784157E+00</totfact>
</mgrwt>
</event>
<event>
12    1  0.3203156E-008  0.4727649E+03  0.7818608E-02  0.1021143E+00
          1   -1    0    0  501    0  0.00000000000E+00  0.00000000000E+00  0.15297910453E+04  0.15297910453E+04  0.00000000000E+00 0. -1.
         -1   -1    0    0    0  501 -0.00000000000E+00 -0.00000000000E+00 -0.39511651495E+03  0.39511651495E+03  0.00000000000E+00 0.  1.
         23    2    1    2    0    0  0.23012775765E+03  0.32709382822E+03  0.11316833224E+04  0.12037331988E+04  0.91199312371E+02 0.  0.
    5000000    2    1    2    0    0 -0.23012775765E+03 -0.32709382822E+03  0.29912079727E+01  0.72117436140E+03  0.60011195199E+03 0.  0.
         23    2    4    4    0    0  0.83558337916E+02 -0.48665923982E+02 -0.20493675594E+03  0.24414041755E+03  0.90857589425E+02 0.  0.
         23    2    4    4    0    0 -0.31368609556E+03 -0.27842790424E+03  0.20792796391E+03  0.47703394385E+03  0.91685773147E+02 0.  0.
          5    1    3    3  502    0  0.49089305286E+02  0.13667076425E+03  0.34607205197E+03  0.37533533387E+03  0.47000000000E+01 0. -1.
         -5    1    3    3    0  502  0.18103845236E+03  0.19042306397E+03  0.78561127039E+03  0.82839786497E+03  0.47000000000E+01 0.  1.
         11    1    5    5    0    0  0.48231379774E+02 -0.61098111777E+02 -0.72017865542E+02  0.10604630222E+03  0.00000000000E+00 0.  1.
        -11    1    5    5    0    0  0.35326958142E+02  0.12432187796E+02 -0.13291889040E+03  0.13809411533E+03  0.00000000000E+00 0. -1.
          1    1    6    6  503    0 -0.42386185657E+02 -0.17877705342E+02 -0.24140590241E+01  0.46065483432E+02  0.00000000000E+00 0. -1.
         -1    1    6    6    0  503 -0.27129990991E+03 -0.26055019890E+03  0.21034202294E+03  0.43096846041E+03  0.00000000000E+00 0.  1.
<mgrwt>
<rscale>  0 0.47276491E+03</rscale>
<asrwt>0</asrwt>
<pdfrwt beam="1">  1        1 0.23535247E+00 0.47276491E+03</pdfrwt>
<pdfrwt beam="2">  1       -1 0.60787157E-01 0.47276491E+03</pdfrwt>
<totfact> 0.18592932E+01</totfact>
</mgrwt>
</event>
<event>
12    1  0.3203156E-008  0.9981258E+03  0.7818608E-02  0.9310603E-01
         -2   -1    0    0    0  501 -0.00000000000E+00  0.00000000000E+00  0.33140594973E+03  0.33140594973E+03  0.00000000000E+00 0.  1.
          2   -1    0    0  501    0  0.00000000000E+00 -0.00000000000E+00 -0.31821943658E+04  0.31821943658E+04  0.00000000000E+00 0. -1.
         23    2    1    2    0    0  0.49817686829E+03  0.79194954557E+03 -0.13865111863E+04  0.16753193107E+04  0.94431182390E+02 0.  0.
    5000000    2    1    2    0    0 -0.49817686829E+03 -0.79194954557E+03 -0.14642772297E+04  0.18382810048E+04  0.59983745490E+03 0.  0.
         23    2    4    4    0    0  0.85670185234E+02 -0.17601120827E+03 -0.53154075134E+03  0.57387387709E+03  0.92066988663E+02 0.  0.
         23    2    4    4    0    0 -0.58384705352E+03 -0.61593833730E+03 -0.93273647838E+03  0.12644071277E+04  0.92036021371E+02 0.  0.
          5    1    3    3  502    0  0.43406661581E+03  0.66617744032E+03 -0.12286444148E+04  0.14634874093E+04  0.47000000000E+01 0. -1.
         -5    1    3    3    0  502  0.64110252480E+02  0.12577210525E+03 -0.15786677149E+03  0.21183190145E+03  0.47000000000E+01 0.  1.
         13    1    5    5    0    0  0.80359313452E+02 -0.84060350373E+02 -0.37088053537E+03  0.38868513386E+03  0.00000000000E+00 0. -1.
        -13    1    5    5    0    0  0.53108717817E+01 -0.91950857895E+02 -0.16066021596E+03  0.18518874323E+03  0.00000000000E+00 0.  1.
          4    1    6    6  503    0 -0.29025076650E+03 -0.25625993065E+03 -0.37943312795E+03  0.54211083562E+03  0.00000000000E+00 0. -1.
         -4    1    6    6    0  503 -0.29359628702E+03 -0.35967840665E+03 -0.55330335043E+03  0.72229629209E+03  0.00000000000E+00 0.  1.
<mgrwt>
<rscale>  0 0.99812577E+03</rscale>
<asrwt>0</asrwt>
<pdfrwt beam="1">  1        2 0.48956836E+00 0.99812577E+03</pdfrwt>
<pdfrwt beam="2">  1       -2 0.50985531E-01 0.99812577E+03</pdfrwt>
<totfact> 0.49790425E+00</totfact>
</mgrwt>
</event>
<event>
12    1  0.3203156E-008  0.6621320E+03  0.7818608E-02  0.9784277E-01
          2   -1    0    0  501    0  0.00000000000E+00  0.00000000000E+00  0.88684149533E+03  0.88684149533E+03  0.00000000000E+00 0. -1.
         -2   -1    0    0    0  501 -0.00000000000E+00 -0.00000000000E+00 -0.70133527880E+03  0.70133527880E+03  0.00000000000E+00 0.  1.
         23    2    1    2    0    0 -0.47930382969E+03 -0.41282793135E+03 -0.14593851392E+03  0.65542837611E+03  0.90162322000E+02 0.  0.
    5000000    2    1    2    0    0  0.47930382969E+03  0.41282793135E+03  0.33144473045E+03  0.93274839803E+03  0.60000408550E+03 0.  0.
         23    2    4    4    0    0  0.23830250573E+02 -0.29620014210E+01  0.29416121939E+03  0.30811299095E+03  0.88465461645E+02 0.  0.
         23    2    4    4    0    0  0.45547357912E+03  0.41578993277E+03  0.37283511063E+02  0.62463540708E+03  0.91879715462E+02 0.  0.
          5    1    3    3  502    0 -0.22759224252E+03 -0.19826711691E+03 -0.23791592684E+02  0.30281381802E+03  0.47000000000E+01 0. -1.
         -5    1    3    3    0  502 -0.25171158717E+03 -0.21456081444E+03 -0.12214692123E+03  0.35261455809E+03  0.47000000000E+01 0.  1.
         13    1    5    5    0    0  0.35185746148E+02 -0.27159816625E+02  0.73912323807E+02  0.86248037552E+02  0.00000000000E+00 0.  1.
        -13    1    5    5    0    0 -0.11355495574E+02  0.24197815204E+02  0.22024889558E+03  0.22186495340E+03  0.00000000000E+00 0. -1.
          4    1    6    6  503    0  0.11047322679E+03  0.14244188313E+03  0.39168420462E+02  0.18446731165E+03  0.00000000000E+00 0. -1.
         -4    1    6    6    0  503  0.34500035233E+03  0.27334804964E+03 -0.18849093995E+01  0.44016809543E+03  0.00000000000E+00 0.  1.
<mgrwt>
<rscale>  0 0.66213199E+03</rscale>
<asrwt>0</asrwt>
<pdfrwt beam="1">  1        2 0.13643715E+00 0.66213199E+03</pdfrwt>
<pdfrwt beam="2">  1       -2 0.10789773E+00 0.66213199E+03</pdfrwt>
<totfact> 0.21117320E+01</totfact>
</mgrwt>
</event>
<event>
12    1  0.3203156E-008  0.9028869E+03  0.7818608E-02  0.9421980E-01
         -1   -1    0    0    0  501 -0.00000000000E+00  0.00000000000E+00  0.12071521217E+04  0.12071521217E+04  0.00000000000E+00 0.  1.
          1   -1    0    0  501    0  0.00000000000E+00 -0.00000000000E+00 -0.82005841628E+03  0.82005841628E+03  0.00000000000E+00 0. -1.
         23    2    1    2    0    0 -0.77610680804E+03 -0.39099322449E+03  0.42232554048E+03  0.97057271345E+03  0.91842533037E+02 0.  0.
    5000000    2    1    2    0    0  0.77610680804E+03  0.39099322449E+03 -0.35231835058E+02  0.10566378245E+04  0.60002060873E+03 0.  0.
         23    2    4    4    0    0  0.25820744948E+03  0.28871737558E+03  0.22935572097E+03  0.45891429224E+03  0.89271893424E+02 0.  0.
         23    2    4    4    0    0  0.51789935856E+03  0.10227584891E+03 -0.26458755603E+03  0.59772353227E+03  0.92664725500E+02 0.  0.
          5    1    3    3  502    0 -0.96692520920E+02 -0.81833477710E+02  0.74718376466E+02  0.14714308498E+03  0.47000000000E+01 0. -1.
         -5    1    3    3    0  502 -0.67941428712E+03 -0.30915974678E+03  0.34760716401E+03  0.82342962847E+03  0.47000000000E+01 0.  1.
         13    1    5    5    0    0  0.21267015475E+03  0.27862652629E+03  0.19622730906E+03  0.40170448429E+03  0.00000000000E+00 0. -1.
        -13    1    5    5    0    0  0.45537294727E+02  0.10090849283E+02  0.33128411911E+02  0.57209807953E+02  0.00000000000E+00 0.  1.
          3    1    6    6  503    0  0.82090907608E+02 -0.16404952775E+02 -0.51669785453E+02  0.98375842137E+02  0.00000000000E+00 0. -1.
         -3    1    6    6    0  503  0.43580845095E+03  0.11868080169E+03 -0.21291777058E+03  0.49934769013E+03  0.00000000000E+00 0.  1.
<mgrwt>
<rscale>  0 0.90288685E+03</rscale>
<asrwt>0</asrwt>
<pdfrwt beam="1">  1        1 0.12616283E+00 0.90288685E+03</pdfrwt>
<pdfrwt beam="2">  1       -1 0.18571571E+00 0.90288685E+03</pdfrwt>
<totfact> 0.40852180E+00</totfact>
</mgrwt>
</event>
<event>
12    1  0.3203156E-008  0.4179926E+03  0.7818608E-02  0.1037722E+00
          2   -1    0    0  501    0  0.00000000000E+00  0.00000000000E+00  0.11684321545E+04  0.11684321545E+04  0.00000000000E+00 0. -1.
         -2   -1    0    0    0  501 -0.00000000000E+00 -0.00000000000E+00 -0.27751889780E+03  0.27751889780E+03  0.00000000000E+00 0.  1.
         23    2    1    2    0    0  0.39701322335E+03 -0.76277553618E+02  0.29296252661E+03  0.50727371853E+03  0.89787631717E+02 0.  0.
    5000000    2    1    2    0    0 -0.39701322335E+03  0.76277553618E+02  0.59795073014E+03  0.93867733382E+03  0.60011023708E+03 0.  0.
         23    2    4    4    0    0 -0.18669504482E+03  0.18433111845E+02 -0.78122801207E+02  0.22238732481E+03  0.90322371505E+02 0.  0.
         23    2    4    4    0    0 -0.21031817854E+03  0.57844441773E+02  0.67607353134E+03  0.71629000901E+03  0.91740076109E+02 0.  0.
          5    1    3    3  502    0  0.25647119632E+03 -0.84906359794E+02  0.22102302569E+03  0.34908427687E+03  0.47000000000E+01 0. -1.
         -5    1    3    3    0  502  0.14054202703E+03  0.86288061760E+01  0.71939500921E+02  0.15818944166E+03  0.47000000000E+01 0.  1.
         13    1    5    5    0    0 -0.75902440635E+02 -0.31003989069E+00 -0.79630427853E+02  0.11001037069E+03  0.00000000000E+00 0. -1.
        -13    1    5    5    0    0 -0.11079260418E+03  0.18743151736E+02  0.15076266461E+01  0.11237695412E+03  0.00000000000E+00 0.  1.
          1    1    6    6  503    0 -0.44870240885E+02  0.55231143966E+02  0.20557228156E+03  0.21754029679E+03  0.00000000000E+00 0. -1.
         -1    1    6    6    0  503 -0.16544793765E+03  0.26132978072E+01  0.47050124978E+03  0.49874971222E+03  0.00000000000E+00 0.  1.
<mgrwt>
<rscale>  0 0.41799261E+03</rscale>
<asrwt>0</asrwt>
<pdfrwt beam="1">  1        2 0.17975879E+00 0.41799261E+03</pdfrwt>
<pdfrwt beam="2">  1       -2 0.42695216E-01 0.41799261E+03</pdfrwt>
<totfact> 0.10804653E+02</totfact>
</mgrwt>
</event>
<event>
12    1  0.3203156E-008  0.5004100E+03  0.7818608E-02  0.1013672E+00
         -2   -1    0    0    0  501 -0.00000000000E+00  0.00000000000E+00  0.25086895182E+03  0.25086895182E+03  0.00000000000E+00 0.  1.
          2   -1    0    0  501    0  0.00000000000E+00 -0.00000000000E+00 -0.19665662258E+04  0.19665662258E+04  0.00000000000E+00 0. -1.
         23    2    1    2    0    0 -0.40828350180E+01 -0.46909413632E+03 -0.19336795879E+03  0.51519502842E+03  0.89267976034E+02 0.  0.
    5000000    2    1    2    0    0  0.40828350180E+01  0.46909413632E+03 -0.15223293152E+04  0.17022401492E+04  0.60005750009E+03 0.  0.
         23    2    4    4    0    0  0.32010840277E+02  0.43295872760E+03 -0.15363259348E+04  0.15992094383E+04  0.93249642371E+02 0.  0.
         23    2    4    4    0    0 -0.27928005259E+02  0.36135408722E+02  0.13996619577E+02  0.10303071097E+03  0.91288996062E+02 0.  0.
          5    1    3    3  502    0 -0.81896911313E-02 -0.29054413691E+03 -0.72494039266E+02  0.29948851613E+03  0.47000000000E+01 0. -1.
         -5    1    3    3    0  502 -0.40746453269E+01 -0.17854999941E+03 -0.12087391953E+03  0.21570651229E+03  0.47000000000E+01 0.  1.
         11    1    5    5    0    0  0.15973441889E+01  0.15447399776E+03 -0.39826776885E+03  0.42717909967E+03  0.00000000000E+00 0.  1.
        -11    1    5    5    0    0  0.30413496088E+02  0.27848472984E+03 -0.11380581660E+04  0.11720303386E+04  0.00000000000E+00 0. -1.
          1    1    6    6  503    0 -0.51282273851E+02 -0.30138633164E+01 -0.87077498774E+01  0.52103549700E+02  0.00000000000E+00 0.  1.
         -1    1    6    6    0  503  0.23354268593E+02  0.39149272039E+02  0.22704369454E+02  0.50927161269E+02  0.00000000000E+00 0. -1.
<mgrwt>
<rscale>  0 0.50041004E+03</rscale>
<asrwt>0</asrwt>
<pdfrwt beam="1">  1        2 0.30254866E+00 0.50041004E+03</pdfrwt>
<pdfrwt beam="2">  1       -2 0.38595222E-01 0.50041004E+03</pdfrwt>
<totfact> 0.47256523E+01</totfact>
</mgrwt>
</event>
<event>
12    1  0.3203156E-008  0.9985466E+03  0.7818608E-02  0.9310140E-01
         -1   -1    0    0    0  501 -0.00000000000E+00  0.00000000000E+00  0.12340549569E+04  0.12340549569E+04  0.00000000000E+00 0.  1.
          1   -1    0    0  501    0  0.00000000000E+00 -0.00000000000E+00 -0.11716346587E+04  0.11716346587E+04  0.00000000000E+00 0. -1.
         23    2    1    2    0    0 -0.89627102287E+03  0.19580620347E+03 -0.62382595363E+03  0.11123895599E+04  0.81301271750E+02 0.  0.
    5000000    2    1    2    0    0  0.89627102287E+03 -0.19580620347E+03  0.68624625182E+03  0.12933000557E+04  0.60004108212E+03 0.  0.
         23    2    4    4    0    0  0.94198782270E+03 -0.10534307031E+03  0.64925117412E+03  0.11521422214E+04  0.86408278550E+02 0.  0.
         23    2    4    4    0    0 -0.45716799830E+02 -0.90463133157E+02  0.36995077698E+02  0.14115783434E+03  0.91012604487E+02 0.  0.
          5    1    3    3  502    0 -0.34932543528E+03  0.45266226415E+02 -0.26927006584E+03  0.44340246881E+03  0.47000000000E+01 0. -1.
         -5    1    3    3    0  502 -0.54694558759E+03  0.15053997705E+03 -0.35455588780E+03  0.66898709109E+03  0.47000000000E+01 0.  1.
         13    1    5    5    0    0  0.25305526225E+03 -0.88820217702E+01  0.21415185453E+03  0.33162761173E+03  0.00000000000E+00 0. -1.
        -13    1    5    5    0    0  0.68893256046E+03 -0.96461048540E+02  0.43509931959E+03  0.82051460965E+03  0.00000000000E+00 0.  1.
          3    1    6    6  503    0  0.18738162481E+01 -0.79870733674E+02 -0.10399733595E+00  0.79892778775E+02  0.00000000000E+00 0.  1.
         -3    1    6    6    0  503 -0.47590616078E+02 -0.10592399483E+02  0.37099075034E+02  0.61265055569E+02  0.00000000000E+00 0. -1.
<mgrwt>
<rscale>  0 0.99854660E+03</rscale>
<asrwt>0</asrwt>
<pdfrwt beam="1">  1        1 0.18025149E+00 0.99854660E+03</pdfrwt>
<pdfrwt beam="2">  1       -1 0.18985461E+00 0.99854660E+03</pdfrwt>
<totfact> 0.19948706E+00</totfact>
</mgrwt>
</event>
<event>
12    1  0.3203156E-008  0.5071125E+03  0.7818608E-02  0.1011939E+00
          2   -1    0    0  501    0  0.00000000000E+00  0.00000000000E+00  0.55197652269E+03  0.55197652269E+03  0.00000000000E+00 0. -1.
         -2   -1    0    0    0  501 -0.00000000000E+00 -0.00000000000E+00 -0.70309326775E+03  0.70309326775E+03  0.00000000000E+00 0.  1.
         23    2    1    2    0    0  0.32718691476E+03 -0.10193631453E+03 -0.38728104600E+03  0.52483265317E+03  0.89556774370E+02 0.  0.
    5000000    2    1    2    0    0 -0.32718691476E+03  0.10193631453E+03  0.23616430094E+03  0.73023713727E+03  0.60002534130E+03 0.  0.
         23    2    4    4    0    0 -0.40041651238E+03 -0.12990581206E+03  0.12816105148E+03  0.44910883812E+03  0.89803062105E+02 0.  0.
         23    2    4    4    0    0  0.73229597624E+02  0.23184212659E+03  0.10800324947E+03  0.28112829915E+03  0.90857432609E+02 0.  0.
          5    1    3    3  502    0  0.10389193854E+03 -0.23895001272E+02 -0.64691512273E+02  0.12478616806E+03  0.47000000000E+01 0. -1.
         -5    1    3    3    0  502  0.22329497622E+03 -0.78041313256E+02 -0.32258953373E+03  0.40004648512E+03  0.47000000000E+01 0.  1.
         11    1    5    5    0    0 -0.13115117417E+03 -0.43237765941E+02  0.87116233484E+02  0.16327698254E+03  0.00000000000E+00 0.  1.
        -11    1    5    5    0    0 -0.26926533821E+03 -0.86668046118E+02  0.41044817993E+02  0.28583185558E+03  0.00000000000E+00 0. -1.
          4    1    6    6  503    0 -0.17187475630E+01  0.85781538934E+02  0.22132124825E+01  0.85827296501E+02  0.00000000000E+00 0. -1.
         -4    1    6    6    0  503  0.74948345187E+02  0.14606058765E+03  0.10579003698E+03  0.19530100265E+03  0.00000000000E+00 0.  1.
<mgrwt>
<rscale>  0 0.50711245E+03</rscale>
<asrwt>0</asrwt>
<pdfrwt beam="1">  1        2 0.84919465E-01 0.50711245E+03</pdfrwt>
<pdfrwt beam="2">  1       -2 0.10816820E+00 0.50711245E+03</pdfrwt>
<totfact> 0.38805818E+01</totfact>
</mgrwt>
</event>
<event>
12    1  0.3203156E-008  0.7325856E+03  0.7818608E-02  0.9663074E-01
         -1   -1    0    0    0  501 -0.00000000000E+00  0.00000000000E+00  0.57398586198E+03  0.57398586198E+03  0.00000000000E+00 0.  1.
          1   -1    0    0  501    0  0.00000000000E+00 -0.00000000000E+00 -0.18555489907E+04  0.18555489907E+04  0.00000000000E+00 0. -1.
         23    2    1    2    0    0 -0.50072773541E+03 -0.37457079146E+03  0.24308748031E+03  0.67592996109E+03  0.82208554262E+02 0.  0.
    5000000    2    1    2    0    0  0.50072773541E+03  0.37457079146E+03 -0.15246506090E+04  0.17536048916E+04  0.59961578812E+03 0.  0.
         23    2    4    4    0    0  0.58560629280E+03  0.41872798557E+03 -0.11894030994E+04  0.13932534557E+04  0.90595822659E+02 0.  0.
         23    2    4    4    0    0 -0.84878557390E+02 -0.44157194110E+02 -0.33524750969E+03  0.36035143587E+03  0.91148435447E+02 0.  0.
          5    1    3    3  502    0 -0.95353797665E+02 -0.76278426275E+02  0.14233340712E+02  0.12302610712E+03  0.47000000000E+01 0. -1.
         -5    1    3    3    0  502 -0.40537393774E+03 -0.29829236519E+03  0.22885413960E+03  0.55290385398E+03  0.47000000000E+01 0.  1.
         11    1    5    5    0    0  0.42620030409E+03  0.26221613391E+03 -0.86632249657E+03  0.10004592286E+04  0.00000000000E+00 0. -1.
        -11    1    5    5    0    0  0.15940598871E+03  0.15651185166E+03 -0.32308060278E+03  0.39279422710E+03  0.00000000000E+00 0.  1.
          4    1    6    6  503    0 -0.27430222826E+02 -0.51089707730E+02 -0.81092404482E+02  0.99692293709E+02  0.00000000000E+00 0. -1.
         -4    1    6    6    0  503 -0.57448334564E+02  0.69325136202E+01 -0.25415510521E+03  0.26065914216E+03  0.00000000000E+00 0.  1.
<mgrwt>
<rscale>  0 0.73258556E+03</rscale>
<asrwt>0</asrwt>
<pdfrwt beam="1">  1        1 0.28546908E+00 0.73258556E+03</pdfrwt>
<pdfrwt beam="2">  1       -1 0.88305517E-01 0.73258556E+03</pdfrwt>
<totfact> 0.49428398E+00</totfact>
</mgrwt>
</event>
<event>
12    1  0.6398032E-008  0.1837187E+04  0.7818608E-02  0.8686770E-01
         -2   -1    0    0    0  501 -0.00000000000E+00  0.00000000000E+00  0.15345862490E+04  0.15345862490E+04  0.00000000000E+00 0.  1.
          2   -1    0    0  501    0  0.00000000000E+00 -0.00000000000E+00 -0.22549283037E+04  0.22549283037E+04  0.00000000000E+00 0. -1.
         23    2    1    2    0    0 -0.17620557696E+04 -0.39858054328E+03 -0.47360138670E+03  0.18699891437E+04  0.94096435316E+02 0.  0.
    5000000    2    1    2    0    0  0.17620557696E+04  0.39858054328E+03 -0.24674066796E+03  0.19195254090E+04  0.59999154474E+03 0.  0.
         23    2    4    4    0    0  0.13803607723E+04  0.11240253356E+03 -0.33084628072E+03  0.14267979664E+04  0.90900958730E+02 0.  0.
         23    2    4    4    0    0  0.38169499737E+03  0.28617800973E+03  0.84105612761E+02  0.49272744259E+03  0.90098026168E+02 0.  0.
          5    1    3    3  502    0 -0.93807323795E+03 -0.21703214700E+03 -0.20433335161E+03  0.98430613184E+03  0.47000000000E+01 0. -1.
         -5    1    3    3    0  502 -0.82398253169E+03 -0.18154839628E+03 -0.26926803509E+03  0.88568301183E+03  0.47000000000E+01 0.  1.
         11    1    5    5    0    0  0.87400221525E+03  0.27221004195E+02 -0.20579333430E+03  0.89831606452E+03  0.00000000000E+00 0.  1.
        -11    1    5    5    0    0  0.50635855702E+03  0.85181529362E+02 -0.12505294642E+03  0.52848190188E+03  0.00000000000E+00 0. -1.
          2    1    6    6  503    0  0.18572074580E+03  0.17147909968E+03  0.81660770112E+02  0.26564216236E+03  0.00000000000E+00 0. -1.
         -2    1    6    6    0  503  0.19597425157E+03  0.11469891005E+03  0.24448426494E+01  0.22708528023E+03  0.00000000000E+00 0.  1.
<mgrwt>
<rscale>  0 0.18371866E+04</rscale>
<asrwt>0</asrwt>
<pdfrwt beam="1">  1        2 0.34691205E+00 0.18371866E+04</pdfrwt>
<pdfrwt beam="2">  1       -2 0.23609019E+00 0.18371866E+04</pdfrwt>
<totfact> 0.34122648E-01</totfact>
</mgrwt>
</event>
<event>
12    1  0.3203156E-008  0.1016453E+04  0.7818608E-02  0.9290682E-01
         -2   -1    0    0    0  501 -0.00000000000E+00  0.00000000000E+00  0.12041650458E+04  0.12041650458E+04  0.00000000000E+00 0. -1.
          2   -1    0    0  501    0  0.00000000000E+00 -0.00000000000E+00 -0.15312370421E+04  0.15312370421E+04  0.00000000000E+00 0.  1.
         23    2    1    2    0    0  0.92621470738E+03 -0.12414170282E+03 -0.10514598682E+04  0.14097195722E+04  0.91959617740E+02 0.  0.
    5000000    2    1    2    0    0 -0.92621470738E+03  0.12414170282E+03  0.72438787185E+03  0.13256825157E+04  0.59950938027E+03 0.  0.
         23    2    4    4    0    0 -0.62601492131E+03  0.33529846395E+03  0.57696698077E+03  0.91968050743E+03  0.92744796161E+02 0.  0.
         23    2    4    4    0    0 -0.30019978607E+03 -0.21115676113E+03  0.14742089108E+03  0.40600200828E+03  0.91638541416E+02 0.  0.
          5    1    3    3  502    0  0.84086973012E+02  0.13341729118E+02 -0.10853534133E+03  0.13802402357E+03  0.47000000000E+01 0. -1.
         -5    1    3    3    0  502  0.84212773437E+03 -0.13748343194E+03 -0.94292452684E+03  0.12716955486E+04  0.47000000000E+01 0.  1.
         13    1    5    5    0    0 -0.28323391123E+03  0.10022702143E+03  0.24966472179E+03  0.39063970305E+03  0.00000000000E+00 0. -1.
        -13    1    5    5    0    0 -0.34278101008E+03  0.23507144252E+03  0.32730225898E+03  0.52904080438E+03  0.00000000000E+00 0.  1.
          2    1    6    6  503    0 -0.27696542115E+03 -0.15476918327E+03  0.12552860938E+03  0.34120488914E+03  0.00000000000E+00 0.  1.
         -2    1    6    6    0  503 -0.23234364922E+02 -0.56387577865E+02  0.21892281697E+02  0.64797119139E+02  0.00000000000E+00 0. -1.
<mgrwt>
<rscale>  0 0.10164526E+04</rscale>
<asrwt>0</asrwt>
<pdfrwt beam="1">  1        2 0.23557493E+00 0.10164526E+04</pdfrwt>
<pdfrwt beam="2">  1       -2 0.18525616E+00 0.10164526E+04</pdfrwt>
<totfact> 0.20158911E+00</totfact>
</mgrwt>
</event>
<event>
12    1  0.3203156E-008  0.6116753E+03  0.7818608E-02  0.9881475E-01
          2   -1    0    0  501    0  0.00000000000E+00  0.00000000000E+00  0.12012502558E+04  0.12012502558E+04  0.00000000000E+00 0. -1.
         -2   -1    0    0    0  501 -0.00000000000E+00 -0.00000000000E+00 -0.48010793869E+03  0.48010793869E+03  0.00000000000E+00 0.  1.
         23    2    1    2    0    0  0.56060589057E+02  0.47515908776E+03  0.77129008609E+03  0.91236262109E+03  0.92726517912E+02 0.  0.
    5000000    2    1    2    0    0 -0.56060589057E+02 -0.47515908776E+03 -0.50147768997E+02  0.76899557338E+03  0.59993370035E+03 0.  0.
         23    2    4    4    0    0 -0.13327284031E+03  0.91476368274E+02 -0.20905087351E+02  0.18938079930E+03  0.96428670791E+02 0.  0.
         23    2    4    4    0    0  0.77212251252E+02 -0.56663545604E+03 -0.29242681646E+02  0.57961477408E+03  0.89781290496E+02 0.  0.
          5    1    3    3  502    0 -0.11664594994E+02  0.11504114576E+02  0.15204443940E+02  0.22840152015E+02  0.47000000000E+01 0. -1.
         -5    1    3    3    0  502  0.67725184051E+02  0.46365497319E+03  0.75608564215E+03  0.88952246907E+03  0.47000000000E+01 0.  1.
         13    1    5    5    0    0 -0.78294813132E+02  0.33595321116E+02  0.34805759747E+02  0.92033495401E+02  0.00000000000E+00 0.  1.
        -13    1    5    5    0    0 -0.54978027177E+02  0.57881047158E+02 -0.55710847098E+02  0.97347303901E+02  0.00000000000E+00 0. -1.
          2    1    6    6  503    0  0.21532959820E+02 -0.79211337609E+02 -0.34377516665E+02  0.88993921234E+02  0.00000000000E+00 0. -1.
         -2    1    6    6    0  503  0.55679291432E+02 -0.48742411843E+03  0.51348350192E+01  0.49062085285E+03  0.00000000000E+00 0.  1.
<mgrwt>
<rscale>  0 0.61167528E+03</rscale>
<asrwt>0</asrwt>
<pdfrwt beam="1">  1        2 0.18480773E+00 0.61167528E+03</pdfrwt>
<pdfrwt beam="2">  1       -2 0.73862760E-01 0.61167528E+03</pdfrwt>
<totfact> 0.32319260E+01</totfact>
</mgrwt>
</event>
<event>
12    1  0.3203156E-008  0.1414123E+04  0.7818608E-02  0.8943659E-01
         -1   -1    0    0    0  501 -0.00000000000E+00  0.00000000000E+00  0.11762692241E+04  0.11762692241E+04  0.00000000000E+00 0.  1.
          1   -1    0    0  501    0  0.00000000000E+00 -0.00000000000E+00 -0.23413933250E+04  0.23413933250E+04  0.00000000000E+00 0. -1.
         23    2    1    2    0    0 -0.10653667103E+04 -0.88635150372E+03 -0.14198373089E+04  0.19861977793E+04  0.91751944247E+02 0.  0.
    5000000    2    1    2    0    0  0.10653667103E+04  0.88635150372E+03  0.25471320794E+03  0.15314647698E+04  0.59990024798E+03 0.  0.
         23    2    4    4    0    0  0.10394211662E+04  0.79223910720E+03  0.36379250642E+03  0.13596896924E+04  0.91498131676E+02 0.  0.
         23    2    4    4    0    0  0.25945544075E+02  0.94112396519E+02 -0.10907929848E+03  0.17177507749E+03  0.89878081049E+02 0.  0.
          5    1    3    3  502    0 -0.80961557343E+03 -0.71740628632E+03 -0.10816554509E+04  0.15297548041E+04  0.47000000000E+01 0. -1.
         -5    1    3    3    0  502 -0.25575113683E+03 -0.16894521739E+03 -0.33818185800E+03  0.45644297514E+03  0.47000000000E+01 0.  1.
         13    1    5    5    0    0  0.30062116954E+03  0.28167928965E+03  0.10658691891E+03  0.42553152771E+03  0.00000000000E+00 0. -1.
        -13    1    5    5    0    0  0.73879999664E+03  0.51055981755E+03  0.25720558751E+03  0.93415816465E+03  0.00000000000E+00 0.  1.
          1    1    6    6  503    0  0.57668596661E+02  0.64721180014E+02 -0.55542639202E+02  0.10295379038E+03  0.00000000000E+00 0. -1.
         -1    1    6    6    0  503 -0.31723052585E+02  0.29391216505E+02 -0.53536659282E+02  0.68821287114E+02  0.00000000000E+00 0.  1.
<mgrwt>
<rscale>  0 0.14141225E+04</rscale>
<asrwt>0</asrwt>
<pdfrwt beam="1">  1        1 0.36021436E+00 0.14141225E+04</pdfrwt>
<pdfrwt beam="2">  1       -1 0.18096450E+00 0.14141225E+04</pdfrwt>
<totfact> 0.34152442E-01</totfact>
</mgrwt>
</event>
<event>
12    1  0.3203156E-008  0.5694554E+03  0.7818608E-02  0.9970884E-01
         -1   -1    0    0    0  501 -0.00000000000E+00  0.00000000000E+00  0.56275429293E+03  0.56275429293E+03  0.00000000000E+00 0.  1.
          1   -1    0    0  501    0  0.00000000000E+00 -0.00000000000E+00 -0.75649361303E+03  0.75649361303E+03  0.00000000000E+00 0. -1.
         23    2    1    2    0    0  0.26129611959E+02 -0.46752861855E+03 -0.27845872387E+03  0.55308118110E+03  0.95361240592E+02 0.  0.
    5000000    2    1    2    0    0 -0.26129611959E+02  0.46752861855E+03  0.84719403773E+02  0.76616672486E+03  0.60047340251E+03 0.  0.
         23    2    4    4    0    0  0.20799508232E+03  0.21886977738E+03  0.22312226920E+03  0.38659092578E+03  0.92212055393E+02 0.  0.
         23    2    4    4    0    0 -0.23412469428E+03  0.24865884117E+03 -0.13840286542E+03  0.37957579908E+03  0.90977152794E+02 0.  0.
          5    1    3    3  502    0 -0.28595045406E+02 -0.14768068609E+03 -0.60773966371E+02  0.16230473393E+03  0.47000000000E+01 0. -1.
         -5    1    3    3    0  502  0.54724657365E+02 -0.31984793246E+03 -0.21768475749E+03  0.39077644717E+03  0.47000000000E+01 0.  1.
         11    1    5    5    0    0  0.19224062048E+03  0.14709657813E+03  0.16589418490E+03  0.29345313092E+03  0.00000000000E+00 0.  1.
        -11    1    5    5    0    0  0.15754461834E+02  0.71773199253E+02  0.57228084293E+02  0.93137794856E+02  0.00000000000E+00 0. -1.
          2    1    6    6  503    0 -0.82121901949E+02  0.43274524660E+02 -0.92803174663E+01  0.93288882277E+02  0.00000000000E+00 0. -1.
         -2    1    6    6    0  503 -0.15200279233E+03  0.20538431651E+03 -0.12912254796E+03  0.28628691680E+03  0.00000000000E+00 0.  1.
<mgrwt>
<rscale>  0 0.56945544E+03</rscale>
<asrwt>0</asrwt>
<pdfrwt beam="1">  1        1 0.11638363E+00 0.56945544E+03</pdfrwt>
<pdfrwt beam="2">  1       -1 0.86577583E-01 0.56945544E+03</pdfrwt>
<totfact> 0.33270107E+01</totfact>
</mgrwt>
</event>
<event>
12    1  0.3203156E-008  0.8207745E+03  0.7818608E-02  0.9530424E-01
          2   -1    0    0  501    0  0.00000000000E+00  0.00000000000E+00  0.25591605261E+04  0.25591605261E+04  0.00000000000E+00 0. -1.
         -2   -1    0    0    0  501 -0.00000000000E+00 -0.00000000000E+00 -0.27164508364E+03  0.27164508364E+03  0.00000000000E+00 0.  1.
         23    2    1    2    0    0  0.35874173602E+03  0.62721635264E+03  0.10045608850E+04  0.12409072244E+04  0.92801840815E+02 0.  0.
    5000000    2    1    2    0    0 -0.35874173602E+03 -0.62721635264E+03  0.12829545575E+04  0.15898983854E+04  0.59975702837E+03 0.  0.
         23    2    4    4    0    0 -0.10076705917E+03 -0.64009962523E+03  0.78907415305E+03  0.10248743002E+04  0.88587706100E+02 0.  0.
         23    2    4    4    0    0 -0.25797467685E+03  0.12883272591E+02  0.49388040444E+03  0.56502408523E+03  0.92830223480E+02 0.  0.
          5    1    3    3  502    0  0.25453035912E+03  0.44399039976E+03  0.77963738767E+03  0.93261445681E+03  0.47000000000E+01 0. -1.
         -5    1    3    3    0  502  0.10421137691E+03  0.18322595287E+03  0.22492349731E+03  0.30829276755E+03  0.47000000000E+01 0.  1.
         13    1    5    5    0    0  0.12432036956E+02 -0.82281428759E+02  0.12611326388E+03  0.15109382644E+03  0.00000000000E+00 0. -1.
        -13    1    5    5    0    0 -0.11319909613E+03 -0.55781819647E+03  0.66296088918E+03  0.87378047372E+03  0.00000000000E+00 0.  1.
          3    1    6    6  503    0 -0.11607255872E+03 -0.26872270326E+02  0.28948126347E+03  0.31304050808E+03  0.00000000000E+00 0. -1.
         -3    1    6    6    0  503 -0.14190211813E+03  0.39755542917E+02  0.20439914097E+03  0.25198357715E+03  0.00000000000E+00 0.  1.
<mgrwt>
<rscale>  0 0.82077447E+03</rscale>
<asrwt>0</asrwt>
<pdfrwt beam="1">  1        2 0.39371699E+00 0.82077447E+03</pdfrwt>
<pdfrwt beam="2">  1       -2 0.41791553E-01 0.82077447E+03</pdfrwt>
<totfact> 0.18088039E+01</totfact>
</mgrwt>
</event>
<event>
12    1  0.3203156E-008  0.9791252E+03  0.7818608E-02  0.9331741E-01
          1   -1    0    0  501    0  0.00000000000E+00  0.00000000000E+00  0.24484966992E+04  0.24484966992E+04  0.00000000000E+00 0. -1.
         -1   -1    0    0    0  501 -0.00000000000E+00 -0.00000000000E+00 -0.41026809354E+03  0.41026809354E+03  0.00000000000E+00 0.  1.
         23    2    1    2    0    0 -0.90915710194E+02  0.89301970952E+03  0.11414757675E+04  0.14551742413E+04  0.93889705591E+02 0.  0.
    5000000    2    1    2    0    0  0.90915710194E+02 -0.89301970952E+03  0.89675283818E+03  0.14035905515E+04  0.60012574965E+03 0.  0.
         23    2    4    4    0    0  0.24645655656E+03 -0.16112136830E+03  0.14837600405E+03  0.34126616021E+03  0.88012635055E+02 0.  0.
         23    2    4    4    0    0 -0.15554084637E+03 -0.73189834122E+03  0.74837683413E+03  0.10623243912E+04  0.92720491807E+02 0.  0.
          5    1    3    3  502    0 -0.88900946733E+02  0.49715057053E+03  0.68225330110E+03  0.84885436029E+03  0.47000000000E+01 0. -1.
         -5    1    3    3    0  502 -0.20147634615E+01  0.39586913899E+03  0.45922246640E+03  0.60631988103E+03  0.47000000000E+01 0.  1.
         13    1    5    5    0    0  0.77028279543E+02 -0.96809330584E+02  0.39575390536E+02  0.12989077671E+03  0.00000000000E+00 0. -1.
        -13    1    5    5    0    0  0.16942827702E+03 -0.64312037716E+02  0.10880061351E+03  0.21137538350E+03  0.00000000000E+00 0.  1.
          3    1    6    6  503    0 -0.56449490369E+02 -0.45034978705E+03  0.48514872217E+03  0.66435740252E+03  0.00000000000E+00 0. -1.
         -3    1    6    6    0  503 -0.99091355997E+02 -0.28154855418E+03  0.26322811196E+03  0.39796698873E+03  0.00000000000E+00 0.  1.
<mgrwt>
<rscale>  0 0.97912522E+03</rscale>
<asrwt>0</asrwt>
<pdfrwt beam="1">  1        1 0.37669179E+00 0.97912522E+03</pdfrwt>
<pdfrwt beam="2">  1       -1 0.63118170E-01 0.97912522E+03</pdfrwt>
<totfact> 0.38228438E+00</totfact>
</mgrwt>
</event>
<event>
12    1  0.3203156E-008  0.6665483E+03  0.7818608E-02  0.9776214E-01
         -2   -1    0    0    0  501 -0.00000000000E+00  0.00000000000E+00  0.13518234145E+04  0.13518234145E+04  0.00000000000E+00 0. -1.
          2   -1    0    0  501    0  0.00000000000E+00 -0.00000000000E+00 -0.76194431995E+03  0.76194431995E+03  0.00000000000E+00 0.  1.
         23    2    1    2    0    0 -0.23596444872E+03  0.58118686323E+03 -0.43629755740E+03  0.76973308397E+03  0.93145428833E+02 0.  0.
    5000000    2    1    2    0    0  0.23596444872E+03 -0.58118686323E+03  0.10261766519E+04  0.13440346504E+04  0.59994435541E+03 0.  0.
         23    2    4    4    0    0  0.18609164764E+03 -0.99273345058E+02  0.29342402304E+02  0.23198356197E+03  0.92033135824E+02 0.  0.
         23    2    4    4    0    0  0.49872801073E+02 -0.48191351817E+03  0.99683424961E+03  0.11120510885E+04  0.90835933826E+02 0.  0.
          5    1    3    3  502    0 -0.17970275081E+03  0.40656379871E+03 -0.25860503259E+03  0.51428188180E+03  0.47000000000E+01 0. -1.
         -5    1    3    3    0  502 -0.56261697907E+02  0.17462306452E+03 -0.17769252482E+03  0.25545120217E+03  0.47000000000E+01 0.  1.
         13    1    5    5    0    0  0.62975037707E+02 -0.21723377548E+02 -0.32210089399E+02  0.73994934728E+02  0.00000000000E+00 0.  1.
        -13    1    5    5    0    0  0.12311660994E+03 -0.77549967510E+02  0.61552491703E+02  0.15798862724E+03  0.00000000000E+00 0. -1.
          1    1    6    6  503    0 -0.25674607244E+02 -0.17341893837E+03  0.35121411328E+03  0.39253619834E+03  0.00000000000E+00 0. -1.
         -1    1    6    6    0  503  0.75547408317E+02 -0.30849457980E+03  0.64562013633E+03  0.71951489012E+03  0.00000000000E+00 0.  1.
<mgrwt>
<rscale>  0 0.66654833E+03</rscale>
<asrwt>0</asrwt>
<pdfrwt beam="1">  1        2 0.11722220E+00 0.66654833E+03</pdfrwt>
<pdfrwt beam="2">  1       -2 0.20797283E+00 0.66654833E+03</pdfrwt>
<totfact> 0.44876085E+00</totfact>
</mgrwt>
</event>
<event>
12    1  0.3203156E-008  0.4104959E+03  0.7818608E-02  0.1040205E+00
         -2   -1    0    0    0  501 -0.00000000000E+00  0.00000000000E+00  0.14389475107E+03  0.14389475107E+03  0.00000000000E+00 0.  1.
          2   -1    0    0  501    0  0.00000000000E+00 -0.00000000000E+00 -0.18391077355E+04  0.18391077355E+04  0.00000000000E+00 0. -1.
         23    2    1    2    0    0 -0.32880650733E+03  0.30835798870E+02 -0.52235270842E+03  0.62480910966E+03  0.92029917798E+02 0.  0.
    5000000    2    1    2    0    0  0.32880650733E+03 -0.30835798870E+02 -0.11728602760E+04  0.13581933769E+04  0.60001954655E+03 0.  0.
         23    2    4    4    0    0  0.36665593238E+03  0.99874926375E+00 -0.11920074503E+04  0.12503994415E+04  0.90440210643E+02 0.  0.
         23    2    4    4    0    0 -0.37849425048E+02 -0.31834548134E+02  0.19147174275E+02  0.10779393532E+03  0.93845089262E+02 0.  0.
          5    1    3    3  502    0 -0.13735491618E+03  0.49542032393E+02 -0.17734407400E+03  0.22976900695E+03  0.47000000000E+01 0. -1.
         -5    1    3    3    0  502 -0.19145159116E+03 -0.18706233523E+02 -0.34500863442E+03  0.39504010271E+03  0.47000000000E+01 0.  1.
         13    1    5    5    0    0  0.24805391868E+03  0.42448088344E+02 -0.82010221072E+03  0.85784626991E+03  0.00000000000E+00 0. -1.
        -13    1    5    5    0    0  0.11860201370E+03 -0.41449339080E+02 -0.37190523954E+03  0.39255317163E+03  0.00000000000E+00 0.  1.
          1    1    6    6  503    0 -0.61574941523E+02  0.45540200905E+01  0.18099715992E+02  0.64341372704E+02  0.00000000000E+00 0. -1.
         -1    1    6    6    0  503  0.23725516474E+02 -0.36388568224E+02  0.10474582838E+01  0.43452562620E+02  0.00000000000E+00 0.  1.
<mgrwt>
<rscale>  0 0.41049587E+03</rscale>
<asrwt>0</asrwt>
<pdfrwt beam="1">  1        2 0.28293965E+00 0.41049587E+03</pdfrwt>
<pdfrwt beam="2">  1       -2 0.22137654E-01 0.41049587E+03</pdfrwt>
<totfact> 0.15581783E+02</totfact>
</mgrwt>
</event>
<event>
12    1  0.3203156E-008  0.8253626E+03  0.7818608E-02  0.9524014E-01
          1   -1    0    0  501    0  0.00000000000E+00  0.00000000000E+00  0.34601476570E+04  0.34601476570E+04  0.00000000000E+00 0. -1.
         -1   -1    0    0    0  501 -0.00000000000E+00 -0.00000000000E+00 -0.44045927984E+03  0.44045927984E+03  0.00000000000E+00 0.  1.
         23    2    1    2    0    0 -0.11112568158E+03  0.79591658988E+03  0.27437589412E+04  0.28605227621E+04  0.92440302869E+02 0.  0.
    5000000    2    1    2    0    0  0.11112568158E+03 -0.79591658988E+03  0.27592943588E+03  0.10400841747E+04  0.59983822968E+03 0.  0.
         23    2    4    4    0    0  0.17110555968E+03 -0.42736963544E+03  0.41794105731E+03  0.62928740508E+03  0.96984498560E+02 0.  0.
         23    2    4    4    0    0 -0.59979878098E+02 -0.36854695444E+03 -0.14201162142E+03  0.41079676965E+03  0.95719600555E+02 0.  0.
          5    1    3    3  502    0 -0.53060383265E+02  0.14106436296E+03  0.56013458098E+03  0.58007533785E+03  0.47000000000E+01 0. -1.
         -5    1    3    3    0  502 -0.58065298320E+02  0.65485222692E+03  0.21836243603E+04  0.22804474242E+04  0.47000000000E+01 0.  1.
         11    1    5    5    0    0  0.12084225133E+03 -0.27570007471E+03  0.20993335771E+03  0.36699508931E+03  0.00000000000E+00 0. -1.
        -11    1    5    5    0    0  0.50263308356E+02 -0.15166956073E+03  0.20800769960E+03  0.26229231577E+03  0.00000000000E+00 0.  1.
          4    1    6    6  503    0  0.11788775605E-01 -0.23829197098E+03 -0.60534239603E+02  0.24586064698E+03  0.00000000000E+00 0. -1.
         -4    1    6    6    0  503 -0.59991666874E+02 -0.13025498347E+03 -0.81477381821E+02  0.16493612267E+03  0.00000000000E+00 0.  1.
<mgrwt>
<rscale>  0 0.82536257E+03</rscale>
<asrwt>0</asrwt>
<pdfrwt beam="1">  1        1 0.53233039E+00 0.82536257E+03</pdfrwt>
<pdfrwt beam="2">  1       -1 0.67762968E-01 0.82536257E+03</pdfrwt>
<totfact> 0.63651086E-01</totfact>
</mgrwt>
</event>
<event>
12    1  0.3203156E-008  0.3732292E+03  0.7818608E-02  0.1053465E+00
         -2   -1    0    0    0  501 -0.00000000000E+00  0.00000000000E+00  0.28840873460E+03  0.28840873460E+03  0.00000000000E+00 0.  1.
          2   -1    0    0  501    0  0.00000000000E+00 -0.00000000000E+00 -0.10282904523E+04  0.10282904523E+04  0.00000000000E+00 0. -1.
         23    2    1    2    0    0  0.21770338584E+03 -0.23288786003E+03 -0.49269857032E+03  0.59372538479E+03  0.90146723708E+02 0.  0.
    5000000    2    1    2    0    0 -0.21770338584E+03  0.23288786003E+03 -0.24718314741E+03  0.72297380214E+03  0.59996674129E+03 0.  0.
         23    2    4    4    0    0 -0.14406147045E+02  0.18110041443E+03  0.15793417955E+03  0.25792193254E+03  0.92604649123E+02 0.  0.
         23    2    4    4    0    0 -0.20329723879E+03  0.51787445603E+02 -0.40511732696E+03  0.46505186959E+03  0.90230183362E+02 0.  0.
          5    1    3    3  502    0 -0.64788868469E+01 -0.20024009588E+02 -0.24314693901E+02  0.32499711910E+02  0.47000000000E+01 0. -1.
         -5    1    3    3    0  502  0.22418227269E+03 -0.21286385044E+03 -0.46838387642E+03  0.56122567288E+03  0.47000000000E+01 0.  1.
         11    1    5    5    0    0  0.31278846009E+02  0.13557184522E+03  0.11413801173E+03  0.17995993206E+03  0.00000000000E+00 0. -1.
        -11    1    5    5    0    0 -0.45684993054E+02  0.45528569207E+02  0.43796167813E+02  0.77962000484E+02  0.00000000000E+00 0.  1.
          4    1    6    6  503    0 -0.18008307954E+03  0.55793091781E+02 -0.27881743080E+03  0.33657383194E+03  0.00000000000E+00 0. -1.
         -4    1    6    6    0  503 -0.23214159255E+02 -0.40056461783E+01 -0.12629989616E+03  0.12847803766E+03  0.00000000000E+00 0.  1.
<mgrwt>
<rscale>  0 0.37322922E+03</rscale>
<asrwt>0</asrwt>
<pdfrwt beam="1">  1        2 0.15819853E+00 0.37322922E+03</pdfrwt>
<pdfrwt beam="2">  1       -2 0.44370574E-01 0.37322922E+03</pdfrwt>
<totfact> 0.12231172E+02</totfact>
</mgrwt>
</event>
<event>
12    1  0.3203156E-008  0.7504518E+03  0.7818608E-02  0.9634642E-01
         -1   -1    0    0    0  501 -0.00000000000E+00  0.00000000000E+00  0.74573796276E+03  0.74573796276E+03  0.00000000000E+00 0.  1.
          1   -1    0    0  501    0  0.00000000000E+00 -0.00000000000E+00 -0.83811489782E+03  0.83811489782E+03  0.00000000000E+00 0. -1.
         23    2    1    2    0    0  0.18257788299E+03 -0.61921176801E+03  0.15210769368E+03  0.66931725959E+03  0.89949688821E+02 0.  0.
    5000000    2    1    2    0    0 -0.18257788299E+03  0.61921176801E+03 -0.24448462874E+03  0.91453560098E+03  0.59987059836E+03 0.  0.
         23    2    4    4    0    0 -0.32969778513E+03  0.18196888307E+03 -0.88306955368E+01  0.38766814237E+03  0.91625888836E+02 0.  0.
         23    2    4    4    0    0  0.14711990214E+03  0.43724288494E+03 -0.23565393321E+03  0.52686745861E+03  0.96077763665E+02 0.  0.
          5    1    3    3  502    0  0.46141286356E+02 -0.21969256281E+03  0.92865734655E+02  0.24298142960E+03  0.47000000000E+01 0. -1.
         -5    1    3    3    0  502  0.13643659664E+03 -0.39951920520E+03  0.59241959026E+02  0.42633582999E+03  0.47000000000E+01 0.  1.
         11    1    5    5    0    0 -0.28263406313E+03  0.18628961817E+03 -0.20031115604E+02  0.33909745070E+03  0.00000000000E+00 0. -1.
        -11    1    5    5    0    0 -0.47063721997E+02 -0.43207351003E+01  0.11200420067E+02  0.48570691674E+02  0.00000000000E+00 0.  1.
          2    1    6    6  503    0  0.45292630180E+02  0.26063642728E+03 -0.10433748371E+03  0.28437489355E+03  0.00000000000E+00 0. -1.
         -2    1    6    6    0  503  0.10182727196E+03  0.17660645766E+03 -0.13131644950E+03  0.24249256506E+03  0.00000000000E+00 0.  1.
<mgrwt>
<rscale>  0 0.75045176E+03</rscale>
<asrwt>0</asrwt>
<pdfrwt beam="1">  1        1 0.12894075E+00 0.75045176E+03</pdfrwt>
<pdfrwt beam="2">  1       -1 0.11472892E+00 0.75045176E+03</pdfrwt>
<totfact> 0.14565007E+01</totfact>
</mgrwt>
</event>
<event>
12    1  0.3203156E-008  0.4463719E+03  0.7818608E-02  0.1028810E+00
         -1   -1    0    0    0  501 -0.00000000000E+00  0.00000000000E+00  0.17041113028E+03  0.17041113028E+03  0.00000000000E+00 0.  1.
          1   -1    0    0  501    0  0.00000000000E+00 -0.00000000000E+00 -0.21741379302E+04  0.21741379302E+04  0.00000000000E+00 0. -1.
         23    2    1    2    0    0  0.33958830889E+03  0.19686677860E+03 -0.12072896854E+04  0.12728523353E+04  0.92346819343E+02 0.  0.
    5000000    2    1    2    0    0 -0.33958830889E+03 -0.19686677860E+03 -0.79643711456E+03  0.10716967252E+04  0.60012085887E+03 0.  0.
         23    2    4    4    0    0 -0.58357039617E+02 -0.19190870097E+03 -0.73938328290E+03  0.77015477918E+03  0.78843206859E+02 0.  0.
         23    2    4    4    0    0 -0.28123126928E+03 -0.49580776242E+01 -0.57053831657E+02  0.30154194600E+03  0.92502952046E+02 0.  0.
          5    1    3    3  502    0  0.81321619493E+02  0.13201546821E+02 -0.32667012288E+03  0.33693166342E+03  0.47000000000E+01 0. -1.
         -5    1    3    3    0  502  0.25826668940E+03  0.18366523177E+03 -0.88061956249E+03  0.93592067188E+03  0.47000000000E+01 0.  1.
         11    1    5    5    0    0 -0.16717317329E+02 -0.81854010069E+02 -0.45128868519E+03  0.45895645223E+03  0.00000000000E+00 0.  1.
        -11    1    5    5    0    0 -0.41639722288E+02 -0.11005469090E+03 -0.28809459772E+03  0.31119832695E+03  0.00000000000E+00 0. -1.
          3    1    6    6  503    0 -0.80289158883E+02 -0.37306242803E+02 -0.40451639589E+02  0.97336734749E+02  0.00000000000E+00 0. -1.
         -3    1    6    6    0  503 -0.20094211039E+03  0.32348165179E+02 -0.16602192068E+02  0.20420521125E+03  0.00000000000E+00 0.  1.
<mgrwt>
<rscale>  0 0.44637188E+03</rscale>
<asrwt>0</asrwt>
<pdfrwt beam="1">  1        1 0.33448275E+00 0.44637188E+03</pdfrwt>
<pdfrwt beam="2">  1       -1 0.26217098E-01 0.44637188E+03</pdfrwt>
<totfact> 0.32061501E+01</totfact>
</mgrwt>
</event>
<event>
12    1  0.3203156E-008  0.1168576E+04  0.7818608E-02  0.9140816E-01
         -1   -1    0    0    0  501 -0.00000000000E+00  0.00000000000E+00  0.74182601366E+03  0.74182601366E+03  0.00000000000E+00 0.  1.
          1   -1    0    0  501    0  0.00000000000E+00 -0.00000000000E+00 -0.19321318094E+04  0.19321318094E+04  0.00000000000E+00 0. -1.
         23    2    1    2    0    0  0.10082635198E+04 -0.48703693019E+03 -0.58676685994E+03  0.12674319835E+04  0.91039486469E+02 0.  0.
    5000000    2    1    2    0    0 -0.10082635198E+04  0.48703693019E+03 -0.60353893578E+03  0.14065258395E+04  0.60021279014E+03 0.  0.
         23    2    4    4    0    0 -0.10426249734E+04  0.45740249432E+03 -0.62420513936E+03  0.13016497156E+04  0.91520757966E+02 0.  0.
         23    2    4    4    0    0  0.34361453544E+02  0.29634435866E+02  0.20666203583E+02  0.10487612394E+03  0.92265920709E+02 0.  0.
          5    1    3    3  502    0  0.27573955511E+03 -0.10692057709E+03 -0.19157901233E+03  0.35240448355E+03  0.47000000000E+01 0. -1.
         -5    1    3    3    0  502  0.73252396473E+03 -0.38011635309E+03 -0.39518784761E+03  0.91502749996E+03  0.47000000000E+01 0.  1.
         13    1    5    5    0    0 -0.19919522123E+03  0.56298719491E+02 -0.13736830435E+03  0.24843174720E+03  0.00000000000E+00 0. -1.
        -13    1    5    5    0    0 -0.84342975215E+03  0.40110377483E+03 -0.48683683501E+03  0.10532179684E+04  0.00000000000E+00 0.  1.
          1    1    6    6  503    0  0.26300332271E+01  0.41258170719E+02  0.46587575221E+02  0.62286081036E+02  0.00000000000E+00 0. -1.
         -1    1    6    6    0  503  0.31731420317E+02 -0.11623734853E+02 -0.25921371638E+02  0.42590042908E+02  0.00000000000E+00 0.  1.
<mgrwt>
<rscale>  0 0.11685755E+04</rscale>
<asrwt>0</asrwt>
<pdfrwt beam="1">  1        1 0.29725104E+00 0.11685755E+04</pdfrwt>
<pdfrwt beam="2">  1       -1 0.11412708E+00 0.11685755E+04</pdfrwt>
<totfact> 0.22893346E+00</totfact>
</mgrwt>
</event>
<event>
12    1  0.3203156E-008  0.6112467E+03  0.7818608E-02  0.9882344E-01
         -2   -1    0    0    0  501 -0.00000000000E+00  0.00000000000E+00  0.21475349172E+03  0.21475349172E+03  0.00000000000E+00 0.  1.
          2   -1    0    0  501    0  0.00000000000E+00 -0.00000000000E+00 -0.22412458252E+04  0.22412458252E+04  0.00000000000E+00 0. -1.
         23    2    1    2    0    0 -0.45480910840E+03  0.13673570514E+03 -0.30431612583E+03  0.57140461437E+03  0.91361648075E+02 0.  0.
    5000000    2    1    2    0    0  0.45480910840E+03 -0.13673570514E+03 -0.17221762077E+04  0.18845947026E+04  0.60021523182E+03 0.  0.
         23    2    4    4    0    0 -0.10719756265E+03  0.71418712508E+02 -0.40716639903E+03  0.43656449670E+03  0.90620821786E+02 0.  0.
         23    2    4    4    0    0  0.56200667105E+03 -0.20815441765E+03 -0.13150098087E+04  0.14480302059E+04  0.91438068628E+02 0.  0.
          5    1    3    3  502    0 -0.21737163699E+03  0.41360361559E+02 -0.95262278072E+02  0.24095248432E+03  0.47000000000E+01 0. -1.
         -5    1    3    3    0  502 -0.23743747141E+03  0.95375343582E+02 -0.20905384776E+03  0.33045213005E+03  0.47000000000E+01 0.  1.
         13    1    5    5    0    0 -0.56088719049E+02  0.32059559151E+01 -0.26428988417E+03  0.27019505072E+03  0.00000000000E+00 0. -1.
        -13    1    5    5    0    0 -0.51108843597E+02  0.68212756593E+02 -0.14287651486E+03  0.16636944597E+03  0.00000000000E+00 0.  1.
          3    1    6    6  503    0  0.12436082120E+03 -0.79776992416E+02 -0.26884279412E+03  0.30676771394E+03  0.00000000000E+00 0. -1.
         -3    1    6    6    0  503  0.43764584985E+03 -0.12837742523E+03 -0.10461670146E+04  0.11412624920E+04  0.00000000000E+00 0.  1.
<mgrwt>
<rscale>  0 0.61124667E+03</rscale>
<asrwt>0</asrwt>
<pdfrwt beam="1">  1        2 0.34480706E+00 0.61124667E+03</pdfrwt>
<pdfrwt beam="2">  1       -2 0.33038998E-01 0.61124667E+03</pdfrwt>
<totfact> 0.44206476E+01</totfact>
</mgrwt>
</event>
<event>
12    1  0.3203156E-008  0.9748846E+03  0.7818608E-02  0.9336528E-01
          2   -1    0    0  501    0  0.00000000000E+00  0.00000000000E+00  0.41241323023E+04  0.41241323023E+04  0.00000000000E+00 0. -1.
         -2   -1    0    0    0  501 -0.00000000000E+00 -0.00000000000E+00 -0.28589617102E+03  0.28589617102E+03  0.00000000000E+00 0.  1.
         23    2    1    2    0    0 -0.24434729806E+03  0.92684627952E+03  0.23606104224E+04  0.25493375509E+04  0.88829918152E+02 0.  0.
    5000000    2    1    2    0    0  0.24434729806E+03 -0.92684627952E+03  0.14776257089E+04  0.18606909224E+04  0.60003611989E+03 0.  0.
         23    2    4    4    0    0  0.63847397313E+02 -0.12451807590E+03  0.71999321703E+03  0.73847377312E+03  0.85860582682E+02 0.  0.
         23    2    4    4    0    0  0.18049990075E+03 -0.80232820362E+03  0.75763249184E+03  0.11222171493E+04  0.95150285796E+02 0.  0.
          5    1    3    3  502    0 -0.22213980348E+03  0.79162143892E+03  0.20914515169E+04  0.22472654789E+04  0.47000000000E+01 0. -1.
         -5    1    3    3    0  502 -0.22207494582E+02  0.13522484060E+03  0.26915890543E+03  0.30207207204E+03  0.47000000000E+01 0.  1.
         13    1    5    5    0    0 -0.15439842528E+02  0.11847241061E+01  0.74504278959E+02  0.76096516949E+02  0.00000000000E+00 0.  1.
        -13    1    5    5    0    0  0.79287239842E+02 -0.12570280001E+03  0.64548893807E+03  0.66237725617E+03  0.00000000000E+00 0. -1.
          3    1    6    6  503    0  0.18477870227E+02 -0.25137512738E+03  0.20021914829E+03  0.32189842139E+03  0.00000000000E+00 0. -1.
         -3    1    6    6    0  503  0.16202203052E+03 -0.55095307624E+03  0.55741334355E+03  0.80031872786E+03  0.00000000000E+00 0.  1.
<mgrwt>
<rscale>  0 0.97488458E+03</rscale>
<asrwt>0</asrwt>
<pdfrwt beam="1">  1        2 0.63448185E+00 0.97488458E+03</pdfrwt>
<pdfrwt beam="2">  1       -2 0.43984029E-01 0.97488458E+03</pdfrwt>
<totfact> 0.14095575E+00</totfact>
</mgrwt>
</event>
<event>
12    1  0.3203156E-008  0.9970950E+03  0.7818608E-02  0.9311737E-01
          1   -1    0    0  501    0  0.00000000000E+00  0.00000000000E+00  0.19618598155E+04  0.19618598155E+04  0.00000000000E+00 0. -1.
         -1   -1    0    0    0  501 -0.00000000000E+00 -0.00000000000E+00 -0.91791853356E+03  0.91791853356E+03  0.00000000000E+00 0.  1.
         23    2    1    2    0    0 -0.69902387791E+03 -0.60420229341E+03  0.14366336999E+04  0.17105422422E+04  0.91343205805E+02 0.  0.
    5000000    2    1    2    0    0  0.69902387791E+03  0.60420229341E+03 -0.39269241797E+03  0.11692361069E+04  0.59934209371E+03 0.  0.
         23    2    4    4    0    0  0.63426024702E+03  0.68629889465E+03 -0.41813645086E+03  0.10278017510E+04  0.90808116631E+02 0.  0.
         23    2    4    4    0    0  0.64763630887E+02 -0.82096601239E+02  0.25444032886E+02  0.14143435591E+03  0.91771991382E+02 0.  0.
          5    1    3    3  502    0 -0.55700311106E+03 -0.52530350742E+03  0.12007023951E+04  0.14240451440E+04  0.47000000000E+01 0. -1.
         -5    1    3    3    0  502 -0.14202076685E+03 -0.78898785995E+02  0.23593130480E+03  0.28649709812E+03  0.47000000000E+01 0.  1.
         11    1    5    5    0    0  0.55048868059E+03  0.61950136533E+03 -0.34291070042E+03  0.89688766162E+03  0.00000000000E+00 0. -1.
        -11    1    5    5    0    0  0.83771566433E+02  0.66797529319E+02 -0.75225750441E+02  0.13091408937E+03  0.00000000000E+00 0.  1.
          4    1    6    6  503    0 -0.17928101987E+02 -0.18842700098E+02 -0.14672753058E+02  0.29862248243E+02  0.00000000000E+00 0. -1.
         -4    1    6    6    0  503  0.82691732874E+02 -0.63253901141E+02  0.40116785944E+02  0.11157210767E+03  0.00000000000E+00 0.  1.
<mgrwt>
<rscale>  0 0.99709505E+03</rscale>
<asrwt>0</asrwt>
<pdfrwt beam="1">  1        1 0.30182459E+00 0.99709505E+03</pdfrwt>
<pdfrwt beam="2">  1       -1 0.14121824E+00 0.99709505E+03</pdfrwt>
<totfact> 0.13101786E+00</totfact>
</mgrwt>
</event>
<event>
12    1  0.3203156E-008  0.7814668E+03  0.7818608E-02  0.9587237E-01
          2   -1    0    0  501    0  0.00000000000E+00  0.00000000000E+00  0.15833618848E+04  0.15833618848E+04  0.00000000000E+00 0. -1.
         -2   -1    0    0    0  501 -0.00000000000E+00 -0.00000000000E+00 -0.48720894873E+03  0.48720894873E+03  0.00000000000E+00 0.  1.
         23    2    1    2    0    0 -0.66148025543E+03  0.37495480815E+03  0.32254745983E+03  0.83091516713E+03  0.90751940195E+02 0.  0.
    5000000    2    1    2    0    0  0.66148025543E+03 -0.37495480815E+03  0.77360547621E+03  0.12396556664E+04  0.60011124124E+03 0.  0.
         23    2    4    4    0    0  0.38132988778E+03 -0.13307206087E+03  0.46285319896E+02  0.41758482863E+03  0.95467803824E+02 0.  0.
         23    2    4    4    0    0  0.28015036765E+03 -0.24188274728E+03  0.72732015631E+03  0.82207083774E+03  0.99067454596E+02 0.  0.
          5    1    3    3  502    0 -0.29344825111E+03  0.21752485232E+03  0.14625736237E+03  0.39349999174E+03  0.47000000000E+01 0. -1.
         -5    1    3    3    0  502 -0.36803200432E+03  0.15742995583E+03  0.17629009746E+03  0.43741517539E+03  0.47000000000E+01 0.  1.
         13    1    5    5    0    0  0.10481196401E+03  0.53218234140E+01  0.23387607300E+02  0.10752139220E+03  0.00000000000E+00 0.  1.
        -13    1    5    5    0    0  0.27651792376E+03 -0.13839388428E+03  0.22897712596E+02  0.31006343643E+03  0.00000000000E+00 0. -1.
          4    1    6    6  503    0  0.61133284896E+02 -0.62647934024E+01  0.11877202468E+03  0.13372853101E+03  0.00000000000E+00 0.  1.
         -4    1    6    6    0  503  0.21901708276E+03 -0.23561795388E+03  0.60854813163E+03  0.68834230674E+03  0.00000000000E+00 0. -1.
<mgrwt>
<rscale>  0 0.78146683E+03</rscale>
<asrwt>0</asrwt>
<pdfrwt beam="1">  1        2 0.24359413E+00 0.78146683E+03</pdfrwt>
<pdfrwt beam="2">  1       -2 0.74955223E-01 0.78146683E+03</pdfrwt>
<totfact> 0.18611888E+01</totfact>
</mgrwt>
</event>
<event>
12    1  0.3203156E-008  0.1750589E+04  0.7818608E-02  0.8733026E-01
         -2   -1    0    0    0  501 -0.00000000000E+00  0.00000000000E+00  0.12318870146E+04  0.12318870146E+04  0.00000000000E+00 0.  1.
          2   -1    0    0  501    0  0.00000000000E+00 -0.00000000000E+00 -0.30117481438E+04  0.30117481438E+04  0.00000000000E+00 0. -1.
         23    2    1    2    0    0  0.17127460848E+04  0.27954821036E+01 -0.19385710536E+02  0.17151807767E+04  0.89231861934E+02 0.  0.
    5000000    2    1    2    0    0 -0.17127460848E+04 -0.27954821036E+01 -0.17604754187E+04  0.25284543817E+04  0.60025069300E+03 0.  0.
         23    2    4    4    0    0 -0.39858722002E+03  0.20830736784E+03 -0.28840683640E+03  0.54197158378E+03  0.91054724691E+02 0.  0.
         23    2    4    4    0    0 -0.13141588648E+04 -0.21110284995E+03 -0.14720685823E+04  0.19864827979E+04  0.86891081415E+02 0.  0.
          5    1    3    3  502    0  0.73591745296E+03  0.43203992727E+02  0.45130656332E+01  0.73721336147E+03  0.47000000000E+01 0. -1.
         -5    1    3    3    0  502  0.97682863188E+03 -0.40408510623E+02 -0.23898776169E+02  0.97796741525E+03  0.47000000000E+01 0.  1.
         13    1    5    5    0    0 -0.68741033697E+02  0.58261745610E+02 -0.96087190314E+02  0.13172892187E+03  0.00000000000E+00 0.  1.
        -13    1    5    5    0    0 -0.32984618632E+03  0.15004562223E+03 -0.19231964608E+03  0.41024266191E+03  0.00000000000E+00 0. -1.
          1    1    6    6  503    0 -0.67996778399E+03 -0.15306050118E+03 -0.77409558084E+03  0.10416370157E+04  0.00000000000E+00 0. -1.
         -1    1    6    6    0  503 -0.63419108083E+03 -0.58042348766E+02 -0.69797300144E+03  0.94484578213E+03  0.00000000000E+00 0.  1.
<mgrwt>
<rscale>  0 0.17505892E+04</rscale>
<asrwt>0</asrwt>
<pdfrwt beam="1">  1        2 0.46334586E+00 0.17505892E+04</pdfrwt>
<pdfrwt beam="2">  1       -2 0.18952108E+00 0.17505892E+04</pdfrwt>
<totfact> 0.24519419E-01</totfact>
</mgrwt>
</event>
<event>
12    1  0.3203156E-008  0.5257143E+03  0.7818608E-02  0.1007277E+00
         -2   -1    0    0    0  501 -0.00000000000E+00  0.00000000000E+00  0.36743506476E+03  0.36743506476E+03  0.00000000000E+00 0.  1.
          2   -1    0    0  501    0  0.00000000000E+00 -0.00000000000E+00 -0.89475320102E+03  0.89475320102E+03  0.00000000000E+00 0. -1.
         23    2    1    2    0    0  0.35448524524E+03 -0.66870778594E+02 -0.40750448095E+03  0.55198183795E+03  0.92155072058E+02 0.  0.
    5000000    2    1    2    0    0 -0.35448524524E+03  0.66870778594E+02 -0.11981365531E+03  0.71020642783E+03  0.59992196827E+03 0.  0.
         23    2    4    4    0    0  0.14719045433E+03  0.14181471888E+02  0.33496190167E+02  0.17651285986E+03  0.90380589458E+02 0.  0.
         23    2    4    4    0    0 -0.50167569957E+03  0.52689306707E+02 -0.15330984548E+03  0.53369356797E+03  0.82886942199E+02 0.  0.
          5    1    3    3  502    0  0.14960389677E+03  0.67412064699E+01 -0.21020727474E+03  0.25813941611E+03  0.47000000000E+01 0. -1.
         -5    1    3    3    0  502  0.20488134847E+03 -0.73611985064E+02 -0.19729720622E+03  0.29384242185E+03  0.47000000000E+01 0.  1.
         11    1    5    5    0    0  0.86045109048E+02  0.52202633294E+02  0.27098375123E+02  0.10422666477E+03  0.00000000000E+00 0. -1.
        -11    1    5    5    0    0  0.61145345283E+02 -0.38021161406E+02  0.63978150440E+01  0.72286195099E+02  0.00000000000E+00 0.  1.
          4    1    6    6  503    0 -0.36065036840E+03 -0.68070793984E-02 -0.10825877014E+03  0.37654833632E+03  0.00000000000E+00 0. -1.
         -4    1    6    6    0  503 -0.14102533117E+03  0.52696113786E+02 -0.45051075340E+02  0.15714523165E+03  0.00000000000E+00 0.  1.
<mgrwt>
<rscale>  0 0.52571429E+03</rscale>
<asrwt>0</asrwt>
<pdfrwt beam="1">  1        2 0.13765434E+00 0.52571429E+03</pdfrwt>
<pdfrwt beam="2">  1       -2 0.56528472E-01 0.52571429E+03</pdfrwt>
<totfact> 0.89644641E+01</totfact>
</mgrwt>
</event>
<event>
12    1  0.3203156E-008  0.1043826E+04  0.7818608E-02  0.9261741E-01
          1   -1    0    0  501    0  0.00000000000E+00  0.00000000000E+00  0.12103722703E+04  0.12103722703E+04  0.00000000000E+00 0. -1.
         -1   -1    0    0    0  501 -0.00000000000E+00 -0.00000000000E+00 -0.10962357390E+04  0.10962357390E+04  0.00000000000E+00 0.  1.
         23    2    1    2    0    0 -0.57315452366E+02 -0.96754015353E+03 -0.40571414689E+03  0.10537957790E+04  0.80390081267E+02 0.  0.
    5000000    2    1    2    0    0  0.57315452366E+02  0.96754015353E+03  0.51985067818E+03  0.12528122303E+04  0.59989561349E+03 0.  0.
         23    2    4    4    0    0 -0.24516126616E+03  0.46881201450E+03  0.15493476986E+03  0.55890316157E+03  0.92082624533E+02 0.  0.
         23    2    4    4    0    0  0.30247671853E+03  0.49872813904E+03  0.36491590833E+03  0.69390906876E+03  0.90134641709E+02 0.  0.
          5    1    3    3  502    0 -0.59202871581E+01 -0.53370818695E+03 -0.25587884886E+03  0.59192529420E+03  0.47000000000E+01 0. -1.
         -5    1    3    3    0  502 -0.51395165208E+02 -0.43383196658E+03 -0.14983529803E+03  0.46187048485E+03  0.47000000000E+01 0.  1.
         13    1    5    5    0    0 -0.11036262447E+03  0.14517600139E+03  0.85915487615E+02  0.20158732914E+03  0.00000000000E+00 0.  1.
        -13    1    5    5    0    0 -0.13479864169E+03  0.32363601310E+03  0.69019282240E+02  0.35731583243E+03  0.00000000000E+00 0. -1.
          3    1    6    6  503    0  0.25227117466E+03  0.43579217409E+03  0.27701420694E+03  0.57471074065E+03  0.00000000000E+00 0. -1.
         -3    1    6    6    0  503  0.50205543869E+02  0.62935964940E+02  0.87901701384E+02  0.11919832811E+03  0.00000000000E+00 0.  1.
<mgrwt>
<rscale>  0 0.10438262E+04</rscale>
<asrwt>0</asrwt>
<pdfrwt beam="1">  1        1 0.18621112E+00 0.10438262E+04</pdfrwt>
<pdfrwt beam="2">  1       -1 0.16865165E+00 0.10438262E+04</pdfrwt>
<totfact> 0.26390623E+00</totfact>
</mgrwt>
</event>
<event>
12    1  0.3203156E-008  0.5255439E+03  0.7818608E-02  0.1007319E+00
         -1   -1    0    0    0  501 -0.00000000000E+00  0.00000000000E+00  0.17988116022E+03  0.17988116022E+03  0.00000000000E+00 0.  1.
          1   -1    0    0  501    0  0.00000000000E+00 -0.00000000000E+00 -0.16328925402E+04  0.16328925402E+04  0.00000000000E+00 0. -1.
         23    2    1    2    0    0 -0.31848168716E+03 -0.15974610140E+03 -0.35375341458E+03  0.51073366146E+03  0.93584147436E+02 0.  0.
    5000000    2    1    2    0    0  0.31848168716E+03  0.15974610140E+03 -0.10992579654E+04  0.13020400390E+04  0.59999232213E+03 0.  0.
         23    2    4    4    0    0  0.25788217140E+03 -0.18971900758E+03 -0.53575145732E+03  0.63079636439E+03  0.91530940907E+02 0.  0.
         23    2    4    4    0    0  0.60599515758E+02  0.34946510897E+03 -0.56350650810E+03  0.67124367459E+03  0.85031301975E+02 0.  0.
          5    1    3    3  502    0 -0.96359684340E+02 -0.14444108629E+02 -0.58766701911E+02  0.11388343292E+03  0.47000000000E+01 0. -1.
         -5    1    3    3    0  502 -0.22212200282E+03 -0.14530199277E+03 -0.29498671267E+03  0.39685022854E+03  0.47000000000E+01 0.  1.
         13    1    5    5    0    0  0.20881765646E+02  0.95357364792E+01 -0.29750872165E+02  0.37577823265E+02  0.00000000000E+00 0.  1.
        -13    1    5    5    0    0  0.23700040575E+03 -0.19925474406E+03 -0.50600058515E+03  0.59321854112E+03  0.00000000000E+00 0. -1.
          1    1    6    6  503    0  0.15332659525E+01  0.61690597942E+02 -0.49095062942E+02  0.78856870241E+02  0.00000000000E+00 0. -1.
         -1    1    6    6    0  503  0.59066249805E+02  0.28777451103E+03 -0.51441144516E+03  0.59238680435E+03  0.00000000000E+00 0.  1.
<mgrwt>
<rscale>  0 0.52554388E+03</rscale>
<asrwt>0</asrwt>
<pdfrwt beam="1">  1        1 0.25121424E+00 0.52554388E+03</pdfrwt>
<pdfrwt beam="2">  1       -1 0.27674025E-01 0.52554388E+03</pdfrwt>
<totfact> 0.65764977E+01</totfact>
</mgrwt>
</event>
<event>
12    1  0.3203156E-008  0.7923620E+03  0.7818608E-02  0.9571139E-01
         -1   -1    0    0    0  501 -0.00000000000E+00  0.00000000000E+00  0.12428709821E+04  0.12428709821E+04  0.00000000000E+00 0.  1.
          1   -1    0    0  501    0  0.00000000000E+00 -0.00000000000E+00 -0.67231874444E+03  0.67231874444E+03  0.00000000000E+00 0. -1.
         23    2    1    2    0    0  0.69576919886E+03 -0.79766355109E+02  0.68690680567E+03  0.98539103415E+03  0.93258141818E+02 0.  0.
    5000000    2    1    2    0    0 -0.69576919886E+03  0.79766355109E+02 -0.11635456798E+03  0.92979869242E+03  0.60044131558E+03 0.  0.
         23    2    4    4    0    0 -0.58515877677E+03 -0.16326077977E+03  0.25015646704E+02  0.61461447623E+03  0.89779148856E+02 0.  0.
         23    2    4    4    0    0 -0.11061042208E+03  0.24302713488E+03 -0.14137021469E+03  0.31518421619E+03  0.89770255520E+02 0.  0.
          5    1    3    3  502    0  0.25609970415E+03  0.14900787000E+02  0.23939017669E+03  0.35091143984E+03  0.47000000000E+01 0. -1.
         -5    1    3    3    0  502  0.43966949471E+03 -0.94667142108E+02  0.44751662898E+03  0.63447959430E+03  0.47000000000E+01 0.  1.
         11    1    5    5    0    0 -0.27344676641E+03 -0.41055414639E+02  0.40413874226E+02  0.27944939141E+03  0.00000000000E+00 0.  1.
        -11    1    5    5    0    0 -0.31171201036E+03 -0.12220536513E+03 -0.15398227522E+02  0.33516508482E+03  0.00000000000E+00 0. -1.
          1    1    6    6  503    0 -0.14197525670E+02  0.27602660011E+02 -0.56329562302E+02  0.64315598139E+02  0.00000000000E+00 0. -1.
         -1    1    6    6    0  503 -0.96412896415E+02  0.21542447487E+03 -0.85040652386E+02  0.25086861805E+03  0.00000000000E+00 0.  1.
<mgrwt>
<rscale>  0 0.79236197E+03</rscale>
<asrwt>0</asrwt>
<pdfrwt beam="1">  1        1 0.10343365E+00 0.79236197E+03</pdfrwt>
<pdfrwt beam="2">  1       -1 0.19121092E+00 0.79236197E+03</pdfrwt>
<totfact> 0.51656144E+00</totfact>
</mgrwt>
</event>
<event>
12    1  0.3689017E-008  0.7761886E+03  0.7818608E-02  0.9595137E-01
         -1   -1    0    0    0  501 -0.00000000000E+00  0.00000000000E+00  0.54226457891E+03  0.54226457891E+03  0.00000000000E+00 0.  1.
          1   -1    0    0  501    0  0.00000000000E+00 -0.00000000000E+00 -0.15333892357E+04  0.15333892357E+04  0.00000000000E+00 0. -1.
         23    2    1    2    0    0  0.82969893024E+02 -0.72365444682E+03 -0.38898603879E+02  0.73500875901E+03  0.90360460870E+02 0.  0.
    5000000    2    1    2    0    0 -0.82969893024E+02  0.72365444682E+03 -0.95222605290E+03  0.13406450556E+04  0.60002912238E+03 0.  0.
         23    2    4    4    0    0  0.12281274825E+03  0.13485428806E+03 -0.56573204829E+03  0.60113632666E+03  0.89685464974E+02 0.  0.
         23    2    4    4    0    0 -0.20578264128E+03  0.58880015876E+03 -0.38649400461E+03  0.73950872893E+03  0.91996859493E+02 0.  0.
          5    1    3    3  502    0  0.41815124960E+02 -0.29604109510E+03 -0.59587202506E+02  0.30489598123E+03  0.47000000000E+01 0. -1.
         -5    1    3    3    0  502  0.41154768064E+02 -0.42761335172E+03  0.20688598627E+02  0.43011277779E+03  0.47000000000E+01 0.  1.
         13    1    5    5    0    0  0.52370952773E+02  0.10879682765E+03 -0.26574721292E+03  0.29189218485E+03  0.00000000000E+00 0.  1.
        -13    1    5    5    0    0  0.70441795481E+02  0.26057460412E+02 -0.29998483537E+03  0.30924414181E+03  0.00000000000E+00 0. -1.
          3    1    6    6  503    0 -0.11560617480E+03  0.22351546741E+03 -0.12245765460E+03  0.27985680087E+03  0.00000000000E+00 0. -1.
         -3    1    6    6    0  503 -0.90176466475E+02  0.36528469134E+03 -0.26403635001E+03  0.45965192805E+03  0.00000000000E+00 0.  1.
<mgrwt>
<rscale>  0 0.77618859E+03</rscale>
<asrwt>0</asrwt>
<pdfrwt beam="1">  1        1 0.23590604E+00 0.77618859E+03</pdfrwt>
<pdfrwt beam="2">  1       -1 0.83425319E-01 0.77618859E+03</pdfrwt>
<totfact> 0.91548838E+00</totfact>
</mgrwt>
</event>
<event>
12    1  0.3203156E-008  0.7171761E+03  0.7818608E-02  0.9688301E-01
          2   -1    0    0  501    0  0.00000000000E+00  0.00000000000E+00  0.57472159509E+03  0.57472159509E+03  0.00000000000E+00 0. -1.
         -2   -1    0    0    0  501 -0.00000000000E+00 -0.00000000000E+00 -0.17743278131E+04  0.17743278131E+04  0.00000000000E+00 0.  1.
         23    2    1    2    0    0 -0.14187386344E+03  0.68471480027E+03 -0.12404458038E+04  0.14268369589E+04  0.90528250891E+02 0.  0.
    5000000    2    1    2    0    0  0.14187386344E+03 -0.68471480027E+03  0.40839585875E+02  0.92221244923E+03  0.59987113526E+03 0.  0.
         23    2    4    4    0    0  0.12763218451E+03 -0.53809006323E+03 -0.22587066365E+03  0.60393378622E+03  0.88811996772E+02 0.  0.
         23    2    4    4    0    0  0.14241678936E+02 -0.14662473704E+03  0.26671024953E+03  0.31827866301E+03  0.92007125792E+02 0.  0.
          5    1    3    3  502    0 -0.37544580980E+02  0.39373794461E+03 -0.71977687174E+03  0.82130384126E+03  0.47000000000E+01 0. -1.
         -5    1    3    3    0  502 -0.10432928246E+03  0.29097685566E+03 -0.52066893210E+03  0.60553311764E+03  0.47000000000E+01 0.  1.
         11    1    5    5    0    0  0.76076061332E+02 -0.42395938696E+03 -0.14336321362E+03  0.45396270764E+03  0.00000000000E+00 0. -1.
        -11    1    5    5    0    0  0.51556123174E+02 -0.11413067626E+03 -0.82507450029E+02  0.14997107858E+03  0.00000000000E+00 0.  1.
          1    1    6    6  503    0  0.52157177789E+02 -0.10586088054E+03  0.18208198777E+03  0.21698098418E+03  0.00000000000E+00 0. -1.
         -1    1    6    6    0  503 -0.37915498853E+02 -0.40763856495E+02  0.84628261759E+02  0.10129767884E+03  0.00000000000E+00 0.  1.
<mgrwt>
<rscale>  0 0.71717607E+03</rscale>
<asrwt>0</asrwt>
<pdfrwt beam="1">  1        2 0.88418708E-01 0.71717607E+03</pdfrwt>
<pdfrwt beam="2">  1       -2 0.27297351E+00 0.71717607E+03</pdfrwt>
<totfact> 0.25263652E+00</totfact>
</mgrwt>
</event>
<event>
12    1  0.3203156E-008  0.7630795E+03  0.7818608E-02  0.9615051E-01
          1   -1    0    0  501    0  0.00000000000E+00  0.00000000000E+00  0.10341956810E+04  0.10341956810E+04  0.00000000000E+00 0. -1.
         -1   -1    0    0    0  501 -0.00000000000E+00 -0.00000000000E+00 -0.66682805286E+03  0.66682805286E+03  0.00000000000E+00 0.  1.
         23    2    1    2    0    0  0.71629237766E+03 -0.14243776746E+02  0.10048715514E+03  0.72915938416E+03  0.91093818084E+02 0.  0.
    5000000    2    1    2    0    0 -0.71629237766E+03  0.14243776746E+02  0.26688047303E+03  0.97186434971E+03  0.60001455973E+03 0.  0.
         23    2    4    4    0    0 -0.38213911092E+03 -0.16655599550E+03 -0.96526261919E+02  0.43775889042E+03  0.92435529808E+02 0.  0.
         23    2    4    4    0    0 -0.33415326675E+03  0.18079977225E+03  0.36340673495E+03  0.53410545929E+03  0.94112822279E+02 0.  0.
          5    1    3    3  502    0  0.41886860315E+03 -0.35936309241E+02  0.23281141021E+02  0.42107769657E+03  0.47000000000E+01 0. -1.
         -5    1    3    3    0  502  0.29742377452E+03  0.21692532495E+02  0.77206014115E+02  0.30808168759E+03  0.47000000000E+01 0.  1.
         13    1    5    5    0    0 -0.22331684200E+03 -0.95969966141E+02 -0.91678056281E+01  0.24323793903E+03  0.00000000000E+00 0. -1.
        -13    1    5    5    0    0 -0.15882226891E+03 -0.70586029363E+02 -0.87358456291E+02  0.19452095139E+03  0.00000000000E+00 0.  1.
          3    1    6    6  503    0 -0.19177064115E+03  0.52202890685E+02  0.20201036156E+03  0.28338896729E+03  0.00000000000E+00 0. -1.
         -3    1    6    6    0  503 -0.14238262559E+03  0.12859688157E+03  0.16139637339E+03  0.25071649200E+03  0.00000000000E+00 0.  1.
<mgrwt>
<rscale>  0 0.76307950E+03</rscale>
<asrwt>0</asrwt>
<pdfrwt beam="1">  1        1 0.15910703E+00 0.76307950E+03</pdfrwt>
<pdfrwt beam="2">  1       -1 0.10258893E+00 0.76307950E+03</pdfrwt>
<totfact> 0.13169842E+01</totfact>
</mgrwt>
</event>
<event>
12    1  0.3203156E-008  0.5222431E+03  0.7818608E-02  0.1008131E+00
          2   -1    0    0  501    0  0.00000000000E+00  0.00000000000E+00  0.21438072009E+04  0.21438072009E+04  0.00000000000E+00 0. -1.
         -2   -1    0    0    0  501 -0.00000000000E+00 -0.00000000000E+00 -0.98510796187E+03  0.98510796187E+03  0.00000000000E+00 0.  1.
         23    2    1    2    0    0  0.37795639402E+03  0.53967744584E+02 -0.88349746246E+03  0.96647654294E+03  0.88009025945E+02 0.  0.
    5000000    2    1    2    0    0 -0.37795639402E+03 -0.53967744584E+02  0.20421967015E+04  0.21624386198E+04  0.59984153218E+03 0.  0.
         23    2    4    4    0    0 -0.49806369707E+03 -0.10518393870E+03  0.17935561081E+04  0.18667385125E+04  0.93477556367E+02 0.  0.
         23    2    4    4    0    0  0.12010730305E+03  0.51216194120E+02  0.24864059336E+03  0.29570010739E+03  0.92561039621E+02 0.  0.
          5    1    3    3  502    0  0.23077633254E+03 -0.10478013660E+02 -0.52189449489E+03  0.57075691693E+03  0.47000000000E+01 0. -1.
         -5    1    3    3    0  502  0.14718006148E+03  0.64445758244E+02 -0.36160296757E+03  0.39571962601E+03  0.47000000000E+01 0.  1.
         11    1    5    5    0    0 -0.31678179870E+03 -0.42765036008E+02  0.97646617513E+03  0.10274559589E+04  0.00000000000E+00 0. -1.
        -11    1    5    5    0    0 -0.18128189837E+03 -0.62418902697E+02  0.81708993302E+03  0.83928255357E+03  0.00000000000E+00 0.  1.
          3    1    6    6  503    0  0.38243650445E+02  0.45213702261E+02  0.39915767326E+02  0.71415153523E+02  0.00000000000E+00 0. -1.
         -3    1    6    6    0  503  0.81863652601E+02  0.60024918596E+01  0.20872482604E+03  0.22428495386E+03  0.00000000000E+00 0.  1.
<mgrwt>
<rscale>  0 0.52224315E+03</rscale>
<asrwt>0</asrwt>
<pdfrwt beam="1">  1        2 0.32981649E+00 0.52224315E+03</pdfrwt>
<pdfrwt beam="2">  1       -2 0.15155507E+00 0.52224315E+03</pdfrwt>
<totfact> 0.17786284E+00</totfact>
</mgrwt>
</event>
<event>
12    1  0.3203156E-008  0.5984618E+03  0.7818608E-02  0.9908602E-01
         -2   -1    0    0    0  501 -0.00000000000E+00  0.00000000000E+00  0.52617455151E+03  0.52617455151E+03  0.00000000000E+00 0.  1.
          2   -1    0    0  501    0  0.00000000000E+00 -0.00000000000E+00 -0.86209572131E+03  0.86209572131E+03  0.00000000000E+00 0. -1.
         23    2    1    2    0    0  0.39503009199E+03  0.26743518561E+03  0.11487783945E+03  0.49900163894E+03  0.90748915086E+02 0.  0.
    5000000    2    1    2    0    0 -0.39503009199E+03 -0.26743518561E+03 -0.45079900925E+03  0.88926863388E+03  0.60000717028E+03 0.  0.
         23    2    4    4    0    0 -0.19644960211E+02  0.13816373430E+03  0.56430371122E+01  0.16692617777E+03  0.91418614177E+02 0.  0.
         23    2    4    4    0    0 -0.37538513178E+03 -0.40559891991E+03 -0.45644204636E+03  0.72234245611E+03  0.89525422254E+02 0.  0.
          5    1    3    3  502    0  0.63200925502E+02  0.75691041243E+02  0.48620647154E+02  0.11004339162E+03  0.47000000000E+01 0. -1.
         -5    1    3    3    0  502  0.33182916649E+03  0.19174414436E+03  0.66257192299E+02  0.38895824732E+03  0.47000000000E+01 0.  1.
         13    1    5    5    0    0 -0.38466681350E+02  0.22086777903E+02 -0.16388039160E+02  0.47287198688E+02  0.00000000000E+00 0.  1.
        -13    1    5    5    0    0  0.18821721139E+02  0.11607695640E+03  0.22031076273E+02  0.11963897908E+03  0.00000000000E+00 0. -1.
          3    1    6    6  503    0 -0.28733671840E+03 -0.29829707687E+03 -0.38822851883E+03  0.56768381926E+03  0.00000000000E+00 0. -1.
         -3    1    6    6    0  503 -0.88048413378E+02 -0.10730184303E+03 -0.68213527530E+02  0.15465863686E+03  0.00000000000E+00 0.  1.
<mgrwt>
<rscale>  0 0.59846184E+03</rscale>
<asrwt>0</asrwt>
<pdfrwt beam="1">  1        2 0.13263011E+00 0.59846184E+03</pdfrwt>
<pdfrwt beam="2">  1       -2 0.80949932E-01 0.59846184E+03</pdfrwt>
<totfact> 0.43115129E+01</totfact>
</mgrwt>
</event>
<event>
12    1  0.3203156E-008  0.5806625E+03  0.7818608E-02  0.9946358E-01
         -2   -1    0    0    0  501 -0.00000000000E+00  0.00000000000E+00  0.54741146891E+03  0.54741146891E+03  0.00000000000E+00 0.  1.
          2   -1    0    0  501    0  0.00000000000E+00 -0.00000000000E+00 -0.82965390222E+03  0.82965390222E+03  0.00000000000E+00 0. -1.
         23    2    1    2    0    0 -0.46865895713E+03 -0.83134498923E+02  0.13779455582E+03  0.50330454845E+03  0.88179169154E+02 0.  0.
    5000000    2    1    2    0    0  0.46865895713E+03  0.83134498923E+02 -0.42003698913E+03  0.87376082268E+03  0.60039515322E+03 0.  0.
         23    2    4    4    0    0  0.54112902527E+03  0.17046552295E+03 -0.44879683281E+03  0.72774371008E+03  0.79455609684E+02 0.  0.
         23    2    4    4    0    0 -0.72470068144E+02 -0.87331024031E+02  0.28759843677E+02  0.14601711261E+03  0.87265399961E+02 0.  0.
          5    1    3    3  502    0 -0.30118343499E+03 -0.48471717341E+02  0.13114033818E+03  0.33208560221E+03  0.47000000000E+01 0. -1.
         -5    1    3    3    0  502 -0.16747552213E+03 -0.34662781582E+02  0.66542176445E+01  0.17121894625E+03  0.47000000000E+01 0.  1.
         13    1    5    5    0    0  0.38112866970E+03  0.14439921632E+03 -0.28527825480E+03  0.49748756689E+03  0.00000000000E+00 0. -1.
        -13    1    5    5    0    0  0.16000035557E+03  0.26066306629E+02 -0.16351857801E+03  0.23025614319E+03  0.00000000000E+00 0.  1.
          1    1    6    6  503    0 -0.35838280956E+02 -0.26951162505E+02  0.54744728898E+02  0.70765336743E+02  0.00000000000E+00 0. -1.
         -1    1    6    6    0  503 -0.36631787188E+02 -0.60379861526E+02 -0.25984885221E+02  0.75251775863E+02  0.00000000000E+00 0.  1.
<mgrwt>
<rscale>  0 0.58066255E+03</rscale>
<asrwt>0</asrwt>
<pdfrwt beam="1">  1        2 0.12763906E+00 0.58066255E+03</pdfrwt>
<pdfrwt beam="2">  1       -2 0.84217149E-01 0.58066255E+03</pdfrwt>
<totfact> 0.41601370E+01</totfact>
</mgrwt>
</event>
<event>
12    1  0.3203156E-008  0.8625656E+03  0.7818608E-02  0.9473625E-01
          1   -1    0    0  501    0  0.00000000000E+00  0.00000000000E+00  0.19461977285E+04  0.19461977285E+04  0.00000000000E+00 0. -1.
         -1   -1    0    0    0  501 -0.00000000000E+00 -0.00000000000E+00 -0.45890523837E+03  0.45890523837E+03  0.00000000000E+00 0.  1.
         23    2    1    2    0    0  0.77026431591E+03  0.24140164298E+03  0.34121455955E+03  0.88036663659E+03  0.83881878659E+02 0.  0.
    5000000    2    1    2    0    0 -0.77026431591E+03 -0.24140164298E+03  0.11460779306E+04  0.15247363303E+04  0.59978694909E+03 0.  0.
         23    2    4    4    0    0 -0.78134255356E+03 -0.26365568236E+03  0.11664815543E+04  0.14313772881E+04  0.90284103428E+02 0.  0.
         23    2    4    4    0    0  0.11078237643E+02  0.22254039382E+02 -0.20403623774E+02  0.93359042200E+02  0.87644927288E+02 0.  0.
          5    1    3    3  502    0  0.37277695116E+03  0.15626314290E+03  0.18955833018E+03  0.44646979258E+03  0.47000000000E+01 0. -1.
         -5    1    3    3    0  502  0.39748736476E+03  0.85138500078E+02  0.15165622936E+03  0.43389684401E+03  0.47000000000E+01 0.  1.
         13    1    5    5    0    0 -0.51133964493E+03 -0.13787922499E+03  0.69699656951E+03  0.87537599411E+03  0.00000000000E+00 0.  1.
        -13    1    5    5    0    0 -0.27000290863E+03 -0.12577645737E+03  0.46948498481E+03  0.55600129394E+03  0.00000000000E+00 0. -1.
          2    1    6    6  503    0  0.36797571401E+02  0.40991402004E+02 -0.26226501238E+02  0.61009717803E+02  0.00000000000E+00 0. -1.
         -2    1    6    6    0  503 -0.25719333758E+02 -0.18737362621E+02  0.58228774641E+01  0.32349324397E+02  0.00000000000E+00 0.  1.
<mgrwt>
<rscale>  0 0.86256563E+03</rscale>
<asrwt>0</asrwt>
<pdfrwt beam="1">  1        1 0.29941503E+00 0.86256563E+03</pdfrwt>
<pdfrwt beam="2">  1       -1 0.70600807E-01 0.86256563E+03</pdfrwt>
<totfact> 0.67629378E+00</totfact>
</mgrwt>
</event>
<event>
12    1  0.3203156E-008  0.8737787E+03  0.7818608E-02  0.9458966E-01
         -2   -1    0    0    0  501 -0.00000000000E+00  0.00000000000E+00  0.91605777957E+03  0.91605777957E+03  0.00000000000E+00 0.  1.
          2   -1    0    0  501    0  0.00000000000E+00 -0.00000000000E+00 -0.12828370039E+04  0.12828370039E+04  0.00000000000E+00 0. -1.
         23    2    1    2    0    0  0.74657219197E+03 -0.38095571934E+03  0.38086863696E+03  0.92537897290E+03  0.93637743197E+02 0.  0.
    5000000    2    1    2    0    0 -0.74657219197E+03  0.38095571934E+03 -0.74764786129E+03  0.12735158106E+04  0.60030650286E+03 0.  0.
         23    2    4    4    0    0 -0.25491309005E+03  0.30449808365E+03 -0.63669417025E+03  0.75550338014E+03  0.87784534799E+02 0.  0.
         23    2    4    4    0    0 -0.49165910192E+03  0.76457635694E+02 -0.11095369104E+03  0.51801243044E+03  0.91933203890E+02 0.  0.
          5    1    3    3  502    0  0.62824970591E+03 -0.29815471115E+03  0.34596931762E+03  0.77673083078E+03  0.47000000000E+01 0. -1.
         -5    1    3    3    0  502  0.11832248606E+03 -0.82801008197E+02  0.34899319341E+02  0.14864814212E+03  0.47000000000E+01 0.  1.
         11    1    5    5    0    0 -0.21994392851E+03  0.22311746027E+03 -0.44380527950E+03  0.54324935240E+03  0.00000000000E+00 0.  1.
        -11    1    5    5    0    0 -0.34969161547E+02  0.81380623379E+02 -0.19288889075E+03  0.21225402775E+03  0.00000000000E+00 0. -1.
          4    1    6    6  503    0 -0.34713435674E+03  0.95395136774E+02 -0.85977954966E+02  0.37012795421E+03  0.00000000000E+00 0. -1.
         -4    1    6    6    0  503 -0.14452474518E+03 -0.18937501080E+02 -0.24975736076E+02  0.14788447622E+03  0.00000000000E+00 0.  1.
<mgrwt>
<rscale>  0 0.87377870E+03</rscale>
<asrwt>0</asrwt>
<pdfrwt beam="1">  1        2 0.19735954E+00 0.87377870E+03</pdfrwt>
<pdfrwt beam="2">  1       -2 0.14093197E+00 0.87377870E+03</pdfrwt>
<totfact> 0.60071590E+00</totfact>
</mgrwt>
</event>
<event>
12    1  0.3203156E-008  0.1185001E+04  0.7818608E-02  0.9126087E-01
         -2   -1    0    0    0  501 -0.00000000000E+00  0.00000000000E+00  0.76674813447E+03  0.76674813447E+03  0.00000000000E+00 0.  1.
          2   -1    0    0  501    0  0.00000000000E+00 -0.00000000000E+00 -0.19381865330E+04  0.19381865330E+04  0.00000000000E+00 0. -1.
         23    2    1    2    0    0  0.56844289802E+03 -0.99002784403E+03 -0.48941594348E+03  0.12460119965E+04  0.98668482021E+02 0.  0.
    5000000    2    1    2    0    0 -0.56844289802E+03  0.99002784403E+03 -0.68202245504E+03  0.14589226710E+04  0.60001522517E+03 0.  0.
         23    2    4    4    0    0 -0.28847118280E+03  0.85391419406E+03 -0.68336415848E+03  0.11346814796E+04  0.90168802484E+02 0.  0.
         23    2    4    4    0    0 -0.27997171522E+03  0.13611364997E+03  0.13417034438E+01  0.32424119137E+03  0.90661254006E+02 0.  0.
          5    1    3    3  502    0  0.42365585551E+03 -0.72139588470E+03 -0.31139039661E+03  0.89268268465E+03  0.47000000000E+01 0. -1.
         -5    1    3    3    0  502  0.14478704251E+03 -0.26863195933E+03 -0.17802554687E+03  0.35332931182E+03  0.47000000000E+01 0.  1.
         11    1    5    5    0    0 -0.28262344046E+01  0.80986287349E+02 -0.75008914443E+02  0.11042238716E+03  0.00000000000E+00 0. -1.
        -11    1    5    5    0    0 -0.28564494840E+03  0.77292790671E+03 -0.60835524404E+03  0.10242590925E+04  0.00000000000E+00 0.  1.
          1    1    6    6  503    0 -0.23684443698E+03  0.75197586709E+02  0.12320966640E+02  0.24880066438E+03  0.00000000000E+00 0.  1.
         -1    1    6    6    0  503 -0.43127278237E+02  0.60916063262E+02 -0.10979263197E+02  0.75440526985E+02  0.00000000000E+00 0. -1.
<mgrwt>
<rscale>  0 0.11850015E+04</rscale>
<asrwt>0</asrwt>
<pdfrwt beam="1">  1        2 0.29818254E+00 0.11850015E+04</pdfrwt>
<pdfrwt beam="2">  1       -2 0.11796125E+00 0.11850015E+04</pdfrwt>
<totfact> 0.39173313E+00</totfact>
</mgrwt>
</event>
<event>
12    1  0.3203156E-008  0.7710732E+03  0.7818608E-02  0.9602858E-01
          1   -1    0    0  501    0  0.00000000000E+00  0.00000000000E+00  0.19947887653E+04  0.19947887653E+04  0.00000000000E+00 0. -1.
         -1   -1    0    0    0  501 -0.00000000000E+00 -0.00000000000E+00 -0.32078006999E+03  0.32078006999E+03  0.00000000000E+00 0.  1.
         23    2    1    2    0    0 -0.22990576623E+03 -0.61739295727E+03  0.98764515098E+03  0.11907286189E+04  0.91438364674E+02 0.  0.
    5000000    2    1    2    0    0  0.22990576623E+03  0.61739295727E+03  0.68636354429E+03  0.11248402164E+04  0.60011654902E+03 0.  0.
         23    2    4    4    0    0 -0.18960215921E+03  0.20923418344E+03  0.27341115997E+03  0.40271773312E+03  0.87749574796E+02 0.  0.
         23    2    4    4    0    0  0.41950792543E+03  0.40815877383E+03  0.41295238432E+03  0.72212248325E+03  0.91382301072E+02 0.  0.
          5    1    3    3  502    0 -0.18211128068E+03 -0.50552939961E+03  0.73711060279E+03  0.91218343723E+03  0.47000000000E+01 0. -1.
         -5    1    3    3    0  502 -0.47794485541E+02 -0.11186355767E+03  0.25053454819E+03  0.27854518165E+03  0.47000000000E+01 0.  1.
         11    1    5    5    0    0 -0.14246349920E+03  0.10720490196E+03  0.20259091979E+03  0.26987371193E+03  0.00000000000E+00 0.  1.
        -11    1    5    5    0    0 -0.47138660003E+02  0.10202928148E+03  0.70820240179E+02  0.13284402119E+03  0.00000000000E+00 0. -1.
          4    1    6    6  503    0  0.21018405724E+03  0.26742288321E+03  0.23399552676E+03  0.41285135694E+03  0.00000000000E+00 0. -1.
         -4    1    6    6    0  503  0.20932386820E+03  0.14073589062E+03  0.17895685756E+03  0.30927112631E+03  0.00000000000E+00 0.  1.
<mgrwt>
<rscale>  0 0.77107323E+03</rscale>
<asrwt>0</asrwt>
<pdfrwt beam="1">  1        1 0.30689057E+00 0.77107323E+03</pdfrwt>
<pdfrwt beam="2">  1       -1 0.49350781E-01 0.77107323E+03</pdfrwt>
<totfact> 0.12867878E+01</totfact>
</mgrwt>
</event>
<event>
12    1  0.3203156E-008  0.1229308E+04  0.7818608E-02  0.9087583E-01
          2   -1    0    0  501    0  0.00000000000E+00  0.00000000000E+00  0.36031539805E+04  0.36031539805E+04  0.00000000000E+00 0. -1.
         -2   -1    0    0    0  501 -0.00000000000E+00 -0.00000000000E+00 -0.44777882015E+03  0.44777882015E+03  0.00000000000E+00 0.  1.
         23    2    1    2    0    0 -0.10005450099E+04 -0.58495859560E+03  0.10081023829E+04  0.15381855011E+04  0.80481959573E+02 0.  0.
    5000000    2    1    2    0    0  0.10005450099E+04  0.58495859560E+03  0.21472727774E+04  0.25127472995E+04  0.59987643339E+03 0.  0.
         23    2    4    4    0    0 -0.18377200277E+02  0.18158714515E+03  0.38641369742E+03  0.43679349725E+03  0.90340472185E+02 0.  0.
         23    2    4    4    0    0  0.10189222102E+04  0.40337145045E+03  0.17608590800E+04  0.20759538023E+04  0.89713389209E+02 0.  0.
          5    1    3    3  502    0 -0.75136032269E+03 -0.46793389148E+03  0.79904630117E+03  0.11924770617E+04  0.47000000000E+01 0.  1.
         -5    1    3    3    0  502 -0.24918468725E+03 -0.11702470413E+03  0.20905608176E+03  0.34570843938E+03  0.47000000000E+01 0. -1.
         11    1    5    5    0    0 -0.24274016284E+02  0.49400839107E+01  0.71517187134E+02  0.75685800196E+02  0.00000000000E+00 0. -1.
        -11    1    5    5    0    0  0.58968160075E+01  0.17664706124E+03  0.31489651028E+03  0.36110769706E+03  0.00000000000E+00 0.  1.
          3    1    6    6  503    0  0.47939927708E+03  0.21131232311E+03  0.91717031679E+03  0.10562565762E+04  0.00000000000E+00 0. -1.
         -3    1    6    6    0  503  0.53952293313E+03  0.19205912734E+03  0.84368876319E+03  0.10196972261E+04  0.00000000000E+00 0.  1.
<mgrwt>
<rscale>  0 0.12293083E+04</rscale>
<asrwt>0</asrwt>
<pdfrwt beam="1">  1        2 0.55433136E+00 0.12293083E+04</pdfrwt>
<pdfrwt beam="2">  1       -2 0.68889052E-01 0.12293083E+04</pdfrwt>
<totfact> 0.13266762E+00</totfact>
</mgrwt>
</event>
<event>
12    1  0.3203156E-008  0.5846293E+03  0.7818608E-02  0.9937819E-01
         -1   -1    0    0    0  501 -0.00000000000E+00  0.00000000000E+00  0.33931593183E+03  0.33931593183E+03  0.00000000000E+00 0. -1.
          1   -1    0    0  501    0  0.00000000000E+00 -0.00000000000E+00 -0.12853982089E+04  0.12853982089E+04  0.00000000000E+00 0.  1.
         23    2    1    2    0    0 -0.98219544840E+02 -0.42618049252E+03 -0.72169572041E+03  0.84882341049E+03  0.91540035724E+02 0.  0.
    5000000    2    1    2    0    0  0.98219544840E+02  0.42618049252E+03 -0.22438655663E+03  0.77589073021E+03  0.60031675574E+03 0.  0.
         23    2    4    4    0    0 -0.64613511682E+01 -0.13461202972E+03 -0.78761096220E+02  0.18039344948E+03  0.90423109499E+02 0.  0.
         23    2    4    4    0    0  0.10468089601E+03  0.56079252225E+03 -0.14562546041E+03  0.59549728073E+03  0.89240650138E+02 0.  0.
          5    1    3    3  502    0 -0.74580988219E+02 -0.40736145301E+03 -0.64812807632E+03  0.76915393161E+03  0.47000000000E+01 0. -1.
         -5    1    3    3    0  502 -0.23638556621E+02 -0.18819039513E+02 -0.73567644095E+02  0.79669478880E+02  0.47000000000E+01 0.  1.
         11    1    5    5    0    0 -0.30130578541E+02 -0.10609968669E+03 -0.89248753341E+02  0.14188141263E+03  0.00000000000E+00 0.  1.
        -11    1    5    5    0    0  0.23669227373E+02 -0.28512343038E+02  0.10487657122E+02  0.38512036844E+02  0.00000000000E+00 0. -1.
          1    1    6    6  503    0  0.11924286015E+03  0.45440243975E+03 -0.11171095921E+03  0.48288691777E+03  0.00000000000E+00 0. -1.
         -1    1    6    6    0  503 -0.14561964141E+02  0.10639008250E+03 -0.33914501207E+02  0.11261036296E+03  0.00000000000E+00 0.  1.
<mgrwt>
<rscale>  0 0.58462929E+03</rscale>
<asrwt>0</asrwt>
<pdfrwt beam="1">  1        1 0.19775357E+00 0.58462929E+03</pdfrwt>
<pdfrwt beam="2">  1       -1 0.52202450E-01 0.58462929E+03</pdfrwt>
<totfact> 0.35984574E+01</totfact>
</mgrwt>
</event>
<event>
12    1  0.3203156E-008  0.5923409E+03  0.7818608E-02  0.9921425E-01
          2   -1    0    0  501    0  0.00000000000E+00  0.00000000000E+00  0.13169402588E+04  0.13169402588E+04  0.00000000000E+00 0. -1.
         -2   -1    0    0    0  501 -0.00000000000E+00 -0.00000000000E+00 -0.33284842872E+03  0.33284842872E+03  0.00000000000E+00 0.  1.
         23    2    1    2    0    0  0.25321926407E+03  0.42719539306E+03  0.19556810617E+03  0.54142912074E+03  0.91009390130E+02 0.  0.
    5000000    2    1    2    0    0 -0.25321926407E+03 -0.42719539306E+03  0.78852372391E+03  0.11083595668E+04  0.60006280216E+03 0.  0.
         23    2    4    4    0    0 -0.28575570774E+03 -0.51082657038E+02  0.10347067147E+03  0.32108251071E+03  0.90122341688E+02 0.  0.
         23    2    4    4    0    0  0.32536443677E+02 -0.37611273602E+03  0.68505305244E+03  0.78727705606E+03  0.89375992179E+02 0.  0.
          5    1    3    3  502    0  0.16625356078E+03  0.20198093004E+03  0.12425200358E+03  0.28965012163E+03  0.47000000000E+01 0. -1.
         -5    1    3    3    0  502  0.86965703290E+02  0.22521446302E+03  0.71316102589E+02  0.25177899911E+03  0.47000000000E+01 0.  1.
         13    1    5    5    0    0 -0.28161485455E+03 -0.64634918737E+02  0.93255043984E+02  0.30361340921E+03  0.00000000000E+00 0. -1.
        -13    1    5    5    0    0 -0.41408531954E+01  0.13552261699E+02  0.10215627488E+02  0.17469101503E+02  0.00000000000E+00 0.  1.
          1    1    6    6  503    0  0.35731137305E+02 -0.36816048620E+03  0.68524629098E+03  0.77870491014E+03  0.00000000000E+00 0. -1.
         -1    1    6    6    0  503 -0.31946936280E+01 -0.79522498251E+01 -0.19323853688E+00  0.85721459268E+01  0.00000000000E+00 0.  1.
<mgrwt>
<rscale>  0 0.59234092E+03</rscale>
<asrwt>0</asrwt>
<pdfrwt beam="1">  1        2 0.20260619E+00 0.59234092E+03</pdfrwt>
<pdfrwt beam="2">  1       -2 0.51207451E-01 0.59234092E+03</pdfrwt>
<totfact> 0.60325816E+01</totfact>
</mgrwt>
</event>
<event>
12    1  0.3203156E-008  0.6739799E+03  0.7818608E-02  0.9762795E-01
         -3   -1    0    0    0  501 -0.00000000000E+00  0.00000000000E+00  0.17263202798E+04  0.17263202798E+04  0.00000000000E+00 0.  1.
          3   -1    0    0  501    0  0.00000000000E+00 -0.00000000000E+00 -0.29446592296E+03  0.29446592296E+03  0.00000000000E+00 0. -1.
         23    2    1    2    0    0  0.89862077406E+02 -0.52961351691E+03  0.27335645567E+03  0.60987681679E+03  0.93060784219E+02 0.  0.
    5000000    2    1    2    0    0 -0.89862077406E+02  0.52961351691E+03  0.11584979012E+04  0.14109093860E+04  0.59998519830E+03 0.  0.
         23    2    4    4    0    0  0.70370595663E+02  0.59958326373E+03  0.86454233034E+03  0.10586263816E+04  0.93831039950E+02 0.  0.
         23    2    4    4    0    0 -0.16023267307E+03 -0.69969746821E+02  0.29395557086E+03  0.35228300438E+03  0.84398830216E+02 0.  0.
          5    1    3    3  502    0  0.84840239157E+02 -0.24717602241E+03  0.15233755274E+03  0.30252714293E+03  0.47000000000E+01 0. -1.
         -5    1    3    3    0  502  0.50218382489E+01 -0.28243749450E+03  0.12101890292E+03  0.30734967386E+03  0.47000000000E+01 0.  1.
         13    1    5    5    0    0  0.89022400391E+02  0.40816265358E+03  0.56542443884E+03  0.70301247186E+03  0.00000000000E+00 0.  1.
        -13    1    5    5    0    0 -0.18651804729E+02  0.19142061014E+03  0.29911789150E+03  0.35561390977E+03  0.00000000000E+00 0. -1.
          2    1    6    6  503    0 -0.11428538092E+03 -0.88390031295E+02  0.21243308909E+03  0.25690808330E+03  0.00000000000E+00 0.  1.
         -2    1    6    6    0  503 -0.45947292144E+02  0.18420284474E+02  0.81522481776E+02  0.95374921077E+02  0.00000000000E+00 0. -1.
<mgrwt>
<rscale>  0 0.67397995E+03</rscale>
<asrwt>0</asrwt>
<pdfrwt beam="1">  1        3 0.45302451E-01 0.67397995E+03</pdfrwt>
<pdfrwt beam="2">  1       -3 0.26558773E+00 0.67397995E+03</pdfrwt>
<totfact> 0.76690444E-01</totfact>
</mgrwt>
</event>
<event>
12    1  0.3203156E-008  0.1164117E+04  0.7818608E-02  0.9144858E-01
         -2   -1    0    0    0  501 -0.00000000000E+00  0.00000000000E+00  0.11874944983E+04  0.11874944983E+04  0.00000000000E+00 0.  1.
          2   -1    0    0  501    0  0.00000000000E+00 -0.00000000000E+00 -0.13327262965E+04  0.13327262965E+04  0.00000000000E+00 0. -1.
         23    2    1    2    0    0  0.10890822586E+04 -0.32741131600E+03 -0.40076078513E+03  0.12092618547E+04  0.91688005458E+02 0.  0.
    5000000    2    1    2    0    0 -0.10890822586E+04  0.32741131600E+03  0.25552898694E+03  0.13109589402E+04  0.60001661966E+03 0.  0.
         23    2    4    4    0    0 -0.10497610940E+04  0.25265030008E+03  0.67322150494E+02  0.10857039052E+04  0.91597867222E+02 0.  0.
         23    2    4    4    0    0 -0.39321164639E+02  0.74761015921E+02  0.18820683645E+03  0.22525503500E+03  0.90458023506E+02 0.  0.
          5    1    3    3  502    0  0.94834586310E+03 -0.25239594285E+03 -0.34580228138E+03  0.10405118432E+04  0.47000000000E+01 0. -1.
         -5    1    3    3    0  502  0.14073639552E+03 -0.75015373159E+02 -0.54958503755E+02  0.16875001147E+03  0.47000000000E+01 0.  1.
         13    1    5    5    0    0 -0.51110078689E+02  0.29198659411E+02 -0.88679306582E+01  0.59526817899E+02  0.00000000000E+00 0.  1.
        -13    1    5    5    0    0 -0.99865101529E+03  0.22345164067E+03  0.76190081152E+02  0.10261770873E+04  0.00000000000E+00 0. -1.
          3    1    6    6  503    0 -0.20271764844E+02  0.82195178370E+02  0.18640322039E+03  0.20472701915E+03  0.00000000000E+00 0. -1.
         -3    1    6    6    0  503 -0.19049399795E+02 -0.74341624487E+01  0.18036160552E+01  0.20528015850E+02  0.00000000000E+00 0.  1.
<mgrwt>
<rscale>  0 0.11641165E+04</rscale>
<asrwt>0</asrwt>
<pdfrwt beam="1">  1        2 0.20503482E+00 0.11641165E+04</pdfrwt>
<pdfrwt beam="2">  1       -2 0.18269146E+00 0.11641165E+04</pdfrwt>
<totfact> 0.26782087E+00</totfact>
</mgrwt>
</event>
<event>
12    1  0.3203156E-008  0.4147290E+03  0.7818608E-02  0.1038796E+00
         -1   -1    0    0    0  501 -0.00000000000E+00  0.00000000000E+00  0.23695541748E+03  0.23695541748E+03  0.00000000000E+00 0.  1.
          1   -1    0    0  501    0  0.00000000000E+00 -0.00000000000E+00 -0.11554455561E+04  0.11554455561E+04  0.00000000000E+00 0. -1.
         23    2    1    2    0    0  0.29837749860E+03 -0.94860036719E+02 -0.49960434864E+03  0.59645697092E+03  0.90160161605E+02 0.  0.
    5000000    2    1    2    0    0 -0.29837749860E+03  0.94860036719E+02 -0.41888578995E+03  0.79594400262E+03  0.60002832604E+03 0.  0.
         23    2    4    4    0    0  0.80789834412E+02  0.34079176438E+02 -0.37758100720E+03  0.39838749352E+03  0.91960808918E+02 0.  0.
         23    2    4    4    0    0 -0.37916733301E+03  0.60780860281E+02 -0.41304782745E+02  0.39755650911E+03  0.94249209332E+02 0.  0.
          5    1    3    3  502    0  0.10987875978E+03 -0.80825602109E+02 -0.22109339985E+03  0.25982783004E+03  0.47000000000E+01 0. -1.
         -5    1    3    3    0  502  0.18849873882E+03 -0.14034434610E+02 -0.27851094878E+03  0.33662914087E+03  0.47000000000E+01 0.  1.
         13    1    5    5    0    0  0.38281494953E+02  0.57359430273E+02 -0.14183270257E+03  0.15770888566E+03  0.00000000000E+00 0.  1.
        -13    1    5    5    0    0  0.42508339459E+02 -0.23280253835E+02 -0.23574830463E+03  0.24067860786E+03  0.00000000000E+00 0. -1.
          2    1    6    6  503    0 -0.42156926158E+02 -0.69287565223E+01 -0.32533649636E+02  0.53699650359E+02  0.00000000000E+00 0. -1.
         -2    1    6    6    0  503 -0.33701040685E+03  0.67709616803E+02 -0.87711331096E+01  0.34385685875E+03  0.00000000000E+00 0.  1.
<mgrwt>
<rscale>  0 0.41472902E+03</rscale>
<asrwt>0</asrwt>
<pdfrwt beam="1">  1        1 0.17776086E+00 0.41472902E+03</pdfrwt>
<pdfrwt beam="2">  1       -1 0.36454679E-01 0.41472902E+03</pdfrwt>
<totfact> 0.88268740E+01</totfact>
</mgrwt>
</event>
<event>
12    1  0.3203156E-008  0.1662563E+04  0.7818608E-02  0.8783009E-01
         -2   -1    0    0    0  501 -0.00000000000E+00  0.00000000000E+00  0.19395820014E+04  0.19395820014E+04  0.00000000000E+00 0.  1.
          2   -1    0    0  501    0  0.00000000000E+00 -0.00000000000E+00 -0.17614183808E+04  0.17614183808E+04  0.00000000000E+00 0. -1.
         23    2    1    2    0    0 -0.10980002995E+04 -0.12142592394E+04  0.83225280627E+03  0.18388316986E+04  0.92882313256E+02 0.  0.
    5000000    2    1    2    0    0  0.10980002995E+04  0.12142592394E+04 -0.65408918558E+03  0.18621686836E+04  0.59984113338E+03 0.  0.
         23    2    4    4    0    0  0.36010504464E+03  0.17135187611E+03  0.29367939632E+02  0.41023346384E+03  0.91607370642E+02 0.  0.
         23    2    4    4    0    0  0.73789525489E+03  0.10429073632E+04 -0.68345712521E+03  0.14519352197E+04  0.94111980216E+02 0.  0.
          5    1    3    3  502    0 -0.77016223630E+03 -0.79758588679E+03  0.53663175176E+03  0.12317827909E+04  0.47000000000E+01 0. -1.
         -5    1    3    3    0  502 -0.32783806324E+03 -0.41667335257E+03  0.29562105451E+03  0.60704890768E+03  0.47000000000E+01 0.  1.
         13    1    5    5    0    0  0.84572219505E+02  0.73499447660E+01  0.28617531968E+02  0.89584848808E+02  0.00000000000E+00 0.  1.
        -13    1    5    5    0    0  0.27553282514E+03  0.16400193134E+03  0.75040766424E+00  0.32064861504E+03  0.00000000000E+00 0. -1.
          1    1    6    6  503    0  0.11291084466E+03  0.10928420458E+03 -0.72450527972E+02  0.17303460699E+03  0.00000000000E+00 0. -1.
         -1    1    6    6    0  503  0.62498441023E+03  0.93362315866E+03 -0.61100659724E+03  0.12789006128E+04  0.00000000000E+00 0.  1.
<mgrwt>
<rscale>  0 0.16625634E+04</rscale>
<asrwt>0</asrwt>
<pdfrwt beam="1">  1        2 0.27098744E+00 0.16625634E+04</pdfrwt>
<pdfrwt beam="2">  1       -2 0.29839723E+00 0.16625634E+04</pdfrwt>
<totfact> 0.27191861E-01</totfact>
</mgrwt>
</event>
<event>
12    1  0.3203156E-008  0.5899465E+03  0.7818608E-02  0.9926486E-01
         -1   -1    0    0    0  501 -0.00000000000E+00  0.00000000000E+00  0.69035512837E+03  0.69035512837E+03  0.00000000000E+00 0.  1.
          1   -1    0    0  501    0  0.00000000000E+00 -0.00000000000E+00 -0.68926998704E+03  0.68926998704E+03  0.00000000000E+00 0. -1.
         23    2    1    2    0    0  0.20528105911E+03  0.44093738978E+03  0.26730698054E+03  0.56263002001E+03  0.92376526436E+02 0.  0.
    5000000    2    1    2    0    0 -0.20528105911E+03 -0.44093738978E+03 -0.26622183921E+03  0.81699509539E+03  0.60003401845E+03 0.  0.
         23    2    4    4    0    0 -0.24822965100E+03 -0.11808049979E+02  0.59256522188E+02  0.26889830485E+03  0.83890245250E+02 0.  0.
         23    2    4    4    0    0  0.42948591893E+02 -0.42912933980E+03 -0.32547836140E+03  0.54809679054E+03  0.92072559679E+02 0.  0.
          5    1    3    3  502    0 -0.74592143802E+01  0.38169311455E+02  0.15404481930E+02  0.42094230954E+02  0.47000000000E+01 0. -1.
         -5    1    3    3    0  502  0.21274027349E+03  0.40276807832E+03  0.25190249861E+03  0.52053578905E+03  0.47000000000E+01 0.  1.
         13    1    5    5    0    0 -0.12853963085E+03 -0.25527184430E+02 -0.73170364915E+01  0.13125400134E+03  0.00000000000E+00 0. -1.
        -13    1    5    5    0    0 -0.11969002015E+03  0.13719134451E+02  0.66573558680E+02  0.13764430351E+03  0.00000000000E+00 0.  1.
          2    1    6    6  503    0  0.21529517378E+02 -0.37256675842E+03 -0.24115629954E+03  0.44432631073E+03  0.00000000000E+00 0. -1.
         -2    1    6    6    0  503  0.21419074515E+02 -0.56562581379E+02 -0.84322061858E+02  0.10377047982E+03  0.00000000000E+00 0.  1.
<mgrwt>
<rscale>  0 0.58994652E+03</rscale>
<asrwt>0</asrwt>
<pdfrwt beam="1">  1        1 0.10604154E+00 0.58994652E+03</pdfrwt>
<pdfrwt beam="2">  1       -1 0.10620848E+00 0.58994652E+03</pdfrwt>
<totfact> 0.24187722E+01</totfact>
</mgrwt>
</event>
<event>
12    1  0.3203156E-008  0.4261260E+03  0.7818608E-02  0.1035091E+00
          2   -1    0    0  501    0  0.00000000000E+00  0.00000000000E+00  0.25400970174E+03  0.25400970174E+03  0.00000000000E+00 0. -1.
         -2   -1    0    0    0  501 -0.00000000000E+00 -0.00000000000E+00 -0.88598355070E+03  0.88598355070E+03  0.00000000000E+00 0.  1.
         23    2    1    2    0    0  0.23400468935E+03 -0.34130612478E+02 -0.35916195892E+03  0.43968081461E+03  0.91645036155E+02 0.  0.
    5000000    2    1    2    0    0 -0.23400468935E+03  0.34130612478E+02 -0.27281189004E+03  0.70031243783E+03  0.60007340375E+03 0.  0.
         23    2    4    4    0    0 -0.37347189068E+03 -0.10577865477E+03 -0.78093241086E+02  0.40631811897E+03  0.91244082356E+02 0.  0.
         23    2    4    4    0    0  0.13946720133E+03  0.13990926725E+03 -0.19471864896E+03  0.29399431887E+03  0.97424863175E+02 0.  0.
          5    1    3    3  502    0  0.10809547847E+03  0.20626622356E+02 -0.11314813339E+03  0.15790718826E+03  0.47000000000E+01 0. -1.
         -5    1    3    3    0  502  0.12590921088E+03 -0.54757234834E+02 -0.24601382553E+03  0.28177362635E+03  0.47000000000E+01 0.  1.
         13    1    5    5    0    0 -0.14962549727E+03 -0.15464373529E+02  0.64520734932E+01  0.15056083665E+03  0.00000000000E+00 0.  1.
        -13    1    5    5    0    0 -0.22384639342E+03 -0.90314281244E+02 -0.84545314579E+02  0.25575728232E+03  0.00000000000E+00 0. -1.
          4    1    6    6  503    0 -0.92786265202E+01  0.19334459662E+02 -0.78200072753E+00  0.21459864064E+02  0.00000000000E+00 0.  1.
         -4    1    6    6    0  503  0.14874582785E+03  0.12057480759E+03 -0.19393664823E+03  0.27253445480E+03  0.00000000000E+00 0. -1.
<mgrwt>
<rscale>  0 0.42612599E+03</rscale>
<asrwt>0</asrwt>
<pdfrwt beam="1">  1        2 0.39078416E-01 0.42612599E+03</pdfrwt>
<pdfrwt beam="2">  1       -2 0.13630516E+00 0.42612599E+03</pdfrwt>
<totfact> 0.52620169E+01</totfact>
</mgrwt>
</event>
<event>
12    1  0.3203156E-008  0.6613664E+03  0.7818608E-02  0.9785682E-01
         -2   -1    0    0    0  501 -0.00000000000E+00  0.00000000000E+00  0.10663276133E+04  0.10663276133E+04  0.00000000000E+00 0.  1.
          2   -1    0    0  501    0  0.00000000000E+00 -0.00000000000E+00 -0.48541988669E+03  0.48541988669E+03  0.00000000000E+00 0. -1.
         23    2    1    2    0    0 -0.54662897499E+03 -0.11614278177E+03  0.34965576006E+02  0.56665481689E+03  0.87078745662E+02 0.  0.
    5000000    2    1    2    0    0  0.54662897499E+03  0.11614278177E+03  0.54594215059E+03  0.98509268309E+03  0.60005198144E+03 0.  0.
         23    2    4    4    0    0 -0.11088840485E+02  0.19324557174E+03  0.29222996548E+03  0.36116528520E+03  0.87035608378E+02 0.  0.
         23    2    4    4    0    0  0.55771781547E+03 -0.77102789962E+02  0.25371218511E+03  0.62392739789E+03  0.89002938437E+02 0.  0.
          5    1    3    3  502    0 -0.33838745168E+03 -0.79439441346E+02  0.63064322500E+02  0.35329292531E+03  0.47000000000E+01 0. -1.
         -5    1    3    3    0  502 -0.20824152330E+03 -0.36703340429E+02 -0.28098746495E+02  0.21336189158E+03  0.47000000000E+01 0.  1.
         13    1    5    5    0    0  0.22602247861E+01  0.13710859943E+03  0.12990446387E+03  0.18888897900E+03  0.00000000000E+00 0.  1.
        -13    1    5    5    0    0 -0.13349065272E+02  0.56136972308E+02  0.16232550161E+03  0.17227630620E+03  0.00000000000E+00 0. -1.
          3    1    6    6  503    0  0.10708887984E+03 -0.47588565803E+02  0.69200002541E+02  0.13609313036E+03  0.00000000000E+00 0. -1.
         -3    1    6    6    0  503  0.45062893563E+03 -0.29514224159E+02  0.18451218257E+03  0.48783426753E+03  0.00000000000E+00 0.  1.
<mgrwt>
<rscale>  0 0.66136643E+03</rscale>
<asrwt>0</asrwt>
<pdfrwt beam="1">  1        2 0.74679983E-01 0.66136643E+03</pdfrwt>
<pdfrwt beam="2">  1       -2 0.16405040E+00 0.66136643E+03</pdfrwt>
<totfact> 0.15347423E+01</totfact>
</mgrwt>
</event>
<event>
12    1  0.3203156E-008  0.6892828E+03  0.7818608E-02  0.9735738E-01
         -1   -1    0    0    0  501 -0.00000000000E+00  0.00000000000E+00  0.52232511402E+03  0.52232511402E+03  0.00000000000E+00 0.  1.
          1   -1    0    0  501    0  0.00000000000E+00 -0.00000000000E+00 -0.14774195595E+04  0.14774195595E+04  0.00000000000E+00 0. -1.
         23    2    1    2    0    0 -0.38731431619E+03 -0.41478418691E+03 -0.10205005916E+04  0.11712781443E+04  0.91720949915E+02 0.  0.
    5000000    2    1    2    0    0  0.38731431619E+03  0.41478418691E+03  0.65406146123E+02  0.82846652921E+03  0.60001710379E+03 0.  0.
         23    2    4    4    0    0 -0.26018386251E+02  0.38916300196E+03  0.69234333154E+01  0.40064404067E+03  0.91339558135E+02 0.  0.
         23    2    4    4    0    0  0.41333270244E+03  0.25621184945E+02  0.58482712808E+02  0.42782248854E+03  0.90063788359E+02 0.  0.
          5    1    3    3  502    0 -0.26204871560E+03 -0.23561151738E+03 -0.69331703076E+03  0.77774861724E+03  0.47000000000E+01 0. -1.
         -5    1    3    3    0  502 -0.12526560059E+03 -0.17917266952E+03 -0.32718356081E+03  0.39352952705E+03  0.47000000000E+01 0.  1.
         11    1    5    5    0    0 -0.27101620258E+02  0.85814119454E+02 -0.30440141934E+02  0.95000858729E+02  0.00000000000E+00 0.  1.
        -11    1    5    5    0    0  0.10832340070E+01  0.30334888251E+03  0.37363575249E+02  0.30564318194E+03  0.00000000000E+00 0. -1.
          3    1    6    6  503    0  0.25245685376E+03  0.15276868706E+02  0.79804499478E+02  0.26521048974E+03  0.00000000000E+00 0. -1.
         -3    1    6    6    0  503  0.16087584868E+03  0.10344316239E+02 -0.21321786670E+02  0.16261199880E+03  0.00000000000E+00 0.  1.
<mgrwt>
<rscale>  0 0.68928282E+03</rscale>
<asrwt>0</asrwt>
<pdfrwt beam="1">  1        1 0.22729531E+00 0.68928282E+03</pdfrwt>
<pdfrwt beam="2">  1       -1 0.80357712E-01 0.68928282E+03</pdfrwt>
<totfact> 0.10976334E+01</totfact>
</mgrwt>
</event>
<event>
12    1  0.3203156E-008  0.7073938E+03  0.7818608E-02  0.9704671E-01
         -2   -1    0    0    0  501 -0.00000000000E+00  0.00000000000E+00  0.17839487736E+03  0.17839487736E+03  0.00000000000E+00 0.  1.
          2   -1    0    0  501    0  0.00000000000E+00 -0.00000000000E+00 -0.30328365930E+04  0.30328365930E+04  0.00000000000E+00 0. -1.
         23    2    1    2    0    0 -0.88262315349E+02  0.59153318453E+03 -0.14517052333E+04  0.15724889589E+04  0.87015496471E+02 0.  0.
    5000000    2    1    2    0    0  0.88262315349E+02 -0.59153318453E+03 -0.14027364823E+04  0.16387425115E+04  0.60008802305E+03 0.  0.
         23    2    4    4    0    0 -0.14784190402E+03 -0.55232870234E+03 -0.83740180757E+03  0.10180444580E+04  0.90821291950E+02 0.  0.
         23    2    4    4    0    0  0.23610421937E+03 -0.39204482186E+02 -0.56533467475E+03  0.62069805351E+03  0.91545536955E+02 0.  0.
          5    1    3    3  502    0 -0.48705221407E+02  0.26048790574E+03 -0.53561852144E+03  0.59760809745E+03  0.47000000000E+01 0. -1.
         -5    1    3    3    0  502 -0.39557093943E+02  0.33104527879E+03 -0.91608671187E+03  0.97488086142E+03  0.47000000000E+01 0.  1.
         13    1    5    5    0    0 -0.60662624394E+02 -0.22307609993E+03 -0.26214774028E+03  0.34952015406E+03  0.00000000000E+00 0.  1.
        -13    1    5    5    0    0 -0.87179279623E+02 -0.32925260241E+03 -0.57525406729E+03  0.66852430391E+03  0.00000000000E+00 0. -1.
          4    1    6    6  503    0  0.85685681813E+02 -0.38932343732E+02 -0.13290732810E+03  0.16285613688E+03  0.00000000000E+00 0. -1.
         -4    1    6    6    0  503  0.15041853755E+03 -0.27213845423E+00 -0.43242734665E+03  0.45784191663E+03  0.00000000000E+00 0.  1.
<mgrwt>
<rscale>  0 0.70739383E+03</rscale>
<asrwt>0</asrwt>
<pdfrwt beam="1">  1        2 0.46659023E+00 0.70739383E+03</pdfrwt>
<pdfrwt beam="2">  1       -2 0.27445367E-01 0.70739383E+03</pdfrwt>
<totfact> 0.21427708E+01</totfact>
</mgrwt>
</event>
<event>
12    1  0.3203156E-008  0.9017228E+03  0.7818608E-02  0.9423430E-01
          1   -1    0    0  501    0  0.00000000000E+00  0.00000000000E+00  0.12560051782E+04  0.12560051782E+04  0.00000000000E+00 0.  1.
         -1   -1    0    0    0  501 -0.00000000000E+00 -0.00000000000E+00 -0.82537474566E+03  0.82537474566E+03  0.00000000000E+00 0. -1.
         23    2    1    2    0    0 -0.41998268830E+03  0.75988140573E+03  0.53034381486E+03  0.10213235952E+04  0.89622067442E+02 0.  0.
    5000000    2    1    2    0    0  0.41998268830E+03 -0.75988140573E+03 -0.99713382326E+02  0.10600563286E+04  0.59997620949E+03 0.  0.
         23    2    4    4    0    0  0.10036357395E+03 -0.48988485461E+03 -0.29652462981E+03  0.58903135919E+03  0.94715723458E+02 0.  0.
         23    2    4    4    0    0  0.31961911436E+03 -0.26999655112E+03  0.19681124749E+03  0.47102496942E+03  0.89862888890E+02 0.  0.
          5    1    3    3  502    0 -0.26757809611E+03  0.40204449835E+03  0.27072147119E+03  0.55366959564E+03  0.47000000000E+01 0. -1.
         -5    1    3    3    0  502 -0.15240459220E+03  0.35783690738E+03  0.25962234367E+03  0.46765399960E+03  0.47000000000E+01 0.  1.
         11    1    5    5    0    0  0.34484938373E+02 -0.31674109172E+03 -0.22680003748E+03  0.39109127727E+03  0.00000000000E+00 0. -1.
        -11    1    5    5    0    0  0.65878635576E+02 -0.17314376289E+03 -0.69724592337E+02  0.19794008192E+03  0.00000000000E+00 0.  1.
          3    1    6    6  503    0  0.16922561226E+03 -0.19931966742E+03  0.11177125224E+03  0.28435620354E+03  0.00000000000E+00 0. -1.
         -3    1    6    6    0  503  0.15039350210E+03 -0.70676883702E+02  0.85039995245E+02  0.18666876588E+03  0.00000000000E+00 0.  1.
<mgrwt>
<rscale>  0 0.90172278E+03</rscale>
<asrwt>0</asrwt>
<pdfrwt beam="1">  1        1 0.19323157E+00 0.90172278E+03</pdfrwt>
<pdfrwt beam="2">  1       -1 0.12698073E+00 0.90172278E+03</pdfrwt>
<totfact> 0.53181715E+00</totfact>
</mgrwt>
</event>
<event>
12    1  0.3203156E-008  0.8273327E+03  0.7818608E-02  0.9521276E-01
         -1   -1    0    0    0  501 -0.00000000000E+00  0.00000000000E+00  0.28784588342E+04  0.28784588342E+04  0.00000000000E+00 0.  1.
          1   -1    0    0  501    0  0.00000000000E+00 -0.00000000000E+00 -0.36555191161E+03  0.36555191161E+03  0.00000000000E+00 0. -1.
         23    2    1    2    0    0 -0.38750302272E+03 -0.63137732536E+03  0.20575134770E+04  0.21886461954E+04  0.89523968893E+02 0.  0.
    5000000    2    1    2    0    0  0.38750302272E+03  0.63137732536E+03  0.45539344563E+03  0.10553645504E+04  0.59800938487E+03 0.  0.
         23    2    4    4    0    0  0.18411734065E+03 -0.56027664674E+02  0.22846948751E+02  0.21339713430E+03  0.89319983889E+02 0.  0.
         23    2    4    4    0    0  0.20338568207E+03  0.68740499004E+03  0.43254649687E+03  0.84196741614E+03  0.89001695955E+02 0.  0.
          5    1    3    3  502    0 -0.28098121931E+03 -0.48364749140E+03  0.14403332724E+04  0.15451366824E+04  0.47000000000E+01 0. -1.
         -5    1    3    3    0  502 -0.10652180341E+03 -0.14772983396E+03  0.61718020460E+03  0.64350951306E+03  0.47000000000E+01 0.  1.
         11    1    5    5    0    0  0.75335573414E+02 -0.41335536417E+02  0.51196704016E+02  0.10002588512E+03  0.00000000000E+00 0. -1.
        -11    1    5    5    0    0  0.10878176724E+03 -0.14692128258E+02 -0.28349755265E+02  0.11337124917E+03  0.00000000000E+00 0.  1.
          4    1    6    6  503    0  0.13671355495E+03  0.41372687249E+03  0.31016458076E+03  0.53484819181E+03  0.00000000000E+00 0. -1.
         -4    1    6    6    0  503  0.66672127123E+02  0.27367811755E+03  0.12238191611E+03  0.30711922433E+03  0.00000000000E+00 0.  1.
<mgrwt>
<rscale>  0 0.82733266E+03</rscale>
<asrwt>0</asrwt>
<pdfrwt beam="1">  1        1 0.56238757E-01 0.82733266E+03</pdfrwt>
<pdfrwt beam="2">  1       -1 0.44283981E+00 0.82733266E+03</pdfrwt>
<totfact> 0.25932911E-01</totfact>
</mgrwt>
</event>
<event>
12    1  0.3203156E-008  0.8079559E+03  0.7818608E-02  0.9548572E-01
          1   -1    0    0  501    0  0.00000000000E+00  0.00000000000E+00  0.31298466283E+04  0.31298466283E+04  0.00000000000E+00 0. -1.
         -1   -1    0    0    0  501 -0.00000000000E+00 -0.00000000000E+00 -0.30706999197E+03  0.30706999197E+03  0.00000000000E+00 0.  1.
         23    2    1    2    0    0 -0.70277737112E+03  0.22184723541E+03  0.21439032657E+04  0.22690224348E+04  0.95022985368E+02 0.  0.
    5000000    2    1    2    0    0  0.70277737112E+03 -0.22184723541E+03  0.67887337068E+03  0.11678941855E+04  0.59999628825E+03 0.  0.
         23    2    4    4    0    0  0.12275999519E+03  0.12625310742E+03  0.36725494815E+03  0.41767747281E+03  0.92565710709E+02 0.  0.
         23    2    4    4    0    0  0.58001737593E+03 -0.34810034283E+03  0.31161842253E+03  0.75021671270E+03  0.90139168445E+02 0.  0.
          5    1    3    3  502    0 -0.55288484687E+03  0.13306074165E+03  0.16561224094E+04  0.17510426436E+04  0.47000000000E+01 0. -1.
         -5    1    3    3    0  502 -0.14989252425E+03  0.88786493757E+02  0.48778085630E+03  0.51797979118E+03  0.47000000000E+01 0.  1.
         11    1    5    5    0    0  0.76662072530E+02  0.18442691688E+02  0.11417911831E+03  0.13875906204E+03  0.00000000000E+00 0.  1.
        -11    1    5    5    0    0  0.46097922656E+02  0.10781041574E+03  0.25307582984E+03  0.27891841077E+03  0.00000000000E+00 0. -1.
          4    1    6    6  503    0  0.32715005077E+03 -0.18311587250E+03  0.21999339991E+03  0.43469032021E+03  0.00000000000E+00 0. -1.
         -4    1    6    6    0  503  0.25286732517E+03 -0.16498447033E+03  0.91625022613E+02  0.31552639249E+03  0.00000000000E+00 0.  1.
<mgrwt>
<rscale>  0 0.80795590E+03</rscale>
<asrwt>0</asrwt>
<pdfrwt beam="1">  1        1 0.48151484E+00 0.80795590E+03</pdfrwt>
<pdfrwt beam="2">  1       -1 0.47241539E-01 0.80795590E+03</pdfrwt>
<totfact> 0.22816880E+00</totfact>
</mgrwt>
</event>
<event>
12    1  0.3203156E-008  0.5080965E+03  0.7818608E-02  0.1011687E+00
          2   -1    0    0  501    0  0.00000000000E+00  0.00000000000E+00  0.75587532841E+03  0.75587532841E+03  0.00000000000E+00 0. -1.
         -2   -1    0    0    0  501 -0.00000000000E+00 -0.00000000000E+00 -0.54094589226E+03  0.54094589226E+03  0.00000000000E+00 0.  1.
         23    2    1    2    0    0  0.14497505067E+03 -0.46205925863E+03  0.18091461628E+03  0.52491977240E+03  0.91072198130E+02 0.  0.
    5000000    2    1    2    0    0 -0.14497505067E+03  0.46205925863E+03  0.34014819869E+02  0.77190144828E+03  0.60013191390E+03 0.  0.
         23    2    4    4    0    0 -0.15292017851E+03  0.39923674288E+03 -0.22367661783E+03  0.49173947780E+03  0.94878484408E+02 0.  0.
         23    2    4    4    0    0  0.79451278431E+01  0.62822515746E+02  0.25769143770E+03  0.28016197048E+03  0.89866896555E+02 0.  0.
          5    1    3    3  502    0  0.79112414412E+02 -0.23845218807E+03  0.14174625162E+03  0.28850010391E+03  0.47000000000E+01 0. -1.
         -5    1    3    3    0  502  0.65862636258E+02 -0.22360707055E+03  0.39168364666E+02  0.23641966849E+03  0.47000000000E+01 0.  1.
         11    1    5    5    0    0 -0.84073054644E+02  0.32824744558E+03 -0.17913234663E+03  0.38327935198E+03  0.00000000000E+00 0. -1.
        -11    1    5    5    0    0 -0.68847123869E+02  0.70989297301E+02 -0.44544271204E+02  0.10846012582E+03  0.00000000000E+00 0.  1.
          2    1    6    6  503    0  0.11464259691E+02  0.77801876614E+02  0.25161502802E+03  0.26361844318E+03  0.00000000000E+00 0. -1.
         -2    1    6    6    0  503 -0.35191318479E+01 -0.14979360869E+02  0.60764096763E+01  0.16543527301E+02  0.00000000000E+00 0.  1.
<mgrwt>
<rscale>  0 0.50809653E+03</rscale>
<asrwt>0</asrwt>
<pdfrwt beam="1">  1        2 0.11628851E+00 0.50809653E+03</pdfrwt>
<pdfrwt beam="2">  1       -2 0.83222445E-01 0.50809653E+03</pdfrwt>
<totfact> 0.48653418E+01</totfact>
</mgrwt>
</event>
<event>
12    1  0.3203156E-008  0.5927819E+03  0.7818608E-02  0.9920496E-01
         -2   -1    0    0    0  501 -0.00000000000E+00  0.00000000000E+00  0.46173308579E+03  0.46173308579E+03  0.00000000000E+00 0.  1.
          2   -1    0    0  501    0  0.00000000000E+00 -0.00000000000E+00 -0.10159554119E+04  0.10159554119E+04  0.00000000000E+00 0. -1.
         23    2    1    2    0    0  0.35493041641E+03  0.40820999673E+03 -0.12390116209E+03  0.56238285343E+03  0.91170027644E+02 0.  0.
    5000000    2    1    2    0    0 -0.35493041641E+03 -0.40820999673E+03 -0.43032116397E+03  0.91530564421E+03  0.59999759686E+03 0.  0.
         23    2    4    4    0    0 -0.36784584993E+03 -0.20058145707E+03 -0.69074539390E+00  0.42927297931E+03  0.93441550743E+02 0.  0.
         23    2    4    4    0    0  0.12915433513E+02 -0.20762853966E+03 -0.42963041858E+03  0.48603266491E+03  0.91482434835E+02 0.  0.
          5    1    3    3  502    0  0.17918874421E+03  0.23784617223E+03 -0.10890842910E+03  0.31711597819E+03  0.47000000000E+01 0. -1.
         -5    1    3    3    0  502  0.17574167221E+03  0.17036382450E+03 -0.14992732993E+02  0.24526687524E+03  0.47000000000E+01 0.  1.
         11    1    5    5    0    0 -0.30073707614E+02 -0.96657821351E+01  0.25211124119E+02  0.40416036585E+02  0.00000000000E+00 0. -1.
        -11    1    5    5    0    0 -0.33777214231E+03 -0.19091567494E+03 -0.25901869513E+02  0.38885694272E+03  0.00000000000E+00 0.  1.
          1    1    6    6  503    0 -0.31124902045E+02 -0.44013283130E+02 -0.14614403038E+03  0.15576907984E+03  0.00000000000E+00 0. -1.
         -1    1    6    6    0  503  0.44040335558E+02 -0.16361525653E+03 -0.28348638820E+03  0.33026358507E+03  0.00000000000E+00 0.  1.
<mgrwt>
<rscale>  0 0.59278190E+03</rscale>
<asrwt>0</asrwt>
<pdfrwt beam="1">  1        2 0.15630083E+00 0.59278190E+03</pdfrwt>
<pdfrwt beam="2">  1       -2 0.71035859E-01 0.59278190E+03</pdfrwt>
<totfact> 0.45701469E+01</totfact>
</mgrwt>
</event>
<event>
12    1  0.3203156E-008  0.7526588E+03  0.7818608E-02  0.9631188E-01
         -2   -1    0    0    0  501 -0.00000000000E+00  0.00000000000E+00  0.35097962806E+03  0.35097962806E+03  0.00000000000E+00 0.  1.
          2   -1    0    0  501    0  0.00000000000E+00 -0.00000000000E+00 -0.21214421695E+04  0.21214421695E+04  0.00000000000E+00 0. -1.
         23    2    1    2    0    0  0.12383862563E+02 -0.63807278674E+03 -0.20067568682E+03  0.67475531877E+03  0.87941842762E+02 0.  0.
    5000000    2    1    2    0    0 -0.12383862563E+02  0.63807278674E+03 -0.15697868546E+04  0.17976664788E+04  0.60006979492E+03 0.  0.
         23    2    4    4    0    0  0.54893774743E+02  0.72024429035E+03 -0.13379600827E+04  0.15231544976E+04  0.89984867225E+02 0.  0.
         23    2    4    4    0    0 -0.67277637306E+02 -0.82171503615E+02 -0.23182677191E+03  0.27451198119E+03  0.10165991911E+03 0.  0.
          5    1    3    3  502    0 -0.90532290922E+01 -0.27250329646E+03 -0.12862668437E+03  0.30150774695E+03  0.47000000000E+01 0. -1.
         -5    1    3    3    0  502  0.21437091655E+02 -0.36556949028E+03 -0.72049002450E+02  0.37324757183E+03  0.47000000000E+01 0.  1.
         13    1    5    5    0    0  0.26736446381E+02  0.29755075180E+03 -0.64744593884E+03  0.71304805672E+03  0.00000000000E+00 0.  1.
        -13    1    5    5    0    0  0.28157328362E+02  0.42269353855E+03 -0.69051414386E+03  0.81010644087E+03  0.00000000000E+00 0. -1.
          1    1    6    6  503    0 -0.85325690943E+02 -0.32737632906E+02 -0.11925174858E+03  0.15024382078E+03  0.00000000000E+00 0. -1.
         -1    1    6    6    0  503  0.18048053638E+02 -0.49433870710E+02 -0.11257502333E+03  0.12426816040E+03  0.00000000000E+00 0.  1.
<mgrwt>
<rscale>  0 0.75265883E+03</rscale>
<asrwt>0</asrwt>
<pdfrwt beam="1">  1        2 0.32637572E+00 0.75265883E+03</pdfrwt>
<pdfrwt beam="2">  1       -2 0.53996866E-01 0.75265883E+03</pdfrwt>
<totfact> 0.19136753E+01</totfact>
</mgrwt>
</event>
<event>
12    1  0.3203156E-008  0.1343721E+04  0.7818608E-02  0.8995595E-01
          2   -1    0    0  501    0  0.00000000000E+00  0.00000000000E+00  0.29466522839E+04  0.29466522839E+04  0.00000000000E+00 0. -1.
         -2   -1    0    0    0  501 -0.00000000000E+00 -0.00000000000E+00 -0.82041881659E+03  0.82041881659E+03  0.00000000000E+00 0.  1.
         23    2    1    2    0    0 -0.12849629574E+04  0.51422240430E+02  0.19489546761E+04  0.23369276466E+04  0.95039188306E+02 0.  0.
    5000000    2    1    2    0    0  0.12849629574E+04 -0.51422240430E+02  0.17727879115E+03  0.14301434538E+04  0.60009039328E+03 0.  0.
         23    2    4    4    0    0  0.58842616161E+03  0.24225019137E+03  0.18611373579E+03  0.66921621940E+03  0.91002872310E+02 0.  0.
         23    2    4    4    0    0  0.69653679576E+03 -0.29367243180E+03 -0.88349446406E+01  0.76092723443E+03  0.86747880673E+02 0.  0.
          5    1    3    3  502    0 -0.46719669585E+03 -0.12071299439E+02  0.76889282907E+03  0.89979816708E+03  0.47000000000E+01 0. -1.
         -5    1    3    3    0  502 -0.81776626153E+03  0.63493539869E+02  0.11800618471E+04  0.14371294796E+04  0.47000000000E+01 0.  1.
         11    1    5    5    0    0  0.52253062061E+03  0.19421684377E+03  0.18601108399E+03  0.58767214946E+03  0.00000000000E+00 0. -1.
        -11    1    5    5    0    0  0.65895541001E+02  0.48033347603E+02  0.10265180547E+00  0.81544069945E+02  0.00000000000E+00 0.  1.
          3    1    6    6  503    0  0.54177117501E+03 -0.18817153008E+03 -0.10506188013E+02  0.57361564727E+03  0.00000000000E+00 0. -1.
         -3    1    6    6    0  503  0.15476562075E+03 -0.10550090172E+03  0.16712433723E+01  0.18731158716E+03  0.00000000000E+00 0.  1.
<mgrwt>
<rscale>  0 0.13437209E+04</rscale>
<asrwt>0</asrwt>
<pdfrwt beam="1">  1        2 0.45333112E+00 0.13437209E+04</pdfrwt>
<pdfrwt beam="2">  1       -2 0.12621828E+00 0.13437209E+04</pdfrwt>
<totfact> 0.85175001E-01</totfact>
</mgrwt>
</event>
<event>
12    1  0.3203156E-008  0.4526390E+03  0.7818608E-02  0.1026938E+00
         -2   -1    0    0    0  501 -0.00000000000E+00  0.00000000000E+00  0.86161134544E+02  0.86161134544E+02  0.00000000000E+00 0.  1.
          2   -1    0    0  501    0  0.00000000000E+00 -0.00000000000E+00 -0.33867387954E+04  0.33867387954E+04  0.00000000000E+00 0. -1.
         23    2    1    2    0    0 -0.29289074279E+03  0.17262990729E+03 -0.15941450918E+04  0.16324247177E+04  0.89027037094E+02 0.  0.
    5000000    2    1    2    0    0  0.29289074279E+03 -0.17262990729E+03 -0.17064325691E+04  0.18404752122E+04  0.59987567198E+03 0.  0.
         23    2    4    4    0    0  0.78337690364E+02 -0.29398870554E+03 -0.14021124635E+04  0.14381541250E+04  0.99003911384E+02 0.  0.
         23    2    4    4    0    0  0.21455305243E+03  0.12135879826E+03 -0.30432010560E+03  0.40232108715E+03  0.92144236234E+02 0.  0.
          5    1    3    3  502    0 -0.94609629329E+02  0.32458733863E+02 -0.64360189737E+03  0.65134479630E+03  0.47000000000E+01 0. -1.
         -5    1    3    3    0  502 -0.19828111346E+03  0.14017117342E+03 -0.95054319442E+03  0.98107992145E+03  0.47000000000E+01 0.  1.
         11    1    5    5    0    0  0.40323457021E+02 -0.10066276754E+03 -0.31019479659E+03  0.32860277811E+03  0.00000000000E+00 0. -1.
        -11    1    5    5    0    0  0.38014233343E+02 -0.19332593800E+03 -0.10919176669E+04  0.11095513469E+04  0.00000000000E+00 0.  1.
          3    1    6    6  503    0  0.11755869320E+03  0.25203152427E+02 -0.18676694506E+03  0.22211964570E+03  0.00000000000E+00 0. -1.
         -3    1    6    6    0  503  0.96994359224E+02  0.96155645829E+02 -0.11755316054E+03  0.18020144145E+03  0.00000000000E+00 0.  1.
<mgrwt>
<rscale>  0 0.45263899E+03</rscale>
<asrwt>0</asrwt>
<pdfrwt beam="1">  1        2 0.52103681E+00 0.45263899E+03</pdfrwt>
<pdfrwt beam="2">  1       -2 0.13255557E-01 0.45263899E+03</pdfrwt>
<totfact> 0.47709264E+01</totfact>
</mgrwt>
</event>
<event>
12    1  0.3203156E-008  0.9976071E+03  0.7818608E-02  0.9311173E-01
         -1   -1    0    0    0  501 -0.00000000000E+00  0.00000000000E+00  0.70619370501E+03  0.70619370501E+03  0.00000000000E+00 0.  1.
          1   -1    0    0  501    0  0.00000000000E+00 -0.00000000000E+00 -0.14815317624E+04  0.14815317624E+04  0.00000000000E+00 0. -1.
         23    2    1    2    0    0  0.22048620042E+03  0.89415889232E+03 -0.19899185474E+03  0.94658565381E+03  0.91062354744E+02 0.  0.
    5000000    2    1    2    0    0 -0.22048620042E+03 -0.89415889232E+03 -0.57634620261E+03  0.12411398136E+04  0.60009899369E+03 0.  0.
         23    2    4    4    0    0 -0.23479002558E+03 -0.70873845237E+02 -0.71216574045E+02  0.27082317854E+03  0.90132877255E+02 0.  0.
         23    2    4    4    0    0  0.14303825163E+02 -0.82328504709E+03 -0.50512962857E+03  0.97031663502E+03  0.91408765218E+02 0.  0.
          5    1    3    3  502    0  0.11077321162E+03  0.29768588218E+03 -0.92061809814E+02  0.33073411631E+03  0.47000000000E+01 0. -1.
         -5    1    3    3    0  502  0.10971298880E+03  0.59647301014E+03 -0.10693004492E+03  0.61585153750E+03  0.47000000000E+01 0.  1.
         13    1    5    5    0    0 -0.10604446313E+03 -0.19038183195E+02 -0.76169858328E+02  0.13194592793E+03  0.00000000000E+00 0.  1.
        -13    1    5    5    0    0 -0.12874556246E+03 -0.51835662042E+02  0.49532842824E+01  0.13887725061E+03  0.00000000000E+00 0. -1.
          3    1    6    6  503    0 -0.14528569980E+00 -0.73973508914E+03 -0.42232977681E+03  0.85180424018E+03  0.00000000000E+00 0. -1.
         -3    1    6    6    0  503  0.14449110862E+02 -0.83549957946E+02 -0.82799851760E+02  0.11851239483E+03  0.00000000000E+00 0.  1.
<mgrwt>
<rscale>  0 0.99760713E+03</rscale>
<asrwt>0</asrwt>
<pdfrwt beam="1">  1        1 0.22792796E+00 0.99760713E+03</pdfrwt>
<pdfrwt beam="2">  1       -1 0.10864519E+00 0.99760713E+03</pdfrwt>
<totfact> 0.53250800E+00</totfact>
</mgrwt>
</event>
<event>
12    1  0.3203156E-008  0.6334263E+03  0.7818608E-02  0.9838385E-01
          2   -1    0    0  501    0  0.00000000000E+00  0.00000000000E+00  0.23056078284E+04  0.23056078284E+04  0.00000000000E+00 0. -1.
         -2   -1    0    0    0  501 -0.00000000000E+00 -0.00000000000E+00 -0.30274627066E+03  0.30274627066E+03  0.00000000000E+00 0.  1.
         23    2    1    2    0    0 -0.30547647556E+03 -0.40546576503E+03  0.67917464995E+02  0.51987754633E+03  0.89115191672E+02 0.  0.
    5000000    2    1    2    0    0  0.30547647556E+03  0.40546576503E+03  0.19349440928E+04  0.20884765528E+04  0.60000608795E+03 0.  0.
         23    2    4    4    0    0  0.42976730554E+03  0.41976020437E+03  0.13004842931E+04  0.14353776068E+04  0.90282398944E+02 0.  0.
         23    2    4    4    0    0 -0.12429082998E+03 -0.14294439340E+02  0.63445979970E+03  0.65309894594E+03  0.91358931383E+02 0.  0.
          5    1    3    3  502    0 -0.33738185361E+02 -0.89771283125E+02 -0.83822072748E+01  0.96382051359E+02  0.47000000000E+01 0. -1.
         -5    1    3    3    0  502 -0.27173829020E+03 -0.31569448191E+03  0.76299672270E+02  0.42349549497E+03  0.47000000000E+01 0.  1.
         11    1    5    5    0    0  0.34906113483E+03  0.36649145746E+03  0.10194766476E+04  0.11381969510E+04  0.00000000000E+00 0. -1.
        -11    1    5    5    0    0  0.80706170710E+02  0.53268746909E+02  0.28100764547E+03  0.29718065583E+03  0.00000000000E+00 0.  1.
          3    1    6    6  503    0 -0.93416845359E+02 -0.48593177595E+02  0.37213588656E+03  0.38674684481E+03  0.00000000000E+00 0. -1.
         -3    1    6    6    0  503 -0.30873984620E+02  0.34298738255E+02  0.26232391314E+03  0.26635210113E+03  0.00000000000E+00 0.  1.
<mgrwt>
<rscale>  0 0.63342629E+03</rscale>
<asrwt>0</asrwt>
<pdfrwt beam="1">  1        2 0.35470888E+00 0.63342629E+03</pdfrwt>
<pdfrwt beam="2">  1       -2 0.46576351E-01 0.63342629E+03</pdfrwt>
<totfact> 0.20858544E+01</totfact>
</mgrwt>
</event>
<event>
12    1  0.3203156E-008  0.8530866E+03  0.7818608E-02  0.9486204E-01
         -2   -1    0    0    0  501 -0.00000000000E+00  0.00000000000E+00  0.17779709835E+04  0.17779709835E+04  0.00000000000E+00 0.  1.
          2   -1    0    0  501    0  0.00000000000E+00 -0.00000000000E+00 -0.30678442038E+04  0.30678442038E+04  0.00000000000E+00 0. -1.
         23    2    1    2    0    0 -0.76960991514E+03 -0.16320076017E+03 -0.28722748841E+04  0.29795118736E+04  0.92704291047E+02 0.  0.
    5000000    2    1    2    0    0  0.76960991514E+03  0.16320076017E+03  0.15824016638E+04  0.18663033136E+04  0.60013258821E+03 0.  0.
         23    2    4    4    0    0  0.39706234212E+02  0.16972409584E+03  0.64873895035E+03  0.67787816462E+03  0.90960027599E+02 0.  0.
         23    2    4    4    0    0  0.72990368093E+03 -0.65233356734E+01  0.93366271342E+03  0.11884251490E+04  0.88466576048E+02 0.  0.
          5    1    3    3  502    0 -0.26322398015E+03 -0.13871909666E+02 -0.90401319906E+03  0.94166939404E+03  0.47000000000E+01 0. -1.
         -5    1    3    3    0  502 -0.50638593499E+03 -0.14932885050E+03 -0.19682616850E+04  0.20378424796E+04  0.47000000000E+01 0.  1.
         11    1    5    5    0    0  0.47506431011E+02  0.87607248377E+02  0.22349280169E+03  0.24470578940E+03  0.00000000000E+00 0.  1.
        -11    1    5    5    0    0 -0.78001967988E+01  0.82116847463E+02  0.42524614866E+03  0.43317237523E+03  0.00000000000E+00 0. -1.
          4    1    6    6  503    0  0.43951841561E+03  0.25664850872E+02  0.50936257424E+03  0.67326469851E+03  0.00000000000E+00 0. -1.
         -4    1    6    6    0  503  0.29038526532E+03 -0.32188186545E+02  0.42430013918E+03  0.51516045051E+03  0.00000000000E+00 0.  1.
<mgrwt>
<rscale>  0 0.85308661E+03</rscale>
<asrwt>0</asrwt>
<pdfrwt beam="1">  1        2 0.47197603E+00 0.85308661E+03</pdfrwt>
<pdfrwt beam="2">  1       -2 0.27353400E+00 0.85308661E+03</pdfrwt>
<totfact> 0.77399339E-02</totfact>
</mgrwt>
</event>
<event>
12    1  0.3203156E-008  0.4750675E+03  0.7818608E-02  0.1020500E+00
          2   -1    0    0  501    0  0.00000000000E+00  0.00000000000E+00  0.19571144777E+04  0.19571144777E+04  0.00000000000E+00 0.  1.
         -2   -1    0    0    0  501 -0.00000000000E+00 -0.00000000000E+00 -0.15945864492E+03  0.15945864492E+03  0.00000000000E+00 0. -1.
         23    2    1    2    0    0  0.24277427032E+02  0.36714635101E+03  0.39875465177E+03  0.55057397199E+03  0.93491121537E+02 0.  0.
    5000000    2    1    2    0    0 -0.24277427032E+02 -0.36714635101E+03  0.13989011810E+04  0.15659991507E+04  0.60003582313E+03 0.  0.
         23    2    4    4    0    0 -0.43322792259E+02 -0.45829615305E+03  0.62810992841E+03  0.78449793750E+03  0.94882577701E+02 0.  0.
         23    2    4    4    0    0  0.19045365227E+02  0.91149802041E+02  0.77079125263E+03  0.78150121316E+03  0.89185081101E+02 0.  0.
          5    1    3    3  502    0 -0.18416811254E+02  0.66531750774E+02  0.11916725558E+03  0.13779904790E+03  0.47000000000E+01 0. -1.
         -5    1    3    3    0  502  0.42694238286E+02  0.30061460023E+03  0.27958739619E+03  0.41277492409E+03  0.47000000000E+01 0.  1.
         13    1    5    5    0    0 -0.15780635416E+02 -0.15219644254E+03  0.28781749985E+03  0.32596272608E+03  0.00000000000E+00 0. -1.
        -13    1    5    5    0    0 -0.27542156843E+02 -0.30609971050E+03  0.34029242856E+03  0.45853521142E+03  0.00000000000E+00 0.  1.
          2    1    6    6  503    0 -0.26951638676E+02  0.28791350103E+02  0.12489780187E+03  0.13097630923E+03  0.00000000000E+00 0.  1.
         -2    1    6    6    0  503  0.45997003903E+02  0.62358451938E+02  0.64589345076E+03  0.65052490393E+03  0.00000000000E+00 0. -1.
<mgrwt>
<rscale>  0 0.47506747E+03</rscale>
<asrwt>0</asrwt>
<pdfrwt beam="1">  1        2 0.30109452E+00 0.47506747E+03</pdfrwt>
<pdfrwt beam="2">  1       -2 0.24532101E-01 0.47506747E+03</pdfrwt>
<totfact> 0.11115190E+02</totfact>
</mgrwt>
</event>
<event>
12    1  0.3203156E-008  0.6394523E+03  0.7818608E-02  0.9826775E-01
         -2   -1    0    0    0  501 -0.00000000000E+00  0.00000000000E+00  0.52858812665E+03  0.52858812665E+03  0.00000000000E+00 0.  1.
          2   -1    0    0  501    0  0.00000000000E+00 -0.00000000000E+00 -0.98308738584E+03  0.98308738584E+03  0.00000000000E+00 0. -1.
         23    2    1    2    0    0 -0.67813356975E+02  0.58226925011E+03 -0.10282782047E+03  0.60213595386E+03  0.91422181442E+02 0.  0.
    5000000    2    1    2    0    0  0.67813356975E+02 -0.58226925011E+03 -0.35167143872E+03  0.90953955864E+03  0.59996106282E+03 0.  0.
         23    2    4    4    0    0  0.18101466246E+03 -0.43806555544E+03 -0.46914168518E+03  0.67348894091E+03  0.93945164166E+02 0.  0.
         23    2    4    4    0    0 -0.11320130548E+03 -0.14420369467E+03  0.11747024645E+03  0.23605061773E+03  0.91166848185E+02 0.  0.
          5    1    3    3  502    0 -0.37036107630E+02  0.53501002887E+03 -0.99355824055E+02  0.54543659029E+03  0.47000000000E+01 0. -1.
         -5    1    3    3    0  502 -0.30777249345E+02  0.47259221243E+02 -0.34719964167E+01  0.56699363567E+02  0.47000000000E+01 0.  1.
         13    1    5    5    0    0  0.12698520561E+03 -0.39138464981E+03 -0.40850681505E+03  0.57981462942E+03  0.00000000000E+00 0. -1.
        -13    1    5    5    0    0  0.54029456844E+02 -0.46680905636E+02 -0.60634870121E+02  0.93674311486E+02  0.00000000000E+00 0.  1.
          4    1    6    6  503    0 -0.67429641539E+02 -0.19352384725E+02  0.26767217919E+02  0.75084987233E+02  0.00000000000E+00 0. -1.
         -4    1    6    6    0  503 -0.45771663943E+02 -0.12485130994E+03  0.90703028535E+02  0.16096563049E+03  0.00000000000E+00 0.  1.
<mgrwt>
<rscale>  0 0.63945232E+03</rscale>
<asrwt>0</asrwt>
<pdfrwt beam="1">  1        2 0.15124421E+00 0.63945232E+03</pdfrwt>
<pdfrwt beam="2">  1       -2 0.81321251E-01 0.63945232E+03</pdfrwt>
<totfact> 0.35345111E+01</totfact>
</mgrwt>
</event>
<event>
12    1  0.3203156E-008  0.8136408E+03  0.7818608E-02  0.9540480E-01
         -1   -1    0    0    0  501 -0.00000000000E+00  0.00000000000E+00  0.39442870046E+03  0.39442870046E+03  0.00000000000E+00 0.  1.
          1   -1    0    0  501    0  0.00000000000E+00 -0.00000000000E+00 -0.20096457786E+04  0.20096457786E+04  0.00000000000E+00 0. -1.
         23    2    1    2    0    0  0.71106144061E+03 -0.20167077524E+03 -0.10807077610E+04  0.13121954730E+04  0.87454107050E+02 0.  0.
    5000000    2    1    2    0    0 -0.71106144061E+03  0.20167077524E+03 -0.53450931714E+03  0.10918790060E+04  0.60018337181E+03 0.  0.
         23    2    4    4    0    0 -0.76138784967E+03  0.14431432165E+03 -0.57256201520E+03  0.96785758257E+03  0.91558493992E+02 0.  0.
         23    2    4    4    0    0  0.50326409065E+02  0.57356453592E+02  0.38052698061E+02  0.12402142346E+03  0.90059954638E+02 0.  0.
          5    1    3    3  502    0  0.25823139521E+03 -0.48684488861E+02 -0.32451250149E+03  0.41759320702E+03  0.47000000000E+01 0. -1.
         -5    1    3    3    0  502  0.45283004540E+03 -0.15298628638E+03 -0.75619525950E+03  0.89460226600E+03  0.47000000000E+01 0.  1.
         11    1    5    5    0    0 -0.42231324510E+03  0.12104388789E+03 -0.34869178167E+03  0.56087971829E+03  0.00000000000E+00 0. -1.
        -11    1    5    5    0    0 -0.33907460457E+03  0.23270433761E+02 -0.22387023353E+03  0.40697786428E+03  0.00000000000E+00 0.  1.
          3    1    6    6  503    0  0.14318607004E+02  0.68183604790E+02 -0.11788277615E+01  0.69680815894E+02  0.00000000000E+00 0. -1.
         -3    1    6    6    0  503  0.36007802062E+02 -0.10827151198E+02  0.39231525823E+02  0.54340607567E+02  0.00000000000E+00 0.  1.
<mgrwt>
<rscale>  0 0.81364082E+03</rscale>
<asrwt>0</asrwt>
<pdfrwt beam="1">  1        1 0.30917627E+00 0.81364082E+03</pdfrwt>
<pdfrwt beam="2">  1       -1 0.60681339E-01 0.81364082E+03</pdfrwt>
<totfact> 0.83819636E+00</totfact>
</mgrwt>
</event>
<event>
12    1  0.3203156E-008  0.5524464E+03  0.7818608E-02  0.1000929E+00
          2   -1    0    0  501    0  0.00000000000E+00  0.00000000000E+00  0.20674902008E+04  0.20674902008E+04  0.00000000000E+00 0.  1.
         -2   -1    0    0    0  501 -0.00000000000E+00 -0.00000000000E+00 -0.36624420612E+03  0.36624420612E+03  0.00000000000E+00 0. -1.
         23    2    1    2    0    0  0.41368801254E+03 -0.94258701593E+02  0.16400239277E+04  0.16962181333E+04  0.86342328066E+02 0.  0.
    5000000    2    1    2    0    0 -0.41368801254E+03  0.94258701593E+02  0.61222066945E+02  0.73751627363E+03  0.60013301679E+03 0.  0.
         23    2    4    4    0    0 -0.51420858829E+03  0.17578276443E+03 -0.35793272643E+02  0.55202155387E+03  0.90203021203E+02 0.  0.
         23    2    4    4    0    0  0.10052057574E+03 -0.81524062833E+02  0.97015339588E+02  0.18549471976E+03  0.90806145026E+02 0.  0.
          5    1    3    3  502    0  0.22147724994E+03 -0.15313172161E+02  0.94775819974E+03  0.97342403949E+03  0.47000000000E+01 0. -1.
         -5    1    3    3    0  502  0.19221076260E+03 -0.78945529432E+02  0.69226572798E+03  0.72279409379E+03  0.47000000000E+01 0.  1.
         13    1    5    5    0    0 -0.18543498998E+03  0.51644766236E+02  0.29014751126E+02  0.19466682606E+03  0.00000000000E+00 0. -1.
        -13    1    5    5    0    0 -0.32877359831E+03  0.12413799819E+03 -0.64808023769E+02  0.35735472781E+03  0.00000000000E+00 0.  1.
          3    1    6    6  503    0  0.54469327512E+02 -0.57217884962E+02  0.10646412056E+03  0.13257225564E+03  0.00000000000E+00 0. -1.
         -3    1    6    6    0  503  0.46051248232E+02 -0.24306177871E+02 -0.94487809725E+01  0.52922464117E+02  0.00000000000E+00 0.  1.
<mgrwt>
<rscale>  0 0.55244637E+03</rscale>
<asrwt>0</asrwt>
<pdfrwt beam="1">  1        2 0.31807541E+00 0.55244637E+03</pdfrwt>
<pdfrwt beam="2">  1       -2 0.56345264E-01 0.55244637E+03</pdfrwt>
<totfact> 0.19382115E+01</totfact>
</mgrwt>
</event>
<event>
12    1  0.3271374E-008  0.1529207E+04  0.7818608E-02  0.8865259E-01
          1   -1    0    0  501    0  0.00000000000E+00  0.00000000000E+00  0.20931697800E+04  0.20931697800E+04  0.00000000000E+00 0. -1.
         -1   -1    0    0    0  501 -0.00000000000E+00 -0.00000000000E+00 -0.11745343961E+04  0.11745343961E+04  0.00000000000E+00 0.  1.
         23    2    1    2    0    0  0.78995406915E+03  0.12467483513E+04  0.77091155455E+03  0.16676572647E+04  0.91472644617E+02 0.  0.
    5000000    2    1    2    0    0 -0.78995406915E+03 -0.12467483513E+04  0.14772382929E+03  0.16000469114E+04  0.59993241801E+03 0.  0.
         23    2    4    4    0    0 -0.73049531966E+03 -0.65395971506E+03  0.15710329388E+03  0.99719559037E+03  0.91819821030E+02 0.  0.
         23    2    4    4    0    0 -0.59458749481E+02 -0.59278863621E+03 -0.93794645872E+01  0.60285132103E+03  0.91695315031E+02 0.  0.
          5    1    3    3  502    0  0.58857923878E+03  0.92806718340E+03  0.52859329985E+03  0.12194946428E+04  0.47000000000E+01 0. -1.
         -5    1    3    3    0  502  0.20137483037E+03  0.31868116787E+03  0.24231825470E+03  0.44816262185E+03  0.47000000000E+01 0. -1.
         13    1    5    5    0    0 -0.35268274803E+03 -0.37627682667E+03  0.73936823841E+02  0.52099522547E+03  0.00000000000E+00 0.  1.
        -13    1    5    5    0    0 -0.37781257163E+03 -0.27768288839E+03  0.83166470037E+02  0.47620036490E+03  0.00000000000E+00 0. -1.
          3    1    6    6  503    0 -0.64879489611E+02 -0.42246453254E+03 -0.41545468491E+02  0.42943178199E+03  0.00000000000E+00 0. -1.
         -3    1    6    6    0  503  0.54207401295E+01 -0.17032410367E+03  0.32166003904E+02  0.17341953904E+03  0.00000000000E+00 0.  1.
<mgrwt>
<rscale>  0 0.15292074E+04</rscale>
<asrwt>0</asrwt>
<pdfrwt beam="1">  1        1 0.32202612E+00 0.15292074E+04</pdfrwt>
<pdfrwt beam="2">  1       -1 0.18069760E+00 0.15292074E+04</pdfrwt>
<totfact> 0.50006553E-01</totfact>
</mgrwt>
</event>
<event>
12    1  0.3203156E-008  0.6319932E+03  0.7818608E-02  0.9841167E-01
         -2   -1    0    0    0  501 -0.00000000000E+00  0.00000000000E+00  0.21994780951E+03  0.21994780951E+03  0.00000000000E+00 0.  1.
          2   -1    0    0  501    0  0.00000000000E+00 -0.00000000000E+00 -0.20501303745E+04  0.20501303745E+04  0.00000000000E+00 0. -1.
         23    2    1    2    0    0 -0.91994194154E+02  0.48096714916E+03 -0.10919016709E+04  0.12001549676E+04  0.91270789981E+02 0.  0.
    5000000    2    1    2    0    0  0.91994194154E+02 -0.48096714916E+03 -0.73828089409E+03  0.10699232164E+04  0.59990389233E+03 0.  0.
         23    2    4    4    0    0 -0.22426164764E+03 -0.84849068432E+02 -0.28782733389E+03  0.38573083804E+03  0.91929615857E+02 0.  0.
         23    2    4    4    0    0  0.31625584179E+03 -0.39611808073E+03 -0.45045356020E+03  0.68419237833E+03  0.91013786407E+02 0.  0.
          5    1    3    3  502    0  0.45394077436E+01  0.12895984051E+03 -0.35595135239E+03  0.37864852034E+03  0.47000000000E+01 0. -1.
         -5    1    3    3    0  502 -0.96533601898E+02  0.35200730865E+03 -0.73595031851E+03  0.82150644730E+03  0.47000000000E+01 0.  1.
         11    1    5    5    0    0 -0.11751939210E+03 -0.90072576746E+02 -0.18969268499E+03  0.24063913095E+03  0.00000000000E+00 0. -1.
        -11    1    5    5    0    0 -0.10674225554E+03  0.52235083139E+01 -0.98134648891E+02  0.14509170710E+03  0.00000000000E+00 0.  1.
          3    1    6    6  503    0  0.87453805073E+02 -0.18016708047E+03 -0.18167967886E+03  0.27039942791E+03  0.00000000000E+00 0. -1.
         -3    1    6    6    0  503  0.22880203672E+03 -0.21595100027E+03 -0.26877388134E+03  0.41379295042E+03  0.00000000000E+00 0.  1.
<mgrwt>
<rscale>  0 0.63199321E+03</rscale>
<asrwt>0</asrwt>
<pdfrwt beam="1">  1        2 0.31540466E+00 0.63199321E+03</pdfrwt>
<pdfrwt beam="2">  1       -2 0.33838126E-01 0.63199321E+03</pdfrwt>
<totfact> 0.53573716E+01</totfact>
</mgrwt>
</event>
<event>
12    1  0.3203156E-008  0.4142504E+03  0.7818608E-02  0.1038954E+00
          1   -1    0    0  501    0  0.00000000000E+00  0.00000000000E+00  0.67265213543E+03  0.67265213543E+03  0.00000000000E+00 0.  1.
         -1   -1    0    0    0  501 -0.00000000000E+00 -0.00000000000E+00 -0.36669717854E+03  0.36669717854E+03  0.00000000000E+00 0. -1.
         23    2    1    2    0    0  0.61800421766E+02 -0.26156086464E+03  0.25232032737E+03  0.37972965446E+03  0.91080650107E+02 0.  0.
    5000000    2    1    2    0    0 -0.61800421766E+02  0.26156086464E+03  0.53634629512E+02  0.65961965951E+03  0.59999003632E+03 0.  0.
         23    2    4    4    0    0  0.18918418056E+02  0.37642865268E+03  0.20057907622E+03  0.43652035331E+03  0.90893431789E+02 0.  0.
         23    2    4    4    0    0 -0.80718839822E+02 -0.11486778803E+03 -0.14694444670E+03  0.22309930620E+03  0.92035265949E+02 0.  0.
          5    1    3    3  502    0  0.50558105167E+02 -0.53823056130E+02  0.48676266236E+02  0.88569251233E+02  0.47000000000E+01 0. -1.
         -5    1    3    3    0  502  0.11242316599E+02 -0.20773780851E+03  0.20364406114E+03  0.29116040322E+03  0.47000000000E+01 0.  1.
         13    1    5    5    0    0  0.26993654263E+02  0.17278234581E+03  0.13966667082E+03  0.22380611103E+03  0.00000000000E+00 0. -1.
        -13    1    5    5    0    0 -0.80752362077E+01  0.20364630687E+03  0.60912405391E+02  0.21271424228E+03  0.00000000000E+00 0.  1.
          1    1    6    6  503    0 -0.25128310945E+01 -0.83383879204E+02 -0.68472130049E+02  0.10792413180E+03  0.00000000000E+00 0. -1.
         -1    1    6    6    0  503 -0.78206008727E+02 -0.31483908830E+02 -0.78472316655E+02  0.11517517440E+03  0.00000000000E+00 0.  1.
<mgrwt>
<rscale>  0 0.41425041E+03</rscale>
<asrwt>0</asrwt>
<pdfrwt beam="1">  1        1 0.10348494E+00 0.41425041E+03</pdfrwt>
<pdfrwt beam="2">  1       -1 0.56414951E-01 0.41425041E+03</pdfrwt>
<totfact> 0.96823620E+01</totfact>
</mgrwt>
</event>
<event>
12    1  0.3203156E-008  0.8659706E+03  0.7818608E-02  0.9469149E-01
          2   -1    0    0  501    0  0.00000000000E+00  0.00000000000E+00  0.26850439539E+04  0.26850439539E+04  0.00000000000E+00 0. -1.
         -2   -1    0    0    0  501 -0.00000000000E+00 -0.00000000000E+00 -0.33554492541E+03  0.33554492541E+03  0.00000000000E+00 0.  1.
         23    2    1    2    0    0  0.50062041948E+02  0.83719014830E+03  0.12961534112E+04  0.15464909979E+04  0.90703850729E+02 0.  0.
    5000000    2    1    2    0    0 -0.50062041948E+02 -0.83719014830E+03  0.10533456172E+04  0.14740978814E+04  0.60002835121E+03 0.  0.
         23    2    4    4    0    0 -0.15048492200E+03 -0.27610673298E+03  0.75780894700E+03  0.82544891398E+03  0.90613849310E+02 0.  0.
         23    2    4    4    0    0  0.10042288005E+03 -0.56108341532E+03  0.29553667024E+03  0.64864896747E+03  0.92218250650E+02 0.  0.
          5    1    3    3  502    0  0.53078105231E+01  0.44327094393E+03  0.75678909352E+03  0.87707988499E+03  0.47000000000E+01 0. -1.
         -5    1    3    3    0  502  0.44754231425E+02  0.39391920438E+03  0.53936431772E+03  0.66941111288E+03  0.47000000000E+01 0.  1.
         13    1    5    5    0    0 -0.87951561973E+02 -0.11139477213E+03  0.24404850586E+03  0.28231887242E+03  0.00000000000E+00 0.  1.
        -13    1    5    5    0    0 -0.62533360024E+02 -0.16471196085E+03  0.51376044113E+03  0.54313004155E+03  0.00000000000E+00 0. -1.
          3    1    6    6  503    0  0.45116536067E+01 -0.21061997948E+03  0.14277895483E+03  0.25449353767E+03  0.00000000000E+00 0. -1.
         -3    1    6    6    0  503  0.95911226442E+02 -0.35046343585E+03  0.15275771541E+03  0.39415542980E+03  0.00000000000E+00 0.  1.
<mgrwt>
<rscale>  0 0.86597059E+03</rscale>
<asrwt>0</asrwt>
<pdfrwt beam="1">  1        2 0.41308367E+00 0.86597059E+03</pdfrwt>
<pdfrwt beam="2">  1       -2 0.51622298E-01 0.86597059E+03</pdfrwt>
<totfact> 0.99391891E+00</totfact>
</mgrwt>
</event>
<event>
12    1  0.3203156E-008  0.3991705E+03  0.7818608E-02  0.1044067E+00
          2   -1    0    0  501    0  0.00000000000E+00  0.00000000000E+00  0.13013810680E+04  0.13013810680E+04  0.00000000000E+00 0. -1.
         -2   -1    0    0    0  501 -0.00000000000E+00 -0.00000000000E+00 -0.31586277083E+03  0.31586277083E+03  0.00000000000E+00 0.  1.
         23    2    1    2    0    0  0.25808133781E+03  0.26157448761E+03  0.80693668095E+03  0.89138445627E+03  0.91609237073E+02 0.  0.
    5000000    2    1    2    0    0 -0.25808133781E+03 -0.26157448761E+03  0.17858161619E+03  0.72585938253E+03  0.59996104879E+03 0.  0.
         23    2    4    4    0    0 -0.22291955045E+03 -0.15397588393E+03  0.38067931761E+03  0.47599734446E+03  0.90857197161E+02 0.  0.
         23    2    4    4    0    0 -0.35161787357E+02 -0.10759860368E+03 -0.20209770142E+03  0.24986203806E+03  0.93668278186E+02 0.  0.
          5    1    3    3  502    0  0.39247581872E+02  0.96560092447E+02  0.23727612645E+03  0.25920315260E+03  0.47000000000E+01 0. -1.
         -5    1    3    3    0  502  0.21883375594E+03  0.16501439517E+03  0.56966055450E+03  0.63218130367E+03  0.47000000000E+01 0.  1.
         13    1    5    5    0    0 -0.11091400976E+03 -0.44676216455E+02  0.22749879797E+03  0.25700892000E+03  0.00000000000E+00 0. -1.
        -13    1    5    5    0    0 -0.11200554069E+03 -0.10929966747E+03  0.15318051964E+03  0.21898842447E+03  0.00000000000E+00 0.  1.
          1    1    6    6  503    0 -0.63532637593E+02 -0.90876770911E+02 -0.17520455016E+03  0.20734420158E+03  0.00000000000E+00 0. -1.
         -1    1    6    6    0  503  0.28370850235E+02 -0.16721832774E+02 -0.26893151262E+02  0.42517836483E+02  0.00000000000E+00 0.  1.
<mgrwt>
<rscale>  0 0.39917055E+03</rscale>
<asrwt>0</asrwt>
<pdfrwt beam="1">  1        2 0.20021247E+00 0.39917055E+03</pdfrwt>
<pdfrwt beam="2">  1       -2 0.48594273E-01 0.39917055E+03</pdfrwt>
<totfact> 0.70360387E+01</totfact>
</mgrwt>
</event>
<event>
12    1  0.3668315E-008  0.1198858E+04  0.7818608E-02  0.9113857E-01
          2   -1    0    0  501    0  0.00000000000E+00  0.00000000000E+00  0.18808579000E+04  0.18808579000E+04  0.00000000000E+00 0.  1.
         -2   -1    0    0    0  501 -0.00000000000E+00 -0.00000000000E+00 -0.79465158423E+03  0.79465158423E+03  0.00000000000E+00 0. -1.
         23    2    1    2    0    0  0.44217342078E+03 -0.10583420679E+04  0.48373804980E+03  0.12477152691E+04  0.84768067701E+02 0.  0.
    5000000    2    1    2    0    0 -0.44217342078E+03  0.10583420679E+04  0.60246826594E+03  0.14277942151E+04  0.60001920179E+03 0.  0.
         23    2    4    4    0    0 -0.56291459193E+02  0.72464058091E+03  0.16787580268E+03  0.75117127572E+03  0.88336291825E+02 0.  0.
         23    2    4    4    0    0 -0.38588196159E+03  0.33370148695E+03  0.43459246326E+03  0.67662293937E+03  0.93200977915E+02 0.  0.
          5    1    3    3  502    0  0.30894410869E+03 -0.72859012231E+03  0.29125616695E+03  0.84329251948E+03  0.47000000000E+01 0. -1.
         -5    1    3    3    0  502  0.13322931208E+03 -0.32975194555E+03  0.19248188286E+03  0.40442274963E+03  0.47000000000E+01 0.  1.
         11    1    5    5    0    0  0.23517536328E+02  0.22043475315E+03  0.51866177543E+02  0.22767225410E+03  0.00000000000E+00 0.  1.
        -11    1    5    5    0    0 -0.79808995521E+02  0.50420582776E+03  0.11600962513E+03  0.52349902162E+03  0.00000000000E+00 0. -1.
          3    1    6    6  503    0 -0.24384774021E+03  0.15010779314E+03  0.24767156733E+03  0.37859645433E+03  0.00000000000E+00 0. -1.
         -3    1    6    6    0  503 -0.14203422138E+03  0.18359369381E+03  0.18692089593E+03  0.29802648504E+03  0.00000000000E+00 0.  1.
<mgrwt>
<rscale>  0 0.11988577E+04</rscale>
<asrwt>0</asrwt>
<pdfrwt beam="1">  1        2 0.28936275E+00 0.11988577E+04</pdfrwt>
<pdfrwt beam="2">  1       -2 0.12225409E+00 0.11988577E+04</pdfrwt>
<totfact> 0.38482283E+00</totfact>
</mgrwt>
</event>
<event>
12    1  0.3203156E-008  0.9474885E+03  0.7818608E-02  0.9368091E-01
         -2   -1    0    0    0  501 -0.00000000000E+00  0.00000000000E+00  0.11566183239E+04  0.11566183239E+04  0.00000000000E+00 0. -1.
          2   -1    0    0  501    0  0.00000000000E+00 -0.00000000000E+00 -0.83998271665E+03  0.83998271665E+03  0.00000000000E+00 0.  1.
         23    2    1    2    0    0 -0.65602149979E+03  0.59647469979E+03  0.47811964306E+02  0.89271427421E+03  0.92230774600E+02 0.  0.
    5000000    2    1    2    0    0  0.65602149979E+03 -0.59647469979E+03  0.26882364292E+03  0.11038867663E+04  0.60012795816E+03 0.  0.
         23    2    4    4    0    0  0.16307686053E+03  0.56661640298E+02  0.19784910009E+03  0.27707933585E+03  0.88453875155E+02 0.  0.
         23    2    4    4    0    0  0.49294463926E+03 -0.65313634008E+03  0.70974542827E+02  0.82680743045E+03  0.94824285944E+02 0.  0.
          5    1    3    3  502    0 -0.18318838554E+03  0.20240902049E+03  0.47748429249E+02  0.27718116579E+03  0.47000000000E+01 0. -1.
         -5    1    3    3    0  502 -0.47283311425E+03  0.39406567930E+03  0.63535056827E-01  0.61553310842E+03  0.47000000000E+01 0.  1.
         11    1    5    5    0    0  0.37785222108E+02  0.48218652113E+02  0.10248177024E+03  0.11939545491E+03  0.00000000000E+00 0.  1.
        -11    1    5    5    0    0  0.12529163842E+03  0.84429881844E+01  0.95367329852E+02  0.15768388095E+03  0.00000000000E+00 0. -1.
          2    1    6    6  503    0  0.39030095250E+03 -0.54647218152E+03  0.25793595942E+02  0.67203570462E+03  0.00000000000E+00 0. -1.
         -2    1    6    6    0  503  0.10264368676E+03 -0.10666415857E+03  0.45180946885E+02  0.15477172583E+03  0.00000000000E+00 0.  1.
<mgrwt>
<rscale>  0 0.94748851E+03</rscale>
<asrwt>0</asrwt>
<pdfrwt beam="1">  1        2 0.12922811E+00 0.94748851E+03</pdfrwt>
<pdfrwt beam="2">  1       -2 0.17794128E+00 0.94748851E+03</pdfrwt>
<totfact> 0.60255518E+00</totfact>
</mgrwt>
</event>
<event>
12    1  0.3203156E-008  0.6273238E+03  0.7818608E-02  0.9850285E-01
         -2   -1    0    0    0  501 -0.00000000000E+00  0.00000000000E+00  0.51596382226E+03  0.51596382226E+03  0.00000000000E+00 0.  1.
          2   -1    0    0  501    0  0.00000000000E+00 -0.00000000000E+00 -0.11256693635E+04  0.11256693635E+04  0.00000000000E+00 0. -1.
         23    2    1    2    0    0 -0.19678559613E+03  0.47877719677E+03  0.14679981119E+03  0.54617009408E+03  0.93805181705E+02 0.  0.
    5000000    2    1    2    0    0  0.19678559613E+03 -0.47877719677E+03 -0.75650535246E+03  0.10954630917E+04  0.59982235872E+03 0.  0.
         23    2    4    4    0    0 -0.87007267404E+02  0.71822551247E+02 -0.55293774303E+02  0.15540946389E+03  0.91465603049E+02 0.  0.
         23    2    4    4    0    0  0.28379286353E+03 -0.55059974802E+03 -0.70121157816E+03  0.94005362783E+03  0.91129983753E+02 0.  0.
          5    1    3    3  502    0 -0.86963159934E+02  0.16408886324E+03  0.95608579835E+02  0.20892782668E+03  0.47000000000E+01 0. -1.
         -5    1    3    3    0  502 -0.10982243619E+03  0.31468833354E+03  0.51191231351E+02  0.33724226740E+03  0.47000000000E+01 0.  1.
         13    1    5    5    0    0 -0.56195937928E+02  0.59556539715E+02 -0.79673694159E+02  0.11424912430E+03  0.00000000000E+00 0. -1.
        -13    1    5    5    0    0 -0.30811329476E+02  0.12266011531E+02  0.24379919856E+02  0.41160339590E+02  0.00000000000E+00 0.  1.
          1    1    6    6  503    0  0.14086194428E+03 -0.23393775352E+03 -0.37164239362E+03  0.46118003925E+03  0.00000000000E+00 0. -1.
         -1    1    6    6    0  503  0.14293091925E+03 -0.31666199450E+03 -0.32956918454E+03  0.47887358858E+03  0.00000000000E+00 0.  1.
<mgrwt>
<rscale>  0 0.62732383E+03</rscale>
<asrwt>0</asrwt>
<pdfrwt beam="1">  1        2 0.17317990E+00 0.62732383E+03</pdfrwt>
<pdfrwt beam="2">  1       -2 0.79379050E-01 0.62732383E+03</pdfrwt>
<totfact> 0.30486618E+01</totfact>
</mgrwt>
</event>
<event>
12    1  0.3203156E-008  0.6062207E+03  0.7818608E-02  0.9892583E-01
         -2   -1    0    0    0  501 -0.00000000000E+00  0.00000000000E+00  0.20108252324E+03  0.20108252324E+03  0.00000000000E+00 0.  1.
          2   -1    0    0  501    0  0.00000000000E+00 -0.00000000000E+00 -0.21483597287E+04  0.21483597287E+04  0.00000000000E+00 0. -1.
         23    2    1    2    0    0 -0.47925342090E+03 -0.18330230810E+03 -0.85832713477E+03  0.10044355465E+04  0.94242873097E+02 0.  0.
    5000000    2    1    2    0    0  0.47925342090E+03  0.18330230810E+03 -0.10889500707E+04  0.13450067054E+04  0.59995600144E+03 0.  0.
         23    2    4    4    0    0  0.25383880924E+03  0.33558133154E+03 -0.35791059851E+03  0.55954537984E+03  0.89118260857E+02 0.  0.
         23    2    4    4    0    0  0.22541461166E+03 -0.15227902344E+03 -0.73103947215E+03  0.78546132559E+03  0.92358735543E+02 0.  0.
          5    1    3    3  502    0 -0.21941388938E+03 -0.11106461461E+03 -0.33401362966E+03  0.41480718204E+03  0.47000000000E+01 0. -1.
         -5    1    3    3    0  502 -0.25983953152E+03 -0.72237693488E+02 -0.52431350511E+03  0.58962836443E+03  0.47000000000E+01 0.  1.
         13    1    5    5    0    0  0.18847509809E+03  0.23765671083E+03 -0.30604809100E+03  0.43089326846E+03  0.00000000000E+00 0. -1.
        -13    1    5    5    0    0  0.65363711158E+02  0.97924620707E+02 -0.51862507517E+02  0.12865211138E+03  0.00000000000E+00 0.  1.
          3    1    6    6  503    0  0.19774955863E+03 -0.14945439150E+03 -0.56320260159E+03  0.61533622802E+03  0.00000000000E+00 0. -1.
         -3    1    6    6    0  503  0.27665053035E+02 -0.28246319376E+01 -0.16783687056E+03  0.17012509757E+03  0.00000000000E+00 0.  1.
<mgrwt>
<rscale>  0 0.60622074E+03</rscale>
<asrwt>0</asrwt>
<pdfrwt beam="1">  1        2 0.33051687E+00 0.60622074E+03</pdfrwt>
<pdfrwt beam="2">  1       -2 0.30935774E-01 0.60622074E+03</pdfrwt>
<totfact> 0.56241971E+01</totfact>
</mgrwt>
</event>
<event>
12    1  0.3203156E-008  0.1313469E+04  0.7818608E-02  0.9018952E-01
          2   -1    0    0  501    0  0.00000000000E+00  0.00000000000E+00  0.41443967551E+04  0.41443967551E+04  0.00000000000E+00 0. -1.
         -2   -1    0    0    0  501 -0.00000000000E+00 -0.00000000000E+00 -0.47345838330E+03  0.47345838330E+03  0.00000000000E+00 0.  1.
         23    2    1    2    0    0  0.73195291550E+03 -0.10168278677E+04  0.25128766366E+04  0.28093602560E+04  0.90895952776E+02 0.  0.
    5000000    2    1    2    0    0 -0.73195291550E+03  0.10168278677E+04  0.11580617352E+04  0.18084948824E+04  0.59987729910E+03 0.  0.
         23    2    4    4    0    0  0.39325579928E+02  0.32577579047E+03  0.37909123863E+03  0.50945735401E+03  0.90334165499E+02 0.  0.
         23    2    4    4    0    0 -0.77127849543E+03  0.69105207724E+03  0.77897049655E+03  0.12990375283E+04  0.90994365753E+02 0.  0.
          5    1    3    3  502    0  0.57098152450E+03 -0.82079017701E+03  0.19286124107E+04  0.21723913866E+04  0.47000000000E+01 0. -1.
         -5    1    3    3    0  502  0.16097139100E+03 -0.19603769070E+03  0.58426422593E+03  0.63696886941E+03  0.47000000000E+01 0.  1.
         11    1    5    5    0    0  0.57430482371E+02  0.24126412797E+03  0.31957659655E+03  0.40451927125E+03  0.00000000000E+00 0. -1.
        -11    1    5    5    0    0 -0.18104902443E+02  0.84511662507E+02  0.59514642076E+02  0.10493808276E+03  0.00000000000E+00 0.  1.
          2    1    6    6  503    0 -0.13658638071E+03  0.82140375287E+02  0.10344415645E+03  0.19000940543E+03  0.00000000000E+00 0. -1.
         -2    1    6    6    0  503 -0.63469211471E+03  0.60891170195E+03  0.67552634009E+03  0.11090281229E+04  0.00000000000E+00 0.  1.
<mgrwt>
<rscale>  0 0.13134691E+04</rscale>
<asrwt>0</asrwt>
<pdfrwt beam="1">  1        2 0.63759948E+00 0.13134691E+04</pdfrwt>
<pdfrwt beam="2">  1       -2 0.72839754E-01 0.13134691E+04</pdfrwt>
<totfact> 0.44411040E-01</totfact>
</mgrwt>
</event>
<event>
12    1  0.3203156E-008  0.2066182E+04  0.7818608E-02  0.8576288E-01
          2   -1    0    0  501    0  0.00000000000E+00  0.00000000000E+00  0.29912183922E+04  0.29912183922E+04  0.00000000000E+00 0. -1.
         -2   -1    0    0    0  501 -0.00000000000E+00 -0.00000000000E+00 -0.17765666475E+04  0.17765666475E+04  0.00000000000E+00 0.  1.
         23    2    1    2    0    0 -0.12141193078E+04 -0.16376165162E+04  0.16186388157E+04  0.26046468920E+04  0.91215504970E+02 0.  0.
    5000000    2    1    2    0    0  0.12141193078E+04  0.16376165162E+04 -0.40398707104E+03  0.21631381477E+04  0.60007294950E+03 0.  0.
         23    2    4    4    0    0  0.84056448891E+03  0.76823567371E+03 -0.34100356394E+02  0.11430834795E+04  0.93500248035E+02 0.  0.
         23    2    4    4    0    0  0.37355481888E+03  0.86938084246E+03 -0.36988671465E+03  0.10200546682E+04  0.91263861738E+02 0.  0.
          5    1    3    3  502    0 -0.28361512603E+03 -0.44541909681E+03  0.40230840309E+03  0.66385981405E+03  0.47000000000E+01 0. -1.
         -5    1    3    3    0  502 -0.93050418175E+03 -0.11921974194E+04  0.12163304127E+04  0.19407870779E+04  0.47000000000E+01 0.  1.
         11    1    5    5    0    0  0.45347799729E+03  0.47693178333E+03 -0.16796336979E+02  0.65832236550E+03  0.00000000000E+00 0. -1.
        -11    1    5    5    0    0  0.38708649162E+03  0.29130389038E+03 -0.17304019415E+02  0.48476111399E+03  0.00000000000E+00 0.  1.
          2    1    6    6  503    0  0.13880321443E+03  0.23456690742E+03 -0.82806692712E+02  0.28485946491E+03  0.00000000000E+00 0. -1.
         -2    1    6    6    0  503  0.23475160445E+03  0.63481393504E+03 -0.28708002194E+03  0.73519520327E+03  0.00000000000E+00 0.  1.
<mgrwt>
<rscale>  0 0.20661822E+04</rscale>
<asrwt>0</asrwt>
<pdfrwt beam="1">  1        2 0.46018745E+00 0.20661822E+04</pdfrwt>
<pdfrwt beam="2">  1       -2 0.27331794E+00 0.20661822E+04</pdfrwt>
<totfact> 0.71814945E-02</totfact>
</mgrwt>
</event>
<event>
12    1  0.3203156E-008  0.1198514E+04  0.7818608E-02  0.9114158E-01
         -2   -1    0    0    0  501 -0.00000000000E+00  0.00000000000E+00  0.88321832578E+03  0.88321832578E+03  0.00000000000E+00 0. -1.
          2   -1    0    0  501    0  0.00000000000E+00 -0.00000000000E+00 -0.23425211282E+04  0.23425211282E+04  0.00000000000E+00 0.  1.
         23    2    1    2    0    0 -0.98200634144E+03  0.55749422965E+03 -0.15767378940E+04  0.19415896584E+04  0.92367442939E+02 0.  0.
    5000000    2    1    2    0    0  0.98200634144E+03 -0.55749422965E+03  0.11743509154E+03  0.12841497956E+04  0.60009451435E+03 0.  0.
         23    2    4    4    0    0  0.72933453290E+03 -0.10192120233E+03  0.13666400465E+03  0.75497048574E+03  0.94797636065E+02 0.  0.
         23    2    4    4    0    0  0.25267180853E+03 -0.45557302731E+03 -0.19228913116E+02  0.52917930988E+03  0.90945944715E+02 0.  0.
          5    1    3    3  502    0 -0.11393573001E+03  0.36576936966E+02 -0.14455542410E+03  0.18771676411E+03  0.47000000000E+01 0. -1.
         -5    1    3    3    0  502 -0.86807061142E+03  0.52091729268E+03 -0.14321824699E+04  0.17538728943E+04  0.47000000000E+01 0.  1.
         13    1    5    5    0    0  0.47450013034E+03 -0.24163212371E+02  0.69197579722E+02  0.48012762841E+03  0.00000000000E+00 0.  1.
        -13    1    5    5    0    0  0.25483440257E+03 -0.77757989961E+02  0.67466424931E+02  0.27484285733E+03  0.00000000000E+00 0. -1.
          1    1    6    6  503    0  0.14535952287E+03 -0.21061535723E+03  0.28612369110E+02  0.25750123739E+03  0.00000000000E+00 0. -1.
         -1    1    6    6    0  503  0.10731228566E+03 -0.24495767008E+03 -0.47841282226E+02  0.27167807249E+03  0.00000000000E+00 0.  1.
<mgrwt>
<rscale>  0 0.11985141E+04</rscale>
<asrwt>0</asrwt>
<pdfrwt beam="1">  1        2 0.36038786E+00 0.11985141E+04</pdfrwt>
<pdfrwt beam="2">  1       -2 0.13587974E+00 0.11985141E+04</pdfrwt>
<totfact> 0.16263024E+00</totfact>
</mgrwt>
</event>
<event>
12    1  0.3203156E-008  0.3162768E+03  0.7818608E-02  0.1077376E+00
          2   -1    0    0  501    0  0.00000000000E+00  0.00000000000E+00  0.61399976925E+03  0.61399976925E+03  0.00000000000E+00 0. -1.
         -2   -1    0    0    0  501 -0.00000000000E+00 -0.00000000000E+00 -0.26838395230E+03  0.26838395230E+03  0.00000000000E+00 0.  1.
         23    2    1    2    0    0 -0.22144440227E+02 -0.90955912029E+02 -0.68774433411E+02  0.14721917776E+03  0.90444510303E+02 0.  0.
    5000000    2    1    2    0    0  0.22144440227E+02  0.90955912029E+02  0.41439025037E+03  0.73516454379E+03  0.59998689376E+03 0.  0.
         23    2    4    4    0    0 -0.24486445663E+02 -0.20053057079E+03  0.38810114006E+01  0.22114525522E+03  0.89878060814E+02 0.  0.
         23    2    4    4    0    0  0.46630885890E+02  0.29148648282E+03  0.41050923897E+03  0.51401928857E+03  0.92515861085E+02 0.  0.
          5    1    3    3  502    0 -0.27575213816E+02 -0.78695431270E+00  0.74188511778E+01  0.28950666087E+02  0.47000000000E+01 0. -1.
         -5    1    3    3    0  502  0.54307735887E+01 -0.90168957717E+02 -0.76193284589E+02  0.11826851168E+03  0.47000000000E+01 0.  1.
         13    1    5    5    0    0 -0.29685066271E+02 -0.10509428850E+03  0.43672699907E+02  0.11761512383E+03  0.00000000000E+00 0.  1.
        -13    1    5    5    0    0  0.51986206078E+01 -0.95436282288E+02 -0.39791688506E+02  0.10353013140E+03  0.00000000000E+00 0. -1.
          4    1    6    6  503    0 -0.14424966973E+02  0.19242784099E+03  0.25326051789E+03  0.31839824683E+03  0.00000000000E+00 0. -1.
         -4    1    6    6    0  503  0.61055852863E+02  0.99058641834E+02  0.15724872108E+03  0.19562104174E+03  0.00000000000E+00 0.  1.
<mgrwt>
<rscale>  0 0.31627683E+03</rscale>
<asrwt>0</asrwt>
<pdfrwt beam="1">  1        2 0.94461502E-01 0.31627683E+03</pdfrwt>
<pdfrwt beam="2">  1       -2 0.41289839E-01 0.31627683E+03</pdfrwt>
<totfact> 0.27644963E+02</totfact>
</mgrwt>
</event>
<event>
12    1  0.3633148E-008  0.1064320E+04  0.7818608E-02  0.9240683E-01
          2   -1    0    0  501    0  0.00000000000E+00  0.00000000000E+00  0.15927415344E+04  0.15927415344E+04  0.00000000000E+00 0. -1.
         -2   -1    0    0    0  501 -0.00000000000E+00 -0.00000000000E+00 -0.75929574006E+03  0.75929574006E+03  0.00000000000E+00 0.  1.
         23    2    1    2    0    0  0.31601363249E+03  0.93667778769E+03  0.13670065603E+03  0.10019900382E+04  0.89816888147E+02 0.  0.
    5000000    2    1    2    0    0 -0.31601363249E+03 -0.93667778769E+03  0.69674513832E+03  0.13500472363E+04  0.59995321365E+03 0.  0.
         23    2    4    4    0    0  0.16103894135E+03 -0.24692856567E+03  0.13604407458E+03  0.33710575127E+03  0.90692007013E+02 0.  0.
         23    2    4    4    0    0 -0.47705257384E+03 -0.68974922202E+03  0.56070106373E+03  0.10129414850E+04  0.91277717488E+02 0.  0.
          5    1    3    3  502    0  0.14226012468E+03  0.51532080551E+03  0.10702416328E+03  0.54522448330E+03  0.47000000000E+01 0. -1.
         -5    1    3    3    0  502  0.17375350781E+03  0.42135698218E+03  0.29676492750E+02  0.45676555489E+03  0.47000000000E+01 0.  1.
         13    1    5    5    0    0  0.13395822422E+03 -0.22232800721E+03  0.14777631260E+03  0.29868442743E+03  0.00000000000E+00 0. -1.
        -13    1    5    5    0    0  0.27080717132E+02 -0.24600558464E+02 -0.11732238011E+02  0.38421323844E+02  0.00000000000E+00 0.  1.
          1    1    6    6  503    0 -0.28744246404E+03 -0.47857089795E+03  0.40024856540E+03  0.68691497917E+03  0.00000000000E+00 0. -1.
         -1    1    6    6    0  503 -0.18961010979E+03 -0.21117832407E+03  0.16045249833E+03  0.32602650584E+03  0.00000000000E+00 0.  1.
<mgrwt>
<rscale>  0 0.10643197E+04</rscale>
<asrwt>0</asrwt>
<pdfrwt beam="1">  1        2 0.24503716E+00 0.10643197E+04</pdfrwt>
<pdfrwt beam="2">  1       -2 0.11681473E+00 0.10643197E+04</pdfrwt>
<totfact> 0.63122765E+00</totfact>
</mgrwt>
</event>
<event>
12    1  0.3759653E-008  0.1517922E+04  0.7818608E-02  0.8872622E-01
         -2   -1    0    0    0  501 -0.00000000000E+00  0.00000000000E+00  0.78408066872E+03  0.78408066872E+03  0.00000000000E+00 0.  1.
          2   -1    0    0  501    0  0.00000000000E+00 -0.00000000000E+00 -0.32152627539E+04  0.32152627539E+04  0.00000000000E+00 0. -1.
         23    2    1    2    0    0  0.14531646637E+04 -0.32858989506E+03 -0.16097868453E+04  0.21953471415E+04  0.92068046296E+02 0.  0.
    5000000    2    1    2    0    0 -0.14531646637E+04  0.32858989506E+03 -0.82139523988E+03  0.18039962812E+04  0.60004465107E+03 0.  0.
         23    2    4    4    0    0 -0.12870768231E+04  0.42115433336E+03 -0.83315310488E+03  0.15926346951E+04  0.91670360651E+02 0.  0.
         23    2    4    4    0    0 -0.16608784068E+03 -0.92564438299E+02  0.11757864997E+02  0.21136158603E+03  0.91553954577E+02 0.  0.
          5    1    3    3  502    0  0.54612280590E+03 -0.12886092248E+03 -0.54222363230E+03  0.78031007548E+03  0.47000000000E+01 0. -1.
         -5    1    3    3    0  502  0.90704185784E+03 -0.19972897258E+03 -0.10675632130E+04  0.14150370660E+04  0.47000000000E+01 0.  1.
         13    1    5    5    0    0 -0.62642361265E+03  0.17866240952E+03 -0.44555828863E+03  0.78920782283E+03  0.00000000000E+00 0. -1.
        -13    1    5    5    0    0 -0.66065321041E+03  0.24249192383E+03 -0.38759481625E+03  0.80342687230E+03  0.00000000000E+00 0.  1.
          4    1    6    6  503    0 -0.47842301646E+02 -0.18825310787E+02  0.44744611128E+02  0.68156865964E+02  0.00000000000E+00 0. -1.
         -4    1    6    6    0  503 -0.11824553904E+03 -0.73739127512E+02 -0.32986746131E+02  0.14320472006E+03  0.00000000000E+00 0.  1.
<mgrwt>
<rscale>  0 0.15179219E+04</rscale>
<asrwt>0</asrwt>
<pdfrwt beam="1">  1        2 0.49465581E+00 0.15179219E+04</pdfrwt>
<pdfrwt beam="2">  1       -2 0.12062780E+00 0.15179219E+04</pdfrwt>
<totfact> 0.63275204E-01</totfact>
</mgrwt>
</event>
<event>
12    1  0.3203156E-008  0.1217782E+04  0.7818608E-02  0.9097433E-01
         -1   -1    0    0    0  501 -0.00000000000E+00  0.00000000000E+00  0.76640911746E+03  0.76640911746E+03  0.00000000000E+00 0.  1.
          1   -1    0    0  501    0  0.00000000000E+00 -0.00000000000E+00 -0.21189581211E+04  0.21189581211E+04  0.00000000000E+00 0. -1.
         23    2    1    2    0    0  0.79899492015E+03  0.82967165239E+03 -0.25036200380E+03  0.11820776056E+04  0.88760349018E+02 0.  0.
    5000000    2    1    2    0    0 -0.79899492015E+03 -0.82967165239E+03 -0.11021869999E+04  0.17032896330E+04  0.59969280293E+03 0.  0.
         23    2    4    4    0    0 -0.16405572255E+03 -0.57059587797E+03 -0.59194936086E+03  0.84373161794E+03  0.94789562926E+02 0.  0.
         23    2    4    4    0    0 -0.63493919760E+03 -0.25907577442E+03 -0.51023763900E+03  0.85955801501E+03  0.90716544147E+02 0.  0.
          5    1    3    3  502    0  0.54113807617E+03  0.58464351173E+03 -0.21128464891E+03  0.82419763780E+03  0.47000000000E+01 0. -1.
         -5    1    3    3    0  502  0.25785684398E+03  0.24502814066E+03 -0.39077354889E+02  0.35787996782E+03  0.47000000000E+01 0.  1.
         13    1    5    5    0    0 -0.41528815050E+02 -0.12216894918E+03 -0.78187874732E+02  0.15087490971E+03  0.00000000000E+00 0. -1.
        -13    1    5    5    0    0 -0.12252690750E+03 -0.44842692879E+03 -0.51376148612E+03  0.69285670824E+03  0.00000000000E+00 0.  1.
          2    1    6    6  503    0 -0.18534508482E+03 -0.11038190813E+03 -0.12672575698E+03  0.25019269292E+03  0.00000000000E+00 0. -1.
         -2    1    6    6    0  503 -0.44959411278E+03 -0.14869386629E+03 -0.38351188202E+03  0.60936532209E+03  0.00000000000E+00 0.  1.
<mgrwt>
<rscale>  0 0.12177823E+04</rscale>
<asrwt>0</asrwt>
<pdfrwt beam="1">  1        1 0.32599355E+00 0.12177823E+04</pdfrwt>
<pdfrwt beam="2">  1       -1 0.11790910E+00 0.12177823E+04</pdfrwt>
<totfact> 0.15722066E+00</totfact>
</mgrwt>
</event>
<event>
12    1  0.3203156E-008  0.5713921E+03  0.7818608E-02  0.9966603E-01
          1   -1    0    0  501    0  0.00000000000E+00  0.00000000000E+00  0.24204066790E+04  0.24204066790E+04  0.00000000000E+00 0. -1.
         -1   -1    0    0    0  501 -0.00000000000E+00 -0.00000000000E+00 -0.34280017571E+03  0.34280017571E+03  0.00000000000E+00 0.  1.
         23    2    1    2    0    0 -0.38966245353E+03  0.18936894087E+03  0.19652922507E+04  0.20145098434E+04  0.90437022889E+02 0.  0.
    5000000    2    1    2    0    0  0.38966245353E+03 -0.18936894087E+03  0.11231425257E+03  0.74869701127E+03  0.60019605121E+03 0.  0.
         23    2    4    4    0    0  0.33859901745E+03 -0.37276893796E+03  0.15005803185E+03  0.53342999735E+03  0.91783296009E+02 0.  0.
         23    2    4    4    0    0  0.51063436079E+02  0.18339999710E+03 -0.37743779272E+02  0.21526701391E+03  0.93124974985E+02 0.  0.
          5    1    3    3  502    0 -0.14970832639E+03  0.26018929303E+02  0.70714785148E+03  0.72330473628E+03  0.47000000000E+01 0. -1.
         -5    1    3    3    0  502 -0.23995412714E+03  0.16335001156E+03  0.12581443992E+04  0.12912051071E+04  0.47000000000E+01 0.  1.
         13    1    5    5    0    0  0.20156662155E+03 -0.23842088395E+03  0.13741185685E+03  0.34110942413E+03  0.00000000000E+00 0.  1.
        -13    1    5    5    0    0  0.13703239590E+03 -0.13434805401E+03  0.12646174997E+02  0.19232057323E+03  0.00000000000E+00 0. -1.
          3    1    6    6  503    0  0.55846692931E+02  0.11581023831E+03 -0.62715972005E+02  0.14305298862E+03  0.00000000000E+00 0. -1.
         -3    1    6    6    0  503 -0.47832568524E+01  0.67589758790E+02  0.24972192733E+02  0.72214025295E+02  0.00000000000E+00 0.  1.
<mgrwt>
<rscale>  0 0.57139213E+03</rscale>
<asrwt>0</asrwt>
<pdfrwt beam="1">  1        1 0.37237025E+00 0.57139213E+03</pdfrwt>
<pdfrwt beam="2">  1       -1 0.52738490E-01 0.57139213E+03</pdfrwt>
<totfact> 0.61039597E+00</totfact>
</mgrwt>
</event>
<event>
12    1  0.3203156E-008  0.6030948E+03  0.7818608E-02  0.9899006E-01
          1   -1    0    0  501    0  0.00000000000E+00  0.00000000000E+00  0.45782202029E+03  0.45782202029E+03  0.00000000000E+00 0. -1.
         -1   -1    0    0    0  501 -0.00000000000E+00 -0.00000000000E+00 -0.11962478293E+04  0.11962478293E+04  0.00000000000E+00 0.  1.
         23    2    1    2    0    0  0.47299208990E+03 -0.31835546319E+03 -0.56616324681E+03  0.80866244094E+03  0.91227206951E+02 0.  0.
    5000000    2    1    2    0    0 -0.47299208990E+03  0.31835546319E+03 -0.17226256221E+03  0.84540740866E+03  0.59997298125E+03 0.  0.
         23    2    4    4    0    0 -0.91810365994E+02  0.20526378045E+03  0.18329829410E+03  0.30413497445E+03  0.91309666495E+02 0.  0.
         23    2    4    4    0    0 -0.38118172391E+03  0.11309168275E+03 -0.35556085631E+03  0.54127243422E+03  0.91995055059E+02 0.  0.
          5    1    3    3  502    0  0.38307809145E+03 -0.27638319758E+03 -0.50731555468E+03  0.69320102284E+03  0.47000000000E+01 0. -1.
         -5    1    3    3    0  502  0.89913998456E+02 -0.41972265617E+02 -0.58847692128E+02  0.11546141809E+03  0.47000000000E+01 0.  1.
         11    1    5    5    0    0  0.80474004377E+01  0.20638629204E+02 -0.43624963193E+01  0.22577534041E+02  0.00000000000E+00 0.  1.
        -11    1    5    5    0    0 -0.99857766432E+02  0.18462515124E+03  0.18766079042E+03  0.28155744041E+03  0.00000000000E+00 0. -1.
          2    1    6    6  503    0 -0.62412098013E+02  0.43634469576E+02 -0.10599581769E+03  0.13051570895E+03  0.00000000000E+00 0.  1.
         -2    1    6    6    0  503 -0.31876962590E+03  0.69457213169E+02 -0.24956503862E+03  0.41075672527E+03  0.00000000000E+00 0. -1.
<mgrwt>
<rscale>  0 0.60309483E+03</rscale>
<asrwt>0</asrwt>
<pdfrwt beam="1">  1        1 0.70434158E-01 0.60309483E+03</pdfrwt>
<pdfrwt beam="2">  1       -1 0.18403812E+00 0.60309483E+03</pdfrwt>
<totfact> 0.10245244E+01</totfact>
</mgrwt>
</event>
<event>
12    1  0.3203156E-008  0.2010558E+04  0.7818608E-02  0.8601700E-01
          2   -1    0    0  501    0  0.00000000000E+00  0.00000000000E+00  0.31244498949E+04  0.31244498949E+04  0.00000000000E+00 0. -1.
         -2   -1    0    0    0  501 -0.00000000000E+00 -0.00000000000E+00 -0.18686584601E+04  0.18686584601E+04  0.00000000000E+00 0.  1.
         23    2    1    2    0    0 -0.51548057683E+03 -0.19394051521E+04  0.19370766072E+04  0.27906480464E+04  0.91859499697E+02 0.  0.
    5000000    2    1    2    0    0  0.51548057683E+03  0.19394051521E+04 -0.68128517236E+03  0.22024603087E+04  0.59972440032E+03 0.  0.
         23    2    4    4    0    0  0.23188401287E+03  0.11248114391E+04 -0.67250408284E+03  0.13348593535E+04  0.10303777648E+03 0.  0.
         23    2    4    4    0    0  0.28359656396E+03  0.81459371297E+03 -0.87810895226E+01  0.86760095514E+03  0.93082659643E+02 0.  0.
          5    1    3    3  502    0 -0.29056025202E+03 -0.92389469960E+03  0.95335239922E+03  0.13590105088E+04  0.47000000000E+01 0. -1.
         -5    1    3    3    0  502 -0.22492032481E+03 -0.10155104525E+04  0.98372420796E+03  0.14316375375E+04  0.47000000000E+01 0.  1.
         13    1    5    5    0    0  0.13566839876E+03  0.60632526551E+03 -0.30535505617E+03  0.69229903391E+03  0.00000000000E+00 0. -1.
        -13    1    5    5    0    0  0.96215614109E+02  0.51848617358E+03 -0.36714902667E+03  0.64256031964E+03  0.00000000000E+00 0.  1.
          1    1    6    6  503    0  0.93789870137E+02  0.20692396233E+03  0.33175014849E+02  0.22959670628E+03  0.00000000000E+00 0.  1.
         -1    1    6    6    0  503  0.18980669383E+03  0.60766975064E+03 -0.41956104371E+02  0.63800424886E+03  0.00000000000E+00 0. -1.
<mgrwt>
<rscale>  0 0.20105583E+04</rscale>
<asrwt>0</asrwt>
<pdfrwt beam="1">  1        2 0.48068460E+00 0.20105583E+04</pdfrwt>
<pdfrwt beam="2">  1       -2 0.28748592E+00 0.20105583E+04</pdfrwt>
<totfact> 0.48650903E-02</totfact>
</mgrwt>
</event>
<event>
12    1  0.3203156E-008  0.3394656E+03  0.7818608E-02  0.1067024E+00
         -2   -1    0    0    0  501 -0.00000000000E+00  0.00000000000E+00  0.15966846892E+03  0.15966846892E+03  0.00000000000E+00 0. -1.
          2   -1    0    0  501    0  0.00000000000E+00 -0.00000000000E+00 -0.23703845134E+04  0.23703845134E+04  0.00000000000E+00 0.  1.
         23    2    1    2    0    0  0.21236030987E+03  0.21725193397E+03 -0.12869614414E+03  0.34211382633E+03  0.90464736955E+02 0.  0.
    5000000    2    1    2    0    0 -0.21236030987E+03 -0.21725193397E+03 -0.20820199003E+04  0.21879391560E+04  0.59997965039E+03 0.  0.
         23    2    4    4    0    0 -0.16868248837E+03 -0.61236920664E+02 -0.15616422212E+03  0.25309668730E+03  0.86411379562E+02 0.  0.
         23    2    4    4    0    0 -0.43677821498E+02 -0.15601501330E+03 -0.19258556782E+04  0.19348424686E+04  0.91906739979E+02 0.  0.
          5    1    3    3  502    0  0.76334268471E+02  0.14227977936E+03 -0.68998850567E+02  0.17565132376E+03  0.47000000000E+01 0.  1.
         -5    1    3    3    0  502  0.13602604140E+03  0.74972154608E+02 -0.59697293576E+02  0.16646250258E+03  0.47000000000E+01 0. -1.
         13    1    5    5    0    0 -0.10506558889E+03 -0.63624593515E+02 -0.14223317658E+03  0.18792855927E+03  0.00000000000E+00 0. -1.
        -13    1    5    5    0    0 -0.63616899484E+02  0.23876728512E+01 -0.13931045538E+02  0.65168128034E+02  0.00000000000E+00 0.  1.
          1    1    6    6  503    0 -0.62040107727E+02 -0.12158148909E+03 -0.17137268888E+04  0.17191541184E+04  0.00000000000E+00 0. -1.
         -1    1    6    6    0  503  0.18362286229E+02 -0.34433524215E+02 -0.21212878937E+03  0.21568835023E+03  0.00000000000E+00 0.  1.
<mgrwt>
<rscale>  0 0.33946557E+03</rscale>
<asrwt>0</asrwt>
<pdfrwt beam="1">  1        2 0.36467454E+00 0.33946557E+03</pdfrwt>
<pdfrwt beam="2">  1       -2 0.24564380E-01 0.33946557E+03</pdfrwt>
<totfact> 0.68327480E+01</totfact>
</mgrwt>
</event>
<event>
12    1  0.3203156E-008  0.4317198E+03  0.7818608E-02  0.1033318E+00
          2   -1    0    0  501    0  0.00000000000E+00  0.00000000000E+00  0.23125092662E+04  0.23125092662E+04  0.00000000000E+00 0. -1.
         -2   -1    0    0    0  501 -0.00000000000E+00 -0.00000000000E+00 -0.22127619599E+03  0.22127619599E+03  0.00000000000E+00 0.  1.
         23    2    1    2    0    0 -0.42116369694E+02  0.39700522676E+03  0.16252569144E+04  0.16754517441E+04  0.79319420836E+02 0.  0.
    5000000    2    1    2    0    0  0.42116369694E+02 -0.39700522676E+03  0.46597615582E+03  0.85833371804E+03  0.60018001888E+03 0.  0.
         23    2    4    4    0    0 -0.87049599311E+02 -0.21321271512E+03 -0.80827838296E+02  0.26043614602E+03  0.90865571487E+02 0.  0.
         23    2    4    4    0    0  0.12916596900E+03 -0.18379251164E+03  0.54680399412E+03  0.59789757202E+03  0.89573231279E+02 0.  0.
          5    1    3    3  502    0 -0.68224501223E+01  0.79292065135E+02  0.21224696059E+03  0.22672591316E+03  0.47000000000E+01 0. -1.
         -5    1    3    3    0  502 -0.35293919572E+02  0.31771316163E+03  0.14130099538E+04  0.14487258310E+04  0.47000000000E+01 0.  1.
         13    1    5    5    0    0 -0.46657356305E+02 -0.12569347224E+03  0.87645678346E+00  0.13407656782E+03  0.00000000000E+00 0. -1.
        -13    1    5    5    0    0 -0.40392243006E+02 -0.87519242880E+02 -0.81704295080E+02  0.12635957820E+03  0.00000000000E+00 0.  1.
          4    1    6    6  503    0  0.25890067742E+02 -0.91336171900E+02  0.14938401954E+03  0.17699767569E+03  0.00000000000E+00 0. -1.
         -4    1    6    6    0  503  0.10327590126E+03 -0.92456339738E+02  0.39741997458E+03  0.42089989633E+03  0.00000000000E+00 0.  1.
<mgrwt>
<rscale>  0 0.43171981E+03</rscale>
<asrwt>0</asrwt>
<pdfrwt beam="1">  1        2 0.35577064E+00 0.43171981E+03</pdfrwt>
<pdfrwt beam="2">  1       -2 0.34042493E-01 0.43171981E+03</pdfrwt>
<totfact> 0.39555787E+01</totfact>
</mgrwt>
</event>
<event>
12    1  0.3203156E-008  0.4582341E+03  0.7818608E-02  0.1025295E+00
          1   -1    0    0  501    0  0.00000000000E+00  0.00000000000E+00  0.64313057629E+03  0.64313057629E+03  0.00000000000E+00 0. -1.
         -1   -1    0    0    0  501 -0.00000000000E+00 -0.00000000000E+00 -0.44994608063E+03  0.44994608063E+03  0.00000000000E+00 0.  1.
         23    2    1    2    0    0  0.29965336424E+03  0.20334737752E+03  0.93736008132E+02  0.38511849241E+03  0.91583400972E+02 0.  0.
    5000000    2    1    2    0    0 -0.29965336424E+03 -0.20334737752E+03  0.99448487530E+02  0.70795816450E+03  0.60014370477E+03 0.  0.
         23    2    4    4    0    0 -0.34880601561E+03 -0.28107196493E+03 -0.99450895885E+02  0.46825647337E+03  0.93308939364E+02 0.  0.
         23    2    4    4    0    0  0.49152651377E+02  0.77724587406E+02  0.19889938341E+03  0.23970169113E+03  0.97153699794E+02 0.  0.
          5    1    3    3  502    0  0.17846347267E+03  0.69696022246E+02  0.64988153038E+02  0.20236673795E+03  0.47000000000E+01 0. -1.
         -5    1    3    3    0  502  0.12118989156E+03  0.13365135528E+03  0.28747855094E+02  0.18275175446E+03  0.47000000000E+01 0.  1.
         11    1    5    5    0    0 -0.24609738308E+03 -0.17347102269E+03 -0.10641101861E+03  0.31934217159E+03  0.00000000000E+00 0. -1.
        -11    1    5    5    0    0 -0.10270863253E+03 -0.10760094224E+03  0.69601227269E+01  0.14891430179E+03  0.00000000000E+00 0.  1.
          4    1    6    6  503    0  0.37281050995E+02  0.72513723861E+02  0.62621302373E+02  0.10280828966E+03  0.00000000000E+00 0. -1.
         -4    1    6    6    0  503  0.11871600382E+02  0.52108635442E+01  0.13627808104E+03  0.13689340147E+03  0.00000000000E+00 0.  1.
<mgrwt>
<rscale>  0 0.45823407E+03</rscale>
<asrwt>0</asrwt>
<pdfrwt beam="1">  1        1 0.98943166E-01 0.45823407E+03</pdfrwt>
<pdfrwt beam="2">  1       -1 0.69222474E-01 0.45823407E+03</pdfrwt>
<totfact> 0.68684005E+01</totfact>
</mgrwt>
</event>
<event>
12    1  0.3352317E-008  0.1604256E+04  0.7818608E-02  0.8817938E-01
          2   -1    0    0  501    0  0.00000000000E+00  0.00000000000E+00  0.31442111652E+04  0.31442111652E+04  0.00000000000E+00 0.  1.
         -2   -1    0    0    0  501 -0.00000000000E+00 -0.00000000000E+00 -0.13489721633E+04  0.13489721633E+04  0.00000000000E+00 0. -1.
         23    2    1    2    0    0  0.13720516297E+04  0.78425444188E+03 -0.48407400592E+03  0.16554211118E+04  0.92253509631E+02 0.  0.
    5000000    2    1    2    0    0 -0.13720516297E+04 -0.78425444188E+03  0.22793130077E+04  0.28377622167E+04  0.60003825455E+03 0.  0.
         23    2    4    4    0    0 -0.61230400972E+02 -0.87462236080E+02  0.35499747741E+02  0.14575441827E+03  0.92656967423E+02 0.  0.
         23    2    4    4    0    0 -0.13108212288E+04 -0.69679220580E+03  0.22438132600E+04  0.26920077984E+04  0.91849709534E+02 0.  0.
          5    1    3    3  502    0  0.46605720047E+03  0.22573164127E+03 -0.18425806383E+03  0.54967009384E+03  0.47000000000E+01 0. -1.
         -5    1    3    3    0  502  0.90599442926E+03  0.55852280060E+03 -0.29981594210E+03  0.11057510180E+04  0.47000000000E+01 0.  1.
         11    1    5    5    0    0 -0.46828477326E+02  0.42041134642E+01  0.22273031038E+02  0.52025654924E+02  0.00000000000E+00 0. -1.
        -11    1    5    5    0    0 -0.14401923646E+02 -0.91666349544E+02  0.13226716703E+02  0.93728763345E+02  0.00000000000E+00 0.  1.
          4    1    6    6  503    0 -0.49965900109E+03 -0.22352118665E+03  0.78292224195E+03  0.95529475828E+03  0.00000000000E+00 0. -1.
         -4    1    6    6    0  503 -0.81116222767E+03 -0.47327101914E+03  0.14608910180E+04  0.17367130401E+04  0.00000000000E+00 0.  1.
<mgrwt>
<rscale>  0 0.16042560E+04</rscale>
<asrwt>0</asrwt>
<pdfrwt beam="1">  1        2 0.48372479E+00 0.16042560E+04</pdfrwt>
<pdfrwt beam="2">  1       -2 0.20753418E+00 0.16042560E+04</pdfrwt>
<totfact> 0.15591201E-01</totfact>
</mgrwt>
</event>
<event>
12    1  0.3203156E-008  0.2703559E+03  0.7818608E-02  0.1101076E+00
         -1   -1    0    0    0  501 -0.00000000000E+00  0.00000000000E+00  0.10734350727E+04  0.10734350727E+04  0.00000000000E+00 0.  1.
          1   -1    0    0  501    0  0.00000000000E+00 -0.00000000000E+00 -0.19798106970E+03  0.19798106970E+03  0.00000000000E+00 0. -1.
         23    2    1    2    0    0 -0.26211751585E+02  0.22924457109E+03  0.10797494515E+03  0.27043051307E+03  0.90741084004E+02 0.  0.
    5000000    2    1    2    0    0  0.26211751585E+02 -0.22924457109E+03  0.76747905787E+03  0.10009856294E+04  0.59975661447E+03 0.  0.
         23    2    4    4    0    0 -0.78766360669E+02 -0.14248005104E+03 -0.27486190290E+02  0.18922720922E+03  0.92448588615E+02 0.  0.
         23    2    4    4    0    0  0.10497811225E+03 -0.86764520052E+02  0.79496524816E+03  0.81175842013E+03  0.91834094284E+02 0.  0.
          5    1    3    3  502    0  0.67025000520E+01  0.31745660899E+02 -0.14310328604E+02  0.35771301313E+02  0.47000000000E+01 0. -1.
         -5    1    3    3    0  502 -0.32914251637E+02  0.19749891019E+03  0.12228527375E+03  0.23465921176E+03  0.47000000000E+01 0.  1.
         11    1    5    5    0    0 -0.42057468862E+02 -0.12095095901E+03  0.15197636386E+02  0.12895322146E+03  0.00000000000E+00 0.  1.
        -11    1    5    5    0    0 -0.36708891807E+02 -0.21529092024E+02 -0.42683826676E+02  0.60273987762E+02  0.00000000000E+00 0. -1.
          4    1    6    6  503    0  0.29454659683E+02 -0.15889309165E+02  0.45833732770E+03  0.45955756232E+03  0.00000000000E+00 0. -1.
         -4    1    6    6    0  503  0.75523452572E+02 -0.70875210886E+02  0.33662792046E+03  0.35220085781E+03  0.00000000000E+00 0.  1.
<mgrwt>
<rscale>  0 0.27035588E+03</rscale>
<asrwt>0</asrwt>
<pdfrwt beam="1">  1        1 0.30458627E-01 0.27035588E+03</pdfrwt>
<pdfrwt beam="2">  1       -1 0.16514385E+00 0.27035588E+03</pdfrwt>
<totfact> 0.43720093E+01</totfact>
</mgrwt>
</event>
<event>
12    1  0.3203156E-008  0.3552141E+03  0.7818608E-02  0.1060495E+00
          2   -1    0    0  501    0  0.00000000000E+00  0.00000000000E+00  0.80511306350E+03  0.80511306350E+03  0.00000000000E+00 0.  1.
         -2   -1    0    0    0  501 -0.00000000000E+00 -0.00000000000E+00 -0.23663574388E+03  0.23663574388E+03  0.00000000000E+00 0. -1.
         23    2    1    2    0    0 -0.75192890044E+02  0.19542433392E+03  0.22129363949E+03  0.31757794876E+03  0.89667372334E+02 0.  0.
    5000000    2    1    2    0    0  0.75192890044E+02 -0.19542433392E+03  0.34718368013E+03  0.72417085862E+03  0.60003523540E+03 0.  0.
         23    2    4    4    0    0 -0.18799589933E+03 -0.99004918720E+02  0.36195677359E+03  0.42881512846E+03  0.87893551219E+02 0.  0.
         23    2    4    4    0    0  0.26318878938E+03 -0.96419415205E+02 -0.14773093467E+02  0.29535573016E+03  0.91933239723E+02 0.  0.
          5    1    3    3  502    0 -0.40391691929E+02  0.13734437501E+03  0.20085188055E+03  0.24669522501E+03  0.47000000000E+01 0. -1.
         -5    1    3    3    0  502 -0.34801198116E+02  0.58079958917E+02  0.20441758934E+02  0.70882723752E+02  0.47000000000E+01 0.  1.
         13    1    5    5    0    0 -0.33241790957E+02 -0.43182951254E+02  0.15584006574E+03  0.16509364020E+03  0.00000000000E+00 0.  1.
        -13    1    5    5    0    0 -0.15475410838E+03 -0.55821967466E+02  0.20611670785E+03  0.26372148826E+03  0.00000000000E+00 0. -1.
          1    1    6    6  503    0  0.72871303487E+02 -0.28067819045E+02 -0.46163647379E+02  0.90714451314E+02  0.00000000000E+00 0. -1.
         -1    1    6    6    0  503  0.19031748589E+03 -0.68351596160E+02  0.31390553912E+02  0.20464127885E+03  0.00000000000E+00 0.  1.
<mgrwt>
<rscale>  0 0.35521407E+03</rscale>
<asrwt>0</asrwt>
<pdfrwt beam="1">  1        2 0.12386355E+00 0.35521407E+03</pdfrwt>
<pdfrwt beam="2">  1       -2 0.36405499E-01 0.35521407E+03</pdfrwt>
<totfact> 0.25100075E+02</totfact>
</mgrwt>
</event>
<event>
12    1  0.3203156E-008  0.1516115E+04  0.7818608E-02  0.8873807E-01
          1   -1    0    0  501    0  0.00000000000E+00  0.00000000000E+00  0.19422712562E+04  0.19422712562E+04  0.00000000000E+00 0. -1.
         -1   -1    0    0    0  501 -0.00000000000E+00 -0.00000000000E+00 -0.12910001038E+04  0.12910001038E+04  0.00000000000E+00 0.  1.
         23    2    1    2    0    0 -0.13934703698E+04 -0.48592686245E+03  0.70704369446E+03  0.16392085259E+04  0.95964671482E+02 0.  0.
    5000000    2    1    2    0    0  0.13934703698E+04  0.48592686245E+03 -0.55772542074E+02  0.15940628341E+04  0.60003429518E+03 0.  0.
         23    2    4    4    0    0  0.45539082616E+03 -0.68332339661E+02  0.12497013120E+03  0.48586163504E+03  0.91618128742E+02 0.  0.
         23    2    4    4    0    0  0.93807954366E+03  0.55425920211E+03 -0.18074267328E+03  0.11082011991E+04  0.90804682175E+02 0.  0.
          5    1    3    3  502    0 -0.71568507530E+03 -0.20898235590E+03  0.38828878850E+03  0.84063608379E+03  0.47000000000E+01 0. -1.
         -5    1    3    3    0  502 -0.67778529452E+03 -0.27694450655E+03  0.31875490596E+03  0.79857244208E+03  0.47000000000E+01 0.  1.
         13    1    5    5    0    0  0.20932643185E+03 -0.32095130599E+01  0.19218525793E+02  0.21023131969E+03  0.00000000000E+00 0.  1.
        -13    1    5    5    0    0  0.24606439431E+03 -0.65122826601E+02  0.10575160541E+03  0.27563031535E+03  0.00000000000E+00 0. -1.
          1    1    6    6  503    0  0.73424468606E+03  0.45550001940E+03 -0.11070621642E+03  0.87112076834E+03  0.00000000000E+00 0. -1.
         -1    1    6    6    0  503  0.20383485760E+03  0.98759182712E+02 -0.70036456858E+02  0.23708043072E+03  0.00000000000E+00 0.  1.
<mgrwt>
<rscale>  0 0.15161147E+04</rscale>
<asrwt>0</asrwt>
<pdfrwt beam="1">  1        1 0.29881096E+00 0.15161147E+04</pdfrwt>
<pdfrwt beam="2">  1       -1 0.19861540E+00 0.15161147E+04</pdfrwt>
<totfact> 0.47368184E-01</totfact>
</mgrwt>
</event>
<event>
12    1  0.3203156E-008  0.9317219E+03  0.7818608E-02  0.9386774E-01
         -1   -1    0    0    0  501 -0.00000000000E+00  0.00000000000E+00  0.12087986248E+04  0.12087986248E+04  0.00000000000E+00 0.  1.
          1   -1    0    0  501    0  0.00000000000E+00 -0.00000000000E+00 -0.82532927687E+03  0.82532927687E+03  0.00000000000E+00 0. -1.
         23    2    1    2    0    0 -0.84016424361E+03 -0.24352697321E+03 -0.65918439985E+02  0.88197066471E+03  0.91354637327E+02 0.  0.
    5000000    2    1    2    0    0  0.84016424361E+03  0.24352697321E+03  0.44938778790E+03  0.11521572369E+04  0.60027957802E+03 0.  0.
         23    2    4    4    0    0  0.49514296916E+03  0.35378162198E+03  0.47558940383E+03  0.77748940747E+03  0.89311263159E+02 0.  0.
         23    2    4    4    0    0  0.34502127445E+03 -0.11025464876E+03 -0.26201615940E+02  0.37466782946E+03  0.92161219400E+02 0.  0.
          5    1    3    3  502    0 -0.65132942184E+03 -0.14995974799E+03 -0.39936668245E+02  0.66957820249E+03  0.47000000000E+01 0. -1.
         -5    1    3    3    0  502 -0.18883482177E+03 -0.93567225222E+02 -0.25981771740E+02  0.21239246223E+03  0.47000000000E+01 0.  1.
         13    1    5    5    0    0  0.11201276836E+03  0.12717508091E+03  0.11778463960E+03  0.20638212811E+03  0.00000000000E+00 0.  1.
        -13    1    5    5    0    0  0.38313020080E+03  0.22660654107E+03  0.35780476424E+03  0.57110727936E+03  0.00000000000E+00 0. -1.
          3    1    6    6  503    0  0.19933248771E+03 -0.10155814276E+03  0.11234721540E+02  0.22399490170E+03  0.00000000000E+00 0. -1.
         -3    1    6    6    0  503  0.14568878674E+03 -0.86965060002E+01 -0.37436337480E+02  0.15067292777E+03  0.00000000000E+00 0.  1.
<mgrwt>
<rscale>  0 0.93172187E+03</rscale>
<asrwt>0</asrwt>
<pdfrwt beam="1">  1        1 0.12697373E+00 0.93172187E+03</pdfrwt>
<pdfrwt beam="2">  1       -1 0.18596902E+00 0.93172187E+03</pdfrwt>
<totfact> 0.40117304E+00</totfact>
</mgrwt>
</event>
<event>
12    1  0.3203156E-008  0.1726479E+04  0.7818608E-02  0.8746405E-01
          1   -1    0    0  501    0  0.00000000000E+00  0.00000000000E+00  0.17263398061E+04  0.17263398061E+04  0.00000000000E+00 0. -1.
         -1   -1    0    0    0  501 -0.00000000000E+00 -0.00000000000E+00 -0.21114609334E+04  0.21114609334E+04  0.00000000000E+00 0.  1.
         23    2    1    2    0    0  0.14085239000E+04  0.94025743701E+03 -0.96322870126E+03  0.19504187773E+04  0.91105713097E+02 0.  0.
    5000000    2    1    2    0    0 -0.14085239000E+04 -0.94025743701E+03  0.57810757392E+03  0.18873819622E+04  0.59998223250E+03 0.  0.
         23    2    4    4    0    0 -0.24642871303E+03  0.24431270001E+02 -0.98852608548E+01  0.26411317197E+03  0.91291027298E+02 0.  0.
         23    2    4    4    0    0 -0.11620951870E+04 -0.96468870701E+03  0.58799283477E+03  0.16232687902E+04  0.90423815624E+02 0.  0.
          5    1    3    3  502    0  0.75591104603E+03  0.52970404221E+03 -0.47872585599E+03  0.10398021047E+04  0.47000000000E+01 0. -1.
         -5    1    3    3    0  502  0.65261285402E+03  0.41055339480E+03 -0.48450284527E+03  0.91061667253E+03  0.47000000000E+01 0.  1.
         11    1    5    5    0    0 -0.15633086672E+03  0.13254399423E+02  0.38060256116E+02  0.16144225621E+03  0.00000000000E+00 0. -1.
        -11    1    5    5    0    0 -0.90097846313E+02  0.11176870579E+02 -0.47945516971E+02  0.10267091576E+03  0.00000000000E+00 0.  1.
          4    1    6    6  503    0 -0.43183055291E+03 -0.39111270271E+03  0.18807397742E+03  0.61222430010E+03  0.00000000000E+00 0.  1.
         -4    1    6    6    0  503 -0.73026463410E+03 -0.57357600430E+03  0.39991885735E+03  0.10110444901E+04  0.00000000000E+00 0. -1.
<mgrwt>
<rscale>  0 0.17264789E+04</rscale>
<asrwt>0</asrwt>
<pdfrwt beam="1">  1        1 0.26559074E+00 0.17264789E+04</pdfrwt>
<pdfrwt beam="2">  1       -1 0.32484014E+00 0.17264789E+04</pdfrwt>
<totfact> 0.95693148E-02</totfact>
</mgrwt>
</event>
<event>
12    1  0.3203156E-008  0.5021513E+03  0.7818608E-02  0.1013219E+00
         -2   -1    0    0    0  501 -0.00000000000E+00  0.00000000000E+00  0.85185323406E+02  0.85185323406E+02  0.00000000000E+00 0.  1.
          2   -1    0    0  501    0  0.00000000000E+00 -0.00000000000E+00 -0.36402736844E+04  0.36402736844E+04  0.00000000000E+00 0. -1.
         23    2    1    2    0    0 -0.32497222567E+03  0.18642895262E+03 -0.93561061723E+03  0.10121595131E+04  0.93471658899E+02 0.  0.
    5000000    2    1    2    0    0  0.32497222567E+03 -0.18642895262E+03 -0.26194777437E+04  0.27132994947E+04  0.59997316287E+03 0.  0.
         23    2    4    4    0    0  0.39080771718E+03  0.35928605967E+02 -0.20829260817E+04  0.21214382327E+04  0.88868313651E+02 0.  0.
         23    2    4    4    0    0 -0.65835491514E+02 -0.22235755859E+03 -0.53655166209E+03  0.59186126196E+03  0.92924009365E+02 0.  0.
          5    1    3    3  502    0 -0.28838641053E+03  0.18378404482E+03 -0.88994365127E+03  0.95339660653E+03  0.47000000000E+01 0. -1.
         -5    1    3    3    0  502 -0.36585815133E+02  0.26449078030E+01 -0.45666965963E+02  0.58762906553E+02  0.47000000000E+01 0.  1.
         11    1    5    5    0    0  0.21477820544E+03  0.27221210544E+02 -0.91338764798E+03  0.93869466139E+03  0.00000000000E+00 0.  1.
        -11    1    5    5    0    0  0.17602951174E+03  0.87073954225E+01 -0.11695384337E+04  0.11827435713E+04  0.00000000000E+00 0. -1.
          2    1    6    6  503    0 -0.28555434125E+02 -0.12748510293E+03 -0.40430641255E+03  0.42489003227E+03  0.00000000000E+00 0. -1.
         -2    1    6    6    0  503 -0.37280057388E+02 -0.94872455658E+02 -0.13224524954E+03  0.16697122970E+03  0.00000000000E+00 0.  1.
<mgrwt>
<rscale>  0 0.50215128E+03</rscale>
<asrwt>0</asrwt>
<pdfrwt beam="1">  1        2 0.56004225E+00 0.50215128E+03</pdfrwt>
<pdfrwt beam="2">  1       -2 0.13105431E-01 0.50215128E+03</pdfrwt>
<totfact> 0.32335571E+01</totfact>
</mgrwt>
</event>
<event>
12    1  0.3203156E-008  0.6726437E+03  0.7818608E-02  0.9765194E-01
          2   -1    0    0  501    0  0.00000000000E+00  0.00000000000E+00  0.79225925333E+03  0.79225925333E+03  0.00000000000E+00 0. -1.
         -2   -1    0    0    0  501 -0.00000000000E+00 -0.00000000000E+00 -0.69675627269E+03  0.69675627269E+03  0.00000000000E+00 0.  1.
         23    2    1    2    0    0  0.47761029568E+03 -0.35267145747E+03 -0.13133970773E+03  0.61490483161E+03  0.91482685001E+02 0.  0.
    5000000    2    1    2    0    0 -0.47761029568E+03  0.35267145747E+03  0.22684268837E+03  0.87411069441E+03  0.60010261569E+03 0.  0.
         23    2    4    4    0    0  0.43496236177E+02  0.18226017654E+03  0.23597635054E+03  0.31847564210E+03  0.10310772077E+03 0.  0.
         23    2    4    4    0    0 -0.52110653186E+03  0.17041128093E+03 -0.91336621678E+01  0.55563505231E+03  0.89748901688E+02 0.  0.
          5    1    3    3  502    0  0.24039139768E+03 -0.23267052093E+03 -0.64435738581E+02  0.34073105199E+03  0.47000000000E+01 0. -1.
         -5    1    3    3    0  502  0.23721889800E+03 -0.12000093655E+03 -0.66903969149E+02  0.27417377962E+03  0.47000000000E+01 0.  1.
         13    1    5    5    0    0  0.58084975747E+01  0.13748023669E+03  0.21699444926E+03  0.25694580194E+03  0.00000000000E+00 0. -1.
        -13    1    5    5    0    0  0.37687738602E+02  0.44779939852E+02  0.18981901279E+02  0.61529840161E+02  0.00000000000E+00 0.  1.
          3    1    6    6  503    0 -0.38929479771E+03  0.13710739355E+03  0.30958335938E+02  0.41389285504E+03  0.00000000000E+00 0. -1.
         -3    1    6    6    0  503 -0.13181173415E+03  0.33303887385E+02 -0.40091998106E+02  0.14174219727E+03  0.00000000000E+00 0.  1.
<mgrwt>
<rscale>  0 0.67264368E+03</rscale>
<asrwt>0</asrwt>
<pdfrwt beam="1">  1        2 0.12188604E+00 0.67264368E+03</pdfrwt>
<pdfrwt beam="2">  1       -2 0.10719327E+00 0.67264368E+03</pdfrwt>
<totfact> 0.24942150E+01</totfact>
</mgrwt>
</event>
<event>
12    1  0.3203156E-008  0.5818337E+03  0.7818608E-02  0.9943829E-01
         -2   -1    0    0    0  501 -0.00000000000E+00  0.00000000000E+00  0.44400839449E+03  0.44400839449E+03  0.00000000000E+00 0.  1.
          2   -1    0    0  501    0  0.00000000000E+00 -0.00000000000E+00 -0.10326477472E+04  0.10326477472E+04  0.00000000000E+00 0. -1.
         23    2    1    2    0    0 -0.21918315684E+03  0.37690549896E+03 -0.58461929567E+03  0.73499947207E+03  0.91353662631E+02 0.  0.
    5000000    2    1    2    0    0  0.21918315684E+03 -0.37690549896E+03 -0.40200570733E+01  0.74165666966E+03  0.59994953405E+03 0.  0.
         23    2    4    4    0    0 -0.15436637421E+03 -0.29724041784E+03 -0.29466379336E+02  0.34812849753E+03  0.90245995995E+02 0.  0.
         23    2    4    4    0    0  0.37354953105E+03 -0.79665081119E+02  0.25446322263E+02  0.39352817213E+03  0.91275022054E+02 0.  0.
          5    1    3    3  502    0 -0.69771545078E+02  0.93326922990E+02 -0.22369400909E+03  0.25226787897E+03  0.47000000000E+01 0. -1.
         -5    1    3    3    0  502 -0.14941161176E+03  0.28357857597E+03 -0.36092528659E+03  0.48273159310E+03  0.47000000000E+01 0.  1.
         11    1    5    5    0    0 -0.11901912970E+03 -0.20808050833E+03  0.19377653320E+02  0.24049645451E+03  0.00000000000E+00 0. -1.
        -11    1    5    5    0    0 -0.35347244509E+02 -0.89159909508E+02 -0.48844032657E+02  0.10763204302E+03  0.00000000000E+00 0.  1.
          3    1    6    6  503    0  0.28545920627E+03 -0.96189020700E+02  0.35609485602E+02  0.30332708684E+03  0.00000000000E+00 0. -1.
         -3    1    6    6    0  503  0.88090324776E+02  0.16523939581E+02 -0.10163163340E+02  0.90201085290E+02  0.00000000000E+00 0.  1.
<mgrwt>
<rscale>  0 0.58183372E+03</rscale>
<asrwt>0</asrwt>
<pdfrwt beam="1">  1        2 0.15886888E+00 0.58183372E+03</pdfrwt>
<pdfrwt beam="2">  1       -2 0.68308985E-01 0.58183372E+03</pdfrwt>
<totfact> 0.48637036E+01</totfact>
</mgrwt>
</event>
<event>
12    1  0.3203156E-008  0.6163347E+03  0.7818608E-02  0.9872085E-01
          1   -1    0    0  501    0  0.00000000000E+00  0.00000000000E+00  0.14220845027E+04  0.14220845027E+04  0.00000000000E+00 0. -1.
         -1   -1    0    0    0  501 -0.00000000000E+00 -0.00000000000E+00 -0.33916408019E+03  0.33916408019E+03  0.00000000000E+00 0.  1.
         23    2    1    2    0    0  0.31703862338E+03 -0.41832887446E+03  0.69181332477E+03  0.87331384949E+03  0.92514147409E+02 0.  0.
    5000000    2    1    2    0    0 -0.31703862338E+03  0.41832887446E+03  0.39110709777E+03  0.88793473343E+03  0.59995899275E+03 0.  0.
         23    2    4    4    0    0 -0.35312466558E+02 -0.91300468196E+02  0.24728216910E+03  0.28128961985E+03  0.91611316414E+02 0.  0.
         23    2    4    4    0    0 -0.28172615682E+03  0.50962934266E+03  0.14382492867E+03  0.60664511358E+03  0.90779895284E+02 0.  0.
          5    1    3    3  502    0  0.13112894132E+03 -0.22539323363E+03  0.39604623041E+03  0.47420630072E+03  0.47000000000E+01 0. -1.
         -5    1    3    3    0  502  0.18590968206E+03 -0.19293564083E+03  0.29576709436E+03  0.39910754878E+03  0.47000000000E+01 0.  1.
         13    1    5    5    0    0 -0.38055511435E+02 -0.16022290634E+02  0.16345419062E+03  0.16858887323E+03  0.00000000000E+00 0.  1.
        -13    1    5    5    0    0  0.27430448768E+01 -0.75278177562E+02  0.83827978483E+02  0.11270074662E+03  0.00000000000E+00 0. -1.
          3    1    6    6  503    0 -0.17101234832E+03  0.23066805559E+03  0.44910013425E+02  0.29063703214E+03  0.00000000000E+00 0. -1.
         -3    1    6    6    0  503 -0.11071380851E+03  0.27896128706E+03  0.98914915248E+02  0.31600808144E+03  0.00000000000E+00 0.  1.
<mgrwt>
<rscale>  0 0.61633469E+03</rscale>
<asrwt>0</asrwt>
<pdfrwt beam="1">  1        1 0.21878223E+00 0.61633469E+03</pdfrwt>
<pdfrwt beam="2">  1       -1 0.52179090E-01 0.61633469E+03</pdfrwt>
<totfact> 0.28798729E+01</totfact>
</mgrwt>
</event>
<event>
12    1  0.3203156E-008  0.5302500E+03  0.7818608E-02  0.1006172E+00
         -1   -1    0    0    0  501 -0.00000000000E+00  0.00000000000E+00  0.95577286013E+03  0.95577286013E+03  0.00000000000E+00 0.  1.
          1   -1    0    0  501    0  0.00000000000E+00 -0.00000000000E+00 -0.65711641985E+03  0.65711641985E+03  0.00000000000E+00 0. -1.
         23    2    1    2    0    0  0.44133791504E+02 -0.38519313094E+03  0.69120007392E+03  0.79789897920E+03  0.92540256961E+02 0.  0.
    5000000    2    1    2    0    0 -0.44133791504E+02  0.38519313094E+03 -0.39254363364E+03  0.81499030078E+03  0.59983093149E+03 0.  0.
         23    2    4    4    0    0  0.24335292025E+03  0.21522289368E+03 -0.31111740488E+03  0.45921945586E+03  0.92449614716E+02 0.  0.
         23    2    4    4    0    0 -0.28748671176E+03  0.16997023726E+03 -0.81426228761E+02  0.35577084492E+03  0.91674273234E+02 0.  0.
          5    1    3    3  502    0 -0.24521555254E+02 -0.12260174356E+03  0.18198759434E+03  0.22084851978E+03  0.47000000000E+01 0. -1.
         -5    1    3    3    0  502  0.68655346758E+02 -0.26259138738E+03  0.50921247957E+03  0.57705045942E+03  0.47000000000E+01 0.  1.
         13    1    5    5    0    0  0.99813850880E+02  0.59681202949E+02 -0.16565224639E+03  0.20239890698E+03  0.00000000000E+00 0.  1.
        -13    1    5    5    0    0  0.14353906937E+03  0.15554169073E+03 -0.14546515849E+03  0.25682054888E+03  0.00000000000E+00 0. -1.
          3    1    6    6  503    0 -0.15867003293E+03  0.72557676684E+02  0.94530460720E+00  0.17447546933E+03  0.00000000000E+00 0. -1.
         -3    1    6    6    0  503 -0.12881667883E+03  0.97412560573E+02 -0.82371533368E+02  0.18129537559E+03  0.00000000000E+00 0.  1.
<mgrwt>
<rscale>  0 0.53024997E+03</rscale>
<asrwt>0</asrwt>
<pdfrwt beam="1">  1        1 0.10109483E+00 0.53024997E+03</pdfrwt>
<pdfrwt beam="2">  1       -1 0.14704198E+00 0.53024997E+03</pdfrwt>
<totfact> 0.11739837E+01</totfact>
</mgrwt>
</event>
<event>
12    1  0.3203156E-008  0.7921030E+03  0.7818608E-02  0.9571519E-01
         -2   -1    0    0    0  501 -0.00000000000E+00  0.00000000000E+00  0.23942335975E+03  0.23942335975E+03  0.00000000000E+00 0.  1.
          2   -1    0    0  501    0  0.00000000000E+00 -0.00000000000E+00 -0.31296412988E+04  0.31296412988E+04  0.00000000000E+00 0. -1.
         23    2    1    2    0    0 -0.43856535322E+03 -0.59182681688E+03 -0.92209008427E+03  0.11836410377E+04  0.90318505278E+02 0.  0.
    5000000    2    1    2    0    0  0.43856535322E+03  0.59182681688E+03 -0.19681278548E+04  0.21854236209E+04  0.59995883159E+03 0.  0.
         23    2    4    4    0    0  0.14004450207E+03  0.51603828666E+03 -0.75078065100E+03  0.92644354965E+03  0.93370706856E+02 0.  0.
         23    2    4    4    0    0  0.29852085115E+03  0.75788530217E+02 -0.12173472038E+04  0.12589800712E+04  0.90763457791E+02 0.  0.
          5    1    3    3  502    0 -0.32678712083E+03 -0.39253177676E+03 -0.58819080405E+03  0.77901317708E+03  0.47000000000E+01 0. -1.
         -5    1    3    3    0  502 -0.11177823239E+03 -0.19929504011E+03 -0.33389928022E+03  0.40462786061E+03  0.47000000000E+01 0.  1.
         11    1    5    5    0    0  0.58224819268E+02  0.13831430370E+03 -0.27681773004E+03  0.31487939255E+03  0.00000000000E+00 0.  1.
        -11    1    5    5    0    0  0.81819682803E+02  0.37772398296E+03 -0.47396292096E+03  0.61156415710E+03  0.00000000000E+00 0. -1.
          4    1    6    6  503    0  0.23371121681E+03  0.53177459156E+02 -0.77133204807E+03  0.80771399852E+03  0.00000000000E+00 0. -1.
         -4    1    6    6    0  503  0.64809634338E+02  0.22611071061E+02 -0.44601515574E+03  0.45126607272E+03  0.00000000000E+00 0.  1.
<mgrwt>
<rscale>  0 0.79210302E+03</rscale>
<asrwt>0</asrwt>
<pdfrwt beam="1">  1        2 0.48148328E+00 0.79210302E+03</pdfrwt>
<pdfrwt beam="2">  1       -2 0.36834362E-01 0.79210302E+03</pdfrwt>
<totfact> 0.10591409E+01</totfact>
</mgrwt>
</event>
<event>
12    1  0.3203156E-008  0.6585109E+03  0.7818608E-02  0.9790939E-01
         -1   -1    0    0    0  501 -0.00000000000E+00  0.00000000000E+00  0.10847360423E+04  0.10847360423E+04  0.00000000000E+00 0.  1.
          1   -1    0    0  501    0  0.00000000000E+00 -0.00000000000E+00 -0.58895083992E+03  0.58895083992E+03  0.00000000000E+00 0. -1.
         23    2    1    2    0    0 -0.15441246592E+03  0.60014064526E+03  0.51490771697E+03  0.81094509605E+03  0.92141131321E+02 0.  0.
    5000000    2    1    2    0    0  0.15441246592E+03 -0.60014064526E+03 -0.19122514571E+02  0.86274178618E+03  0.59995476107E+03 0.  0.
         23    2    4    4    0    0  0.23185095059E+03 -0.53340211851E+03  0.18504630269E+03  0.61695980205E+03  0.90136451491E+02 0.  0.
         23    2    4    4    0    0 -0.77438484668E+02 -0.66738526752E+02 -0.20416881726E+03  0.24578198413E+03  0.90956736532E+02 0.  0.
          5    1    3    3  502    0 -0.14185360025E+03  0.49689938828E+03  0.46628241235E+03  0.69604082067E+03  0.47000000000E+01 0. -1.
         -5    1    3    3    0  502 -0.12558865670E+02  0.10324125698E+03  0.48625304626E+02  0.11490427538E+03  0.47000000000E+01 0.  1.
         11    1    5    5    0    0  0.37851809472E+02 -0.55769381362E+02  0.50334329909E+02  0.84122102596E+02  0.00000000000E+00 0. -1.
        -11    1    5    5    0    0  0.19399914111E+03 -0.47763273715E+03  0.13471197278E+03  0.53283769945E+03  0.00000000000E+00 0.  1.
          3    1    6    6  503    0 -0.11016788814E+02  0.77049569150E+01  0.47543348924E+01  0.14259722897E+02  0.00000000000E+00 0. -1.
         -3    1    6    6    0  503 -0.66421695854E+02 -0.74443483667E+02 -0.20892315216E+03  0.23152226124E+03  0.00000000000E+00 0.  1.
<mgrwt>
<rscale>  0 0.65851093E+03</rscale>
<asrwt>0</asrwt>
<pdfrwt beam="1">  1        1 0.90607822E-01 0.65851093E+03</pdfrwt>
<pdfrwt beam="2">  1       -1 0.16688247E+00 0.65851093E+03</pdfrwt>
<totfact> 0.95308216E+00</totfact>
</mgrwt>
</event>
<event>
12    1  0.3203156E-008  0.1233895E+04  0.7818608E-02  0.9083695E-01
         -1   -1    0    0    0  501 -0.00000000000E+00  0.00000000000E+00  0.12450196324E+04  0.12450196324E+04  0.00000000000E+00 0.  1.
          1   -1    0    0  501    0  0.00000000000E+00 -0.00000000000E+00 -0.18300351043E+04  0.18300351043E+04  0.00000000000E+00 0. -1.
         23    2    1    2    0    0 -0.86561148782E+03 -0.79778832725E+03  0.57824601425E+03  0.13147407184E+04  0.91789109938E+02 0.  0.
    5000000    2    1    2    0    0  0.86561148782E+03  0.79778832725E+03 -0.11632614862E+04  0.17603140183E+04  0.59981555071E+03 0.  0.
         23    2    4    4    0    0  0.88805266898E+03  0.57488460291E+03 -0.82282847022E+03  0.13433039186E+04  0.91043268344E+02 0.  0.
         23    2    4    4    0    0 -0.22441181158E+02  0.22290372434E+03 -0.34043301594E+03  0.41701009972E+03  0.88391786880E+02 0.  0.
          5    1    3    3  502    0 -0.52520483784E+03 -0.51710313830E+03  0.40249063285E+03  0.83979555659E+03  0.47000000000E+01 0. -1.
         -5    1    3    3    0  502 -0.34040664998E+03 -0.28068518895E+03  0.17575538139E+03  0.47494516182E+03  0.47000000000E+01 0.  1.
         11    1    5    5    0    0  0.11175584121E+03  0.10674983732E+03 -0.13779933531E+03  0.20705929736E+03  0.00000000000E+00 0. -1.
        -11    1    5    5    0    0  0.77629682777E+03  0.46813476559E+03 -0.68502913492E+03  0.11362446212E+04  0.00000000000E+00 0.  1.
          1    1    6    6  503    0  0.13089108882E+02  0.39420168337E+02 -0.12545319253E+03  0.13215058819E+03  0.00000000000E+00 0. -1.
         -1    1    6    6    0  503 -0.35530290041E+02  0.18348355601E+03 -0.21497982341E+03  0.28485951153E+03  0.00000000000E+00 0.  1.
<mgrwt>
<rscale>  0 0.12338948E+04</rscale>
<asrwt>0</asrwt>
<pdfrwt beam="1">  1        1 0.28154386E+00 0.12338948E+04</pdfrwt>
<pdfrwt beam="2">  1       -1 0.19154148E+00 0.12338948E+04</pdfrwt>
<totfact> 0.65412658E-01</totfact>
</mgrwt>
</event>
<event>
12    1  0.3203156E-008  0.9992497E+03  0.7818608E-02  0.9309368E-01
         -1   -1    0    0    0  501 -0.00000000000E+00  0.00000000000E+00  0.22467614674E+04  0.22467614674E+04  0.00000000000E+00 0.  1.
          1   -1    0    0  501    0  0.00000000000E+00 -0.00000000000E+00 -0.11490275390E+04  0.11490275390E+04  0.00000000000E+00 0. -1.
         23    2    1    2    0    0  0.96140357786E+03 -0.18496133937E+03  0.17991250683E+04  0.20502569513E+04  0.90526340542E+02 0.  0.
    5000000    2    1    2    0    0 -0.96140357786E+03  0.18496133937E+03 -0.70139113983E+03  0.13455320552E+04  0.59999953654E+03 0.  0.
         23    2    4    4    0    0 -0.11035246855E+03  0.10221756861E+03 -0.39498189633E+03  0.43280994372E+03  0.93207565684E+02 0.  0.
         23    2    4    4    0    0 -0.85105110931E+03  0.82743770752E+02 -0.30640924350E+03  0.91272211144E+03  0.89668868437E+02 0.  0.
          5    1    3    3  502    0  0.18280778377E+03 -0.59227684443E+01  0.29541693113E+03  0.34748671656E+03  0.47000000000E+01 0. -1.
         -5    1    3    3    0  502  0.77859579409E+03 -0.17903857092E+03  0.15037081372E+04  0.17027702347E+04  0.47000000000E+01 0.  1.
         11    1    5    5    0    0 -0.18108794522E+02  0.44542818085E+02 -0.43371269657E+02  0.64753827020E+02  0.00000000000E+00 0. -1.
        -11    1    5    5    0    0 -0.92243674032E+02  0.57674750528E+02 -0.35161062667E+03  0.36805611670E+03  0.00000000000E+00 0.  1.
          2    1    6    6  503    0 -0.21360667152E+03  0.60039005826E+02 -0.76341020087E+02  0.23464961898E+03  0.00000000000E+00 0. -1.
         -2    1    6    6    0  503 -0.63744443779E+03  0.22704764926E+02 -0.23006822341E+03  0.67807249246E+03  0.00000000000E+00 0.  1.
<mgrwt>
<rscale>  0 0.99924969E+03</rscale>
<asrwt>0</asrwt>
<pdfrwt beam="1">  1        1 0.17677347E+00 0.99924969E+03</pdfrwt>
<pdfrwt beam="2">  1       -1 0.34565561E+00 0.99924969E+03</pdfrwt>
<totfact> 0.19746688E-01</totfact>
</mgrwt>
</event>
<event>
12    1  0.3203156E-008  0.1042842E+04  0.7818608E-02  0.9262765E-01
         -1   -1    0    0    0  501 -0.00000000000E+00  0.00000000000E+00  0.10601028574E+04  0.10601028574E+04  0.00000000000E+00 0.  1.
          1   -1    0    0  501    0  0.00000000000E+00 -0.00000000000E+00 -0.12602366689E+04  0.12602366689E+04  0.00000000000E+00 0. -1.
         23    2    1    2    0    0  0.68814372439E+03  0.73763118799E+03  0.28201904601E+03  0.10514061255E+04  0.90986502075E+02 0.  0.
    5000000    2    1    2    0    0 -0.68814372439E+03 -0.73763118799E+03 -0.48215285751E+03  0.12689334007E+04  0.60006586513E+03 0.  0.
         23    2    4    4    0    0 -0.23216119150E+02  0.36816473230E+02 -0.17077803425E+03  0.19782571904E+03  0.89863436631E+02 0.  0.
         23    2    4    4    0    0 -0.66492760524E+03 -0.77444766121E+03 -0.31137482326E+03  0.10711076817E+04  0.91757751523E+02 0.  0.
          5    1    3    3  502    0  0.26990275049E+03  0.35411410527E+03  0.11574974620E+03  0.46006998165E+03  0.47000000000E+01 0. -1.
         -5    1    3    3    0  502  0.41824097390E+03  0.38351708272E+03  0.16626929980E+03  0.59133614386E+03  0.47000000000E+01 0.  1.
         11    1    5    5    0    0 -0.29491856609E+02  0.28033602054E+02 -0.17943367809E+03  0.18398939449E+03  0.00000000000E+00 0.  1.
        -11    1    5    5    0    0  0.62757374589E+01  0.87828711752E+01  0.86556438455E+01  0.13836324552E+02  0.00000000000E+00 0. -1.
          1    1    6    6  503    0 -0.49277906335E+02 -0.73902863141E+02 -0.31888873464E+01  0.88882586796E+02  0.00000000000E+00 0. -1.
         -1    1    6    6    0  503 -0.61564969891E+03 -0.70054479807E+03 -0.30818593591E+03  0.98222509486E+03  0.00000000000E+00 0.  1.
<mgrwt>
<rscale>  0 0.10428422E+04</rscale>
<asrwt>0</asrwt>
<pdfrwt beam="1">  1        1 0.19388256E+00 0.10428422E+04</pdfrwt>
<pdfrwt beam="2">  1       -1 0.16309275E+00 0.10428422E+04</pdfrwt>
<totfact> 0.26715576E+00</totfact>
</mgrwt>
</event>
<event>
12    1  0.3203156E-008  0.4682438E+03  0.7818608E-02  0.1022417E+00
          4   -1    0    0  501    0  0.00000000000E+00  0.00000000000E+00  0.37432810120E+03  0.37432810120E+03  0.00000000000E+00 0. -1.
         -4   -1    0    0    0  501 -0.00000000000E+00 -0.00000000000E+00 -0.70704505078E+03  0.70704505078E+03  0.00000000000E+00 0.  1.
         23    2    1    2    0    0  0.27843606061E+02 -0.29441081934E+03  0.46132064875E+02  0.31263085426E+03  0.90315484180E+02 0.  0.
    5000000    2    1    2    0    0 -0.27843606061E+02  0.29441081934E+03 -0.37884901446E+03  0.76874229772E+03  0.59998762288E+03 0.  0.
         23    2    4    4    0    0  0.26961809018E+03  0.15776909815E+03 -0.14323681799E+03  0.35502039089E+03  0.89093709309E+02 0.  0.
         23    2    4    4    0    0 -0.29746169624E+03  0.13664172118E+03 -0.23561219647E+03  0.41372190683E+03  0.92186161471E+02 0.  0.
          5    1    3    3  502    0  0.12071319638E+02 -0.11603754374E+03 -0.25837385446E+02  0.11958297873E+03  0.47000000000E+01 0. -1.
         -5    1    3    3    0  502  0.15772286422E+02 -0.17837327559E+03  0.71969450321E+02  0.19304787552E+03  0.47000000000E+01 0.  1.
         11    1    5    5    0    0  0.11332398176E+03  0.53945258920E+02 -0.12078154882E+02  0.12608845161E+03  0.00000000000E+00 0.  1.
        -11    1    5    5    0    0  0.15629410841E+03  0.10382383923E+03 -0.13115866310E+03  0.22893193929E+03  0.00000000000E+00 0. -1.
          3    1    6    6  503    0 -0.20347082684E+03  0.89116301453E+02 -0.20920821602E+03  0.30513959136E+03  0.00000000000E+00 0. -1.
         -3    1    6    6    0  503 -0.93990869394E+02  0.47525419729E+02 -0.26403980450E+02  0.10858231547E+03  0.00000000000E+00 0.  1.
<mgrwt>
<rscale>  0 0.46824385E+03</rscale>
<asrwt>0</asrwt>
<pdfrwt beam="1">  1        4 0.57588939E-01 0.46824385E+03</pdfrwt>
<pdfrwt beam="2">  1       -4 0.10877616E+00 0.46824385E+03</pdfrwt>
<totfact> 0.37518421E+00</totfact>
</mgrwt>
</event>
<event>
12    1  0.3203156E-008  0.2597432E+04  0.7818608E-02  0.8369074E-01
         -1   -1    0    0    0  501 -0.00000000000E+00  0.00000000000E+00  0.28730026825E+04  0.28730026825E+04  0.00000000000E+00 0.  1.
          1   -1    0    0  501    0  0.00000000000E+00 -0.00000000000E+00 -0.31321615437E+04  0.31321615437E+04  0.00000000000E+00 0. -1.
         23    2    1    2    0    0  0.24484240998E+04  0.76391888004E+03 -0.16248757118E+04  0.30376758231E+04  0.94343520795E+02 0.  0.
    5000000    2    1    2    0    0 -0.24484240998E+04 -0.76391888004E+03  0.13657168506E+04  0.29674884031E+04  0.60204009756E+03 0.  0.
         23    2    4    4    0    0 -0.15801878068E+04 -0.77357808710E+03  0.88167915588E+03  0.19699840243E+04  0.89790648432E+02 0.  0.
         23    2    4    4    0    0 -0.86823629294E+03  0.96592070553E+01  0.48403769469E+03  0.99750437878E+03  0.82431396549E+02 0.  0.
          5    1    3    3  502    0  0.54774751270E+03  0.14244250314E+03 -0.39160065005E+03  0.68825167163E+03  0.47000000000E+01 0. -1.
         -5    1    3    3    0  502  0.19006765871E+04  0.62147637690E+03 -0.12332750617E+04  0.23494241515E+04  0.47000000000E+01 0.  1.
         13    1    5    5    0    0 -0.79189051898E+03 -0.42815354911E+03  0.48016187988E+03  0.10202752014E+04  0.00000000000E+00 0. -1.
        -13    1    5    5    0    0 -0.78829728785E+03 -0.34542453799E+03  0.40151727600E+03  0.94970882295E+03  0.00000000000E+00 0.  1.
          2    1    6    6  503    0 -0.11287908999E+03  0.13822445614E+01  0.96406610488E+02  0.14845145369E+03  0.00000000000E+00 0. -1.
         -2    1    6    6    0  503 -0.75535720295E+03  0.82769624938E+01  0.38763108420E+03  0.84905292509E+03  0.00000000000E+00 0.  1.
<mgrwt>
<rscale>  0 0.25974323E+04</rscale>
<asrwt>0</asrwt>
<pdfrwt beam="1">  1        1 0.48187101E+00 0.25974323E+04</pdfrwt>
<pdfrwt beam="2">  1       -1 0.44200041E+00 0.25974323E+04</pdfrwt>
<totfact> 0.14415527E-03</totfact>
</mgrwt>
</event>
<event>
12    1  0.3203156E-008  0.7405141E+03  0.7818608E-02  0.9650351E-01
         -2   -1    0    0    0  501 -0.00000000000E+00  0.00000000000E+00  0.24913211159E+03  0.24913211159E+03  0.00000000000E+00 0.  1.
          2   -1    0    0  501    0  0.00000000000E+00 -0.00000000000E+00 -0.23107960234E+04  0.23107960234E+04  0.00000000000E+00 0. -1.
         23    2    1    2    0    0  0.61568091474E+03  0.15365343507E+03 -0.79587440569E+03  0.10220708121E+04  0.92413789573E+02 0.  0.
    5000000    2    1    2    0    0 -0.61568091474E+03 -0.15365343507E+03 -0.12657895062E+04  0.15378573229E+04  0.60009141372E+03 0.  0.
         23    2    4    4    0    0 -0.69953143520E+03 -0.21331022376E+03 -0.10883147130E+04  0.13143439526E+04  0.90695262131E+02 0.  0.
         23    2    4    4    0    0  0.83850520466E+02  0.59656788685E+02 -0.17747479311E+03  0.22351337035E+03  0.88719120360E+02 0.  0.
          5    1    3    3  502    0  0.55615494740E+03  0.12074195362E+03 -0.67154394887E+03  0.88027286119E+03  0.47000000000E+01 0. -1.
         -5    1    3    3    0  502  0.59525967331E+02  0.32911481454E+02 -0.12433045682E+03  0.14179795094E+03  0.47000000000E+01 0.  1.
         13    1    5    5    0    0 -0.47646936713E+03 -0.10596668161E+03 -0.75802726970E+03  0.90158601200E+03  0.00000000000E+00 0. -1.
        -13    1    5    5    0    0 -0.22306206807E+03 -0.10734354215E+03 -0.33028744335E+03  0.41275794055E+03  0.00000000000E+00 0.  1.
          1    1    6    6  503    0  0.66149656044E+02  0.61425672732E+02 -0.18368769126E+03  0.20467060900E+03  0.00000000000E+00 0. -1.
         -1    1    6    6    0  503  0.17700864422E+02 -0.17688840464E+01  0.62128981521E+01  0.18842761356E+02  0.00000000000E+00 0.  1.
<mgrwt>
<rscale>  0 0.74051408E+03</rscale>
<asrwt>0</asrwt>
<pdfrwt beam="1">  1        2 0.35550708E+00 0.74051408E+03</pdfrwt>
<pdfrwt beam="2">  1       -2 0.38328017E-01 0.74051408E+03</pdfrwt>
<totfact> 0.29899580E+01</totfact>
</mgrwt>
</event>
<event>
12    1  0.3203156E-008  0.4320928E+03  0.7818608E-02  0.1033201E+00
         -1   -1    0    0    0  501 -0.00000000000E+00  0.00000000000E+00  0.73922254423E+03  0.73922254423E+03  0.00000000000E+00 0.  1.
          1   -1    0    0  501    0  0.00000000000E+00 -0.00000000000E+00 -0.57664058482E+03  0.57664058482E+03  0.00000000000E+00 0. -1.
         23    2    1    2    0    0 -0.26046109571E+00  0.36807676206E+03  0.41953907025E+03  0.56660477707E+03  0.97710651010E+02 0.  0.
    5000000    2    1    2    0    0  0.26046109571E+00 -0.36807676206E+03 -0.25695711084E+03  0.74925835197E+03  0.59990045056E+03 0.  0.
         23    2    4    4    0    0 -0.40362260053E+02 -0.39891760631E+03  0.58857943938E+02  0.41695757366E+03  0.98107043606E+02 0.  0.
         23    2    4    4    0    0  0.40622721149E+02  0.30840844249E+02 -0.31581505478E+03  0.33230077831E+03  0.89907148192E+02 0.  0.
          5    1    3    3  502    0 -0.46136537458E+02  0.21483709426E+03  0.22221948227E+03  0.31254942882E+03  0.47000000000E+01 0. -1.
         -5    1    3    3    0  502  0.45876076362E+02  0.15323966780E+03  0.19731958799E+03  0.25405534825E+03  0.47000000000E+01 0.  1.
         13    1    5    5    0    0 -0.24801839015E+02 -0.18981025793E+03  0.77344347316E+02  0.20645874478E+03  0.00000000000E+00 0. -1.
        -13    1    5    5    0    0 -0.15560421038E+02 -0.20910734838E+03 -0.18486403379E+02  0.21049882888E+03  0.00000000000E+00 0.  1.
          4    1    6    6  503    0  0.37944339992E+02 -0.12415038657E+02 -0.55300492387E+02  0.68205942413E+02  0.00000000000E+00 0. -1.
         -4    1    6    6    0  503  0.26783811570E+01  0.43255882906E+02 -0.26051456239E+03  0.26409483590E+03  0.00000000000E+00 0.  1.
<mgrwt>
<rscale>  0 0.43209283E+03</rscale>
<asrwt>0</asrwt>
<pdfrwt beam="1">  1        1 0.88713936E-01 0.43209283E+03</pdfrwt>
<pdfrwt beam="2">  1       -1 0.11372655E+00 0.43209283E+03</pdfrwt>
<totfact> 0.27343184E+01</totfact>
</mgrwt>
</event>
<event>
12    1  0.3203156E-008  0.6495975E+03  0.7818608E-02  0.9807535E-01
          1   -1    0    0  501    0  0.00000000000E+00  0.00000000000E+00  0.23076511295E+04  0.23076511295E+04  0.00000000000E+00 0. -1.
         -1   -1    0    0    0  501 -0.00000000000E+00 -0.00000000000E+00 -0.21120440844E+03  0.21120440844E+03  0.00000000000E+00 0.  1.
         23    2    1    2    0    0  0.22006262961E+03 -0.49112126601E+03  0.11718665898E+04  0.12927298615E+04  0.90837941257E+02 0.  0.
    5000000    2    1    2    0    0 -0.22006262961E+03  0.49112126601E+03  0.92458013119E+03  0.12261256764E+04  0.59908938938E+03 0.  0.
         23    2    4    4    0    0 -0.36179972282E+03  0.48397136726E+03  0.83684051369E+03  0.10358041347E+04  0.86376132606E+02 0.  0.
         23    2    4    4    0    0  0.14173709321E+03  0.71498987481E+01  0.87739617498E+02  0.19032154173E+03  0.91561586512E+02 0.  0.
          5    1    3    3  502    0 -0.15835719384E+01 -0.65289913484E+02  0.15294577862E+03  0.16637241869E+03  0.47000000000E+01 0. -1.
         -5    1    3    3    0  502  0.22164620155E+03 -0.42583135253E+03  0.10189208112E+04  0.11263574428E+04  0.47000000000E+01 0.  1.
         11    1    5    5    0    0 -0.14546873263E+03  0.26323791872E+03  0.43520472292E+03  0.52901654499E+03  0.00000000000E+00 0. -1.
        -11    1    5    5    0    0 -0.21633099019E+03  0.22073344854E+03  0.40163579077E+03  0.50678758968E+03  0.00000000000E+00 0.  1.
          2    1    6    6  503    0  0.89667422552E+02 -0.67293713968E+01  0.30871925776E+01  0.89972561732E+02  0.00000000000E+00 0.  1.
         -2    1    6    6    0  503  0.52069670658E+02  0.13879270145E+02  0.84652424920E+02  0.10034898000E+03  0.00000000000E+00 0. -1.
<mgrwt>
<rscale>  0 0.64959752E+03</rscale>
<asrwt>0</asrwt>
<pdfrwt beam="1">  1        1 0.35502323E+00 0.64959752E+03</pdfrwt>
<pdfrwt beam="2">  1       -1 0.32492987E-01 0.64959752E+03</pdfrwt>
<totfact> 0.17323192E+01</totfact>
</mgrwt>
</event>
<event>
12    1  0.3203156E-008  0.6421730E+03  0.7818608E-02  0.9821578E-01
         -2   -1    0    0    0  501 -0.00000000000E+00  0.00000000000E+00  0.34865026131E+03  0.34865026131E+03  0.00000000000E+00 0. -1.
          2   -1    0    0  501    0  0.00000000000E+00 -0.00000000000E+00 -0.12414173254E+04  0.12414173254E+04  0.00000000000E+00 0.  1.
         23    2    1    2    0    0  0.19792193073E+03 -0.47071579224E+03 -0.44692778223E+03  0.68471019283E+03  0.91308038541E+02 0.  0.
    5000000    2    1    2    0    0 -0.19792193073E+03  0.47071579224E+03 -0.44583928189E+03  0.90535739391E+03  0.60012740123E+03 0.  0.
         23    2    4    4    0    0 -0.37383861075E+03  0.43397937425E+03 -0.28842446447E+03  0.64928270813E+03  0.10141971806E+03 0.  0.
         23    2    4    4    0    0  0.17591668002E+03  0.36736417988E+02 -0.15741481743E+03  0.25607468578E+03  0.92187728241E+02 0.  0.
          5    1    3    3  502    0  0.95380564829E+02 -0.16001990739E+03 -0.20978964374E+03  0.28060222296E+03  0.47000000000E+01 0. -1.
         -5    1    3    3    0  502  0.10254136591E+03 -0.31069588485E+03 -0.23713813849E+03  0.40410796987E+03  0.47000000000E+01 0.  1.
         11    1    5    5    0    0 -0.13594784249E+03  0.97913268831E+02 -0.11078861572E+03  0.20085552386E+03  0.00000000000E+00 0. -1.
        -11    1    5    5    0    0 -0.23789076826E+03  0.33606610542E+03 -0.17763584874E+03  0.44842718427E+03  0.00000000000E+00 0.  1.
          1    1    6    6  503    0  0.29302369481E+02  0.33970589792E+02 -0.76255278233E+02  0.88473144437E+02  0.00000000000E+00 0. -1.
         -1    1    6    6    0  503  0.14661431054E+03  0.27658281968E+01 -0.81159539194E+02  0.16760154135E+03  0.00000000000E+00 0.  1.
<mgrwt>
<rscale>  0 0.64217299E+03</rscale>
<asrwt>0</asrwt>
<pdfrwt beam="1">  1        2 0.19098729E+00 0.64217299E+03</pdfrwt>
<pdfrwt beam="2">  1       -2 0.53638500E-01 0.64217299E+03</pdfrwt>
<totfact> 0.60290552E+01</totfact>
</mgrwt>
</event>
<event>
12    1  0.3203156E-008  0.7262769E+03  0.7818608E-02  0.9673321E-01
         -1   -1    0    0    0  501 -0.00000000000E+00  0.00000000000E+00  0.82059591628E+03  0.82059591628E+03  0.00000000000E+00 0.  1.
          1   -1    0    0  501    0  0.00000000000E+00 -0.00000000000E+00 -0.11614555040E+04  0.11614555040E+04  0.00000000000E+00 0. -1.
         23    2    1    2    0    0 -0.20273350894E+03 -0.57014025311E+03 -0.80546836494E+03  0.10114726083E+04  0.90204027360E+02 0.  0.
    5000000    2    1    2    0    0  0.20273350894E+03  0.57014025311E+03  0.46460877724E+03  0.97057881198E+03  0.60000094210E+03 0.  0.
         23    2    4    4    0    0  0.13792110170E+03  0.67621658785E+03  0.39870983079E+03  0.80216293929E+03  0.90580064152E+02 0.  0.
         23    2    4    4    0    0  0.64812407236E+02 -0.10607633474E+03  0.65898946446E+02  0.16841587269E+03  0.92565642159E+02 0.  0.
          5    1    3    3  502    0 -0.14299081552E+03 -0.29304497459E+03 -0.38799790621E+03  0.50683941804E+03  0.47000000000E+01 0. -1.
         -5    1    3    3    0  502 -0.59742693411E+02 -0.27709527852E+03 -0.41747045874E+03  0.50463319026E+03  0.47000000000E+01 0.  1.
         13    1    5    5    0    0  0.29060079661E+02  0.31190848261E+03  0.21454070331E+03  0.37968289813E+03  0.00000000000E+00 0. -1.
        -13    1    5    5    0    0  0.10886102204E+03  0.36430810524E+03  0.18416912748E+03  0.42248004116E+03  0.00000000000E+00 0.  1.
          1    1    6    6  503    0  0.14760679323E+02 -0.97587544949E+02  0.21587401029E+02  0.10103079959E+03  0.00000000000E+00 0. -1.
         -1    1    6    6    0  503  0.50051727913E+02 -0.84887897901E+01  0.44311545418E+02  0.67385073098E+02  0.00000000000E+00 0.  1.
<mgrwt>
<rscale>  0 0.72627693E+03</rscale>
<asrwt>0</asrwt>
<pdfrwt beam="1">  1        1 0.17868546E+00 0.72627693E+03</pdfrwt>
<pdfrwt beam="2">  1       -1 0.12624553E+00 0.72627693E+03</pdfrwt>
<totfact> 0.64783313E+00</totfact>
</mgrwt>
</event>
<event>
12    1  0.3203156E-008  0.6104334E+03  0.7818608E-02  0.9883993E-01
          2   -1    0    0  501    0  0.00000000000E+00  0.00000000000E+00  0.16434683097E+04  0.16434683097E+04  0.00000000000E+00 0. -1.
         -2   -1    0    0    0  501 -0.00000000000E+00 -0.00000000000E+00 -0.68756820162E+03  0.68756820162E+03  0.00000000000E+00 0.  1.
         23    2    1    2    0    0  0.88150094426E+02  0.50748192861E+03 -0.46734987053E+03  0.70282850922E+03  0.10121099188E+03 0.  0.
    5000000    2    1    2    0    0 -0.88150094426E+02 -0.50748192861E+03  0.14232499786E+04  0.16282080021E+04  0.60009370056E+03 0.  0.
         23    2    4    4    0    0 -0.23319621503E+03 -0.11123978310E+03  0.22436742009E+03  0.35334588713E+03  0.88078446328E+02 0.  0.
         23    2    4    4    0    0  0.14504612060E+03 -0.39624214551E+03  0.11988825585E+04  0.12748621150E+04  0.99537972920E+02 0.  0.
          5    1    3    3  502    0  0.10567316650E+03  0.41276501604E+03 -0.40581709739E+03  0.58843129006E+03  0.47000000000E+01 0. -1.
         -5    1    3    3    0  502 -0.17523072078E+02  0.94716912576E+02 -0.61532773136E+02  0.11439721917E+03  0.47000000000E+01 0.  1.
         13    1    5    5    0    0 -0.76597800422E+02 -0.60247555546E+01  0.10493886923E+03  0.13006032056E+03  0.00000000000E+00 0. -1.
        -13    1    5    5    0    0 -0.15659841461E+03 -0.10521502755E+03  0.11942855086E+03  0.22328556657E+03  0.00000000000E+00 0.  1.
          1    1    6    6  503    0  0.10592282834E+03 -0.15077085750E+03  0.47465848373E+03  0.50916811881E+03  0.00000000000E+00 0. -1.
         -1    1    6    6    0  503  0.39123292267E+02 -0.24547128801E+03  0.72422407479E+03  0.76569399615E+03  0.00000000000E+00 0.  1.
<mgrwt>
<rscale>  0 0.61043343E+03</rscale>
<asrwt>0</asrwt>
<pdfrwt beam="1">  1        2 0.25284128E+00 0.61043343E+03</pdfrwt>
<pdfrwt beam="2">  1       -2 0.10577972E+00 0.61043343E+03</pdfrwt>
<totfact> 0.80040462E+00</totfact>
</mgrwt>
</event>
<event>
12    1  0.3203156E-008  0.1007320E+04  0.7818608E-02  0.9300552E-01
          1   -1    0    0  501    0  0.00000000000E+00  0.00000000000E+00  0.16034233094E+04  0.16034233094E+04  0.00000000000E+00 0. -1.
         -1   -1    0    0    0  501 -0.00000000000E+00 -0.00000000000E+00 -0.73165889328E+03  0.73165889328E+03  0.00000000000E+00 0.  1.
         23    2    1    2    0    0  0.49543928910E+03  0.78453152073E+03  0.77985854983E+01  0.93239245689E+03  0.91351406765E+02 0.  0.
    5000000    2    1    2    0    0 -0.49543928910E+03 -0.78453152073E+03  0.86396583062E+03  0.14026897458E+04  0.60012646192E+03 0.  0.
         23    2    4    4    0    0 -0.61204319959E+03 -0.64545472245E+03  0.63718437970E+03  0.10980275447E+04  0.91934097432E+02 0.  0.
         23    2    4    4    0    0  0.11660391050E+03 -0.13907679829E+03  0.22678145092E+03  0.30466220111E+03  0.91926071050E+02 0.  0.
          5    1    3    3  502    0  0.18772982516E+03  0.28442076093E+03 -0.40386997538E+02  0.34320672498E+03  0.47000000000E+01 0. -1.
         -5    1    3    3    0  502  0.30770946394E+03  0.50011075980E+03  0.48185583037E+02  0.58918573190E+03  0.47000000000E+01 0.  1.
         11    1    5    5    0    0 -0.33125074395E+03 -0.40020875748E+03  0.40612790876E+03  0.65941942889E+03  0.00000000000E+00 0.  1.
        -11    1    5    5    0    0 -0.28079245565E+03 -0.24524596497E+03  0.23105647094E+03  0.43860811580E+03  0.00000000000E+00 0. -1.
          1    1    6    6  503    0  0.64742903253E+02 -0.12463076682E+03  0.11858446306E+03  0.18381171464E+03  0.00000000000E+00 0. -1.
         -1    1    6    6    0  503  0.51861007244E+02 -0.14446031465E+02  0.10819698786E+03  0.12085048647E+03  0.00000000000E+00 0.  1.
<mgrwt>
<rscale>  0 0.10073202E+04</rscale>
<asrwt>0</asrwt>
<pdfrwt beam="1">  1        1 0.24668051E+00 0.10073202E+04</pdfrwt>
<pdfrwt beam="2">  1       -1 0.11256291E+00 0.10073202E+04</pdfrwt>
<totfact> 0.40321538E+00</totfact>
</mgrwt>
</event>
<event>
12    1  0.3203156E-008  0.1287952E+04  0.7818608E-02  0.9039174E-01
          2   -1    0    0  501    0  0.00000000000E+00  0.00000000000E+00  0.32672346370E+04  0.32672346370E+04  0.00000000000E+00 0. -1.
         -2   -1    0    0    0  501 -0.00000000000E+00 -0.00000000000E+00 -0.58918619100E+03  0.58918619100E+03  0.00000000000E+00 0.  1.
         23    2    1    2    0    0 -0.12730239979E+04 -0.14525233388E+03  0.83089894435E+03  0.15296919274E+04  0.88746816103E+02 0.  0.
    5000000    2    1    2    0    0  0.12730239979E+04  0.14525233388E+03  0.18471495016E+04  0.23267289006E+04  0.60001479617E+03 0.  0.
         23    2    4    4    0    0  0.50445970171E+03  0.89971501951E+02  0.12288045492E+04  0.13344885698E+04  0.91239580064E+02 0.  0.
         23    2    4    4    0    0  0.76856429619E+03  0.55280831924E+02  0.61834495243E+03  0.99224033077E+03  0.91887681695E+02 0.  0.
          5    1    3    3  502    0 -0.10940281028E+04 -0.12150217318E+03  0.74862724680E+03  0.13312118962E+04  0.47000000000E+01 0. -1.
         -5    1    3    3    0  502 -0.17899589509E+03 -0.23750160691E+02  0.82271697557E+02  0.19848003126E+03  0.47000000000E+01 0.  1.
         11    1    5    5    0    0  0.15679442796E+03  0.69480109161E+02  0.37320736727E+03  0.41072584189E+03  0.00000000000E+00 0.  1.
        -11    1    5    5    0    0  0.34766527375E+03  0.20491392790E+02  0.85559718194E+03  0.92376272792E+03  0.00000000000E+00 0. -1.
          3    1    6    6  503    0  0.61335178266E+03  0.11430735134E+02  0.46603394323E+03  0.77040165319E+03  0.00000000000E+00 0. -1.
         -3    1    6    6    0  503  0.15521251354E+03  0.43850096790E+02  0.15231100920E+03  0.22183867758E+03  0.00000000000E+00 0.  1.
<mgrwt>
<rscale>  0 0.12879521E+04</rscale>
<asrwt>0</asrwt>
<pdfrwt beam="1">  1        2 0.50265147E+00 0.12879521E+04</pdfrwt>
<pdfrwt beam="2">  1       -2 0.90644031E-01 0.12879521E+04</pdfrwt>
<totfact> 0.11995902E+00</totfact>
</mgrwt>
</event>
<event>
12    1  0.3203156E-008  0.6497690E+03  0.7818608E-02  0.9807213E-01
         -2   -1    0    0    0  501 -0.00000000000E+00  0.00000000000E+00  0.43197091251E+03  0.43197091251E+03  0.00000000000E+00 0.  1.
          2   -1    0    0  501    0  0.00000000000E+00 -0.00000000000E+00 -0.99117499802E+03  0.99117499802E+03  0.00000000000E+00 0. -1.
         23    2    1    2    0    0 -0.17324811600E+03  0.48047841074E+03 -0.25882941050E+03  0.57986487719E+03  0.91521577653E+02 0.  0.
    5000000    2    1    2    0    0  0.17324811600E+03 -0.48047841074E+03 -0.30037467500E+03  0.84328103335E+03  0.60001961879E+03 0.  0.
         23    2    4    4    0    0  0.16765978823E+02 -0.57617522214E+03 -0.23121010542E+03  0.62781070962E+03  0.91810618210E+02 0.  0.
         23    2    4    4    0    0  0.15648213718E+03  0.95696811405E+02 -0.69164569588E+02  0.21547032372E+03  0.89438156004E+02 0.  0.
          5    1    3    3  502    0 -0.93091120548E+02  0.37364289083E+03 -0.18591419678E+03  0.42762266679E+03  0.47000000000E+01 0. -1.
         -5    1    3    3    0  502 -0.80156995453E+02  0.10683551991E+03 -0.72915213728E+02  0.15224221040E+03  0.47000000000E+01 0.  1.
         11    1    5    5    0    0  0.53121931877E+02 -0.25784346728E+03 -0.10139044623E+03  0.28210851786E+03  0.00000000000E+00 0. -1.
        -11    1    5    5    0    0 -0.36355953054E+02 -0.31833175486E+03 -0.12981965919E+03  0.34570219176E+03  0.00000000000E+00 0.  1.
          1    1    6    6  503    0  0.25649171024E+02 -0.11394168213E+02 -0.31619047918E+02  0.42278496127E+02  0.00000000000E+00 0. -1.
         -1    1    6    6    0  503  0.13083296615E+03  0.10709097962E+03 -0.37545521670E+02  0.17319182760E+03  0.00000000000E+00 0.  1.
<mgrwt>
<rscale>  0 0.64976903E+03</rscale>
<asrwt>0</asrwt>
<pdfrwt beam="1">  1        2 0.15248846E+00 0.64976903E+03</pdfrwt>
<pdfrwt beam="2">  1       -2 0.66457064E-01 0.64976903E+03</pdfrwt>
<totfact> 0.54419041E+01</totfact>
</mgrwt>
</event>
<event>
12    1  0.3203156E-008  0.4012499E+03  0.7818608E-02  0.1043348E+00
          2   -1    0    0  501    0  0.00000000000E+00  0.00000000000E+00  0.35342626705E+04  0.35342626705E+04  0.00000000000E+00 0. -1.
         -2   -1    0    0    0  501 -0.00000000000E+00 -0.00000000000E+00 -0.66664645165E+02  0.66664645165E+02  0.00000000000E+00 0.  1.
         23    2    1    2    0    0  0.11536023436E+03 -0.26571672720E+03  0.10831890820E+04  0.11251963016E+04  0.94099770810E+02 0.  0.
    5000000    2    1    2    0    0 -0.11536023436E+03  0.26571672720E+03  0.23844089433E+04  0.24757310141E+04  0.59993723207E+03 0.  0.
         23    2    4    4    0    0 -0.93500956017E+02  0.36416587595E+03  0.22558670396E+04  0.22887913907E+04  0.90943476336E+02 0.  0.
         23    2    4    4    0    0 -0.21859278345E+02 -0.98449148750E+02  0.12854190372E+03  0.18693962339E+03  0.90847888474E+02 0.  0.
          5    1    3    3  502    0  0.94566954399E+01 -0.36330027839E+02  0.29685248182E+03  0.29925371505E+03  0.47000000000E+01 0. -1.
         -5    1    3    3    0  502  0.10590353892E+03 -0.22938669936E+03  0.78633660019E+03  0.82594258650E+03  0.47000000000E+01 0.  1.
         13    1    5    5    0    0 -0.10250541169E+03  0.34878242759E+03  0.20357831581E+04  0.20679868491E+04  0.00000000000E+00 0. -1.
        -13    1    5    5    0    0  0.90044556748E+01  0.15383448358E+02  0.22008388153E+03  0.22080454165E+03  0.00000000000E+00 0.  1.
          2    1    6    6  503    0 -0.17385924332E+02  0.11322376418E+02  0.42852555817E+02  0.47611008314E+02  0.00000000000E+00 0. -1.
         -2    1    6    6    0  503 -0.44733540129E+01 -0.10977152517E+03  0.85689347903E+02  0.13932861507E+03  0.00000000000E+00 0.  1.
<mgrwt>
<rscale>  0 0.40124986E+03</rscale>
<asrwt>0</asrwt>
<pdfrwt beam="1">  1        2 0.54373257E+00 0.40124986E+03</pdfrwt>
<pdfrwt beam="2">  1       -2 0.10256102E-01 0.40124986E+03</pdfrwt>
<totfact> 0.58693435E+01</totfact>
</mgrwt>
</event>
<event>
12    1  0.3203156E-008  0.8590616E+03  0.7818608E-02  0.9478255E-01
         -1   -1    0    0    0  501 -0.00000000000E+00  0.00000000000E+00  0.13158722413E+04  0.13158722413E+04  0.00000000000E+00 0.  1.
          1   -1    0    0  501    0  0.00000000000E+00 -0.00000000000E+00 -0.65139730326E+03  0.65139730326E+03  0.00000000000E+00 0. -1.
         23    2    1    2    0    0 -0.24655125892E+03  0.78360491025E+03  0.38788069913E+03  0.91305684157E+03  0.91636131139E+02 0.  0.
    5000000    2    1    2    0    0  0.24655125892E+03 -0.78360491025E+03  0.27659423890E+03  0.10542127030E+04  0.60002989217E+03 0.  0.
         23    2    4    4    0    0  0.28729416966E+03 -0.35785343684E+03  0.38404650118E+03  0.60617266574E+03  0.96729330787E+02 0.  0.
         23    2    4    4    0    0 -0.40742910743E+02 -0.42575147341E+03 -0.10745226229E+03  0.44804003725E+03  0.79180707372E+02 0.  0.
          5    1    3    3  502    0 -0.17415072278E+03  0.63972039804E+03  0.28365964590E+03  0.72114876872E+03  0.47000000000E+01 0. -1.
         -5    1    3    3    0  502 -0.72400536141E+02  0.14388451221E+03  0.10422105323E+03  0.19190807285E+03  0.47000000000E+01 0.  1.
         13    1    5    5    0    0  0.82492620036E+02 -0.13734652271E+03  0.18798601695E+03  0.24699765632E+03  0.00000000000E+00 0. -1.
        -13    1    5    5    0    0  0.20480154962E+03 -0.22050691414E+03  0.19606048423E+03  0.35917500942E+03  0.00000000000E+00 0.  1.
          1    1    6    6  503    0 -0.58737095186E+02 -0.35345139047E+03 -0.10550338762E+03  0.37350889758E+03  0.00000000000E+00 0. -1.
         -1    1    6    6    0  503  0.17994184444E+02 -0.72300082942E+02 -0.19488746672E+01  0.74531139664E+02  0.00000000000E+00 0.  1.
<mgrwt>
<rscale>  0 0.85906165E+03</rscale>
<asrwt>0</asrwt>
<pdfrwt beam="1">  1        1 0.10021497E+00 0.85906165E+03</pdfrwt>
<pdfrwt beam="2">  1       -1 0.20244188E+00 0.85906165E+03</pdfrwt>
<totfact> 0.44894519E+00</totfact>
</mgrwt>
</event>
<event>
12    1  0.3203156E-008  0.9499753E+03  0.7818608E-02  0.9365179E-01
          1   -1    0    0  501    0  0.00000000000E+00  0.00000000000E+00  0.13109568886E+04  0.13109568886E+04  0.00000000000E+00 0. -1.
         -1   -1    0    0    0  501 -0.00000000000E+00 -0.00000000000E+00 -0.73987520489E+03  0.73987520489E+03  0.00000000000E+00 0.  1.
         23    2    1    2    0    0 -0.29581120540E+03 -0.82210715902E+03  0.78851148467E+02  0.88210458339E+03  0.92339278023E+02 0.  0.
    5000000    2    1    2    0    0  0.29581120540E+03  0.82210715902E+03  0.49223053524E+03  0.11687275101E+04  0.60022382732E+03 0.  0.
         23    2    4    4    0    0  0.43941966964E+03  0.51378554756E+03  0.19645780927E+03  0.70867938854E+03  0.81028204804E+02 0.  0.
         23    2    4    4    0    0 -0.14360846424E+03  0.30832161146E+03  0.29577272597E+03  0.46004812156E+03  0.92071502784E+02 0.  0.
          5    1    3    3  502    0 -0.12172841526E+03 -0.44468765258E+03  0.12946696354E+02  0.46125331694E+03  0.47000000000E+01 0. -1.
         -5    1    3    3    0  502 -0.17408279014E+03 -0.37741950644E+03  0.65904452113E+02  0.42085126645E+03  0.47000000000E+01 0.  1.
         13    1    5    5    0    0  0.17415470338E+03  0.25630356432E+03  0.67383166448E+02  0.31711491437E+03  0.00000000000E+00 0.  1.
        -13    1    5    5    0    0  0.26526496626E+03  0.25748198324E+03  0.12907464282E+03  0.39156447418E+03  0.00000000000E+00 0. -1.
          1    1    6    6  503    0 -0.90341662727E+02  0.13575611773E+03  0.19144413252E+03  0.25148000994E+03  0.00000000000E+00 0. -1.
         -1    1    6    6    0  503 -0.53266801511E+02  0.17256549373E+03  0.10432859345E+03  0.20856811161E+03  0.00000000000E+00 0.  1.
<mgrwt>
<rscale>  0 0.94997534E+03</rscale>
<asrwt>0</asrwt>
<pdfrwt beam="1">  1        1 0.20168568E+00 0.94997534E+03</pdfrwt>
<pdfrwt beam="2">  1       -1 0.11382695E+00 0.94997534E+03</pdfrwt>
<totfact> 0.63123594E+00</totfact>
</mgrwt>
</event>
<event>
12    1  0.3203156E-008  0.5863287E+03  0.7818608E-02  0.9934183E-01
          1   -1    0    0  501    0  0.00000000000E+00  0.00000000000E+00  0.15395623547E+04  0.15395623547E+04  0.00000000000E+00 0. -1.
         -1   -1    0    0    0  501 -0.00000000000E+00 -0.00000000000E+00 -0.27838546400E+03  0.27838546400E+03  0.00000000000E+00 0.  1.
         23    2    1    2    0    0  0.49191845793E+03 -0.76308874136E+02  0.66950613378E+03  0.83930682583E+03  0.91600606871E+02 0.  0.
    5000000    2    1    2    0    0 -0.49191845793E+03  0.76308874136E+02  0.59167075692E+03  0.97864099288E+03  0.59988090053E+03 0.  0.
         23    2    4    4    0    0 -0.19334747429E+03 -0.17597476558E+03  0.16360171038E+02  0.27704852737E+03  0.90210129080E+02 0.  0.
         23    2    4    4    0    0 -0.29857098364E+03  0.25228363971E+03  0.57531058588E+03  0.70159246551E+03  0.91967658924E+02 0.  0.
          5    1    3    3  502    0  0.18241349962E+03 -0.72583748407E+02  0.27188731356E+03  0.33539213862E+03  0.47000000000E+01 0. -1.
         -5    1    3    3    0  502  0.30950495832E+03 -0.37251257285E+01  0.39761882023E+03  0.50391468721E+03  0.47000000000E+01 0.  1.
         13    1    5    5    0    0 -0.17200432189E+02 -0.63380516341E+02  0.17586323983E+02  0.67986936321E+02  0.00000000000E+00 0. -1.
        -13    1    5    5    0    0 -0.17614704210E+03 -0.11259424924E+03 -0.12261529443E+01  0.20906159105E+03  0.00000000000E+00 0.  1.
          1    1    6    6  503    0 -0.19123726444E+03  0.14286756194E+03  0.42180787487E+03  0.48466969667E+03  0.00000000000E+00 0. -1.
         -1    1    6    6    0  503 -0.10733371921E+03  0.10941607777E+03  0.15350271102E+03  0.21692276884E+03  0.00000000000E+00 0.  1.
<mgrwt>
<rscale>  0 0.58632867E+03</rscale>
<asrwt>0</asrwt>
<pdfrwt beam="1">  1        1 0.23685574E+00 0.58632867E+03</pdfrwt>
<pdfrwt beam="2">  1       -1 0.42828534E-01 0.58632867E+03</pdfrwt>
<totfact> 0.34776423E+01</totfact>
</mgrwt>
</event>
<event>
12    1  0.3203156E-008  0.6480334E+03  0.7818608E-02  0.9810476E-01
         -2   -1    0    0    0  501 -0.00000000000E+00  0.00000000000E+00  0.24407877782E+03  0.24407877782E+03  0.00000000000E+00 0.  1.
          2   -1    0    0  501    0  0.00000000000E+00 -0.00000000000E+00 -0.21429907831E+04  0.21429907831E+04  0.00000000000E+00 0. -1.
         23    2    1    2    0    0  0.47717083227E+03 -0.21910715019E+03 -0.12506193831E+04  0.13596068477E+04  0.93712285320E+02 0.  0.
    5000000    2    1    2    0    0 -0.47717083227E+03  0.21910715019E+03 -0.64829262211E+03  0.10274627132E+04  0.59974691052E+03 0.  0.
         23    2    4    4    0    0  0.51252246142E+02 -0.12247119692E+03 -0.11752030336E+03  0.19936448209E+03  0.91154748681E+02 0.  0.
         23    2    4    4    0    0 -0.52842307841E+03  0.34157834712E+03 -0.53077231875E+03  0.82809823110E+03  0.90114976479E+02 0.  0.
          5    1    3    3  502    0  0.22743193935E+03 -0.55841001756E+02 -0.58538144985E+03  0.63050538169E+03  0.47000000000E+01 0. -1.
         -5    1    3    3    0  502  0.24973889292E+03 -0.16326614844E+03 -0.66523793329E+03  0.72910146602E+03  0.47000000000E+01 0.  1.
         11    1    5    5    0    0  0.39488191472E+01 -0.29150106578E+02  0.12936993373E+02  0.32135458355E+02  0.00000000000E+00 0. -1.
        -11    1    5    5    0    0  0.47303426995E+02 -0.93321090345E+02 -0.13045729673E+03  0.16722902374E+03  0.00000000000E+00 0.  1.
          1    1    6    6  503    0 -0.11868912548E+03  0.84101361719E+02 -0.76444624088E+02  0.16432871965E+03  0.00000000000E+00 0. -1.
         -1    1    6    6    0  503 -0.40973395293E+03  0.25747698540E+03 -0.45432769466E+03  0.66376951145E+03  0.00000000000E+00 0.  1.
<mgrwt>
<rscale>  0 0.64803339E+03</rscale>
<asrwt>0</asrwt>
<pdfrwt beam="1">  1        2 0.32969088E+00 0.64803339E+03</pdfrwt>
<pdfrwt beam="2">  1       -2 0.37550582E-01 0.64803339E+03</pdfrwt>
<totfact> 0.39008394E+01</totfact>
</mgrwt>
</event>
<event>
12    1  0.3203156E-008  0.6718883E+03  0.7818608E-02  0.9766553E-01
         -1   -1    0    0    0  501 -0.00000000000E+00  0.00000000000E+00  0.65112296700E+03  0.65112296700E+03  0.00000000000E+00 0.  1.
          1   -1    0    0  501    0  0.00000000000E+00 -0.00000000000E+00 -0.89870228863E+03  0.89870228863E+03  0.00000000000E+00 0. -1.
         23    2    1    2    0    0 -0.60308198130E+03  0.16322724047E+03 -0.26335280538E+03  0.68346473659E+03  0.86129773436E+02 0.  0.
    5000000    2    1    2    0    0  0.60308198130E+03 -0.16322724047E+03  0.15773483742E+02  0.86636051904E+03  0.59998394809E+03 0.  0.
         23    2    4    4    0    0  0.35542638475E+03  0.67602406531E+02  0.24829714278E+03  0.44817087867E+03  0.91146393396E+02 0.  0.
         23    2    4    4    0    0  0.24765559655E+03 -0.23082964700E+03 -0.23252365903E+03  0.41818964037E+03  0.78738191938E+02 0.  0.
          5    1    3    3  502    0 -0.26658649040E+03  0.92535573025E+02 -0.77954511594E+02  0.29279717386E+03  0.47000000000E+01 0. -1.
         -5    1    3    3    0  502 -0.33649549089E+03  0.70691667441E+02 -0.18539829378E+03  0.39066756274E+03  0.47000000000E+01 0.  1.
         11    1    5    5    0    0  0.21813982743E+03  0.17473434040E+01  0.11946774248E+03  0.24871787032E+03  0.00000000000E+00 0. -1.
        -11    1    5    5    0    0  0.13728655732E+03  0.65855063127E+02  0.12882940030E+03  0.19945300835E+03  0.00000000000E+00 0.  1.
          4    1    6    6  503    0  0.20284211283E+03 -0.14149047266E+03 -0.17365457827E+03  0.30219263582E+03  0.00000000000E+00 0. -1.
         -4    1    6    6    0  503  0.44813483711E+02 -0.89339174339E+02 -0.58869080770E+02  0.11599700455E+03  0.00000000000E+00 0.  1.
<mgrwt>
<rscale>  0 0.67188832E+03</rscale>
<asrwt>0</asrwt>
<pdfrwt beam="1">  1        1 0.13826189E+00 0.67188832E+03</pdfrwt>
<pdfrwt beam="2">  1       -1 0.10017276E+00 0.67188832E+03</pdfrwt>
<totfact> 0.17996189E+01</totfact>
</mgrwt>
</event>
<event>
12    1  0.3203156E-008  0.1129374E+04  0.7818608E-02  0.9177026E-01
         -2   -1    0    0    0  501 -0.00000000000E+00  0.00000000000E+00  0.87582331956E+03  0.87582331956E+03  0.00000000000E+00 0.  1.
          2   -1    0    0  501    0  0.00000000000E+00 -0.00000000000E+00 -0.16378377015E+04  0.16378377015E+04  0.00000000000E+00 0. -1.
         23    2    1    2    0    0 -0.47579476018E+03  0.10046542348E+04 -0.50658799511E+03  0.12249739739E+04  0.90659001934E+02 0.  0.
    5000000    2    1    2    0    0  0.47579476018E+03 -0.10046542348E+04 -0.25542638687E+03  0.12886870472E+04  0.59980070120E+03 0.  0.
         23    2    4    4    0    0  0.17342220619E+03 -0.63999214218E+03  0.11691137727E+03  0.67935471918E+03  0.90495086491E+02 0.  0.
         23    2    4    4    0    0  0.30237255399E+03 -0.36466209262E+03 -0.37233776414E+03  0.60933232801E+03  0.90790264663E+02 0.  0.
          5    1    3    3  502    0 -0.33878979399E+03  0.67609185516E+03 -0.30161050453E+03  0.81416810769E+03  0.47000000000E+01 0. -1.
         -5    1    3    3    0  502 -0.13700496619E+03  0.32856237964E+03 -0.20497749058E+03  0.41080586622E+03  0.47000000000E+01 0.  1.
         11    1    5    5    0    0  0.10021724299E+03 -0.29723635587E+03  0.13649248305E+02  0.31397332534E+03  0.00000000000E+00 0. -1.
        -11    1    5    5    0    0  0.73204963202E+02 -0.34275578631E+03  0.10326212896E+03  0.36538139384E+03  0.00000000000E+00 0.  1.
          1    1    6    6  503    0  0.12848539947E+03 -0.22581979934E+03 -0.20228634343E+03  0.32927624329E+03  0.00000000000E+00 0. -1.
         -1    1    6    6    0  503  0.17388715452E+03 -0.13884229328E+03 -0.17005142070E+03  0.28005608473E+03  0.00000000000E+00 0.  1.
<mgrwt>
<rscale>  0 0.11293741E+04</rscale>
<asrwt>0</asrwt>
<pdfrwt beam="1">  1        2 0.25197503E+00 0.11293741E+04</pdfrwt>
<pdfrwt beam="2">  1       -2 0.13474205E+00 0.11293741E+04</pdfrwt>
<totfact> 0.41279196E+00</totfact>
</mgrwt>
</event>
<event>
12    1  0.3203156E-008  0.1089647E+04  0.7818608E-02  0.9215342E-01
         -1   -1    0    0    0  501 -0.00000000000E+00  0.00000000000E+00  0.99324658929E+03  0.99324658929E+03  0.00000000000E+00 0.  1.
          1   -1    0    0  501    0  0.00000000000E+00 -0.00000000000E+00 -0.17091944385E+04  0.17091944385E+04  0.00000000000E+00 0. -1.
         23    2    1    2    0    0  0.70722569351E+03 -0.77930379664E+03  0.32528664494E+03  0.11051709961E+04  0.90049653700E+02 0.  0.
    5000000    2    1    2    0    0 -0.70722569351E+03  0.77930379664E+03 -0.10412344942E+04  0.15972700317E+04  0.59968299416E+03 0.  0.
         23    2    4    4    0    0 -0.23470578277E+03  0.41524435937E+02 -0.50548466760E+03  0.56608723945E+03  0.90160580298E+02 0.  0.
         23    2    4    4    0    0 -0.47251991074E+03  0.73777936070E+03 -0.53574982655E+03  0.10311827923E+04  0.93362858537E+02 0.  0.
          5    1    3    3  502    0  0.94228091318E+02 -0.11543155084E+03  0.15292763113E+02  0.14986438779E+03  0.47000000000E+01 0. -1.
         -5    1    3    3    0  502  0.61299760219E+03 -0.66387224580E+03  0.30999388183E+03  0.95530660827E+03  0.47000000000E+01 0.  1.
         13    1    5    5    0    0 -0.32689304220E+02 -0.17568936059E+02 -0.13477543376E+03  0.13979154362E+03  0.00000000000E+00 0.  1.
        -13    1    5    5    0    0 -0.20201647855E+03  0.59093371995E+02 -0.37070923385E+03  0.42629569583E+03  0.00000000000E+00 0. -1.
          1    1    6    6  503    0 -0.43577131708E+03  0.63751291006E+03 -0.49290743795E+03  0.91612067637E+03  0.00000000000E+00 0.  1.
         -1    1    6    6    0  503 -0.36748593655E+02  0.10026645065E+03 -0.42842388602E+02  0.11506211593E+03  0.00000000000E+00 0. -1.
<mgrwt>
<rscale>  0 0.10896466E+04</rscale>
<asrwt>0</asrwt>
<pdfrwt beam="1">  1        1 0.26295299E+00 0.10896466E+04</pdfrwt>
<pdfrwt beam="2">  1       -1 0.15280717E+00 0.10896466E+04</pdfrwt>
<totfact> 0.15510354E+00</totfact>
</mgrwt>
</event>
<event>
12    1  0.3203156E-008  0.7961189E+03  0.7818608E-02  0.9565652E-01
         -2   -1    0    0    0  501 -0.00000000000E+00  0.00000000000E+00  0.16497117687E+04  0.16497117687E+04  0.00000000000E+00 0.  1.
          2   -1    0    0  501    0  0.00000000000E+00 -0.00000000000E+00 -0.10437379475E+04  0.10437379475E+04  0.00000000000E+00 0. -1.
         23    2    1    2    0    0 -0.46968997564E+03 -0.56289714464E+03 -0.74121159920E+03  0.10465859895E+04  0.92118022204E+02 0.  0.
    5000000    2    1    2    0    0  0.46968997564E+03  0.56289714464E+03  0.13471854205E+04  0.16468637267E+04  0.59982473153E+03 0.  0.
         23    2    4    4    0    0  0.22937072944E+03  0.56697092587E+03  0.12038365045E+04  0.13532631455E+04  0.89620584015E+02 0.  0.
         23    2    4    4    0    0  0.24031924620E+03 -0.40737812249E+01  0.14334891596E+03  0.29360058121E+03  0.88783184178E+02 0.  0.
          5    1    3    3  502    0 -0.37450747780E+03 -0.39724965072E+03 -0.51608777329E+03  0.75128677325E+03  0.47000000000E+01 0. -1.
         -5    1    3    3    0  502 -0.95182497843E+02 -0.16564749392E+03 -0.22512382591E+03  0.29529921627E+03  0.47000000000E+01 0.  1.
         13    1    5    5    0    0  0.11215832408E+03  0.25574763902E+03  0.45441516113E+03  0.53336618114E+03  0.00000000000E+00 0. -1.
        -13    1    5    5    0    0  0.11721240536E+03  0.31122328684E+03  0.74942134337E+03  0.81989696435E+03  0.00000000000E+00 0.  1.
          4    1    6    6  503    0  0.82039258392E+02 -0.19447042543E+02  0.95803495732E+02  0.12762028513E+03  0.00000000000E+00 0. -1.
         -4    1    6    6    0  503  0.15827998780E+03  0.15373261318E+02  0.47545420230E+02  0.16598029608E+03  0.00000000000E+00 0.  1.
<mgrwt>
<rscale>  0 0.79611893E+03</rscale>
<asrwt>0</asrwt>
<pdfrwt beam="1">  1        2 0.16057507E+00 0.79611893E+03</pdfrwt>
<pdfrwt beam="2">  1       -2 0.25380181E+00 0.79611893E+03</pdfrwt>
<totfact> 0.14779065E+00</totfact>
</mgrwt>
</event>
<event>
12    1  0.3203156E-008  0.3073421E+03  0.7818608E-02  0.1081627E+00
          2   -1    0    0  501    0  0.00000000000E+00  0.00000000000E+00  0.19657361138E+03  0.19657361138E+03  0.00000000000E+00 0. -1.
         -2   -1    0    0    0  501 -0.00000000000E+00 -0.00000000000E+00 -0.99366370572E+03  0.99366370572E+03  0.00000000000E+00 0.  1.
         23    2    1    2    0    0  0.91159819464E+02  0.19775767028E+03 -0.14194193766E+03  0.27525261877E+03  0.90544362792E+02 0.  0.
    5000000    2    1    2    0    0 -0.91159819464E+02 -0.19775767028E+03 -0.65514815668E+03  0.91498469833E+03  0.60046622065E+03 0.  0.
         23    2    4    4    0    0 -0.12305881267E+02  0.66899024211E+02  0.69897705420E+02  0.13365628094E+03  0.91385983918E+02 0.  0.
         23    2    4    4    0    0 -0.78853938197E+02 -0.26465669449E+03 -0.72504586210E+03  0.78132841739E+03  0.92311885327E+02 0.  0.
          5    1    3    3  502    0  0.72589931243E+02  0.92650438991E+02 -0.32250121949E+02  0.12212928530E+03  0.47000000000E+01 0. -1.
         -5    1    3    3    0  502  0.18569888221E+02  0.10510723129E+03 -0.10969181571E+03  0.15312333347E+03  0.47000000000E+01 0.  1.
         11    1    5    5    0    0  0.15959107560E+02 -0.10586234135E+02  0.42717032831E+02  0.46813527544E+02  0.00000000000E+00 0.  1.
        -11    1    5    5    0    0 -0.28264988828E+02  0.77485258346E+02  0.27180672589E+02  0.86842753392E+02  0.00000000000E+00 0. -1.
          3    1    6    6  503    0 -0.78541623489E+02 -0.11791156174E+03 -0.40986217247E+03  0.43365761084E+03  0.00000000000E+00 0. -1.
         -3    1    6    6    0  503 -0.31231470811E+00 -0.14674513275E+03 -0.31518368963E+03  0.34767080656E+03  0.00000000000E+00 0.  1.
<mgrwt>
<rscale>  0 0.30734210E+03</rscale>
<asrwt>0</asrwt>
<pdfrwt beam="1">  1        2 0.30242094E-01 0.30734210E+03</pdfrwt>
<pdfrwt beam="2">  1       -2 0.15287134E+00 0.30734210E+03</pdfrwt>
<totfact> 0.52589178E+01</totfact>
</mgrwt>
</event>
<event>
12    1  0.3203156E-008  0.2282370E+04  0.7818608E-02  0.8484905E-01
          2   -1    0    0  501    0  0.00000000000E+00  0.00000000000E+00  0.35821372378E+04  0.35821372378E+04  0.00000000000E+00 0. -1.
         -2   -1    0    0    0  501 -0.00000000000E+00 -0.00000000000E+00 -0.15183732989E+04  0.15183732989E+04  0.00000000000E+00 0.  1.
         23    2    1    2    0    0 -0.13096911931E+04  0.18508520155E+04  0.13864773759E+04  0.26592469228E+04  0.91271450732E+02 0.  0.
    5000000    2    1    2    0    0  0.13096911931E+04 -0.18508520155E+04  0.67728656301E+03  0.24412636139E+04  0.60008894287E+03 0.  0.
         23    2    4    4    0    0  0.12906298130E+03 -0.39102861678E+03  0.31648914734E+03  0.52733369211E+03  0.91404650699E+02 0.  0.
         23    2    4    4    0    0  0.11806282118E+04 -0.14598233987E+04  0.36079741567E+03  0.19139299218E+04  0.89362409618E+02 0.  0.
          5    1    3    3  502    0 -0.64202597024E+02  0.10334034109E+03  0.97181100059E+02  0.15578015204E+03  0.47000000000E+01 0. -1.
         -5    1    3    3    0  502 -0.12454885961E+04  0.17475116744E+04  0.12892962758E+04  0.25034667707E+04  0.47000000000E+01 0.  1.
         11    1    5    5    0    0  0.40828100766E+02 -0.23215792664E+03  0.21575421836E+03  0.31955299944E+03  0.00000000000E+00 0.  1.
        -11    1    5    5    0    0  0.88234880539E+02 -0.15887069014E+03  0.10073492898E+03  0.20778069267E+03  0.00000000000E+00 0. -1.
          4    1    6    6  503    0  0.17279385261E+03 -0.16646755373E+03  0.48605224980E+02  0.24480937449E+03  0.00000000000E+00 0. -1.
         -4    1    6    6    0  503  0.10078343592E+04 -0.12933558450E+04  0.31219219069E+03  0.16691205473E+04  0.00000000000E+00 0.  1.
<mgrwt>
<rscale>  0 0.22823705E+04</rscale>
<asrwt>0</asrwt>
<pdfrwt beam="1">  1        2 0.55109803E+00 0.22823705E+04</pdfrwt>
<pdfrwt beam="2">  1       -2 0.23359589E+00 0.22823705E+04</pdfrwt>
<totfact> 0.49952390E-02</totfact>
</mgrwt>
</event>
<event>
12    1  0.3203156E-008  0.9628469E+03  0.7818608E-02  0.9350259E-01
         -2   -1    0    0    0  501 -0.00000000000E+00  0.00000000000E+00  0.59436218503E+03  0.59436218503E+03  0.00000000000E+00 0.  1.
          2   -1    0    0  501    0  0.00000000000E+00 -0.00000000000E+00 -0.19447156793E+04  0.19447156793E+04  0.00000000000E+00 0. -1.
         23    2    1    2    0    0  0.47225915027E+03 -0.82394289161E+03 -0.29724677886E+03  0.99926396926E+03  0.90896859415E+02 0.  0.
    5000000    2    1    2    0    0 -0.47225915027E+03  0.82394289161E+03 -0.10531067154E+04  0.15398138951E+04  0.60006873257E+03 0.  0.
         23    2    4    4    0    0 -0.45374514614E+03  0.62900745957E+03 -0.45499235402E+03  0.90387463637E+03  0.91849192832E+02 0.  0.
         23    2    4    4    0    0 -0.18514004134E+02  0.19493543204E+03 -0.59811436140E+03  0.63593925872E+03  0.91298195253E+02 0.  0.
          5    1    3    3  502    0  0.15833604553E+03 -0.36502170861E+03 -0.11759066062E+03  0.41492264886E+03  0.47000000000E+01 0. -1.
         -5    1    3    3    0  502  0.31392310475E+03 -0.45892118300E+03 -0.17965611824E+03  0.58434132040E+03  0.47000000000E+01 0.  1.
         11    1    5    5    0    0 -0.89113406548E+02  0.13506742912E+03 -0.13930339877E+03  0.21351778976E+03  0.00000000000E+00 0.  1.
        -11    1    5    5    0    0 -0.36463173959E+03  0.49394003044E+03 -0.31568895525E+03  0.69035684661E+03  0.00000000000E+00 0. -1.
          1    1    6    6  503    0  0.17256713354E+00  0.28200635149E+02 -0.22596150297E+03  0.22771452836E+03  0.00000000000E+00 0. -1.
         -1    1    6    6    0  503 -0.18686571268E+02  0.16673479690E+03 -0.37215285843E+03  0.40822473036E+03  0.00000000000E+00 0.  1.
<mgrwt>
<rscale>  0 0.96284691E+03</rscale>
<asrwt>0</asrwt>
<pdfrwt beam="1">  1        2 0.29918703E+00 0.96284691E+03</pdfrwt>
<pdfrwt beam="2">  1       -2 0.91440336E-01 0.96284691E+03</pdfrwt>
<totfact> 0.73409858E+00</totfact>
</mgrwt>
</event>
<event>
12    1  0.3203156E-008  0.6499783E+03  0.7818608E-02  0.9806820E-01
         -2   -1    0    0    0  501 -0.00000000000E+00  0.00000000000E+00  0.23989638675E+03  0.23989638675E+03  0.00000000000E+00 0.  1.
          2   -1    0    0  501    0  0.00000000000E+00 -0.00000000000E+00 -0.28165677225E+04  0.28165677225E+04  0.00000000000E+00 0. -1.
         23    2    1    2    0    0 -0.25987291052E+02 -0.62256601153E+03 -0.17502642622E+04  0.18601137665E+04  0.91293256375E+02 0.  0.
    5000000    2    1    2    0    0  0.25987291052E+02  0.62256601153E+03 -0.82640707348E+03  0.11963503427E+04  0.60003476015E+03 0.  0.
         23    2    4    4    0    0 -0.11750477555E+03  0.30321220053E+03 -0.75517030279E+03  0.82720436433E+03  0.90773692909E+02 0.  0.
         23    2    4    4    0    0  0.14349206661E+03  0.31935381100E+03 -0.71236770684E+02  0.36914597837E+03  0.92829122980E+02 0.  0.
          5    1    3    3  502    0 -0.22811576967E+02 -0.26539806064E+03 -0.87828201975E+03  0.91780057466E+03  0.47000000000E+01 0. -1.
         -5    1    3    3    0  502 -0.31757140845E+01 -0.35716795089E+03 -0.87198224250E+03  0.94231319185E+03  0.47000000000E+01 0.  1.
         13    1    5    5    0    0 -0.20489774799E+02  0.47848409471E+02 -0.22327480683E+03  0.22926172931E+03  0.00000000000E+00 0. -1.
        -13    1    5    5    0    0 -0.97015000755E+02  0.25536379106E+03 -0.53189549596E+03  0.59794263502E+03  0.00000000000E+00 0.  1.
          1    1    6    6  503    0  0.55788945277E+02  0.15631523768E+03 -0.79079932129E+02  0.18384911099E+03  0.00000000000E+00 0. -1.
         -1    1    6    6    0  503  0.87703121328E+02  0.16303857332E+03  0.78431614455E+01  0.18529686738E+03  0.00000000000E+00 0.  1.
<mgrwt>
<rscale>  0 0.64997830E+03</rscale>
<asrwt>0</asrwt>
<pdfrwt beam="1">  1        2 0.43331814E+00 0.64997830E+03</pdfrwt>
<pdfrwt beam="2">  1       -2 0.36907134E-01 0.64997830E+03</pdfrwt>
<totfact> 0.16786507E+01</totfact>
</mgrwt>
</event>
<event>
12    1  0.3203156E-008  0.2720455E+03  0.7818608E-02  0.1100115E+00
          2   -1    0    0  501    0  0.00000000000E+00  0.00000000000E+00  0.46729318943E+03  0.46729318943E+03  0.00000000000E+00 0. -1.
         -2   -1    0    0    0  501 -0.00000000000E+00 -0.00000000000E+00 -0.34448033980E+03  0.34448033980E+03  0.00000000000E+00 0.  1.
         23    2    1    2    0    0 -0.13913336136E+03 -0.46412054034E+02 -0.29821394745E+02  0.17556234782E+03  0.91764107265E+02 0.  0.
    5000000    2    1    2    0    0  0.13913336136E+03  0.46412054034E+02  0.15263424437E+03  0.63621118141E+03  0.59996273534E+03 0.  0.
         23    2    4    4    0    0 -0.10128237253E+03 -0.54864274889E+01 -0.17066342898E+03  0.21935756412E+03  0.93292631416E+02 0.  0.
         23    2    4    4    0    0  0.24041573389E+03  0.51898481523E+02  0.32329767335E+03  0.41685361729E+03  0.93554129593E+02 0.  0.
          5    1    3    3  502    0 -0.58979364373E+02 -0.28627479134E+02  0.31589699321E+02  0.72925284276E+02  0.47000000000E+01 0. -1.
         -5    1    3    3    0  502 -0.80153996990E+02 -0.17784574899E+02 -0.61411094066E+02  0.10263706354E+03  0.47000000000E+01 0.  1.
         13    1    5    5    0    0 -0.69468491593E+02  0.38456389312E+02 -0.74147653810E+02  0.10863995475E+03  0.00000000000E+00 0. -1.
        -13    1    5    5    0    0 -0.31813880933E+02 -0.43942816801E+02 -0.96515775170E+02  0.11071760937E+03  0.00000000000E+00 0.  1.
          4    1    6    6  503    0  0.12679530337E+03 -0.19492413629E+02  0.14313634366E+03  0.19221086343E+03  0.00000000000E+00 0. -1.
         -4    1    6    6    0  503  0.11362043052E+03  0.71390895152E+02  0.18016132969E+03  0.22464275385E+03  0.00000000000E+00 0.  1.
<mgrwt>
<rscale>  0 0.27204549E+03</rscale>
<asrwt>0</asrwt>
<pdfrwt beam="1">  1        2 0.71891260E-01 0.27204549E+03</pdfrwt>
<pdfrwt beam="2">  1       -2 0.52996976E-01 0.27204549E+03</pdfrwt>
<totfact> 0.23131161E+02</totfact>
</mgrwt>
</event>
<event>
12    1  0.3203156E-008  0.1171987E+04  0.7818608E-02  0.9137736E-01
         -2   -1    0    0    0  501 -0.00000000000E+00  0.00000000000E+00  0.61414175171E+03  0.61414175171E+03  0.00000000000E+00 0.  1.
          2   -1    0    0  501    0  0.00000000000E+00 -0.00000000000E+00 -0.24679302246E+04  0.24679302246E+04  0.00000000000E+00 0. -1.
         23    2    1    2    0    0 -0.79543447346E+03  0.83343400586E+03 -0.99795252732E+03  0.15269271702E+04  0.90934551004E+02 0.  0.
    5000000    2    1    2    0    0  0.79543447346E+03 -0.83343400586E+03 -0.85583594553E+03  0.15551448061E+04  0.59890897352E+03 0.  0.
         23    2    4    4    0    0  0.68231143392E+03 -0.57661342563E+03 -0.88251098149E+03  0.12589914422E+04  0.90564251286E+02 0.  0.
         23    2    4    4    0    0  0.11312303953E+03 -0.25682058023E+03  0.26675035965E+02  0.29615336388E+03  0.90783395474E+02 0.  0.
          5    1    3    3  502    0 -0.62945899194E+03  0.70233081278E+03 -0.83892774431E+03  0.12622634603E+04  0.47000000000E+01 0. -1.
         -5    1    3    3    0  502 -0.16597548151E+03  0.13110319308E+03 -0.15902478301E+03  0.26466370985E+03  0.47000000000E+01 0.  1.
         11    1    5    5    0    0  0.16615987250E+03 -0.92677364565E+02 -0.19518966094E+03  0.27257512885E+03  0.00000000000E+00 0. -1.
        -11    1    5    5    0    0  0.51615156143E+03 -0.48393606107E+03 -0.68732132055E+03  0.98641631335E+03  0.00000000000E+00 0.  1.
          3    1    6    6  503    0  0.11792808107E+03 -0.26015329607E+03  0.18674793680E+02  0.28624380811E+03  0.00000000000E+00 0. -1.
         -3    1    6    6    0  503 -0.48050415417E+01  0.33327158383E+01  0.80002422852E+01  0.99095557771E+01  0.00000000000E+00 0.  1.
<mgrwt>
<rscale>  0 0.11719872E+04</rscale>
<asrwt>0</asrwt>
<pdfrwt beam="1">  1        2 0.37968157E+00 0.11719872E+04</pdfrwt>
<pdfrwt beam="2">  1       -2 0.94483346E-01 0.11719872E+04</pdfrwt>
<totfact> 0.33848244E+00</totfact>
</mgrwt>
</event>
<event>
12    1  0.3203156E-008  0.3940814E+03  0.7818608E-02  0.1045849E+00
          2   -1    0    0  501    0  0.00000000000E+00  0.00000000000E+00  0.10125052954E+04  0.10125052954E+04  0.00000000000E+00 0. -1.
         -2   -1    0    0    0  501 -0.00000000000E+00 -0.00000000000E+00 -0.19608919251E+03  0.19608919251E+03  0.00000000000E+00 0.  1.
         23    2    1    2    0    0  0.20294160065E+03  0.26671914703E+02  0.77082361540E+02  0.23582415609E+03  0.88174020119E+02 0.  0.
    5000000    2    1    2    0    0 -0.20294160065E+03 -0.26671914703E+02  0.73933374132E+03  0.97277033179E+03  0.59813966014E+03 0.  0.
         23    2    4    4    0    0  0.16017965813E+03 -0.10941223426E+03  0.42815950497E+03  0.47895770838E+03  0.91931304932E+02 0.  0.
         23    2    4    4    0    0 -0.36312125879E+03  0.82740319554E+02  0.31117423635E+03  0.49381262341E+03  0.91205770710E+02 0.  0.
          5    1    3    3  502    0  0.91189336021E+02 -0.27852021283E+01 -0.87788908695E+01  0.91773696013E+02  0.47000000000E+01 0.  1.
         -5    1    3    3    0  502  0.11175226463E+03  0.29457116831E+02  0.85861252409E+02  0.14405046007E+03  0.47000000000E+01 0. -1.
         11    1    5    5    0    0  0.22555263550E+02 -0.34006942951E+02  0.18580050325E+03  0.19022891235E+03  0.00000000000E+00 0. -1.
        -11    1    5    5    0    0  0.13762439458E+03 -0.75405291306E+02  0.24235900172E+03  0.28872879603E+03  0.00000000000E+00 0.  1.
          1    1    6    6  503    0 -0.25599758677E+03  0.14522431034E+02  0.21069572196E+03  0.33187098802E+03  0.00000000000E+00 0. -1.
         -1    1    6    6    0  503 -0.10712367202E+03  0.68217888521E+02  0.10047851439E+03  0.16194163540E+03  0.00000000000E+00 0.  1.
<mgrwt>
<rscale>  0 0.39408136E+03</rscale>
<asrwt>0</asrwt>
<pdfrwt beam="1">  1        2 0.15577004E+00 0.39408136E+03</pdfrwt>
<pdfrwt beam="2">  1       -2 0.30167569E-01 0.39408136E+03</pdfrwt>
<totfact> 0.25965850E+02</totfact>
</mgrwt>
</event>
<event>
12    1  0.3203156E-008  0.1079793E+04  0.7818608E-02  0.9225114E-01
         -2   -1    0    0    0  501 -0.00000000000E+00  0.00000000000E+00  0.10639810106E+04  0.10639810106E+04  0.00000000000E+00 0. -1.
          2   -1    0    0  501    0  0.00000000000E+00 -0.00000000000E+00 -0.13429687607E+04  0.13429687607E+04  0.00000000000E+00 0.  1.
         23    2    1    2    0    0 -0.91367202815E+02 -0.10030472559E+04 -0.61962337634E+03  0.11861519068E+04  0.92582148397E+02 0.  0.
    5000000    2    1    2    0    0  0.91367202815E+02  0.10030472559E+04  0.34063562623E+03  0.12207978644E+04  0.59988584956E+03 0.  0.
         23    2    4    4    0    0 -0.22259372899E+03  0.52077675163E+03  0.26981648813E+03  0.63391969786E+03  0.91087061895E+02 0.  0.
         23    2    4    4    0    0  0.31396093180E+03  0.48227050431E+03  0.70819138093E+02  0.58687816655E+03  0.90853321509E+02 0.  0.
          5    1    3    3  502    0 -0.53165450309E+02 -0.38154051838E+03 -0.28520462295E+03  0.47933651981E+03  0.47000000000E+01 0. -1.
         -5    1    3    3    0  502 -0.38201752506E+02 -0.62150673756E+03 -0.33441875339E+03  0.70681538703E+03  0.47000000000E+01 0.  1.
         11    1    5    5    0    0 -0.11873201947E+03  0.19395783208E+03  0.14111475801E+03  0.26763839037E+03  0.00000000000E+00 0.  1.
        -11    1    5    5    0    0 -0.10386170952E+03  0.32681891955E+03  0.12870173012E+03  0.36628130749E+03  0.00000000000E+00 0. -1.
          3    1    6    6  503    0  0.92051283351E+02  0.21520576151E+03  0.47730259495E+02  0.23888310159E+03  0.00000000000E+00 0. -1.
         -3    1    6    6    0  503  0.22190964845E+03  0.26706474280E+03  0.23088878598E+02  0.34799506496E+03  0.00000000000E+00 0.  1.
<mgrwt>
<rscale>  0 0.10797932E+04</rscale>
<asrwt>0</asrwt>
<pdfrwt beam="1">  1        2 0.20661058E+00 0.10797932E+04</pdfrwt>
<pdfrwt beam="2">  1       -2 0.16368939E+00 0.10797932E+04</pdfrwt>
<totfact> 0.36311358E+00</totfact>
</mgrwt>
</event>
<event>
12    1  0.3203156E-008  0.5014280E+03  0.7818608E-02  0.1013407E+00
         -2   -1    0    0    0  501 -0.00000000000E+00  0.00000000000E+00  0.17243796606E+04  0.17243796606E+04  0.00000000000E+00 0.  1.
          2   -1    0    0  501    0  0.00000000000E+00 -0.00000000000E+00 -0.63764263258E+03  0.63764263258E+03  0.00000000000E+00 0. -1.
         23    2    1    2    0    0  0.46091342706E+03 -0.15551280898E+03 -0.43262218508E+03  0.65762792083E+03  0.93204647082E+02 0.  0.
    5000000    2    1    2    0    0 -0.46091342706E+03  0.15551280898E+03  0.15193592131E+04  0.17043943723E+04  0.59990193951E+03 0.  0.
         23    2    4    4    0    0 -0.33025112220E+03  0.13137499200E+03  0.15004125556E+04  0.15443903258E+04  0.87054288941E+02 0.  0.
         23    2    4    4    0    0 -0.13066230486E+03  0.24137816978E+02  0.18946657468E+02  0.16000404650E+03  0.87103656332E+02 0.  0.
          5    1    3    3  502    0  0.27682689995E+03 -0.13017553259E+03 -0.30605427922E+03  0.43274717059E+03  0.47000000000E+01 0. -1.
         -5    1    3    3    0  502  0.18408652711E+03 -0.25337276383E+02 -0.12656790585E+03  0.22488075024E+03  0.47000000000E+01 0.  1.
         11    1    5    5    0    0 -0.18618954081E+03  0.94554633488E+02  0.70825931983E+03  0.73840259205E+03  0.00000000000E+00 0. -1.
        -11    1    5    5    0    0 -0.14406158140E+03  0.36820358511E+02  0.79215323578E+03  0.80598773377E+03  0.00000000000E+00 0.  1.
          4    1    6    6  503    0 -0.25936188687E+02  0.39921999547E+02 -0.13056906868E+02  0.49365319288E+02  0.00000000000E+00 0. -1.
         -4    1    6    6    0  503 -0.10472611618E+03 -0.15784182569E+02  0.32003564336E+02  0.11063872721E+03  0.00000000000E+00 0.  1.
<mgrwt>
<rscale>  0 0.50142801E+03</rscale>
<asrwt>0</asrwt>
<pdfrwt beam="1">  1        2 0.98098867E-01 0.50142801E+03</pdfrwt>
<pdfrwt beam="2">  1       -2 0.26528918E+00 0.50142801E+03</pdfrwt>
<totfact> 0.25822132E+00</totfact>
</mgrwt>
</event>
<event>
12    1  0.3203156E-008  0.4627736E+03  0.7818608E-02  0.1023980E+00
          2   -1    0    0  501    0  0.00000000000E+00  0.00000000000E+00  0.88468384516E+03  0.88468384516E+03  0.00000000000E+00 0. -1.
         -2   -1    0    0    0  501 -0.00000000000E+00 -0.00000000000E+00 -0.28426898995E+03  0.28426898995E+03  0.00000000000E+00 0.  1.
         23    2    1    2    0    0 -0.30215337940E+03 -0.88527142681E+02  0.20120304356E+03  0.38253253260E+03  0.81943603066E+02 0.  0.
    5000000    2    1    2    0    0  0.30215337940E+03  0.88527142681E+02  0.39921181164E+03  0.78642030252E+03  0.59996091705E+03 0.  0.
         23    2    4    4    0    0  0.20608615466E+03 -0.20739930040E+03  0.33590027919E+03  0.45475628549E+03  0.92132017690E+02 0.  0.
         23    2    4    4    0    0  0.96067224744E+02  0.29592644308E+03  0.63311532455E+02  0.33166401703E+03  0.95871260896E+02 0.  0.
          5    1    3    3  502    0 -0.13970011264E+03 -0.58364508254E+02  0.52863172030E+02  0.16043423031E+03  0.47000000000E+01 0. -1.
         -5    1    3    3    0  502 -0.16245326676E+03 -0.30162634427E+02  0.14833987153E+03  0.22209830229E+03  0.47000000000E+01 0.  1.
         13    1    5    5    0    0  0.35672849840E+02 -0.38002655875E+02  0.12352213961E+03  0.13406891154E+03  0.00000000000E+00 0. -1.
        -13    1    5    5    0    0  0.17041330482E+03 -0.16939664453E+03  0.21237813958E+03  0.32068737394E+03  0.00000000000E+00 0.  1.
          1    1    6    6  503    0  0.95904128202E+02  0.21472752597E+03  0.80684464331E+02  0.24862722096E+03  0.00000000000E+00 0. -1.
         -1    1    6    6    0  503  0.16309654194E+00  0.81198917108E+02 -0.17372931876E+02  0.83036796072E+02  0.00000000000E+00 0.  1.
<mgrwt>
<rscale>  0 0.46277358E+03</rscale>
<asrwt>0</asrwt>
<pdfrwt beam="1">  1        2 0.13610521E+00 0.46277358E+03</pdfrwt>
<pdfrwt beam="2">  1       -2 0.43733691E-01 0.46277358E+03</pdfrwt>
<totfact> 0.15387656E+02</totfact>
</mgrwt>
</event>
<event>
12    1  0.3203156E-008  0.1149563E+04  0.7818608E-02  0.9158187E-01
         -2   -1    0    0    0  501 -0.00000000000E+00  0.00000000000E+00  0.10244364255E+04  0.10244364255E+04  0.00000000000E+00 0.  1.
          2   -1    0    0  501    0  0.00000000000E+00 -0.00000000000E+00 -0.17608340287E+04  0.17608340287E+04  0.00000000000E+00 0. -1.
         23    2    1    2    0    0  0.15519620296E+03 -0.10664987880E+04 -0.10553672321E+04  0.15111480616E+04  0.90900732623E+02 0.  0.
    5000000    2    1    2    0    0 -0.15519620296E+03  0.10664987880E+04  0.31896962889E+03  0.12741223926E+04  0.60011725601E+03 0.  0.
         23    2    4    4    0    0 -0.35268221094E+03  0.47072852405E+03  0.10413822013E+03  0.60436120424E+03  0.91856469734E+02 0.  0.
         23    2    4    4    0    0  0.19748600797E+03  0.59577026393E+03  0.21483140876E+03  0.66976118835E+03  0.92111804328E+02 0.  0.
          5    1    3    3  502    0  0.72513034975E+02 -0.33685790330E+03 -0.38709193352E+03  0.51826020709E+03  0.47000000000E+01 0. -1.
         -5    1    3    3    0  502  0.82683167990E+02 -0.72964088469E+03 -0.66827529863E+03  0.99288785451E+03  0.47000000000E+01 0.  1.
         13    1    5    5    0    0 -0.80763673444E+02  0.12220353647E+03  0.66015808675E+02  0.16066910801E+03  0.00000000000E+00 0.  1.
        -13    1    5    5    0    0 -0.27191853749E+03  0.34852498758E+03  0.38122411450E+02  0.44369209623E+03  0.00000000000E+00 0. -1.
          3    1    6    6  503    0  0.81502743764E+02  0.35736105396E+03  0.93992081542E+02  0.37839679111E+03  0.00000000000E+00 0. -1.
         -3    1    6    6    0  503  0.11598326421E+03  0.23840920997E+03  0.12083932722E+03  0.29136439724E+03  0.00000000000E+00 0.  1.
<mgrwt>
<rscale>  0 0.11495628E+04</rscale>
<asrwt>0</asrwt>
<pdfrwt beam="1">  1        2 0.27089754E+00 0.11495628E+04</pdfrwt>
<pdfrwt beam="2">  1       -2 0.15760560E+00 0.11495628E+04</pdfrwt>
<totfact> 0.23263182E+00</totfact>
</mgrwt>
</event>
<event>
12    1  0.3203156E-008  0.1574550E+04  0.7818608E-02  0.8836337E-01
         -2   -1    0    0    0  501 -0.00000000000E+00  0.00000000000E+00  0.15665987327E+04  0.15665987327E+04  0.00000000000E+00 0.  1.
          2   -1    0    0  501    0  0.00000000000E+00 -0.00000000000E+00 -0.17240005843E+04  0.17240005843E+04  0.00000000000E+00 0. -1.
         23    2    1    2    0    0  0.14521920770E+04  0.58790216395E+03  0.17903274276E+03  0.15795042869E+04  0.91051011027E+02 0.  0.
    5000000    2    1    2    0    0 -0.14521920770E+04 -0.58790216395E+03 -0.33643459435E+03  0.17110950302E+04  0.60013930313E+03 0.  0.
         23    2    4    4    0    0 -0.12004665392E+04 -0.51978911136E+03 -0.44960792897E+02  0.13120371177E+04  0.90107120912E+02 0.  0.
         23    2    4    4    0    0 -0.25172553779E+03 -0.68113052582E+02 -0.29147380145E+03  0.39905791249E+03  0.79278662218E+02 0.  0.
          5    1    3    3  502    0  0.57906497423E+03  0.20990188536E+03  0.32224080568E+02  0.61679455836E+03  0.47000000000E+01 0. -1.
         -5    1    3    3    0  502  0.87312710275E+03  0.37800027859E+03  0.14680866219E+03  0.96270972856E+03  0.47000000000E+01 0.  1.
         13    1    5    5    0    0 -0.14631674513E+03 -0.92069287546E+02 -0.21215740264E+02  0.17417075314E+03  0.00000000000E+00 0. -1.
        -13    1    5    5    0    0 -0.10541497941E+04 -0.42771982382E+03 -0.23745052633E+02  0.11378663645E+04  0.00000000000E+00 0.  1.
          4    1    6    6  503    0 -0.24780982790E+03 -0.50165474127E+02 -0.26034421711E+03  0.36291238196E+03  0.00000000000E+00 0.  1.
         -4    1    6    6    0  503 -0.39157098944E+01 -0.17947578456E+02 -0.31129584339E+02  0.36145530533E+02  0.00000000000E+00 0. -1.
<mgrwt>
<rscale>  0 0.15745504E+04</rscale>
<asrwt>0</asrwt>
<pdfrwt beam="1">  1        2 0.26523086E+00 0.15745504E+04</pdfrwt>
<pdfrwt beam="2">  1       -2 0.24101519E+00 0.15745504E+04</pdfrwt>
<totfact> 0.64712095E-01</totfact>
</mgrwt>
</event>
<event>
12    1  0.3203156E-008  0.6397779E+03  0.7818608E-02  0.9826152E-01
         -1   -1    0    0    0  501 -0.00000000000E+00  0.00000000000E+00  0.17616036036E+04  0.17616036036E+04  0.00000000000E+00 0.  1.
          1   -1    0    0  501    0  0.00000000000E+00 -0.00000000000E+00 -0.45457068690E+03  0.45457068690E+03  0.00000000000E+00 0. -1.
         23    2    1    2    0    0 -0.35834401431E+03 -0.46517156504E+03 -0.75471072268E+02  0.59875543887E+03  0.89538680549E+02 0.  0.
    5000000    2    1    2    0    0  0.35834401431E+03  0.46517156504E+03  0.13825039890E+04  0.16174188516E+04  0.59994286778E+03 0.  0.
         23    2    4    4    0    0 -0.96611577662E+00  0.26637667586E+03  0.16639376195E+03  0.33058550800E+03  0.10316214065E+03 0.  0.
         23    2    4    4    0    0  0.35931013008E+03  0.19879488918E+03  0.12161102270E+04  0.12868333436E+04  0.91612185152E+02 0.  0.
          5    1    3    3  502    0 -0.25214495982E+03 -0.28451841812E+03 -0.14560772470E+02  0.38047590871E+03  0.47000000000E+01 0. -1.
         -5    1    3    3    0  502 -0.10619905449E+03 -0.18065314691E+03 -0.60910299799E+02  0.21827953016E+03  0.47000000000E+01 0.  1.
         11    1    5    5    0    0 -0.21593603572E+02  0.93251760481E+02  0.97697406585E+01  0.96216539018E+02  0.00000000000E+00 0.  1.
        -11    1    5    5    0    0  0.20627487796E+02  0.17312491538E+03  0.15662402129E+03  0.23436896898E+03  0.00000000000E+00 0. -1.
          4    1    6    6  503    0  0.19230892796E+03  0.15509462186E+03  0.67061143356E+03  0.71467248465E+03  0.00000000000E+00 0. -1.
         -4    1    6    6    0  503  0.16700120213E+03  0.43700267320E+02  0.54549879348E+03  0.57216085899E+03  0.00000000000E+00 0.  1.
<mgrwt>
<rscale>  0 0.63977789E+03</rscale>
<asrwt>0</asrwt>
<pdfrwt beam="1">  1        1 0.69933953E-01 0.63977789E+03</pdfrwt>
<pdfrwt beam="2">  1       -1 0.27101593E+00 0.63977789E+03</pdfrwt>
<totfact> 0.27406721E+00</totfact>
</mgrwt>
</event>
<event>
12    1  0.3203156E-008  0.1125320E+04  0.7818608E-02  0.9180859E-01
          1   -1    0    0  501    0  0.00000000000E+00  0.00000000000E+00  0.76137167512E+03  0.76137167512E+03  0.00000000000E+00 0. -1.
         -1   -1    0    0    0  501 -0.00000000000E+00 -0.00000000000E+00 -0.23007426020E+04  0.23007426020E+04  0.00000000000E+00 0.  1.
         23    2    1    2    0    0 -0.50074978168E+03  0.93343282416E+03 -0.15070628443E+04  0.18443548505E+04  0.91428751800E+02 0.  0.
    5000000    2    1    2    0    0  0.50074978168E+03 -0.93343282416E+03 -0.32308082528E+02  0.12177594266E+04  0.59987250965E+03 0.  0.
         23    2    4    4    0    0 -0.11714685865E+03 -0.11743142242E+03  0.29505272560E+01  0.18951755384E+03  0.91622443440E+02 0.  0.
         23    2    4    4    0    0  0.61789664033E+03 -0.81600140175E+03 -0.35258609784E+02  0.10282418728E+04  0.91562184163E+02 0.  0.
          5    1    3    3  502    0 -0.18724099737E+03  0.34809581650E+03 -0.64005263240E+03  0.75227611340E+03  0.47000000000E+01 0.  1.
         -5    1    3    3    0  502 -0.31350878431E+03  0.58533700766E+03 -0.86701021194E+03  0.10920787371E+04  0.47000000000E+01 0.  1.
         11    1    5    5    0    0 -0.57862987273E+02 -0.44635704729E+02 -0.43213921868E+02  0.84899437430E+02  0.00000000000E+00 0. -1.
        -11    1    5    5    0    0 -0.59283871377E+02 -0.72795717687E+02  0.46164449124E+02  0.10461811641E+03  0.00000000000E+00 0.  1.
          4    1    6    6  503    0  0.18223251540E+03 -0.27225375961E+03  0.26931807004E+02  0.32871890959E+03  0.00000000000E+00 0.  1.
         -4    1    6    6    0  503  0.43566412494E+03 -0.54374764213E+03 -0.62190416788E+02  0.69952296318E+03  0.00000000000E+00 0. -1.
<mgrwt>
<rscale>  0 0.11253197E+04</rscale>
<asrwt>0</asrwt>
<pdfrwt beam="1">  1        1 0.11713410E+00 0.11253197E+04</pdfrwt>
<pdfrwt beam="2">  1       -1 0.35396040E+00 0.11253197E+04</pdfrwt>
<totfact> 0.35044321E-01</totfact>
</mgrwt>
</event>
<event>
12    1  0.3203156E-008  0.1548508E+04  0.7818608E-02  0.8852821E-01
          2   -1    0    0  501    0  0.00000000000E+00  0.00000000000E+00  0.34874225166E+04  0.34874225166E+04  0.00000000000E+00 0. -1.
         -2   -1    0    0    0  501 -0.00000000000E+00 -0.00000000000E+00 -0.72510311234E+03  0.72510311234E+03  0.00000000000E+00 0.  1.
         23    2    1    2    0    0 -0.12044235053E+04  0.88279936483E+03  0.87831998144E+03  0.17347609638E+04  0.89324761248E+02 0.  0.
    5000000    2    1    2    0    0  0.12044235053E+04 -0.88279936483E+03  0.18839994228E+04  0.24777646651E+04  0.59991100341E+03 0.  0.
         23    2    4    4    0    0  0.97144652840E+03 -0.38566692718E+03  0.11551167842E+04  0.15605396880E+04  0.92422921862E+02 0.  0.
         23    2    4    4    0    0  0.23297697691E+03 -0.49713243765E+03  0.72888263855E+03  0.91722497708E+03  0.92805309468E+02 0.  0.
          5    1    3    3  502    0 -0.91322499403E+03  0.70443273204E+03  0.70532637182E+03  0.13519292676E+04  0.47000000000E+01 0. -1.
         -5    1    3    3    0  502 -0.29119851128E+03  0.17836663278E+03  0.17299360963E+03  0.38283169623E+03  0.47000000000E+01 0.  1.
         11    1    5    5    0    0  0.75255073123E+03 -0.33941544345E+03  0.90884338847E+03  0.12278158458E+04  0.00000000000E+00 0. -1.
        -11    1    5    5    0    0  0.21889579717E+03 -0.46251483728E+02  0.24627339575E+03  0.33272384228E+03  0.00000000000E+00 0.  1.
          1    1    6    6  503    0  0.40574538807E+02 -0.40387335707E+02  0.45968788308E+02  0.73420430286E+02  0.00000000000E+00 0. -1.
         -1    1    6    6    0  503  0.19240243810E+03 -0.45674510194E+03  0.68291385025E+03  0.84380454680E+03  0.00000000000E+00 0.  1.
<mgrwt>
<rscale>  0 0.15485079E+04</rscale>
<asrwt>0</asrwt>
<pdfrwt beam="1">  1        2 0.53652653E+00 0.15485079E+04</pdfrwt>
<pdfrwt beam="2">  1       -2 0.11155433E+00 0.15485079E+04</pdfrwt>
<totfact> 0.50261842E-01</totfact>
</mgrwt>
</event>
<event>
12    1  0.3203156E-008  0.8216233E+03  0.7818608E-02  0.9529235E-01
         -2   -1    0    0    0  501 -0.00000000000E+00  0.00000000000E+00  0.12213600918E+04  0.12213600918E+04  0.00000000000E+00 0.  1.
          2   -1    0    0  501    0  0.00000000000E+00 -0.00000000000E+00 -0.71974288420E+03  0.71974288420E+03  0.00000000000E+00 0. -1.
         23    2    1    2    0    0 -0.77650248419E+03  0.26082878302E+03  0.38020192448E+02  0.82514317875E+03  0.91803967207E+02 0.  0.
    5000000    2    1    2    0    0  0.77650248419E+03 -0.26082878302E+03  0.46359701520E+03  0.11159597973E+04  0.59954675772E+03 0.  0.
         23    2    4    4    0    0  0.18083296873E+02 -0.19243683580E+02 -0.98305073471E+02  0.13737913450E+03  0.92259493500E+02 0.  0.
         23    2    4    4    0    0  0.75841918731E+03 -0.24158509944E+03  0.56190208867E+03  0.97858066281E+03  0.91231203020E+02 0.  0.
          5    1    3    3  502    0 -0.69905939413E+03  0.23171435832E+03  0.61423332176E+02  0.73903348782E+03  0.47000000000E+01 0. -1.
         -5    1    3    3    0  502 -0.77443090053E+02  0.29114424707E+02 -0.23403139729E+02  0.86109690930E+02  0.47000000000E+01 0.  1.
         13    1    5    5    0    0  0.10103719641E+02 -0.16763918433E+02  0.14440903388E+02  0.24323934765E+02  0.00000000000E+00 0. -1.
        -13    1    5    5    0    0  0.79795772322E+01 -0.24797651476E+01 -0.11274597686E+03  0.11305519973E+03  0.00000000000E+00 0.  1.
          1    1    6    6  503    0  0.16789806795E+03 -0.54790616183E+02  0.17311060996E+03  0.24730357079E+03  0.00000000000E+00 0. -1.
         -1    1    6    6    0  503  0.59052111937E+03 -0.18679448326E+03  0.38879147871E+03  0.73127709202E+03  0.00000000000E+00 0.  1.
<mgrwt>
<rscale>  0 0.82162331E+03</rscale>
<asrwt>0</asrwt>
<pdfrwt beam="1">  1        2 0.11072967E+00 0.82162331E+03</pdfrwt>
<pdfrwt beam="2">  1       -2 0.18790155E+00 0.82162331E+03</pdfrwt>
<totfact> 0.64010726E+00</totfact>
</mgrwt>
</event>
<event>
12    1  0.3203156E-008  0.3086628E+03  0.7818608E-02  0.1080989E+00
         -2   -1    0    0    0  501 -0.00000000000E+00  0.00000000000E+00  0.23923967725E+03  0.23923967725E+03  0.00000000000E+00 0.  1.
          2   -1    0    0  501    0  0.00000000000E+00 -0.00000000000E+00 -0.13248622306E+04  0.13248622306E+04  0.00000000000E+00 0. -1.
         23    2    1    2    0    0 -0.12340756257E+03 -0.12948255040E+03  0.99377843688E+02  0.22404215997E+03  0.91234731727E+02 0.  0.
    5000000    2    1    2    0    0  0.12340756257E+03  0.12948255040E+03 -0.11850003971E+04  0.13400597479E+04  0.59961573492E+03 0.  0.
         23    2    4    4    0    0  0.26314927713E+03  0.84736429874E+02 -0.11172540476E+04  0.11548543128E+04  0.94889790588E+02 0.  0.
         23    2    4    4    0    0 -0.13974171456E+03  0.44746120524E+02 -0.67746349445E+02  0.18520543507E+03  0.90451772935E+02 0.  0.
          5    1    3    3  502    0 -0.31058253430E+02  0.51476537083E+00  0.46225296883E+02  0.55890501531E+02  0.47000000000E+01 0. -1.
         -5    1    3    3    0  502 -0.92349309139E+02 -0.12999731577E+03  0.53152546805E+02  0.16815165844E+03  0.47000000000E+01 0.  1.
         13    1    5    5    0    0  0.10542799772E+03  0.15258378832E+02 -0.60708727308E+03  0.61636258644E+03  0.00000000000E+00 0. -1.
        -13    1    5    5    0    0  0.15772127941E+03  0.69478051041E+02 -0.51016677455E+03  0.53849172641E+03  0.00000000000E+00 0.  1.
          3    1    6    6  503    0 -0.93253042936E+02  0.37251299716E+02 -0.88401358948E+02  0.13378561063E+03  0.00000000000E+00 0. -1.
         -3    1    6    6    0  503 -0.46488671622E+02  0.74948208074E+01  0.20655009503E+02  0.51419824442E+02  0.00000000000E+00 0.  1.
<mgrwt>
<rscale>  0 0.30866280E+03</rscale>
<asrwt>0</asrwt>
<pdfrwt beam="1">  1        2 0.20382496E+00 0.30866280E+03</pdfrwt>
<pdfrwt beam="2">  1       -2 0.36806104E-01 0.30866280E+03</pdfrwt>
<totfact> 0.11922887E+02</totfact>
</mgrwt>
</event>
<event>
12    1  0.3203156E-008  0.1090613E+04  0.7818608E-02  0.9214390E-01
         -2   -1    0    0    0  501 -0.00000000000E+00  0.00000000000E+00  0.14633679213E+04  0.14633679213E+04  0.00000000000E+00 0.  1.
          2   -1    0    0  501    0  0.00000000000E+00 -0.00000000000E+00 -0.10250764251E+04  0.10250764251E+04  0.00000000000E+00 0. -1.
         23    2    1    2    0    0  0.60571578552E+03  0.83860809032E+03  0.71518519858E+03  0.12609606425E+04  0.91524486971E+02 0.  0.
    5000000    2    1    2    0    0 -0.60571578552E+03 -0.83860809032E+03 -0.27689370242E+03  0.12274837038E+04  0.59990914212E+03 0.  0.
         23    2    4    4    0    0 -0.64501619618E+03 -0.54102101022E+03 -0.66862485402E+02  0.84942193652E+03  0.91090106298E+02 0.  0.
         23    2    4    4    0    0  0.39300410654E+02 -0.29758708010E+03 -0.21003121701E+03  0.37806176733E+03  0.93354139026E+02 0.  0.
          5    1    3    3  502    0  0.14334166734E+03  0.17364426507E+03  0.11491671343E+03  0.25283810119E+03  0.47000000000E+01 0. -1.
         -5    1    3    3    0  502  0.46237411818E+03  0.66496382525E+03  0.60026848516E+03  0.10081225413E+04  0.47000000000E+01 0.  1.
         11    1    5    5    0    0 -0.10880012451E+03 -0.55635339718E+02 -0.26380719153E+02  0.12501480097E+03  0.00000000000E+00 0. -1.
        -11    1    5    5    0    0 -0.53621607167E+03 -0.48538567050E+03 -0.40481766250E+02  0.72440713555E+03  0.00000000000E+00 0.  1.
          3    1    6    6  503    0  0.22748517095E+00 -0.46221464290E+02 -0.79945149026E+02  0.92345559522E+02  0.00000000000E+00 0. -1.
         -3    1    6    6    0  503  0.39072925483E+02 -0.25136561581E+03 -0.13008606799E+03  0.28571620781E+03  0.00000000000E+00 0.  1.
<mgrwt>
<rscale>  0 0.10906131E+04</rscale>
<asrwt>0</asrwt>
<pdfrwt beam="1">  1        2 0.15770407E+00 0.10906131E+04</pdfrwt>
<pdfrwt beam="2">  1       -2 0.22513352E+00 0.10906131E+04</pdfrwt>
<totfact> 0.21907166E+00</totfact>
</mgrwt>
</event>
<event>
12    1  0.3203156E-008  0.6177281E+03  0.7818608E-02  0.9869293E-01
         -1   -1    0    0    0  501 -0.00000000000E+00  0.00000000000E+00  0.10299777516E+04  0.10299777516E+04  0.00000000000E+00 0.  1.
          1   -1    0    0  501    0  0.00000000000E+00 -0.00000000000E+00 -0.57895602023E+03  0.57895602023E+03  0.00000000000E+00 0. -1.
         23    2    1    2    0    0  0.11482128434E+03  0.58787727731E+03  0.46075251544E+03  0.76094781022E+03  0.89247234593E+02 0.  0.
    5000000    2    1    2    0    0 -0.11482128434E+03 -0.58787727731E+03 -0.97307840774E+01  0.84798596160E+03  0.60016821176E+03 0.  0.
         23    2    4    4    0    0  0.28014686057E+01 -0.32460340440E+03  0.27363291082E+03  0.43349036822E+03  0.87542624330E+02 0.  0.
         23    2    4    4    0    0 -0.11762275295E+03 -0.26327387290E+03 -0.28336369490E+03  0.41449559339E+03  0.91451458075E+02 0.  0.
          5    1    3    3  502    0  0.90002037722E+02  0.54883600146E+03  0.40321275949E+03  0.68696720643E+03  0.47000000000E+01 0. -1.
         -5    1    3    3    0  502  0.24819246619E+02  0.39041275846E+02  0.57539755951E+02  0.73980603791E+02  0.47000000000E+01 0.  1.
         11    1    5    5    0    0 -0.41290758274E+02 -0.19015515247E+03  0.15240615243E+03  0.24716703669E+03  0.00000000000E+00 0. -1.
        -11    1    5    5    0    0  0.44092226880E+02 -0.13444825193E+03  0.12122675839E+03  0.18632333152E+03  0.00000000000E+00 0.  1.
          2    1    6    6  503    0 -0.12538017450E+03 -0.22442794524E+03 -0.21344880651E+03  0.33413842007E+03  0.00000000000E+00 0. -1.
         -2    1    6    6    0  503  0.77574215583E+01 -0.38845927661E+02 -0.69914888390E+02  0.80357173318E+02  0.00000000000E+00 0.  1.
<mgrwt>
<rscale>  0 0.61772812E+03</rscale>
<asrwt>0</asrwt>
<pdfrwt beam="1">  1        1 0.89070157E-01 0.61772812E+03</pdfrwt>
<pdfrwt beam="2">  1       -1 0.15845812E+00 0.61772812E+03</pdfrwt>
<totfact> 0.11351988E+01</totfact>
</mgrwt>
</event>
<event>
12    1  0.3203156E-008  0.8169658E+03  0.7818608E-02  0.9535779E-01
         -1   -1    0    0    0  501 -0.00000000000E+00  0.00000000000E+00  0.82054448740E+03  0.82054448740E+03  0.00000000000E+00 0.  1.
          1   -1    0    0  501    0  0.00000000000E+00 -0.00000000000E+00 -0.13337525182E+04  0.13337525182E+04  0.00000000000E+00 0. -1.
         23    2    1    2    0    0  0.70969077282E+03  0.35956975035E+03  0.31229063608E+03  0.85972405685E+03  0.92997925582E+02 0.  0.
    5000000    2    1    2    0    0 -0.70969077282E+03 -0.35956975035E+03 -0.82549866690E+03  0.12945729488E+04  0.60126505991E+03 0.  0.
         23    2    4    4    0    0 -0.43801342771E+03 -0.34969045579E+03 -0.83289568703E+03  0.10080034767E+04  0.90645495626E+02 0.  0.
         23    2    4    4    0    0 -0.27167734511E+03 -0.98792945589E+01  0.73970201346E+01  0.28656947206E+03  0.90339172582E+02 0.  0.
          5    1    3    3  502    0  0.31044976693E+03  0.14422310261E+03  0.18213223939E+03  0.38778035502E+03  0.47000000000E+01 0. -1.
         -5    1    3    3    0  502  0.39924100588E+03  0.21534664773E+03  0.13015839669E+03  0.47194370183E+03  0.47000000000E+01 0.  1.
         13    1    5    5    0    0 -0.27004578365E+03 -0.20982674721E+03 -0.58394972896E+03  0.67671949511E+03  0.00000000000E+00 0.  1.
        -13    1    5    5    0    0 -0.16796764406E+03 -0.13986370858E+03 -0.24894595807E+03  0.33128398161E+03  0.00000000000E+00 0. -1.
          4    1    6    6  503    0 -0.78721783801E+01  0.10123985710E+02  0.17639666789E+02  0.21808808393E+02  0.00000000000E+00 0.  1.
         -4    1    6    6    0  503 -0.26380516673E+03 -0.20003280269E+02 -0.10242646655E+02  0.26476066366E+03  0.00000000000E+00 0. -1.
<mgrwt>
<rscale>  0 0.81696583E+03</rscale>
<asrwt>0</asrwt>
<pdfrwt beam="1">  1        1 0.20519269E+00 0.81696583E+03</pdfrwt>
<pdfrwt beam="2">  1       -1 0.12623761E+00 0.81696583E+03</pdfrwt>
<totfact> 0.48087226E+00</totfact>
</mgrwt>
</event>
<event>
12    1  0.3203156E-008  0.5973436E+03  0.7818608E-02  0.9910933E-01
         -1   -1    0    0    0  501 -0.00000000000E+00  0.00000000000E+00  0.18425222826E+03  0.18425222826E+03  0.00000000000E+00 0.  1.
          1   -1    0    0  501    0  0.00000000000E+00 -0.00000000000E+00 -0.23374135930E+04  0.23374135930E+04  0.00000000000E+00 0. -1.
         23    2    1    2    0    0 -0.33877554532E+03  0.34915325761E+03 -0.11775649999E+04  0.12773251843E+04  0.90683129646E+02 0.  0.
    5000000    2    1    2    0    0  0.33877554532E+03 -0.34915325761E+03 -0.97559636480E+03  0.12443406369E+04  0.59993206810E+03 0.  0.
         23    2    4    4    0    0  0.26342384512E+03  0.69463984700E+02 -0.62061057215E+03  0.68286387827E+03  0.83235969587E+02 0.  0.
         23    2    4    4    0    0  0.75351700201E+02 -0.41861724231E+03 -0.35498579265E+03  0.56147675868E+03  0.91230276031E+02 0.  0.
          5    1    3    3  502    0 -0.22694479200E+03  0.27215445650E+03 -0.92451513343E+03  0.99011227078E+03  0.47000000000E+01 0.  1.
         -5    1    3    3    0  502 -0.11183075332E+03  0.76998801110E+02 -0.25304986646E+03  0.28721291349E+03  0.47000000000E+01 0.  1.
         13    1    5    5    0    0  0.25434511684E+03  0.71535611119E+02 -0.53435820812E+03  0.59611028904E+03  0.00000000000E+00 0. -1.
        -13    1    5    5    0    0  0.90787282851E+01 -0.20716264187E+01 -0.86252364026E+02  0.86753589225E+02  0.00000000000E+00 0.  1.
          4    1    6    6  503    0  0.88776376699E+02 -0.36336530428E+03 -0.27935458743E+03  0.46685605376E+03  0.00000000000E+00 0. -1.
         -4    1    6    6    0  503 -0.13424676499E+02 -0.55251938034E+02 -0.75631205226E+02  0.94620704920E+02  0.00000000000E+00 0.  1.
<mgrwt>
<rscale>  0 0.59734358E+03</rscale>
<asrwt>0</asrwt>
<pdfrwt beam="1">  1        1 0.35960210E+00 0.59734358E+03</pdfrwt>
<pdfrwt beam="2">  1       -1 0.28346496E-01 0.59734358E+03</pdfrwt>
<totfact> 0.21173725E+01</totfact>
</mgrwt>
</event>
<event>
12    1  0.3203156E-008  0.6240002E+03  0.7818608E-02  0.9856827E-01
         -2   -1    0    0    0  501 -0.00000000000E+00  0.00000000000E+00  0.21211165224E+03  0.21211165224E+03  0.00000000000E+00 0.  1.
          2   -1    0    0  501    0  0.00000000000E+00 -0.00000000000E+00 -0.22920339824E+04  0.22920339824E+04  0.00000000000E+00 0. -1.
         23    2    1    2    0    0  0.98148673820E+02  0.54249318297E+03 -0.10638002762E+04  0.12016635957E+04  0.91609791098E+02 0.  0.
    5000000    2    1    2    0    0 -0.98148673820E+02 -0.54249318297E+03 -0.10161220540E+04  0.13024820390E+04  0.60001951429E+03 0.  0.
         23    2    4    4    0    0  0.12909388653E+03 -0.38565899966E+03 -0.89528263108E+03  0.98769074857E+03  0.92757370227E+02 0.  0.
         23    2    4    4    0    0 -0.22724256035E+03 -0.15683418332E+03 -0.12083942291E+03  0.31479129042E+03  0.90858395876E+02 0.  0.
          5    1    3    3  502    0  0.18520868468E+02  0.18593803501E+03 -0.27697959264E+03  0.33414930820E+03  0.47000000000E+01 0. -1.
         -5    1    3    3    0  502  0.79627805352E+02  0.35655514796E+03 -0.78682068357E+03  0.86751428750E+03  0.47000000000E+01 0.  1.
         11    1    5    5    0    0  0.11053519602E+03 -0.24520341757E+03 -0.49945832560E+03  0.56727538688E+03  0.00000000000E+00 0. -1.
        -11    1    5    5    0    0  0.18558690510E+02 -0.14045558209E+03 -0.39582430548E+03  0.42041536169E+03  0.00000000000E+00 0.  1.
          1    1    6    6  503    0 -0.10466439588E+03 -0.11512859663E+03 -0.96371068846E+02  0.18302079783E+03  0.00000000000E+00 0.  1.
         -1    1    6    6    0  503 -0.12257816448E+03 -0.41705586684E+02 -0.24468354064E+02  0.13177049259E+03  0.00000000000E+00 0. -1.
<mgrwt>
<rscale>  0 0.62400016E+03</rscale>
<asrwt>0</asrwt>
<pdfrwt beam="1">  1        2 0.35262061E+00 0.62400016E+03</pdfrwt>
<pdfrwt beam="2">  1       -2 0.32632562E-01 0.62400016E+03</pdfrwt>
<totfact> 0.42339226E+01</totfact>
</mgrwt>
</event>
<event>
12    1  0.3277184E-008  0.8886391E+03  0.7818608E-02  0.9439896E-01
          2   -1    0    0  501    0  0.00000000000E+00  0.00000000000E+00  0.14828911546E+04  0.14828911546E+04  0.00000000000E+00 0. -1.
         -2   -1    0    0    0  501 -0.00000000000E+00 -0.00000000000E+00 -0.64292635360E+03  0.64292635360E+03  0.00000000000E+00 0.  1.
         23    2    1    2    0    0  0.86450534529E+03 -0.17298661892E+03  0.39339877676E+03  0.96966822336E+03  0.90553870557E+02 0.  0.
    5000000    2    1    2    0    0 -0.86450534529E+03  0.17298661892E+03  0.44656602421E+03  0.11561492848E+04  0.59997174301E+03 0.  0.
         23    2    4    4    0    0 -0.28423150720E+03  0.12487947722E+01  0.45348660526E+03  0.54356919443E+03  0.95017150136E+02 0.  0.
         23    2    4    4    0    0 -0.58027383810E+03  0.17173782415E+03 -0.69205810478E+01  0.61258009037E+03  0.94841263460E+02 0.  0.
          5    1    3    3  502    0  0.38024878031E+03 -0.51432674080E+02  0.21220669249E+03  0.43850681321E+03  0.47000000000E+01 0. -1.
         -5    1    3    3    0  502  0.48425656498E+03 -0.12155394484E+03  0.18119208427E+03  0.53116141015E+03  0.47000000000E+01 0.  1.
         11    1    5    5    0    0 -0.10847541948E+03 -0.33085034568E+01  0.26212721901E+03  0.28370502599E+03  0.00000000000E+00 0.  1.
        -11    1    5    5    0    0 -0.17575608772E+03  0.45572982291E+01  0.19135938625E+03  0.25986416845E+03  0.00000000000E+00 0. -1.
          4    1    6    6  503    0 -0.26480018226E+03  0.39093912463E+02 -0.31264872829E+02  0.26949019052E+03  0.00000000000E+00 0.  1.
         -4    1    6    6    0  503 -0.31547365584E+03  0.13264391168E+03  0.24344291781E+02  0.34308989985E+03  0.00000000000E+00 0. -1.
<mgrwt>
<rscale>  0 0.88863909E+03</rscale>
<asrwt>0</asrwt>
<pdfrwt beam="1">  1        2 0.22813710E+00 0.88863909E+03</pdfrwt>
<pdfrwt beam="2">  1       -2 0.98911747E-01 0.88863909E+03</pdfrwt>
<totfact> 0.11081081E+01</totfact>
</mgrwt>
</event>
<event>
12    1  0.3203156E-008  0.5764301E+03  0.7818608E-02  0.9955550E-01
         -2   -1    0    0    0  501 -0.00000000000E+00  0.00000000000E+00  0.31956630228E+03  0.31956630228E+03  0.00000000000E+00 0.  1.
          2   -1    0    0  501    0  0.00000000000E+00 -0.00000000000E+00 -0.13694196119E+04  0.13694196119E+04  0.00000000000E+00 0. -1.
         23    2    1    2    0    0 -0.42781503527E+03  0.15942595730E+03 -0.72900500263E+03  0.86965709548E+03  0.12811256607E+03 0.  0.
    5000000    2    1    2    0    0  0.42781503527E+03 -0.15942595730E+03 -0.32084830698E+03  0.81932881869E+03  0.59992810967E+03 0.  0.
         23    2    4    4    0    0  0.20733008070E+03 -0.33766617368E+03 -0.32726454856E+03  0.52182944466E+03  0.90552069850E+02 0.  0.
         23    2    4    4    0    0  0.22048495457E+03  0.17824021638E+03  0.64162415864E+01  0.29749937403E+03  0.89897271724E+02 0.  0.
          5    1    3    3  502    0 -0.22144296479E+03  0.79910830095E+02 -0.49207921114E+03  0.54551513953E+03  0.47000000000E+01 0. -1.
         -5    1    3    3    0  502 -0.20637207049E+03  0.79515127209E+02 -0.23692579149E+03  0.32414195595E+03  0.47000000000E+01 0.  1.
         13    1    5    5    0    0  0.21089681769E+02 -0.91658562648E+02 -0.47679498934E+02  0.10544857231E+03  0.00000000000E+00 0.  1.
        -13    1    5    5    0    0  0.18624039893E+03 -0.24600761104E+03 -0.27958504963E+03  0.41638087235E+03  0.00000000000E+00 0. -1.
          1    1    6    6  503    0  0.18002925948E+03  0.10111080796E+03 -0.17384727968E+02  0.20721042088E+03  0.00000000000E+00 0. -1.
         -1    1    6    6    0  503  0.40455695087E+02  0.77129408417E+02  0.23800969554E+02  0.90288953142E+02  0.00000000000E+00 0.  1.
<mgrwt>
<rscale>  0 0.57643009E+03</rscale>
<asrwt>0</asrwt>
<pdfrwt beam="1">  1        2 0.21067994E+00 0.57643009E+03</pdfrwt>
<pdfrwt beam="2">  1       -2 0.49164046E-01 0.57643009E+03</pdfrwt>
<totfact> 0.61308202E+01</totfact>
</mgrwt>
</event>
<event>
12    1  0.3203156E-008  0.1352647E+04  0.7818608E-02  0.8988827E-01
          2   -1    0    0  501    0  0.00000000000E+00  0.00000000000E+00  0.16459494859E+04  0.16459494859E+04  0.00000000000E+00 0. -1.
         -2   -1    0    0    0  501 -0.00000000000E+00 -0.00000000000E+00 -0.13564414016E+04  0.13564414016E+04  0.00000000000E+00 0.  1.
         23    2    1    2    0    0  0.81886314925E+03 -0.10238643312E+04 -0.44079638429E+03  0.13861265602E+04  0.90611051250E+02 0.  0.
    5000000    2    1    2    0    0 -0.81886314925E+03  0.10238643312E+04  0.73030446856E+03  0.16162643274E+04  0.60010893452E+03 0.  0.
         23    2    4    4    0    0 -0.83436226837E+03  0.10519857050E+04  0.68804831043E+03  0.15114420978E+04  0.90622397998E+02 0.  0.
         23    2    4    4    0    0  0.15499119117E+02 -0.28121373809E+02  0.42256158126E+02  0.10482222962E+03  0.90394040532E+02 0.  0.
          5    1    3    3  502    0  0.57031607763E+03 -0.77483384325E+03 -0.31223575841E+03  0.10115044102E+04  0.47000000000E+01 0. -1.
         -5    1    3    3    0  502  0.24854707162E+03 -0.24903048792E+03 -0.12856062588E+03  0.37462214997E+03  0.47000000000E+01 0.  1.
         13    1    5    5    0    0 -0.52356165828E+03  0.69572329550E+03  0.40380038866E+03  0.95979292965E+03  0.00000000000E+00 0. -1.
        -13    1    5    5    0    0 -0.31080061009E+03  0.35626240948E+03  0.28424792178E+03  0.55164916811E+03  0.00000000000E+00 0.  1.
          1    1    6    6  503    0 -0.17709129441E+01 -0.30353312581E+02 -0.22462085970E+02  0.37802182786E+02  0.00000000000E+00 0. -1.
         -1    1    6    6    0  503  0.17270032061E+02  0.22319387719E+01  0.64718244097E+02  0.67020046829E+02  0.00000000000E+00 0.  1.
<mgrwt>
<rscale>  0 0.13526467E+04</rscale>
<asrwt>0</asrwt>
<pdfrwt beam="1">  1        2 0.25322300E+00 0.13526467E+04</pdfrwt>
<pdfrwt beam="2">  1       -2 0.20868329E+00 0.13526467E+04</pdfrwt>
<totfact> 0.11711020E+00</totfact>
</mgrwt>
</event>
<event>
12    1  0.3203156E-008  0.1116977E+04  0.7818608E-02  0.9188801E-01
         -2   -1    0    0    0  501 -0.00000000000E+00  0.00000000000E+00  0.22672523430E+04  0.22672523430E+04  0.00000000000E+00 0.  1.
          2   -1    0    0  501    0  0.00000000000E+00 -0.00000000000E+00 -0.69275722006E+03  0.69275722006E+03  0.00000000000E+00 0. -1.
         23    2    1    2    0    0  0.10394419982E+04 -0.23373622849E+03  0.14542199846E+03  0.10791790664E+04  0.91693007948E+02 0.  0.
    5000000    2    1    2    0    0 -0.10394419982E+04  0.23373622849E+03  0.14290731244E+04  0.18808304966E+04  0.60016753493E+03 0.  0.
         23    2    4    4    0    0 -0.79667896161E+03  0.36892696894E+03  0.12750562929E+04  0.15509059239E+04  0.93467419403E+02 0.  0.
         23    2    4    4    0    0 -0.24276303654E+03 -0.13519074045E+03  0.15401683155E+03  0.32992457271E+03  0.88986578004E+02 0.  0.
          5    1    3    3  502    0  0.64680576368E+03 -0.13469017034E+03  0.46639359939E+02  0.66234164735E+03  0.47000000000E+01 0. -1.
         -5    1    3    3    0  502  0.39263623447E+03 -0.99046058147E+02  0.98782638525E+02  0.41683741906E+03  0.47000000000E+01 0.  1.
         13    1    5    5    0    0 -0.43468083256E+03  0.19545832975E+03  0.61025630212E+03  0.77431527115E+03  0.00000000000E+00 0. -1.
        -13    1    5    5    0    0 -0.36199812905E+03  0.17346863919E+03  0.66479999076E+03  0.77659065274E+03  0.00000000000E+00 0.  1.
          1    1    6    6  503    0 -0.21664570214E+03 -0.83162662112E+02  0.10926559590E+03  0.25649631396E+03  0.00000000000E+00 0. -1.
         -1    1    6    6    0  503 -0.26117334400E+02 -0.52028078336E+02  0.44751235656E+02  0.73428258757E+02  0.00000000000E+00 0.  1.
<mgrwt>
<rscale>  0 0.11169772E+04</rscale>
<asrwt>0</asrwt>
<pdfrwt beam="1">  1        2 0.10657803E+00 0.11169772E+04</pdfrwt>
<pdfrwt beam="2">  1       -2 0.34880805E+00 0.11169772E+04</pdfrwt>
<totfact> 0.65512613E-01</totfact>
</mgrwt>
</event>
<event>
12    1  0.3203156E-008  0.5776831E+03  0.7818608E-02  0.9952820E-01
          2   -1    0    0  501    0  0.00000000000E+00  0.00000000000E+00  0.19249153922E+04  0.19249153922E+04  0.00000000000E+00 0. -1.
         -2   -1    0    0    0  501 -0.00000000000E+00 -0.00000000000E+00 -0.28082000756E+03  0.28082000756E+03  0.00000000000E+00 0.  1.
         23    2    1    2    0    0  0.13365898910E+03 -0.40833737207E+03  0.41892841532E+02  0.44173805928E+03  0.93666258893E+02 0.  0.
    5000000    2    1    2    0    0 -0.13365898910E+03  0.40833737207E+03  0.16022025431E+04  0.17639973405E+04  0.60002457722E+03 0.  0.
         23    2    4    4    0    0  0.15852377916E+03 -0.39324399605E+02  0.29597506656E+03  0.34974290218E+03  0.89680882243E+02 0.  0.
         23    2    4    4    0    0 -0.29218276826E+03  0.44766177167E+03  0.13062274766E+04  0.14142544383E+04  0.90075323189E+02 0.  0.
          5    1    3    3  502    0  0.76787120215E+02 -0.13598866552E+03  0.47872871371E+02  0.16341077319E+03  0.47000000000E+01 0. -1.
         -5    1    3    3    0  502  0.56871868885E+02 -0.27234870655E+03 -0.59800298393E+01  0.27832728610E+03  0.47000000000E+01 0.  1.
         13    1    5    5    0    0  0.83319113653E+02 -0.66070234689E+02  0.17652586074E+03  0.20607942673E+03  0.00000000000E+00 0.  1.
        -13    1    5    5    0    0  0.75204665509E+02  0.26745835083E+02  0.11944920581E+03  0.14366347545E+03  0.00000000000E+00 0. -1.
          1    1    6    6  503    0 -0.19441806929E+02  0.24704999244E+02  0.35079457131E+02  0.47105086317E+02  0.00000000000E+00 0. -1.
         -1    1    6    6    0  503 -0.27274096133E+03  0.42295677243E+03  0.12711480194E+04  0.13671493520E+04  0.00000000000E+00 0.  1.
<mgrwt>
<rscale>  0 0.57768306E+03</rscale>
<asrwt>0</asrwt>
<pdfrwt beam="1">  1        2 0.29614082E+00 0.57768306E+03</pdfrwt>
<pdfrwt beam="2">  1       -2 0.43203079E-01 0.57768306E+03</pdfrwt>
<totfact> 0.39424655E+01</totfact>
</mgrwt>
</event>
<event>
12    1  0.4368378E-008  0.7278259E+03  0.7818608E-02  0.9670795E-01
         -2   -1    0    0    0  501 -0.00000000000E+00  0.00000000000E+00  0.54024494041E+03  0.54024494041E+03  0.00000000000E+00 0.  1.
          2   -1    0    0  501    0  0.00000000000E+00 -0.00000000000E+00 -0.14465657741E+04  0.14465657741E+04  0.00000000000E+00 0. -1.
         23    2    1    2    0    0  0.71303439932E+03  0.87772159475E+02 -0.74182337288E+03  0.10364622356E+04  0.88487528020E+02 0.  0.
    5000000    2    1    2    0    0 -0.71303439932E+03 -0.87772159475E+02 -0.16449746076E+03  0.95034847889E+03  0.59998400825E+03 0.  0.
         23    2    4    4    0    0 -0.24466182266E+03 -0.66738164527E+02  0.21082161298E+03  0.34258811744E+03  0.92776482152E+02 0.  0.
         23    2    4    4    0    0 -0.46837257666E+03 -0.21033994948E+02 -0.37531907374E+03  0.60776036145E+03  0.93235992679E+02 0.  0.
          5    1    3    3  502    0  0.29025750408E+03  0.33361407196E+02 -0.36451148403E+03  0.46717567804E+03  0.47000000000E+01 0. -1.
         -5    1    3    3    0  502  0.42277689524E+03  0.54410752278E+02 -0.37731188886E+03  0.56928655753E+03  0.47000000000E+01 0.  1.
         11    1    5    5    0    0 -0.10314451948E+03 -0.73434844589E+02  0.11899578424E+03  0.17375691343E+03  0.00000000000E+00 0.  1.
        -11    1    5    5    0    0 -0.14151730318E+03  0.66966800623E+01  0.91825828738E+02  0.16883120401E+03  0.00000000000E+00 0. -1.
          3    1    6    6  503    0 -0.32175070620E+03 -0.12434402943E+02 -0.19999824998E+03  0.37904805937E+03  0.00000000000E+00 0. -1.
         -3    1    6    6    0  503 -0.14662187045E+03 -0.85995920045E+01 -0.17532082377E+03  0.22871230208E+03  0.00000000000E+00 0.  1.
<mgrwt>
<rscale>  0 0.72782590E+03</rscale>
<asrwt>0</asrwt>
<pdfrwt beam="1">  1        2 0.22254858E+00 0.72782590E+03</pdfrwt>
<pdfrwt beam="2">  1       -2 0.83114605E-01 0.72782590E+03</pdfrwt>
<totfact> 0.17706807E+01</totfact>
</mgrwt>
</event>
<event>
12    1  0.3203156E-008  0.3604911E+03  0.7818608E-02  0.1058390E+00
         -3   -1    0    0    0  501 -0.00000000000E+00  0.00000000000E+00  0.81302619063E+03  0.81302619063E+03  0.00000000000E+00 0.  1.
          3   -1    0    0  501    0  0.00000000000E+00 -0.00000000000E+00 -0.12295469350E+04  0.12295469350E+04  0.00000000000E+00 0. -1.
         23    2    1    2    0    0  0.16014549673E+02  0.27248648650E+03 -0.10737943393E+04  0.11117851192E+04  0.92339140894E+02 0.  0.
    5000000    2    1    2    0    0 -0.16014549673E+02 -0.27248648650E+03  0.65727359500E+03  0.93078800641E+03  0.59987697327E+03 0.  0.
         23    2    4    4    0    0  0.99783885100E+02  0.85905411594E+01 -0.58806376142E+02  0.14775161456E+03  0.91333064147E+02 0.  0.
         23    2    4    4    0    0 -0.11579843477E+03 -0.28107702766E+03  0.71607997114E+03  0.78303639185E+03  0.89229439729E+02 0.  0.
          5    1    3    3  502    0  0.22922741272E+02  0.22723624658E+03 -0.72953161479E+03  0.76446074511E+03  0.47000000000E+01 0. -1.
         -5    1    3    3    0  502 -0.69081915992E+01  0.45250239921E+02 -0.34426272455E+03  0.34732437409E+03  0.47000000000E+01 0.  1.
         13    1    5    5    0    0  0.91915715038E+02 -0.24986255583E+02 -0.22898168611E+02  0.97964982339E+02  0.00000000000E+00 0. -1.
        -13    1    5    5    0    0  0.78681700620E+01  0.33576796742E+02 -0.35908207531E+02  0.49786632219E+02  0.00000000000E+00 0.  1.
          4    1    6    6  503    0  0.58671066881E+01 -0.90496851784E+02  0.20019681332E+03  0.21977913274E+03  0.00000000000E+00 0. -1.
         -4    1    6    6    0  503 -0.12166554146E+03 -0.19058017587E+03  0.51588315782E+03  0.56325725911E+03  0.00000000000E+00 0.  1.
<mgrwt>
<rscale>  0 0.36049110E+03</rscale>
<asrwt>0</asrwt>
<pdfrwt beam="1">  1        3 0.18916107E+00 0.36049110E+03</pdfrwt>
<pdfrwt beam="2">  1       -3 0.12508095E+00 0.36049110E+03</pdfrwt>
<totfact> 0.23867138E-01</totfact>
</mgrwt>
</event>
<event>
12    1  0.3203156E-008  0.6233191E+03  0.7818608E-02  0.9858174E-01
         -2   -1    0    0    0  501 -0.00000000000E+00  0.00000000000E+00  0.69071922212E+03  0.69071922212E+03  0.00000000000E+00 0. -1.
          2   -1    0    0  501    0  0.00000000000E+00 -0.00000000000E+00 -0.12398422342E+04  0.12398422342E+04  0.00000000000E+00 0.  1.
         23    2    1    2    0    0  0.40854403899E+03  0.38981291086E+03 -0.87424009419E+03  0.10448083470E+04  0.92013055938E+02 0.  0.
    5000000    2    1    2    0    0 -0.40854403899E+03 -0.38981291086E+03  0.32511708213E+03  0.88575310928E+03  0.59999593019E+03 0.  0.
         23    2    4    4    0    0 -0.14212008316E+03  0.55939723000E+02  0.31165455233E+03  0.35880358776E+03  0.91016943213E+02 0.  0.
         23    2    4    4    0    0 -0.26642395583E+03 -0.44575263386E+03  0.13462529795E+02  0.52694952152E+03  0.88416195892E+02 0.  0.
          5    1    3    3  502    0  0.20892296280E+03  0.19395554318E+03 -0.52447413523E+03  0.59696127650E+03  0.47000000000E+01 0. -1.
         -5    1    3    3    0  502  0.19962107619E+03  0.19585736767E+03 -0.34976595896E+03  0.44784707053E+03  0.47000000000E+01 0.  1.
         13    1    5    5    0    0 -0.83006814859E+02  0.46997591806E+02  0.97260315064E+02  0.13622948959E+03  0.00000000000E+00 0.  1.
        -13    1    5    5    0    0 -0.59113268296E+02  0.89421311939E+01  0.21439423727E+03  0.22257409816E+03  0.00000000000E+00 0. -1.
          4    1    6    6  503    0 -0.24152009731E+03 -0.33409334619E+03  0.15259207146E+02  0.41253262268E+03  0.00000000000E+00 0. -1.
         -4    1    6    6    0  503 -0.24903858518E+02 -0.11165928766E+03 -0.17966773511E+01  0.11441689884E+03  0.00000000000E+00 0.  1.
<mgrwt>
<rscale>  0 0.62331905E+03</rscale>
<asrwt>0</asrwt>
<pdfrwt beam="1">  1        2 0.19074496E+00 0.62331905E+03</pdfrwt>
<pdfrwt beam="2">  1       -2 0.10626450E+00 0.62331905E+03</pdfrwt>
<totfact> 0.13289639E+01</totfact>
</mgrwt>
</event>
<event>
12    1  0.3203156E-008  0.1118282E+04  0.7818608E-02  0.9187554E-01
         -2   -1    0    0    0  501 -0.00000000000E+00  0.00000000000E+00  0.61537889258E+03  0.61537889258E+03  0.00000000000E+00 0.  1.
          2   -1    0    0  501    0  0.00000000000E+00 -0.00000000000E+00 -0.23631037887E+04  0.23631037887E+04  0.00000000000E+00 0. -1.
         23    2    1    2    0    0 -0.87238283873E+03 -0.61343847493E+03 -0.36181829845E+03  0.11296392136E+04  0.88395090807E+02 0.  0.
    5000000    2    1    2    0    0  0.87238283873E+03  0.61343847493E+03 -0.13859065977E+04  0.18488434677E+04  0.60010539956E+03 0.  0.
         23    2    4    4    0    0  0.77467349324E+03  0.29169505884E+03 -0.73608658522E+03  0.11114579057E+04  0.91160226042E+02 0.  0.
         23    2    4    4    0    0  0.97709345490E+02  0.32174341608E+03 -0.64982001249E+03  0.73738556194E+03  0.91681384892E+02 0.  0.
          5    1    3    3  502    0 -0.13617771612E+03 -0.63541784822E+02 -0.66883482144E+02  0.16455217705E+03  0.47000000000E+01 0. -1.
         -5    1    3    3    0  502 -0.73620512260E+03 -0.54989669010E+03 -0.29493481631E+03  0.96508703660E+03  0.47000000000E+01 0.  1.
         11    1    5    5    0    0  0.54350820034E+03  0.19807960668E+03 -0.56789726953E+03  0.81064419023E+03  0.00000000000E+00 0. -1.
        -11    1    5    5    0    0  0.23116529290E+03  0.93615452164E+02 -0.16818931569E+03  0.30081371551E+03  0.00000000000E+00 0.  1.
          3    1    6    6  503    0  0.81326834923E+02  0.19012458302E+03 -0.47403800554E+03  0.51717834626E+03  0.00000000000E+00 0. -1.
         -3    1    6    6    0  503  0.16382510567E+02  0.13161883306E+03 -0.17578200695E+03  0.22020721568E+03  0.00000000000E+00 0.  1.
<mgrwt>
<rscale>  0 0.11182824E+04</rscale>
<asrwt>0</asrwt>
<pdfrwt beam="1">  1        2 0.36355443E+00 0.11182824E+04</pdfrwt>
<pdfrwt beam="2">  1       -2 0.94673675E-01 0.11182824E+04</pdfrwt>
<totfact> 0.38890084E+00</totfact>
</mgrwt>
</event>
<event>
12    1  0.3203156E-008  0.1332548E+04  0.7818608E-02  0.9004145E-01
         -1   -1    0    0    0  501 -0.00000000000E+00  0.00000000000E+00  0.77313086924E+03  0.77313086924E+03  0.00000000000E+00 0.  1.
          1   -1    0    0  501    0  0.00000000000E+00 -0.00000000000E+00 -0.23749263543E+04  0.23749263543E+04  0.00000000000E+00 0. -1.
         23    2    1    2    0    0  0.12736982893E+04  0.74841910540E+02 -0.95800667415E+03  0.15981213165E+04  0.91138964675E+02 0.  0.
    5000000    2    1    2    0    0 -0.12736982893E+04 -0.74841910540E+02 -0.64378881093E+03  0.15499359070E+04  0.59994052975E+03 0.  0.
         23    2    4    4    0    0 -0.11576056104E+04 -0.23656099075E+03 -0.49351713378E+03  0.12835699074E+04  0.89334731305E+02 0.  0.
         23    2    4    4    0    0 -0.11609267882E+03  0.16171908021E+03 -0.15027167715E+03  0.26636599963E+03  0.93481002491E+02 0.  0.
          5    1    3    3  502    0  0.95849057272E+03  0.17201487128E+02 -0.72192153465E+03  0.12000803562E+04  0.47000000000E+01 0. -1.
         -5    1    3    3    0  502  0.31520771654E+03  0.57640423412E+02 -0.23608513950E+03  0.39804096030E+03  0.47000000000E+01 0.  1.
         11    1    5    5    0    0 -0.32843711762E+03 -0.39815445028E+02 -0.17071872915E+03  0.37229167917E+03  0.00000000000E+00 0. -1.
        -11    1    5    5    0    0 -0.82916849283E+03 -0.19674554572E+03 -0.32279840462E+03  0.91127822825E+03  0.00000000000E+00 0.  1.
          3    1    6    6  503    0 -0.10493328575E+03  0.11841192223E+03 -0.15488290030E+03  0.22140706987E+03  0.00000000000E+00 0. -1.
         -3    1    6    6    0  503 -0.11159393063E+02  0.43307157980E+02  0.46112231495E+01  0.44958929756E+02  0.00000000000E+00 0.  1.
<mgrwt>
<rscale>  0 0.13325480E+04</rscale>
<asrwt>0</asrwt>
<pdfrwt beam="1">  1        1 0.36537328E+00 0.13325480E+04</pdfrwt>
<pdfrwt beam="2">  1       -1 0.11894321E+00 0.13325480E+04</pdfrwt>
<totfact> 0.10160235E+00</totfact>
</mgrwt>
</event>
<event>
12    1  0.4424801E-008  0.1376727E+04  0.7818608E-02  0.8970839E-01
         -2   -1    0    0    0  501 -0.00000000000E+00  0.00000000000E+00  0.10874764443E+04  0.10874764443E+04  0.00000000000E+00 0.  1.
          2   -1    0    0  501    0  0.00000000000E+00 -0.00000000000E+00 -0.21054938924E+04  0.21054938924E+04  0.00000000000E+00 0. -1.
         23    2    1    2    0    0 -0.26804022699E+03  0.13073433215E+04 -0.10953887905E+04  0.17276656993E+04  0.62928868360E+02 0.  0.
    5000000    2    1    2    0    0  0.26804022699E+03 -0.13073433215E+04  0.77371342404E+02  0.14653046374E+04  0.60011601576E+03 0.  0.
         23    2    4    4    0    0 -0.58749300598E+02 -0.81754155736E+03  0.21716477888E+03  0.85305586406E+03  0.93370700414E+02 0.  0.
         23    2    4    4    0    0  0.32678952759E+03 -0.48980176411E+03 -0.13979343648E+03  0.61224877337E+03  0.92785732410E+02 0.  0.
          5    1    3    3  502    0 -0.82098892602E+02  0.27444538411E+03 -0.23749520078E+03  0.37213782046E+03  0.47000000000E+01 0. -1.
         -5    1    3    3    0  502 -0.18594133439E+03  0.10328979374E+04 -0.85789358976E+03  0.13555278788E+04  0.47000000000E+01 0.  1.
         13    1    5    5    0    0 -0.54869146505E+02 -0.21501811716E+03  0.45258608614E+02  0.22647683236E+03  0.00000000000E+00 0. -1.
        -13    1    5    5    0    0 -0.38801540925E+01 -0.60252344020E+03  0.17190617027E+03  0.62657903170E+03  0.00000000000E+00 0.  1.
          4    1    6    6  503    0  0.14716504723E+03 -0.28375934849E+03 -0.44323607288E+02  0.32270962357E+03  0.00000000000E+00 0. -1.
         -4    1    6    6    0  503  0.17962448036E+03 -0.20604241562E+03 -0.95469829192E+02  0.28953914980E+03  0.00000000000E+00 0.  1.
<mgrwt>
<rscale>  0 0.13767273E+04</rscale>
<asrwt>0</asrwt>
<pdfrwt beam="1">  1        2 0.32392213E+00 0.13767273E+04</pdfrwt>
<pdfrwt beam="2">  1       -2 0.16730407E+00 0.13767273E+04</pdfrwt>
<totfact> 0.12400443E+00</totfact>
</mgrwt>
</event>
<event>
12    1  0.3203156E-008  0.1382864E+04  0.7818608E-02  0.8966317E-01
          2   -1    0    0  501    0  0.00000000000E+00  0.00000000000E+00  0.31696561899E+04  0.31696561899E+04  0.00000000000E+00 0.  1.
         -2   -1    0    0    0  501 -0.00000000000E+00 -0.00000000000E+00 -0.75512177859E+03  0.75512177859E+03  0.00000000000E+00 0. -1.
         23    2    1    2    0    0 -0.13342830849E+04  0.30092085126E+03  0.19043705989E+04  0.23464698145E+04  0.91806879694E+02 0.  0.
    5000000    2    1    2    0    0  0.13342830849E+04 -0.30092085126E+03  0.51016381248E+03  0.15783081540E+04  0.59993733364E+03 0.  0.
         23    2    4    4    0    0  0.10151624363E+04 -0.32468652864E+03  0.13882590348E+03  0.10786535572E+04  0.90800612207E+02 0.  0.
         23    2    4    4    0    0  0.31912064859E+03  0.23765677377E+02  0.37133790900E+03  0.49965459680E+03  0.96747494407E+02 0.  0.
          5    1    3    3  502    0 -0.32087187750E+03  0.54874444301E+02  0.51454948421E+03  0.60889508793E+03  0.47000000000E+01 0. -1.
         -5    1    3    3    0  502 -0.10134112074E+04  0.24604640696E+03  0.13898211146E+04  0.17375747265E+04  0.47000000000E+01 0.  1.
         13    1    5    5    0    0  0.54647765353E+03 -0.13690561001E+03  0.10087989213E+03  0.57232658901E+03  0.00000000000E+00 0.  1.
        -13    1    5    5    0    0  0.46868478275E+03 -0.18778091863E+03  0.37946011353E+02  0.50632696823E+03  0.00000000000E+00 0. -1.
          1    1    6    6  503    0  0.19950123910E+03  0.51914168796E+02  0.27400213097E+03  0.34288918487E+03  0.00000000000E+00 0. -1.
         -1    1    6    6    0  503  0.11961940948E+03 -0.28148491419E+02  0.97335778024E+02  0.15676541193E+03  0.00000000000E+00 0.  1.
<mgrwt>
<rscale>  0 0.13828639E+04</rscale>
<asrwt>0</asrwt>
<pdfrwt beam="1">  1        2 0.48763941E+00 0.13828639E+04</pdfrwt>
<pdfrwt beam="2">  1       -2 0.11617258E+00 0.13828639E+04</pdfrwt>
<totfact> 0.75566699E-01</totfact>
</mgrwt>
</event>
<event>
12    1  0.3203156E-008  0.1322064E+04  0.7818608E-02  0.9012249E-01
         -2   -1    0    0    0  501 -0.00000000000E+00  0.00000000000E+00  0.78705467665E+03  0.78705467665E+03  0.00000000000E+00 0.  1.
          2   -1    0    0  501    0  0.00000000000E+00 -0.00000000000E+00 -0.23401715062E+04  0.23401715062E+04  0.00000000000E+00 0. -1.
         23    2    1    2    0    0 -0.23535251302E+02 -0.12733500155E+04 -0.96959891807E+03  0.16033311658E+04  0.92599109374E+02 0.  0.
    5000000    2    1    2    0    0  0.23535251302E+02  0.12733500155E+04 -0.58351791153E+03  0.15238950171E+04  0.59982389089E+03 0.  0.
         23    2    4    4    0    0 -0.14531908822E+03  0.10996358225E+04 -0.60183271258E+03  0.12652841072E+04  0.91786047003E+02 0.  0.
         23    2    4    4    0    0  0.16885433952E+03  0.17371419302E+03  0.18314801048E+02  0.25861090995E+03  0.88632736482E+02 0.  0.
          5    1    3    3  502    0 -0.11493519148E+02 -0.37483560637E+03 -0.23415260159E+03  0.44213500609E+03  0.47000000000E+01 0. -1.
         -5    1    3    3    0  502 -0.12041732154E+02 -0.89851440916E+03 -0.73544631648E+03  0.11611961597E+04  0.47000000000E+01 0.  1.
         11    1    5    5    0    0 -0.13804850405E+03  0.73746199500E+03 -0.38856861443E+03  0.84492197963E+03  0.00000000000E+00 0.  1.
        -11    1    5    5    0    0 -0.72705841735E+01  0.36217382750E+03 -0.21326409814E+03  0.42036212755E+03  0.00000000000E+00 0. -1.
          3    1    6    6  503    0  0.14900906079E+03  0.18304808474E+03  0.16906305381E+02  0.23663500309E+03  0.00000000000E+00 0. -1.
         -3    1    6    6    0  503  0.19845278736E+02 -0.93338917159E+01  0.14084956671E+01  0.21975906869E+02  0.00000000000E+00 0.  1.
<mgrwt>
<rscale>  0 0.13220641E+04</rscale>
<asrwt>0</asrwt>
<pdfrwt beam="1">  1        2 0.36002638E+00 0.13220641E+04</pdfrwt>
<pdfrwt beam="2">  1       -2 0.12108534E+00 0.13220641E+04</pdfrwt>
<totfact> 0.21569806E+00</totfact>
</mgrwt>
</event>
<event>
12    1  0.3203156E-008  0.8919236E+03  0.7818608E-02  0.9435734E-01
         -2   -1    0    0    0  501 -0.00000000000E+00  0.00000000000E+00  0.11580241507E+04  0.11580241507E+04  0.00000000000E+00 0. -1.
          2   -1    0    0  501    0  0.00000000000E+00 -0.00000000000E+00 -0.81699147864E+03  0.81699147864E+03  0.00000000000E+00 0.  1.
         23    2    1    2    0    0 -0.28563914761E+03  0.82637959041E+03  0.22986040896E+03  0.90873222869E+03  0.92008183060E+02 0.  0.
    5000000    2    1    2    0    0  0.28563914761E+03 -0.82637959041E+03  0.11117226308E+03  0.10662834006E+04  0.60009005016E+03 0.  0.
         23    2    4    4    0    0  0.53984097402E+01 -0.31991718618E+03  0.30275261628E+03  0.45017813650E+03  0.92871196175E+02 0.  0.
         23    2    4    4    0    0  0.28024073787E+03 -0.50646240424E+03 -0.19158035320E+03  0.61610526414E+03  0.88564251837E+02 0.  0.
          5    1    3    3  502    0 -0.20148390934E+03  0.62485091565E+03  0.13352756035E+03  0.66998965058E+03  0.47000000000E+01 0. -1.
         -5    1    3    3    0  502 -0.84155238274E+02  0.20152867476E+03  0.96332848610E+02  0.23874257811E+03  0.47000000000E+01 0.  1.
         13    1    5    5    0    0  0.31851059114E+02 -0.19030127441E+03  0.22629013049E+03  0.29738239384E+03  0.00000000000E+00 0. -1.
        -13    1    5    5    0    0 -0.26452649374E+02 -0.12961591177E+03  0.76462485793E+02  0.15279574266E+03  0.00000000000E+00 0.  1.
          2    1    6    6  503    0  0.27513861391E+03 -0.45369173666E+03 -0.18816966289E+03  0.56297892573E+03  0.00000000000E+00 0. -1.
         -2    1    6    6    0  503  0.51021239616E+01 -0.52770667576E+02 -0.34106903142E+01  0.53126338418E+02  0.00000000000E+00 0.  1.
<mgrwt>
<rscale>  0 0.89192362E+03</rscale>
<asrwt>0</asrwt>
<pdfrwt beam="1">  1        2 0.12569100E+00 0.89192362E+03</pdfrwt>
<pdfrwt beam="2">  1       -2 0.17815756E+00 0.89192362E+03</pdfrwt>
<totfact> 0.62700818E+00</totfact>
</mgrwt>
</event>
<event>
12    1  0.3203156E-008  0.1510339E+04  0.7818608E-02  0.8877606E-01
          1   -1    0    0  501    0  0.00000000000E+00  0.00000000000E+00  0.20001034861E+04  0.20001034861E+04  0.00000000000E+00 0. -1.
         -1   -1    0    0    0  501 -0.00000000000E+00 -0.00000000000E+00 -0.11862679161E+04  0.11862679161E+04  0.00000000000E+00 0.  1.
         23    2    1    2    0    0 -0.32810813396E+03 -0.14172123711E+04  0.67636558014E+03  0.16068147550E+04  0.90760158236E+02 0.  0.
    5000000    2    1    2    0    0  0.32810813396E+03  0.14172123711E+04  0.13746998984E+03  0.15795566472E+04  0.59996279156E+03 0.  0.
         23    2    4    4    0    0  0.26752015699E+03  0.18914173756E+03  0.44696735262E+02  0.34303328649E+03  0.91282014746E+02 0.  0.
         23    2    4    4    0    0  0.60587976976E+02  0.12280706336E+04  0.92773254574E+02  0.12365233608E+04  0.92491950456E+02 0.  0.
          5    1    3    3  502    0 -0.18180532009E+03 -0.97201130421E+03  0.45877497549E+03  0.10901172956E+04  0.47000000000E+01 0. -1.
         -5    1    3    3    0  502 -0.14630281387E+03 -0.44520106693E+03  0.21759060465E+03  0.51669745943E+03  0.47000000000E+01 0.  1.
         11    1    5    5    0    0  0.76189178332E+02  0.27911966433E+02  0.45090458876E+02  0.92827895843E+02  0.00000000000E+00 0.  1.
        -11    1    5    5    0    0  0.19133097866E+03  0.16122977112E+03 -0.39372361478E+00  0.25020539065E+03  0.00000000000E+00 0. -1.
          3    1    6    6  503    0  0.55900839442E+02  0.41790109841E+03  0.58004249727E+02  0.42559455459E+03  0.00000000000E+00 0. -1.
         -3    1    6    6    0  503  0.46871375342E+01  0.81016953517E+03  0.34769004848E+02  0.81092880617E+03  0.00000000000E+00 0.  1.
<mgrwt>
<rscale>  0 0.15103395E+04</rscale>
<asrwt>0</asrwt>
<pdfrwt beam="1">  1        1 0.30770823E+00 0.15103395E+04</pdfrwt>
<pdfrwt beam="2">  1       -1 0.18250276E+00 0.15103395E+04</pdfrwt>
<totfact> 0.56263446E-01</totfact>
</mgrwt>
</event>
<event>
12    1  0.3203156E-008  0.8585939E+03  0.7818608E-02  0.9478875E-01
          2   -1    0    0  501    0  0.00000000000E+00  0.00000000000E+00  0.17478437418E+04  0.17478437418E+04  0.00000000000E+00 0. -1.
         -2   -1    0    0    0  501 -0.00000000000E+00 -0.00000000000E+00 -0.51695593743E+03  0.51695593743E+03  0.00000000000E+00 0.  1.
         23    2    1    2    0    0 -0.68869692384E+03 -0.50301589193E+03  0.57354516448E+03  0.10321284388E+04  0.94903203950E+02 0.  0.
    5000000    2    1    2    0    0  0.68869692384E+03  0.50301589193E+03  0.65734263990E+03  0.12326712404E+04  0.60004216541E+03 0.  0.
         23    2    4    4    0    0  0.13757099399E+03  0.74768037145E+02 -0.93226056123E+02  0.20377367945E+03  0.91195269245E+02 0.  0.
         23    2    4    4    0    0  0.55112592985E+03  0.42824785479E+03  0.75056869603E+03  0.10288975610E+04  0.90226425215E+02 0.  0.
          5    1    3    3  502    0 -0.10259261898E+03 -0.49720389227E+02  0.48384978937E+02  0.12393772130E+03  0.47000000000E+01 0. -1.
         -5    1    3    3    0  502 -0.58610430486E+03 -0.45329550270E+03  0.52516018554E+03  0.90819071754E+03  0.47000000000E+01 0.  1.
         11    1    5    5    0    0  0.22846486305E+02  0.23832352920E+02 -0.68212915359E+02  0.75782219577E+02  0.00000000000E+00 0. -1.
        -11    1    5    5    0    0  0.11472450768E+03  0.50935684225E+02 -0.25013140764E+02  0.12799145988E+03  0.00000000000E+00 0.  1.
          2    1    6    6  503    0  0.47477967493E+03  0.40423788301E+03  0.65789494967E+03  0.90644898952E+03  0.00000000000E+00 0. -1.
         -2    1    6    6    0  503  0.76346254919E+02  0.24009971774E+02  0.92673746355E+02  0.12244857144E+03  0.00000000000E+00 0.  1.
<mgrwt>
<rscale>  0 0.85859388E+03</rscale>
<asrwt>0</asrwt>
<pdfrwt beam="1">  1        2 0.26889903E+00 0.85859388E+03</pdfrwt>
<pdfrwt beam="2">  1       -2 0.79531684E-01 0.85859388E+03</pdfrwt>
<totfact> 0.13113784E+01</totfact>
</mgrwt>
</event>
<event>
12    1  0.3203156E-008  0.8776177E+03  0.7818608E-02  0.9454001E-01
          2   -1    0    0  501    0  0.00000000000E+00  0.00000000000E+00  0.15111981560E+04  0.15111981560E+04  0.00000000000E+00 0. -1.
         -2   -1    0    0    0  501 -0.00000000000E+00 -0.00000000000E+00 -0.91756708322E+03  0.91756708322E+03  0.00000000000E+00 0.  1.
         23    2    1    2    0    0 -0.65027868569E+03  0.45282805055E+03  0.10634644563E+04  0.13293211832E+04  0.90678253582E+02 0.  0.
    5000000    2    1    2    0    0  0.65027868569E+03 -0.45282805055E+03 -0.46983338352E+03  0.10994440561E+04  0.60009850172E+03 0.  0.
         23    2    4    4    0    0  0.50676809536E+03 -0.56821334061E+03 -0.46397043837E+03  0.89613568399E+03  0.90057168032E+02 0.  0.
         23    2    4    4    0    0  0.14351059033E+03  0.11538529007E+03 -0.58629451537E+01  0.20330837210E+03  0.85970142126E+02 0.  0.
          5    1    3    3  502    0 -0.25022510438E+03  0.13964205634E+03  0.43906443020E+03  0.52432067538E+03  0.47000000000E+01 0. -1.
         -5    1    3    3    0  502 -0.40005358131E+03  0.31318599420E+03  0.62440002613E+03  0.80500050778E+03  0.47000000000E+01 0.  1.
         11    1    5    5    0    0  0.33857748868E+03 -0.43423341643E+03 -0.31269383761E+03  0.63322256108E+03  0.00000000000E+00 0. -1.
        -11    1    5    5    0    0  0.16819060669E+03 -0.13397992419E+03 -0.15127660076E+03  0.26291312291E+03  0.00000000000E+00 0.  1.
          3    1    6    6  503    0  0.90609794629E+02  0.31897384538E+02 -0.31690475177E+02  0.10115267787E+03  0.00000000000E+00 0. -1.
         -3    1    6    6    0  503  0.52900795700E+02  0.83487905532E+02  0.25827530023E+02  0.10215569423E+03  0.00000000000E+00 0.  1.
<mgrwt>
<rscale>  0 0.87761769E+03</rscale>
<asrwt>0</asrwt>
<pdfrwt beam="1">  1        2 0.23249202E+00 0.87761769E+03</pdfrwt>
<pdfrwt beam="2">  1       -2 0.14116417E+00 0.87761769E+03</pdfrwt>
<totfact> 0.44320212E+00</totfact>
</mgrwt>
</event>
<event>
12    1  0.3203156E-008  0.3292764E+03  0.7818608E-02  0.1071457E+00
         -1   -1    0    0    0  501 -0.00000000000E+00  0.00000000000E+00  0.48722491435E+03  0.48722491435E+03  0.00000000000E+00 0.  1.
          1   -1    0    0  501    0  0.00000000000E+00 -0.00000000000E+00 -0.53955962861E+03  0.53955962861E+03  0.00000000000E+00 0. -1.
         23    2    1    2    0    0  0.16662005931E+02  0.28740842152E+03  0.14187555460E+03  0.33342614347E+03  0.90349858608E+02 0.  0.
    5000000    2    1    2    0    0 -0.16662005931E+02 -0.28740842152E+03 -0.19421026886E+03  0.69335839949E+03  0.60012250283E+03 0.  0.
         23    2    4    4    0    0 -0.33719056392E+02 -0.26736072574E+03 -0.38637893059E+03  0.48008422261E+03  0.92592928238E+02 0.  0.
         23    2    4    4    0    0  0.17057050462E+02 -0.20047695783E+02  0.19216866173E+03  0.21327417688E+03  0.88680476426E+02 0.  0.
          5    1    3    3  502    0  0.50809733873E+02  0.13620106857E+03  0.53813814889E+02  0.15508183907E+03  0.47000000000E+01 0. -1.
         -5    1    3    3    0  502 -0.34147727943E+02  0.15120735295E+03  0.88061739707E+02  0.17834430440E+03  0.47000000000E+01 0.  1.
         13    1    5    5    0    0 -0.77011459727E+01  0.55321371537E+01 -0.60112430862E+01  0.11227075943E+02  0.00000000000E+00 0. -1.
        -13    1    5    5    0    0 -0.26017910420E+02 -0.27289286290E+03 -0.38036768750E+03  0.46885714666E+03  0.00000000000E+00 0.  1.
          2    1    6    6  503    0 -0.25906803276E+02 -0.17708228405E+02  0.14920486752E+03  0.15246913229E+03  0.00000000000E+00 0. -1.
         -2    1    6    6    0  503  0.42963853738E+02 -0.23394673789E+01  0.42963794207E+02  0.60805044595E+02  0.00000000000E+00 0.  1.
<mgrwt>
<rscale>  0 0.32927643E+03</rscale>
<asrwt>0</asrwt>
<pdfrwt beam="1">  1        1 0.83009173E-01 0.32927643E+03</pdfrwt>
<pdfrwt beam="2">  1       -1 0.74957679E-01 0.32927643E+03</pdfrwt>
<totfact> 0.76206352E+01</totfact>
</mgrwt>
</event>
<event>
12    1  0.3203156E-008  0.9167306E+03  0.7818608E-02  0.9404906E-01
         -2   -1    0    0    0  501 -0.00000000000E+00  0.00000000000E+00  0.43320273481E+03  0.43320273481E+03  0.00000000000E+00 0.  1.
          2   -1    0    0  501    0  0.00000000000E+00 -0.00000000000E+00 -0.27210610862E+04  0.27210610862E+04  0.00000000000E+00 0. -1.
         23    2    1    2    0    0  0.89009969116E+03  0.19043245238E+03 -0.16623879585E+04  0.18973959141E+04  0.89641237074E+02 0.  0.
    5000000    2    1    2    0    0 -0.89009969116E+03 -0.19043245238E+03 -0.62547039286E+03  0.12568679068E+04  0.59996811892E+03 0.  0.
         23    2    4    4    0    0 -0.71447663830E+03 -0.11295964970E+03 -0.16170939709E+03  0.74717263228E+03  0.94235153694E+02 0.  0.
         23    2    4    4    0    0 -0.17562305286E+03 -0.77472802680E+02 -0.46376099577E+03  0.50969527453E+03  0.88710314130E+02 0.  0.
          5    1    3    3  502    0  0.44797414219E+03  0.12264508532E+03 -0.77197542524E+03  0.90093884154E+03  0.47000000000E+01 0. -1.
         -5    1    3    3    0  502  0.44212554897E+03  0.67787367055E+02 -0.89041253325E+03  0.99645707261E+03  0.47000000000E+01 0.  1.
         11    1    5    5    0    0 -0.12741177141E+03 -0.89518554175E+01 -0.64516918221E+02  0.14309552036E+03  0.00000000000E+00 0. -1.
        -11    1    5    5    0    0 -0.58706486689E+03 -0.10400779428E+03 -0.97192478872E+02  0.60407711193E+03  0.00000000000E+00 0.  1.
          4    1    6    6  503    0 -0.57486146869E+02 -0.19598776303E+01 -0.63950151565E+02  0.86012325206E+02  0.00000000000E+00 0. -1.
         -4    1    6    6    0  503 -0.11813690599E+03 -0.75512925050E+02 -0.39981084420E+03  0.42368294933E+03  0.00000000000E+00 0.  1.
<mgrwt>
<rscale>  0 0.91673064E+03</rscale>
<asrwt>0</asrwt>
<pdfrwt beam="1">  1        2 0.41862478E+00 0.91673064E+03</pdfrwt>
<pdfrwt beam="2">  1       -2 0.66646575E-01 0.91673064E+03</pdfrwt>
<totfact> 0.54847842E+00</totfact>
</mgrwt>
</event>
<event>
12    1  0.3203156E-008  0.7404264E+03  0.7818608E-02  0.9650491E-01
         -2   -1    0    0    0  501 -0.00000000000E+00  0.00000000000E+00  0.10276628771E+04  0.10276628771E+04  0.00000000000E+00 0.  1.
          2   -1    0    0  501    0  0.00000000000E+00 -0.00000000000E+00 -0.11605379855E+04  0.11605379855E+04  0.00000000000E+00 0. -1.
         23    2    1    2    0    0 -0.62311073122E+03 -0.13216988719E+03  0.72042951659E+03  0.96599459015E+03  0.91602387457E+02 0.  0.
    5000000    2    1    2    0    0  0.62311073122E+03  0.13216988719E+03 -0.85330462491E+03  0.12222062724E+04  0.59993626918E+03 0.  0.
         23    2    4    4    0    0  0.62280102627E+03  0.26830729523E+03 -0.79521255697E+03  0.10491523786E+04  0.92129147493E+02 0.  0.
         23    2    4    4    0    0  0.30970494856E+00 -0.13613740804E+03 -0.58092067943E+02  0.17305389382E+03  0.89663102911E+02 0.  0.
          5    1    3    3  502    0 -0.29590161139E+03 -0.45166901618E+02  0.40161632305E+03  0.50091473682E+03  0.47000000000E+01 0. -1.
         -5    1    3    3    0  502 -0.32720911983E+03 -0.87002985576E+02  0.31881319354E+03  0.46507985333E+03  0.47000000000E+01 0.  1.
         11    1    5    5    0    0  0.40731850847E+03  0.12693086280E+03 -0.49820797631E+03  0.65591996381E+03  0.00000000000E+00 0.  1.
        -11    1    5    5    0    0  0.21548251780E+03  0.14137643243E+03 -0.29700458066E+03  0.39323241481E+03  0.00000000000E+00 0. -1.
          3    1    6    6  503    0  0.10676792022E+02  0.84145497045E+01 -0.18244751868E+02  0.22752351644E+02  0.00000000000E+00 0. -1.
         -3    1    6    6    0  503 -0.10367087074E+02 -0.14455195774E+03 -0.39847316074E+02  0.15030154218E+03  0.00000000000E+00 0.  1.
<mgrwt>
<rscale>  0 0.74042637E+03</rscale>
<asrwt>0</asrwt>
<pdfrwt beam="1">  1        2 0.17854431E+00 0.74042637E+03</pdfrwt>
<pdfrwt beam="2">  1       -2 0.15810198E+00 0.74042637E+03</pdfrwt>
<totfact> 0.53237259E+00</totfact>
</mgrwt>
</event>
<event>
12    1  0.3203156E-008  0.8238637E+03  0.7818608E-02  0.9526104E-01
         -1   -1    0    0    0  501 -0.00000000000E+00  0.00000000000E+00  0.33853387387E+03  0.33853387387E+03  0.00000000000E+00 0.  1.
          1   -1    0    0  501    0  0.00000000000E+00 -0.00000000000E+00 -0.26025133774E+04  0.26025133774E+04  0.00000000000E+00 0. -1.
         23    2    1    2    0    0 -0.75268501469E+03 -0.24145448156E+03 -0.14639448932E+04  0.16662625653E+04  0.91985260102E+02 0.  0.
    5000000    2    1    2    0    0  0.75268501469E+03  0.24145448156E+03 -0.80003461031E+03  0.12747846860E+04  0.60015466335E+03 0.  0.
         23    2    4    4    0    0  0.68989130756E+03  0.13912995665E+03 -0.85857883993E+03  0.11137988623E+04  0.89906174056E+02 0.  0.
         23    2    4    4    0    0  0.62793707129E+02  0.10232452491E+03  0.58544229619E+02  0.16098582372E+03  0.89864623547E+02 0.  0.
          5    1    3    3  502    0 -0.25948077786E+03 -0.11219110444E+03 -0.59518827324E+03  0.65892965376E+03  0.47000000000E+01 0. -1.
         -5    1    3    3    0  502 -0.49320423683E+03 -0.12926337712E+03 -0.86875661998E+03  0.10073329115E+04  0.47000000000E+01 0.  1.
         13    1    5    5    0    0  0.42212517020E+03  0.12607034874E+03 -0.50682156714E+03  0.67152921981E+03  0.00000000000E+00 0.  1.
        -13    1    5    5    0    0  0.26776613736E+03  0.13059607907E+02 -0.35175727279E+03  0.44226964246E+03  0.00000000000E+00 0. -1.
          1    1    6    6  503    0 -0.20648860171E+02  0.27560902498E+02  0.29247634968E+02  0.45181887124E+02  0.00000000000E+00 0. -1.
         -1    1    6    6    0  503  0.83442567300E+02  0.74763622408E+02  0.29296594651E+02  0.11580393660E+03  0.00000000000E+00 0.  1.
<mgrwt>
<rscale>  0 0.82386369E+03</rscale>
<asrwt>0</asrwt>
<pdfrwt beam="1">  1        1 0.40038665E+00 0.82386369E+03</pdfrwt>
<pdfrwt beam="2">  1       -1 0.52082137E-01 0.82386369E+03</pdfrwt>
<totfact> 0.44692691E+00</totfact>
</mgrwt>
</event>
<event>
12    1  0.3203156E-008  0.7440983E+03  0.7818608E-02  0.9644655E-01
         -1   -1    0    0    0  501 -0.00000000000E+00  0.00000000000E+00  0.36152919881E+03  0.36152919881E+03  0.00000000000E+00 0.  1.
          1   -1    0    0  501    0  0.00000000000E+00 -0.00000000000E+00 -0.18092783431E+04  0.18092783431E+04  0.00000000000E+00 0. -1.
         23    2    1    2    0    0  0.47237025145E+03 -0.45007292186E+03 -0.30834217266E+03  0.72715285485E+03  0.89314553318E+02 0.  0.
    5000000    2    1    2    0    0 -0.47237025145E+03  0.45007292186E+03 -0.11394069716E+04  0.14436546871E+04  0.60015941136E+03 0.  0.
         23    2    4    4    0    0  0.10279405556E+03  0.48015045216E+02 -0.37770659358E+03  0.40467752491E+03  0.90716954934E+02 0.  0.
         23    2    4    4    0    0 -0.57516430700E+03  0.40205787664E+03 -0.76170037807E+03  0.10389771622E+04  0.82592743782E+02 0.  0.
          5    1    3    3  502    0  0.46738599469E+03 -0.42680039321E+03 -0.28757894075E+03  0.69522081445E+03  0.47000000000E+01 0. -1.
         -5    1    3    3    0  502  0.49842567583E+01 -0.23272528641E+02 -0.20763231911E+02  0.31932040401E+02  0.47000000000E+01 0.  1.
         13    1    5    5    0    0  0.98829866456E+01  0.30556834677E+02 -0.28623090323E+02  0.43019470826E+02  0.00000000000E+00 0. -1.
        -13    1    5    5    0    0  0.92911068912E+02  0.17458210540E+02 -0.34908350326E+03  0.36165805409E+03  0.00000000000E+00 0.  1.
          2    1    6    6  503    0 -0.12489692785E+03  0.11881470559E+03 -0.22349938074E+03  0.28225546947E+03  0.00000000000E+00 0. -1.
         -2    1    6    6    0  503 -0.45026737915E+03  0.28324317105E+03 -0.53820099732E+03  0.75672169269E+03  0.00000000000E+00 0.  1.
<mgrwt>
<rscale>  0 0.74409828E+03</rscale>
<asrwt>0</asrwt>
<pdfrwt beam="1">  1        1 0.27835052E+00 0.74409828E+03</pdfrwt>
<pdfrwt beam="2">  1       -1 0.55619876E-01 0.74409828E+03</pdfrwt>
<totfact> 0.13676620E+01</totfact>
</mgrwt>
</event>
<event>
12    1  0.3203156E-008  0.1037197E+04  0.7818608E-02  0.9268663E-01
          2   -1    0    0  501    0  0.00000000000E+00  0.00000000000E+00  0.18087071666E+04  0.18087071666E+04  0.00000000000E+00 0. -1.
         -2   -1    0    0    0  501 -0.00000000000E+00 -0.00000000000E+00 -0.93305448671E+03  0.93305448671E+03  0.00000000000E+00 0.  1.
         23    2    1    2    0    0 -0.71456693165E+03  0.65411847383E+03 -0.38142432277E+03  0.10452212741E+04  0.92336992741E+02 0.  0.
    5000000    2    1    2    0    0  0.71456693165E+03 -0.65411847383E+03  0.12570770027E+04  0.16965403792E+04  0.59960803034E+03 0.  0.
         23    2    4    4    0    0  0.54338047270E+02 -0.36646533671E+03  0.63168245183E+03  0.73840201851E+03  0.94685556446E+02 0.  0.
         23    2    4    4    0    0  0.66022888438E+03 -0.28765313713E+03  0.62539455083E+03  0.95813836070E+03  0.90908013799E+02 0.  0.
          5    1    3    3  502    0 -0.58630912064E+03  0.48740050602E+03 -0.28841738185E+03  0.81518360776E+03  0.47000000000E+01 0. -1.
         -5    1    3    3    0  502 -0.12825781100E+03  0.16671796781E+03 -0.93006940919E+02  0.23003766634E+03  0.47000000000E+01 0.  1.
         13    1    5    5    0    0 -0.25285030275E+02 -0.74107363760E+02  0.15310764849E+03  0.17196856151E+03  0.00000000000E+00 0. -1.
        -13    1    5    5    0    0  0.79623077544E+02 -0.29235797295E+03  0.47857480333E+03  0.56643345700E+03  0.00000000000E+00 0.  1.
          1    1    6    6  503    0  0.27542926904E+03 -0.11496144938E+03  0.20117948437E+03  0.35993138515E+03  0.00000000000E+00 0. -1.
         -1    1    6    6    0  503  0.38479961533E+03 -0.17269168775E+03  0.42421506646E+03  0.59820697554E+03  0.00000000000E+00 0.  1.
<mgrwt>
<rscale>  0 0.10371974E+04</rscale>
<asrwt>0</asrwt>
<pdfrwt beam="1">  1        2 0.27826264E+00 0.10371974E+04</pdfrwt>
<pdfrwt beam="2">  1       -2 0.14354684E+00 0.10371974E+04</pdfrwt>
<totfact> 0.28451326E+00</totfact>
</mgrwt>
</event>
<event>
12    1  0.3203156E-008  0.3978222E+03  0.7818608E-02  0.1044536E+00
         -1   -1    0    0    0  501 -0.00000000000E+00  0.00000000000E+00  0.63676276831E+03  0.63676276831E+03  0.00000000000E+00 0.  1.
          1   -1    0    0  501    0  0.00000000000E+00 -0.00000000000E+00 -0.12288526891E+04  0.12288526891E+04  0.00000000000E+00 0. -1.
         23    2    1    2    0    0  0.28349472690E+03 -0.88495422517E+02  0.49919233483E+03  0.58535217022E+03  0.72411850135E+02 0.  0.
    5000000    2    1    2    0    0 -0.28349472690E+03  0.88495422517E+02 -0.10912822556E+04  0.12802632872E+04  0.59998035225E+03 0.  0.
         23    2    4    4    0    0 -0.37967176705E+03  0.56921812613E+02 -0.35075862624E+03  0.52850613079E+03  0.94320586065E+02 0.  0.
         23    2    4    4    0    0  0.96177040144E+02  0.31573609904E+02 -0.74052362937E+03  0.75175715638E+03  0.80725836156E+02 0.  0.
          5    1    3    3  502    0  0.20738882558E+03 -0.30562995394E+02  0.33171312842E+03  0.39242822431E+03  0.47000000000E+01 0. -1.
         -5    1    3    3    0  502  0.76105901319E+02 -0.57932427123E+02  0.16747920641E+03  0.19292394591E+03  0.47000000000E+01 0.  1.
         11    1    5    5    0    0 -0.92540840813E+02 -0.12713686933E+02 -0.46297530910E+02  0.10425404751E+03  0.00000000000E+00 0. -1.
        -11    1    5    5    0    0 -0.28713092623E+03  0.69635499546E+02 -0.30446109533E+03  0.42425208328E+03  0.00000000000E+00 0.  1.
          3    1    6    6  503    0  0.23338200370E+02  0.98057219635E+01 -0.47203458461E+03  0.47271288627E+03  0.00000000000E+00 0. -1.
         -3    1    6    6    0  503  0.72838839774E+02  0.21767887940E+02 -0.26848904476E+03  0.27904427011E+03  0.00000000000E+00 0.  1.
<mgrwt>
<rscale>  0 0.39782218E+03</rscale>
<asrwt>0</asrwt>
<pdfrwt beam="1">  1        1 0.18905426E+00 0.39782218E+03</pdfrwt>
<pdfrwt beam="2">  1       -1 0.97963504E-01 0.39782218E+03</pdfrwt>
<totfact> 0.11271110E+01</totfact>
</mgrwt>
</event>
<event>
12    1  0.3203156E-008  0.1014018E+04  0.7818608E-02  0.9293302E-01
         -2   -1    0    0    0  501 -0.00000000000E+00  0.00000000000E+00  0.77211519732E+03  0.77211519732E+03  0.00000000000E+00 0.  1.
          2   -1    0    0  501    0  0.00000000000E+00 -0.00000000000E+00 -0.15210734540E+04  0.15210734540E+04  0.00000000000E+00 0. -1.
         23    2    1    2    0    0  0.61376228676E+03 -0.69807582857E+03  0.39199449191E+02  0.93479578269E+03  0.91063447292E+02 0.  0.
    5000000    2    1    2    0    0 -0.61376228676E+03  0.69807582857E+03 -0.78815770589E+03  0.13583928686E+04  0.60002050727E+03 0.  0.
         23    2    4    4    0    0 -0.49175233498E+03  0.13419223972E+03 -0.31642596764E+03  0.60775181398E+03  0.96999784761E+02 0.  0.
         23    2    4    4    0    0 -0.12200995178E+03  0.56388358885E+03 -0.47173173825E+03  0.75064105466E+03  0.89888986865E+02 0.  0.
          5    1    3    3  502    0  0.32831707761E+03 -0.44028037696E+03  0.16968709888E+02  0.54949880882E+03  0.47000000000E+01 0. -1.
         -5    1    3    3    0  502  0.28544520915E+03 -0.25779545162E+03  0.22230739302E+02  0.38529697387E+03  0.47000000000E+01 0.  1.
         11    1    5    5    0    0 -0.38653764693E+03  0.86314296797E+02 -0.28505948160E+03  0.48797583790E+03  0.00000000000E+00 0.  1.
        -11    1    5    5    0    0 -0.10521468805E+03  0.47877942923E+02 -0.31366486043E+02  0.11977597608E+03  0.00000000000E+00 0. -1.
          2    1    6    6  503    0 -0.11345889396E+03  0.33975365437E+03 -0.31513314997E+03  0.47708947639E+03  0.00000000000E+00 0. -1.
         -2    1    6    6    0  503 -0.85510578254E+01  0.22412993449E+03 -0.15659858828E+03  0.27355157827E+03  0.00000000000E+00 0.  1.
<mgrwt>
<rscale>  0 0.10140179E+04</rscale>
<asrwt>0</asrwt>
<pdfrwt beam="1">  1        2 0.23401130E+00 0.10140179E+04</pdfrwt>
<pdfrwt beam="2">  1       -2 0.11878696E+00 0.10140179E+04</pdfrwt>
<totfact> 0.66772021E+00</totfact>
</mgrwt>
</event>
<event>
12    1  0.3203156E-008  0.6004577E+03  0.7818608E-02  0.9904457E-01
          1   -1    0    0  501    0  0.00000000000E+00  0.00000000000E+00  0.14148694570E+04  0.14148694570E+04  0.00000000000E+00 0. -1.
         -1   -1    0    0    0  501 -0.00000000000E+00 -0.00000000000E+00 -0.36808824360E+03  0.36808824360E+03  0.00000000000E+00 0.  1.
         23    2    1    2    0    0  0.13618856579E+03  0.48791431995E+03  0.54526889993E+02  0.51753548073E+03  0.90896001156E+02 0.  0.
    5000000    2    1    2    0    0 -0.13618856579E+03 -0.48791431995E+03  0.99225432345E+03  0.12654222199E+04  0.60009752804E+03 0.  0.
         23    2    4    4    0    0 -0.25385513301E+03 -0.49691609043E+03  0.96012178386E+03  0.11140776242E+04  0.89258520586E+02 0.  0.
         23    2    4    4    0    0  0.11766656722E+03  0.90017704871E+01  0.32132539585E+02  0.15134459566E+03  0.89141649203E+02 0.  0.
          5    1    3    3  502    0  0.38481734913E+02  0.19394041262E+03  0.63088455840E+02  0.20759569077E+03  0.47000000000E+01 0. -1.
         -5    1    3    3    0  502  0.97706830877E+02  0.29397390733E+03 -0.85615658476E+01  0.30993978996E+03  0.47000000000E+01 0.  1.
         11    1    5    5    0    0 -0.21344657181E+03 -0.37785842080E+03  0.67508678370E+03  0.80254507083E+03  0.00000000000E+00 0.  1.
        -11    1    5    5    0    0 -0.40408561202E+02 -0.11905766963E+03  0.28503500016E+03  0.31153255341E+03  0.00000000000E+00 0. -1.
          1    1    6    6  503    0  0.10781922916E+03 -0.13871788990E+02  0.51023798932E+02  0.12008680512E+03  0.00000000000E+00 0. -1.
         -1    1    6    6    0  503  0.98473380647E+01  0.22873559477E+02 -0.18891259347E+02  0.31257790546E+02  0.00000000000E+00 0.  1.
<mgrwt>
<rscale>  0 0.60045775E+03</rscale>
<asrwt>0</asrwt>
<pdfrwt beam="1">  1        1 0.21767222E+00 0.60045775E+03</pdfrwt>
<pdfrwt beam="2">  1       -1 0.56628961E-01 0.60045775E+03</pdfrwt>
<totfact> 0.24956097E+01</totfact>
</mgrwt>
</event>
<event>
12    1  0.3203156E-008  0.4766743E+03  0.7818608E-02  0.1020053E+00
         -3   -1    0    0    0  501 -0.00000000000E+00  0.00000000000E+00  0.44614118464E+03  0.44614118464E+03  0.00000000000E+00 0.  1.
          3   -1    0    0  501    0  0.00000000000E+00 -0.00000000000E+00 -0.57910518525E+03  0.57910518525E+03  0.00000000000E+00 0. -1.
         23    2    1    2    0    0 -0.29598952826E+03  0.11692619398E+03  0.18481648398E+01  0.33278775229E+03  0.97276598851E+02 0.  0.
    5000000    2    1    2    0    0  0.29598952826E+03 -0.11692619398E+03 -0.13481216544E+03  0.69245861760E+03  0.60003590014E+03 0.  0.
         23    2    4    4    0    0  0.95803013929E+02 -0.31647865384E+03 -0.18779439984E+03  0.39099446715E+03  0.90955928438E+02 0.  0.
         23    2    4    4    0    0  0.20018651433E+03  0.19955245986E+03  0.52982234397E+02  0.30146415045E+03  0.90430592653E+02 0.  0.
          5    1    3    3  502    0 -0.94357998578E+02  0.58457594508E-01 -0.26112181885E+02  0.98017199286E+02  0.47000000000E+01 0. -1.
         -5    1    3    3    0  502 -0.20163152968E+03  0.11686773639E+03  0.27960346725E+02  0.23477055300E+03  0.47000000000E+01 0.  1.
         13    1    5    5    0    0  0.60663498947E+02 -0.97238006373E+02 -0.10043174252E+03  0.15238708900E+03  0.00000000000E+00 0.  1.
        -13    1    5    5    0    0  0.35139514982E+02 -0.21924064747E+03 -0.87362657318E+02  0.23860737815E+03  0.00000000000E+00 0. -1.
          4    1    6    6  503    0  0.18072662552E+03  0.14659546993E+03  0.14474675511E+02  0.23315630210E+03  0.00000000000E+00 0.  1.
         -4    1    6    6    0  503  0.19459888806E+02  0.52956989926E+02  0.38507558885E+02  0.68307848346E+02  0.00000000000E+00 0. -1.
<mgrwt>
<rscale>  0 0.47667427E+03</rscale>
<asrwt>0</asrwt>
<pdfrwt beam="1">  1        3 0.89093105E-01 0.47667427E+03</pdfrwt>
<pdfrwt beam="2">  1       -3 0.68637106E-01 0.47667427E+03</pdfrwt>
<totfact> 0.60694219E+00</totfact>
</mgrwt>
</event>
<event>
12    1  0.3203156E-008  0.9097483E+03  0.7818608E-02  0.9413477E-01
         -1   -1    0    0    0  501 -0.00000000000E+00  0.00000000000E+00  0.92706220800E+03  0.92706220800E+03  0.00000000000E+00 0.  1.
          1   -1    0    0  501    0  0.00000000000E+00 -0.00000000000E+00 -0.23852765667E+04  0.23852765667E+04  0.00000000000E+00 0. -1.
         23    2    1    2    0    0 -0.77421052047E+03 -0.29318105317E+03 -0.19918643866E+04  0.21589932069E+04  0.91492475723E+02 0.  0.
    5000000    2    1    2    0    0  0.77421052047E+03  0.29318105317E+03  0.53365002783E+03  0.11533455678E+04  0.60005548629E+03 0.  0.
         23    2    4    4    0    0  0.26353656091E+03 -0.14347506818E+03  0.30525619202E+03  0.43772640875E+03  0.91577573818E+02 0.  0.
         23    2    4    4    0    0  0.51067395957E+03  0.43665612134E+03  0.22839383581E+03  0.71561915906E+03  0.92144317713E+02 0.  0.
          5    1    3    3  502    0 -0.47936292200E+03 -0.13526023565E+03 -0.12194950586E+04  0.13172981554E+04  0.47000000000E+01 0. -1.
         -5    1    3    3    0  502 -0.29484759847E+03 -0.15792081751E+03 -0.77236932797E+03  0.84169505149E+03  0.47000000000E+01 0.  1.
         13    1    5    5    0    0  0.20108480776E+03 -0.64507780804E+02  0.18374673452E+03  0.27992716221E+03  0.00000000000E+00 0. -1.
        -13    1    5    5    0    0  0.62451753146E+02 -0.78967287374E+02  0.12150945750E+03  0.15779924654E+03  0.00000000000E+00 0.  1.
          2    1    6    6  503    0  0.34004255004E+03  0.32976482537E+03  0.12821602702E+03  0.49072713954E+03  0.00000000000E+00 0. -1.
         -2    1    6    6    0  503  0.17063140952E+03  0.10689129597E+03  0.10017780879E+03  0.22489201952E+03  0.00000000000E+00 0.  1.
<mgrwt>
<rscale>  0 0.90974829E+03</rscale>
<asrwt>0</asrwt>
<pdfrwt beam="1">  1        1 0.36696562E+00 0.90974829E+03</pdfrwt>
<pdfrwt beam="2">  1       -1 0.14262496E+00 0.90974829E+03</pdfrwt>
<totfact> 0.67052732E-01</totfact>
</mgrwt>
</event>
<event>
12    1  0.3203156E-008  0.4584042E+03  0.7818608E-02  0.1025245E+00
          1   -1    0    0  501    0  0.00000000000E+00  0.00000000000E+00  0.66060283206E+03  0.66060283206E+03  0.00000000000E+00 0. -1.
         -1   -1    0    0    0  501 -0.00000000000E+00 -0.00000000000E+00 -0.68430435929E+03  0.68430435929E+03  0.00000000000E+00 0.  1.
         23    2    1    2    0    0  0.27070944044E+03  0.10633549579E+03  0.43778088965E+03  0.53419196523E+03  0.95488792855E+02 0.  0.
    5000000    2    1    2    0    0 -0.27070944044E+03 -0.10633549579E+03 -0.46148241688E+03  0.81071522612E+03  0.59975188033E+03 0.  0.
         23    2    4    4    0    0 -0.28125574377E+03  0.17795565736E+03 -0.34939967618E+03  0.49140033644E+03  0.92850134885E+02 0.  0.
         23    2    4    4    0    0  0.10546303327E+02 -0.28429115314E+03 -0.11208274070E+03  0.31931488968E+03  0.92015073428E+02 0.  0.
          5    1    3    3  502    0  0.22171535901E+03  0.60708472230E+02  0.27717301950E+03  0.36012524455E+03  0.47000000000E+01 0. -1.
         -5    1    3    3    0  502  0.48994081432E+02  0.45627023556E+02  0.16060787015E+03  0.17406672068E+03  0.47000000000E+01 0.  1.
         11    1    5    5    0    0 -0.17276090350E+03  0.86151972832E+02 -0.14061241538E+03  0.23883120308E+03  0.00000000000E+00 0.  1.
        -11    1    5    5    0    0 -0.10849484026E+03  0.91803684527E+02 -0.20878726080E+03  0.25256913337E+03  0.00000000000E+00 0. -1.
          1    1    6    6  503    0  0.28856279352E+01 -0.18018098912E+03 -0.22212812749E+02  0.18156796176E+03  0.00000000000E+00 0. -1.
         -1    1    6    6    0  503  0.76606753916E+01 -0.10411016403E+03 -0.89869927948E+02  0.13774692792E+03  0.00000000000E+00 0.  1.
<mgrwt>
<rscale>  0 0.45840424E+03</rscale>
<asrwt>0</asrwt>
<pdfrwt beam="1">  1        1 0.10163121E+00 0.45840424E+03</pdfrwt>
<pdfrwt beam="2">  1       -1 0.10527759E+00 0.45840424E+03</pdfrwt>
<totfact> 0.26825392E+01</totfact>
</mgrwt>
</event>
<event>
12    1  0.3203156E-008  0.8742507E+03  0.7818608E-02  0.9458354E-01
         -4   -1    0    0    0  501 -0.00000000000E+00  0.00000000000E+00  0.30161091427E+04  0.30161091427E+04  0.00000000000E+00 0.  1.
          4   -1    0    0  501    0  0.00000000000E+00 -0.00000000000E+00 -0.32579356805E+03  0.32579356805E+03  0.00000000000E+00 0. -1.
         23    2    1    2    0    0  0.22673991516E+03  0.79061095868E+03  0.61725117459E+03  0.10323277453E+04  0.90691146755E+02 0.  0.
    5000000    2    1    2    0    0 -0.22673991516E+03 -0.79061095868E+03  0.20730644001E+04  0.23095749655E+04  0.60005319524E+03 0.  0.
         23    2    4    4    0    0 -0.29964353434E+02 -0.68346282560E+03  0.18721542113E+04  0.19954043721E+04  0.93047949151E+02 0.  0.
         23    2    4    4    0    0 -0.19677556172E+03 -0.10714813308E+03  0.20091018882E+03  0.31417059341E+03  0.90204842859E+02 0.  0.
          5    1    3    3  502    0  0.95750149504E+02  0.26533014639E+03  0.16447681121E+03  0.32656222859E+03  0.47000000000E+01 0. -1.
         -5    1    3    3    0  502  0.13098976565E+03  0.52528081229E+03  0.45277436338E+03  0.70576551673E+03  0.47000000000E+01 0.  1.
         11    1    5    5    0    0  0.26695786783E+02 -0.27948951725E+03  0.83345561449E+03  0.87947445478E+03  0.00000000000E+00 0.  1.
        -11    1    5    5    0    0 -0.56660140217E+02 -0.40397330835E+03  0.10386985968E+04  0.11159299173E+04  0.00000000000E+00 0. -1.
          1    1    6    6  503    0 -0.11286167319E+03 -0.18723966533E+02  0.12988730337E+03  0.17308684460E+03  0.00000000000E+00 0. -1.
         -1    1    6    6    0  503 -0.83913888530E+02 -0.88424166550E+02  0.71022885450E+02  0.14108374880E+03  0.00000000000E+00 0.  1.
<mgrwt>
<rscale>  0 0.87425067E+03</rscale>
<asrwt>0</asrwt>
<pdfrwt beam="1">  1        4 0.50122089E-01 0.87425067E+03</pdfrwt>
<pdfrwt beam="2">  1       -4 0.46401677E+00 0.87425067E+03</pdfrwt>
<totfact> 0.18348436E-02</totfact>
</mgrwt>
</event>
<event>
12    1  0.3203156E-008  0.8711405E+03  0.7818608E-02  0.9462394E-01
         -1   -1    0    0    0  501 -0.00000000000E+00  0.00000000000E+00  0.23594151933E+04  0.23594151933E+04  0.00000000000E+00 0.  1.
          1   -1    0    0  501    0  0.00000000000E+00 -0.00000000000E+00 -0.37895327682E+03  0.37895327682E+03  0.00000000000E+00 0. -1.
         23    2    1    2    0    0  0.13690319873E+03  0.82361850805E+03  0.68045175876E+03  0.10809013604E+04  0.90792192822E+02 0.  0.
    5000000    2    1    2    0    0 -0.13690319873E+03 -0.82361850805E+03  0.13000101577E+04  0.16574671097E+04  0.60006739374E+03 0.  0.
         23    2    4    4    0    0 -0.45205735226E+01 -0.22049057850E+02  0.51739686547E+03  0.52574847809E+03  0.90583382994E+02 0.  0.
         23    2    4    4    0    0 -0.13238262521E+03 -0.80156945020E+03  0.78261329225E+03  0.11317186316E+04  0.90910687208E+02 0.  0.
          5    1    3    3  502    0  0.11590180877E+03  0.50679972241E+03  0.38244848403E+03  0.64542088659E+03  0.47000000000E+01 0. -1.
         -5    1    3    3    0  502  0.21001389962E+02  0.31681878565E+03  0.29800327473E+03  0.43548047381E+03  0.47000000000E+01 0.  1.
         11    1    5    5    0    0  0.35507669258E+02  0.12097483031E+02  0.15081618506E+03  0.15541127806E+03  0.00000000000E+00 0. -1.
        -11    1    5    5    0    0 -0.40028242781E+02 -0.34146540881E+02  0.36658068041E+03  0.37033720003E+03  0.00000000000E+00 0.  1.
          3    1    6    6  503    0 -0.23348581528E+02 -0.49050504615E+02  0.30926700539E+02  0.62510551658E+02  0.00000000000E+00 0. -1.
         -3    1    6    6    0  503 -0.10903404368E+03 -0.75251894559E+03  0.75168659171E+03  0.10692080800E+04  0.00000000000E+00 0.  1.
<mgrwt>
<rscale>  0 0.87114055E+03</rscale>
<asrwt>0</asrwt>
<pdfrwt beam="1">  1        1 0.58300506E-01 0.87114055E+03</pdfrwt>
<pdfrwt beam="2">  1       -1 0.36298694E+00 0.87114055E+03</pdfrwt>
<totfact> 0.85564281E-01</totfact>
</mgrwt>
</event>
<event>
12    1  0.3203156E-008  0.8580963E+03  0.7818608E-02  0.9479534E-01
         -2   -1    0    0    0  501 -0.00000000000E+00  0.00000000000E+00  0.10561163923E+04  0.10561163923E+04  0.00000000000E+00 0.  1.
          2   -1    0    0  501    0  0.00000000000E+00 -0.00000000000E+00 -0.75395958459E+03  0.75395958459E+03  0.00000000000E+00 0. -1.
         23    2    1    2    0    0 -0.53207586891E+03  0.53851214479E+03  0.35812711515E+03  0.84245508740E+03  0.91517666738E+02 0.  0.
    5000000    2    1    2    0    0  0.53207586891E+03 -0.53851214479E+03 -0.55970307463E+02  0.96762088947E+03  0.60004787315E+03 0.  0.
         23    2    4    4    0    0  0.56736555209E+03 -0.61103491283E+03 -0.85506820668E+02  0.84313523678E+03  0.91094877599E+02 0.  0.
         23    2    4    4    0    0 -0.35289683180E+02  0.72522768043E+02  0.29536513205E+02  0.12448565269E+03  0.90107482989E+02 0.  0.
          5    1    3    3  502    0 -0.41218315308E+03  0.39649943515E+03  0.22897453593E+03  0.61608293424E+03  0.47000000000E+01 0. -1.
         -5    1    3    3    0  502 -0.11989271582E+03  0.14201270964E+03  0.12915257923E+03  0.22637215316E+03  0.47000000000E+01 0.  1.
         13    1    5    5    0    0  0.28632010645E+03 -0.36938662799E+03 -0.65723662478E+02  0.47195898562E+03  0.00000000000E+00 0. -1.
        -13    1    5    5    0    0  0.28104544563E+03 -0.24164828485E+03 -0.19783158190E+02  0.37117625116E+03  0.00000000000E+00 0.  1.
          4    1    6    6  503    0  0.24917473691E+02  0.50312519303E+02  0.75476815781E+01  0.56649780149E+02  0.00000000000E+00 0. -1.
         -4    1    6    6    0  503 -0.60207156870E+02  0.22210248740E+02  0.21988831627E+02  0.67835872544E+02  0.00000000000E+00 0.  1.
<mgrwt>
<rscale>  0 0.85809628E+03</rscale>
<asrwt>0</asrwt>
<pdfrwt beam="1">  1        2 0.11599378E+00 0.85809628E+03</pdfrwt>
<pdfrwt beam="2">  1       -2 0.16247945E+00 0.85809628E+03</pdfrwt>
<totfact> 0.90412673E+00</totfact>
</mgrwt>
</event>
<event>
12    1  0.3635662E-008  0.1091106E+04  0.7818608E-02  0.9213904E-01
          2   -1    0    0  501    0  0.00000000000E+00  0.00000000000E+00  0.11719815591E+04  0.11719815591E+04  0.00000000000E+00 0. -1.
         -2   -1    0    0    0  501 -0.00000000000E+00 -0.00000000000E+00 -0.11587958886E+04  0.11587958886E+04  0.00000000000E+00 0.  1.
         23    2    1    2    0    0 -0.10696898369E+04 -0.11084032791E+03 -0.14558448626E+03  0.10890671209E+04  0.91380664281E+02 0.  0.
    5000000    2    1    2    0    0  0.10696898369E+04  0.11084032791E+03  0.15877015667E+03  0.12417103268E+04  0.60009553205E+03 0.  0.
         23    2    4    4    0    0  0.41472582846E+03  0.15846670632E+03 -0.19125370870E+03  0.49213442578E+03  0.92244794669E+02 0.  0.
         23    2    4    4    0    0  0.65496400841E+03 -0.47626378410E+02  0.35002386537E+03  0.74957590101E+03  0.90006670875E+02 0.  0.
          5    1    3    3  502    0 -0.44243068038E+03 -0.54289919694E+01 -0.40025236183E+02  0.44429549900E+03  0.47000000000E+01 0. -1.
         -5    1    3    3    0  502 -0.62725915649E+03 -0.10541133594E+03 -0.10555925008E+03  0.64477162191E+03  0.47000000000E+01 0.  1.
         11    1    5    5    0    0  0.28015012684E+03  0.83894601047E+02 -0.82939165233E+02  0.30397582598E+03  0.00000000000E+00 0. -1.
        -11    1    5    5    0    0  0.13457570162E+03  0.74572105271E+02 -0.10831454346E+03  0.18815859979E+03  0.00000000000E+00 0.  1.
          2    1    6    6  503    0  0.44501448957E+03 -0.46130804743E+02  0.19229017214E+03  0.48697172133E+03  0.00000000000E+00 0. -1.
         -2    1    6    6    0  503  0.20994951885E+03 -0.14955736671E+01  0.15773369323E+03  0.26260417968E+03  0.00000000000E+00 0.  1.
<mgrwt>
<rscale>  0 0.10911065E+04</rscale>
<asrwt>0</asrwt>
<pdfrwt beam="1">  1        2 0.18030486E+00 0.10911065E+04</pdfrwt>
<pdfrwt beam="2">  1       -2 0.17827629E+00 0.10911065E+04</pdfrwt>
<totfact> 0.36032668E+00</totfact>
</mgrwt>
</event>
<event>
12    1  0.3203156E-008  0.9462862E+03  0.7818608E-02  0.9369502E-01
         -4   -1    0    0    0  501 -0.00000000000E+00  0.00000000000E+00  0.10308087497E+04  0.10308087497E+04  0.00000000000E+00 0.  1.
          4   -1    0    0  501    0  0.00000000000E+00 -0.00000000000E+00 -0.96448744871E+03  0.96448744871E+03  0.00000000000E+00 0. -1.
         23    2    1    2    0    0 -0.66633962587E+03 -0.56147771700E+03 -0.21186981646E+03  0.90144906247E+03  0.91955801343E+02 0.  0.
    5000000    2    1    2    0    0  0.66633962587E+03  0.56147771700E+03  0.27819111743E+03  0.10938471359E+04  0.59987126556E+03 0.  0.
         23    2    4    4    0    0  0.67233130264E+03  0.28846556218E+03  0.31869219907E+03  0.80321261700E+03  0.91345658247E+02 0.  0.
         23    2    4    4    0    0 -0.59916767698E+01  0.27301215483E+03 -0.40501081640E+02  0.29063451892E+03  0.90865555091E+02 0.  0.
          5    1    3    3  502    0 -0.50434652658E+03 -0.47342352321E+03 -0.16899917463E+03  0.71209413859E+03  0.47000000000E+01 0. -1.
         -5    1    3    3    0  502 -0.16199309930E+03 -0.88054193797E+02 -0.42870641833E+02  0.18935492388E+03  0.47000000000E+01 0.  1.
         13    1    5    5    0    0  0.20037421265E+03  0.11525589295E+03  0.65169173227E+02  0.24016820583E+03  0.00000000000E+00 0. -1.
        -13    1    5    5    0    0  0.47195709000E+03  0.17320966922E+03  0.25352302584E+03  0.56304441116E+03  0.00000000000E+00 0.  1.
          1    1    6    6  503    0  0.25905683269E+02  0.21261339561E+03 -0.63770295381E+01  0.21428071990E+03  0.00000000000E+00 0. -1.
         -1    1    6    6    0  503 -0.31897360039E+02  0.60398759220E+02 -0.34124052102E+02  0.76353799019E+02  0.00000000000E+00 0.  1.
<mgrwt>
<rscale>  0 0.94628622E+03</rscale>
<asrwt>0</asrwt>
<pdfrwt beam="1">  1        4 0.14838268E+00 0.94628622E+03</pdfrwt>
<pdfrwt beam="2">  1       -4 0.15858596E+00 0.94628622E+03</pdfrwt>
<totfact> 0.15160927E-01</totfact>
</mgrwt>
</event>
<event>
12    1  0.3203156E-008  0.2960857E+03  0.7818608E-02  0.1087214E+00
          3   -1    0    0  501    0  0.00000000000E+00  0.00000000000E+00  0.18053432307E+04  0.18053432307E+04  0.00000000000E+00 0. -1.
         -3   -1    0    0    0  501 -0.00000000000E+00 -0.00000000000E+00 -0.13240779815E+03  0.13240779815E+03  0.00000000000E+00 0.  1.
         23    2    1    2    0    0  0.13523565215E+03  0.21238142502E+03  0.22388920396E+03  0.34921906071E+03  0.91831505540E+02 0.  0.
    5000000    2    1    2    0    0 -0.13523565215E+03 -0.21238142502E+03  0.14490462286E+04  0.15885319682E+04  0.60025352135E+03 0.  0.
         23    2    4    4    0    0 -0.68719587995E+02  0.63698935836E+00  0.13003861330E+04  0.13054372780E+04  0.91867319987E+02 0.  0.
         23    2    4    4    0    0 -0.66516064158E+02 -0.21301841438E+03  0.14866009564E+03  0.28309469014E+03  0.90782971375E+02 0.  0.
          5    1    3    3  502    0  0.21686098209E+02  0.50898564089E+02  0.70974815588E+01  0.55976914227E+02  0.47000000000E+01 0. -1.
         -5    1    3    3    0  502  0.11354955394E+03  0.16148286093E+03  0.21679172240E+03  0.29324214649E+03  0.47000000000E+01 0.  1.
         11    1    5    5    0    0 -0.87283667588E+02  0.17731311744E+02  0.96394298479E+03  0.96804902560E+03  0.00000000000E+00 0.  1.
        -11    1    5    5    0    0  0.18564079593E+02 -0.17094322386E+02  0.33644314820E+03  0.33738825244E+03  0.00000000000E+00 0. -1.
          2    1    6    6  503    0  0.17517411479E+01 -0.21247985779E+02  0.55066561102E+02  0.59049738766E+02  0.00000000000E+00 0. -1.
         -2    1    6    6    0  503 -0.68267805306E+02 -0.19177042860E+03  0.93593534535E+02  0.22404495137E+03  0.00000000000E+00 0.  1.
<mgrwt>
<rscale>  0 0.29608570E+03</rscale>
<asrwt>0</asrwt>
<pdfrwt beam="1">  1        3 0.27774509E+00 0.29608570E+03</pdfrwt>
<pdfrwt beam="2">  1       -3 0.20370432E-01 0.29608570E+03</pdfrwt>
<totfact> 0.31266452E+00</totfact>
</mgrwt>
</event>
<event>
12    1  0.3203156E-008  0.7000591E+03  0.7818608E-02  0.9717131E-01
          1   -1    0    0  501    0  0.00000000000E+00  0.00000000000E+00  0.20300136412E+04  0.20300136412E+04  0.00000000000E+00 0. -1.
         -1   -1    0    0    0  501 -0.00000000000E+00 -0.00000000000E+00 -0.46821935867E+03  0.46821935867E+03  0.00000000000E+00 0.  1.
         23    2    1    2    0    0  0.59893815292E+03  0.19148427412E+02 -0.11834336580E+03  0.61606555254E+03  0.80237394687E+02 0.  0.
    5000000    2    1    2    0    0 -0.59893815292E+03 -0.19148427412E+02  0.16801376484E+04  0.18821674474E+04  0.60049830073E+03 0.  0.
         23    2    4    4    0    0  0.54072278930E+02  0.83711238325E+02  0.58131291896E+03  0.59662936444E+03  0.90058347708E+02 0.  0.
         23    2    4    4    0    0 -0.65301043185E+03 -0.10285966574E+03  0.10988247294E+04  0.12855380829E+04  0.90496639520E+02 0.  0.
          5    1    3    3  502    0  0.26399005251E+03 -0.23364005395E+02 -0.76060364431E+02  0.27576057298E+03  0.47000000000E+01 0. -1.
         -5    1    3    3    0  502  0.33494810041E+03  0.42512432807E+02 -0.42283001366E+02  0.34030497957E+03  0.47000000000E+01 0.  1.
         13    1    5    5    0    0  0.32786579838E+02  0.99516172663E+02  0.50740318776E+03  0.51810850542E+03  0.00000000000E+00 0.  1.
        -13    1    5    5    0    0  0.21285699092E+02 -0.15804934338E+02  0.73909731195E+02  0.78520859016E+02  0.00000000000E+00 0. -1.
          3    1    6    6  503    0 -0.95756688534E+02 -0.45136254127E+02  0.20329288742E+03  0.22920432569E+03  0.00000000000E+00 0. -1.
         -3    1    6    6    0  503 -0.55725374332E+03 -0.57723411611E+02  0.89553184197E+03  0.10563337572E+04  0.00000000000E+00 0.  1.
<mgrwt>
<rscale>  0 0.70005906E+03</rscale>
<asrwt>0</asrwt>
<pdfrwt beam="1">  1        1 0.31230979E+00 0.70005906E+03</pdfrwt>
<pdfrwt beam="2">  1       -1 0.72033749E-01 0.70005906E+03</pdfrwt>
<totfact> 0.58555807E+00</totfact>
</mgrwt>
</event>
<event>
12    1  0.3203156E-008  0.2789251E+03  0.7818608E-02  0.1096277E+00
         -1   -1    0    0    0  501 -0.00000000000E+00  0.00000000000E+00  0.49142224850E+03  0.49142224850E+03  0.00000000000E+00 0.  1.
          1   -1    0    0  501    0  0.00000000000E+00 -0.00000000000E+00 -0.40223817371E+03  0.40223817371E+03  0.00000000000E+00 0. -1.
         23    2    1    2    0    0  0.13682747756E+03  0.18401444854E+03  0.39123564352E+02  0.24940271137E+03  0.89933215580E+02 0.  0.
    5000000    2    1    2    0    0 -0.13682747756E+03 -0.18401444854E+03  0.50060510444E+02  0.64425771083E+03  0.59998238922E+03 0.  0.
         23    2    4    4    0    0 -0.11991691578E+03 -0.68265037804E+02 -0.25431741408E+03  0.30471921084E+03  0.95583828539E+02 0.  0.
         23    2    4    4    0    0 -0.16910561777E+02 -0.11574941074E+03  0.30437792452E+03  0.33953849999E+03  0.94639203578E+02 0.  0.
          5    1    3    3  502    0  0.40063786997E+02  0.11495910193E+03  0.46019165134E+02  0.13023269830E+03  0.47000000000E+01 0. -1.
         -5    1    3    3    0  502  0.96763690561E+02  0.69055346611E+02 -0.68956007818E+01  0.11917001308E+03  0.47000000000E+01 0.  1.
         11    1    5    5    0    0 -0.38497448469E+02 -0.76267153044E+02 -0.14290876486E+03  0.16649818992E+03  0.00000000000E+00 0.  1.
        -11    1    5    5    0    0 -0.81419467312E+02  0.80021152399E+01 -0.11140864921E+03  0.13822102092E+03  0.00000000000E+00 0. -1.
          3    1    6    6  503    0 -0.25480894846E+02  0.72615661690E+01  0.66885089294E+02  0.71941792550E+02  0.00000000000E+00 0. -1.
         -3    1    6    6    0  503  0.85703330690E+01 -0.12301097691E+03  0.23749283523E+03  0.26759670744E+03  0.00000000000E+00 0.  1.
<mgrwt>
<rscale>  0 0.27892514E+03</rscale>
<asrwt>0</asrwt>
<pdfrwt beam="1">  1        1 0.61882796E-01 0.27892514E+03</pdfrwt>
<pdfrwt beam="2">  1       -1 0.75603423E-01 0.27892514E+03</pdfrwt>
<totfact> 0.11139159E+02</totfact>
</mgrwt>
</event>
<event>
12    1  0.3203156E-008  0.5478185E+03  0.7818608E-02  0.1002000E+00
         -2   -1    0    0    0  501 -0.00000000000E+00  0.00000000000E+00  0.23209716692E+03  0.23209716692E+03  0.00000000000E+00 0.  1.
          2   -1    0    0  501    0  0.00000000000E+00 -0.00000000000E+00 -0.23874795199E+04  0.23874795199E+04  0.00000000000E+00 0. -1.
         23    2    1    2    0    0 -0.51826433835E+03 -0.10437954321E+03 -0.14752527571E+04  0.15697832262E+04  0.91409334201E+02 0.  0.
    5000000    2    1    2    0    0  0.51826433835E+03  0.10437954321E+03 -0.68012959585E+03  0.10497934606E+04  0.59999752447E+03 0.  0.
         23    2    4    4    0    0  0.29620199183E+03 -0.23831186184E+02  0.76451436369E+01  0.31030635605E+03  0.89039547287E+02 0.  0.
         23    2    4    4    0    0  0.22206234652E+03  0.12821072939E+03 -0.68777473949E+03  0.73948710458E+03  0.89763069718E+02 0.  0.
          5    1    3    3  502    0 -0.48111472162E+03 -0.71426565654E+02 -0.13507243187E+04  0.14356362369E+04  0.47000000000E+01 0. -1.
         -5    1    3    3    0  502 -0.37149616730E+02 -0.32952977554E+02 -0.12452843843E+03  0.13414698928E+03  0.47000000000E+01 0.  1.
         13    1    5    5    0    0  0.24203676149E+03 -0.40558995980E+02  0.34061893403E+02  0.24776407861E+03  0.00000000000E+00 0. -1.
        -13    1    5    5    0    0  0.54165230341E+02  0.16727809796E+02 -0.26416749766E+02  0.62542277435E+02  0.00000000000E+00 0.  1.
          2    1    6    6  503    0  0.11511770491E+03  0.54560558226E+02 -0.45983406911E+03  0.47715438970E+03  0.00000000000E+00 0. -1.
         -2    1    6    6    0  503  0.10694464161E+03  0.73650171166E+02 -0.22794067038E+03  0.26233271488E+03  0.00000000000E+00 0.  1.
<mgrwt>
<rscale>  0 0.54781846E+03</rscale>
<asrwt>0</asrwt>
<pdfrwt beam="1">  1        2 0.36730456E+00 0.54781846E+03</pdfrwt>
<pdfrwt beam="2">  1       -2 0.35707255E-01 0.54781846E+03</pdfrwt>
<totfact> 0.32057528E+01</totfact>
</mgrwt>
</event>
<event>
12    1  0.3203156E-008  0.6466288E+03  0.7818608E-02  0.9813126E-01
         -2   -1    0    0    0  501 -0.00000000000E+00  0.00000000000E+00  0.79519753289E+03  0.79519753289E+03  0.00000000000E+00 0.  1.
          2   -1    0    0  501    0  0.00000000000E+00 -0.00000000000E+00 -0.72394323293E+03  0.72394323293E+03  0.00000000000E+00 0. -1.
         23    2    1    2    0    0 -0.26179691007E+03  0.54612831614E+03  0.22581213632E+03  0.65280884237E+03  0.91512315814E+02 0.  0.
    5000000    2    1    2    0    0  0.26179691007E+03 -0.54612831614E+03 -0.15455783637E+03  0.86633192345E+03  0.59987425099E+03 0.  0.
         23    2    4    4    0    0  0.74533421736E+02 -0.45622022250E+03 -0.33244770572E+03  0.57752025927E+03  0.96519689490E+02 0.  0.
         23    2    4    4    0    0  0.18726348834E+03 -0.89908093640E+02  0.17788986935E+03  0.28881166418E+03  0.92823986015E+02 0.  0.
          5    1    3    3  502    0 -0.24305467538E+03  0.42324093755E+03  0.17762352846E+03  0.51940415315E+03  0.47000000000E+01 0. -1.
         -5    1    3    3    0  502 -0.18742234693E+02  0.12288737859E+03  0.48188607863E+02  0.13340468922E+03  0.47000000000E+01 0.  1.
         11    1    5    5    0    0  0.60576854498E+02 -0.20049318837E+03 -0.19820996960E+03  0.28836481397E+03  0.00000000000E+00 0. -1.
        -11    1    5    5    0    0  0.13956567237E+02 -0.25572703413E+03 -0.13423773612E+03  0.28915544531E+03  0.00000000000E+00 0.  1.
          4    1    6    6  503    0  0.85646290089E+02 -0.10564916601E+02  0.27165059246E+02  0.90470132710E+02  0.00000000000E+00 0. -1.
         -4    1    6    6    0  503  0.10161719825E+03 -0.79343177040E+02  0.15072481011E+03  0.19834153147E+03  0.00000000000E+00 0.  1.
<mgrwt>
<rscale>  0 0.64662881E+03</rscale>
<asrwt>0</asrwt>
<pdfrwt beam="1">  1        2 0.11137588E+00 0.64662881E+03</pdfrwt>
<pdfrwt beam="2">  1       -2 0.12233808E+00 0.64662881E+03</pdfrwt>
<totfact> 0.20355350E+01</totfact>
</mgrwt>
</event>
<event>
12    1  0.3203156E-008  0.5662875E+03  0.7818608E-02  0.9977928E-01
          2   -1    0    0  501    0  0.00000000000E+00  0.00000000000E+00  0.30125502050E+03  0.30125502050E+03  0.00000000000E+00 0. -1.
         -2   -1    0    0    0  501 -0.00000000000E+00 -0.00000000000E+00 -0.12114702246E+04  0.12114702246E+04  0.00000000000E+00 0.  1.
         23    2    1    2    0    0 -0.43033602489E+03 -0.69601255842E+02 -0.48294043798E+03  0.65680042430E+03  0.90121593345E+02 0.  0.
    5000000    2    1    2    0    0  0.43033602489E+03  0.69601255842E+02 -0.42727476614E+03  0.85592482083E+03  0.60000845327E+03 0.  0.
         23    2    4    4    0    0  0.54933555221E+03 -0.18605307688E+00 -0.40217962490E+03  0.68683271443E+03  0.90670521113E+02 0.  0.
         23    2    4    4    0    0 -0.11899952731E+03  0.69787308919E+02 -0.25095141242E+02  0.16909210640E+03  0.94505123378E+02 0.  0.
          5    1    3    3  502    0 -0.74472872913E+02 -0.46936960383E+02 -0.85203993355E+02  0.12260137656E+03  0.47000000000E+01 0. -1.
         -5    1    3    3    0  502 -0.35586315198E+03 -0.22664295459E+02 -0.39773644463E+03  0.53419904774E+03  0.47000000000E+01 0.  1.
         11    1    5    5    0    0  0.50101759483E+03  0.62381302224E+01 -0.39399207288E+03  0.63740669756E+03  0.00000000000E+00 0. -1.
        -11    1    5    5    0    0  0.48317957375E+02 -0.64241832993E+01 -0.81875520142E+01  0.49426016873E+02  0.00000000000E+00 0.  1.
          3    1    6    6  503    0 -0.97235983510E+02  0.55312805337E+02 -0.58848360189E+02  0.12640202696E+03  0.00000000000E+00 0. -1.
         -3    1    6    6    0  503 -0.21763543805E+02  0.14474503582E+02  0.33753218947E+02  0.42690079435E+02  0.00000000000E+00 0.  1.
<mgrwt>
<rscale>  0 0.56628751E+03</rscale>
<asrwt>0</asrwt>
<pdfrwt beam="1">  1        2 0.46346927E-01 0.56628751E+03</pdfrwt>
<pdfrwt beam="2">  1       -2 0.18638003E+00 0.56628751E+03</pdfrwt>
<totfact> 0.18522362E+01</totfact>
</mgrwt>
</event>
<event>
12    1  0.3203156E-008  0.9556553E+03  0.7818608E-02  0.9358565E-01
          1   -1    0    0  501    0  0.00000000000E+00  0.00000000000E+00  0.14588866298E+04  0.14588866298E+04  0.00000000000E+00 0. -1.
         -1   -1    0    0    0  501 -0.00000000000E+00 -0.00000000000E+00 -0.73563620863E+03  0.73563620863E+03  0.00000000000E+00 0.  1.
         23    2    1    2    0    0  0.24419255307E+02 -0.87371302693E+03  0.71721998224E+03  0.11343066603E+04  0.90974409532E+02 0.  0.
    5000000    2    1    2    0    0 -0.24419255307E+02  0.87371302693E+03  0.60304389488E+01  0.10602161782E+04  0.60004268581E+03 0.  0.
         23    2    4    4    0    0 -0.26187482946E+03  0.23412242760E+03  0.64878754241E+02  0.36896544183E+03  0.92382396064E+02 0.  0.
         23    2    4    4    0    0  0.23745557415E+03  0.63959059932E+03 -0.58848315292E+02  0.69125073633E+03  0.94356620503E+02 0.  0.
          5    1    3    3  502    0  0.19331390504E+02 -0.72435341114E+02  0.39715315562E+02  0.84970451284E+02  0.47000000000E+01 0. -1.
         -5    1    3    3    0  502  0.50878648032E+01 -0.80127768581E+03  0.67750466668E+03  0.10493362090E+04  0.47000000000E+01 0.  1.
         13    1    5    5    0    0 -0.82486356104E+02  0.90673285379E+02  0.66112397008E+02  0.13927129160E+03  0.00000000000E+00 0. -1.
        -13    1    5    5    0    0 -0.17938847335E+03  0.14344914223E+03 -0.12336427672E+01  0.22969415023E+03  0.00000000000E+00 0.  1.
          3    1    6    6  503    0  0.98308261094E+02  0.23367882993E+03  0.22485368242E+02  0.25451110299E+03  0.00000000000E+00 0. -1.
         -3    1    6    6    0  503  0.13914731306E+03  0.40591176939E+03 -0.81333683534E+02  0.43673963335E+03  0.00000000000E+00 0.  1.
<mgrwt>
<rscale>  0 0.95565533E+03</rscale>
<asrwt>0</asrwt>
<pdfrwt beam="1">  1        1 0.22444410E+00 0.95565533E+03</pdfrwt>
<pdfrwt beam="2">  1       -1 0.11317480E+00 0.95565533E+03</pdfrwt>
<totfact> 0.50367761E+00</totfact>
</mgrwt>
</event>
<event>
12    1  0.3203156E-008  0.4442292E+03  0.7818608E-02  0.1029457E+00
         -1   -1    0    0    0  501 -0.00000000000E+00  0.00000000000E+00  0.89440248138E+02  0.89440248138E+02  0.00000000000E+00 0.  1.
          1   -1    0    0  501    0  0.00000000000E+00 -0.00000000000E+00 -0.30422781641E+04  0.30422781641E+04  0.00000000000E+00 0. -1.
         23    2    1    2    0    0  0.30451905967E+03  0.64924291970E+02 -0.59130722728E+03  0.67533744327E+03  0.97413571201E+02 0.  0.
    5000000    2    1    2    0    0 -0.30451905967E+03 -0.64924291970E+02 -0.23615306887E+04  0.24563809690E+04  0.60002770747E+03 0.  0.
         23    2    4    4    0    0 -0.37542404798E+03 -0.17944372976E+03 -0.10230860158E+04  0.11080565217E+04  0.89112241806E+02 0.  0.
         23    2    4    4    0    0  0.70904988308E+02  0.11451943779E+03 -0.13384446729E+04  0.13483244472E+04  0.91664898901E+02 0.  0.
          5    1    3    3  502    0  0.11315409529E+03  0.36965605719E+02 -0.13697580369E+03  0.18153447629E+03  0.47000000000E+01 0. -1.
         -5    1    3    3    0  502  0.19136496438E+03  0.27958686251E+02 -0.45433142359E+03  0.49380296697E+03  0.47000000000E+01 0.  1.
         11    1    5    5    0    0 -0.51338982506E+02 -0.26716064582E+02 -0.76401949060E+02  0.95847258968E+02  0.00000000000E+00 0. -1.
        -11    1    5    5    0    0 -0.32408506548E+03 -0.15272766518E+03 -0.94668406673E+03  0.10122092627E+04  0.00000000000E+00 0.  1.
          1    1    6    6  503    0  0.42184761991E+02  0.54119835515E+00 -0.24796662606E+03  0.25152990812E+03  0.00000000000E+00 0. -1.
         -1    1    6    6    0  503  0.28720226316E+02  0.11397823944E+03 -0.10904780468E+04  0.10967945391E+04  0.00000000000E+00 0.  1.
<mgrwt>
<rscale>  0 0.44422919E+03</rscale>
<asrwt>0</asrwt>
<pdfrwt beam="1">  1        1 0.46804284E+00 0.44422919E+03</pdfrwt>
<pdfrwt beam="2">  1       -1 0.13760037E-01 0.44422919E+03</pdfrwt>
<totfact> 0.23666122E+01</totfact>
</mgrwt>
</event>
<event>
12    1  0.3203156E-008  0.1547192E+04  0.7818608E-02  0.8853663E-01
         -1   -1    0    0    0  501 -0.00000000000E+00  0.00000000000E+00  0.18277137259E+04  0.18277137259E+04  0.00000000000E+00 0.  1.
          1   -1    0    0  501    0  0.00000000000E+00 -0.00000000000E+00 -0.15989287404E+04  0.15989287404E+04  0.00000000000E+00 0. -1.
         23    2    1    2    0    0 -0.14124930901E+04 -0.61014126722E+03 -0.50153177036E+03  0.16208794468E+04  0.91142574298E+02 0.  0.
    5000000    2    1    2    0    0  0.14124930901E+04  0.61014126722E+03  0.73031675587E+03  0.18057630194E+04  0.60000701894E+03 0.  0.
         23    2    4    4    0    0  0.12472636965E+04  0.54610872299E+03  0.81543667357E+03  0.15896863073E+04  0.90907211283E+02 0.  0.
         23    2    4    4    0    0  0.16522939367E+03  0.64032544231E+02 -0.85119917708E+02  0.21607671216E+03  0.89681803572E+02 0.  0.
          5    1    3    3  502    0 -0.30731921720E+03 -0.16935196758E+03 -0.95853204152E+02  0.36377893965E+03  0.47000000000E+01 0. -1.
         -5    1    3    3    0  502 -0.11051738729E+04 -0.44078929964E+03 -0.40567856620E+03  0.12571005072E+04  0.47000000000E+01 0.  1.
         11    1    5    5    0    0  0.10545682063E+04  0.49423444348E+03  0.68206755433E+03  0.13496658607E+04  0.00000000000E+00 0.  1.
        -11    1    5    5    0    0  0.19269549017E+03  0.51874279508E+02  0.13336911924E+03  0.24002044657E+03  0.00000000000E+00 0. -1.
          1    1    6    6  503    0  0.71230424882E+02 -0.70433291166E+01 -0.64678866076E+02  0.96471434273E+02  0.00000000000E+00 0. -1.
         -1    1    6    6    0  503  0.93998968789E+02  0.71075873347E+02 -0.20441051632E+02  0.11960527788E+03  0.00000000000E+00 0.  1.
<mgrwt>
<rscale>  0 0.15471919E+04</rscale>
<asrwt>0</asrwt>
<pdfrwt beam="1">  1        1 0.24598904E+00 0.15471919E+04</pdfrwt>
<pdfrwt beam="2">  1       -1 0.28118673E+00 0.15471919E+04</pdfrwt>
<totfact> 0.22967986E-01</totfact>
</mgrwt>
</event>
<event>
12    1  0.3203156E-008  0.1820712E+04  0.7818608E-02  0.8695362E-01
          2   -1    0    0  501    0  0.00000000000E+00  0.00000000000E+00  0.29506619798E+04  0.29506619798E+04  0.00000000000E+00 0. -1.
         -2   -1    0    0    0  501 -0.00000000000E+00 -0.00000000000E+00 -0.13309088707E+04  0.13309088707E+04  0.00000000000E+00 0.  1.
         23    2    1    2    0    0  0.10708355415E+04 -0.14222621911E+04  0.16111936032E+04  0.24029023760E+04  0.92067935937E+02 0.  0.
    5000000    2    1    2    0    0 -0.10708355415E+04  0.14222621911E+04  0.85595058864E+01  0.18786684745E+04  0.59983620683E+03 0.  0.
         23    2    4    4    0    0  0.40811138124E+02  0.20504228069E+03  0.16840627582E+01  0.22749827667E+03  0.89692496647E+02 0.  0.
         23    2    4    4    0    0 -0.11116466796E+04  0.12172199104E+04  0.68754431282E+01  0.16511701978E+04  0.94515078728E+02 0.  0.
          5    1    3    3  502    0  0.47765239935E+03 -0.63972067192E+03  0.78398691713E+03  0.11189512630E+04  0.47000000000E+01 0. -1.
         -5    1    3    3    0  502  0.59318314211E+03 -0.78254151914E+03  0.82720668602E+03  0.12839511130E+04  0.47000000000E+01 0.  1.
         13    1    5    5    0    0 -0.56751431402E+01  0.10939736390E+02  0.23683320696E+02  0.26698029162E+02  0.00000000000E+00 0. -1.
        -13    1    5    5    0    0  0.46486281264E+02  0.19410254430E+03 -0.21999257938E+02  0.20080024751E+03  0.00000000000E+00 0.  1.
          3    1    6    6  503    0 -0.37642188087E+03  0.37864020411E+03 -0.35783587006E+02  0.53510961650E+03  0.00000000000E+00 0. -1.
         -3    1    6    6    0  503 -0.73522479871E+03  0.83857970626E+03  0.42659030134E+02  0.11160605813E+04  0.00000000000E+00 0.  1.
<mgrwt>
<rscale>  0 0.18207117E+04</rscale>
<asrwt>0</asrwt>
<pdfrwt beam="1">  1        2 0.45394800E+00 0.18207117E+04</pdfrwt>
<pdfrwt beam="2">  1       -2 0.20475521E+00 0.18207117E+04</pdfrwt>
<totfact> 0.21030241E-01</totfact>
</mgrwt>
</event>
<event>
12    1  0.3203156E-008  0.5253896E+03  0.7818608E-02  0.1007356E+00
          2   -1    0    0  501    0  0.00000000000E+00  0.00000000000E+00  0.74607430605E+03  0.74607430605E+03  0.00000000000E+00 0. -1.
         -2   -1    0    0    0  501 -0.00000000000E+00 -0.00000000000E+00 -0.61949919495E+03  0.61949919495E+03  0.00000000000E+00 0.  1.
         23    2    1    2    0    0 -0.23476401562E+03  0.27800275697E+03 -0.35270595752E+03  0.51585359084E+03  0.96455994077E+02 0.  0.
    5000000    2    1    2    0    0  0.23476401562E+03 -0.27800275697E+03  0.47928106863E+03  0.84971991016E+03  0.59992825160E+03 0.  0.
         23    2    4    4    0    0  0.33249480399E+03 -0.39405587694E+03  0.34854939048E+03  0.62904335003E+03  0.91520652205E+02 0.  0.
         23    2    4    4    0    0 -0.97730788365E+02  0.11605311997E+03  0.13073167816E+03  0.22067656013E+03  0.92670053788E+02 0.  0.
          5    1    3    3  502    0 -0.12763444231E+03  0.88614711693E+02 -0.18131349923E+03  0.23883005045E+03  0.47000000000E+01 0. -1.
         -5    1    3    3    0  502 -0.10712957331E+03  0.18938804527E+03 -0.17139245829E+03  0.27702354039E+03  0.47000000000E+01 0.  1.
         11    1    5    5    0    0  0.27591234645E+03 -0.28799189358E+03  0.30142436291E+03  0.49992359442E+03  0.00000000000E+00 0. -1.
        -11    1    5    5    0    0  0.56582457534E+02 -0.10606398336E+03  0.47125027564E+02  0.12911975561E+03  0.00000000000E+00 0.  1.
          1    1    6    6  503    0 -0.52042031967E+02  0.27174892476E+02  0.33949214039E+01  0.58807936230E+02  0.00000000000E+00 0. -1.
         -1    1    6    6    0  503 -0.45688756397E+02  0.88878227499E+02  0.12733675675E+03  0.16186862390E+03  0.00000000000E+00 0.  1.
<mgrwt>
<rscale>  0 0.52538961E+03</rscale>
<asrwt>0</asrwt>
<pdfrwt beam="1">  1        2 0.11478066E+00 0.52538961E+03</pdfrwt>
<pdfrwt beam="2">  1       -2 0.95307569E-01 0.52538961E+03</pdfrwt>
<totfact> 0.36196732E+01</totfact>
</mgrwt>
</event>
<event>
12    1  0.3203156E-008  0.9407154E+03  0.7818608E-02  0.9376069E-01
          1   -1    0    0  501    0  0.00000000000E+00  0.00000000000E+00  0.82416265665E+03  0.82416265665E+03  0.00000000000E+00 0. -1.
         -1   -1    0    0    0  501 -0.00000000000E+00 -0.00000000000E+00 -0.11791945394E+04  0.11791945394E+04  0.00000000000E+00 0.  1.
         23    2    1    2    0    0  0.72206013316E+03 -0.49940991269E+03 -0.49719916947E+00  0.88242365773E+03  0.88826616064E+02 0.  0.
    5000000    2    1    2    0    0 -0.72206013316E+03  0.49940991269E+03 -0.35453468362E+03  0.11209335384E+04  0.60001338214E+03 0.  0.
         23    2    4    4    0    0 -0.76008053129E+03  0.35772249361E+03 -0.16166646776E+03  0.86034430210E+03  0.91479368578E+02 0.  0.
         23    2    4    4    0    0  0.38020398130E+02  0.14168741907E+03 -0.19286821585E+03  0.26058923626E+03  0.95852626319E+02 0.  0.
          5    1    3    3  502    0  0.35862685071E+03 -0.29916367499E+03  0.12995795520E+02  0.46722917630E+03  0.47000000000E+01 0. -1.
         -5    1    3    3    0  502  0.36343328245E+03 -0.20024623770E+03 -0.13492994689E+02  0.41519448143E+03  0.47000000000E+01 0.  1.
         13    1    5    5    0    0 -0.33954568112E+03  0.16815466591E+03 -0.27293238563E+02  0.37988443257E+03  0.00000000000E+00 0.  1.
        -13    1    5    5    0    0 -0.42053485017E+03  0.18956782770E+03 -0.13437322920E+03  0.48045986953E+03  0.00000000000E+00 0. -1.
          3    1    6    6  503    0  0.52719140529E+02  0.80039048366E+02 -0.16615056052E+03  0.19181127653E+03  0.00000000000E+00 0. -1.
         -3    1    6    6    0  503 -0.14698742400E+02  0.61648370707E+02 -0.26717655331E+02  0.68777959736E+02  0.00000000000E+00 0.  1.
<mgrwt>
<rscale>  0 0.94071543E+03</rscale>
<asrwt>0</asrwt>
<pdfrwt beam="1">  1        1 0.12679425E+00 0.94071543E+03</pdfrwt>
<pdfrwt beam="2">  1       -1 0.18141454E+00 0.94071543E+03</pdfrwt>
<totfact> 0.43270353E+00</totfact>
</mgrwt>
</event>
<event>
12    1  0.3203156E-008  0.6073598E+03  0.7818608E-02  0.9890253E-01
         -2   -1    0    0    0  501 -0.00000000000E+00  0.00000000000E+00  0.21561806577E+03  0.21561806577E+03  0.00000000000E+00 0.  1.
          2   -1    0    0  501    0  0.00000000000E+00 -0.00000000000E+00 -0.18013278436E+04  0.18013278436E+04  0.00000000000E+00 0. -1.
         23    2    1    2    0    0 -0.46043811171E+03  0.25536074064E+02 -0.78868443211E+03  0.91810812973E+03  0.90796798618E+02 0.  0.
    5000000    2    1    2    0    0  0.46043811171E+03 -0.25536074064E+02 -0.79702534572E+03  0.10988377796E+04  0.59961630933E+03 0.  0.
         23    2    4    4    0    0 -0.87857106296E+02 -0.13706276313E+03 -0.23606063814E+03  0.30059708318E+03  0.90160464570E+02 0.  0.
         23    2    4    4    0    0  0.54829521801E+03  0.11152668907E+03 -0.56096470758E+03  0.79824069644E+03  0.97164591544E+02 0.  0.
          5    1    3    3  502    0 -0.24228027325E+03 -0.79070810487E+01 -0.48993983600E+03  0.54664923455E+03  0.47000000000E+01 0.  1.
         -5    1    3    3    0  502 -0.21815783846E+03  0.33443155112E+02 -0.29874459611E+03  0.37145889518E+03  0.47000000000E+01 0.  1.
         13    1    5    5    0    0 -0.27430096451E+02  0.76884385916E+01 -0.27139995541E+02  0.39345922753E+02  0.00000000000E+00 0.  1.
        -13    1    5    5    0    0 -0.60427009844E+02 -0.14475120172E+03 -0.20892064260E+03  0.26125116042E+03  0.00000000000E+00 0. -1.
          4    1    6    6  503    0  0.19719252961E+03 -0.18748556574E+01 -0.16620906093E+03  0.25790281261E+03  0.00000000000E+00 0. -1.
         -4    1    6    6    0  503  0.35110268840E+03  0.11340154472E+03 -0.39475564665E+03  0.54033788383E+03  0.00000000000E+00 0.  1.
<mgrwt>
<rscale>  0 0.60735981E+03</rscale>
<asrwt>0</asrwt>
<pdfrwt beam="1">  1        2 0.27712736E+00 0.60735981E+03</pdfrwt>
<pdfrwt beam="2">  1       -2 0.33172010E-01 0.60735981E+03</pdfrwt>
<totfact> 0.76121912E+01</totfact>
</mgrwt>
</event>
<event>
12    1  0.3203156E-008  0.2251575E+04  0.7818608E-02  0.8497263E-01
         -2   -1    0    0    0  501 -0.00000000000E+00  0.00000000000E+00  0.28167610833E+04  0.28167610833E+04  0.00000000000E+00 0.  1.
          2   -1    0    0  501    0  0.00000000000E+00 -0.00000000000E+00 -0.18421638325E+04  0.18421638325E+04  0.00000000000E+00 0. -1.
         23    2    1    2    0    0  0.21989541726E+04  0.38619091338E+03  0.63017655105E+03  0.23214930987E+04  0.87549112224E+02 0.  0.
    5000000    2    1    2    0    0 -0.21989541726E+04 -0.38619091338E+03  0.34442069974E+03  0.23374318171E+04  0.60034907042E+03 0.  0.
         23    2    4    4    0    0 -0.15308397701E+04 -0.88239781762E+02  0.43166955394E+03  0.15951663580E+04  0.83429280697E+02 0.  0.
         23    2    4    4    0    0 -0.66811440251E+03 -0.29795113162E+03 -0.87248854202E+02  0.74226545916E+03  0.90520260901E+02 0.  0.
          5    1    3    3  502    0  0.51602747601E+03  0.57035932294E+02  0.16293418336E+03  0.54415723066E+03  0.47000000000E+01 0. -1.
         -5    1    3    3    0  502  0.16829266966E+04  0.32915498109E+03  0.46724236769E+03  0.17773358681E+04  0.47000000000E+01 0.  1.
         11    1    5    5    0    0 -0.24873758984E+03 -0.19871601180E+00  0.41935312647E+02  0.25224789104E+03  0.00000000000E+00 0. -1.
        -11    1    5    5    0    0 -0.12821021803E+04 -0.88041065750E+02  0.38973424129E+03  0.13429184669E+04  0.00000000000E+00 0.  1.
          2    1    6    6  503    0 -0.27072839850E+03 -0.81302938893E+02 -0.59099902670E+02  0.28878509678E+03  0.00000000000E+00 0. -1.
         -2    1    6    6    0  503 -0.39738600401E+03 -0.21664819273E+03 -0.28148951532E+02  0.45348036238E+03  0.00000000000E+00 0.  1.
<mgrwt>
<rscale>  0 0.22515746E+04</rscale>
<asrwt>0</asrwt>
<pdfrwt beam="1">  1        2 0.28340982E+00 0.22515746E+04</pdfrwt>
<pdfrwt beam="2">  1       -2 0.43334786E+00 0.22515746E+04</pdfrwt>
<totfact> 0.31649834E-02</totfact>
</mgrwt>
</event>
<event>
12    1  0.3203156E-008  0.1212910E+04  0.7818608E-02  0.9101631E-01
         -2   -1    0    0    0  501 -0.00000000000E+00  0.00000000000E+00  0.10887834408E+04  0.10887834408E+04  0.00000000000E+00 0.  1.
          2   -1    0    0  501    0  0.00000000000E+00 -0.00000000000E+00 -0.14340808498E+04  0.14340808498E+04  0.00000000000E+00 0. -1.
         23    2    1    2    0    0 -0.11585350429E+04  0.17492644776E+03 -0.65349439619E+02  0.11770669034E+04  0.91723705081E+02 0.  0.
    5000000    2    1    2    0    0  0.11585350429E+04 -0.17492644776E+03 -0.27994796931E+03  0.13457973872E+04  0.59999752848E+03 0.  0.
         23    2    4    4    0    0  0.33899009738E+03 -0.25617030774E+03  0.81781634716E+02  0.44155040502E+03  0.87983019456E+02 0.  0.
         23    2    4    4    0    0  0.81954494550E+03  0.81243859980E+02 -0.36172960403E+03  0.90424698218E+03  0.92519272978E+02 0.  0.
          5    1    3    3  502    0 -0.72201959109E+03  0.11698888813E+03  0.27977800265E+01  0.73145649730E+03  0.47000000000E+01 0. -1.
         -5    1    3    3    0  502 -0.43651545179E+03  0.57937559629E+02 -0.68147219646E+02  0.44561040609E+03  0.47000000000E+01 0.  1.
         13    1    5    5    0    0  0.32327129865E+03 -0.22616975117E+03  0.54952651657E+02  0.39834267007E+03  0.00000000000E+00 0.  1.
        -13    1    5    5    0    0  0.15718798729E+02 -0.30000556562E+02  0.26828983059E+02  0.43207734949E+02  0.00000000000E+00 0. -1.
          2    1    6    6  503    0  0.10888019620E+03 -0.88743732930E+01 -0.75659208899E+02  0.13288328532E+03  0.00000000000E+00 0.  1.
         -2    1    6    6    0  503  0.71066474930E+03  0.90118233273E+02 -0.28607039513E+03  0.77136369687E+03  0.00000000000E+00 0. -1.
<mgrwt>
<rscale>  0 0.12129100E+04</rscale>
<asrwt>0</asrwt>
<pdfrwt beam="1">  1        2 0.22062782E+00 0.12129100E+04</pdfrwt>
<pdfrwt beam="2">  1       -2 0.16750515E+00 0.12129100E+04</pdfrwt>
<totfact> 0.29797741E+00</totfact>
</mgrwt>
</event>
<event>
12    1  0.3203156E-008  0.5706660E+03  0.7818608E-02  0.9968206E-01
          1   -1    0    0  501    0  0.00000000000E+00  0.00000000000E+00  0.13650531660E+04  0.13650531660E+04  0.00000000000E+00 0.  1.
         -1   -1    0    0    0  501 -0.00000000000E+00 -0.00000000000E+00 -0.25008788383E+03  0.25008788383E+03  0.00000000000E+00 0. -1.
         23    2    1    2    0    0  0.21381225200E+03  0.36000894931E+03  0.50679591649E+03  0.66373383347E+03  0.91533480418E+02 0.  0.
    5000000    2    1    2    0    0 -0.21381225200E+03 -0.36000894931E+03  0.60816936565E+03  0.95140721633E+03  0.59998632591E+03 0.  0.
         23    2    4    4    0    0  0.10709580734E+03  0.92239581487E+02  0.11815368982E+03  0.20596869388E+03  0.92114907028E+02 0.  0.
         23    2    4    4    0    0 -0.32090805933E+03 -0.45224853079E+03  0.49001567582E+03  0.74543852245E+03  0.89735790202E+02 0.  0.
          5    1    3    3  502    0  0.92623560177E+01  0.65214721133E+02  0.11367855268E+03  0.13146731316E+03  0.47000000000E+01 0.  1.
         -5    1    3    3    0  502  0.20454989598E+03  0.29479422817E+03  0.39311736382E+03  0.53226652031E+03  0.47000000000E+01 0. -1.
         11    1    5    5    0    0  0.60243799627E+02  0.10442393128E+02  0.87694083331E+02  0.10690468287E+03  0.00000000000E+00 0. -1.
        -11    1    5    5    0    0  0.46852007712E+02  0.81797188359E+02  0.30459606493E+02  0.99064011012E+02  0.00000000000E+00 0.  1.
          3    1    6    6  503    0 -0.39098005874E+02 -0.11550590761E+03  0.91473680357E+02  0.15243917788E+03  0.00000000000E+00 0. -1.
         -3    1    6    6    0  503 -0.28181005346E+03 -0.33674262318E+03  0.39854199547E+03  0.59299934456E+03  0.00000000000E+00 0.  1.
<mgrwt>
<rscale>  0 0.57066602E+03</rscale>
<asrwt>0</asrwt>
<pdfrwt beam="1">  1        1 0.21000818E+00 0.57066602E+03</pdfrwt>
<pdfrwt beam="2">  1       -1 0.38475060E-01 0.57066602E+03</pdfrwt>
<totfact> 0.55741629E+01</totfact>
</mgrwt>
</event>
<event>
12    1  0.3203156E-008  0.8179397E+03  0.7818608E-02  0.9534407E-01
         -2   -1    0    0    0  501 -0.00000000000E+00  0.00000000000E+00  0.36280587758E+03  0.36280587758E+03  0.00000000000E+00 0.  1.
          2   -1    0    0  501    0  0.00000000000E+00 -0.00000000000E+00 -0.22350113887E+04  0.22350113887E+04  0.00000000000E+00 0. -1.
         23    2    1    2    0    0  0.70998949122E+03 -0.18706465819E+03 -0.12836876424E+04  0.14818439343E+04  0.94494540458E+02 0.  0.
    5000000    2    1    2    0    0 -0.70998949122E+03  0.18706465819E+03 -0.58851786867E+03  0.11159733320E+04  0.59997077596E+03 0.  0.
         23    2    4    4    0    0 -0.77023058888E+03  0.23085476856E+03 -0.41771264531E+03  0.91078766549E+03  0.92202133110E+02 0.  0.
         23    2    4    4    0    0  0.60241097655E+02 -0.43790110368E+02 -0.17080522335E+03  0.20518566651E+03  0.85907914666E+02 0.  0.
          5    1    3    3  502    0  0.46466112443E+03 -0.16791217486E+03 -0.86599907433E+03  0.99703608047E+03  0.47000000000E+01 0. -1.
         -5    1    3    3    0  502  0.24532836679E+03 -0.19152483337E+02 -0.41768856811E+03  0.48480785379E+03  0.47000000000E+01 0.  1.
         13    1    5    5    0    0 -0.46670608035E+03  0.93446472313E+02 -0.23564162663E+03  0.53110618978E+03  0.00000000000E+00 0.  1.
        -13    1    5    5    0    0 -0.30352450853E+03  0.13740829625E+03 -0.18207101868E+03  0.37968147571E+03  0.00000000000E+00 0. -1.
          3    1    6    6  503    0  0.45731197261E+01 -0.28396964996E+02 -0.13318873121E+03  0.13625908838E+03  0.00000000000E+00 0. -1.
         -3    1    6    6    0  503  0.55667977929E+02 -0.15393145372E+02 -0.37616492147E+02  0.68926578129E+02  0.00000000000E+00 0.  1.
<mgrwt>
<rscale>  0 0.81793972E+03</rscale>
<asrwt>0</asrwt>
<pdfrwt beam="1">  1        2 0.34384792E+00 0.81793972E+03</pdfrwt>
<pdfrwt beam="2">  1       -2 0.55816287E-01 0.81793972E+03</pdfrwt>
<totfact> 0.15325890E+01</totfact>
</mgrwt>
</event>
<event>
12    1  0.3203156E-008  0.7471877E+03  0.7818608E-02  0.9639773E-01
         -2   -1    0    0    0  501 -0.00000000000E+00  0.00000000000E+00  0.53219593892E+03  0.53219593892E+03  0.00000000000E+00 0.  1.
          2   -1    0    0  501    0  0.00000000000E+00 -0.00000000000E+00 -0.12034011414E+04  0.12034011414E+04  0.00000000000E+00 0. -1.
         23    2    1    2    0    0 -0.35325841762E+03  0.57051996853E+03 -0.14419432789E+03  0.69261353659E+03  0.92935261070E+02 0.  0.
    5000000    2    1    2    0    0  0.35325841762E+03 -0.57051996853E+03 -0.52701087457E+03  0.10429835437E+04  0.59982469642E+03 0.  0.
         23    2    4    4    0    0 -0.24259930471E+01 -0.40997123005E+03 -0.48291748084E+03  0.63988717700E+03  0.90354917271E+02 0.  0.
         23    2    4    4    0    0  0.35568441067E+03 -0.16054873848E+03 -0.44093393726E+02  0.40309636671E+03  0.90857889399E+02 0.  0.
          5    1    3    3  502    0 -0.31570456842E+03  0.44155490698E+03 -0.12235983780E+03  0.55644777859E+03  0.47000000000E+01 0. -1.
         -5    1    3    3    0  502 -0.37553849205E+02  0.12896506155E+03 -0.21834490098E+02  0.13616575799E+03  0.47000000000E+01 0.  1.
         13    1    5    5    0    0  0.18565414810E+02 -0.17064250586E+02 -0.41511109789E+02  0.48569903346E+02  0.00000000000E+00 0.  1.
        -13    1    5    5    0    0 -0.20991407857E+02 -0.39290697946E+03 -0.44140637105E+03  0.59131727365E+03  0.00000000000E+00 0. -1.
          1    1    6    6  503    0  0.27369425184E+02  0.91795839856E+01  0.77392760751E+01  0.29887231240E+02  0.00000000000E+00 0. -1.
         -1    1    6    6    0  503  0.32831498549E+03 -0.16972832247E+03 -0.51832669801E+02  0.37320913547E+03  0.00000000000E+00 0.  1.
<mgrwt>
<rscale>  0 0.74718771E+03</rscale>
<asrwt>0</asrwt>
<pdfrwt beam="1">  1        2 0.18513864E+00 0.74718771E+03</pdfrwt>
<pdfrwt beam="2">  1       -2 0.81876298E-01 0.74718771E+03</pdfrwt>
<totfact> 0.25206674E+01</totfact>
</mgrwt>
</event>
<event>
12    1  0.3203156E-008  0.7756370E+03  0.7818608E-02  0.9595967E-01
          1   -1    0    0  501    0  0.00000000000E+00  0.00000000000E+00  0.35567903593E+04  0.35567903593E+04  0.00000000000E+00 0. -1.
         -1   -1    0    0    0  501 -0.00000000000E+00 -0.00000000000E+00 -0.42582925542E+03  0.42582925542E+03  0.00000000000E+00 0.  1.
         23    2    1    2    0    0 -0.70894875572E+03  0.28139949211E+03  0.69919820940E+02  0.77138906003E+03  0.91423674108E+02 0.  0.
    5000000    2    1    2    0    0  0.70894875572E+03 -0.28139949211E+03  0.30610412830E+04  0.32112305547E+04  0.60019490765E+03 0.  0.
         23    2    4    4    0    0  0.17652316346E+03  0.44703156477E+01  0.17926999963E+04  0.18037686331E+04  0.92884842229E+02 0.  0.
         23    2    4    4    0    0  0.53242559225E+03 -0.28586980776E+03  0.12683412867E+04  0.14074619216E+04  0.84029061583E+02 0.  0.
          5    1    3    3  502    0 -0.22047091926E+03  0.58015666499E+02  0.52308828099E+02  0.23394774480E+03  0.47000000000E+01 0. -1.
         -5    1    3    3    0  502 -0.48847783645E+03  0.22338382561E+03  0.17610992841E+02  0.53744131523E+03  0.47000000000E+01 0.  1.
         13    1    5    5    0    0  0.39268861750E+02 -0.21206969399E+01  0.87044044445E+03  0.87132835842E+03  0.00000000000E+00 0.  1.
        -13    1    5    5    0    0  0.13725430171E+03  0.65910125876E+01  0.92225955187E+03  0.93244027466E+03  0.00000000000E+00 0. -1.
          3    1    6    6  503    0  0.65097118936E+02 -0.78129972964E+01  0.11574014108E+03  0.13302051751E+03  0.00000000000E+00 0. -1.
         -3    1    6    6    0  503  0.46732847332E+03 -0.27805681046E+03  0.11526011456E+04  0.12744414041E+04  0.00000000000E+00 0.  1.
<mgrwt>
<rscale>  0 0.77563701E+03</rscale>
<asrwt>0</asrwt>
<pdfrwt beam="1">  1        1 0.54719850E+00 0.77563701E+03</pdfrwt>
<pdfrwt beam="2">  1       -1 0.65512196E-01 0.77563701E+03</pdfrwt>
<totfact> 0.57991047E-01</totfact>
</mgrwt>
</event>
<event>
12    1  0.3203156E-008  0.5531341E+03  0.7818608E-02  0.1000771E+00
         -1   -1    0    0    0  501 -0.00000000000E+00  0.00000000000E+00  0.54256062320E+03  0.54256062320E+03  0.00000000000E+00 0.  1.
          1   -1    0    0  501    0  0.00000000000E+00 -0.00000000000E+00 -0.86065615830E+03  0.86065615830E+03  0.00000000000E+00 0. -1.
         23    2    1    2    0    0 -0.23864478236E+03  0.48573574225E+03 -0.46337202718E+02  0.55071076153E+03  0.90800127004E+02 0.  0.
    5000000    2    1    2    0    0  0.23864478236E+03 -0.48573574225E+03 -0.27175833238E+03  0.85250601996E+03  0.60001948253E+03 0.  0.
         23    2    4    4    0    0  0.90581299119E+02 -0.91217738128E+02 -0.37581963703E+03  0.40854153539E+03  0.95604074520E+02 0.  0.
         23    2    4    4    0    0  0.14806348324E+03 -0.39451800412E+03  0.10406130465E+03  0.44396448457E+03  0.93319118026E+02 0.  0.
          5    1    3    3  502    0 -0.86210226418E+02  0.12527001855E+03  0.20925497624E+02  0.15357326309E+03  0.47000000000E+01 0. -1.
         -5    1    3    3    0  502 -0.15243455594E+03  0.36046572370E+03 -0.67262700342E+02  0.39713749844E+03  0.47000000000E+01 0.  1.
         13    1    5    5    0    0  0.41108023446E+02 -0.72964069129E+02 -0.11394967851E+03  0.14141483023E+03  0.00000000000E+00 0. -1.
        -13    1    5    5    0    0  0.49473275673E+02 -0.18253668998E+02 -0.26186995852E+03  0.26712670517E+03  0.00000000000E+00 0.  1.
          3    1    6    6  503    0  0.69186125372E+02 -0.27099650384E+03  0.34736601940E+02  0.28183764219E+03  0.00000000000E+00 0. -1.
         -3    1    6    6    0  503  0.78877357871E+02 -0.12352150028E+03  0.69324702708E+02  0.16212684238E+03  0.00000000000E+00 0.  1.
<mgrwt>
<rscale>  0 0.55313412E+03</rscale>
<asrwt>0</asrwt>
<pdfrwt beam="1">  1        1 0.13240864E+00 0.55313412E+03</pdfrwt>
<pdfrwt beam="2">  1       -1 0.83470866E-01 0.55313412E+03</pdfrwt>
<totfact> 0.29388055E+01</totfact>
</mgrwt>
</event>
<event>
12    1  0.3203156E-008  0.9636009E+03  0.7818608E-02  0.9349393E-01
          1   -1    0    0  501    0  0.00000000000E+00  0.00000000000E+00  0.22923678767E+04  0.22923678767E+04  0.00000000000E+00 0. -1.
         -1   -1    0    0    0  501 -0.00000000000E+00 -0.00000000000E+00 -0.49711297248E+03  0.49711297248E+03  0.00000000000E+00 0.  1.
         23    2    1    2    0    0  0.89289954908E+03  0.20925061540E+03  0.12833595222E+04  0.15799746013E+04  0.90844111483E+02 0.  0.
    5000000    2    1    2    0    0 -0.89289954908E+03 -0.20925061540E+03  0.51189538200E+03  0.12095062479E+04  0.59984419379E+03 0.  0.
         23    2    4    4    0    0 -0.60880362807E+02  0.72248970017E+02 -0.72721964301E+02  0.15042431625E+03  0.91720546136E+02 0.  0.
         23    2    4    4    0    0 -0.83201918628E+03 -0.28149958542E+03  0.58461734630E+03  0.10590819317E+04  0.91537715995E+02 0.  0.
          5    1    3    3  502    0  0.47054610590E+03  0.15590314145E+03  0.67765762618E+03  0.83961978038E+03  0.47000000000E+01 0. -1.
         -5    1    3    3    0  502  0.42235344318E+03  0.53347473953E+02  0.60570189603E+03  0.74035482088E+03  0.47000000000E+01 0.  1.
         13    1    5    5    0    0  0.19260614749E+02 -0.33107847973E+00 -0.26678992991E+02  0.32906679572E+02  0.00000000000E+00 0. -1.
        -13    1    5    5    0    0 -0.80140977555E+02  0.72580048496E+02 -0.46042971310E+02  0.11751763668E+03  0.00000000000E+00 0.  1.
          2    1    6    6  503    0 -0.42319408813E+03 -0.14516234433E+03  0.35255425720E+03  0.56961376977E+03  0.00000000000E+00 0. -1.
         -2    1    6    6    0  503 -0.40882509814E+03 -0.13633724109E+03  0.23206308909E+03  0.48946816189E+03  0.00000000000E+00 0.  1.
<mgrwt>
<rscale>  0 0.96360091E+03</rscale>
<asrwt>0</asrwt>
<pdfrwt beam="1">  1        1 0.35267197E+00 0.96360091E+03</pdfrwt>
<pdfrwt beam="2">  1       -1 0.76478920E-01 0.96360091E+03</pdfrwt>
<totfact> 0.32997420E+00</totfact>
</mgrwt>
</event>
<event>
12    1  0.3203156E-008  0.6635125E+03  0.7818608E-02  0.9781749E-01
          1   -1    0    0  501    0  0.00000000000E+00  0.00000000000E+00  0.98850899721E+03  0.98850899721E+03  0.00000000000E+00 0. -1.
         -1   -1    0    0    0  501 -0.00000000000E+00 -0.00000000000E+00 -0.71167245536E+03  0.71167245536E+03  0.00000000000E+00 0.  1.
         23    2    1    2    0    0  0.11630020061E+03 -0.58760517979E+03  0.54091393685E+03  0.81218745913E+03  0.90857017932E+02 0.  0.
    5000000    2    1    2    0    0 -0.11630020061E+03  0.58760517979E+03 -0.26407739501E+03  0.88799399344E+03  0.59999239817E+03 0.  0.
         23    2    4    4    0    0 -0.25964138983E+03  0.43904496149E+03  0.26841355857E+02  0.51969043953E+03  0.95830918991E+02 0.  0.
         23    2    4    4    0    0  0.14334118922E+03  0.14856021830E+03 -0.29091875086E+03  0.36830355391E+03  0.91634890900E+02 0.  0.
          5    1    3    3  502    0  0.50290168292E+02 -0.17562831276E+03  0.21868937196E+03  0.28499392393E+03  0.47000000000E+01 0. -1.
         -5    1    3    3    0  502  0.66010032320E+02 -0.41197686703E+03  0.32222456490E+03  0.52719353520E+03  0.47000000000E+01 0.  1.
         13    1    5    5    0    0 -0.47980709615E+02  0.58818686235E+02  0.36910327215E+02  0.84404730914E+02  0.00000000000E+00 0.  1.
        -13    1    5    5    0    0 -0.21166068022E+03  0.38022627525E+03 -0.10068971358E+02  0.43528570862E+03  0.00000000000E+00 0. -1.
          1    1    6    6  503    0  0.14672601478E+03  0.12680716013E+03 -0.28631832352E+03  0.34581318896E+03  0.00000000000E+00 0. -1.
         -1    1    6    6    0  503 -0.33848255575E+01  0.21753058173E+02 -0.46004273390E+01  0.22490364951E+02  0.00000000000E+00 0.  1.
<mgrwt>
<rscale>  0 0.66351251E+03</rscale>
<asrwt>0</asrwt>
<pdfrwt beam="1">  1        1 0.15207831E+00 0.66351251E+03</pdfrwt>
<pdfrwt beam="2">  1       -1 0.10948807E+00 0.66351251E+03</pdfrwt>
<totfact> 0.12447233E+01</totfact>
</mgrwt>
</event>
<event>
12    1  0.3203156E-008  0.6391473E+03  0.7818608E-02  0.9827359E-01
          2   -1    0    0  501    0  0.00000000000E+00  0.00000000000E+00  0.10058250239E+04  0.10058250239E+04  0.00000000000E+00 0. -1.
         -2   -1    0    0    0  501 -0.00000000000E+00 -0.00000000000E+00 -0.55855294228E+03  0.55855294228E+03  0.00000000000E+00 0.  1.
         23    2    1    2    0    0  0.56562164221E+03 -0.26503378572E+03  0.14965310057E+03  0.64874816884E+03  0.91144864655E+02 0.  0.
    5000000    2    1    2    0    0 -0.56562164221E+03  0.26503378572E+03  0.29761898104E+03  0.91562979734E+03  0.59969168594E+03 0.  0.
         23    2    4    4    0    0 -0.37497299236E+03  0.14871295747E+03 -0.12224076567E+03  0.43126322644E+03  0.91240763753E+02 0.  0.
         23    2    4    4    0    0 -0.19064864985E+03  0.11632082825E+03  0.41985974672E+03  0.48436657090E+03  0.91931090021E+02 0.  0.
          5    1    3    3  502    0  0.18410647262E+03 -0.99381194319E+02  0.92818491737E+02  0.22893050791E+03  0.47000000000E+01 0. -1.
         -5    1    3    3    0  502  0.38151516959E+03 -0.16565259140E+03  0.56834608834E+02  0.41981766093E+03  0.47000000000E+01 0.  1.
         13    1    5    5    0    0 -0.10665485009E+03  0.88425239777E+02 -0.38718416944E+02  0.14385199299E+03  0.00000000000E+00 0.  1.
        -13    1    5    5    0    0 -0.26831814227E+03  0.60287717698E+02 -0.83522348731E+02  0.28741123345E+03  0.00000000000E+00 0. -1.
          3    1    6    6  503    0 -0.83023721765E+02  0.10110599382E+03  0.25992384951E+03  0.29099101001E+03  0.00000000000E+00 0. -1.
         -3    1    6    6    0  503 -0.10762492809E+03  0.15214834427E+02  0.15993589721E+03  0.19337556089E+03  0.00000000000E+00 0.  1.
<mgrwt>
<rscale>  0 0.63914728E+03</rscale>
<asrwt>0</asrwt>
<pdfrwt beam="1">  1        2 0.15474231E+00 0.63914728E+03</pdfrwt>
<pdfrwt beam="2">  1       -2 0.85931222E-01 0.63914728E+03</pdfrwt>
<totfact> 0.30175484E+01</totfact>
</mgrwt>
</event>
<event>
12    1  0.3203156E-008  0.6018885E+03  0.7818608E-02  0.9901496E-01
         -2   -1    0    0    0  501 -0.00000000000E+00  0.00000000000E+00  0.52150481270E+03  0.52150481270E+03  0.00000000000E+00 0. -1.
          2   -1    0    0  501    0  0.00000000000E+00 -0.00000000000E+00 -0.70680788364E+03  0.70680788364E+03  0.00000000000E+00 0.  1.
         23    2    1    2    0    0 -0.38722800918E+03 -0.23509507330E+03 -0.66645133382E+02  0.46645049397E+03  0.88990251895E+02 0.  0.
    5000000    2    1    2    0    0  0.38722800918E+03  0.23509507330E+03 -0.11865793755E+03  0.76186220237E+03  0.60094848754E+03 0.  0.
         23    2    4    4    0    0  0.16305762523E+03  0.40944255590E+03 -0.10511655766E+03  0.46331622419E+03  0.96857819401E+02 0.  0.
         23    2    4    4    0    0  0.22417038395E+03 -0.17434748260E+03 -0.13541379896E+02  0.29854597818E+03  0.91087465606E+02 0.  0.
          5    1    3    3  502    0 -0.19561688140E+03 -0.67822724642E+02 -0.36306382224E+02  0.21025253781E+03  0.47000000000E+01 0. -1.
         -5    1    3    3    0  502 -0.19161112779E+03 -0.16727234866E+03 -0.30338751158E+02  0.25619795616E+03  0.47000000000E+01 0.  1.
         13    1    5    5    0    0  0.90851727684E+02  0.11596289420E+03 -0.15776072809E+02  0.14815638268E+03  0.00000000000E+00 0. -1.
        -13    1    5    5    0    0  0.72205897543E+02  0.29347966169E+03 -0.89340484848E+02  0.31515984151E+03  0.00000000000E+00 0.  1.
          4    1    6    6  503    0  0.20771633863E+03 -0.12903022165E+03  0.10329803935E+02  0.24474799342E+03  0.00000000000E+00 0. -1.
         -4    1    6    6    0  503  0.16454045323E+02 -0.45317260948E+02 -0.23871183831E+02  0.53797984765E+02  0.00000000000E+00 0.  1.
<mgrwt>
<rscale>  0 0.60188849E+03</rscale>
<asrwt>0</asrwt>
<pdfrwt beam="1">  1        2 0.10873967E+00 0.60188849E+03</pdfrwt>
<pdfrwt beam="2">  1       -2 0.80231509E-01 0.60188849E+03</pdfrwt>
<totfact> 0.56976624E+01</totfact>
</mgrwt>
</event>
<event>
12    1  0.3203156E-008  0.4287775E+03  0.7818608E-02  0.1034247E+00
         -2   -1    0    0    0  501 -0.00000000000E+00  0.00000000000E+00  0.37297546457E+03  0.37297546457E+03  0.00000000000E+00 0.  1.
          2   -1    0    0  501    0  0.00000000000E+00 -0.00000000000E+00 -0.92364213057E+03  0.92364213057E+03  0.00000000000E+00 0. -1.
         23    2    1    2    0    0 -0.47030097166E+02  0.36854527217E+03  0.28358954755E+02  0.38374854100E+03  0.91767449146E+02 0.  0.
    5000000    2    1    2    0    0  0.47030097166E+02 -0.36854527217E+03 -0.57902562076E+03  0.91286905414E+03  0.60001816042E+03 0.  0.
         23    2    4    4    0    0  0.93103396795E+02 -0.37154045547E+03 -0.66955892998E+03  0.77641392910E+03  0.88311245287E+02 0.  0.
         23    2    4    4    0    0 -0.46073299629E+02  0.29951832971E+01  0.90533309221E+02  0.13645512504E+03  0.91060425040E+02 0.  0.
          5    1    3    3  502    0  0.21461308176E+02  0.56852576498E+02 -0.11757191147E+02  0.62073543050E+02  0.47000000000E+01 0. -1.
         -5    1    3    3    0  502 -0.68491405342E+02  0.31169269567E+03  0.40116145902E+02  0.32167499795E+03  0.47000000000E+01 0.  1.
         13    1    5    5    0    0  0.61376765757E+02 -0.95723200363E+02 -0.22885289373E+03  0.25554585778E+03  0.00000000000E+00 0.  1.
        -13    1    5    5    0    0  0.31726631038E+02 -0.27581725511E+03 -0.44070603625E+03  0.52086807132E+03  0.00000000000E+00 0. -1.
          2    1    6    6  503    0 -0.42921646756E+02 -0.30371104876E+02  0.16368167618E+02  0.55068944813E+02  0.00000000000E+00 0. -1.
         -2    1    6    6    0  503 -0.31516528726E+01  0.33366288173E+02  0.74165141603E+02  0.81386180223E+02  0.00000000000E+00 0.  1.
<mgrwt>
<rscale>  0 0.42877747E+03</rscale>
<asrwt>0</asrwt>
<pdfrwt beam="1">  1        2 0.14209879E+00 0.42877747E+03</pdfrwt>
<pdfrwt beam="2">  1       -2 0.57380842E-01 0.42877747E+03</pdfrwt>
<totfact> 0.84100650E+01</totfact>
</mgrwt>
</event>
<event>
12    1  0.3203156E-008  0.1279101E+04  0.7818608E-02  0.9046305E-01
          1   -1    0    0  501    0  0.00000000000E+00  0.00000000000E+00  0.18632769461E+04  0.18632769461E+04  0.00000000000E+00 0. -1.
         -1   -1    0    0    0  501 -0.00000000000E+00 -0.00000000000E+00 -0.91289434090E+03  0.91289434090E+03  0.00000000000E+00 0.  1.
         23    2    1    2    0    0 -0.62452987751E+03 -0.10453726356E+04  0.24430121994E+03  0.12459662286E+04  0.99535127463E+02 0.  0.
    5000000    2    1    2    0    0  0.62452987751E+03  0.10453726356E+04  0.70608138528E+03  0.15302050584E+04  0.60011255845E+03 0.  0.
         23    2    4    4    0    0 -0.87134655834E+02  0.17714626312E+03  0.39932028598E+02  0.22155483392E+03  0.92296970392E+02 0.  0.
         23    2    4    4    0    0  0.71166453335E+03  0.86822637252E+03  0.66614935669E+03  0.13086502245E+04  0.92341770620E+02 0.  0.
          5    1    3    3  502    0 -0.36091196224E+03 -0.63689757622E+03  0.19307863427E+03  0.75709802277E+03  0.47000000000E+01 0. -1.
         -5    1    3    3    0  502 -0.26361791528E+03 -0.40847505943E+03  0.51222585670E+02  0.48886820587E+03  0.47000000000E+01 0.  1.
         11    1    5    5    0    0  0.13823836262E+02  0.55979178926E+02 -0.41059204495E+01  0.57806794626E+02  0.00000000000E+00 0. -1.
        -11    1    5    5    0    0 -0.10095849210E+03  0.12116708419E+03  0.44037949048E+02  0.16374803930E+03  0.00000000000E+00 0.  1.
          2    1    6    6  503    0  0.39728032503E+03  0.53610803037E+03  0.35841562056E+03  0.75743331980E+03  0.00000000000E+00 0. -1.
         -2    1    6    6    0  503  0.31438420832E+03  0.33211834215E+03  0.30773373612E+03  0.55121690466E+03  0.00000000000E+00 0.  1.
<mgrwt>
<rscale>  0 0.12791007E+04</rscale>
<asrwt>0</asrwt>
<pdfrwt beam="1">  1        1 0.28665799E+00 0.12791007E+04</pdfrwt>
<pdfrwt beam="2">  1       -1 0.14044528E+00 0.12791007E+04</pdfrwt>
<totfact> 0.14931780E+00</totfact>
</mgrwt>
</event>
<event>
12    1  0.3203156E-008  0.7177154E+03  0.7818608E-02  0.9687407E-01
         -2   -1    0    0    0  501 -0.00000000000E+00  0.00000000000E+00  0.23224510327E+03  0.23224510327E+03  0.00000000000E+00 0.  1.
          2   -1    0    0  501    0  0.00000000000E+00 -0.00000000000E+00 -0.24388273215E+04  0.24388273215E+04  0.00000000000E+00 0. -1.
         23    2    1    2    0    0  0.26215658283E+03 -0.56369475606E+03 -0.75995151473E+03  0.98608450040E+03  0.91424751932E+02 0.  0.
    5000000    2    1    2    0    0 -0.26215658283E+03  0.56369475606E+03 -0.14466307035E+04  0.16849879244E+04  0.59997171684E+03 0.  0.
         23    2    4    4    0    0  0.99066384759E+01  0.52477837879E+03 -0.66905423927E+03  0.85514574197E+03  0.90278328477E+02 0.  0.
         23    2    4    4    0    0 -0.27206322131E+03  0.38916377275E+02 -0.77757646423E+03  0.82984218240E+03  0.92086965151E+02 0.  0.
          5    1    3    3  502    0  0.11369614193E+03 -0.28160675972E+03 -0.30397517989E+03  0.42971174036E+03  0.47000000000E+01 0. -1.
         -5    1    3    3    0  502  0.14846044090E+03 -0.28208799634E+03 -0.45597633483E+03  0.55637276005E+03  0.47000000000E+01 0.  1.
         11    1    5    5    0    0  0.16815750326E+02  0.18995215656E+03 -0.31158995331E+03  0.36531204503E+03  0.00000000000E+00 0.  1.
        -11    1    5    5    0    0 -0.69091118505E+01  0.33482622223E+03 -0.35746428596E+03  0.48983369694E+03  0.00000000000E+00 0. -1.
          1    1    6    6  503    0 -0.14821703339E+03 -0.21050521598E+02 -0.45969470564E+03  0.48345696380E+03  0.00000000000E+00 0. -1.
         -1    1    6    6    0  503 -0.12384618792E+03  0.59966898873E+02 -0.31788175859E+03  0.34638521860E+03  0.00000000000E+00 0.  1.
<mgrwt>
<rscale>  0 0.71771540E+03</rscale>
<asrwt>0</asrwt>
<pdfrwt beam="1">  1        2 0.37520422E+00 0.71771540E+03</pdfrwt>
<pdfrwt beam="2">  1       -2 0.35730014E-01 0.71771540E+03</pdfrwt>
<totfact> 0.29115542E+01</totfact>
</mgrwt>
</event>
<event>
12    1  0.3203156E-008  0.7738909E+03  0.7818608E-02  0.9598597E-01
         -2   -1    0    0    0  501 -0.00000000000E+00  0.00000000000E+00  0.30772701562E+03  0.30772701562E+03  0.00000000000E+00 0.  1.
          2   -1    0    0  501    0  0.00000000000E+00 -0.00000000000E+00 -0.21960858067E+04  0.21960858067E+04  0.00000000000E+00 0. -1.
         23    2    1    2    0    0 -0.63845800197E+03 -0.23435011256E+03 -0.11277492022E+04  0.13202053485E+04  0.92602935992E+02 0.  0.
    5000000    2    1    2    0    0  0.63845800197E+03  0.23435011256E+03 -0.76060958892E+03  0.11836074738E+04  0.59987591194E+03 0.  0.
         23    2    4    4    0    0 -0.45355665285E+02 -0.73891487981E+02 -0.17572360174E+02  0.12458400648E+03  0.87722850267E+02 0.  0.
         23    2    4    4    0    0  0.68381366725E+03  0.30824160054E+03 -0.74303722874E+03  0.10590234673E+04  0.82537053474E+02 0.  0.
          5    1    3    3  502    0 -0.24607118922E+03 -0.11546216872E+03 -0.37717549275E+03  0.46493653858E+03  0.47000000000E+01 0. -1.
         -5    1    3    3    0  502 -0.39238681275E+03 -0.11888794384E+03 -0.75057370942E+03  0.85526880996E+03  0.47000000000E+01 0.  1.
         13    1    5    5    0    0 -0.37785973766E+02 -0.89131599896E+02 -0.32323496356E+02  0.10206385418E+03  0.00000000000E+00 0. -1.
        -13    1    5    5    0    0 -0.75696915185E+01  0.15240111916E+02  0.14751136182E+02  0.22520152299E+02  0.00000000000E+00 0.  1.
          2    1    6    6  503    0  0.22193609242E+03  0.12850434595E+03 -0.29526883011E+03  0.39109164921E+03  0.00000000000E+00 0. -1.
         -2    1    6    6    0  503  0.46187757483E+03  0.17973725459E+03 -0.44776839863E+03  0.66793181810E+03  0.00000000000E+00 0.  1.
<mgrwt>
<rscale>  0 0.77389085E+03</rscale>
<asrwt>0</asrwt>
<pdfrwt beam="1">  1        2 0.33785936E+00 0.77389085E+03</pdfrwt>
<pdfrwt beam="2">  1       -2 0.47342617E-01 0.77389085E+03</pdfrwt>
<totfact> 0.22703169E+01</totfact>
</mgrwt>
</event>
<event>
12    1  0.3203156E-008  0.1248757E+04  0.7818608E-02  0.9071218E-01
         -2   -1    0    0    0  501 -0.00000000000E+00  0.00000000000E+00  0.69442786667E+03  0.69442786667E+03  0.00000000000E+00 0.  1.
          2   -1    0    0  501    0  0.00000000000E+00 -0.00000000000E+00 -0.23434471284E+04  0.23434471284E+04  0.00000000000E+00 0. -1.
         23    2    1    2    0    0  0.10132067918E+04  0.60725225127E+03 -0.10521803087E+04  0.15847277377E+04  0.94526721161E+02 0.  0.
    5000000    2    1    2    0    0 -0.10132067918E+04 -0.60725225127E+03 -0.59683895303E+03  0.14531472574E+04  0.60006409344E+03 0.  0.
         23    2    4    4    0    0 -0.62696829765E+03 -0.46333526011E+02 -0.24376424647E+03  0.68042859916E+03  0.91247075600E+02 0.  0.
         23    2    4    4    0    0 -0.38623849414E+03 -0.56091872526E+03 -0.35307470656E+03  0.77271865824E+03  0.92856802040E+02 0.  0.
          5    1    3    3  502    0  0.26117648685E+03  0.14092633603E+03 -0.31722497471E+03  0.43442739790E+03  0.47000000000E+01 0. -1.
         -5    1    3    3    0  502  0.75203030494E+03  0.46632591524E+03 -0.73495533403E+03  0.11503003398E+04  0.47000000000E+01 0.  1.
         13    1    5    5    0    0 -0.31883883709E+03  0.10132508523E+02 -0.15602870202E+03  0.35511382348E+03  0.00000000000E+00 0.  1.
        -13    1    5    5    0    0 -0.30812946055E+03 -0.56466034535E+02 -0.87735544448E+02  0.32531477568E+03  0.00000000000E+00 0. -1.
          3    1    6    6  503    0 -0.23047275354E+03 -0.28314784988E+03 -0.14805931766E+03  0.39396948684E+03  0.00000000000E+00 0. -1.
         -3    1    6    6    0  503 -0.15576574060E+03 -0.27777087537E+03 -0.20501538890E+03  0.37874917140E+03  0.00000000000E+00 0.  1.
<mgrwt>
<rscale>  0 0.12487570E+04</rscale>
<asrwt>0</asrwt>
<pdfrwt beam="1">  1        2 0.36053033E+00 0.12487570E+04</pdfrwt>
<pdfrwt beam="2">  1       -2 0.10683506E+00 0.12487570E+04</pdfrwt>
<totfact> 0.29455240E+00</totfact>
</mgrwt>
</event>
<event>
12    1  0.3203156E-008  0.1101898E+04  0.7818608E-02  0.9203344E-01
         -1   -1    0    0    0  501 -0.00000000000E+00  0.00000000000E+00  0.91954510701E+03  0.91954510701E+03  0.00000000000E+00 0.  1.
          1   -1    0    0  501    0  0.00000000000E+00 -0.00000000000E+00 -0.24209965675E+04  0.24209965675E+04  0.00000000000E+00 0. -1.
         23    2    1    2    0    0 -0.80427504738E+03 -0.74062154941E+03  0.31109840754E+03  0.11403876364E+04  0.91231085157E+02 0.  0.
    5000000    2    1    2    0    0  0.80427504738E+03  0.74062154941E+03 -0.18125498680E+04  0.22001540380E+04  0.59996844569E+03 0.  0.
         23    2    4    4    0    0  0.57136361838E+03  0.61282343370E+03 -0.17031421908E+04  0.19002691214E+04  0.91216589180E+02 0.  0.
         23    2    4    4    0    0  0.23291142900E+03  0.12779811571E+03 -0.10940767716E+03  0.29988491666E+03  0.85911764528E+02 0.  0.
          5    1    3    3  502    0 -0.74051680319E+02 -0.47806430984E+02  0.45664698232E+02  0.99380384715E+02  0.47000000000E+01 0. -1.
         -5    1    3    3    0  502 -0.73022336707E+03 -0.69281511842E+03  0.26543370930E+03  0.10410072517E+04  0.47000000000E+01 0.  1.
         13    1    5    5    0    0  0.45751628952E+03  0.45675865633E+03 -0.12387770905E+04  0.13973254114E+04  0.00000000000E+00 0. -1.
        -13    1    5    5    0    0  0.11384732886E+03  0.15606477737E+03 -0.46436510033E+03  0.50294371000E+03  0.00000000000E+00 0.  1.
          2    1    6    6  503    0  0.61621322996E+02  0.12764322229E+02  0.64345879612E+01  0.63257563120E+02  0.00000000000E+00 0. -1.
         -2    1    6    6    0  503  0.17129010600E+03  0.11503379348E+03 -0.11584226512E+03  0.23662735354E+03  0.00000000000E+00 0.  1.
<mgrwt>
<rscale>  0 0.11018979E+04</rscale>
<asrwt>0</asrwt>
<pdfrwt beam="1">  1        1 0.37246100E+00 0.11018979E+04</pdfrwt>
<pdfrwt beam="2">  1       -1 0.14146848E+00 0.11018979E+04</pdfrwt>
<totfact> 0.62709318E-01</totfact>
</mgrwt>
</event>
<event>
12    1  0.3203156E-008  0.1112354E+04  0.7818608E-02  0.9193234E-01
          2   -1    0    0  501    0  0.00000000000E+00  0.00000000000E+00  0.34098106860E+04  0.34098106860E+04  0.00000000000E+00 0. -1.
         -2   -1    0    0    0  501 -0.00000000000E+00 -0.00000000000E+00 -0.48293308703E+03  0.48293308703E+03  0.00000000000E+00 0.  1.
         23    2    1    2    0    0  0.18049149240E+03  0.10381970826E+04  0.22910854794E+04  0.25234775550E+04  0.91847349076E+02 0.  0.
    5000000    2    1    2    0    0 -0.18049149240E+03 -0.10381970826E+04  0.63579211961E+03  0.13692662180E+04  0.60018996600E+03 0.  0.
         23    2    4    4    0    0  0.15494242823E+03 -0.51839344477E+03  0.12650336386E+03  0.56277482724E+03  0.89294375304E+02 0.  0.
         23    2    4    4    0    0 -0.33543392063E+03 -0.51980363787E+03  0.50928875575E+03  0.80649139081E+03  0.91332303459E+02 0.  0.
          5    1    3    3  502    0  0.75655745302E+02  0.32785634227E+03  0.82518672297E+03  0.89116148409E+03  0.47000000000E+01 0. -1.
         -5    1    3    3    0  502  0.10483574710E+03  0.71034074037E+03  0.14658987564E+04  0.16323160709E+04  0.47000000000E+01 0.  1.
         11    1    5    5    0    0  0.59861775008E+02 -0.10521460897E+03  0.54383976946E+02  0.13270705707E+03  0.00000000000E+00 0. -1.
        -11    1    5    5    0    0  0.95080653221E+02 -0.41317883580E+03  0.72119386916E+02  0.43006777017E+03  0.00000000000E+00 0.  1.
          3    1    6    6  503    0 -0.14250833767E+03 -0.30343204545E+03  0.28378191877E+03  0.43921726962E+03  0.00000000000E+00 0. -1.
         -3    1    6    6    0  503 -0.19292558296E+03 -0.21637159242E+03  0.22550683698E+03  0.36727412118E+03  0.00000000000E+00 0.  1.
<mgrwt>
<rscale>  0 0.11123536E+04</rscale>
<asrwt>0</asrwt>
<pdfrwt beam="1">  1        2 0.52458624E+00 0.11123536E+04</pdfrwt>
<pdfrwt beam="2">  1       -2 0.74297400E-01 0.11123536E+04</pdfrwt>
<totfact> 0.15534951E+00</totfact>
</mgrwt>
</event>
<event>
12    1  0.3203156E-008  0.7412603E+03  0.7818608E-02  0.9649162E-01
         -2   -1    0    0    0  501 -0.00000000000E+00  0.00000000000E+00  0.13514823202E+04  0.13514823202E+04  0.00000000000E+00 0.  1.
          2   -1    0    0  501    0  0.00000000000E+00 -0.00000000000E+00 -0.11434969109E+04  0.11434969109E+04  0.00000000000E+00 0. -1.
         23    2    1    2    0    0  0.61418097079E+03 -0.16327465342E+03  0.10814937868E+04  0.12591792271E+04  0.10966602844E+03 0.  0.
    5000000    2    1    2    0    0 -0.61418097079E+03  0.16327465342E+03 -0.87350837745E+03  0.12358000040E+04  0.60025651765E+03 0.  0.
         23    2    4    4    0    0 -0.31701270166E+03 -0.19614027219E+03 -0.27357416890E+03  0.47064854316E+03  0.87744891043E+02 0.  0.
         23    2    4    4    0    0 -0.29716826914E+03  0.35941492561E+03 -0.59993420854E+03  0.76515146079E+03  0.89708608524E+02 0.  0.
          5    1    3    3  502    0  0.14145725910E+03 -0.77582212068E+02  0.22133578786E+03  0.27393571649E+03  0.47000000000E+01 0. -1.
         -5    1    3    3    0  502  0.47272371169E+03 -0.85692441356E+02  0.86015799891E+03  0.98524351061E+03  0.47000000000E+01 0.  1.
         13    1    5    5    0    0 -0.18064676393E+03 -0.11450319319E+03 -0.20917325107E+03  0.29916163446E+03  0.00000000000E+00 0.  1.
        -13    1    5    5    0    0 -0.13636593773E+03 -0.81637078996E+02 -0.64400917839E+02  0.17148690871E+03  0.00000000000E+00 0. -1.
          1    1    6    6  503    0 -0.58505658326E+02  0.95780685986E+02 -0.20493510245E+03  0.23365626052E+03  0.00000000000E+00 0. -1.
         -1    1    6    6    0  503 -0.23866261081E+03  0.26363423963E+03 -0.39499910610E+03  0.53149520028E+03  0.00000000000E+00 0.  1.
<mgrwt>
<rscale>  0 0.74126026E+03</rscale>
<asrwt>0</asrwt>
<pdfrwt beam="1">  1        2 0.17592260E+00 0.74126026E+03</pdfrwt>
<pdfrwt beam="2">  1       -2 0.20792036E+00 0.74126026E+03</pdfrwt>
<totfact> 0.24896870E+00</totfact>
</mgrwt>
</event>
<event>
12    1  0.3203156E-008  0.1188861E+04  0.7818608E-02  0.9122662E-01
         -2   -1    0    0    0  501 -0.00000000000E+00  0.00000000000E+00  0.60876103981E+03  0.60876103981E+03  0.00000000000E+00 0.  1.
          2   -1    0    0  501    0  0.00000000000E+00 -0.00000000000E+00 -0.30440481518E+04  0.30440481518E+04  0.00000000000E+00 0. -1.
         23    2    1    2    0    0 -0.83973263390E+03  0.74644689451E+03 -0.20195214780E+04  0.23128935147E+04  0.93142618283E+02 0.  0.
    5000000    2    1    2    0    0  0.83973263390E+03 -0.74644689451E+03 -0.41576563396E+03  0.13399156769E+04  0.60014922820E+03 0.  0.
         23    2    4    4    0    0  0.14205082380E+03 -0.47634201752E+03 -0.69669043293E+02  0.51045225590E+03  0.92884744507E+02 0.  0.
         23    2    4    4    0    0  0.69768181010E+03 -0.27010487699E+03 -0.34609659067E+03  0.82946342102E+03  0.92250550275E+02 0.  0.
          5    1    3    3  502    0 -0.64720501029E+03  0.53432674669E+03 -0.14504646017E+04  0.16757831149E+04  0.47000000000E+01 0. -1.
         -5    1    3    3    0  502 -0.19252762362E+03  0.21212014782E+03 -0.56905687636E+03  0.63711039977E+03  0.47000000000E+01 0.  1.
         11    1    5    5    0    0  0.13140891761E+03 -0.34279822207E+03 -0.81182131880E+02  0.37599130737E+03  0.00000000000E+00 0. -1.
        -11    1    5    5    0    0  0.10641906192E+02 -0.13354379545E+03  0.11513088587E+02  0.13446094853E+03  0.00000000000E+00 0.  1.
          3    1    6    6  503    0  0.55867034075E+03 -0.24292366862E+03 -0.25113880033E+03  0.65893486433E+03  0.00000000000E+00 0. -1.
         -3    1    6    6    0  503  0.13901146935E+03 -0.27181208370E+02 -0.94957790338E+02  0.17052855669E+03  0.00000000000E+00 0.  1.
<mgrwt>
<rscale>  0 0.11888613E+04</rscale>
<asrwt>0</asrwt>
<pdfrwt beam="1">  1        2 0.46831509E+00 0.11888613E+04</pdfrwt>
<pdfrwt beam="2">  1       -2 0.93655546E-01 0.11888613E+04</pdfrwt>
<totfact> 0.15639146E+00</totfact>
</mgrwt>
</event>
<event>
12    1  0.3203156E-008  0.6797977E+03  0.7818608E-02  0.9752419E-01
         -2   -1    0    0    0  501 -0.00000000000E+00  0.00000000000E+00  0.14752981602E+03  0.14752981602E+03  0.00000000000E+00 0.  1.
          2   -1    0    0  501    0  0.00000000000E+00 -0.00000000000E+00 -0.35843895148E+04  0.35843895148E+04  0.00000000000E+00 0. -1.
         23    2    1    2    0    0 -0.13443037379E+02 -0.58847653375E+03 -0.11296149755E+04  0.12763309816E+04  0.80656282271E+02 0.  0.
    5000000    2    1    2    0    0  0.13443037379E+02  0.58847653375E+03 -0.23072447233E+04  0.24555883492E+04  0.60004214962E+03 0.  0.
         23    2    4    4    0    0 -0.18367725109E+03  0.51569255500E+03 -0.11604763611E+04  0.12862911376E+04  0.90351327394E+02 0.  0.
         23    2    4    4    0    0  0.19712028847E+03  0.72783978747E+02 -0.11467683623E+04  0.11692972115E+04  0.89578884382E+02 0.  0.
          5    1    3    3  502    0 -0.46139159443E+02 -0.31196295619E+03 -0.61869367586E+03  0.69444485931E+03  0.47000000000E+01 0. -1.
         -5    1    3    3    0  502  0.32696122064E+02 -0.27651357756E+03 -0.51092129961E+03  0.58188612234E+03  0.47000000000E+01 0.  1.
         11    1    5    5    0    0 -0.69751375292E+02  0.30783012824E+03 -0.60594565163E+03  0.68322381028E+03  0.00000000000E+00 0.  1.
        -11    1    5    5    0    0 -0.11392587580E+03  0.20786242676E+03 -0.55453070943E+03  0.60306732736E+03  0.00000000000E+00 0. -1.
          1    1    6    6  503    0  0.11809939973E+02  0.14696585968E+02 -0.29797792160E+03  0.29857378666E+03  0.00000000000E+00 0. -1.
         -1    1    6    6    0  503  0.18531034849E+03  0.58087392779E+02 -0.84879044067E+03  0.87072342488E+03  0.00000000000E+00 0.  1.
<mgrwt>
<rscale>  0 0.67979766E+03</rscale>
<asrwt>0</asrwt>
<pdfrwt beam="1">  1        2 0.55144446E+00 0.67979766E+03</pdfrwt>
<pdfrwt beam="2">  1       -2 0.22696898E-01 0.67979766E+03</pdfrwt>
<totfact> 0.13254879E+01</totfact>
</mgrwt>
</event>
<event>
12    1  0.3203156E-008  0.1057771E+04  0.7818608E-02  0.9247357E-01
         -2   -1    0    0    0  501 -0.00000000000E+00  0.00000000000E+00  0.55246740749E+03  0.55246740749E+03  0.00000000000E+00 0.  1.
          2   -1    0    0  501    0  0.00000000000E+00 -0.00000000000E+00 -0.24658627947E+04  0.24658627947E+04  0.00000000000E+00 0. -1.
         23    2    1    2    0    0  0.88167756611E+03 -0.42017556485E+03 -0.15148741505E+04  0.18047479866E+04  0.91480968165E+02 0.  0.
    5000000    2    1    2    0    0 -0.88167756611E+03  0.42017556485E+03 -0.39852123678E+03  0.12135822156E+04  0.60004981626E+03 0.  0.
         23    2    4    4    0    0 -0.18926136830E+03  0.39242771776E+03 -0.17809760979E+03  0.47933502760E+03  0.90685891250E+02 0.  0.
         23    2    4    4    0    0 -0.69241619781E+03  0.27747847094E+02 -0.22042362699E+03  0.73424718801E+03  0.10159834524E+03 0.  0.
          5    1    3    3  502    0  0.24757374401E+03 -0.15234390006E+03 -0.40018477339E+03  0.49464266442E+03  0.47000000000E+01 0. -1.
         -5    1    3    3    0  502  0.63410382211E+03 -0.26783166479E+03 -0.11146893771E+04  0.13101053222E+04  0.47000000000E+01 0.  1.
         11    1    5    5    0    0 -0.12271470077E+03  0.29470777020E+03 -0.89348076992E+02  0.33150361455E+03  0.00000000000E+00 0. -1.
        -11    1    5    5    0    0 -0.66546667528E+02  0.97719947563E+02 -0.88749532795E+02  0.14783141304E+03  0.00000000000E+00 0.  1.
          4    1    6    6  503    0 -0.55865447068E+03  0.58582378102E+02 -0.19527791062E+03  0.59469334536E+03  0.00000000000E+00 0. -1.
         -4    1    6    6    0  503 -0.13376172713E+03 -0.30834531009E+02 -0.25145716372E+02  0.13955384265E+03  0.00000000000E+00 0.  1.
<mgrwt>
<rscale>  0 0.10577713E+04</rscale>
<asrwt>0</asrwt>
<pdfrwt beam="1">  1        2 0.37936350E+00 0.10577713E+04</pdfrwt>
<pdfrwt beam="2">  1       -2 0.84994988E-01 0.10577713E+04</pdfrwt>
<totfact> 0.43975720E+00</totfact>
</mgrwt>
</event>
<event>
12    1  0.3203156E-008  0.9709061E+03  0.7818608E-02  0.9341043E-01
         -2   -1    0    0    0  501 -0.00000000000E+00  0.00000000000E+00  0.73151511664E+03  0.73151511664E+03  0.00000000000E+00 0.  1.
          2   -1    0    0  501    0  0.00000000000E+00 -0.00000000000E+00 -0.16046468777E+04  0.16046468777E+04  0.00000000000E+00 0. -1.
         23    2    1    2    0    0  0.47771182854E+03  0.81483245717E+03 -0.55799203357E+02  0.95042885910E+03  0.89671292692E+02 0.  0.
    5000000    2    1    2    0    0 -0.47771182854E+03 -0.81483245717E+03 -0.81733255769E+03  0.13857331352E+04  0.60005273756E+03 0.  0.
         23    2    4    4    0    0 -0.28130133552E+03 -0.70780409023E+03 -0.31693149021E+03  0.82992768774E+03  0.90649467102E+02 0.  0.
         23    2    4    4    0    0 -0.19641049301E+03 -0.10702836694E+03 -0.50040106749E+03  0.55580544750E+03  0.92121192089E+02 0.  0.
          5    1    3    3  502    0  0.20395686994E+03  0.39560505361E+03  0.11195856442E+02  0.44525183935E+03  0.47000000000E+01 0. -1.
         -5    1    3    3    0  502  0.27375495860E+03  0.41922740355E+03 -0.66995059799E+02  0.50517701975E+03  0.47000000000E+01 0.  1.
         11    1    5    5    0    0  0.96833823731E+00 -0.51672434929E+02 -0.32836442881E+02  0.61230794471E+02  0.00000000000E+00 0. -1.
        -11    1    5    5    0    0 -0.28226967376E+03 -0.65613165530E+03 -0.28409504733E+03  0.76869689327E+03  0.00000000000E+00 0.  1.
          1    1    6    6  503    0  0.17164347672E+01 -0.86624534626E+01 -0.82506793854E+02  0.82978040953E+02  0.00000000000E+00 0. -1.
         -1    1    6    6    0  503 -0.19812692778E+03 -0.98365913478E+02 -0.41789427363E+03  0.47282740655E+03  0.00000000000E+00 0.  1.
<mgrwt>
<rscale>  0 0.97090614E+03</rscale>
<asrwt>0</asrwt>
<pdfrwt beam="1">  1        2 0.24686875E+00 0.97090614E+03</pdfrwt>
<pdfrwt beam="2">  1       -2 0.11254079E+00 0.97090614E+03</pdfrwt>
<totfact> 0.68800743E+00</totfact>
</mgrwt>
</event>
<event>
12    1  0.3203156E-008  0.8873148E+03  0.7818608E-02  0.9441579E-01
          2   -1    0    0  501    0  0.00000000000E+00  0.00000000000E+00  0.78601895146E+03  0.78601895146E+03  0.00000000000E+00 0. -1.
         -2   -1    0    0    0  501 -0.00000000000E+00 -0.00000000000E+00 -0.10947536733E+04  0.10947536733E+04  0.00000000000E+00 0.  1.
         23    2    1    2    0    0 -0.52379347519E+02  0.81234333695E+03 -0.29179631443E+03  0.86933027269E+03  0.89133275365E+02 0.  0.
    5000000    2    1    2    0    0  0.52379347519E+02 -0.81234333695E+03 -0.16938407460E+02  0.10114423521E+04  0.60006952003E+03 0.  0.
         23    2    4    4    0    0 -0.20053282127E+03 -0.21901499644E+03  0.13919252758E+03  0.34156056699E+03  0.95436262080E+02 0.  0.
         23    2    4    4    0    0  0.25291216879E+03 -0.59332834050E+03 -0.15613093504E+03  0.66988178512E+03  0.91442071212E+02 0.  0.
          5    1    3    3  502    0 -0.21325613042E+02  0.40625639268E+03 -0.19258116226E+03  0.45012068651E+03  0.47000000000E+01 0.  1.
         -5    1    3    3    0  502 -0.31053734477E+02  0.40608694426E+03 -0.99215152164E+02  0.41920958618E+03  0.47000000000E+01 0. -1.
         13    1    5    5    0    0 -0.17852151243E+03 -0.13932738815E+03  0.81185551290E+02  0.24056837953E+03  0.00000000000E+00 0. -1.
        -13    1    5    5    0    0 -0.22011308838E+02 -0.79687608289E+02  0.58006976286E+02  0.10099218747E+03  0.00000000000E+00 0.  1.
          1    1    6    6  503    0  0.72026869832E+00 -0.74325006211E+02 -0.21018081247E+02  0.77243026058E+02  0.00000000000E+00 0. -1.
         -1    1    6    6    0  503  0.25219190009E+03 -0.51900333429E+03 -0.13511285379E+03  0.59263875906E+03  0.00000000000E+00 0.  1.
<mgrwt>
<rscale>  0 0.88731478E+03</rscale>
<asrwt>0</asrwt>
<pdfrwt beam="1">  1        2 0.12092599E+00 0.88731478E+03</pdfrwt>
<pdfrwt beam="2">  1       -2 0.16842364E+00 0.88731478E+03</pdfrwt>
<totfact> 0.77322208E+00</totfact>
</mgrwt>
</event>
<event>
12    1  0.3203156E-008  0.5503430E+03  0.7818608E-02  0.1001415E+00
         -2   -1    0    0    0  501 -0.00000000000E+00  0.00000000000E+00  0.61066830902E+03  0.61066830902E+03  0.00000000000E+00 0.  1.
          2   -1    0    0  501    0  0.00000000000E+00 -0.00000000000E+00 -0.72377868083E+03  0.72377868083E+03  0.00000000000E+00 0. -1.
         23    2    1    2    0    0 -0.49913066188E+03  0.15157531008E+03 -0.10323544419E+03  0.53931356174E+03  0.89972599587E+02 0.  0.
    5000000    2    1    2    0    0  0.49913066188E+03 -0.15157531008E+03 -0.98749276164E+01  0.79513342811E+03  0.60002763440E+03 0.  0.
         23    2    4    4    0    0  0.21661008517E+03  0.41015939587E+02 -0.26570018801E+03  0.35860629347E+03  0.96951779304E+02 0.  0.
         23    2    4    4    0    0  0.28252057671E+03 -0.19259124967E+03  0.25582526040E+03  0.43652713463E+03  0.90554457100E+02 0.  0.
          5    1    3    3  502    0 -0.85335055227E+02 -0.57639754109E+01 -0.48900579495E+01  0.85798005395E+02  0.47000000000E+01 0. -1.
         -5    1    3    3    0  502 -0.41379560666E+03  0.15733928549E+03 -0.98345386245E+02  0.45351555634E+03  0.47000000000E+01 0.  1.
         13    1    5    5    0    0  0.14536350354E+03  0.59014361960E+02 -0.12781127444E+03  0.20235850601E+03  0.00000000000E+00 0.  1.
        -13    1    5    5    0    0  0.71246581633E+02 -0.17998422373E+02 -0.13788891357E+03  0.15624778747E+03  0.00000000000E+00 0. -1.
          3    1    6    6  503    0  0.16841801286E+03 -0.11654896700E+03  0.96760709816E+02  0.22651914650E+03  0.00000000000E+00 0. -1.
         -3    1    6    6    0  503  0.11410256385E+03 -0.76042282665E+02  0.15906455058E+03  0.21000798814E+03  0.00000000000E+00 0.  1.
<mgrwt>
<rscale>  0 0.55034300E+03</rscale>
<asrwt>0</asrwt>
<pdfrwt beam="1">  1        2 0.11135057E+00 0.55034300E+03</pdfrwt>
<pdfrwt beam="2">  1       -2 0.93948971E-01 0.55034300E+03</pdfrwt>
<totfact> 0.38783241E+01</totfact>
</mgrwt>
</event>
<event>
12    1  0.3203156E-008  0.5712288E+03  0.7818608E-02  0.9966963E-01
          2   -1    0    0  501    0  0.00000000000E+00  0.00000000000E+00  0.11846717787E+04  0.11846717787E+04  0.00000000000E+00 0. -1.
         -2   -1    0    0    0  501 -0.00000000000E+00 -0.00000000000E+00 -0.36009054596E+03  0.36009054596E+03  0.00000000000E+00 0.  1.
         23    2    1    2    0    0 -0.49451981409E+03  0.13472744406E+02  0.17840116527E+03  0.53366769992E+03  0.90790290206E+02 0.  0.
    5000000    2    1    2    0    0  0.49451981409E+03 -0.13472744406E+02  0.64618006748E+03  0.10110946247E+04  0.60002691539E+03 0.  0.
         23    2    4    4    0    0  0.54076548253E+03  0.64738417678E+02  0.27397336303E+03  0.61729447673E+03  0.96812693047E+02 0.  0.
         23    2    4    4    0    0 -0.46245668433E+02 -0.78211162084E+02  0.37220670444E+03  0.39380014801E+03  0.91022403916E+02 0.  0.
          5    1    3    3  502    0 -0.36051157119E+03  0.73244383124E+01  0.86066031797E+02  0.37074478039E+03  0.47000000000E+01 0. -1.
         -5    1    3    3    0  502 -0.13400824290E+03  0.61483060933E+01  0.92335133477E+02  0.16292291953E+03  0.47000000000E+01 0.  1.
         13    1    5    5    0    0  0.41875620548E+03  0.38007536000E+02  0.25276598662E+03  0.49060368569E+03  0.00000000000E+00 0.  1.
        -13    1    5    5    0    0  0.12200927704E+03  0.26730881678E+02  0.21207376419E+02  0.12669079104E+03  0.00000000000E+00 0. -1.
          1    1    6    6  503    0  0.81728168874E+01 -0.24258190396E+02  0.23707186904E+03  0.23844983923E+03  0.00000000000E+00 0. -1.
         -1    1    6    6    0  503 -0.54418485321E+02 -0.53952971688E+02  0.13513483540E+03  0.15535030878E+03  0.00000000000E+00 0.  1.
<mgrwt>
<rscale>  0 0.57122882E+03</rscale>
<asrwt>0</asrwt>
<pdfrwt beam="1">  1        2 0.18225719E+00 0.57122882E+03</pdfrwt>
<pdfrwt beam="2">  1       -2 0.55398546E-01 0.57122882E+03</pdfrwt>
<totfact> 0.61374782E+01</totfact>
</mgrwt>
</event>
<event>
12    1  0.3273593E-008  0.8438257E+03  0.7818608E-02  0.9498661E-01
         -1   -1    0    0    0  501 -0.00000000000E+00  0.00000000000E+00  0.78230437619E+03  0.78230437619E+03  0.00000000000E+00 0.  1.
          1   -1    0    0  501    0  0.00000000000E+00 -0.00000000000E+00 -0.11328350545E+04  0.11328350545E+04  0.00000000000E+00 0. -1.
         23    2    1    2    0    0 -0.45736162416E+03  0.69794686013E+03 -0.35566198422E+02  0.84033004610E+03  0.92629137409E+02 0.  0.
    5000000    2    1    2    0    0  0.45736162416E+03 -0.69794686013E+03 -0.31496447988E+03  0.10748093846E+04  0.59975254463E+03 0.  0.
         23    2    4    4    0    0  0.43387125107E+03 -0.60050830062E+03 -0.16902507413E+02  0.74668784479E+03  0.91665485205E+02 0.  0.
         23    2    4    4    0    0  0.23490373092E+02 -0.97438559501E+02 -0.29806197246E+03  0.32812153979E+03  0.93684229956E+02 0.  0.
          5    1    3    3  502    0 -0.13573207197E+03  0.26463954430E+03  0.18177836567E+02  0.29800974399E+03  0.47000000000E+01 0. -1.
         -5    1    3    3    0  502 -0.32162955218E+03  0.43330731582E+03 -0.53744034989E+02  0.54232030211E+03  0.47000000000E+01 0.  1.
         11    1    5    5    0    0  0.27223338599E+03 -0.29881206888E+03 -0.84810040441E+01  0.40431620841E+03  0.00000000000E+00 0.  1.
        -11    1    5    5    0    0  0.16163786508E+03 -0.30169623175E+03 -0.84215033691E+01  0.34237163638E+03  0.00000000000E+00 0. -1.
          3    1    6    6  503    0  0.10163400015E+02 -0.85671506816E+02 -0.11280582554E+03  0.14201428117E+03  0.00000000000E+00 0. -1.
         -3    1    6    6    0  503  0.13326973076E+02 -0.11767052685E+02 -0.18525614692E+03  0.18610725863E+03  0.00000000000E+00 0.  1.
<mgrwt>
<rscale>  0 0.84382575E+03</rscale>
<asrwt>0</asrwt>
<pdfrwt beam="1">  1        1 0.17428232E+00 0.84382575E+03</pdfrwt>
<pdfrwt beam="2">  1       -1 0.12035452E+00 0.84382575E+03</pdfrwt>
<totfact> 0.75236942E+00</totfact>
</mgrwt>
</event>
<event>
12    1  0.3203156E-008  0.8304744E+03  0.7818608E-02  0.9516925E-01
          2   -1    0    0  501    0  0.00000000000E+00  0.00000000000E+00  0.17179744254E+04  0.17179744254E+04  0.00000000000E+00 0. -1.
         -2   -1    0    0    0  501 -0.00000000000E+00 -0.00000000000E+00 -0.78421623390E+03  0.78421623390E+03  0.00000000000E+00 0.  1.
         23    2    1    2    0    0 -0.15968496033E+03 -0.79041748548E+03 -0.33985619124E+03  0.87978551771E+03  0.90891355723E+02 0.  0.
    5000000    2    1    2    0    0  0.15968496033E+03  0.79041748548E+03  0.12736143827E+04  0.16224051416E+04  0.59987145259E+03 0.  0.
         23    2    4    4    0    0  0.17553288818E+03  0.33794347737E+03  0.10257068474E+04  0.10980567593E+04  0.92932884220E+02 0.  0.
         23    2    4    4    0    0 -0.15847927850E+02  0.45247400811E+03  0.24790753527E+03  0.52434838230E+03  0.92191079525E+02 0.  0.
          5    1    3    3  502    0 -0.16855501420E+03 -0.69099011453E+03 -0.30567195386E+03  0.77416765921E+03  0.47000000000E+01 0. -1.
         -5    1    3    3    0  502  0.88700538661E+01 -0.99427370947E+02 -0.34184237374E+02  0.10561785850E+03  0.47000000000E+01 0.  1.
         13    1    5    5    0    0  0.15252909101E+03  0.21791509542E+03  0.76992952128E+03  0.81458184374E+03  0.00000000000E+00 0. -1.
        -13    1    5    5    0    0  0.23003797174E+02  0.12002838195E+03  0.25577732616E+03  0.28347491553E+03  0.00000000000E+00 0.  1.
          3    1    6    6  503    0  0.31091382124E+02  0.30958713457E+03  0.15561600474E+03  0.34788965042E+03  0.00000000000E+00 0. -1.
         -3    1    6    6    0  503 -0.46939309974E+02  0.14288687353E+03  0.92291530533E+02  0.17645873188E+03  0.00000000000E+00 0.  1.
<mgrwt>
<rscale>  0 0.83047440E+03</rscale>
<asrwt>0</asrwt>
<pdfrwt beam="1">  1        2 0.26430376E+00 0.83047440E+03</pdfrwt>
<pdfrwt beam="2">  1       -2 0.12064865E+00 0.83047440E+03</pdfrwt>
<totfact> 0.51088417E+00</totfact>
</mgrwt>
</event>
<event>
12    1  0.3203156E-008  0.8857197E+03  0.7818608E-02  0.9443611E-01
          1   -1    0    0  501    0  0.00000000000E+00  0.00000000000E+00  0.19295121368E+04  0.19295121368E+04  0.00000000000E+00 0. -1.
         -1   -1    0    0    0  501 -0.00000000000E+00 -0.00000000000E+00 -0.12083828511E+04  0.12083828511E+04  0.00000000000E+00 0.  1.
         23    2    1    2    0    0 -0.10661241414E+03 -0.79802890102E+03 -0.91254624530E+03  0.12203313554E+04  0.90838502078E+02 0.  0.
    5000000    2    1    2    0    0  0.10661241414E+03  0.79802890102E+03  0.16336755310E+04  0.19175636325E+04  0.59994850642E+03 0.  0.
         23    2    4    4    0    0  0.41405928257E+02 -0.71383338994E+02  0.21102417952E+03  0.24654305020E+03  0.97171185447E+02 0.  0.
         23    2    4    4    0    0  0.65206485880E+02  0.86941224001E+03  0.14226513515E+04  0.16710205823E+04  0.90793114695E+02 0.  0.
          5    1    3    3  502    0 -0.40800195407E+02 -0.16667668294E+03 -0.14841054591E+03  0.22692190886E+03  0.47000000000E+01 0. -1.
         -5    1    3    3    0  502 -0.65812218730E+02 -0.63135221807E+03 -0.76413569939E+03  0.99340944655E+03  0.47000000000E+01 0.  1.
         11    1    5    5    0    0  0.27192097469E+02 -0.73550159236E+02  0.71001074673E+02  0.10578368822E+03  0.00000000000E+00 0.  1.
        -11    1    5    5    0    0  0.14213830788E+02  0.21668202421E+01  0.14002310484E+03  0.14075936198E+03  0.00000000000E+00 0. -1.
          3    1    6    6  503    0  0.21483781537E+02  0.44889822141E+03  0.81617050412E+03  0.93172177062E+03  0.00000000000E+00 0. -1.
         -3    1    6    6    0  503  0.43722704344E+02  0.42051401860E+03  0.60648084734E+03  0.73929881165E+03  0.00000000000E+00 0.  1.
<mgrwt>
<rscale>  0 0.88571966E+03</rscale>
<asrwt>0</asrwt>
<pdfrwt beam="1">  1        1 0.29684802E+00 0.88571966E+03</pdfrwt>
<pdfrwt beam="2">  1       -1 0.18590505E+00 0.88571966E+03</pdfrwt>
<totfact> 0.64822934E-01</totfact>
</mgrwt>
</event>
<event>
12    1  0.3203156E-008  0.5100526E+03  0.7818608E-02  0.1011188E+00
         -1   -1    0    0    0  501 -0.00000000000E+00  0.00000000000E+00  0.46818876126E+03  0.46818876126E+03  0.00000000000E+00 0. -1.
          1   -1    0    0  501    0  0.00000000000E+00 -0.00000000000E+00 -0.22361863707E+04  0.22361863707E+04  0.00000000000E+00 0.  1.
         23    2    1    2    0    0 -0.10521812513E+03  0.40807646992E+03  0.29065392821E+03  0.51905244653E+03  0.85664911762E+02 0.  0.
    5000000    2    1    2    0    0  0.10521812513E+03 -0.40807646992E+03 -0.20586515376E+04  0.21853226854E+04  0.59999318899E+03 0.  0.
         23    2    4    4    0    0  0.25291873296E+03 -0.22023701484E+03 -0.52024230513E+03  0.62585083768E+03  0.92547213821E+02 0.  0.
         23    2    4    4    0    0 -0.14770060783E+03 -0.18783945509E+03 -0.15384092325E+04  0.15594718477E+04  0.90279271182E+02 0.  0.
          5    1    3    3  502    0 -0.15176048494E+02  0.22620098792E+03  0.14391978673E+03  0.26857437405E+03  0.47000000000E+01 0. -1.
         -5    1    3    3    0  502 -0.90042076638E+02  0.18187548200E+03  0.14673414148E+03  0.25047807248E+03  0.47000000000E+01 0.  1.
         13    1    5    5    0    0  0.13269495886E+03 -0.11282907788E+03 -0.18636296723E+03  0.25508725659E+03  0.00000000000E+00 0. -1.
        -13    1    5    5    0    0  0.12022377411E+03 -0.10740793695E+03 -0.33387933790E+03  0.37076358109E+03  0.00000000000E+00 0.  1.
          2    1    6    6  503    0 -0.54545550865E+02 -0.13996470905E+03 -0.95316220105E+03  0.96492669069E+03  0.00000000000E+00 0.  1.
         -2    1    6    6    0  503 -0.93155056966E+02 -0.47874746040E+02 -0.58524703144E+03  0.59454515703E+03  0.00000000000E+00 0. -1.
<mgrwt>
<rscale>  0 0.51005263E+03</rscale>
<asrwt>0</asrwt>
<pdfrwt beam="1">  1        1 0.34402867E+00 0.51005263E+03</pdfrwt>
<pdfrwt beam="2">  1       -1 0.72029041E-01 0.51005263E+03</pdfrwt>
<totfact> 0.44543789E+00</totfact>
</mgrwt>
</event>
<event>
12    1  0.3203156E-008  0.8124522E+03  0.7818608E-02  0.9542166E-01
         -1   -1    0    0    0  501 -0.00000000000E+00  0.00000000000E+00  0.13866052751E+04  0.13866052751E+04  0.00000000000E+00 0.  1.
          1   -1    0    0  501    0  0.00000000000E+00 -0.00000000000E+00 -0.56259435019E+03  0.56259435019E+03  0.00000000000E+00 0. -1.
         23    2    1    2    0    0 -0.77501756912E+03 -0.41151193305E+02  0.42520308857E+03  0.88982860292E+03  0.93014100455E+02 0.  0.
    5000000    2    1    2    0    0  0.77501756912E+03  0.41151193305E+02  0.39880783636E+03  0.10593710224E+04  0.60072757518E+03 0.  0.
         23    2    4    4    0    0  0.87463420199E+02 -0.10489368933E+03  0.30211148918E+03  0.34403598732E+03  0.91852450907E+02 0.  0.
         23    2    4    4    0    0  0.68755414892E+03  0.14604488263E+03  0.96696347171E+02  0.71533503507E+03  0.91072572182E+02 0.  0.
          5    1    3    3  502    0 -0.14390754402E+03 -0.13460198397E+02  0.40498837327E+02  0.15017591016E+03  0.47000000000E+01 0. -1.
         -5    1    3    3    0  502 -0.63111002510E+03 -0.27690994907E+02  0.38470425125E+03  0.73965269276E+03  0.47000000000E+01 0.  1.
         11    1    5    5    0    0 -0.52440496939E+01 -0.17440304444E+02  0.12224365535E+03  0.12359278114E+03  0.00000000000E+00 0. -1.
        -11    1    5    5    0    0  0.92707469893E+02 -0.87453384883E+02  0.17986783384E+03  0.22044320618E+03  0.00000000000E+00 0.  1.
          2    1    6    6  503    0  0.20338067035E+03  0.44428010788E+02  0.70980856254E+02  0.21994505489E+03  0.00000000000E+00 0. -1.
         -2    1    6    6    0  503  0.48417347857E+03  0.10161687184E+03  0.25715490917E+02  0.49538998019E+03  0.00000000000E+00 0.  1.
<mgrwt>
<rscale>  0 0.81245218E+03</rscale>
<asrwt>0</asrwt>
<pdfrwt beam="1">  1        1 0.86552977E-01 0.81245218E+03</pdfrwt>
<pdfrwt beam="2">  1       -1 0.21332389E+00 0.81245218E+03</pdfrwt>
<totfact> 0.47140179E+00</totfact>
</mgrwt>
</event>
<event>
12    1  0.3203156E-008  0.5396536E+03  0.7818608E-02  0.1003917E+00
         -4   -1    0    0    0  501 -0.00000000000E+00  0.00000000000E+00  0.12728788911E+04  0.12728788911E+04  0.00000000000E+00 0.  1.
          4   -1    0    0  501    0  0.00000000000E+00 -0.00000000000E+00 -0.39210261960E+03  0.39210261960E+03  0.00000000000E+00 0. -1.
         23    2    1    2    0    0  0.97404397889E+02  0.50834229904E+03  0.66122173178E+03  0.84271572375E+03  0.71106277946E+02 0.  0.
    5000000    2    1    2    0    0 -0.97404397889E+02 -0.50834229904E+03  0.21955453969E+03  0.82226578693E+03  0.60001443211E+03 0.  0.
         23    2    4    4    0    0 -0.31960111690E+02 -0.98800832556E+02 -0.18872241871E+03  0.23327218420E+03  0.89536067300E+02 0.  0.
         23    2    4    4    0    0 -0.65444286200E+02 -0.40954146648E+03  0.40827695840E+03  0.58899360273E+03  0.90643377749E+02 0.  0.
          5    1    3    3  502    0  0.41768772317E+02  0.19164570997E+03  0.19740997843E+03  0.27832624395E+03  0.47000000000E+01 0. -1.
         -5    1    3    3    0  502  0.55635625572E+02  0.31669658907E+03  0.46381175335E+03  0.56438947980E+03  0.47000000000E+01 0.  1.
         11    1    5    5    0    0 -0.50783133942E+02 -0.17756735063E+02 -0.69520022902E+02  0.87904845813E+02  0.00000000000E+00 0. -1.
        -11    1    5    5    0    0  0.18823022252E+02 -0.81044097494E+02 -0.11920239581E+03  0.14536733839E+03  0.00000000000E+00 0.  1.
          1    1    6    6  503    0  0.21893515232E+02 -0.12430327576E+03  0.12083578999E+03  0.17473385051E+03  0.00000000000E+00 0. -1.
         -1    1    6    6    0  503 -0.87337801432E+02 -0.28523819072E+03  0.28744116841E+03  0.41425975221E+03  0.00000000000E+00 0.  1.
<mgrwt>
<rscale>  0 0.53965364E+03</rscale>
<asrwt>0</asrwt>
<pdfrwt beam="1">  1        4 0.60323481E-01 0.53965364E+03</pdfrwt>
<pdfrwt beam="2">  1       -4 0.19582752E+00 0.53965364E+03</pdfrwt>
<totfact> 0.71955698E-01</totfact>
</mgrwt>
</event>
<event>
12    1  0.3203156E-008  0.5687707E+03  0.7818608E-02  0.9972402E-01
         -2   -1    0    0    0  501 -0.00000000000E+00  0.00000000000E+00  0.67321799700E+03  0.67321799700E+03  0.00000000000E+00 0.  1.
          2   -1    0    0  501    0  0.00000000000E+00 -0.00000000000E+00 -0.57334956291E+03  0.57334956291E+03  0.00000000000E+00 0. -1.
         23    2    1    2    0    0  0.45789885455E+03  0.75912324772E+02 -0.40258854899E+02  0.47458161318E+03  0.90404038205E+02 0.  0.
    5000000    2    1    2    0    0 -0.45789885455E+03 -0.75912324772E+02  0.14012728899E+03  0.77198594673E+03  0.60074337515E+03 0.  0.
         23    2    4    4    0    0 -0.84279101843E+02  0.19311959177E+03  0.19346524862E+03  0.29983830435E+03  0.89866916028E+02 0.  0.
         23    2    4    4    0    0 -0.37361975270E+03 -0.26903191654E+03 -0.53337959625E+02  0.47214764239E+03  0.90047579355E+02 0.  0.
          5    1    3    3  502    0  0.33028130593E+03  0.67785226028E+02 -0.67161825775E+02  0.34382172525E+03  0.47000000000E+01 0. -1.
         -5    1    3    3    0  502  0.12761754861E+03  0.81270987439E+01  0.26902970875E+02  0.13075988793E+03  0.47000000000E+01 0.  1.
         13    1    5    5    0    0 -0.47676672599E+02  0.93107008341E+02  0.15419691877E+03  0.18632946592E+03  0.00000000000E+00 0. -1.
        -13    1    5    5    0    0 -0.36602429244E+02  0.10001258343E+03  0.39268329845E+02  0.11350883842E+03  0.00000000000E+00 0.  1.
          4    1    6    6  503    0 -0.24579403406E+03 -0.19333581819E+03  0.44374843291E+01  0.31275091854E+03  0.00000000000E+00 0. -1.
         -4    1    6    6    0  503 -0.12782571864E+03 -0.75696098350E+02 -0.57775443954E+02  0.15939672385E+03  0.00000000000E+00 0.  1.
<mgrwt>
<rscale>  0 0.56877075E+03</rscale>
<asrwt>0</asrwt>
<pdfrwt beam="1">  1        2 0.88207625E-01 0.56877075E+03</pdfrwt>
<pdfrwt beam="2">  1       -2 0.10357200E+00 0.56877075E+03</pdfrwt>
<totfact> 0.40909113E+01</totfact>
</mgrwt>
</event>
<event>
12    1  0.3203156E-008  0.1039131E+04  0.7818608E-02  0.9266638E-01
         -3   -1    0    0    0  501 -0.00000000000E+00  0.00000000000E+00  0.41908275483E+03  0.41908275483E+03  0.00000000000E+00 0.  1.
          3   -1    0    0  501    0  0.00000000000E+00 -0.00000000000E+00 -0.32960368129E+04  0.32960368129E+04  0.00000000000E+00 0. -1.
         23    2    1    2    0    0  0.45201140664E+03 -0.89430549747E+03 -0.64257301710E+03  0.11938905313E+04  0.91530781446E+02 0.  0.
    5000000    2    1    2    0    0 -0.45201140664E+03  0.89430549747E+03 -0.22343810409E+04  0.25212290364E+04  0.60003381839E+03 0.  0.
         23    2    4    4    0    0 -0.28643575884E+03  0.20448852127E+03 -0.34640208494E+03  0.50228410762E+03  0.91836381934E+02 0.  0.
         23    2    4    4    0    0 -0.16557564780E+03  0.68981697619E+03 -0.18879789560E+04  0.20189449287E+04  0.91713310126E+02 0.  0.
          5    1    3    3  502    0  0.19596434612E+03 -0.44934643331E+03 -0.35666728135E+03  0.60625727349E+03  0.47000000000E+01 0. -1.
         -5    1    3    3    0  502  0.25604706052E+03 -0.44495906416E+03 -0.28590573576E+03  0.58763325784E+03  0.47000000000E+01 0.  1.
         11    1    5    5    0    0 -0.12369676813E+03  0.13280926983E+03 -0.13595287025E+03  0.22676502272E+03  0.00000000000E+00 0. -1.
        -11    1    5    5    0    0 -0.16273899070E+03  0.71679251443E+02 -0.21044921469E+03  0.27551908491E+03  0.00000000000E+00 0.  1.
          3    1    6    6  503    0 -0.86611002008E+02  0.18395649814E+03 -0.53483743068E+03  0.57218225779E+03  0.00000000000E+00 0. -1.
         -3    1    6    6    0  503 -0.78964645794E+02  0.50586047805E+03 -0.13531415253E+04  0.14467626709E+04  0.00000000000E+00 0.  1.
<mgrwt>
<rscale>  0 0.10391311E+04</rscale>
<asrwt>0</asrwt>
<pdfrwt beam="1">  1        3 0.50708260E+00 0.10391311E+04</pdfrwt>
<pdfrwt beam="2">  1       -3 0.64474268E-01 0.10391311E+04</pdfrwt>
<totfact> 0.19200447E-02</totfact>
</mgrwt>
</event>
<event>
12    1  0.3203156E-008  0.9205132E+03  0.7818608E-02  0.9400296E-01
         -3   -1    0    0    0  501 -0.00000000000E+00  0.00000000000E+00  0.59347874683E+03  0.59347874683E+03  0.00000000000E+00 0.  1.
          3   -1    0    0  501    0  0.00000000000E+00 -0.00000000000E+00 -0.16414330664E+04  0.16414330664E+04  0.00000000000E+00 0. -1.
         23    2    1    2    0    0 -0.58444761585E+03 -0.59797368841E+03 -0.83280721784E+03  0.11835276142E+04  0.89544423830E+02 0.  0.
    5000000    2    1    2    0    0  0.58444761585E+03  0.59797368841E+03 -0.21514710170E+03  0.10513841990E+04  0.59997409176E+03 0.  0.
         23    2    4    4    0    0 -0.92175022986E+02  0.13343067151E+03 -0.11669617945E+03  0.21942071061E+03  0.90705407684E+02 0.  0.
         23    2    4    4    0    0  0.67662263884E+03  0.46454301690E+03 -0.98450922245E+02  0.83196348837E+03  0.94086406820E+02 0.  0.
          5    1    3    3  502    0 -0.45490711389E+03 -0.47471807777E+03 -0.60156669832E+03  0.89118029498E+03  0.47000000000E+01 0. -1.
         -5    1    3    3    0  502 -0.12954050196E+03 -0.12325561064E+03 -0.23124051952E+03  0.29234731924E+03  0.47000000000E+01 0.  1.
         13    1    5    5    0    0 -0.38950767608E+02  0.13614269996E+01 -0.46481410653E+02  0.60659189881E+02  0.00000000000E+00 0. -1.
        -13    1    5    5    0    0 -0.53224255378E+02  0.13206924451E+03 -0.70214768800E+02  0.15876152073E+03  0.00000000000E+00 0.  1.
          4    1    6    6  503    0  0.41513678322E+03  0.24643742249E+03 -0.91608579097E+02  0.49138791576E+03  0.00000000000E+00 0. -1.
         -4    1    6    6    0  503  0.26148585562E+03  0.21810559441E+03 -0.68423431477E+01  0.34057557261E+03  0.00000000000E+00 0.  1.
<mgrwt>
<rscale>  0 0.92051321E+03</rscale>
<asrwt>0</asrwt>
<pdfrwt beam="1">  1        3 0.25252816E+00 0.92051321E+03</pdfrwt>
<pdfrwt beam="2">  1       -3 0.91304425E-01 0.92051321E+03</pdfrwt>
<totfact> 0.19868889E-01</totfact>
</mgrwt>
</event>
<event>
12    1  0.3203156E-008  0.8239681E+03  0.7818608E-02  0.9525958E-01
         -2   -1    0    0    0  501 -0.00000000000E+00  0.00000000000E+00  0.36676252766E+03  0.36676252766E+03  0.00000000000E+00 0.  1.
          2   -1    0    0  501    0  0.00000000000E+00 -0.00000000000E+00 -0.22302794749E+04  0.22302794749E+04  0.00000000000E+00 0. -1.
         23    2    1    2    0    0  0.69855630494E+03  0.20066611964E+03 -0.34469833749E+03  0.80958499413E+03  0.91450074425E+02 0.  0.
    5000000    2    1    2    0    0 -0.69855630494E+03 -0.20066611964E+03 -0.15188186097E+04  0.17874570084E+04  0.59995398568E+03 0.  0.
         23    2    4    4    0    0 -0.75327560910E+03 -0.57312088222E+02 -0.12855107316E+04  0.14938767469E+04  0.91766416203E+02 0.  0.
         23    2    4    4    0    0  0.54719304162E+02 -0.14335403142E+03 -0.23330787816E+03  0.29358026154E+03  0.90621318597E+02 0.  0.
          5    1    3    3  502    0  0.56658761588E+03  0.15537720413E+03 -0.23810278140E+03  0.63393897699E+03  0.47000000000E+01 0. -1.
         -5    1    3    3    0  502  0.13196868906E+03  0.45288915507E+02 -0.10659555610E+03  0.17564601714E+03  0.47000000000E+01 0.  1.
         11    1    5    5    0    0 -0.65025481704E+03 -0.27304334675E+02 -0.11454970672E+04  0.13174750034E+04  0.00000000000E+00 0. -1.
        -11    1    5    5    0    0 -0.10302079205E+03 -0.30007753547E+02 -0.14001366439E+03  0.17640174342E+03  0.00000000000E+00 0.  1.
          4    1    6    6  503    0  0.41496475330E+02 -0.37278775426E+02 -0.14351671389E+03  0.15397633496E+03  0.00000000000E+00 0. -1.
         -4    1    6    6    0  503  0.13222828832E+02 -0.10607525599E+03 -0.89791164270E+02  0.13960392658E+03  0.00000000000E+00 0.  1.
<mgrwt>
<rscale>  0 0.82396811E+03</rscale>
<asrwt>0</asrwt>
<pdfrwt beam="1">  1        2 0.34311992E+00 0.82396811E+03</pdfrwt>
<pdfrwt beam="2">  1       -2 0.56425004E-01 0.82396811E+03</pdfrwt>
<totfact> 0.15061151E+01</totfact>
</mgrwt>
</event>
<event>
12    1  0.3203156E-008  0.4878183E+03  0.7818608E-02  0.1017008E+00
         -1   -1    0    0    0  501 -0.00000000000E+00  0.00000000000E+00  0.76211856185E+03  0.76211856185E+03  0.00000000000E+00 0.  1.
          1   -1    0    0  501    0  0.00000000000E+00 -0.00000000000E+00 -0.39197616991E+03  0.39197616991E+03  0.00000000000E+00 0. -1.
         23    2    1    2    0    0 -0.36334071938E+03 -0.90871989840E+02  0.11677168573E+03  0.40269984861E+03  0.90869932224E+02 0.  0.
    5000000    2    1    2    0    0  0.36334071938E+03  0.90871989840E+02  0.25337070621E+03  0.75139488316E+03  0.60010279017E+03 0.  0.
         23    2    4    4    0    0  0.27014000250E+03 -0.15845985832E+03 -0.62161009137E+02  0.32925414363E+03  0.80368852136E+02 0.  0.
         23    2    4    4    0    0  0.93200716879E+02  0.24933184816E+03  0.31553171535E+03  0.42214073952E+03  0.88259823498E+02 0.  0.
          5    1    3    3  502    0 -0.18210360787E+03  0.89049662334E+00  0.52541210415E+02  0.18959215642E+03  0.47000000000E+01 0. -1.
         -5    1    3    3    0  502 -0.18123711151E+03 -0.91762486463E+02  0.64230475318E+02  0.21310769219E+03  0.47000000000E+01 0.  1.
         13    1    5    5    0    0  0.53625034049E+01 -0.18175978325E+02 -0.18431762538E+02  0.26435818525E+02  0.00000000000E+00 0. -1.
        -13    1    5    5    0    0  0.26477749910E+03 -0.14028387999E+03 -0.43729246599E+02  0.30281832511E+03  0.00000000000E+00 0.  1.
          4    1    6    6  503    0  0.41855974150E+02  0.18337831096E+03  0.26328541298E+03  0.32357184085E+03  0.00000000000E+00 0. -1.
         -4    1    6    6    0  503  0.51344742729E+02  0.65953537199E+02  0.52246302364E+02  0.98568898673E+02  0.00000000000E+00 0.  1.
<mgrwt>
<rscale>  0 0.48781834E+03</rscale>
<asrwt>0</asrwt>
<pdfrwt beam="1">  1        1 0.60304026E-01 0.48781834E+03</pdfrwt>
<pdfrwt beam="2">  1       -1 0.11724901E+00 0.48781834E+03</pdfrwt>
<totfact> 0.42409747E+01</totfact>
</mgrwt>
</event>
<event>
12    1  0.3203156E-008  0.1091175E+04  0.7818608E-02  0.9213836E-01
          1   -1    0    0  501    0  0.00000000000E+00  0.00000000000E+00  0.11381220948E+04  0.11381220948E+04  0.00000000000E+00 0. -1.
         -1   -1    0    0    0  501 -0.00000000000E+00 -0.00000000000E+00 -0.11380007434E+04  0.11380007434E+04  0.00000000000E+00 0.  1.
         23    2    1    2    0    0  0.10406246809E+04  0.16947515229E+03  0.73307192374E+02  0.10608641941E+04  0.91854994791E+02 0.  0.
    5000000    2    1    2    0    0 -0.10406246809E+04 -0.16947515229E+03 -0.73185840956E+02  0.12152586441E+04  0.59989653367E+03 0.  0.
         23    2    4    4    0    0  0.19775037914E+02 -0.49586592771E+02 -0.96574264977E+02  0.14358873166E+03  0.91876291267E+02 0.  0.
         23    2    4    4    0    0 -0.10603997188E+04 -0.11988855952E+03  0.23388424022E+02  0.10716699125E+04  0.95438737331E+02 0.  0.
          5    1    3    3  502    0  0.47048051323E+03  0.33414932932E+02  0.48341243527E+02  0.47415971665E+03  0.47000000000E+01 0. -1.
         -5    1    3    3    0  502  0.57014416765E+03  0.13606021936E+03  0.24965948847E+02  0.58670447740E+03  0.47000000000E+01 0.  1.
         11    1    5    5    0    0  0.16780640919E+02 -0.48846813920E+02 -0.49200561974E+01  0.51882637681E+02  0.00000000000E+00 0.  1.
        -11    1    5    5    0    0  0.29943969956E+01 -0.73977885186E+00 -0.91654208780E+02  0.91706093981E+02  0.00000000000E+00 0. -1.
          4    1    6    6  503    0 -0.22742104217E+03  0.49427461148E+01  0.29409176558E+02  0.22936795946E+03  0.00000000000E+00 0. -1.
         -4    1    6    6    0  503 -0.83297867663E+03 -0.12483130563E+03 -0.60207525358E+01  0.84230195301E+03  0.00000000000E+00 0.  1.
<mgrwt>
<rscale>  0 0.10911753E+04</rscale>
<asrwt>0</asrwt>
<pdfrwt beam="1">  1        1 0.17509571E+00 0.10911753E+04</pdfrwt>
<pdfrwt beam="2">  1       -1 0.17507704E+00 0.10911753E+04</pdfrwt>
<totfact> 0.26617597E+00</totfact>
</mgrwt>
</event>
<event>
12    1  0.3203156E-008  0.1391028E+04  0.7818608E-02  0.8960339E-01
          1   -1    0    0  501    0  0.00000000000E+00  0.00000000000E+00  0.26679701617E+04  0.26679701617E+04  0.00000000000E+00 0. -1.
         -1   -1    0    0    0  501 -0.00000000000E+00 -0.00000000000E+00 -0.78406154385E+03  0.78406154385E+03  0.00000000000E+00 0.  1.
         23    2    1    2    0    0  0.13467898349E+04 -0.18495213616E+03  0.12020800715E+04  0.18170536371E+04  0.92936912267E+02 0.  0.
    5000000    2    1    2    0    0 -0.13467898349E+04  0.18495213616E+03  0.68182854637E+03  0.16349780685E+04  0.60017744521E+03 0.  0.
         23    2    4    4    0    0 -0.17213867878E+03  0.16854811705E+03 -0.28377351471E+02  0.25906832175E+03  0.90944646691E+02 0.  0.
         23    2    4    4    0    0 -0.11746511561E+04  0.16404019104E+02  0.71020589784E+03  0.13759097467E+04  0.93063330266E+02 0.  0.
          5    1    3    3  502    0  0.99963546006E+03 -0.17490895069E+03  0.87528288232E+03  0.13401516362E+04  0.47000000000E+01 0. -1.
         -5    1    3    3    0  502  0.34715437484E+03 -0.10043185464E+02  0.32679718917E+03  0.47690200082E+03  0.47000000000E+01 0.  1.
         11    1    5    5    0    0 -0.11031362261E+03  0.12246578963E+03 -0.60442897838E+02  0.17555713845E+03  0.00000000000E+00 0.  1.
        -11    1    5    5    0    0 -0.61825056169E+02  0.46082327426E+02  0.32065546367E+02  0.83511183294E+02  0.00000000000E+00 0. -1.
          1    1    6    6  503    0 -0.76120922324E+03 -0.30780109593E+02  0.47817939308E+03  0.89946785860E+03  0.00000000000E+00 0. -1.
         -1    1    6    6    0  503 -0.41344193288E+03  0.47184128697E+02  0.23202650476E+03  0.47644188814E+03  0.00000000000E+00 0.  1.
<mgrwt>
<rscale>  0 0.13910277E+04</rscale>
<asrwt>0</asrwt>
<pdfrwt beam="1">  1        1 0.41045694E+00 0.13910277E+04</pdfrwt>
<pdfrwt beam="2">  1       -1 0.12062485E+00 0.13910277E+04</pdfrwt>
<totfact> 0.61056344E-01</totfact>
</mgrwt>
</event>
<event>
12    1  0.3203156E-008  0.1356138E+04  0.7818608E-02  0.8986195E-01
         -2   -1    0    0    0  501 -0.00000000000E+00  0.00000000000E+00  0.17403963336E+04  0.17403963336E+04  0.00000000000E+00 0.  1.
          2   -1    0    0  501    0  0.00000000000E+00 -0.00000000000E+00 -0.10999862545E+04  0.10999862545E+04  0.00000000000E+00 0. -1.
         23    2    1    2    0    0  0.80661754361E+03 -0.10191637559E+04  0.87544568945E+02  0.13058103604E+04  0.90277476302E+02 0.  0.
    5000000    2    1    2    0    0 -0.80661754361E+03  0.10191637559E+04  0.55286551015E+03  0.15345722276E+04  0.59993751885E+03 0.  0.
         23    2    4    4    0    0 -0.32905015985E+03  0.59684163299E+02  0.20565513691E+03  0.40432866730E+03  0.96702785982E+02 0.  0.
         23    2    4    4    0    0 -0.47756738376E+03  0.95947959259E+03  0.34721037325E+03  0.11302435603E+04  0.90684991898E+02 0.  0.
          5    1    3    3  502    0  0.15681102765E+03 -0.24556584077E+03  0.42640137660E+02  0.29450390810E+03  0.47000000000E+01 0.  1.
         -5    1    3    3    0  502  0.64980651596E+03 -0.77359791512E+03  0.44904431284E+02  0.10113064523E+04  0.47000000000E+01 0. -1.
         13    1    5    5    0    0 -0.16632427297E+03  0.13126031250E+02  0.49467726921E+02  0.17402043696E+03  0.00000000000E+00 0. -1.
        -13    1    5    5    0    0 -0.16272588689E+03  0.46558132049E+02  0.15618740999E+03  0.23030823034E+03  0.00000000000E+00 0.  1.
          4    1    6    6  503    0 -0.91974384520E+02  0.12481487260E+03  0.32210925867E+02  0.15835271887E+03  0.00000000000E+00 0. -1.
         -4    1    6    6    0  503 -0.38559299924E+03  0.83466471999E+03  0.31499944738E+03  0.97189084146E+03  0.00000000000E+00 0.  1.
<mgrwt>
<rscale>  0 0.13561381E+04</rscale>
<asrwt>0</asrwt>
<pdfrwt beam="1">  1        2 0.16922866E+00 0.13561381E+04</pdfrwt>
<pdfrwt beam="2">  1       -2 0.26775328E+00 0.13561381E+04</pdfrwt>
<totfact> 0.10447216E+00</totfact>
</mgrwt>
</event>
<event>
12    1  0.3203156E-008  0.6148932E+03  0.7818608E-02  0.9874980E-01
          2   -1    0    0  501    0  0.00000000000E+00  0.00000000000E+00  0.96978122582E+03  0.96978122582E+03  0.00000000000E+00 0. -1.
         -2   -1    0    0    0  501 -0.00000000000E+00 -0.00000000000E+00 -0.51029236920E+03  0.51029236920E+03  0.00000000000E+00 0.  1.
         23    2    1    2    0    0 -0.40911222881E+03 -0.28608956793E+03  0.48106131953E+03  0.69927141985E+03  0.91326167320E+02 0.  0.
    5000000    2    1    2    0    0  0.40911222881E+03  0.28608956793E+03 -0.21572462912E+02  0.78080217516E+03  0.59997217348E+03 0.  0.
         23    2    4    4    0    0  0.17043102383E+03  0.41071387404E+03  0.10904916855E+03  0.46794793814E+03  0.96700214253E+02 0.  0.
         23    2    4    4    0    0  0.23868120498E+03 -0.12462430611E+03 -0.13062163146E+03  0.31285423702E+03  0.91191160375E+02 0.  0.
          5    1    3    3  502    0 -0.19169759852E+03 -0.86904403893E+02  0.16955873095E+03  0.27031943684E+03  0.47000000000E+01 0. -1.
         -5    1    3    3    0  502 -0.21741463029E+03 -0.19918516404E+03  0.31150258858E+03  0.42895198301E+03  0.47000000000E+01 0.  1.
         11    1    5    5    0    0  0.11079853469E+03  0.26319026687E+03  0.11706620345E+03  0.30862587036E+03  0.00000000000E+00 0.  1.
        -11    1    5    5    0    0  0.59632489132E+02  0.14752360717E+03 -0.80170349037E+01  0.15932206778E+03  0.00000000000E+00 0. -1.
          1    1    6    6  503    0  0.86189559742E+02 -0.87309845330E+02 -0.29719619846E+02  0.12623353399E+03  0.00000000000E+00 0. -1.
         -1    1    6    6    0  503  0.15249164524E+03 -0.37314460784E+02 -0.10090201162E+03  0.18662070303E+03  0.00000000000E+00 0.  1.
<mgrwt>
<rscale>  0 0.61489325E+03</rscale>
<asrwt>0</asrwt>
<pdfrwt beam="1">  1        2 0.14919711E+00 0.61489325E+03</pdfrwt>
<pdfrwt beam="2">  1       -2 0.78506519E-01 0.61489325E+03</pdfrwt>
<totfact> 0.39114612E+01</totfact>
</mgrwt>
</event>
<event>
12    1  0.3203156E-008  0.6949370E+03  0.7818608E-02  0.9725930E-01
         -2   -1    0    0    0  501 -0.00000000000E+00  0.00000000000E+00  0.44636651347E+03  0.44636651347E+03  0.00000000000E+00 0. -1.
          2   -1    0    0  501    0  0.00000000000E+00 -0.00000000000E+00 -0.18375160987E+04  0.18375160987E+04  0.00000000000E+00 0.  1.
         23    2    1    2    0    0  0.20470590845E+03  0.60684587965E+03 -0.12326390681E+04  0.13920831939E+04  0.91269469625E+02 0.  0.
    5000000    2    1    2    0    0 -0.20470590845E+03 -0.60684587965E+03 -0.15851051713E+03  0.89179941822E+03  0.60001182295E+03 0.  0.
         23    2    4    4    0    0 -0.22947873337E+03 -0.61089122294E+03  0.52101603376E+02  0.66102632488E+03  0.91611406396E+02 0.  0.
         23    2    4    4    0    0  0.24772824924E+02  0.40453432843E+01 -0.21061212051E+03  0.23077309333E+03  0.90932379521E+02 0.  0.
          5    1    3    3  502    0  0.13931472088E+03  0.40669927908E+03 -0.91492787791E+03  0.10109045488E+04  0.47000000000E+01 0. -1.
         -5    1    3    3    0  502  0.65391187568E+02  0.20014660057E+03 -0.31771119018E+03  0.38117864512E+03  0.47000000000E+01 0.  1.
         13    1    5    5    0    0 -0.22587528315E+03 -0.55713135028E+03  0.67585498891E+02  0.60496511029E+03  0.00000000000E+00 0. -1.
        -13    1    5    5    0    0 -0.36034502179E+01 -0.53759872654E+02 -0.15483895515E+02  0.56061214592E+02  0.00000000000E+00 0.  1.
          3    1    6    6  503    0 -0.33833422085E+01  0.44700094591E+02 -0.10398945304E+03  0.11324023933E+03  0.00000000000E+00 0. -1.
         -3    1    6    6    0  503  0.28156167133E+02 -0.40654751307E+02 -0.10662266747E+03  0.11753285400E+03  0.00000000000E+00 0.  1.
<mgrwt>
<rscale>  0 0.69493704E+03</rscale>
<asrwt>0</asrwt>
<pdfrwt beam="1">  1        2 0.28269478E+00 0.69493704E+03</pdfrwt>
<pdfrwt beam="2">  1       -2 0.68671772E-01 0.69493704E+03</pdfrwt>
<totfact> 0.16564664E+01</totfact>
</mgrwt>
</event>
<event>
12    1  0.3203156E-008  0.1460781E+04  0.7818608E-02  0.8910960E-01
          1   -1    0    0  501    0  0.00000000000E+00  0.00000000000E+00  0.10497884612E+04  0.10497884612E+04  0.00000000000E+00 0. -1.
         -1   -1    0    0    0  501 -0.00000000000E+00 -0.00000000000E+00 -0.23513928263E+04  0.23513928263E+04  0.00000000000E+00 0.  1.
         23    2    1    2    0    0  0.46852372968E+03 -0.13218324914E+04 -0.14485577672E+02  0.14053475072E+04  0.89644650691E+02 0.  0.
    5000000    2    1    2    0    0 -0.46852372968E+03  0.13218324914E+04 -0.12871187874E+04  0.19958337804E+04  0.59993506775E+03 0.  0.
         23    2    4    4    0    0 -0.12722656679E+03  0.10814707227E+04 -0.99712764946E+03  0.14792706642E+04  0.90623535129E+02 0.  0.
         23    2    4    4    0    0 -0.34129716289E+03  0.24036176863E+03 -0.28999113794E+03  0.51656311621E+03  0.92114383958E+02 0.  0.
          5    1    3    3  502    0  0.13071378685E+02 -0.10544794861E+03 -0.41988285187E+01  0.10644177267E+03  0.47000000000E+01 0. -1.
         -5    1    3    3    0  502  0.45545235100E+03 -0.12163845428E+04 -0.10286749153E+02  0.12989057345E+04  0.47000000000E+01 0.  1.
         13    1    5    5    0    0 -0.10569304346E+03  0.87658886539E+03 -0.75833862585E+03  0.11638971303E+04  0.00000000000E+00 0.  1.
        -13    1    5    5    0    0 -0.21533523340E+02  0.20488185736E+03 -0.23878902361E+03  0.31537353392E+03  0.00000000000E+00 0. -1.
          4    1    6    6  503    0 -0.16771896306E+03  0.17368563571E+03 -0.16918300708E+03  0.29482069213E+03  0.00000000000E+00 0. -1.
         -4    1    6    6    0  503 -0.17357819982E+03  0.66676132920E+02 -0.12080813086E+03  0.22174242408E+03  0.00000000000E+00 0.  1.
<mgrwt>
<rscale>  0 0.14607811E+04</rscale>
<asrwt>0</asrwt>
<pdfrwt beam="1">  1        1 0.16150592E+00 0.14607811E+04</pdfrwt>
<pdfrwt beam="2">  1       -1 0.36175274E+00 0.14607811E+04</pdfrwt>
<totfact> 0.17178585E-01</totfact>
</mgrwt>
</event>
<event>
12    1  0.3203156E-008  0.8018663E+03  0.7818608E-02  0.9557320E-01
         -1   -1    0    0    0  501 -0.00000000000E+00  0.00000000000E+00  0.36946129975E+03  0.36946129975E+03  0.00000000000E+00 0.  1.
          1   -1    0    0  501    0  0.00000000000E+00 -0.00000000000E+00 -0.23388376729E+04  0.23388376729E+04  0.00000000000E+00 0. -1.
         23    2    1    2    0    0 -0.71893809297E+03 -0.13470668473E+03 -0.14561254013E+04  0.16319730087E+04  0.89536831597E+02 0.  0.
    5000000    2    1    2    0    0  0.71893809297E+03  0.13470668473E+03 -0.51325097186E+03  0.10763259640E+04  0.60002762290E+03 0.  0.
         23    2    4    4    0    0  0.77333012040E+03  0.10270359237E+03 -0.55019923396E+03  0.95892487856E+03  0.90720574719E+02 0.  0.
         23    2    4    4    0    0 -0.54392027427E+02  0.32003092359E+02  0.36948262098E+02  0.11740108544E+03  0.91843073896E+02 0.  0.
          5    1    3    3  502    0 -0.44709166509E+03 -0.10867041784E+03 -0.83349890010E+03  0.95207285602E+03  0.47000000000E+01 0. -1.
         -5    1    3    3    0  502 -0.27184642788E+03 -0.26036266892E+02 -0.62262650121E+03  0.67990015263E+03  0.47000000000E+01 0.  1.
         11    1    5    5    0    0  0.46822249627E+03  0.83416050528E+02 -0.38186660219E+03  0.60992839364E+03  0.00000000000E+00 0. -1.
        -11    1    5    5    0    0  0.30510762412E+03  0.19287541846E+02 -0.16833263177E+03  0.34899648492E+03  0.00000000000E+00 0.  1.
          3    1    6    6  503    0 -0.32590740599E+02  0.50810629794E+02 -0.11109352398E+02  0.61378287557E+02  0.00000000000E+00 0. -1.
         -3    1    6    6    0  503 -0.21801286828E+02 -0.18807537435E+02  0.48057614496E+02  0.56022797884E+02  0.00000000000E+00 0.  1.
<mgrwt>
<rscale>  0 0.80186629E+03</rscale>
<asrwt>0</asrwt>
<pdfrwt beam="1">  1        1 0.35982118E+00 0.80186629E+03</pdfrwt>
<pdfrwt beam="2">  1       -1 0.56840199E-01 0.80186629E+03</pdfrwt>
<totfact> 0.57354022E+00</totfact>
</mgrwt>
</event>
<event>
12    1  0.3203156E-008  0.1006616E+04  0.7818608E-02  0.9301318E-01
          2   -1    0    0  501    0  0.00000000000E+00  0.00000000000E+00  0.19218583329E+04  0.19218583329E+04  0.00000000000E+00 0. -1.
         -2   -1    0    0    0  501 -0.00000000000E+00 -0.00000000000E+00 -0.98676032658E+03  0.98676032658E+03  0.00000000000E+00 0.  1.
         23    2    1    2    0    0  0.85765631526E+03 -0.45793599559E+03  0.13732769304E+04  0.16849359967E+04  0.88544080934E+02 0.  0.
    5000000    2    1    2    0    0 -0.85765631526E+03  0.45793599559E+03 -0.43817892408E+03  0.12236826628E+04  0.60009895727E+03 0.  0.
         23    2    4    4    0    0 -0.53586559820E+02  0.16259937275E+03 -0.29264865005E+03  0.34998453433E+03  0.86809368652E+02 0.  0.
         23    2    4    4    0    0 -0.80406975544E+03  0.29533662284E+03 -0.14553027404E+03  0.87369812845E+03  0.91746752489E+02 0.  0.
          5    1    3    3  502    0  0.53173431207E+03 -0.32347829521E+03  0.91733928019E+03  0.11085634989E+04  0.47000000000E+01 0. -1.
         -5    1    3    3    0  502  0.32592200319E+03 -0.13445770038E+03  0.45593765024E+03  0.57637249783E+03  0.47000000000E+01 0.  1.
         13    1    5    5    0    0  0.96111181424E+01  0.19992722221E+02 -0.98350704449E+02  0.10082134496E+03  0.00000000000E+00 0. -1.
        -13    1    5    5    0    0 -0.63197677963E+02  0.14260665053E+03 -0.19429794560E+03  0.24916318937E+03  0.00000000000E+00 0.  1.
          1    1    6    6  503    0 -0.32100154714E+03  0.15835620196E+03 -0.35700996044E+02  0.35971272022E+03  0.00000000000E+00 0. -1.
         -1    1    6    6    0  503 -0.48306820830E+03  0.13698042088E+03 -0.10982927799E+03  0.51398540823E+03  0.00000000000E+00 0.  1.
<mgrwt>
<rscale>  0 0.10066157E+04</rscale>
<asrwt>0</asrwt>
<pdfrwt beam="1">  1        2 0.29567051E+00 0.10066157E+04</pdfrwt>
<pdfrwt beam="2">  1       -2 0.15180928E+00 0.10066157E+04</pdfrwt>
<totfact> 0.21340321E+00</totfact>
</mgrwt>
</event>
<event>
12    1  0.3203156E-008  0.4187051E+03  0.7818608E-02  0.1037489E+00
         -2   -1    0    0    0  501 -0.00000000000E+00  0.00000000000E+00  0.11724248156E+03  0.11724248156E+03  0.00000000000E+00 0.  1.
          2   -1    0    0  501    0  0.00000000000E+00 -0.00000000000E+00 -0.18042693068E+04  0.18042693068E+04  0.00000000000E+00 0. -1.
         23    2    1    2    0    0 -0.23702997696E+03  0.88395060552E+02 -0.54322929971E+03  0.60598961508E+03  0.90157888198E+02 0.  0.
    5000000    2    1    2    0    0  0.23702997696E+03 -0.88395060552E+02 -0.11437975255E+04  0.13155221733E+04  0.59860580710E+03 0.  0.
         23    2    4    4    0    0  0.25209543315E+03 -0.28274307971E+03 -0.94818419353E+03  0.10250109072E+04  0.89990769132E+02 0.  0.
         23    2    4    4    0    0 -0.15065456182E+02  0.19434801916E+03 -0.19561333198E+03  0.29051126605E+03  0.90189242885E+02 0.  0.
          5    1    3    3  502    0 -0.66041500279E+02  0.31446262618E+02 -0.26096954212E+03  0.27106740695E+03  0.47000000000E+01 0. -1.
         -5    1    3    3    0  502 -0.17098847668E+03  0.56948797934E+02 -0.28225975759E+03  0.33492220813E+03  0.47000000000E+01 0.  1.
         13    1    5    5    0    0  0.17361144065E+03 -0.24833813081E+03 -0.76283673486E+03  0.82081218533E+03  0.00000000000E+00 0. -1.
        -13    1    5    5    0    0  0.78483992490E+02 -0.34404948906E+02 -0.18534745867E+03  0.20419872189E+03  0.00000000000E+00 0.  1.
          4    1    6    6  503    0 -0.68334943950E+01  0.41425485368E+02  0.12115689785E+00  0.41985499433E+02  0.00000000000E+00 0. -1.
         -4    1    6    6    0  503 -0.82319617872E+01  0.15292253379E+03 -0.19573448888E+03  0.24852576662E+03  0.00000000000E+00 0.  1.
<mgrwt>
<rscale>  0 0.41870511E+03</rscale>
<asrwt>0</asrwt>
<pdfrwt beam="1">  1        2 0.27757991E+00 0.41870511E+03</pdfrwt>
<pdfrwt beam="2">  1       -2 0.18037304E-01 0.41870511E+03</pdfrwt>
<totfact> 0.23159693E+02</totfact>
</mgrwt>
</event>
<event>
12    1  0.3203156E-008  0.6039113E+03  0.7818608E-02  0.9897324E-01
          1   -1    0    0  501    0  0.00000000000E+00  0.00000000000E+00  0.50370187100E+03  0.50370187100E+03  0.00000000000E+00 0. -1.
         -1   -1    0    0    0  501 -0.00000000000E+00 -0.00000000000E+00 -0.97423292270E+03  0.97423292270E+03  0.00000000000E+00 0.  1.
         23    2    1    2    0    0  0.46223282764E+03 -0.23971274154E+02  0.15374023609E+03  0.49612589070E+03  0.90945204894E+02 0.  0.
    5000000    2    1    2    0    0 -0.46223282764E+03  0.23971274154E+02 -0.62427128780E+03  0.98180890300E+03  0.60000022692E+03 0.  0.
         23    2    4    4    0    0 -0.44929914981E+03 -0.20569783670E+03 -0.47299819048E+03  0.69096265318E+03  0.97574452851E+02 0.  0.
         23    2    4    4    0    0 -0.12933677828E+02  0.22966911086E+03 -0.15127309732E+03  0.29084624982E+03  0.93769987495E+02 0.  0.
          5    1    3    3  502    0  0.36114535156E+03 -0.39493558614E+02  0.15169638992E+03  0.39372527330E+03  0.47000000000E+01 0. -1.
         -5    1    3    3    0  502  0.10108747608E+03  0.15522284460E+02  0.20438461781E+01  0.10240061740E+03  0.47000000000E+01 0.  1.
         11    1    5    5    0    0 -0.36014264571E+03 -0.11914157202E+03 -0.36184657583E+03  0.52424267652E+03  0.00000000000E+00 0.  1.
        -11    1    5    5    0    0 -0.89156504098E+02 -0.86556264684E+02 -0.11115161466E+03  0.16671997667E+03  0.00000000000E+00 0. -1.
          3    1    6    6  503    0  0.25708681793E+02  0.92076989885E+02 -0.10169826085E+03  0.13957666225E+03  0.00000000000E+00 0. -1.
         -3    1    6    6    0  503 -0.38642359621E+02  0.13759212097E+03 -0.49574836474E+02  0.15126958757E+03  0.00000000000E+00 0.  1.
<mgrwt>
<rscale>  0 0.60391129E+03</rscale>
<asrwt>0</asrwt>
<pdfrwt beam="1">  1        1 0.77492597E-01 0.60391129E+03</pdfrwt>
<pdfrwt beam="2">  1       -1 0.14988199E+00 0.60391129E+03</pdfrwt>
<totfact> 0.16053971E+01</totfact>
</mgrwt>
</event>
<event>
12    1  0.3203156E-008  0.8729123E+03  0.7818608E-02  0.9460091E-01
          2   -1    0    0  501    0  0.00000000000E+00  0.00000000000E+00  0.11003925364E+04  0.11003925364E+04  0.00000000000E+00 0. -1.
         -2   -1    0    0    0  501 -0.00000000000E+00 -0.00000000000E+00 -0.72316798296E+03  0.72316798296E+03  0.00000000000E+00 0.  1.
         23    2    1    2    0    0 -0.70990242369E+03  0.31487235778E+03  0.29543358940E+02  0.78236993661E+03  0.90132429195E+02 0.  0.
    5000000    2    1    2    0    0  0.70990242369E+03 -0.31487235778E+03  0.34768119451E+03  0.10411905828E+04  0.60007463183E+03 0.  0.
         23    2    4    4    0    0  0.10875302683E+03 -0.34302350835E+03  0.15909380793E+03  0.40412315051E+03  0.92262305062E+02 0.  0.
         23    2    4    4    0    0  0.60114939686E+03  0.28151150562E+02  0.18858738658E+03  0.63706743225E+03  0.90092320660E+02 0.  0.
          5    1    3    3  502    0 -0.16041175944E+03  0.41516871675E+02 -0.18246967709E+02  0.16676517932E+03  0.47000000000E+01 0. -1.
         -5    1    3    3    0  502 -0.54949066425E+03  0.27335548611E+03  0.47790326649E+02  0.61560475729E+03  0.47000000000E+01 0.  1.
         13    1    5    5    0    0  0.45773563369E+00 -0.74310291842E+02  0.67182693914E+02  0.10017855737E+03  0.00000000000E+00 0. -1.
        -13    1    5    5    0    0  0.10829529120E+03 -0.26871321650E+03  0.91911114018E+02  0.30394459314E+03  0.00000000000E+00 0.  1.
          2    1    6    6  503    0  0.30774522664E+03  0.26429739485E+02  0.14210451850E+03  0.33999904386E+03  0.00000000000E+00 0. -1.
         -2    1    6    6    0  503  0.29340417021E+03  0.17214110764E+01  0.46482868080E+02  0.29706838839E+03  0.00000000000E+00 0.  1.
<mgrwt>
<rscale>  0 0.87291231E+03</rscale>
<asrwt>0</asrwt>
<pdfrwt beam="1">  1        2 0.16929116E+00 0.87291231E+03</pdfrwt>
<pdfrwt beam="2">  1       -2 0.11125661E+00 0.87291231E+03</pdfrwt>
<totfact> 0.13984245E+01</totfact>
</mgrwt>
</event>
<event>
12    1  0.3203156E-008  0.6145679E+03  0.7818608E-02  0.9875635E-01
          1   -1    0    0  501    0  0.00000000000E+00  0.00000000000E+00  0.64568663346E+03  0.64568663346E+03  0.00000000000E+00 0. -1.
         -1   -1    0    0    0  501 -0.00000000000E+00 -0.00000000000E+00 -0.75910392403E+03  0.75910392403E+03  0.00000000000E+00 0.  1.
         23    2    1    2    0    0  0.25373934995E+03  0.50166846181E+03  0.43934913950E+02  0.56762420449E+03  0.64900366557E+02 0.  0.
    5000000    2    1    2    0    0 -0.25373934995E+03 -0.50166846181E+03 -0.15735220452E+03  0.83716635300E+03  0.60002740191E+03 0.  0.
         23    2    4    4    0    0 -0.21522550282E+03 -0.81554530552E+02 -0.29428307059E+03  0.38448117617E+03  0.90830009773E+02 0.  0.
         23    2    4    4    0    0 -0.38513847124E+02 -0.42011393126E+03  0.13693086606E+03  0.45268517683E+03  0.90524999784E+02 0.  0.
          5    1    3    3  502    0  0.15979222551E+03  0.34171394630E+03  0.57278706973E+02  0.38158212314E+03  0.47000000000E+01 0. -1.
         -5    1    3    3    0  502  0.93947124437E+02  0.15995451551E+03 -0.13343793023E+02  0.18604208135E+03  0.47000000000E+01 0.  1.
         13    1    5    5    0    0 -0.15114262827E+03 -0.80750542171E+02 -0.26110376893E+03  0.31231382020E+03  0.00000000000E+00 0. -1.
        -13    1    5    5    0    0 -0.64082874556E+02 -0.80398838104E+00 -0.33179301656E+02  0.72167355965E+02  0.00000000000E+00 0.  1.
          2    1    6    6  503    0  0.27082730522E+02 -0.17686100206E+03  0.45000794479E+02  0.18449487756E+03  0.00000000000E+00 0. -1.
         -2    1    6    6    0  503 -0.65596577646E+02 -0.24325292919E+03  0.91930071585E+02  0.26819029927E+03  0.00000000000E+00 0.  1.
<mgrwt>
<rscale>  0 0.61456787E+03</rscale>
<asrwt>0</asrwt>
<pdfrwt beam="1">  1        1 0.99336406E-01 0.61456787E+03</pdfrwt>
<pdfrwt beam="2">  1       -1 0.11678522E+00 0.61456787E+03</pdfrwt>
<totfact> 0.21227522E+01</totfact>
</mgrwt>
</event>
<event>
12    1  0.3203156E-008  0.1663290E+04  0.7818608E-02  0.8782583E-01
          1   -1    0    0  501    0  0.00000000000E+00  0.00000000000E+00  0.24006690573E+04  0.24006690573E+04  0.00000000000E+00 0. -1.
         -1   -1    0    0    0  501 -0.00000000000E+00 -0.00000000000E+00 -0.18639239523E+04  0.18639239523E+04  0.00000000000E+00 0.  1.
         23    2    1    2    0    0 -0.14598193502E+04  0.72770016199E+03 -0.10245497748E+04  0.19283267340E+04  0.90120423894E+02 0.  0.
    5000000    2    1    2    0    0  0.14598193502E+04 -0.72770016199E+03  0.15612948798E+04  0.23362662757E+04  0.59989861507E+03 0.  0.
         23    2    4    4    0    0  0.14266517304E+04 -0.64809648044E+03  0.15567627044E+04  0.22106738659E+04  0.90579336161E+02 0.  0.
         23    2    4    4    0    0  0.33167619813E+02 -0.79603681554E+02  0.45321754800E+01  0.12559240979E+03  0.91192519763E+02 0.  0.
          5    1    3    3  502    0 -0.90884401841E+03  0.48750128766E+03 -0.61136741068E+03  0.11989358432E+04  0.47000000000E+01 0. -1.
         -5    1    3    3    0  502 -0.55097533178E+03  0.24019887433E+03 -0.41318236415E+03  0.72939089075E+03  0.47000000000E+01 0.  1.
         11    1    5    5    0    0  0.10895388387E+04 -0.53561177758E+03  0.11928357304E+04  0.17020082071E+04  0.00000000000E+00 0.  1.
        -11    1    5    5    0    0  0.33711289164E+03 -0.11248470286E+03  0.36392697400E+03  0.50866565885E+03  0.00000000000E+00 0. -1.
          1    1    6    6  503    0  0.66186029119E+01  0.20288154391E+02 -0.45981813379E+01  0.21830217239E+02  0.00000000000E+00 0. -1.
         -1    1    6    6    0  503  0.26549016901E+02 -0.99891835945E+02  0.91303568179E+01  0.10376219255E+03  0.00000000000E+00 0.  1.
<mgrwt>
<rscale>  0 0.16632902E+04</rscale>
<asrwt>0</asrwt>
<pdfrwt beam="1">  1        1 0.36933370E+00 0.16632902E+04</pdfrwt>
<pdfrwt beam="2">  1       -1 0.28675753E+00 0.16632902E+04</pdfrwt>
<totfact> 0.58971241E-02</totfact>
</mgrwt>
</event>
<event>
12    1  0.3203156E-008  0.6847456E+03  0.7818608E-02  0.9743681E-01
          1   -1    0    0  501    0  0.00000000000E+00  0.00000000000E+00  0.88195192033E+03  0.88195192033E+03  0.00000000000E+00 0. -1.
         -1   -1    0    0    0  501 -0.00000000000E+00 -0.00000000000E+00 -0.56983797012E+03  0.56983797012E+03  0.00000000000E+00 0.  1.
         23    2    1    2    0    0 -0.55990185085E+03  0.11866038326E+03  0.20923376427E+03  0.61624032590E+03  0.91667889789E+02 0.  0.
    5000000    2    1    2    0    0  0.55990185085E+03 -0.11866038326E+03  0.10288018594E+03  0.83554956455E+03  0.59999031077E+03 0.  0.
         23    2    4    4    0    0 -0.66140375007E+02 -0.13855632775E+03 -0.50377885156E+02  0.18426324936E+03  0.88558503747E+02 0.  0.
         23    2    4    4    0    0  0.62604222586E+03  0.19895944489E+02  0.15325807110E+03  0.65128631519E+03  0.91439109981E+02 0.  0.
          5    1    3    3  502    0 -0.43749183094E+03  0.76694065692E+02  0.19782693181E+03  0.48624959312E+03  0.47000000000E+01 0. -1.
         -5    1    3    3    0  502 -0.12241001991E+03  0.41966317564E+02  0.11406832451E+02  0.12999073279E+03  0.47000000000E+01 0.  1.
         13    1    5    5    0    0 -0.66079025485E+02 -0.55345336555E+02 -0.52683552975E+02  0.10102029817E+03  0.00000000000E+00 0. -1.
        -13    1    5    5    0    0 -0.61349521941E-01 -0.83210991190E+02  0.23056678187E+01  0.83242951189E+02  0.00000000000E+00 0.  1.
          3    1    6    6  503    0  0.39196347508E+03  0.86442564702E+01  0.14091005973E+03  0.41661221045E+03  0.00000000000E+00 0. -1.
         -3    1    6    6    0  503  0.23407875078E+03  0.11251688019E+02  0.12348011369E+02  0.23467410474E+03  0.00000000000E+00 0.  1.
<mgrwt>
<rscale>  0 0.68474556E+03</rscale>
<asrwt>0</asrwt>
<pdfrwt beam="1">  1        1 0.13568491E+00 0.68474556E+03</pdfrwt>
<pdfrwt beam="2">  1       -1 0.87667380E-01 0.68474556E+03</pdfrwt>
<totfact> 0.24944864E+01</totfact>
</mgrwt>
</event>
<event>
12    1  0.3203156E-008  0.1172560E+04  0.7818608E-02  0.9137219E-01
         -2   -1    0    0    0  501 -0.00000000000E+00  0.00000000000E+00  0.84757863222E+03  0.84757863222E+03  0.00000000000E+00 0.  1.
          2   -1    0    0  501    0  0.00000000000E+00 -0.00000000000E+00 -0.20499204692E+04  0.20499204692E+04  0.00000000000E+00 0. -1.
         23    2    1    2    0    0  0.10081224713E+04 -0.48873695221E+03  0.33968129957E+02  0.11245650385E+04  0.91202886371E+02 0.  0.
    5000000    2    1    2    0    0 -0.10081224713E+04  0.48873695221E+03 -0.12363099669E+04  0.17729340629E+04  0.59971504186E+03 0.  0.
         23    2    4    4    0    0 -0.32257664624E+03 -0.71529389281E+02 -0.55448302148E+03  0.65128256850E+03  0.86864357963E+02 0.  0.
         23    2    4    4    0    0 -0.68554582503E+03  0.56026634149E+03 -0.68182694544E+03  0.11216514944E+04  0.96657331215E+02 0.  0.
          5    1    3    3  502    0  0.50780865173E+03 -0.22223251233E+03  0.56720294069E+02  0.55722185714E+03  0.47000000000E+01 0. -1.
         -5    1    3    3    0  502  0.50031381954E+03 -0.26650443988E+03 -0.22752164112E+02  0.56734318139E+03  0.47000000000E+01 0.  1.
         13    1    5    5    0    0 -0.29790134009E+03 -0.78765778340E+02 -0.46230823815E+03  0.55558812381E+03  0.00000000000E+00 0. -1.
        -13    1    5    5    0    0 -0.24675306152E+02  0.72363890591E+01 -0.92174783333E+02  0.95694444681E+02  0.00000000000E+00 0.  1.
          4    1    6    6  503    0 -0.26438815836E+03  0.16000787329E+03 -0.21773196508E+03  0.37803548300E+03  0.00000000000E+00 0. -1.
         -4    1    6    6    0  503 -0.42115766667E+03  0.40025846821E+03 -0.46409498036E+03  0.74361601137E+03  0.00000000000E+00 0.  1.
<mgrwt>
<rscale>  0 0.11725603E+04</rscale>
<asrwt>0</asrwt>
<pdfrwt beam="1">  1        2 0.31537238E+00 0.11725603E+04</pdfrwt>
<pdfrwt beam="2">  1       -2 0.13039671E+00 0.11725603E+04</pdfrwt>
<totfact> 0.26424513E+00</totfact>
</mgrwt>
</event>
<event>
12    1  0.3203156E-008  0.6200184E+03  0.7818608E-02  0.9864723E-01
         -1   -1    0    0    0  501 -0.00000000000E+00  0.00000000000E+00  0.59519637047E+03  0.59519637047E+03  0.00000000000E+00 0.  1.
          1   -1    0    0  501    0  0.00000000000E+00 -0.00000000000E+00 -0.27092287473E+04  0.27092287473E+04  0.00000000000E+00 0. -1.
         23    2    1    2    0    0  0.18896659495E+03 -0.57880442925E+03 -0.23404926631E+04  0.24200920971E+04  0.90647178976E+02 0.  0.
    5000000    2    1    2    0    0 -0.18896659495E+03  0.57880442925E+03  0.22646028629E+03  0.88433302065E+03  0.60003140653E+03 0.  0.
         23    2    4    4    0    0 -0.99360514451E+02  0.20102444441E+03  0.38532457585E+03  0.45516425667E+03  0.91739482833E+02 0.  0.
         23    2    4    4    0    0 -0.89606080497E+02  0.37777998483E+03 -0.15886428956E+03  0.42916876398E+03  0.90559366584E+02 0.  0.
          5    1    3    3  502    0  0.12478305586E+03 -0.48590301897E+03 -0.18580883255E+04  0.19246264236E+04  0.47000000000E+01 0. -1.
         -5    1    3    3    0  502  0.64183539084E+02 -0.92901410279E+02 -0.48240433757E+03  0.49546567351E+03  0.47000000000E+01 0.  1.
         13    1    5    5    0    0 -0.20859352197E+02  0.10123647020E+03  0.10455846647E+03  0.14702519642E+03  0.00000000000E+00 0.  1.
        -13    1    5    5    0    0 -0.78501162254E+02  0.99787974217E+02  0.28076610938E+03  0.30813906025E+03  0.00000000000E+00 0. -1.
          2    1    6    6  503    0 -0.75315699584E+00  0.15716420737E+03 -0.91996027776E+02  0.18211102232E+03  0.00000000000E+00 0. -1.
         -2    1    6    6    0  503 -0.88852923501E+02  0.22061577747E+03 -0.66868261784E+02  0.24705774166E+03  0.00000000000E+00 0.  1.
<mgrwt>
<rscale>  0 0.62001837E+03</rscale>
<asrwt>0</asrwt>
<pdfrwt beam="1">  1        1 0.41680443E+00 0.62001837E+03</pdfrwt>
<pdfrwt beam="2">  1       -1 0.91568671E-01 0.62001837E+03</pdfrwt>
<totfact> 0.12421854E+00</totfact>
</mgrwt>
</event>
<event>
12    1  0.3203156E-008  0.4625606E+03  0.7818608E-02  0.1024041E+00
          1   -1    0    0  501    0  0.00000000000E+00  0.00000000000E+00  0.29003543167E+03  0.29003543167E+03  0.00000000000E+00 0. -1.
         -1   -1    0    0    0  501 -0.00000000000E+00 -0.00000000000E+00 -0.98645911062E+03  0.98645911062E+03  0.00000000000E+00 0.  1.
         23    2    1    2    0    0 -0.17564978055E+03  0.24916318526E+03 -0.46773878550E+03  0.56574845458E+03  0.91414463296E+02 0.  0.
    5000000    2    1    2    0    0  0.17564978055E+03 -0.24916318526E+03 -0.22868489345E+03  0.71074608771E+03  0.59994006568E+03 0.  0.
         23    2    4    4    0    0 -0.17806767903E+03 -0.94807078153E+02  0.47474415113E+02  0.22685769341E+03  0.92271949067E+02 0.  0.
         23    2    4    4    0    0  0.35371745959E+03 -0.15435610711E+03 -0.27615930857E+03  0.48388839430E+03  0.94563023518E+02 0.  0.
          5    1    3    3  502    0 -0.46795113964E+02  0.14415350435E+03 -0.21002580789E+03  0.25904236234E+03  0.47000000000E+01 0. -1.
         -5    1    3    3    0  502 -0.12885466659E+03  0.10500968091E+03 -0.25771297761E+03  0.30670609224E+03  0.47000000000E+01 0.  1.
         13    1    5    5    0    0 -0.16030306236E+03 -0.10833897626E+03  0.58255959302E+02  0.20205979900E+03  0.00000000000E+00 0.  1.
        -13    1    5    5    0    0 -0.17764616669E+02  0.13531898106E+02 -0.10781544189E+02  0.24797894404E+02  0.00000000000E+00 0. -1.
          4    1    6    6  503    0  0.79115520199E+02 -0.61754921284E+01 -0.24599124382E+02  0.83081400805E+02  0.00000000000E+00 0. -1.
         -4    1    6    6    0  503  0.27460193939E+03 -0.14818061498E+03 -0.25156018419E+03  0.40080699350E+03  0.00000000000E+00 0.  1.
<mgrwt>
<rscale>  0 0.46256065E+03</rscale>
<asrwt>0</asrwt>
<pdfrwt beam="1">  1        1 0.44620836E-01 0.46256065E+03</pdfrwt>
<pdfrwt beam="2">  1       -1 0.15176294E+00 0.46256065E+03</pdfrwt>
<totfact> 0.32717508E+01</totfact>
</mgrwt>
</event>
<event>
12    1  0.3203156E-008  0.2255679E+04  0.7818608E-02  0.8495604E-01
          2   -1    0    0  501    0  0.00000000000E+00  0.00000000000E+00  0.37570265503E+04  0.37570265503E+04  0.00000000000E+00 0. -1.
         -2   -1    0    0    0  501 -0.00000000000E+00 -0.00000000000E+00 -0.14082080272E+04  0.14082080272E+04  0.00000000000E+00 0.  1.
         23    2    1    2    0    0  0.19038431233E+04 -0.11982436459E+04  0.13996924575E+04  0.26510277254E+04  0.91665435282E+02 0.  0.
    5000000    2    1    2    0    0 -0.19038431233E+04  0.11982436459E+04  0.94912606558E+03  0.25142068522E+04  0.59999111159E+03 0.  0.
         23    2    4    4    0    0 -0.31666474239E+03  0.30053030367E+03  0.42281875623E+03  0.61410853077E+03  0.88082713721E+02 0.  0.
         23    2    4    4    0    0 -0.15871783809E+04  0.89771334223E+03  0.52630730935E+03  0.19000983214E+04  0.91377181937E+02 0.  0.
          5    1    3    3  502    0  0.11210887972E+04 -0.65427794595E+03  0.79294498158E+03  0.15210863078E+04  0.47000000000E+01 0. -1.
         -5    1    3    3    0  502  0.78275432606E+03 -0.54396569995E+03  0.60674747593E+03  0.11299414176E+04  0.47000000000E+01 0.  1.
         13    1    5    5    0    0 -0.13697936236E+03  0.13256718609E+03  0.12545588439E+03  0.22820294360E+03  0.00000000000E+00 0. -1.
        -13    1    5    5    0    0 -0.17968538003E+03  0.16796311758E+03  0.29736287184E+03  0.38590558717E+03  0.00000000000E+00 0.  1.
          4    1    6    6  503    0 -0.37669698004E+02  0.19368639143E+02 -0.15466745706E+01  0.42385640637E+02  0.00000000000E+00 0. -1.
         -4    1    6    6    0  503 -0.15495086829E+04  0.87834470309E+03  0.52785398392E+03  0.18577126807E+04  0.00000000000E+00 0.  1.
<mgrwt>
<rscale>  0 0.22556794E+04</rscale>
<asrwt>0</asrwt>
<pdfrwt beam="1">  1        2 0.57800408E+00 0.22556794E+04</pdfrwt>
<pdfrwt beam="2">  1       -2 0.21664739E+00 0.22556794E+04</pdfrwt>
<totfact> 0.47789013E-02</totfact>
</mgrwt>
</event>
<event>
12    1  0.3203156E-008  0.2716545E+04  0.7818608E-02  0.8329657E-01
         -2   -1    0    0    0  501 -0.00000000000E+00  0.00000000000E+00  0.30050623858E+04  0.30050623858E+04  0.00000000000E+00 0.  1.
          2   -1    0    0  501    0  0.00000000000E+00 -0.00000000000E+00 -0.28120649919E+04  0.28120649919E+04  0.00000000000E+00 0. -1.
         23    2    1    2    0    0  0.16546423036E+04  0.21499355634E+04 -0.85732963815E+03  0.28467464042E+04  0.94270366611E+02 0.  0.
    5000000    2    1    2    0    0 -0.16546423036E+04 -0.21499355634E+04  0.10503270321E+04  0.29703809735E+04  0.59992680697E+03 0.  0.
         23    2    4    4    0    0 -0.12209577232E+04 -0.15830981833E+04  0.10295290956E+04  0.22504929782E+04  0.88605113845E+02 0.  0.
         23    2    4    4    0    0 -0.43368458046E+03 -0.56683738002E+03  0.20797936472E+02  0.71988799531E+03  0.91756421670E+02 0.  0.
          5    1    3    3  502    0  0.52963046928E+03  0.62821031469E+03 -0.23577813916E+03  0.85485089599E+03  0.47000000000E+01 0. -1.
         -5    1    3    3    0  502  0.11250118343E+04  0.15217252487E+04 -0.62155149898E+03  0.19918955082E+04  0.47000000000E+01 0.  1.
         13    1    5    5    0    0 -0.59201145540E+03 -0.80787444351E+03  0.47417234170E+03  0.11081417280E+04  0.00000000000E+00 0.  1.
        -13    1    5    5    0    0 -0.62894626777E+03 -0.77522373984E+03  0.55535675391E+03  0.11423512501E+04  0.00000000000E+00 0. -1.
          3    1    6    6  503    0 -0.32836932321E+03 -0.36165652369E+03  0.26234236771E+02  0.48919330406E+03  0.00000000000E+00 0. -1.
         -3    1    6    6    0  503 -0.10531525725E+03 -0.20518085633E+03 -0.54363002994E+01  0.23069469126E+03  0.00000000000E+00 0.  1.
<mgrwt>
<rscale>  0 0.27165449E+04</rscale>
<asrwt>0</asrwt>
<pdfrwt beam="1">  1        2 0.43262538E+00 0.27165449E+04</pdfrwt>
<pdfrwt beam="2">  1       -2 0.46231729E+00 0.27165449E+04</pdfrwt>
<totfact> 0.53324296E-03</totfact>
</mgrwt>
</event>
<event>
12    1  0.3203156E-008  0.9495152E+03  0.7818608E-02  0.9365717E-01
          1   -1    0    0  501    0  0.00000000000E+00  0.00000000000E+00  0.19632268356E+04  0.19632268356E+04  0.00000000000E+00 0. -1.
         -1   -1    0    0    0  501 -0.00000000000E+00 -0.00000000000E+00 -0.50960492613E+03  0.50960492613E+03  0.00000000000E+00 0.  1.
         23    2    1    2    0    0 -0.53807734142E+03  0.71750313514E+03  0.83600799466E+03  0.12295644513E+04  0.92635837855E+02 0.  0.
    5000000    2    1    2    0    0  0.53807734142E+03 -0.71750313514E+03  0.61761391482E+03  0.12432673105E+04  0.59994056637E+03 0.  0.
         23    2    4    4    0    0  0.87322847058E+01  0.33307613175E+02 -0.44964980525E+02  0.10695869996E+03  0.90734029624E+02 0.  0.
         23    2    4    4    0    0  0.52934505671E+03 -0.75081074831E+03  0.66257889534E+03  0.11363086105E+04  0.90903778104E+02 0.  0.
          5    1    3    3  502    0 -0.30854282148E+03  0.37288731048E+03  0.39616248388E+03  0.62546816277E+03  0.47000000000E+01 0. -1.
         -5    1    3    3    0  502 -0.22953451994E+03  0.34461582466E+03  0.43984551079E+03  0.60409628852E+03  0.47000000000E+01 0.  1.
         13    1    5    5    0    0  0.37079995386E+02  0.96398206740E+00  0.87863558327E+01  0.38118963366E+02  0.00000000000E+00 0. -1.
        -13    1    5    5    0    0 -0.28347710680E+02  0.32343631107E+02 -0.53751336357E+02  0.68839736593E+02  0.00000000000E+00 0.  1.
          1    1    6    6  503    0  0.23797088322E+03 -0.28365669496E+03  0.22737186086E+03  0.43449882044E+03  0.00000000000E+00 0. -1.
         -1    1    6    6    0  503  0.29137417349E+03 -0.46715405336E+03  0.43520703448E+03  0.70180979005E+03  0.00000000000E+00 0.  1.
<mgrwt>
<rscale>  0 0.94951522E+03</rscale>
<asrwt>0</asrwt>
<pdfrwt beam="1">  1        1 0.30203489E+00 0.94951522E+03</pdfrwt>
<pdfrwt beam="2">  1       -1 0.78400759E-01 0.94951522E+03</pdfrwt>
<totfact> 0.52300203E+00</totfact>
</mgrwt>
</event>
<event>
12    1  0.3203156E-008  0.7826677E+03  0.7818608E-02  0.9585449E-01
         -1   -1    0    0    0  501 -0.00000000000E+00  0.00000000000E+00  0.48899319571E+03  0.48899319571E+03  0.00000000000E+00 0.  1.
          1   -1    0    0  501    0  0.00000000000E+00 -0.00000000000E+00 -0.13213697189E+04  0.13213697189E+04  0.00000000000E+00 0. -1.
         23    2    1    2    0    0  0.66527536750E+03 -0.17726434028E+03 -0.35742386365E+03  0.78105613335E+03  0.91010461992E+02 0.  0.
    5000000    2    1    2    0    0 -0.66527536750E+03  0.17726434028E+03 -0.47495265955E+03  0.10293067813E+04  0.59989870831E+03 0.  0.
         23    2    4    4    0    0 -0.73769286322E+03  0.24046093619E+03 -0.38556991115E+03  0.87126115813E+03  0.91758525564E+02 0.  0.
         23    2    4    4    0    0  0.72417495716E+02 -0.63196595906E+02 -0.89382748404E+02  0.15804562314E+03  0.88039990133E+02 0.  0.
          5    1    3    3  502    0  0.32148592989E+03 -0.49924383549E+02 -0.13536217302E+03  0.35240694527E+03  0.47000000000E+01 0. -1.
         -5    1    3    3    0  502  0.34378943762E+03 -0.12733995674E+03 -0.22206169062E+03  0.42864918808E+03  0.47000000000E+01 0.  1.
         11    1    5    5    0    0 -0.40119548372E+03  0.11137462154E+03 -0.15981195438E+03  0.44598428587E+03  0.00000000000E+00 0. -1.
        -11    1    5    5    0    0 -0.33649737950E+03  0.12908631465E+03 -0.22575795676E+03  0.42527687226E+03  0.00000000000E+00 0.  1.
          2    1    6    6  503    0  0.32160449037E+01 -0.58112351384E+01  0.17302447773E+02  0.18533431890E+02  0.00000000000E+00 0. -1.
         -2    1    6    6    0  503  0.69201450812E+02 -0.57385360768E+02 -0.10668519618E+03  0.13951219125E+03  0.00000000000E+00 0.  1.
<mgrwt>
<rscale>  0 0.78266765E+03</rscale>
<asrwt>0</asrwt>
<pdfrwt beam="1">  1        1 0.20328765E+00 0.78266765E+03</pdfrwt>
<pdfrwt beam="2">  1       -1 0.75229723E-01 0.78266765E+03</pdfrwt>
<totfact> 0.15968853E+01</totfact>
</mgrwt>
</event>
<event>
12    1  0.3203156E-008  0.6259515E+03  0.7818608E-02  0.9852981E-01
         -2   -1    0    0    0  501 -0.00000000000E+00  0.00000000000E+00  0.49087552521E+03  0.49087552521E+03  0.00000000000E+00 0.  1.
          2   -1    0    0  501    0  0.00000000000E+00 -0.00000000000E+00 -0.10623595316E+04  0.10623595316E+04  0.00000000000E+00 0. -1.
         23    2    1    2    0    0 -0.59177013073E+03  0.36446917663E+02 -0.23104390154E+03  0.64356498100E+03  0.96303348302E+02 0.  0.
    5000000    2    1    2    0    0  0.59177013073E+03 -0.36446917663E+02 -0.34044010487E+03  0.90967007583E+03  0.60006659332E+03 0.  0.
         23    2    4    4    0    0  0.52796150667E+02 -0.59980744414E+02 -0.34129259098E+03  0.36210309575E+03  0.90845451578E+02 0.  0.
         23    2    4    4    0    0  0.53897398006E+03  0.23533826751E+02  0.85248610375E+00  0.54756698007E+03  0.93712745914E+02 0.  0.
          5    1    3    3  502    0 -0.19499331730E+03 -0.20972159114E+02 -0.10921459577E+03  0.22452648659E+03  0.47000000000E+01 0. -1.
         -5    1    3    3    0  502 -0.39677681343E+03  0.57419076777E+02 -0.12182930577E+03  0.41903849441E+03  0.47000000000E+01 0.  1.
         13    1    5    5    0    0  0.71333727966E+02 -0.35501709276E+02 -0.16589627609E+03  0.18403925268E+03  0.00000000000E+00 0.  1.
        -13    1    5    5    0    0 -0.18537577300E+02 -0.24479035138E+02 -0.17539631489E+03  0.17806384307E+03  0.00000000000E+00 0. -1.
          3    1    6    6  503    0  0.22338017102E+03  0.45799801085E+02  0.29348661601E+02  0.22990795228E+03  0.00000000000E+00 0. -1.
         -3    1    6    6    0  503  0.31559380905E+03 -0.22265974334E+02 -0.28496175498E+02  0.31765902780E+03  0.00000000000E+00 0.  1.
<mgrwt>
<rscale>  0 0.62595147E+03</rscale>
<asrwt>0</asrwt>
<pdfrwt beam="1">  1        2 0.16343993E+00 0.62595147E+03</pdfrwt>
<pdfrwt beam="2">  1       -2 0.75519312E-01 0.62595147E+03</pdfrwt>
<totfact> 0.37236764E+01</totfact>
</mgrwt>
</event>
<event>
12    1  0.3203156E-008  0.8944893E+03  0.7818608E-02  0.9432496E-01
         -1   -1    0    0    0  501 -0.00000000000E+00  0.00000000000E+00  0.30251859790E+03  0.30251859790E+03  0.00000000000E+00 0.  1.
          1   -1    0    0  501    0  0.00000000000E+00 -0.00000000000E+00 -0.35806504310E+04  0.35806504310E+04  0.00000000000E+00 0. -1.
         23    2    1    2    0    0  0.65670221271E+03  0.46789633915E+03 -0.24500137791E+04  0.25809349077E+04  0.92047268320E+02 0.  0.
    5000000    2    1    2    0    0 -0.65670221271E+03 -0.46789633915E+03 -0.82811805394E+03  0.13022341211E+04  0.59987449908E+03 0.  0.
         23    2    4    4    0    0 -0.17477547036E+03 -0.44824815195E+03 -0.27062882427E+03  0.55948097440E+03  0.91137969174E+02 0.  0.
         23    2    4    4    0    0 -0.48192674235E+03 -0.19648187198E+02 -0.55748922968E+03  0.74275314675E+03  0.90821580823E+02 0.  0.
          5    1    3    3  502    0  0.51258005544E+03  0.40716406800E+03 -0.20114959623E+04  0.21153389771E+04  0.47000000000E+01 0. -1.
         -5    1    3    3    0  502  0.14412215727E+03  0.60732271151E+02 -0.43851781677E+03  0.46559593060E+03  0.47000000000E+01 0.  1.
         11    1    5    5    0    0 -0.10006486439E+03 -0.14428542545E+03 -0.79646548648E+02  0.19280776383E+03  0.00000000000E+00 0. -1.
        -11    1    5    5    0    0 -0.74710605965E+02 -0.30396272651E+03 -0.19098227562E+03  0.36667321057E+03  0.00000000000E+00 0.  1.
          1    1    6    6  503    0 -0.16918548458E+03  0.32342281611E+02 -0.16885628421E+03  0.24120985903E+03  0.00000000000E+00 0. -1.
         -1    1    6    6    0  503 -0.31274125777E+03 -0.51990468809E+02 -0.38863294546E+03  0.50154328772E+03  0.00000000000E+00 0.  1.
<mgrwt>
<rscale>  0 0.89448927E+03</rscale>
<asrwt>0</asrwt>
<pdfrwt beam="1">  1        1 0.55086931E+00 0.89448927E+03</pdfrwt>
<pdfrwt beam="2">  1       -1 0.46541322E-01 0.89448927E+03</pdfrwt>
<totfact> 0.10516065E+00</totfact>
</mgrwt>
</event>
<event>
12    1  0.3203156E-008  0.1298817E+04  0.7818608E-02  0.9030504E-01
         -1   -1    0    0    0  501 -0.00000000000E+00  0.00000000000E+00  0.83301834431E+03  0.83301834431E+03  0.00000000000E+00 0.  1.
          1   -1    0    0  501    0  0.00000000000E+00 -0.00000000000E+00 -0.21475249641E+04  0.21475249641E+04  0.00000000000E+00 0. -1.
         23    2    1    2    0    0 -0.11672642705E+04  0.40215555126E+03 -0.94835071531E+03  0.15599276741E+04  0.98844851694E+02 0.  0.
    5000000    2    1    2    0    0  0.11672642705E+04 -0.40215555126E+03 -0.36615590448E+03  0.14206156343E+04  0.59986971032E+03 0.  0.
         23    2    4    4    0    0  0.37806757536E+03 -0.42557173514E+03 -0.18404440677E+03  0.60524225701E+03  0.91648528169E+02 0.  0.
         23    2    4    4    0    0  0.78919669515E+03  0.23416183879E+02 -0.18211149770E+03  0.81537337727E+03  0.91046172158E+02 0.  0.
          5    1    3    3  502    0 -0.41194702137E+03  0.18542261372E+03 -0.31683048130E+03  0.55180208225E+03  0.47000000000E+01 0. -1.
         -5    1    3    3    0  502 -0.75531724913E+03  0.21673293754E+03 -0.63152023401E+03  0.10081255919E+04  0.47000000000E+01 0.  1.
         13    1    5    5    0    0  0.10195354455E+03 -0.92978588166E+02 -0.84017711170E+02  0.16155036024E+03  0.00000000000E+00 0. -1.
        -13    1    5    5    0    0  0.27611403081E+03 -0.33259314697E+03 -0.10002669560E+03  0.44369189676E+03  0.00000000000E+00 0.  1.
          2    1    6    6  503    0  0.25376720062E+03  0.16755064662E+02 -0.10169125958E+03  0.27389712772E+03  0.00000000000E+00 0.  1.
         -2    1    6    6    0  503  0.53542949453E+03  0.66611192169E+01 -0.80420238128E+02  0.54147624954E+03  0.00000000000E+00 0. -1.
<mgrwt>
<rscale>  0 0.12988171E+04</rscale>
<asrwt>0</asrwt>
<pdfrwt beam="1">  1        1 0.33038845E+00 0.12988171E+04</pdfrwt>
<pdfrwt beam="2">  1       -1 0.12815667E+00 0.12988171E+04</pdfrwt>
<totfact> 0.12104436E+00</totfact>
</mgrwt>
</event>
<event>
12    1  0.3631665E-008  0.1331686E+04  0.7818608E-02  0.9004809E-01
          2   -1    0    0  501    0  0.00000000000E+00  0.00000000000E+00  0.27243325921E+04  0.27243325921E+04  0.00000000000E+00 0.  1.
         -2   -1    0    0    0  501 -0.00000000000E+00 -0.00000000000E+00 -0.10413325470E+04  0.10413325470E+04  0.00000000000E+00 0. -1.
         23    2    1    2    0    0 -0.56289432578E+03 -0.11597179521E+04  0.19297763911E+04  0.23224827555E+04  0.89963767038E+02 0.  0.
    5000000    2    1    2    0    0  0.56289432578E+03  0.11597179521E+04 -0.24677634600E+03  0.14431823837E+04  0.60006756064E+03 0.  0.
         23    2    4    4    0    0  0.33947080757E+03  0.10613924727E+04 -0.34141504931E+03  0.11690416119E+04  0.91102382316E+02 0.  0.
         23    2    4    4    0    0  0.22342351821E+03  0.98325479364E+02  0.94638703307E+02  0.27414077184E+03  0.81306274284E+02 0.  0.
          5    1    3    3  502    0 -0.34311997621E+03 -0.79910729621E+03  0.13199115154E+04  0.15806619776E+04  0.47000000000E+01 0. -1.
         -5    1    3    3    0  502 -0.21977434957E+03 -0.36061065587E+03  0.60986487573E+03  0.74182077789E+03  0.47000000000E+01 0.  1.
         11    1    5    5    0    0  0.18842449563E+03  0.57253479747E+03 -0.13739431295E+03  0.61820472507E+03  0.00000000000E+00 0. -1.
        -11    1    5    5    0    0  0.15104631193E+03  0.48885767524E+03 -0.20402073636E+03  0.55083688679E+03  0.00000000000E+00 0.  1.
          2    1    6    6  503    0  0.14334938292E+03  0.10337120199E+03  0.71389664308E+02  0.19060727991E+03  0.00000000000E+00 0. -1.
         -2    1    6    6    0  503  0.80074135292E+02 -0.50457226248E+01  0.23249038999E+02  0.83533491930E+02  0.00000000000E+00 0.  1.
<mgrwt>
<rscale>  0 0.13316855E+04</rscale>
<asrwt>0</asrwt>
<pdfrwt beam="1">  1        2 0.41912809E+00 0.13316855E+04</pdfrwt>
<pdfrwt beam="2">  1       -2 0.16020501E+00 0.13316855E+04</pdfrwt>
<totfact> 0.62090782E-01</totfact>
</mgrwt>
</event>
<event>
12    1  0.3203156E-008  0.5873557E+03  0.7818608E-02  0.9931992E-01
          2   -1    0    0  501    0  0.00000000000E+00  0.00000000000E+00  0.90136959610E+03  0.90136959610E+03  0.00000000000E+00 0. -1.
         -2   -1    0    0    0  501 -0.00000000000E+00 -0.00000000000E+00 -0.62368003944E+03  0.62368003944E+03  0.00000000000E+00 0.  1.
         23    2    1    2    0    0  0.42890687162E+02  0.44448592766E+03  0.56325009060E+03  0.72450743215E+03  0.90846044243E+02 0.  0.
    5000000    2    1    2    0    0 -0.42890687162E+02 -0.44448592766E+03 -0.28556053394E+03  0.80054220339E+03  0.59992970416E+03 0.  0.
         23    2    4    4    0    0 -0.72931386443E+02  0.12237924328E+03 -0.32656056629E+02  0.17247966990E+03  0.91581396472E+02 0.  0.
         23    2    4    4    0    0  0.30040699281E+02 -0.56686517094E+03 -0.25290447731E+03  0.62806253349E+03  0.90902726559E+02 0.  0.
          5    1    3    3  502    0  0.45622471799E+02  0.30806977173E+03  0.44917422507E+03  0.54659671482E+03  0.47000000000E+01 0. -1.
         -5    1    3    3    0  502 -0.27317846376E+01  0.13641615592E+03  0.11407586553E+03  0.17791071733E+03  0.47000000000E+01 0.  1.
         11    1    5    5    0    0 -0.64057590586E+02  0.13153031782E+03 -0.10196093989E+02  0.14665455925E+03  0.00000000000E+00 0.  1.
        -11    1    5    5    0    0 -0.88737958570E+01 -0.91510745375E+01 -0.22459962640E+02  0.25825110647E+02  0.00000000000E+00 0. -1.
          1    1    6    6  503    0  0.23633235937E+02 -0.41176133657E+03 -0.22667976345E+03  0.47062686205E+03  0.00000000000E+00 0. -1.
         -1    1    6    6    0  503  0.64074633434E+01 -0.15510383437E+03 -0.26224713864E+02  0.15743567144E+03  0.00000000000E+00 0.  1.
<mgrwt>
<rscale>  0 0.58735566E+03</rscale>
<asrwt>0</asrwt>
<pdfrwt beam="1">  1        2 0.13867225E+00 0.58735566E+03</pdfrwt>
<pdfrwt beam="2">  1       -2 0.95950775E-01 0.58735566E+03</pdfrwt>
<totfact> 0.27520856E+01</totfact>
</mgrwt>
</event>
<event>
12    1  0.3203156E-008  0.6529051E+03  0.7818608E-02  0.9801343E-01
          1   -1    0    0  501    0  0.00000000000E+00  0.00000000000E+00  0.30441684608E+04  0.30441684608E+04  0.00000000000E+00 0. -1.
         -1   -1    0    0    0  501 -0.00000000000E+00 -0.00000000000E+00 -0.19254779763E+03  0.19254779763E+03  0.00000000000E+00 0.  1.
         23    2    1    2    0    0  0.50750616596E+03  0.35679201362E+03  0.15785408572E+04  0.16985133366E+04  0.91067377314E+02 0.  0.
    5000000    2    1    2    0    0 -0.50750616596E+03 -0.35679201362E+03  0.12730798060E+04  0.15382029219E+04  0.60039402643E+03 0.  0.
         23    2    4    4    0    0 -0.60628843584E+02 -0.53378190805E+01  0.75342735964E+03  0.76271554951E+03  0.10187185203E+03 0.  0.
         23    2    4    4    0    0 -0.44687732237E+03 -0.35145419454E+03  0.51965244636E+03  0.77548737236E+03  0.90125510134E+02 0.  0.
          5    1    3    3  502    0  0.17023252263E+03  0.16565650983E+03  0.53931473977E+03  0.58932475728E+03  0.47000000000E+01 0. -1.
         -5    1    3    3    0  502  0.33727364333E+03  0.19113550379E+03  0.10392261174E+04  0.11091885793E+04  0.47000000000E+01 0.  1.
         11    1    5    5    0    0 -0.21976649316E+02  0.42292821519E+02  0.48657890928E+03  0.48890765061E+03  0.00000000000E+00 0.  1.
        -11    1    5    5    0    0 -0.38652194268E+02 -0.47630640599E+02  0.26684845035E+03  0.27380789890E+03  0.00000000000E+00 0. -1.
          3    1    6    6  503    0 -0.10583796329E+03 -0.11648164568E+03  0.18604408638E+03  0.24368432516E+03  0.00000000000E+00 0. -1.
         -3    1    6    6    0  503 -0.34103935909E+03 -0.23497254885E+03  0.33360835998E+03  0.53180304720E+03  0.00000000000E+00 0.  1.
<mgrwt>
<rscale>  0 0.65290506E+03</rscale>
<asrwt>0</asrwt>
<pdfrwt beam="1">  1        1 0.46833357E+00 0.65290506E+03</pdfrwt>
<pdfrwt beam="2">  1       -1 0.29622740E-01 0.65290506E+03</pdfrwt>
<totfact> 0.62920343E+00</totfact>
</mgrwt>
</event>
<event>
12    1  0.3203156E-008  0.8503966E+03  0.7818608E-02  0.9489805E-01
         -3   -1    0    0    0  501 -0.00000000000E+00  0.00000000000E+00  0.30877826619E+03  0.30877826619E+03  0.00000000000E+00 0.  1.
          3   -1    0    0  501    0  0.00000000000E+00 -0.00000000000E+00 -0.25073660572E+04  0.25073660572E+04  0.00000000000E+00 0. -1.
         23    2    1    2    0    0 -0.65248878470E+03  0.39763123807E+03 -0.77086652084E+03  0.10892062476E+04  0.91010115542E+02 0.  0.
    5000000    2    1    2    0    0  0.65248878470E+03 -0.39763123807E+03 -0.14277212701E+04  0.17269380758E+04  0.60006239403E+03 0.  0.
         23    2    4    4    0    0 -0.95242380773E+02 -0.23258586674E+02 -0.19012857463E+03  0.23055498525E+03  0.85992170490E+02 0.  0.
         23    2    4    4    0    0  0.74773116548E+03 -0.37437265140E+03 -0.12375926955E+04  0.14963830905E+04  0.90938966890E+02 0.  0.
          5    1    3    3  502    0 -0.34574241800E+03  0.23764418683E+03 -0.36727184487E+03  0.55760494723E+03  0.47000000000E+01 0. -1.
         -5    1    3    3    0  502 -0.30674636671E+03  0.15998705124E+03 -0.40359467597E+03  0.53160130034E+03  0.47000000000E+01 0.  1.
         13    1    5    5    0    0 -0.53026490287E+02 -0.71705556034E+01 -0.24455823481E+02  0.58832923112E+02  0.00000000000E+00 0. -1.
        -13    1    5    5    0    0 -0.42215890486E+02 -0.16088031070E+02 -0.16567275115E+03  0.17172206214E+03  0.00000000000E+00 0.  1.
          1    1    6    6  503    0  0.41728709550E+03 -0.19580037642E+03 -0.60351341431E+03  0.75940420642E+03  0.00000000000E+00 0. -1.
         -1    1    6    6    0  503  0.33044406998E+03 -0.17857227498E+03 -0.63407928119E+03  0.73697888410E+03  0.00000000000E+00 0.  1.
<mgrwt>
<rscale>  0 0.85039664E+03</rscale>
<asrwt>0</asrwt>
<pdfrwt beam="1">  1        3 0.38574863E+00 0.85039664E+03</pdfrwt>
<pdfrwt beam="2">  1       -3 0.47504348E-01 0.85039664E+03</pdfrwt>
<totfact> 0.15528560E-01</totfact>
</mgrwt>
</event>
<event>
12    1  0.3203156E-008  0.1343812E+04  0.7818608E-02  0.8995525E-01
         -2   -1    0    0    0  501 -0.00000000000E+00  0.00000000000E+00  0.87034619330E+03  0.87034619330E+03  0.00000000000E+00 0.  1.
          2   -1    0    0  501    0  0.00000000000E+00 -0.00000000000E+00 -0.23271615663E+04  0.23271615663E+04  0.00000000000E+00 0. -1.
         23    2    1    2    0    0 -0.12903382367E+04  0.30682442088E+03 -0.36770715590E+03  0.13793571758E+04  0.91124505820E+02 0.  0.
    5000000    2    1    2    0    0  0.12903382367E+04 -0.30682442088E+03 -0.10891082171E+04  0.18181505838E+04  0.60033394566E+03 0.  0.
         23    2    4    4    0    0  0.10884728589E+04 -0.32543753000E+03 -0.61739699942E+03  0.12969351422E+04  0.10089082055E+03 0.  0.
         23    2    4    4    0    0  0.20186537783E+03  0.18613109119E+02 -0.47171121767E+03  0.52121544157E+03  0.89766280207E+02 0.  0.
          5    1    3    3  502    0 -0.66412898602E+03  0.20083815720E+03 -0.21013284669E+03  0.72496977779E+03  0.47000000000E+01 0. -1.
         -5    1    3    3    0  502 -0.62620925072E+03  0.10598626367E+03 -0.15757430921E+03  0.65438739803E+03  0.47000000000E+01 0.  1.
         13    1    5    5    0    0  0.66399290065E+02 -0.41080556178E+02 -0.25744971022E+02  0.82214848719E+02  0.00000000000E+00 0. -1.
        -13    1    5    5    0    0  0.10220735688E+04 -0.28435697382E+03 -0.59165202840E+03  0.12147202935E+04  0.00000000000E+00 0.  1.
          2    1    6    6  503    0 -0.38416159195E+01  0.13356008878E+02 -0.51259613191E+02  0.53110158450E+02  0.00000000000E+00 0. -1.
         -2    1    6    6    0  503  0.20570699375E+03  0.52571002409E+01 -0.42045160448E+03  0.46810528312E+03  0.00000000000E+00 0.  1.
<mgrwt>
<rscale>  0 0.13438125E+04</rscale>
<asrwt>0</asrwt>
<pdfrwt beam="1">  1        2 0.35802485E+00 0.13438125E+04</pdfrwt>
<pdfrwt beam="2">  1       -2 0.13389941E+00 0.13438125E+04</pdfrwt>
<totfact> 0.16951798E+00</totfact>
</mgrwt>
</event>
<event>
12    1  0.3203156E-008  0.1782519E+03  0.7818608E-02  0.1169506E+00
         -2   -1    0    0    0  501 -0.00000000000E+00  0.00000000000E+00  0.90654231979E+02  0.90654231979E+02  0.00000000000E+00 0.  1.
          2   -1    0    0  501    0  0.00000000000E+00 -0.00000000000E+00 -0.17154917856E+04  0.17154917856E+04  0.00000000000E+00 0. -1.
         23    2    1    2    0    0  0.13434625761E+03 -0.39157305720E+02 -0.27174197140E+03  0.31938328105E+03  0.92627046072E+02 0.  0.
    5000000    2    1    2    0    0 -0.13434625761E+03  0.39157305720E+02 -0.13530955822E+04  0.14867627365E+04  0.60001130706E+03 0.  0.
         23    2    4    4    0    0 -0.79860872915E+02  0.41272612104E+02  0.22129028780E+01  0.12732811868E+03  0.90146355084E+02 0.  0.
         23    2    4    4    0    0 -0.54485384699E+02 -0.21153063834E+01 -0.13553084851E+04  0.13594346179E+04  0.90709750150E+02 0.  0.
          5    1    3    3  502    0  0.18068254022E+02 -0.24179983427E+02 -0.13856358041E+03  0.14189111747E+03  0.47000000000E+01 0. -1.
         -5    1    3    3    0  502  0.11627800359E+03 -0.14977322293E+02 -0.13317839099E+03  0.17749216357E+03  0.47000000000E+01 0.  1.
         11    1    5    5    0    0 -0.64524992827E+02  0.41593562906E+01  0.36740564644E+02  0.74368299930E+02  0.00000000000E+00 0. -1.
        -11    1    5    5    0    0 -0.15335880088E+02  0.37113255813E+02 -0.34527661766E+02  0.52959818751E+02  0.00000000000E+00 0.  1.
          1    1    6    6  503    0 -0.22073903918E+02 -0.44958119514E+02 -0.52239796609E+03  0.52479341147E+03  0.00000000000E+00 0. -1.
         -1    1    6    6    0  503 -0.32411480781E+02  0.42842813131E+02 -0.83291051900E+03  0.83464120638E+03  0.00000000000E+00 0.  1.
<mgrwt>
<rscale>  0 0.17825191E+03</rscale>
<asrwt>0</asrwt>
<pdfrwt beam="1">  1        2 0.26392180E+00 0.17825191E+03</pdfrwt>
<pdfrwt beam="2">  1       -2 0.13946806E-01 0.17825191E+03</pdfrwt>
<totfact> 0.41435931E+02</totfact>
</mgrwt>
</event>
<event>
12    1  0.3203156E-008  0.1016877E+04  0.7818608E-02  0.9290225E-01
         -2   -1    0    0    0  501 -0.00000000000E+00  0.00000000000E+00  0.13774672551E+04  0.13774672551E+04  0.00000000000E+00 0.  1.
          2   -1    0    0  501    0  0.00000000000E+00 -0.00000000000E+00 -0.79733988368E+03  0.79733988368E+03  0.00000000000E+00 0. -1.
         23    2    1    2    0    0  0.18011965052E+03 -0.94170478460E+03  0.22174278237E+03  0.98834089684E+03  0.91634474891E+02 0.  0.
    5000000    2    1    2    0    0 -0.18011965052E+03  0.94170478460E+03  0.35838458906E+03  0.11864662419E+04  0.60000969970E+03 0.  0.
         23    2    4    4    0    0 -0.26111562985E+03  0.23356402631E+03 -0.40590843711E+02  0.36440309589E+03  0.91697727129E+02 0.  0.
         23    2    4    4    0    0  0.80995979326E+02  0.70814075829E+03  0.39897543277E+03  0.82206314605E+03  0.92643067307E+02 0.  0.
          5    1    3    3  502    0  0.26494884089E+01 -0.17823876526E+03  0.58649440818E+02  0.18771767135E+03  0.47000000000E+01 0. -1.
         -5    1    3    3    0  502  0.17747016212E+03 -0.76346601934E+03  0.16309334155E+03  0.80062322549E+03  0.47000000000E+01 0.  1.
         11    1    5    5    0    0 -0.14093958767E+03  0.16889188131E+03  0.64005905528E+01  0.22006681373E+03  0.00000000000E+00 0. -1.
        -11    1    5    5    0    0 -0.12017604218E+03  0.64672145000E+02 -0.46991434264E+02  0.14433628216E+03  0.00000000000E+00 0.  1.
          1    1    6    6  503    0  0.44190125453E+01  0.29146671978E+03  0.12260156518E+03  0.31623333188E+03  0.00000000000E+00 0. -1.
         -1    1    6    6    0  503  0.76576966781E+02  0.41667403851E+03  0.27637386759E+03  0.50582981417E+03  0.00000000000E+00 0.  1.
<mgrwt>
<rscale>  0 0.10168774E+04</rscale>
<asrwt>0</asrwt>
<pdfrwt beam="1">  1        2 0.12266767E+00 0.10168774E+04</pdfrwt>
<pdfrwt beam="2">  1       -2 0.21191804E+00 0.10168774E+04</pdfrwt>
<totfact> 0.38198962E+00</totfact>
</mgrwt>
</event>
<event>
12    1  0.3203156E-008  0.8570012E+03  0.7818608E-02  0.9480988E-01
         -2   -1    0    0    0  501 -0.00000000000E+00  0.00000000000E+00  0.86240858043E+03  0.86240858043E+03  0.00000000000E+00 0.  1.
          2   -1    0    0  501    0  0.00000000000E+00 -0.00000000000E+00 -0.10275320643E+04  0.10275320643E+04  0.00000000000E+00 0. -1.
         23    2    1    2    0    0 -0.55268438316E+03  0.56087476144E+03 -0.37719213221E+03  0.87751825109E+03  0.87885442332E+02 0.  0.
    5000000    2    1    2    0    0  0.55268438316E+03 -0.56087476144E+03  0.21206864835E+03  0.10124223936E+04  0.59998788829E+03 0.  0.
         23    2    4    4    0    0 -0.75183753178E+02 -0.15758450539E+03  0.16725863645E+03  0.25876684486E+03  0.92191948937E+02 0.  0.
         23    2    4    4    0    0  0.62786813634E+03 -0.40329025605E+03  0.44810011892E+02  0.75365554877E+03  0.95537017785E+02 0.  0.
          5    1    3    3  502    0 -0.23158988324E+03  0.24063933780E+03 -0.11269365080E+03  0.35250973582E+03  0.47000000000E+01 0. -1.
         -5    1    3    3    0  502 -0.32109449992E+03  0.32023542364E+03 -0.26449848141E+03  0.52500851527E+03  0.47000000000E+01 0.  1.
         11    1    5    5    0    0 -0.31766236500E+02 -0.83429763273E+02  0.14453592245E+03  0.16988305407E+03  0.00000000000E+00 0. -1.
        -11    1    5    5    0    0 -0.43417516678E+02 -0.74154742122E+02  0.22722713999E+02  0.88883790789E+02  0.00000000000E+00 0.  1.
          3    1    6    6  503    0  0.20954956982E+03 -0.18448712100E+03  0.35878998920E+02  0.28148503084E+03  0.00000000000E+00 0. -1.
         -3    1    6    6    0  503  0.41831856652E+03 -0.21880313505E+03  0.89310129727E+01  0.47217051792E+03  0.00000000000E+00 0.  1.
<mgrwt>
<rscale>  0 0.85700121E+03</rscale>
<asrwt>0</asrwt>
<pdfrwt beam="1">  1        2 0.15808185E+00 0.85700121E+03</pdfrwt>
<pdfrwt beam="2">  1       -2 0.13267824E+00 0.85700121E+03</pdfrwt>
<totfact> 0.10030639E+01</totfact>
</mgrwt>
</event>
<event>
12    1  0.3203156E-008  0.4897117E+03  0.7818608E-02  0.1016500E+00
         -1   -1    0    0    0  501 -0.00000000000E+00  0.00000000000E+00  0.36506272808E+03  0.36506272808E+03  0.00000000000E+00 0.  1.
          1   -1    0    0  501    0  0.00000000000E+00 -0.00000000000E+00 -0.13882487549E+04  0.13882487549E+04  0.00000000000E+00 0. -1.
         23    2    1    2    0    0 -0.32087391723E+03  0.18364951109E+03 -0.97524750098E+03  0.10468697023E+04  0.90228996353E+02 0.  0.
    5000000    2    1    2    0    0  0.32087391723E+03 -0.18364951109E+03 -0.47938525868E+02  0.70644178069E+03  0.60006222474E+03 0.  0.
         23    2    4    4    0    0  0.39056685914E+03 -0.27293480548E+03  0.10063138969E+03  0.49569655471E+03  0.92479826247E+02 0.  0.
         23    2    4    4    0    0 -0.69692941908E+02  0.89285294386E+02 -0.14856991556E+03  0.21074522598E+03  0.97527229628E+02 0.  0.
          5    1    3    3  502    0 -0.25478649444E+03  0.12518610128E+03 -0.63956001489E+03  0.69974768335E+03  0.47000000000E+01 0. -1.
         -5    1    3    3    0  502 -0.66087422788E+02  0.58463409814E+02 -0.33568748609E+03  0.34712201897E+03  0.47000000000E+01 0.  1.
         13    1    5    5    0    0  0.14012425322E+03 -0.55085889359E+02  0.56624358383E+02  0.16085888073E+03  0.00000000000E+00 0.  1.
        -13    1    5    5    0    0  0.25044260592E+03 -0.21784891612E+03  0.44007031307E+02  0.33483767398E+03  0.00000000000E+00 0. -1.
          3    1    6    6  503    0  0.72318843980E+01  0.61178286515E+00 -0.67952086899E+02  0.68338572886E+02  0.00000000000E+00 0. -1.
         -3    1    6    6    0  503 -0.76924826306E+02  0.88673511521E+02 -0.80617828660E+02  0.14240665309E+03  0.00000000000E+00 0.  1.
<mgrwt>
<rscale>  0 0.48971172E+03</rscale>
<asrwt>0</asrwt>
<pdfrwt beam="1">  1        1 0.21357673E+00 0.48971172E+03</pdfrwt>
<pdfrwt beam="2">  1       -1 0.56163496E-01 0.48971172E+03</pdfrwt>
<totfact> 0.26962595E+01</totfact>
</mgrwt>
</event>
<event>
12    1  0.3203156E-008  0.5463730E+03  0.7818608E-02  0.1002337E+00
         -2   -1    0    0    0  501 -0.00000000000E+00  0.00000000000E+00  0.62664117110E+03  0.62664117110E+03  0.00000000000E+00 0.  1.
          2   -1    0    0  501    0  0.00000000000E+00 -0.00000000000E+00 -0.70554343084E+03  0.70554343084E+03  0.00000000000E+00 0. -1.
         23    2    1    2    0    0  0.82454459313E+02 -0.46052444664E+03 -0.26958753674E+03  0.54777113215E+03  0.92164361003E+02 0.  0.
    5000000    2    1    2    0    0 -0.82454459313E+02  0.46052444664E+03  0.19068527700E+03  0.78441346979E+03  0.60005175853E+03 0.  0.
         23    2    4    4    0    0  0.14071315882E+03  0.84788516409E+02  0.27205000945E+03  0.33073268260E+03  0.91562077947E+02 0.  0.
         23    2    4    4    0    0 -0.22316761813E+03  0.37573593023E+03 -0.81364732447E+02  0.45368078720E+03  0.90690473245E+02 0.  0.
          5    1    3    3  502    0  0.61511828624E+02 -0.44468853749E+03 -0.26294830641E+03  0.52028405922E+03  0.47000000000E+01 0. -1.
         -5    1    3    3    0  502  0.20942630689E+02 -0.15835909143E+02 -0.66392303286E+01  0.27487072924E+02  0.47000000000E+01 0.  1.
         11    1    5    5    0    0  0.98445075321E+01  0.25318290539E+02  0.11356255572E+03  0.11676636599E+03  0.00000000000E+00 0. -1.
        -11    1    5    5    0    0  0.13086865129E+03  0.59470225870E+02  0.15848745373E+03  0.21396631661E+03  0.00000000000E+00 0.  1.
          3    1    6    6  503    0 -0.15041183689E+03  0.16498428993E+03 -0.45785463163E+02  0.22790314880E+03  0.00000000000E+00 0. -1.
         -3    1    6    6    0  503 -0.72755781244E+02  0.21075164030E+03 -0.35579269284E+02  0.22577763839E+03  0.00000000000E+00 0.  1.
<mgrwt>
<rscale>  0 0.54637303E+03</rscale>
<asrwt>0</asrwt>
<pdfrwt beam="1">  1        2 0.10854514E+00 0.54637303E+03</pdfrwt>
<pdfrwt beam="2">  1       -2 0.96406334E-01 0.54637303E+03</pdfrwt>
<totfact> 0.37729958E+01</totfact>
</mgrwt>
</event>
<event>
12    1  0.3203156E-008  0.6310164E+03  0.7818608E-02  0.9843067E-01
          1   -1    0    0  501    0  0.00000000000E+00  0.00000000000E+00  0.10360595602E+04  0.10360595602E+04  0.00000000000E+00 0. -1.
         -1   -1    0    0    0  501 -0.00000000000E+00 -0.00000000000E+00 -0.49758002344E+03  0.49758002344E+03  0.00000000000E+00 0.  1.
         23    2    1    2    0    0  0.40377864849E+03  0.30093089227E+03  0.54937048727E+03  0.75026846686E+03  0.86592385302E+02 0.  0.
    5000000    2    1    2    0    0 -0.40377864849E+03 -0.30093089227E+03 -0.10890950542E+02  0.78337111674E+03  0.59996257786E+03 0.  0.
         23    2    4    4    0    0  0.28396133800E+02 -0.29761164282E+03  0.99513464392E+02  0.32790323817E+03  0.90766588848E+02 0.  0.
         23    2    4    4    0    0 -0.43217478229E+03 -0.33192494515E+01 -0.11040441493E+03  0.45546787857E+03  0.92064073928E+02 0.  0.
          5    1    3    3  502    0  0.23096420150E+03  0.21895796002E+03  0.36920306790E+03  0.48746286625E+03  0.47000000000E+01 0. -1.
         -5    1    3    3    0  502  0.17281444699E+03  0.81972932248E+02  0.18016741937E+03  0.26280560061E+03  0.47000000000E+01 0.  1.
         13    1    5    5    0    0  0.56839836842E+02 -0.12771068719E+03  0.52676911309E+02  0.14938421489E+03  0.00000000000E+00 0. -1.
        -13    1    5    5    0    0 -0.28443703042E+02 -0.16990095563E+03  0.46836553083E+02  0.17851902328E+03  0.00000000000E+00 0.  1.
          1    1    6    6  503    0 -0.13844522896E+03  0.38425390485E+02 -0.53886339270E+02  0.15345139170E+03  0.00000000000E+00 0. -1.
         -1    1    6    6    0  503 -0.29372955333E+03 -0.41744639936E+02 -0.56518075664E+02  0.30201648687E+03  0.00000000000E+00 0.  1.
<mgrwt>
<rscale>  0 0.63101642E+03</rscale>
<asrwt>0</asrwt>
<pdfrwt beam="1">  1        1 0.15939378E+00 0.63101642E+03</pdfrwt>
<pdfrwt beam="2">  1       -1 0.76550773E-01 0.63101642E+03</pdfrwt>
<totfact> 0.25363120E+01</totfact>
</mgrwt>
</event>
<event>
12    1  0.3203156E-008  0.4225500E+03  0.7818608E-02  0.1036240E+00
         -2   -1    0    0    0  501 -0.00000000000E+00  0.00000000000E+00  0.11190061582E+04  0.11190061582E+04  0.00000000000E+00 0. -1.
          2   -1    0    0  501    0  0.00000000000E+00 -0.00000000000E+00 -0.49529023874E+03  0.49529023874E+03  0.00000000000E+00 0.  1.
         23    2    1    2    0    0  0.10772368517E+03 -0.23850006407E+03  0.87105375281E+03  0.91394195810E+03  0.89825328236E+02 0.  0.
    5000000    2    1    2    0    0 -0.10772368517E+03  0.23850006407E+03 -0.24733783336E+03  0.70035443883E+03  0.60069431766E+03 0.  0.
         23    2    4    4    0    0 -0.10758804299E+03  0.39382222585E+03 -0.29804397333E+03  0.51350682960E+03  0.90487134119E+02 0.  0.
         23    2    4    4    0    0 -0.13564217863E+00 -0.15532216178E+03  0.50706139963E+02  0.18684760923E+03  0.90641734907E+02 0.  0.
          5    1    3    3  502    0 -0.15733648259E+02 -0.31548487181E+02  0.12028230024E+03  0.12543036507E+03  0.47000000000E+01 0. -1.
         -5    1    3    3    0  502  0.12345733343E+03 -0.20695157689E+03  0.75077145257E+03  0.78851159303E+03  0.47000000000E+01 0.  1.
         13    1    5    5    0    0 -0.10691461475E+02  0.96245436508E+02 -0.11729992354E+03  0.15210773635E+03  0.00000000000E+00 0.  1.
        -13    1    5    5    0    0 -0.96896581517E+02  0.29757678934E+03 -0.18074404979E+03  0.36139909325E+03  0.00000000000E+00 0. -1.
          1    1    6    6  503    0  0.14984546905E+02 -0.46637844912E+02  0.59139925974E+02  0.76792942828E+02  0.00000000000E+00 0. -1.
         -1    1    6    6    0  503 -0.15120189083E+02 -0.10868431686E+03 -0.84337860108E+01  0.11005466640E+03  0.00000000000E+00 0.  1.
<mgrwt>
<rscale>  0 0.42255000E+03</rscale>
<asrwt>0</asrwt>
<pdfrwt beam="1">  1        2 0.76198499E-01 0.42255000E+03</pdfrwt>
<pdfrwt beam="2">  1       -2 0.17215479E+00 0.42255000E+03</pdfrwt>
<totfact> 0.13570287E+01</totfact>
</mgrwt>
</event>
<event>
12    1  0.3203156E-008  0.1678725E+04  0.7818608E-02  0.8773592E-01
         -1   -1    0    0    0  501 -0.00000000000E+00  0.00000000000E+00  0.28608737814E+04  0.28608737814E+04  0.00000000000E+00 0.  1.
          1   -1    0    0  501    0  0.00000000000E+00 -0.00000000000E+00 -0.11573459545E+04  0.11573459545E+04  0.00000000000E+00 0. -1.
         23    2    1    2    0    0 -0.36807723141E+03  0.15930243507E+04  0.15746679389E+04  0.22718654512E+04  0.92661105742E+02 0.  0.
    5000000    2    1    2    0    0  0.36807723141E+03 -0.15930243507E+04  0.12885988799E+03  0.17463542847E+04  0.59995082027E+03 0.  0.
         23    2    4    4    0    0  0.47846828119E+03 -0.94204601327E+03 -0.31728947802E+02  0.10609347571E+04  0.90516547760E+02 0.  0.
         23    2    4    4    0    0 -0.11039104978E+03 -0.65097833743E+03  0.16058883579E+03  0.68541952762E+03  0.89733912146E+02 0.  0.
          5    1    3    3  502    0 -0.11944452446E+03  0.72039800295E+03  0.70389210847E+03  0.10142615380E+04  0.47000000000E+01 0. -1.
         -5    1    3    3    0  502 -0.24863270696E+03  0.87262634774E+03  0.87077583040E+03  0.12576039132E+04  0.47000000000E+01 0.  1.
         11    1    5    5    0    0  0.18047363010E+03 -0.34641158630E+03  0.31778449561E+02  0.39189486873E+03  0.00000000000E+00 0.  1.
        -11    1    5    5    0    0  0.29799465109E+03 -0.59563442697E+03 -0.63507397363E+02  0.66903988834E+03  0.00000000000E+00 0. -1.
          2    1    6    6  503    0 -0.57036798054E+02 -0.49676929118E+03  0.92065725798E+02  0.50843782595E+03  0.00000000000E+00 0.  1.
         -2    1    6    6    0  503 -0.53354251726E+02 -0.15420904625E+03  0.68523109996E+02  0.17698170167E+03  0.00000000000E+00 0. -1.
<mgrwt>
<rscale>  0 0.16787253E+04</rscale>
<asrwt>0</asrwt>
<pdfrwt beam="1">  1        1 0.17805322E+00 0.16787253E+04</pdfrwt>
<pdfrwt beam="2">  1       -1 0.44013443E+00 0.16787253E+04</pdfrwt>
<totfact> 0.40403460E-02</totfact>
</mgrwt>
</event>
<event>
12    1  0.3203156E-008  0.1255300E+04  0.7818608E-02  0.9065783E-01
         -2   -1    0    0    0  501 -0.00000000000E+00  0.00000000000E+00  0.81240523638E+03  0.81240523638E+03  0.00000000000E+00 0.  1.
          2   -1    0    0  501    0  0.00000000000E+00 -0.00000000000E+00 -0.19804157230E+04  0.19804157230E+04  0.00000000000E+00 0. -1.
         23    2    1    2    0    0 -0.20865688153E+03  0.11677856804E+04 -0.38749337261E+03  0.12512597797E+04  0.90768015922E+02 0.  0.
    5000000    2    1    2    0    0  0.20865688153E+03 -0.11677856804E+04 -0.78051711398E+03  0.15415611797E+04  0.59995234464E+03 0.  0.
         23    2    4    4    0    0 -0.19153313425E+03 -0.52051133452E+03 -0.29234097354E+03  0.63287237874E+03  0.86297231035E+02 0.  0.
         23    2    4    4    0    0  0.40019001578E+03 -0.64727434593E+03 -0.48817614045E+03  0.90868880095E+03  0.91012445563E+02 0.  0.
          5    1    3    3  502    0 -0.35981821104E+02  0.12557208348E+03 -0.69323411919E+02  0.14795561848E+03  0.47000000000E+01 0. -1.
         -5    1    3    3    0  502 -0.17267506042E+03  0.10422135970E+04 -0.31816996069E+03  0.11033041612E+04  0.47000000000E+01 0.  1.
         13    1    5    5    0    0 -0.54132437672E+02 -0.26975764506E+03 -0.13411605789E+03  0.30608270919E+03  0.00000000000E+00 0. -1.
        -13    1    5    5    0    0 -0.13740069658E+03 -0.25075368946E+03 -0.15822491564E+03  0.32678966955E+03  0.00000000000E+00 0.  1.
          1    1    6    6  503    0  0.26991577444E+03 -0.47601969849E+03 -0.39120424976E+03  0.67267380184E+03  0.00000000000E+00 0. -1.
         -1    1    6    6    0  503  0.13027424133E+03 -0.17125464744E+03 -0.96971890682E+02  0.23601499911E+03  0.00000000000E+00 0.  1.
<mgrwt>
<rscale>  0 0.12553004E+04</rscale>
<asrwt>0</asrwt>
<pdfrwt beam="1">  1        2 0.30467934E+00 0.12553004E+04</pdfrwt>
<pdfrwt beam="2">  1       -2 0.12498542E+00 0.12553004E+04</pdfrwt>
<totfact> 0.31874806E+00</totfact>
</mgrwt>
</event>
<event>
12    1  0.3203156E-008  0.7128186E+03  0.7818608E-02  0.9695558E-01
          1   -1    0    0  501    0  0.00000000000E+00  0.00000000000E+00  0.94252947518E+03  0.94252947518E+03  0.00000000000E+00 0. -1.
         -1   -1    0    0    0  501 -0.00000000000E+00 -0.00000000000E+00 -0.82241750430E+03  0.82241750430E+03  0.00000000000E+00 0.  1.
         23    2    1    2    0    0 -0.63420853941E+03  0.25330419954E+03 -0.31762320363E+03  0.75597554962E+03  0.65046469387E+02 0.  0.
    5000000    2    1    2    0    0  0.63420853941E+03 -0.25330419954E+03  0.43773517451E+03  0.10089714299E+04  0.60002314480E+03 0.  0.
         23    2    4    4    0    0  0.20544651934E+03 -0.21213809469E+03 -0.90103277105E+02  0.32211780702E+03  0.91817414072E+02 0.  0.
         23    2    4    4    0    0  0.42876202007E+03 -0.41166104856E+02  0.52783845162E+03  0.68685362284E+03  0.87309507822E+02 0.  0.
          5    1    3    3  502    0 -0.52207400417E+03  0.22129712777E+03 -0.23966751053E+03  0.61562674584E+03  0.47000000000E+01 0. -1.
         -5    1    3    3    0  502 -0.11213453524E+03  0.32007071768E+02 -0.77955693103E+02  0.14034880379E+03  0.47000000000E+01 0.  1.
         13    1    5    5    0    0  0.93675353166E+02 -0.40036670595E+02 -0.48077097295E+02  0.11264729942E+03  0.00000000000E+00 0.  1.
        -13    1    5    5    0    0  0.11177116617E+03 -0.17210142409E+03 -0.42026179809E+02  0.20947050759E+03  0.00000000000E+00 0. -1.
          2    1    6    6  503    0  0.93180235331E+02 -0.33809424761E+02  0.16564442728E+03  0.19303810439E+03  0.00000000000E+00 0.  1.
         -2    1    6    6    0  503  0.33558178474E+03 -0.73566800955E+01  0.36219402434E+03  0.49381551844E+03  0.00000000000E+00 0. -1.
<mgrwt>
<rscale>  0 0.71281860E+03</rscale>
<asrwt>0</asrwt>
<pdfrwt beam="1">  1        1 0.14500453E+00 0.71281860E+03</pdfrwt>
<pdfrwt beam="2">  1       -1 0.12652577E+00 0.71281860E+03</pdfrwt>
<totfact> 0.94693549E+00</totfact>
</mgrwt>
</event>
<event>
12    1  0.3203156E-008  0.5575550E+03  0.7818608E-02  0.9997602E-01
          3   -1    0    0  501    0  0.00000000000E+00  0.00000000000E+00  0.10870185508E+04  0.10870185508E+04  0.00000000000E+00 0. -1.
         -3   -1    0    0    0  501 -0.00000000000E+00 -0.00000000000E+00 -0.37049603247E+03  0.37049603247E+03  0.00000000000E+00 0.  1.
         23    2    1    2    0    0 -0.27758634420E+03  0.40098218792E+03  0.27645127699E+03  0.56785742807E+03  0.90530970136E+02 0.  0.
    5000000    2    1    2    0    0  0.27758634420E+03 -0.40098218792E+03  0.44007124134E+03  0.88965715521E+03  0.59998855226E+03 0.  0.
         23    2    4    4    0    0  0.33080626326E+03 -0.42058321731E+03  0.52319005109E+03  0.75407062810E+03  0.92583238772E+02 0.  0.
         23    2    4    4    0    0 -0.53219919064E+02  0.19601029396E+02 -0.83118809750E+02  0.13558652711E+03  0.90875792489E+02 0.  0.
          5    1    3    3  502    0 -0.67997685394E+02  0.17481546960E+03  0.10559517299E+03  0.21530574583E+03  0.47000000000E+01 0. -1.
         -5    1    3    3    0  502 -0.20958865881E+03  0.22616671832E+03  0.17085610400E+03  0.35255168224E+03  0.47000000000E+01 0.  1.
         13    1    5    5    0    0  0.18220414829E+02 -0.73414493234E+02  0.65263598192E+02  0.99904997785E+02  0.00000000000E+00 0.  1.
        -13    1    5    5    0    0  0.31258584844E+03 -0.34716872408E+03  0.45792645290E+03  0.65416563032E+03  0.00000000000E+00 0. -1.
          3    1    6    6  503    0 -0.45496350849E+02  0.36098318996E+02 -0.84030961048E+01  0.58682353388E+02  0.00000000000E+00 0. -1.
         -3    1    6    6    0  503 -0.77235682151E+01 -0.16497289601E+02 -0.74715713645E+02  0.76904173720E+02  0.00000000000E+00 0.  1.
<mgrwt>
<rscale>  0 0.55755500E+03</rscale>
<asrwt>0</asrwt>
<pdfrwt beam="1">  1        3 0.16723362E+00 0.55755500E+03</pdfrwt>
<pdfrwt beam="2">  1       -3 0.56999390E-01 0.55755500E+03</pdfrwt>
<totfact> 0.19300179E+00</totfact>
</mgrwt>
</event>
<event>
12    1  0.3532524E-008  0.6726765E+03  0.7818608E-02  0.9765135E-01
          2   -1    0    0  501    0  0.00000000000E+00  0.00000000000E+00  0.18122857677E+04  0.18122857677E+04  0.00000000000E+00 0. -1.
         -2   -1    0    0    0  501 -0.00000000000E+00 -0.00000000000E+00 -0.30432171658E+03  0.30432171658E+03  0.00000000000E+00 0.  1.
         23    2    1    2    0    0  0.21102684259E+03 -0.57935434433E+03  0.68373369910E+03  0.92514500815E+03  0.90651697358E+02 0.  0.
    5000000    2    1    2    0    0 -0.21102684259E+03  0.57935434433E+03  0.82423035205E+03  0.11914624761E+04  0.60003614412E+03 0.  0.
         23    2    4    4    0    0 -0.11166772976E+03  0.59675449061E+03  0.85667758043E+03  0.10538697688E+04  0.90329446303E+02 0.  0.
         23    2    4    4    0    0 -0.99359112831E+02 -0.17400146276E+02 -0.32447228380E+02  0.13759270734E+03  0.87772046184E+02 0.  0.
          5    1    3    3  502    0  0.12710848944E+03 -0.25877689239E+03  0.26982342950E+03  0.39490355941E+03  0.47000000000E+01 0. -1.
         -5    1    3    3    0  502  0.83918353143E+02 -0.32057745194E+03  0.41391026960E+03  0.53024144874E+03  0.47000000000E+01 0.  1.
         13    1    5    5    0    0 -0.66955824171E+02  0.35853202218E+03  0.43680019505E+03  0.56905421861E+03  0.00000000000E+00 0.  1.
        -13    1    5    5    0    0 -0.44711905586E+02  0.23822246843E+03  0.41987738538E+03  0.48481555020E+03  0.00000000000E+00 0. -1.
          3    1    6    6  503    0 -0.38232051100E+02  0.23551372702E+02 -0.44287485601E+02  0.63069313206E+02  0.00000000000E+00 0. -1.
         -3    1    6    6    0  503 -0.61127061731E+02 -0.40951518979E+02  0.11840257221E+02  0.74523394136E+02  0.00000000000E+00 0.  1.
<mgrwt>
<rscale>  0 0.67267652E+03</rscale>
<asrwt>0</asrwt>
<pdfrwt beam="1">  1        2 0.27881319E+00 0.67267652E+03</pdfrwt>
<pdfrwt beam="2">  1       -2 0.46818727E-01 0.67267652E+03</pdfrwt>
<totfact> 0.38134506E+01</totfact>
</mgrwt>
</event>
<event>
12    1  0.3203156E-008  0.4515212E+03  0.7818608E-02  0.1027269E+00
         -2   -1    0    0    0  501 -0.00000000000E+00  0.00000000000E+00  0.33099892863E+03  0.33099892863E+03  0.00000000000E+00 0.  1.
          2   -1    0    0  501    0  0.00000000000E+00 -0.00000000000E+00 -0.73302282514E+03  0.73302282514E+03  0.00000000000E+00 0. -1.
         23    2    1    2    0    0  0.27178585340E+03 -0.10589016681E+03 -0.20727414362E+03  0.36903800627E+03  0.90256312372E+02 0.  0.
    5000000    2    1    2    0    0 -0.27178585340E+03  0.10589016681E+03 -0.19474975289E+03  0.69498374750E+03  0.59999555456E+03 0.  0.
         23    2    4    4    0    0 -0.17166212757E+03  0.31304794639E+03  0.15611623628E+02  0.36860648125E+03  0.90333340707E+02 0.  0.
         23    2    4    4    0    0 -0.10012372583E+03 -0.20715777958E+03 -0.21036137652E+03  0.32637726625E+03  0.96597645306E+02 0.  0.
          5    1    3    3  502    0  0.21335426769E+03 -0.10610628682E+03 -0.12825042096E+03  0.27064524404E+03  0.47000000000E+01 0. -1.
         -5    1    3    3    0  502  0.58431585713E+02  0.21612000934E+00 -0.79023722663E+02  0.98392762235E+02  0.47000000000E+01 0.  1.
         13    1    5    5    0    0 -0.16490802212E+03  0.23693990390E+03 -0.75148681324E+01  0.28877611927E+03  0.00000000000E+00 0.  1.
        -13    1    5    5    0    0 -0.67541054589E+01  0.76108042490E+02  0.23126491761E+02  0.79830361977E+02  0.00000000000E+00 0. -1.
          4    1    6    6  503    0 -0.19574969685E+02 -0.12287290748E+03 -0.15065939947E+03  0.19539494743E+03  0.00000000000E+00 0. -1.
         -4    1    6    6    0  503 -0.80548756142E+02 -0.84284872095E+02 -0.59701977053E+02  0.13098231882E+03  0.00000000000E+00 0.  1.
<mgrwt>
<rscale>  0 0.45152120E+03</rscale>
<asrwt>0</asrwt>
<pdfrwt beam="1">  1        2 0.11277274E+00 0.45152120E+03</pdfrwt>
<pdfrwt beam="2">  1       -2 0.50922913E-01 0.45152120E+03</pdfrwt>
<totfact> 0.14536506E+02</totfact>
</mgrwt>
</event>
<event>
12    1  0.3781492E-008  0.1107466E+04  0.7818608E-02  0.9197945E-01
          2   -1    0    0  501    0  0.00000000000E+00  0.00000000000E+00  0.25971260453E+04  0.25971260453E+04  0.00000000000E+00 0. -1.
         -2   -1    0    0    0  501 -0.00000000000E+00 -0.00000000000E+00 -0.57076406936E+03  0.57076406936E+03  0.00000000000E+00 0.  1.
         23    2    1    2    0    0  0.10334179217E+04 -0.29923348622E+03  0.14498871544E+04  0.18078178401E+04  0.92408345456E+02 0.  0.
    5000000    2    1    2    0    0 -0.10334179217E+04  0.29923348622E+03  0.57647482155E+03  0.13600722746E+04  0.59998340975E+03 0.  0.
         23    2    4    4    0    0 -0.49910061271E+03  0.32444041417E+03  0.55285958687E+03  0.81727880067E+03  0.89038818891E+02 0.  0.
         23    2    4    4    0    0 -0.53431730901E+03 -0.25206927954E+02  0.23615234677E+02  0.54279347390E+03  0.89088159043E+02 0.  0.
          5    1    3    3  502    0  0.57136605976E+03 -0.13681338956E+03  0.85167398229E+03  0.10346727695E+04  0.47000000000E+01 0. -1.
         -5    1    3    3    0  502  0.46205186195E+03 -0.16242009666E+03  0.59821317213E+03  0.77314507063E+03  0.47000000000E+01 0.  1.
         13    1    5    5    0    0 -0.22928996189E+03  0.14466424270E+03  0.19230079701E+03  0.33238716321E+03  0.00000000000E+00 0.  1.
        -13    1    5    5    0    0 -0.26981065082E+03  0.17977617148E+03  0.36055878987E+03  0.48489163746E+03  0.00000000000E+00 0. -1.
          3    1    6    6  503    0 -0.31612179664E+03 -0.58698610002E+02  0.13073296228E+02  0.32179096973E+03  0.00000000000E+00 0. -1.
         -3    1    6    6    0  503 -0.21819551237E+03  0.33491682048E+02  0.10541938449E+02  0.22100250417E+03  0.00000000000E+00 0.  1.
<mgrwt>
<rscale>  0 0.11074663E+04</rscale>
<asrwt>0</asrwt>
<pdfrwt beam="1">  1        2 0.39955785E+00 0.11074663E+04</pdfrwt>
<pdfrwt beam="2">  1       -2 0.87809858E-01 0.11074663E+04</pdfrwt>
<totfact> 0.34079233E+00</totfact>
</mgrwt>
</event>
<event>
12    1  0.3203156E-008  0.3331738E+03  0.7818608E-02  0.1069741E+00
          1   -1    0    0  501    0  0.00000000000E+00  0.00000000000E+00  0.38030646052E+03  0.38030646052E+03  0.00000000000E+00 0. -1.
         -1   -1    0    0    0  501 -0.00000000000E+00 -0.00000000000E+00 -0.72811451132E+03  0.72811451132E+03  0.00000000000E+00 0.  1.
         23    2    1    2    0    0 -0.24738276778E+03  0.28596783408E+02  0.13641290446E+03  0.29810760983E+03  0.90794585312E+02 0.  0.
    5000000    2    1    2    0    0  0.24738276778E+03 -0.28596783408E+02 -0.48422095526E+03  0.81031336201E+03  0.60010149252E+03 0.  0.
         23    2    4    4    0    0  0.25104211162E+03 -0.12540171611E+03 -0.57721790966E+03  0.64702068679E+03  0.81899460818E+02 0.  0.
         23    2    4    4    0    0 -0.36593438451E+01  0.96804932703E+02  0.92996954404E+02  0.16329267523E+03  0.92905750419E+02 0.  0.
          5    1    3    3  502    0 -0.11717546384E+03  0.54366499480E+02  0.44977512507E+02  0.13686077679E+03  0.47000000000E+01 0. -1.
         -5    1    3    3    0  502 -0.13020730394E+03 -0.25769716072E+02  0.91435391950E+02  0.16124683304E+03  0.47000000000E+01 0.  1.
         13    1    5    5    0    0  0.18569825460E+03 -0.77015897600E+02 -0.32630466992E+03  0.38326234860E+03  0.00000000000E+00 0. -1.
        -13    1    5    5    0    0  0.65343857026E+02 -0.48385818511E+02 -0.25091323974E+03  0.26375833819E+03  0.00000000000E+00 0.  1.
          1    1    6    6  503    0  0.12758993094E+02  0.10343742472E+03  0.99823451905E+02  0.14431498289E+03  0.00000000000E+00 0. -1.
         -1    1    6    6    0  503 -0.16418336939E+02 -0.66324920148E+01 -0.68264975008E+01  0.18977692333E+02  0.00000000000E+00 0.  1.
<mgrwt>
<rscale>  0 0.33317375E+03</rscale>
<asrwt>0</asrwt>
<pdfrwt beam="1">  1        1 0.58508686E-01 0.33317375E+03</pdfrwt>
<pdfrwt beam="2">  1       -1 0.11201762E+00 0.33317375E+03</pdfrwt>
<totfact> 0.50310049E+01</totfact>
</mgrwt>
</event>
<event>
12    1  0.3203156E-008  0.3617054E+03  0.7818608E-02  0.1057911E+00
         -2   -1    0    0    0  501 -0.00000000000E+00  0.00000000000E+00  0.33778022667E+03  0.33778022667E+03  0.00000000000E+00 0.  1.
          2   -1    0    0  501    0  0.00000000000E+00 -0.00000000000E+00 -0.76421107037E+03  0.76421107037E+03  0.00000000000E+00 0. -1.
         23    2    1    2    0    0 -0.12108486794E+03  0.29867769687E+03 -0.13273223147E+03  0.36039588827E+03  0.91637542295E+02 0.  0.
    5000000    2    1    2    0    0  0.12108486794E+03 -0.29867769687E+03 -0.29369861224E+03  0.74159540877E+03  0.59986245392E+03 0.  0.
         23    2    4    4    0    0 -0.65397634019E+02 -0.63027145253E+02 -0.39231811222E+03  0.41267890664E+03  0.90228084517E+02 0.  0.
         23    2    4    4    0    0  0.18648250196E+03 -0.23565055162E+03  0.98619499976E+02  0.32891650214E+03  0.90295922319E+02 0.  0.
          5    1    3    3  502    0 -0.92015193322E+02  0.26143659608E+03 -0.14286980988E+03  0.31184894123E+03  0.47000000000E+01 0. -1.
         -5    1    3    3    0  502 -0.29069674614E+02  0.37241100796E+02  0.10137578414E+02  0.48546947039E+02  0.47000000000E+01 0.  1.
         13    1    5    5    0    0 -0.71910998574E+00  0.41710418935E+01 -0.18835562467E+03  0.18840317421E+03  0.00000000000E+00 0.  1.
        -13    1    5    5    0    0 -0.64678524034E+02 -0.67198187146E+02 -0.20396248755E+03  0.22427573242E+03  0.00000000000E+00 0. -1.
          4    1    6    6  503    0  0.54217914542E+02 -0.84380725376E+02 -0.94809300021E+01  0.10074510959E+03  0.00000000000E+00 0. -1.
         -4    1    6    6    0  503  0.13226458741E+03 -0.15126982624E+03  0.10810042998E+03  0.22817139255E+03  0.00000000000E+00 0.  1.
<mgrwt>
<rscale>  0 0.36170542E+03</rscale>
<asrwt>0</asrwt>
<pdfrwt beam="1">  1        2 0.11757093E+00 0.36170542E+03</pdfrwt>
<pdfrwt beam="2">  1       -2 0.51966189E-01 0.36170542E+03</pdfrwt>
<totfact> 0.13356322E+02</totfact>
</mgrwt>
</event>
<event>
12    1  0.3203156E-008  0.1356842E+04  0.7818608E-02  0.8985665E-01
          1   -1    0    0  501    0  0.00000000000E+00  0.00000000000E+00  0.60903601220E+03  0.60903601220E+03  0.00000000000E+00 0. -1.
         -1   -1    0    0    0  501 -0.00000000000E+00 -0.00000000000E+00 -0.31492133912E+04  0.31492133912E+04  0.00000000000E+00 0.  1.
         23    2    1    2    0    0  0.99972849399E+03 -0.82366125383E+03 -0.88069429326E+03  0.15692129987E+04  0.94509651885E+02 0.  0.
    5000000    2    1    2    0    0 -0.99972849399E+03  0.82366125383E+03 -0.16594830857E+04  0.21890364047E+04  0.60010111356E+03 0.  0.
         23    2    4    4    0    0 -0.99524293368E+03  0.56670358834E+03 -0.14123297206E+04  0.18206222540E+04  0.91261700818E+02 0.  0.
         23    2    4    4    0    0 -0.44855603021E+01  0.25695766550E+03 -0.24715336508E+03  0.36841415064E+03  0.92719137260E+02 0.  0.
          5    1    3    3  502    0  0.53509104486E+03 -0.40747317345E+03 -0.40938378305E+03  0.78738426781E+03  0.47000000000E+01 0. -1.
         -5    1    3    3    0  502  0.46463744913E+03 -0.41618808038E+03 -0.47131051020E+03  0.78182873087E+03  0.47000000000E+01 0.  1.
         13    1    5    5    0    0 -0.38755330285E+03  0.24300532718E+03 -0.62830127775E+03  0.77718186237E+03  0.00000000000E+00 0. -1.
        -13    1    5    5    0    0 -0.60768963083E+03  0.32369826116E+03 -0.78402844288E+03  0.10434403917E+04  0.00000000000E+00 0.  1.
          3    1    6    6  503    0  0.39157086957E+02  0.79953229884E+02 -0.10194457552E+03  0.13534582707E+03  0.00000000000E+00 0. -1.
         -3    1    6    6    0  503 -0.43642647259E+02  0.17700443561E+03 -0.14520878956E+03  0.23306832357E+03  0.00000000000E+00 0.  1.
<mgrwt>
<rscale>  0 0.13568417E+04</rscale>
<asrwt>0</asrwt>
<pdfrwt beam="1">  1        1 0.93697849E-01 0.13568417E+04</pdfrwt>
<pdfrwt beam="2">  1       -1 0.48449436E+00 0.13568417E+04</pdfrwt>
<totfact> 0.61344964E-02</totfact>
</mgrwt>
</event>
<event>
12    1  0.3203156E-008  0.3283840E+03  0.7818608E-02  0.1071854E+00
          1   -1    0    0  501    0  0.00000000000E+00  0.00000000000E+00  0.75770981093E+03  0.75770981093E+03  0.00000000000E+00 0. -1.
         -1   -1    0    0    0  501 -0.00000000000E+00 -0.00000000000E+00 -0.32650380203E+03  0.32650380203E+03  0.00000000000E+00 0.  1.
         23    2    1    2    0    0 -0.52686147696E+02  0.27574846534E+03  0.28179657335E+01  0.29531108943E+03  0.91584126970E+02 0.  0.
    5000000    2    1    2    0    0  0.52686147696E+02 -0.27574846534E+03  0.42838804316E+03  0.78890252353E+03  0.60003152402E+03 0.  0.
         23    2    4    4    0    0  0.10687423955E+03 -0.25086359148E+03 -0.55212039581E+02  0.29301848804E+03  0.91960972188E+02 0.  0.
         23    2    4    4    0    0 -0.54188091851E+02 -0.24884873856E+02  0.48360008274E+03  0.49588403549E+03  0.92066988568E+02 0.  0.
          5    1    3    3  502    0 -0.77417452899E+02  0.18066323776E+03  0.84413473067E+01  0.19678926250E+03  0.47000000000E+01 0. -1.
         -5    1    3    3    0  502  0.24731305204E+02  0.95085227582E+02 -0.56233815731E+01  0.98521826930E+02  0.47000000000E+01 0.  1.
         13    1    5    5    0    0  0.17407710990E+02 -0.15043348829E+03 -0.45695876677E+02  0.15818146524E+03  0.00000000000E+00 0. -1.
        -13    1    5    5    0    0  0.89466528556E+02 -0.10043010319E+03 -0.95161629037E+01  0.13483702279E+03  0.00000000000E+00 0.  1.
          2    1    6    6  503    0 -0.42087313124E+02 -0.38923196700E+02  0.13342851649E+03  0.14522233361E+03  0.00000000000E+00 0. -1.
         -2    1    6    6    0  503 -0.12100778727E+02  0.14038322844E+02  0.35017156625E+03  0.35066170188E+03  0.00000000000E+00 0.  1.
<mgrwt>
<rscale>  0 0.32838403E+03</rscale>
<asrwt>0</asrwt>
<pdfrwt beam="1">  1        1 0.11657074E+00 0.32838403E+03</pdfrwt>
<pdfrwt beam="2">  1       -1 0.50231354E-01 0.32838403E+03</pdfrwt>
<totfact> 0.10227616E+02</totfact>
</mgrwt>
</event>
<event>
12    1  0.3203156E-008  0.4869701E+03  0.7818608E-02  0.1017237E+00
         -2   -1    0    0    0  501 -0.00000000000E+00  0.00000000000E+00  0.17054566670E+03  0.17054566670E+03  0.00000000000E+00 0.  1.
          2   -1    0    0  501    0  0.00000000000E+00 -0.00000000000E+00 -0.30219678763E+04  0.30219678763E+04  0.00000000000E+00 0. -1.
         23    2    1    2    0    0 -0.29210080009E+03 -0.92658037746E+02 -0.65687830735E+02  0.32645157175E+03  0.91363823356E+02 0.  0.
    5000000    2    1    2    0    0  0.29210080009E+03  0.92658037746E+02 -0.27857343788E+04  0.28660619712E+04  0.60007233235E+03 0.  0.
         23    2    4    4    0    0  0.44786574689E+03  0.13244268140E+03 -0.17242947745E+04  0.17886100620E+04  0.88366812614E+02 0.  0.
         23    2    4    4    0    0 -0.15576494680E+03 -0.39784643654E+02 -0.10614396043E+04  0.10774519092E+04  0.91668131936E+02 0.  0.
          5    1    3    3  502    0 -0.26576108592E+03 -0.11004491377E+03 -0.55779150335E+02  0.29303965849E+03  0.47000000000E+01 0. -1.
         -5    1    3    3    0  502 -0.26339714167E+02  0.17386876021E+02 -0.99086804001E+01  0.33411913256E+02  0.47000000000E+01 0.  1.
         11    1    5    5    0    0  0.20384604669E+03  0.98982932383E+02 -0.73665809113E+03  0.77072431834E+03  0.00000000000E+00 0.  1.
        -11    1    5    5    0    0  0.24401970020E+03  0.33459749017E+02 -0.98763668336E+03  0.10178857437E+04  0.00000000000E+00 0. -1.
          3    1    6    6  503    0 -0.14980621107E+03 -0.59238245561E+02 -0.99533636247E+03  0.10082884235E+04  0.00000000000E+00 0. -1.
         -3    1    6    6    0  503 -0.59587357278E+01  0.19453601907E+02 -0.66103241871E+02  0.69163485630E+02  0.00000000000E+00 0.  1.
<mgrwt>
<rscale>  0 0.48697008E+03</rscale>
<asrwt>0</asrwt>
<pdfrwt beam="1">  1        2 0.46491810E+00 0.48697008E+03</pdfrwt>
<pdfrwt beam="2">  1       -2 0.26237797E-01 0.48697008E+03</pdfrwt>
<totfact> 0.24728754E+01</totfact>
</mgrwt>
</event>
<event>
12    1  0.3203156E-008  0.5087418E+03  0.7818608E-02  0.1011522E+00
          1   -1    0    0  501    0  0.00000000000E+00  0.00000000000E+00  0.40188999914E+03  0.40188999914E+03  0.00000000000E+00 0.  1.
         -1   -1    0    0    0  501 -0.00000000000E+00 -0.00000000000E+00 -0.73558102748E+03  0.73558102748E+03  0.00000000000E+00 0. -1.
         23    2    1    2    0    0 -0.19082686920E+02  0.35005390481E+03  0.81090455936E+01  0.36307729179E+03  0.94114175247E+02 0.  0.
    5000000    2    1    2    0    0  0.19082686920E+02 -0.35005390481E+03 -0.34180007394E+03  0.77439373483E+03  0.59996373289E+03 0.  0.
         23    2    4    4    0    0  0.20661616275E+03  0.52811650317E+02 -0.17376094710E+03  0.29057486213E+03  0.93603283303E+02 0.  0.
         23    2    4    4    0    0 -0.18753347584E+03 -0.40286555513E+03 -0.16803912685E+03  0.48381887270E+03  0.91510072472E+02 0.  0.
          5    1    3    3  502    0  0.31949372658E+01  0.18229083944E+03 -0.40731086747E+02  0.18687233395E+03  0.47000000000E+01 0. -1.
         -5    1    3    3    0  502 -0.22277624186E+02  0.16776306537E+03  0.48840132341E+02  0.17620495784E+03  0.47000000000E+01 0.  1.
         13    1    5    5    0    0  0.12826603477E+03  0.29293725120E+02 -0.47002719455E+02  0.13971239617E+03  0.00000000000E+00 0. -1.
        -13    1    5    5    0    0  0.78350127983E+02  0.23517925197E+02 -0.12675822764E+03  0.15086246596E+03  0.00000000000E+00 0.  1.
          4    1    6    6  503    0 -0.11057114979E+03 -0.32351217868E+03 -0.14229424448E+03  0.37031575842E+03  0.00000000000E+00 0. -1.
         -4    1    6    6    0  503 -0.76962326047E+02 -0.79353376443E+02 -0.25744882370E+02  0.11350311428E+03  0.00000000000E+00 0.  1.
<mgrwt>
<rscale>  0 0.50874179E+03</rscale>
<asrwt>0</asrwt>
<pdfrwt beam="1">  1        1 0.61829231E-01 0.50874179E+03</pdfrwt>
<pdfrwt beam="2">  1       -1 0.11316631E+00 0.50874179E+03</pdfrwt>
<totfact> 0.44528099E+01</totfact>
</mgrwt>
</event>
<event>
12    1  0.3203156E-008  0.1275282E+04  0.7818608E-02  0.9049400E-01
          2   -1    0    0  501    0  0.00000000000E+00  0.00000000000E+00  0.28763333582E+04  0.28763333582E+04  0.00000000000E+00 0. -1.
         -2   -1    0    0    0  501 -0.00000000000E+00 -0.00000000000E+00 -0.68958165588E+03  0.68958165588E+03  0.00000000000E+00 0.  1.
         23    2    1    2    0    0  0.37837925896E+03  0.11698303622E+04  0.17285029388E+04  0.21231534735E+04  0.91565947382E+02 0.  0.
    5000000    2    1    2    0    0 -0.37837925896E+03 -0.11698303622E+04  0.45824876350E+03  0.14427615405E+04  0.59991248826E+03 0.  0.
         23    2    4    4    0    0 -0.20622754066E+03 -0.89370460343E+02 -0.22330448237E+02  0.24434407179E+03  0.93212117197E+02 0.  0.
         23    2    4    4    0    0 -0.17215171830E+03 -0.10804599019E+04  0.48057921174E+03  0.11984174687E+04  0.90654491997E+02 0.  0.
          5    1    3    3  502    0  0.11431689248E+03  0.41190692937E+03  0.66981957088E+03  0.79461690009E+03  0.47000000000E+01 0. -1.
         -5    1    3    3    0  502  0.26406236649E+03  0.75792343285E+03  0.10586833679E+04  0.13285365734E+04  0.47000000000E+01 0.  1.
         11    1    5    5    0    0 -0.13552070994E+02 -0.13134292091E+02  0.25462760166E+02  0.31694170004E+02  0.00000000000E+00 0.  1.
        -11    1    5    5    0    0 -0.19267546966E+03 -0.76236168251E+02 -0.47793208403E+02  0.21264990179E+03  0.00000000000E+00 0. -1.
          3    1    6    6  503    0 -0.84374111055E+02 -0.60652287084E+03  0.22141590852E+03  0.65116356471E+03  0.00000000000E+00 0. -1.
         -3    1    6    6    0  503 -0.87777607247E+02 -0.47393703105E+03  0.25916330321E+03  0.54725390402E+03  0.00000000000E+00 0.  1.
<mgrwt>
<rscale>  0 0.12752822E+04</rscale>
<asrwt>0</asrwt>
<pdfrwt beam="1">  1        2 0.44251282E+00 0.12752822E+04</pdfrwt>
<pdfrwt beam="2">  1       -2 0.10608949E+00 0.12752822E+04</pdfrwt>
<totfact> 0.14575111E+00</totfact>
</mgrwt>
</event>
<event>
12    1  0.3203156E-008  0.6187656E+03  0.7818608E-02  0.9867221E-01
          1   -1    0    0  501    0  0.00000000000E+00  0.00000000000E+00  0.20444466405E+04  0.20444466405E+04  0.00000000000E+00 0. -1.
         -1   -1    0    0    0  501 -0.00000000000E+00 -0.00000000000E+00 -0.53456297572E+03  0.53456297572E+03  0.00000000000E+00 0.  1.
         23    2    1    2    0    0  0.56234692039E+03  0.13197183957E+03  0.16358960809E+04  0.17366388786E+04  0.78153578082E+02 0.  0.
    5000000    2    1    2    0    0 -0.56234692039E+03 -0.13197183957E+03 -0.12601241619E+03  0.84237073758E+03  0.60004891899E+03 0.  0.
         23    2    4    4    0    0 -0.23526524702E+02 -0.49974802161E+02  0.18263752065E+03  0.20969417926E+03  0.86972447659E+02 0.  0.
         23    2    4    4    0    0 -0.53882039569E+03 -0.81997037411E+02 -0.30864993684E+03  0.63267655832E+03  0.89240747295E+02 0.  0.
          5    1    3    3  502    0  0.84809179771E+02  0.49207454341E+02  0.28369039790E+03  0.30019377474E+03  0.47000000000E+01 0. -1.
         -5    1    3    3    0  502  0.47753774062E+03  0.82764385231E+02  0.13522056830E+04  0.14364451039E+04  0.47000000000E+01 0.  1.
         13    1    5    5    0    0 -0.42980212914E+02  0.63114669295E+01  0.74320284942E+02  0.86085062995E+02  0.00000000000E+00 0.  1.
        -13    1    5    5    0    0  0.19453688212E+02 -0.56286269091E+02  0.10831723571E+03  0.12360911627E+03  0.00000000000E+00 0. -1.
          4    1    6    6  503    0 -0.45451423510E+03 -0.10023933911E+03 -0.27077533894E+03  0.53847042555E+03  0.00000000000E+00 0. -1.
         -4    1    6    6    0  503 -0.84306160588E+02  0.18242301703E+02 -0.37874597899E+02  0.94206132765E+02  0.00000000000E+00 0.  1.
<mgrwt>
<rscale>  0 0.61876558E+03</rscale>
<asrwt>0</asrwt>
<pdfrwt beam="1">  1        1 0.31453025E+00 0.61876558E+03</pdfrwt>
<pdfrwt beam="2">  1       -1 0.82240459E-01 0.61876558E+03</pdfrwt>
<totfact> 0.44108654E+00</totfact>
</mgrwt>
</event>
<event>
12    1  0.3203156E-008  0.1227374E+04  0.7818608E-02  0.9089228E-01
          1   -1    0    0  501    0  0.00000000000E+00  0.00000000000E+00  0.99584765255E+03  0.99584765255E+03  0.00000000000E+00 0. -1.
         -1   -1    0    0    0  501 -0.00000000000E+00 -0.00000000000E+00 -0.16287483775E+04  0.16287483775E+04  0.00000000000E+00 0.  1.
         23    2    1    2    0    0  0.38166740834E+03  0.11253991216E+04 -0.47866088258E+03  0.12844169886E+04  0.91747297647E+02 0.  0.
    5000000    2    1    2    0    0 -0.38166740834E+03 -0.11253991216E+04 -0.15423984239E+03  0.13401790415E+04  0.60008061189E+03 0.  0.
         23    2    4    4    0    0  0.68150793566E+02 -0.26835126817E+02 -0.92015965485E+02  0.14832309929E+03  0.90377813567E+02 0.  0.
         23    2    4    4    0    0 -0.44981820191E+03 -0.10985639948E+04 -0.62223876909E+02  0.11918559422E+04  0.86426330894E+02 0.  0.
          5    1    3    3  502    0  0.19190892923E+03  0.50484779019E+03 -0.17335388817E+03  0.56725125732E+03  0.47000000000E+01 0.  1.
         -5    1    3    3    0  502  0.18975847911E+03  0.62055133140E+03 -0.30530699442E+03  0.71716573129E+03  0.47000000000E+01 0. -1.
         13    1    5    5    0    0  0.51610439791E+02 -0.32646175569E+02 -0.69427627740E+01  0.61462282984E+02  0.00000000000E+00 0.  1.
        -13    1    5    5    0    0  0.16540353776E+02  0.58110487519E+01 -0.85073202711E+02  0.86860816311E+02  0.00000000000E+00 0. -1.
          2    1    6    6  503    0 -0.32311222445E+03 -0.78260355301E+03 -0.83394989773E+02  0.85077879328E+03  0.00000000000E+00 0. -1.
         -2    1    6    6    0  503 -0.12670597746E+03 -0.31596044177E+03  0.21171112864E+02  0.34107714891E+03  0.00000000000E+00 0.  1.
<mgrwt>
<rscale>  0 0.12273740E+04</rscale>
<asrwt>0</asrwt>
<pdfrwt beam="1">  1        1 0.15320733E+00 0.12273740E+04</pdfrwt>
<pdfrwt beam="2">  1       -1 0.25057667E+00 0.12273740E+04</pdfrwt>
<totfact> 0.10316735E+00</totfact>
</mgrwt>
</event>
<event>
12    1  0.3203156E-008  0.1251444E+04  0.7818608E-02  0.9068982E-01
          2   -1    0    0  501    0  0.00000000000E+00  0.00000000000E+00  0.32482782565E+04  0.32482782565E+04  0.00000000000E+00 0. -1.
         -2   -1    0    0    0  501 -0.00000000000E+00 -0.00000000000E+00 -0.59396904939E+03  0.59396904939E+03  0.00000000000E+00 0.  1.
         23    2    1    2    0    0 -0.13504030188E+03 -0.12086642605E+04  0.19849789738E+04  0.23299029994E+04  0.95923316167E+02 0.  0.
    5000000    2    1    2    0    0  0.13504030188E+03  0.12086642605E+04  0.66933023333E+03  0.15123443065E+04  0.60006429841E+03 0.  0.
         23    2    4    4    0    0 -0.14078630156E+03  0.54577842818E+03  0.76612939805E+02  0.57700233454E+03  0.96784689648E+02 0.  0.
         23    2    4    4    0    0  0.27582660344E+03  0.66288583235E+03  0.59271729353E+03  0.93534197192E+03  0.89737798567E+02 0.  0.
          5    1    3    3  502    0 -0.48535010140E+02 -0.67104941924E+03  0.10211313032E+04  0.12228631153E+04  0.47000000000E+01 0. -1.
         -5    1    3    3    0  502 -0.86505291742E+02 -0.53761484130E+03  0.96384767058E+03  0.11070398842E+04  0.47000000000E+01 0.  1.
         11    1    5    5    0    0 -0.80407278619E+02  0.18741057237E+03 -0.71448301855E+01  0.20405661393E+03  0.00000000000E+00 0.  1.
        -11    1    5    5    0    0 -0.60379022943E+02  0.35836785581E+03  0.83757769990E+02  0.37294572062E+03  0.00000000000E+00 0. -1.
          3    1    6    6  503    0  0.14326419829E+03  0.36553772965E+03  0.26683589968E+03  0.47470397056E+03  0.00000000000E+00 0. -1.
         -3    1    6    6    0  503  0.13256240515E+03  0.29734810271E+03  0.32588139385E+03  0.46063800137E+03  0.00000000000E+00 0.  1.
<mgrwt>
<rscale>  0 0.12514440E+04</rscale>
<asrwt>0</asrwt>
<pdfrwt beam="1">  1        2 0.49973510E+00 0.12514440E+04</pdfrwt>
<pdfrwt beam="2">  1       -2 0.91379856E-01 0.12514440E+04</pdfrwt>
<totfact> 0.12169598E+00</totfact>
</mgrwt>
</event>
<event>
12    1  0.4506690E-008  0.8622518E+03  0.7818608E-02  0.9474039E-01
         -1   -1    0    0    0  501 -0.00000000000E+00  0.00000000000E+00  0.56415378166E+03  0.56415378166E+03  0.00000000000E+00 0.  1.
          1   -1    0    0  501    0  0.00000000000E+00 -0.00000000000E+00 -0.17370017533E+04  0.17370017533E+04  0.00000000000E+00 0. -1.
         23    2    1    2    0    0  0.81060273161E+02 -0.82761342878E+03 -0.92258574081E+03  0.12456010696E+04  0.94036269282E+02 0.  0.
    5000000    2    1    2    0    0 -0.81060273161E+02  0.82761342878E+03 -0.25026223079E+03  0.10555544654E+04  0.60004107341E+03 0.  0.
         23    2    4    4    0    0 -0.14557438969E+03  0.79383721899E+03 -0.36631868050E+03  0.89099673898E+03  0.91194188361E+02 0.  0.
         23    2    4    4    0    0  0.64514116532E+02  0.33776209790E+02  0.11605644971E+03  0.16455772638E+03  0.91144073923E+02 0.  0.
          5    1    3    3  502    0  0.16887803752E+02 -0.38803698447E+03 -0.36864108799E+03  0.53551493069E+03  0.47000000000E+01 0. -1.
         -5    1    3    3    0  502  0.64172469409E+02 -0.43957644431E+03 -0.55394465282E+03  0.71008613887E+03  0.47000000000E+01 0.  1.
         11    1    5    5    0    0 -0.24281965473E+02  0.37663935526E+03 -0.18271745916E+03  0.41932384580E+03  0.00000000000E+00 0.  1.
        -11    1    5    5    0    0 -0.12129242422E+03  0.41719786373E+03 -0.18360122134E+03  0.47167289318E+03  0.00000000000E+00 0. -1.
          3    1    6    6  503    0  0.77764133636E+01  0.20103132515E+02  0.10236703406E+03  0.10461174983E+03  0.00000000000E+00 0. -1.
         -3    1    6    6    0  503  0.56737703169E+02  0.13673077275E+02  0.13689415657E+02  0.59945976546E+02  0.00000000000E+00 0.  1.
<mgrwt>
<rscale>  0 0.86225177E+03</rscale>
<asrwt>0</asrwt>
<pdfrwt beam="1">  1        1 0.26723104E+00 0.86225177E+03</pdfrwt>
<pdfrwt beam="2">  1       -1 0.86792888E-01 0.86225177E+03</pdfrwt>
<totfact> 0.60391477E+00</totfact>
</mgrwt>
</event>
<event>
12    1  0.3203156E-008  0.7393067E+03  0.7818608E-02  0.9652277E-01
          1   -1    0    0  501    0  0.00000000000E+00  0.00000000000E+00  0.22756936145E+04  0.22756936145E+04  0.00000000000E+00 0. -1.
         -1   -1    0    0    0  501 -0.00000000000E+00 -0.00000000000E+00 -0.41747607297E+03  0.41747607297E+03  0.00000000000E+00 0.  1.
         23    2    1    2    0    0  0.30822218582E+03  0.61338963492E+03  0.82704914702E+02  0.69724088835E+03  0.89760756599E+02 0.  0.
    5000000    2    1    2    0    0 -0.30822218582E+03 -0.61338963492E+03  0.17755126269E+04  0.19959287992E+04  0.60003243505E+03 0.  0.
         23    2    4    4    0    0 -0.25664802300E+03 -0.12818958269E+03  0.11942743060E+04  0.12314083573E+04  0.88173961849E+02 0.  0.
         23    2    4    4    0    0 -0.51574162816E+02 -0.48520005223E+03  0.58123832086E+03  0.76452044189E+03  0.92598787700E+02 0.  0.
          5    1    3    3  502    0  0.15792233606E+03  0.38923307376E+03  0.22456407255E+02  0.42067592058E+03  0.47000000000E+01 0. -1.
         -5    1    3    3    0  502  0.15029984976E+03  0.22415656116E+03  0.60248507447E+02  0.27656496777E+03  0.47000000000E+01 0.  1.
         13    1    5    5    0    0 -0.13380877092E+03 -0.11059318249E+03  0.61761006174E+03  0.64154331697E+03  0.00000000000E+00 0.  1.
        -13    1    5    5    0    0 -0.12283925209E+03 -0.17596400200E+02  0.57666424426E+03  0.58986504030E+03  0.00000000000E+00 0. -1.
          3    1    6    6  503    0 -0.26410412040E+02 -0.67724183295E+02  0.49205679638E+02  0.87779688857E+02  0.00000000000E+00 0. -1.
         -3    1    6    6    0  503 -0.25163750775E+02 -0.41747586893E+03  0.53203264122E+03  0.67674075304E+03  0.00000000000E+00 0.  1.
<mgrwt>
<rscale>  0 0.73930673E+03</rscale>
<asrwt>0</asrwt>
<pdfrwt beam="1">  1        1 0.35010670E+00 0.73930673E+03</pdfrwt>
<pdfrwt beam="2">  1       -1 0.64227090E-01 0.73930673E+03</pdfrwt>
<totfact> 0.50236640E+00</totfact>
</mgrwt>
</event>
<event>
12    1  0.3203156E-008  0.1223237E+04  0.7818608E-02  0.9092757E-01
          1   -1    0    0  501    0  0.00000000000E+00  0.00000000000E+00  0.23216206177E+04  0.23216206177E+04  0.00000000000E+00 0. -1.
         -1   -1    0    0    0  501 -0.00000000000E+00 -0.00000000000E+00 -0.76431450598E+03  0.76431450598E+03  0.00000000000E+00 0.  1.
         23    2    1    2    0    0 -0.61879093202E+03 -0.99855626925E+03  0.20348258259E+03  0.11957633577E+04  0.91804170390E+02 0.  0.
    5000000    2    1    2    0    0  0.61879093202E+03  0.99855626925E+03  0.13538235291E+04  0.18901717660E+04  0.59991192402E+03 0.  0.
         23    2    4    4    0    0  0.87379685844E+02 -0.38330695996E+02  0.25541305287E+03  0.28643156965E+03  0.87765396140E+02 0.  0.
         23    2    4    4    0    0  0.53141124618E+03  0.10368869652E+04  0.10984104762E+04  0.16037401963E+04  0.89132215337E+02 0.  0.
          5    1    3    3  502    0 -0.24235681723E+03 -0.46842814352E+03  0.11151024524E+03  0.53909032387E+03  0.47000000000E+01 0. -1.
         -5    1    3    3    0  502 -0.37643411480E+03 -0.53012812573E+03  0.91972337350E+02  0.65667303379E+03  0.47000000000E+01 0.  1.
         11    1    5    5    0    0  0.47772661382E+02  0.38492614664E+00  0.20832963591E+03  0.21373725118E+03  0.00000000000E+00 0. -1.
        -11    1    5    5    0    0  0.39607024462E+02 -0.38715622142E+02  0.47083416961E+02  0.72694318467E+02  0.00000000000E+00 0.  1.
          1    1    6    6  503    0  0.19139340404E+03  0.41173264977E+03  0.48306487708E+03  0.66295315481E+03  0.00000000000E+00 0. -1.
         -1    1    6    6    0  503  0.34001784214E+03  0.62515431548E+03  0.61534559912E+03  0.94078704152E+03  0.00000000000E+00 0.  1.
<mgrwt>
<rscale>  0 0.12232371E+04</rscale>
<asrwt>0</asrwt>
<pdfrwt beam="1">  1        1 0.35717240E+00 0.12232371E+04</pdfrwt>
<pdfrwt beam="2">  1       -1 0.11758685E+00 0.12232371E+04</pdfrwt>
<totfact> 0.11516434E+00</totfact>
</mgrwt>
</event>
<event>
12    1  0.3203156E-008  0.1393353E+04  0.7818608E-02  0.8958644E-01
          2   -1    0    0  501    0  0.00000000000E+00  0.00000000000E+00  0.20344879621E+04  0.20344879621E+04  0.00000000000E+00 0. -1.
         -2   -1    0    0    0  501 -0.00000000000E+00 -0.00000000000E+00 -0.10679497115E+04  0.10679497115E+04  0.00000000000E+00 0.  1.
         23    2    1    2    0    0 -0.10597300603E+04  0.86145463760E+03  0.83868715066E+03  0.16052806034E+04  0.91639432960E+02 0.  0.
    5000000    2    1    2    0    0  0.10597300603E+04 -0.86145463760E+03  0.12785109998E+03  0.14971570701E+04  0.60000124625E+03 0.  0.
         23    2    4    4    0    0  0.69607072471E+03 -0.32000145833E+03  0.28173419992E+03  0.82126307395E+03  0.90462644785E+02 0.  0.
         23    2    4    4    0    0  0.36365933560E+03 -0.54145317927E+03 -0.15388309993E+03  0.67589399617E+03  0.87937636472E+02 0.  0.
          5    1    3    3  502    0 -0.39921095133E+03  0.33398184472E+03  0.26886387178E+03  0.58585247957E+03  0.47000000000E+01 0. -1.
         -5    1    3    3    0  502 -0.66051910898E+03  0.52747279288E+03  0.56982327888E+03  0.10194281238E+04  0.47000000000E+01 0.  1.
         11    1    5    5    0    0  0.62713630540E+03 -0.30625202157E+03  0.27677529557E+03  0.75079611780E+03  0.00000000000E+00 0. -1.
        -11    1    5    5    0    0  0.68934419309E+02 -0.13749436755E+02  0.49589043495E+01  0.70466956149E+02  0.00000000000E+00 0.  1.
          3    1    6    6  503    0  0.26735837519E+03 -0.37865739282E+03 -0.69249403747E+02  0.46867622283E+03  0.00000000000E+00 0. -1.
         -3    1    6    6    0  503  0.96300960404E+02 -0.16279578645E+03 -0.84633696185E+02  0.20721777335E+03  0.00000000000E+00 0.  1.
<mgrwt>
<rscale>  0 0.13933527E+04</rscale>
<asrwt>0</asrwt>
<pdfrwt beam="1">  1        2 0.31299815E+00 0.13933527E+04</pdfrwt>
<pdfrwt beam="2">  1       -2 0.16429996E+00 0.13933527E+04</pdfrwt>
<totfact> 0.14261380E+00</totfact>
</mgrwt>
</event>
<event>
12    1  0.3203156E-008  0.8866150E+03  0.7818608E-02  0.9442470E-01
         -2   -1    0    0    0  501 -0.00000000000E+00  0.00000000000E+00  0.35315175340E+03  0.35315175340E+03  0.00000000000E+00 0.  1.
          2   -1    0    0  501    0  0.00000000000E+00 -0.00000000000E+00 -0.30045525572E+04  0.30045525572E+04  0.00000000000E+00 0. -1.
         23    2    1    2    0    0 -0.64899236937E+03 -0.55333405552E+03 -0.57059068993E+03  0.10302477654E+04  0.92016575108E+02 0.  0.
    5000000    2    1    2    0    0  0.64899236937E+03  0.55333405552E+03 -0.20808101139E+04  0.23274565452E+04  0.59992796856E+03 0.  0.
         23    2    4    4    0    0  0.15901338949E+03  0.35293909393E+03 -0.14209123839E+04  0.14755495587E+04  0.91669162289E+02 0.  0.
         23    2    4    4    0    0  0.48997897988E+03  0.20039496159E+03 -0.65989772994E+03  0.85190698653E+03  0.10021456163E+03 0.  0.
          5    1    3    3  502    0 -0.58126107521E+03 -0.51255815585E+03 -0.54339917344E+03  0.94651204555E+03  0.47000000000E+01 0. -1.
         -5    1    3    3    0  502 -0.67731294163E+02 -0.40775899672E+02 -0.27191516495E+02  0.83735719812E+02  0.47000000000E+01 0.  1.
         11    1    5    5    0    0  0.14325564682E+03  0.28272287827E+03 -0.10158845734E+04  0.10641784966E+04  0.00000000000E+00 0. -1.
        -11    1    5    5    0    0  0.15757742667E+02  0.70216215659E+02 -0.40502781056E+03  0.41137106208E+03  0.00000000000E+00 0.  1.
          4    1    6    6  503    0  0.33497394092E+03  0.15117191093E+03 -0.52366432657E+03  0.63975371407E+03  0.00000000000E+00 0. -1.
         -4    1    6    6    0  503  0.15500503897E+03  0.49223050661E+02 -0.13623340337E+03  0.21215327246E+03  0.00000000000E+00 0.  1.
<mgrwt>
<rscale>  0 0.88661500E+03</rscale>
<asrwt>0</asrwt>
<pdfrwt beam="1">  1        2 0.46223886E+00 0.88661500E+03</pdfrwt>
<pdfrwt beam="2">  1       -2 0.54331038E-01 0.88661500E+03</pdfrwt>
<totfact> 0.57401470E+00</totfact>
</mgrwt>
</event>
<event>
12    1  0.3203156E-008  0.9561578E+03  0.7818608E-02  0.9357982E-01
          1   -1    0    0  501    0  0.00000000000E+00  0.00000000000E+00  0.21872779552E+04  0.21872779552E+04  0.00000000000E+00 0. -1.
         -1   -1    0    0    0  501 -0.00000000000E+00 -0.00000000000E+00 -0.12954118642E+04  0.12954118642E+04  0.00000000000E+00 0.  1.
         23    2    1    2    0    0 -0.59614751159E+03  0.65910716145E+03 -0.97956680814E+03  0.13257409350E+04  0.90685111191E+02 0.  0.
    5000000    2    1    2    0    0  0.59614751159E+03 -0.65910716145E+03  0.18714328991E+04  0.21569488843E+04  0.60029433416E+03 0.  0.
         23    2    4    4    0    0  0.21161290302E+03 -0.57975142889E+03  0.14245001462E+04  0.15551184647E+04  0.91110002797E+02 0.  0.
         23    2    4    4    0    0  0.38453460857E+03 -0.79355732552E+02  0.44693275293E+03  0.60183041962E+03  0.91031702447E+02 0.  0.
          5    1    3    3  502    0 -0.27050059849E+03  0.23323301500E+03 -0.39236765384E+03  0.53060595440E+03  0.47000000000E+01 0. -1.
         -5    1    3    3    0  502 -0.32564691310E+03  0.42587414645E+03 -0.58719915429E+03  0.79513498063E+03  0.47000000000E+01 0.  1.
         13    1    5    5    0    0  0.22007060018E+03 -0.56645436614E+03  0.13789386066E+04  0.15069085237E+04  0.00000000000E+00 0. -1.
        -13    1    5    5    0    0 -0.84576971621E+01 -0.13297062749E+02  0.45561539588E+02  0.48209940973E+02  0.00000000000E+00 0.  1.
          1    1    6    6  503    0  0.10529072471E+03 -0.43759511859E+02  0.79695267120E+02  0.13911278586E+03  0.00000000000E+00 0. -1.
         -1    1    6    6    0  503  0.27924388386E+03 -0.35596220693E+02  0.36723748581E+03  0.46271763376E+03  0.00000000000E+00 0.  1.
<mgrwt>
<rscale>  0 0.95615781E+03</rscale>
<asrwt>0</asrwt>
<pdfrwt beam="1">  1        1 0.33650430E+00 0.95615781E+03</pdfrwt>
<pdfrwt beam="2">  1       -1 0.19929413E+00 0.95615781E+03</pdfrwt>
<totfact> 0.34623601E-01</totfact>
</mgrwt>
</event>
<event>
12    1  0.3203156E-008  0.5815161E+03  0.7818608E-02  0.9944514E-01
          2   -1    0    0  501    0  0.00000000000E+00  0.00000000000E+00  0.31309308102E+04  0.31309308102E+04  0.00000000000E+00 0. -1.
         -2   -1    0    0    0  501 -0.00000000000E+00 -0.00000000000E+00 -0.16244138781E+03  0.16244138781E+03  0.00000000000E+00 0.  1.
         23    2    1    2    0    0  0.16477999728E+03 -0.43153870176E+03  0.40791915738E+03  0.62319120822E+03  0.92688426580E+02 0.  0.
    5000000    2    1    2    0    0 -0.16477999728E+03  0.43153870176E+03  0.25605702650E+04  0.26701809898E+04  0.59997361407E+03 0.  0.
         23    2    4    4    0    0 -0.10498794752E+03 -0.10563752588E+03  0.10230091018E+04  0.10378686201E+04  0.91879781304E+02 0.  0.
         23    2    4    4    0    0 -0.59792049757E+02  0.53717622765E+03  0.15375611632E+04  0.16323123697E+04  0.90641893707E+02 0.  0.
          5    1    3    3  502    0  0.58125164658E+02 -0.23761380406E+03  0.25961288654E+03  0.35673490929E+03  0.47000000000E+01 0. -1.
         -5    1    3    3    0  502  0.10665483262E+03 -0.19392489770E+03  0.14830627084E+03  0.26645629893E+03  0.47000000000E+01 0.  1.
         11    1    5    5    0    0 -0.31025873376E+02 -0.27494670868E+02  0.95106818364E+02  0.10374906575E+03  0.00000000000E+00 0. -1.
        -11    1    5    5    0    0 -0.73962074146E+02 -0.78142855015E+02  0.92790228344E+03  0.93411955434E+03  0.00000000000E+00 0.  1.
          3    1    6    6  503    0 -0.78853014564E+02  0.30633862844E+03  0.90248767455E+03  0.95631854311E+03  0.00000000000E+00 0. -1.
         -3    1    6    6    0  503  0.19060964808E+02  0.23083759921E+03  0.63507348862E+03  0.67599382655E+03  0.00000000000E+00 0.  1.
<mgrwt>
<rscale>  0 0.58151608E+03</rscale>
<asrwt>0</asrwt>
<pdfrwt beam="1">  1        2 0.48168162E+00 0.58151608E+03</pdfrwt>
<pdfrwt beam="2">  1       -2 0.24990985E-01 0.58151608E+03</pdfrwt>
<totfact> 0.22628298E+01</totfact>
</mgrwt>
</event>
<event>
12    1  0.3203156E-008  0.4840011E+03  0.7818608E-02  0.1018041E+00
          2   -1    0    0  501    0  0.00000000000E+00  0.00000000000E+00  0.10357944636E+04  0.10357944636E+04  0.00000000000E+00 0. -1.
         -2   -1    0    0    0  501 -0.00000000000E+00 -0.00000000000E+00 -0.46539315429E+03  0.46539315429E+03  0.00000000000E+00 0.  1.
         23    2    1    2    0    0 -0.25152692280E+03  0.17517200141E+03  0.74034721457E+03  0.80627833026E+03  0.89552915900E+02 0.  0.
    5000000    2    1    2    0    0  0.25152692280E+03 -0.17517200141E+03 -0.16994590531E+03  0.69490928758E+03  0.60005523435E+03 0.  0.
         23    2    4    4    0    0  0.10415497116E+03  0.20746256629E+03 -0.10623412261E+03  0.27146173631E+03  0.92286570204E+02 0.  0.
         23    2    4    4    0    0  0.14737195164E+03 -0.38263456770E+03 -0.63711782691E+02  0.42344755128E+03  0.84385620212E+02 0.  0.
          5    1    3    3  502    0 -0.16797056709E+03  0.16270168530E+03  0.51728290403E+03  0.56770559501E+03  0.47000000000E+01 0. -1.
         -5    1    3    3    0  502 -0.83556355715E+02  0.12470316105E+02  0.22306431054E+03  0.23857273525E+03  0.47000000000E+01 0.  1.
         11    1    5    5    0    0  0.25763453758E+02  0.11585076971E+03 -0.91771785758E+02  0.15002405492E+03  0.00000000000E+00 0.  1.
        -11    1    5    5    0    0  0.78391517407E+02  0.91611796580E+02 -0.14462336857E+02  0.12143768139E+03  0.00000000000E+00 0. -1.
          2    1    6    6  503    0  0.11729825224E+03 -0.28919264951E+03 -0.84059757869E+02  0.32319856343E+03  0.00000000000E+00 0. -1.
         -2    1    6    6    0  503  0.30073699401E+02 -0.93441918186E+02  0.20347975178E+02  0.10024898784E+03  0.00000000000E+00 0.  1.
<mgrwt>
<rscale>  0 0.48400110E+03</rscale>
<asrwt>0</asrwt>
<pdfrwt beam="1">  1        2 0.15935299E+00 0.48400110E+03</pdfrwt>
<pdfrwt beam="2">  1       -2 0.71598947E-01 0.48400110E+03</pdfrwt>
<totfact> 0.44264021E+01</totfact>
</mgrwt>
</event>
<event>
12    1  0.3203156E-008  0.3349493E+03  0.7818608E-02  0.1068968E+00
         -2   -1    0    0    0  501 -0.00000000000E+00  0.00000000000E+00  0.23063455866E+03  0.23063455866E+03  0.00000000000E+00 0.  1.
          2   -1    0    0  501    0  0.00000000000E+00 -0.00000000000E+00 -0.98186524011E+03  0.98186524011E+03  0.00000000000E+00 0. -1.
         23    2    1    2    0    0 -0.76341945075E+02 -0.42600239699E+02  0.10378123290E+03  0.16432312145E+03  0.92675082627E+02 0.  0.
    5000000    2    1    2    0    0  0.76341945075E+02  0.42600239699E+02 -0.85501191434E+03  0.10481766773E+04  0.59998841675E+03 0.  0.
         23    2    4    4    0    0  0.20351283716E+03  0.22851881944E+03 -0.66918707371E+03  0.74157851648E+03  0.92135936284E+02 0.  0.
         23    2    4    4    0    0 -0.12717089208E+03 -0.18591857974E+03 -0.18582484063E+03  0.30659816085E+03  0.93452697951E+02 0.  0.
          5    1    3    3  502    0  0.24417116711E+01  0.22385828383E+02  0.83609851261E+01  0.24476179043E+02  0.47000000000E+01 0. -1.
         -5    1    3    3    0  502 -0.78783656746E+02 -0.64986068081E+02  0.95420247769E+02  0.13984694240E+03  0.47000000000E+01 0.  1.
         13    1    5    5    0    0  0.91762909141E+02  0.11441415060E+03 -0.21613905990E+03  0.26120322082E+03  0.00000000000E+00 0. -1.
        -13    1    5    5    0    0  0.11174992802E+03  0.11410466884E+03 -0.45304801381E+03  0.48037529566E+03  0.00000000000E+00 0.  1.
          1    1    6    6  503    0 -0.54063699058E+02 -0.14443961460E+03 -0.87787867368E+02  0.17746096889E+03  0.00000000000E+00 0.  1.
         -1    1    6    6    0  503 -0.73107193024E+02 -0.41478965143E+02 -0.98036973260E+02  0.12913719196E+03  0.00000000000E+00 0. -1.
<mgrwt>
<rscale>  0 0.33494930E+03</rscale>
<asrwt>0</asrwt>
<pdfrwt beam="1">  1        2 0.15105619E+00 0.33494930E+03</pdfrwt>
<pdfrwt beam="2">  1       -2 0.35482240E-01 0.33494930E+03</pdfrwt>
<totfact> 0.20194543E+02</totfact>
</mgrwt>
</event>
<event>
12    1  0.3203156E-008  0.4329198E+03  0.7818608E-02  0.1032942E+00
         -2   -1    0    0    0  501 -0.00000000000E+00  0.00000000000E+00  0.16162497701E+03  0.16162497701E+03  0.00000000000E+00 0. -1.
          2   -1    0    0  501    0  0.00000000000E+00 -0.00000000000E+00 -0.16965512888E+04  0.16965512888E+04  0.00000000000E+00 0.  1.
         23    2    1    2    0    0 -0.25749004651E+03 -0.20531826990E+03 -0.34499376643E+03  0.48544214037E+03  0.90424868066E+02 0.  0.
    5000000    2    1    2    0    0  0.25749004651E+03  0.20531826990E+03 -0.11899325453E+04  0.13727341254E+04  0.60000233386E+03 0.  0.
         23    2    4    4    0    0 -0.84776428844E+02 -0.10114437725E+02 -0.77809776704E+03  0.78846902174E+03  0.94646280673E+02 0.  0.
         23    2    4    4    0    0  0.34226647535E+03  0.21543270762E+03 -0.41183477829E+03  0.58426510367E+03  0.90555149453E+02 0.  0.
          5    1    3    3  502    0 -0.23270005488E+03 -0.16493492486E+03 -0.25054160699E+03  0.37966568427E+03  0.47000000000E+01 0. -1.
         -5    1    3    3    0  502 -0.24789991625E+02 -0.40383345042E+02 -0.94452159439E+02  0.10577645610E+03  0.47000000000E+01 0.  1.
         13    1    5    5    0    0 -0.55046809143E+02 -0.52214521794E+02 -0.45201069521E+03  0.45833413146E+03  0.00000000000E+00 0. -1.
        -13    1    5    5    0    0 -0.29729619701E+02  0.42100084070E+02 -0.32608707183E+03  0.33013489028E+03  0.00000000000E+00 0.  1.
          3    1    6    6  503    0  0.19010273949E+03  0.13727623639E+03 -0.17728560366E+03  0.29396258589E+03  0.00000000000E+00 0.  1.
         -3    1    6    6    0  503  0.15216373586E+03  0.78156471230E+02 -0.23454917464E+03  0.29030251778E+03  0.00000000000E+00 0. -1.
<mgrwt>
<rscale>  0 0.43291983E+03</rscale>
<asrwt>0</asrwt>
<pdfrwt beam="1">  1        2 0.26100788E+00 0.43291983E+03</pdfrwt>
<pdfrwt beam="2">  1       -2 0.24865382E-01 0.43291983E+03</pdfrwt>
<totfact> 0.15067013E+02</totfact>
</mgrwt>
</event>
<event>
12    1  0.3203156E-008  0.8706348E+03  0.7818608E-02  0.9463053E-01
          2   -1    0    0  501    0  0.00000000000E+00  0.00000000000E+00  0.49926247396E+03  0.49926247396E+03  0.00000000000E+00 0. -1.
         -2   -1    0    0    0  501 -0.00000000000E+00 -0.00000000000E+00 -0.16472294019E+04  0.16472294019E+04  0.00000000000E+00 0.  1.
         23    2    1    2    0    0  0.63070823309E+03 -0.45002858120E+03 -0.25347962370E+03  0.82015007839E+03  0.89864521710E+02 0.  0.
    5000000    2    1    2    0    0 -0.63070823309E+03  0.45002858120E+03 -0.89448730426E+03  0.13263417975E+04  0.59896279277E+03 0.  0.
         23    2    4    4    0    0 -0.37718523381E+03 -0.65039938707E+02 -0.43936916026E+03  0.58838586495E+03  0.81570661760E+02 0.  0.
         23    2    4    4    0    0 -0.25352299928E+03  0.51506851991E+03 -0.45511814401E+03  0.73795593255E+03  0.88752138106E+02 0.  0.
          5    1    3    3  502    0  0.47483313627E+03 -0.30523686228E+03 -0.21410796809E+03  0.60373865322E+03  0.47000000000E+01 0. -1.
         -5    1    3    3    0  502  0.15587509682E+03 -0.14479171892E+03 -0.39371655615E+02  0.21641142516E+03  0.47000000000E+01 0.  1.
         13    1    5    5    0    0 -0.24726256350E+03 -0.89673071314E+01 -0.31019556495E+03  0.39678769692E+03  0.00000000000E+00 0. -1.
        -13    1    5    5    0    0 -0.12992267030E+03 -0.56072631576E+02 -0.12917359531E+03  0.19159816803E+03  0.00000000000E+00 0.  1.
          1    1    6    6  503    0 -0.12185173498E+03  0.21042879844E+03 -0.24482635286E+03  0.34506241114E+03  0.00000000000E+00 0. -1.
         -1    1    6    6    0  503 -0.13167126431E+03  0.30463972147E+03 -0.21029179114E+03  0.39289352141E+03  0.00000000000E+00 0.  1.
<mgrwt>
<rscale>  0 0.87063484E+03</rscale>
<asrwt>0</asrwt>
<pdfrwt beam="1">  1        2 0.76809611E-01 0.87063484E+03</pdfrwt>
<pdfrwt beam="2">  1       -2 0.25341991E+00 0.87063484E+03</pdfrwt>
<totfact> 0.38314216E+00</totfact>
</mgrwt>
</event>
<event>
12    1  0.3203156E-008  0.5224622E+03  0.7818608E-02  0.1008077E+00
          2   -1    0    0  501    0  0.00000000000E+00  0.00000000000E+00  0.14211485405E+04  0.14211485405E+04  0.00000000000E+00 0.  1.
         -2   -1    0    0    0  501 -0.00000000000E+00 -0.00000000000E+00 -0.23629668327E+03  0.23629668327E+03  0.00000000000E+00 0. -1.
         23    2    1    2    0    0  0.34078271453E+03 -0.23889286028E+03  0.50586597571E+03  0.66107755968E+03  0.88997175932E+02 0.  0.
    5000000    2    1    2    0    0 -0.34078271453E+03  0.23889286028E+03  0.67898588153E+03  0.99636766410E+03  0.59876876800E+03 0.  0.
         23    2    4    4    0    0 -0.41088715702E+03  0.29971057001E+03  0.30465638726E+03  0.59985809212E+03  0.91430491695E+02 0.  0.
         23    2    4    4    0    0  0.70104442489E+02 -0.60817709726E+02  0.37432949427E+03  0.39650957198E+03  0.92107783143E+02 0.  0.
          5    1    3    3  502    0  0.18039331572E+03 -0.14677592308E+03  0.34390454294E+03  0.41518350715E+03  0.47000000000E+01 0. -1.
         -5    1    3    3    0  502  0.16038939880E+03 -0.92116937198E+02  0.16196143277E+03  0.24589405254E+03  0.47000000000E+01 0.  1.
         11    1    5    5    0    0 -0.30619090506E+03  0.21227706194E+03  0.26694233492E+03  0.45833681015E+03  0.00000000000E+00 0.  1.
        -11    1    5    5    0    0 -0.10469625196E+03  0.87433508072E+02  0.37714052341E+02  0.14152128197E+03  0.00000000000E+00 0. -1.
          2    1    6    6  503    0  0.11231311730E+02 -0.58315653902E+02  0.10335477191E+03  0.11920178996E+03  0.00000000000E+00 0. -1.
         -2    1    6    6    0  503  0.58873130758E+02 -0.25020558241E+01  0.27097472236E+03  0.27730778201E+03  0.00000000000E+00 0.  1.
<mgrwt>
<rscale>  0 0.52246216E+03</rscale>
<asrwt>0</asrwt>
<pdfrwt beam="1">  1        2 0.21863823E+00 0.52246216E+03</pdfrwt>
<pdfrwt beam="2">  1       -2 0.36353337E-01 0.52246216E+03</pdfrwt>
<totfact> 0.10439757E+02</totfact>
</mgrwt>
</event>
<event>
12    1  0.3203156E-008  0.6730239E+03  0.7818608E-02  0.9764511E-01
          2   -1    0    0  501    0  0.00000000000E+00  0.00000000000E+00  0.22248638813E+04  0.22248638813E+04  0.00000000000E+00 0. -1.
         -2   -1    0    0    0  501 -0.00000000000E+00 -0.00000000000E+00 -0.50027271281E+03  0.50027271281E+03  0.00000000000E+00 0.  1.
         23    2    1    2    0    0 -0.52115741435E+03  0.14646113052E+03  0.18289723801E+04  0.19096179742E+04  0.91896283085E+02 0.  0.
    5000000    2    1    2    0    0  0.52115741435E+03 -0.14646113052E+03 -0.10438121159E+03  0.81551861996E+03  0.60093200022E+03 0.  0.
         23    2    4    4    0    0 -0.32511784744E+01  0.16512648740E+03  0.61916002119E+01  0.18895109180E+03  0.91579758544E+02 0.  0.
         23    2    4    4    0    0  0.52440859283E+03 -0.31158761792E+03 -0.11057281180E+03  0.62656752817E+03  0.90935717819E+02 0.  0.
          5    1    3    3  502    0 -0.45847632131E+03  0.98918452998E+02  0.15180293482E+04  0.15888425314E+04  0.47000000000E+01 0.  1.
         -5    1    3    3    0  502 -0.62681093045E+02  0.47542677518E+02  0.31094303191E+03  0.32077544280E+03  0.47000000000E+01 0.  1.
         13    1    5    5    0    0 -0.69105292516E+01 -0.10141169245E+02 -0.50833327467E+01  0.13283034292E+02  0.00000000000E+00 0. -1.
        -13    1    5    5    0    0  0.36593507772E+01  0.17526765665E+03  0.11274932959E+02  0.17566805750E+03  0.00000000000E+00 0.  1.
          1    1    6    6  503    0  0.15923789984E+03 -0.10944325851E+03  0.56403672865E+01  0.19330377472E+03  0.00000000000E+00 0. -1.
         -1    1    6    6    0  503  0.36517069299E+03 -0.20214435941E+03 -0.11621317909E+03  0.43326375345E+03  0.00000000000E+00 0.  1.
<mgrwt>
<rscale>  0 0.67302386E+03</rscale>
<asrwt>0</asrwt>
<pdfrwt beam="1">  1        2 0.34228675E+00 0.67302386E+03</pdfrwt>
<pdfrwt beam="2">  1       -2 0.76965034E-01 0.67302386E+03</pdfrwt>
<totfact> 0.79546380E+00</totfact>
</mgrwt>
</event>
<event>
12    1  0.3203156E-008  0.1442805E+04  0.7818608E-02  0.8923404E-01
          2   -1    0    0  501    0  0.00000000000E+00  0.00000000000E+00  0.22725530002E+04  0.22725530002E+04  0.00000000000E+00 0. -1.
         -2   -1    0    0    0  501 -0.00000000000E+00 -0.00000000000E+00 -0.13575037153E+04  0.13575037153E+04  0.00000000000E+00 0.  1.
         23    2    1    2    0    0 -0.23454691673E+03 -0.13966261273E+04  0.14234773107E+04  0.20099715270E+04  0.90117087632E+02 0.  0.
    5000000    2    1    2    0    0  0.23454691673E+03  0.13966261273E+04 -0.50842802581E+03  0.16200851885E+04  0.60049992909E+03 0.  0.
         23    2    4    4    0    0  0.32683944803E+03  0.91152123364E+03 -0.10905660274E+03  0.97865212503E+03  0.90397207094E+02 0.  0.
         23    2    4    4    0    0 -0.92292531298E+02  0.48510489371E+03 -0.39937142308E+03  0.64143306348E+03  0.89967617078E+02 0.  0.
          5    1    3    3  502    0 -0.15537839451E+03 -0.11370088032E+04  0.11523499524E+04  0.16263037745E+04  0.47000000000E+01 0. -1.
         -5    1    3    3    0  502 -0.79168522222E+02 -0.25961732414E+03  0.27112735827E+03  0.38366775250E+03  0.47000000000E+01 0.  1.
         13    1    5    5    0    0  0.21050044378E+03  0.59751825591E+03 -0.28062362616E+02  0.63413405458E+03  0.00000000000E+00 0. -1.
        -13    1    5    5    0    0  0.11633900425E+03  0.31400297773E+03 -0.80994240121E+02  0.34451807045E+03  0.00000000000E+00 0.  1.
          1    1    6    6  503    0 -0.53921438544E+02  0.12619579076E+03 -0.14636457144E+03  0.20063770063E+03  0.00000000000E+00 0. -1.
         -1    1    6    6    0  503 -0.38371092754E+02  0.35890910295E+03 -0.25300685164E+03  0.44079536285E+03  0.00000000000E+00 0.  1.
<mgrwt>
<rscale>  0 0.14428045E+04</rscale>
<asrwt>0</asrwt>
<pdfrwt beam="1">  1        2 0.34962354E+00 0.14428045E+04</pdfrwt>
<pdfrwt beam="2">  1       -2 0.20884673E+00 0.14428045E+04</pdfrwt>
<totfact> 0.51705335E-01</totfact>
</mgrwt>
</event>
<event>
12    1  0.3203156E-008  0.1031780E+04  0.7818608E-02  0.9274360E-01
         -2   -1    0    0    0  501 -0.00000000000E+00  0.00000000000E+00  0.61463669535E+03  0.61463669535E+03  0.00000000000E+00 0.  1.
          2   -1    0    0  501    0  0.00000000000E+00 -0.00000000000E+00 -0.20115801970E+04  0.20115801970E+04  0.00000000000E+00 0. -1.
         23    2    1    2    0    0 -0.81975832928E+03  0.57877343512E+03 -0.91776039248E+03  0.13627287851E+04  0.88109001221E+02 0.  0.
    5000000    2    1    2    0    0  0.81975832928E+03 -0.57877343512E+03 -0.47918310920E+03  0.12634881073E+04  0.59983609215E+03 0.  0.
         23    2    4    4    0    0  0.58488073365E+03 -0.56526944099E+03 -0.56763943282E+03  0.99651945116E+03  0.96028523566E+02 0.  0.
         23    2    4    4    0    0  0.23487759563E+03 -0.13503994138E+02  0.88456323625E+02  0.26696865611E+03  0.89988329072E+02 0.  0.
          5    1    3    3  502    0 -0.63004523303E+03  0.42138325867E+03 -0.64736194172E+03  0.99680510629E+03  0.47000000000E+01 0. -1.
         -5    1    3    3    0  502 -0.18971309625E+03  0.15739017645E+03 -0.27039845077E+03  0.36592367881E+03  0.47000000000E+01 0.  1.
         13    1    5    5    0    0  0.20375243884E+03 -0.18726311090E+03 -0.24905616187E+03  0.37230565508E+03  0.00000000000E+00 0. -1.
        -13    1    5    5    0    0  0.38112829481E+03 -0.37800633009E+03 -0.31858327096E+03  0.62421379609E+03  0.00000000000E+00 0.  1.
          1    1    6    6  503    0  0.36264683856E+02  0.23849183379E+02  0.40271246764E+02  0.59208818254E+02  0.00000000000E+00 0. -1.
         -1    1    6    6    0  503  0.19861291177E+03 -0.37353177517E+02  0.48185076861E+02  0.20775983786E+03  0.00000000000E+00 0.  1.
<mgrwt>
<rscale>  0 0.10317800E+04</rscale>
<asrwt>0</asrwt>
<pdfrwt beam="1">  1        2 0.30947388E+00 0.10317800E+04</pdfrwt>
<pdfrwt beam="2">  1       -2 0.94559491E-01 0.10317800E+04</pdfrwt>
<totfact> 0.61858691E+00</totfact>
</mgrwt>
</event>
<event>
12    1  0.3203156E-008  0.8172394E+03  0.7818608E-02  0.9535394E-01
         -2   -1    0    0    0  501 -0.00000000000E+00  0.00000000000E+00  0.91735929193E+03  0.91735929193E+03  0.00000000000E+00 0.  1.
          2   -1    0    0  501    0  0.00000000000E+00 -0.00000000000E+00 -0.96415236803E+03  0.96415236803E+03  0.00000000000E+00 0. -1.
         23    2    1    2    0    0 -0.74643530272E+03 -0.15584715605E+03  0.33636039400E+03  0.83826295131E+03  0.89958121899E+02 0.  0.
    5000000    2    1    2    0    0  0.74643530272E+03  0.15584715605E+03 -0.38315347010E+03  0.10432487086E+04  0.60008940105E+03 0.  0.
         23    2    4    4    0    0  0.14123584963E+03 -0.12511188138E+03 -0.29982501544E+03  0.36554586906E+03  0.90156499607E+02 0.  0.
         23    2    4    4    0    0  0.60519945310E+03  0.28095903743E+03 -0.83328454655E+02  0.67770283958E+03  0.84457969935E+02 0.  0.
          5    1    3    3  502    0 -0.36370582984E+03 -0.84921472461E+02  0.11687843212E+03  0.39137736909E+03  0.47000000000E+01 0. -1.
         -5    1    3    3    0  502 -0.38272947288E+03 -0.70925683584E+02  0.21948196188E+03  0.44688558222E+03  0.47000000000E+01 0.  1.
         13    1    5    5    0    0  0.16091922071E+02 -0.58001145330E+02 -0.50292728135E+02  0.78437499442E+02  0.00000000000E+00 0.  1.
        -13    1    5    5    0    0  0.12514392756E+03 -0.67110736054E+02 -0.24953228731E+03  0.28710836962E+03  0.00000000000E+00 0. -1.
          4    1    6    6  503    0  0.56859417171E+03  0.24833899662E+03 -0.93953856105E+02  0.62753399623E+03  0.00000000000E+00 0. -1.
         -4    1    6    6    0  503  0.36605281387E+02  0.32620040811E+02  0.10625401451E+02  0.50168843358E+02  0.00000000000E+00 0.  1.
<mgrwt>
<rscale>  0 0.81723937E+03</rscale>
<asrwt>0</asrwt>
<pdfrwt beam="1">  1        2 0.14833113E+00 0.81723937E+03</pdfrwt>
<pdfrwt beam="2">  1       -2 0.14113220E+00 0.81723937E+03</pdfrwt>
<totfact> 0.94364999E+00</totfact>
</mgrwt>
</event>
<event>
12    1  0.3203156E-008  0.3977687E+03  0.7818608E-02  0.1044555E+00
         -1   -1    0    0    0  501 -0.00000000000E+00  0.00000000000E+00  0.40657018630E+03  0.40657018630E+03  0.00000000000E+00 0.  1.
          1   -1    0    0  501    0  0.00000000000E+00 -0.00000000000E+00 -0.66092618431E+03  0.66092618431E+03  0.00000000000E+00 0. -1.
         23    2    1    2    0    0 -0.23243511716E+03  0.13130118974E+03  0.12521341394E+03  0.30907739119E+03  0.92651759821E+02 0.  0.
    5000000    2    1    2    0    0  0.23243511716E+03 -0.13130118974E+03 -0.37956941195E+03  0.75841897943E+03  0.59988359184E+03 0.  0.
         23    2    4    4    0    0  0.32252785421E+03 -0.18549777495E+03 -0.33183777492E+02  0.38469194557E+03  0.91940680057E+02 0.  0.
         23    2    4    4    0    0 -0.90092737049E+02  0.54196585210E+02 -0.34638563446E+03  0.37372703386E+03  0.92924253877E+02 0.  0.
          5    1    3    3  502    0 -0.11725727443E+03  0.14313837394E+02  0.56843927678E+02  0.13117727113E+03  0.47000000000E+01 0. -1.
         -5    1    3    3    0  502 -0.11517784273E+03  0.11698735234E+03  0.68369486264E+02  0.17790012005E+03  0.47000000000E+01 0.  1.
         11    1    5    5    0    0  0.20177667746E+03 -0.65553116234E+02 -0.31508988976E+02  0.21448509272E+03  0.00000000000E+00 0.  1.
        -11    1    5    5    0    0  0.12075117675E+03 -0.11994465871E+03 -0.16747885164E+01  0.17020685285E+03  0.00000000000E+00 0. -1.
          1    1    6    6  503    0 -0.14089902756E+02  0.52861626072E+02 -0.21581821869E+03  0.22264406659E+03  0.00000000000E+00 0.  1.
         -1    1    6    6    0  503 -0.76002834294E+02  0.13349591380E+01 -0.13056741577E+03  0.15108296726E+03  0.00000000000E+00 0. -1.
<mgrwt>
<rscale>  0 0.39776871E+03</rscale>
<asrwt>0</asrwt>
<pdfrwt beam="1">  1        1 0.10168095E+00 0.39776871E+03</pdfrwt>
<pdfrwt beam="2">  1       -1 0.62549260E-01 0.39776871E+03</pdfrwt>
<totfact> 0.81475451E+01</totfact>
</mgrwt>
</event>
<event>
12    1  0.3203156E-008  0.4980742E+03  0.7818608E-02  0.1014283E+00
          2   -1    0    0  501    0  0.00000000000E+00  0.00000000000E+00  0.19319839157E+04  0.19319839157E+04  0.00000000000E+00 0. -1.
         -2   -1    0    0    0  501 -0.00000000000E+00 -0.00000000000E+00 -0.17304298151E+03  0.17304298151E+03  0.00000000000E+00 0.  1.
         23    2    1    2    0    0  0.74470625344E+01  0.33836831579E+03  0.20166159080E+03  0.40200984280E+03  0.79974624951E+02 0.  0.
    5000000    2    1    2    0    0 -0.74470625344E+01 -0.33836831579E+03  0.15572793434E+04  0.17030170544E+04  0.60049942412E+03 0.  0.
         23    2    4    4    0    0 -0.22978921838E+03  0.14264632614E+02  0.39560261522E+03  0.46550953490E+03  0.84800550055E+02 0.  0.
         23    2    4    4    0    0  0.22234215585E+03 -0.35263294840E+03  0.11616767282E+04  0.12375075195E+04  0.90255246256E+02 0.  0.
          5    1    3    3  502    0  0.29065628319E+02  0.26542256331E+03  0.12851684980E+03  0.29636568382E+03  0.47000000000E+01 0. -1.
         -5    1    3    3    0  502 -0.21618565785E+02  0.72945752482E+02  0.73144741001E+02  0.10564415899E+03  0.47000000000E+01 0.  1.
         11    1    5    5    0    0 -0.11465486156E+03  0.13204383511E+02  0.27762488455E+03  0.30065872604E+03  0.00000000000E+00 0. -1.
        -11    1    5    5    0    0 -0.11513435682E+03  0.10602491030E+01  0.11797773067E+03  0.16485080886E+03  0.00000000000E+00 0.  1.
          3    1    6    6  503    0  0.16061843082E+03 -0.30367781123E+03  0.10058499907E+04  0.10628982534E+04  0.00000000000E+00 0. -1.
         -3    1    6    6    0  503  0.61723725033E+02 -0.48955137177E+02  0.15582673751E+03  0.17460926611E+03  0.00000000000E+00 0.  1.
<mgrwt>
<rscale>  0 0.49807425E+03</rscale>
<asrwt>0</asrwt>
<pdfrwt beam="1">  1        2 0.29722828E+00 0.49807425E+03</pdfrwt>
<pdfrwt beam="2">  1       -2 0.26621998E-01 0.49807425E+03</pdfrwt>
<totfact> 0.98632272E+01</totfact>
</mgrwt>
</event>
<event>
12    1  0.3203156E-008  0.4898553E+03  0.7818608E-02  0.1016461E+00
          2   -1    0    0  501    0  0.00000000000E+00  0.00000000000E+00  0.18183802463E+03  0.18183802463E+03  0.00000000000E+00 0. -1.
         -2   -1    0    0    0  501 -0.00000000000E+00 -0.00000000000E+00 -0.15127851638E+04  0.15127851638E+04  0.00000000000E+00 0.  1.
         23    2    1    2    0    0 -0.16388670241E+03  0.25457466783E+03 -0.18598492518E+03  0.36701110415E+03  0.91867542949E+02 0.  0.
    5000000    2    1    2    0    0  0.16388670241E+03 -0.25457466783E+03 -0.11449622140E+04  0.13276120843E+04  0.59995688356E+03 0.  0.
         23    2    4    4    0    0 -0.20504395098E+03 -0.17504489873E+03 -0.48293958996E+03  0.55997653757E+03  0.87517636328E+02 0.  0.
         23    2    4    4    0    0  0.36893065338E+03 -0.79529769101E+02 -0.66202262400E+03  0.76763554669E+03  0.92496306283E+02 0.  0.
          5    1    3    3  502    0 -0.74534575205E+02  0.18627655368E+03 -0.93855728101E+02  0.22155212716E+03  0.47000000000E+01 0. -1.
         -5    1    3    3    0  502 -0.89352127203E+02  0.68298114149E+02 -0.92129197079E+02  0.14545897699E+03  0.47000000000E+01 0.  1.
         11    1    5    5    0    0 -0.71024967219E+02 -0.11463250597E+03 -0.20158452413E+03  0.24253139542E+03  0.00000000000E+00 0. -1.
        -11    1    5    5    0    0 -0.13401898376E+03 -0.60412392761E+02 -0.28135506583E+03  0.31744514215E+03  0.00000000000E+00 0.  1.
          4    1    6    6  503    0  0.16678973001E+03  0.15671869044E+01 -0.34229790152E+03  0.38077437348E+03  0.00000000000E+00 0. -1.
         -4    1    6    6    0  503  0.20214092337E+03 -0.81096956006E+02 -0.31972472248E+03  0.38686117321E+03  0.00000000000E+00 0.  1.
<mgrwt>
<rscale>  0 0.48985532E+03</rscale>
<asrwt>0</asrwt>
<pdfrwt beam="1">  1        2 0.27975081E-01 0.48985532E+03</pdfrwt>
<pdfrwt beam="2">  1       -2 0.23273618E+00 0.48985532E+03</pdfrwt>
<totfact> 0.16652567E+01</totfact>
</mgrwt>
</event>
<event>
12    1  0.3203156E-008  0.3034694E+03  0.7818608E-02  0.1083519E+00
          2   -1    0    0  501    0  0.00000000000E+00  0.00000000000E+00  0.25056484340E+04  0.25056484340E+04  0.00000000000E+00 0. -1.
         -2   -1    0    0    0  501 -0.00000000000E+00 -0.00000000000E+00 -0.48383105670E+02  0.48383105670E+02  0.00000000000E+00 0.  1.
         23    2    1    2    0    0  0.25183785920E+02 -0.18082504898E+02  0.27231016209E+03  0.28790338556E+03  0.88172189413E+02 0.  0.
    5000000    2    1    2    0    0 -0.25183785920E+02  0.18082504898E+02  0.21849551663E+04  0.22661281541E+04  0.60028870746E+03 0.  0.
         23    2    4    4    0    0  0.64329647828E+02  0.24935812009E+03  0.59869728485E+03  0.65809027479E+03  0.91250179410E+02 0.  0.
         23    2    4    4    0    0 -0.89513433748E+02 -0.23127561519E+03  0.15862578814E+04  0.16080378794E+04  0.89837019316E+02 0.  0.
          5    1    3    3  502    0  0.44825141715E+02  0.87795690595E+00  0.24460756286E+03  0.24872678575E+03  0.47000000000E+01 0. -1.
         -5    1    3    3    0  502 -0.19641355795E+02 -0.18960461804E+02  0.27702599221E+02  0.39176599813E+02  0.47000000000E+01 0.  1.
         11    1    5    5    0    0 -0.18608536363E+02  0.14727080899E+02  0.65816301812E+02  0.69963920142E+02  0.00000000000E+00 0. -1.
        -11    1    5    5    0    0  0.82938184192E+02  0.23463103919E+03  0.53288098303E+03  0.58812635464E+03  0.00000000000E+00 0.  1.
          1    1    6    6  503    0 -0.88083391987E+02 -0.11295529728E+03  0.76433868991E+03  0.77764465922E+03  0.00000000000E+00 0. -1.
         -1    1    6    6    0  503 -0.14300417617E+01 -0.11832031791E+03  0.82191919152E+03  0.83039322013E+03  0.00000000000E+00 0.  1.
<mgrwt>
<rscale>  0 0.30346944E+03</rscale>
<asrwt>0</asrwt>
<pdfrwt beam="1">  1        2 0.38548427E+00 0.30346944E+03</pdfrwt>
<pdfrwt beam="2">  1       -2 0.74435567E-02 0.30346944E+03</pdfrwt>
<totfact> 0.41909724E+02</totfact>
</mgrwt>
</event>
<event>
12    1  0.3203156E-008  0.9543705E+03  0.7818608E-02  0.9360057E-01
          1   -1    0    0  501    0  0.00000000000E+00  0.00000000000E+00  0.17399166132E+04  0.17399166132E+04  0.00000000000E+00 0. -1.
         -1   -1    0    0    0  501 -0.00000000000E+00 -0.00000000000E+00 -0.56032716826E+03  0.56032716826E+03  0.00000000000E+00 0.  1.
         23    2    1    2    0    0  0.87931754336E+03  0.15865093470E+03  0.52254157344E+03  0.10392201254E+04  0.92516549517E+02 0.  0.
    5000000    2    1    2    0    0 -0.87931754336E+03 -0.15865093470E+03  0.65704787155E+03  0.12610236561E+04  0.60008273979E+03 0.  0.
         23    2    4    4    0    0 -0.19934881396E+03  0.15711138283E+03  0.17776730962E+02  0.27164743341E+03  0.95143994407E+02 0.  0.
         23    2    4    4    0    0 -0.67996872940E+03 -0.31576231753E+03  0.63927114059E+03  0.98937622269E+03  0.90190934683E+02 0.  0.
          5    1    3    3  502    0  0.56827409261E+03  0.86577253718E+02  0.28758253454E+03  0.64277279763E+03  0.47000000000E+01 0. -1.
         -5    1    3    3    0  502  0.31104345075E+03  0.72073680978E+02  0.23495903890E+03  0.39644732778E+03  0.47000000000E+01 0.  1.
         11    1    5    5    0    0 -0.16855278382E+03  0.15458620761E+03  0.41815790375E+02  0.23249838030E+03  0.00000000000E+00 0.  1.
        -11    1    5    5    0    0 -0.30796030137E+02  0.25251752271E+01 -0.24039059413E+02  0.39149053112E+02  0.00000000000E+00 0. -1.
          3    1    6    6  503    0 -0.13809632962E+03 -0.10527266865E+03  0.15539088685E+03  0.23302201341E+03  0.00000000000E+00 0. -1.
         -3    1    6    6    0  503 -0.54187239979E+03 -0.21048964888E+03  0.48388025374E+03  0.75635420928E+03  0.00000000000E+00 0.  1.
<mgrwt>
<rscale>  0 0.95437052E+03</rscale>
<asrwt>0</asrwt>
<pdfrwt beam="1">  1        1 0.26767948E+00 0.95437052E+03</pdfrwt>
<pdfrwt beam="2">  1       -1 0.86204180E-01 0.95437052E+03</pdfrwt>
<totfact> 0.60266090E+00</totfact>
</mgrwt>
</event>
<event>
12    1  0.3203156E-008  0.5269636E+03  0.7818608E-02  0.1006971E+00
         -1   -1    0    0    0  501 -0.00000000000E+00  0.00000000000E+00  0.19294017828E+03  0.19294017828E+03  0.00000000000E+00 0.  1.
          1   -1    0    0  501    0  0.00000000000E+00 -0.00000000000E+00 -0.20994785949E+04  0.20994785949E+04  0.00000000000E+00 0. -1.
         23    2    1    2    0    0 -0.67386264433E+02 -0.45853291600E+03 -0.10343827179E+04  0.11374178518E+04  0.94754518512E+02 0.  0.
    5000000    2    1    2    0    0  0.67386264433E+02  0.45853291600E+03 -0.87215569867E+03  0.11550009213E+04  0.59881401276E+03 0.  0.
         23    2    4    4    0    0  0.14862463997E+03  0.50709793132E+02 -0.65077471767E+03  0.67555777283E+03  0.90607971753E+02 0.  0.
         23    2    4    4    0    0 -0.81238375539E+02  0.40782312287E+03 -0.22138098100E+03  0.47944314850E+03  0.89088835954E+02 0.  0.
          5    1    3    3  502    0 -0.52532306545E+02 -0.21825681591E+03 -0.60202514996E+03  0.64253564267E+03  0.47000000000E+01 0. -1.
         -5    1    3    3    0  502 -0.14853957888E+02 -0.24027610010E+03 -0.43235756797E+03  0.49488220914E+03  0.47000000000E+01 0.  1.
         13    1    5    5    0    0  0.12544840169E+03  0.15447171328E+02 -0.35587791296E+03  0.37765725933E+03  0.00000000000E+00 0. -1.
        -13    1    5    5    0    0  0.23176238281E+02  0.35262621804E+02 -0.29489680471E+03  0.29790051350E+03  0.00000000000E+00 0.  1.
          1    1    6    6  503    0 -0.13672298538E+02  0.21971458563E+03 -0.15343454465E+03  0.26833484749E+03  0.00000000000E+00 0. -1.
         -1    1    6    6    0  503 -0.67566077001E+02  0.18810853725E+03 -0.67946436347E+02  0.21110830102E+03  0.00000000000E+00 0.  1.
<mgrwt>
<rscale>  0 0.52696357E+03</rscale>
<asrwt>0</asrwt>
<pdfrwt beam="1">  1        1 0.32299672E+00 0.52696357E+03</pdfrwt>
<pdfrwt beam="2">  1       -1 0.29683104E-01 0.52696357E+03</pdfrwt>
<totfact> 0.28559845E+01</totfact>
</mgrwt>
</event>
<event>
12    1  0.3203156E-008  0.2425924E+04  0.7818608E-02  0.8429861E-01
         -1   -1    0    0    0  501 -0.00000000000E+00  0.00000000000E+00  0.17398824145E+04  0.17398824145E+04  0.00000000000E+00 0.  1.
          1   -1    0    0  501    0  0.00000000000E+00 -0.00000000000E+00 -0.34882961856E+04  0.34882961856E+04  0.00000000000E+00 0. -1.
         23    2    1    2    0    0 -0.23451214054E+04 -0.52230879626E+03 -0.50328222457E+03  0.24564051165E+04  0.90731550728E+02 0.  0.
    5000000    2    1    2    0    0  0.23451214054E+04  0.52230879626E+03 -0.12451315464E+04  0.27717734836E+04  0.59997899256E+03 0.  0.
         23    2    4    4    0    0  0.14180081590E+04  0.92631450921E+02 -0.92143109371E+03  0.16959795918E+04  0.89352060236E+02 0.  0.
         23    2    4    4    0    0  0.92711324636E+03  0.42967734534E+03 -0.32370045274E+03  0.10757938917E+04  0.91591056881E+02 0.  0.
          5    1    3    3  502    0 -0.20898967179E+04 -0.43664860538E+03 -0.44888655020E+03  0.21817083950E+04  0.47000000000E+01 0. -1.
         -5    1    3    3    0  502 -0.25522468755E+03 -0.85660190886E+02 -0.54395674367E+02  0.27469672155E+03  0.47000000000E+01 0.  1.
         13    1    5    5    0    0  0.11546708601E+04  0.58964580402E+02 -0.71187675549E+03  0.13577592319E+04  0.00000000000E+00 0. -1.
        -13    1    5    5    0    0  0.26333729893E+03  0.33666870519E+02 -0.20955433821E+03  0.33822035989E+03  0.00000000000E+00 0.  1.
          3    1    6    6  503    0  0.68001253285E+03  0.26971962487E+03 -0.22691603101E+03  0.76593511866E+03  0.00000000000E+00 0. -1.
         -3    1    6    6    0  503  0.24710071352E+03  0.15995772047E+03 -0.96784421738E+02  0.30985877307E+03  0.00000000000E+00 0.  1.
<mgrwt>
<rscale>  0 0.24259245E+04</rscale>
<asrwt>0</asrwt>
<pdfrwt beam="1">  1        1 0.53666095E+00 0.24259245E+04</pdfrwt>
<pdfrwt beam="2">  1       -1 0.26767422E+00 0.24259245E+04</pdfrwt>
<totfact> 0.11592067E-02</totfact>
</mgrwt>
</event>
<event>
12    1  0.3203156E-008  0.1363547E+04  0.7818608E-02  0.8980636E-01
         -1   -1    0    0    0  501 -0.00000000000E+00  0.00000000000E+00  0.10493236806E+04  0.10493236806E+04  0.00000000000E+00 0.  1.
          1   -1    0    0  501    0  0.00000000000E+00 -0.00000000000E+00 -0.20690734828E+04  0.20690734828E+04  0.00000000000E+00 0. -1.
         23    2    1    2    0    0 -0.12971559716E+04  0.23384897014E+03 -0.10192469110E+04  0.16701686956E+04  0.11532671373E+03 0.  0.
    5000000    2    1    2    0    0  0.12971559716E+04 -0.23384897014E+03 -0.50289123271E+00  0.14482284678E+04  0.60005540283E+03 0.  0.
         23    2    4    4    0    0  0.57603576455E+02 -0.13074093600E+03  0.10344639771E+03  0.19674111411E+03  0.87146683323E+02 0.  0.
         23    2    4    4    0    0  0.12395523951E+04 -0.10310803414E+03 -0.10394928895E+03  0.12514873537E+04  0.91069943893E+02 0.  0.
          5    1    3    3  502    0 -0.92526173811E+03  0.18397992883E+03 -0.78960333232E+03  0.12302249431E+04  0.47000000000E+01 0. -1.
         -5    1    3    3    0  502 -0.37189423349E+03  0.49869041306E+02 -0.22964357864E+03  0.43994375253E+03  0.47000000000E+01 0.  1.
         11    1    5    5    0    0 -0.18265609708E+02 -0.94157886956E+01  0.66660431543E+00  0.20560494549E+02  0.00000000000E+00 0.  1.
        -11    1    5    5    0    0  0.75869186163E+02 -0.12132514731E+03  0.10277979340E+03  0.17618061956E+03  0.00000000000E+00 0. -1.
          2    1    6    6  503    0  0.58657565434E+02 -0.15498802327E+02  0.11435088283E+02  0.61738837859E+02  0.00000000000E+00 0. -1.
         -2    1    6    6    0  503  0.11808948297E+04 -0.87609231811E+02 -0.11538437723E+03  0.11897485158E+04  0.00000000000E+00 0.  1.
<mgrwt>
<rscale>  0 0.13635472E+04</rscale>
<asrwt>0</asrwt>
<pdfrwt beam="1">  1        1 0.31831899E+00 0.13635472E+04</pdfrwt>
<pdfrwt beam="2">  1       -1 0.16143441E+00 0.13635472E+04</pdfrwt>
<totfact> 0.73420292E-01</totfact>
</mgrwt>
</event>
<event>
12    1  0.3203156E-008  0.1455539E+04  0.7818608E-02  0.8914569E-01
          4   -1    0    0  501    0  0.00000000000E+00  0.00000000000E+00  0.13202118995E+04  0.13202118995E+04  0.00000000000E+00 0.  1.
         -4   -1    0    0    0  501 -0.00000000000E+00 -0.00000000000E+00 -0.17820091923E+04  0.17820091923E+04  0.00000000000E+00 0. -1.
         23    2    1    2    0    0 -0.88267733892E+03 -0.11480402714E+04  0.53680879771E+02  0.14521401398E+04  0.93346663026E+02 0.  0.
    5000000    2    1    2    0    0  0.88267733892E+03  0.11480402714E+04 -0.51547817252E+03  0.16500809520E+04  0.59994470786E+03 0.  0.
         23    2    4    4    0    0  0.31246976517E+03  0.56347584806E+03 -0.51277491220E+03  0.82854099997E+03  0.91649836666E+02 0.  0.
         23    2    4    4    0    0  0.57020757374E+03  0.58456442330E+03 -0.27032603216E+01  0.82153995202E+03  0.89823955653E+02 0.  0.
          5    1    3    3  502    0 -0.30537924903E+03 -0.34844926240E+03 -0.14313067832E+02  0.46357343336E+03  0.47000000000E+01 0. -1.
         -5    1    3    3    0  502 -0.57729808989E+03 -0.79959100896E+03  0.67993947603E+02  0.98856670645E+03  0.47000000000E+01 0.  1.
         13    1    5    5    0    0  0.25045154732E+03  0.47250315712E+03 -0.37990898043E+03  0.65598478980E+03  0.00000000000E+00 0.  1.
        -13    1    5    5    0    0  0.62018217850E+02  0.90972690938E+02 -0.13286593177E+03  0.17255621017E+03  0.00000000000E+00 0. -1.
          3    1    6    6  503    0  0.11458478592E+03  0.12017015545E+03  0.35660478766E+02  0.16982994192E+03  0.00000000000E+00 0. -1.
         -3    1    6    6    0  503  0.45562278783E+03  0.46439426785E+03 -0.38363739087E+02  0.65171001011E+03  0.00000000000E+00 0.  1.
<mgrwt>
<rscale>  0 0.14555394E+04</rscale>
<asrwt>0</asrwt>
<pdfrwt beam="1">  1        4 0.20310952E+00 0.14555394E+04</pdfrwt>
<pdfrwt beam="2">  1       -4 0.27415526E+00 0.14555394E+04</pdfrwt>
<totfact> 0.10335596E-02</totfact>
</mgrwt>
</event>
<event>
12    1  0.3203156E-008  0.1257978E+04  0.7818608E-02  0.9063569E-01
          1   -1    0    0  501    0  0.00000000000E+00  0.00000000000E+00  0.28567991082E+04  0.28567991082E+04  0.00000000000E+00 0.  1.
         -1   -1    0    0    0  501 -0.00000000000E+00 -0.00000000000E+00 -0.62474769119E+03  0.62474769119E+03  0.00000000000E+00 0. -1.
         23    2    1    2    0    0 -0.25434780734E+03  0.11637102193E+04  0.16230746252E+04  0.20153236854E+04  0.90796674827E+02 0.  0.
    5000000    2    1    2    0    0  0.25434780734E+03 -0.11637102193E+04  0.60897679179E+03  0.14662231140E+04  0.60003600351E+03 0.  0.
         23    2    4    4    0    0  0.10337597820E+03 -0.11393455025E+04  0.57949195582E+03  0.12858475303E+04  0.93798599440E+02 0.  0.
         23    2    4    4    0    0  0.15097182914E+03 -0.24364716809E+02  0.29484835978E+02  0.18037558377E+03  0.90993752787E+02 0.  0.
          5    1    3    3  502    0 -0.78153951501E+02  0.21802409406E+03  0.28306019858E+03  0.36577002576E+03  0.47000000000E+01 0. -1.
         -5    1    3    3    0  502 -0.17619385584E+03  0.94568612526E+03  0.13400144267E+04  0.16495536596E+04  0.47000000000E+01 0.  1.
         11    1    5    5    0    0  0.78054820454E+02 -0.66142925070E+03  0.28916019047E+03  0.72608183040E+03  0.00000000000E+00 0.  1.
        -11    1    5    5    0    0  0.25321157743E+02 -0.47791625181E+03  0.29033176535E+03  0.55976569986E+03  0.00000000000E+00 0. -1.
          2    1    6    6  503    0 -0.22846068119E+01 -0.24359403887E+02  0.94593001865E+00  0.24484582284E+02  0.00000000000E+00 0. -1.
         -2    1    6    6    0  503  0.15325643595E+03 -0.53129217318E-02  0.28538905959E+02  0.15589100148E+03  0.00000000000E+00 0.  1.
<mgrwt>
<rscale>  0 0.12579779E+04</rscale>
<asrwt>0</asrwt>
<pdfrwt beam="1">  1        1 0.43950755E+00 0.12579779E+04</pdfrwt>
<pdfrwt beam="2">  1       -1 0.96115031E-01 0.12579779E+04</pdfrwt>
<totfact> 0.78107222E-01</totfact>
</mgrwt>
</event>
<event>
12    1  0.3203156E-008  0.1377582E+04  0.7818608E-02  0.8970208E-01
         -3   -1    0    0    0  501 -0.00000000000E+00  0.00000000000E+00  0.12011615268E+04  0.12011615268E+04  0.00000000000E+00 0.  1.
          3   -1    0    0  501    0  0.00000000000E+00 -0.00000000000E+00 -0.16679134231E+04  0.16679134231E+04  0.00000000000E+00 0. -1.
         23    2    1    2    0    0  0.12352944354E+04 -0.49013977330E+03 -0.46544521248E+03  0.14109441026E+04  0.89076795764E+02 0.  0.
    5000000    2    1    2    0    0 -0.12352944354E+04  0.49013977330E+03 -0.13066837912E+01  0.14581308473E+04  0.59996209960E+03 0.  0.
         23    2    4    4    0    0 -0.12729979563E+04  0.46739145304E+03 -0.10121271405E+02  0.13593431667E+04  0.93449652686E+02 0.  0.
         23    2    4    4    0    0  0.37703520903E+02  0.22748320254E+02  0.88145876142E+01  0.98787680616E+02  0.87990154698E+02 0.  0.
          5    1    3    3  502    0  0.50903531758E+03 -0.16369614522E+03 -0.16070657513E+03  0.55835658480E+03  0.47000000000E+01 0. -1.
         -5    1    3    3    0  502  0.72625911778E+03 -0.32644362807E+03 -0.30473863734E+03  0.85258751783E+03  0.47000000000E+01 0.  1.
         11    1    5    5    0    0 -0.98582529513E+03  0.39426345973E+03 -0.31762993275E+02  0.10622165862E+04  0.00000000000E+00 0. -1.
        -11    1    5    5    0    0 -0.28717266113E+03  0.73127993313E+02  0.21641721870E+02  0.29712658049E+03  0.00000000000E+00 0.  1.
          1    1    6    6  503    0  0.22798042684E+02 -0.13778378644E+02  0.40303202363E+02  0.48310895138E+02  0.00000000000E+00 0. -1.
         -1    1    6    6    0  503  0.14905478220E+02  0.36526698898E+02 -0.31488614749E+02  0.50476785478E+02  0.00000000000E+00 0.  1.
<mgrwt>
<rscale>  0 0.13775818E+04</rscale>
<asrwt>0</asrwt>
<pdfrwt beam="1">  1        3 0.25660206E+00 0.13775818E+04</pdfrwt>
<pdfrwt beam="2">  1       -3 0.18479408E+00 0.13775818E+04</pdfrwt>
<totfact> 0.30357068E-02</totfact>
</mgrwt>
</event>
<event>
12    1  0.3203156E-008  0.6177066E+03  0.7818608E-02  0.9869336E-01
         -2   -1    0    0    0  501 -0.00000000000E+00  0.00000000000E+00  0.20616618938E+04  0.20616618938E+04  0.00000000000E+00 0.  1.
          2   -1    0    0  501    0  0.00000000000E+00 -0.00000000000E+00 -0.33765687470E+03  0.33765687470E+03  0.00000000000E+00 0. -1.
         23    2    1    2    0    0 -0.51050610743E+03  0.22300430490E+03  0.89825008125E+02  0.57154045412E+03  0.90788506343E+02 0.  0.
    5000000    2    1    2    0    0  0.51050610743E+03 -0.22300430490E+03  0.16341800110E+04  0.18277783144E+04  0.59990153572E+03 0.  0.
         23    2    4    4    0    0  0.35672929891E+02  0.65677504893E+02  0.20857705612E+02  0.11906702474E+03  0.90309578232E+02 0.  0.
         23    2    4    4    0    0  0.47483317754E+03 -0.28868180979E+03  0.16133223053E+04  0.17087112896E+04  0.89898145787E+02 0.  0.
          5    1    3    3  502    0 -0.18374957546E+03  0.11921572903E+03  0.61194078384E+02  0.22747110093E+03  0.47000000000E+01 0. -1.
         -5    1    3    3    0  502 -0.32675653196E+03  0.10378857587E+03  0.28630929741E+02  0.34406935318E+03  0.47000000000E+01 0.  1.
         13    1    5    5    0    0 -0.21228690955E+02 -0.79288909331E+01  0.11914064972E+02  0.25602140052E+02  0.00000000000E+00 0. -1.
        -13    1    5    5    0    0  0.56901620846E+02  0.73606395826E+02  0.89436406395E+01  0.93464884686E+02  0.00000000000E+00 0.  1.
          4    1    6    6  503    0  0.87478479349E+02 -0.75837033207E+02  0.43766824713E+03  0.45272202785E+03  0.00000000000E+00 0. -1.
         -4    1    6    6    0  503  0.38735469819E+03 -0.21284477659E+03  0.11756540582E+04  0.12559892618E+04  0.00000000000E+00 0.  1.
<mgrwt>
<rscale>  0 0.61770663E+03</rscale>
<asrwt>0</asrwt>
<pdfrwt beam="1">  1        2 0.51947213E-01 0.61770663E+03</pdfrwt>
<pdfrwt beam="2">  1       -2 0.31717875E+00 0.61770663E+03</pdfrwt>
<totfact> 0.25592602E+00</totfact>
</mgrwt>
</event>
<event>
12    1  0.3203156E-008  0.6165709E+03  0.7818608E-02  0.9871611E-01
         -1   -1    0    0    0  501 -0.00000000000E+00  0.00000000000E+00  0.48543053597E+03  0.48543053597E+03  0.00000000000E+00 0.  1.
          1   -1    0    0  501    0  0.00000000000E+00 -0.00000000000E+00 -0.10553085369E+04  0.10553085369E+04  0.00000000000E+00 0. -1.
         23    2    1    2    0    0 -0.27738655724E+03 -0.46350700822E+03 -0.48045030224E+03  0.72861609177E+03  0.90922315572E+02 0.  0.
    5000000    2    1    2    0    0  0.27738655724E+03  0.46350700822E+03 -0.89427698665E+02  0.81212298106E+03  0.59980361309E+03 0.  0.
         23    2    4    4    0    0  0.37396336909E+03  0.32828425145E+03 -0.24924749038E+03  0.56423790080E+03  0.92849049901E+02 0.  0.
         23    2    4    4    0    0 -0.96576811849E+02  0.13522275677E+03  0.15981979172E+03  0.24788508026E+03  0.91062465678E+02 0.  0.
          5    1    3    3  502    0 -0.15393563138E+03 -0.20938582705E+03 -0.28082825825E+03  0.38265546359E+03  0.47000000000E+01 0. -1.
         -5    1    3    3    0  502 -0.12345092586E+03 -0.25412118117E+03 -0.19962204398E+03  0.34596062819E+03  0.47000000000E+01 0.  1.
         11    1    5    5    0    0  0.16527619057E+03  0.86736096283E+02 -0.10194795218E+03  0.21267993446E+03  0.00000000000E+00 0. -1.
        -11    1    5    5    0    0  0.20868717851E+03  0.24154815517E+03 -0.14729953820E+03  0.35155796634E+03  0.00000000000E+00 0.  1.
          2    1    6    6  503    0 -0.25581930518E+02  0.10423905930E+03  0.65128329058E+02  0.12554646908E+03  0.00000000000E+00 0.  1.
         -2    1    6    6    0  503 -0.70994881331E+02  0.30983697465E+02  0.94691462662E+02  0.12233861118E+03  0.00000000000E+00 0. -1.
<mgrwt>
<rscale>  0 0.61657088E+03</rscale>
<asrwt>0</asrwt>
<pdfrwt beam="1">  1        1 0.16235516E+00 0.61657088E+03</pdfrwt>
<pdfrwt beam="2">  1       -1 0.74681621E-01 0.61657088E+03</pdfrwt>
<totfact> 0.25873761E+01</totfact>
</mgrwt>
</event>
<event>
12    1  0.3203156E-008  0.6438193E+03  0.7818608E-02  0.9818446E-01
         -1   -1    0    0    0  501 -0.00000000000E+00  0.00000000000E+00  0.66581097595E+03  0.66581097595E+03  0.00000000000E+00 0.  1.
          1   -1    0    0  501    0  0.00000000000E+00 -0.00000000000E+00 -0.64028240790E+03  0.64028240790E+03  0.00000000000E+00 0. -1.
         23    2    1    2    0    0 -0.44567640114E+03 -0.24833116536E+03  0.19143573719E+02  0.51854455719E+03  0.90698176132E+02 0.  0.
    5000000    2    1    2    0    0  0.44567640114E+03  0.24833116536E+03  0.63849943298E+01  0.78754882666E+03  0.59991379714E+03 0.  0.
         23    2    4    4    0    0 -0.69882552821E+02  0.23730584798E+03  0.49532760876E+01  0.26364919192E+03  0.91042433963E+02 0.  0.
         23    2    4    4    0    0  0.51555895396E+03  0.11025317376E+02  0.14317182423E+01  0.52389963474E+03  0.92445577661E+02 0.  0.
          5    1    3    3  502    0 -0.21021378721E+03 -0.16059435143E+03  0.34154556610E+02  0.26677519709E+03  0.47000000000E+01 0. -1.
         -5    1    3    3    0  502 -0.23546261393E+03 -0.87736813924E+02 -0.15010982891E+02  0.25176936010E+03  0.47000000000E+01 0.  1.
         11    1    5    5    0    0 -0.61306092257E+01  0.10607596949E+03 -0.35878900725E+02  0.11214718539E+03  0.00000000000E+00 0. -1.
        -11    1    5    5    0    0 -0.63751943596E+02  0.13122987849E+03  0.40832176813E+02  0.15150200654E+03  0.00000000000E+00 0.  1.
          4    1    6    6  503    0  0.17915459248E+03 -0.26476010035E+02 -0.31476842925E+02  0.18381550194E+03  0.00000000000E+00 0. -1.
         -4    1    6    6    0  503  0.33640436148E+03  0.37501327410E+02  0.32908561167E+02  0.34008413279E+03  0.00000000000E+00 0.  1.
<mgrwt>
<rscale>  0 0.64381931E+03</rscale>
<asrwt>0</asrwt>
<pdfrwt beam="1">  1        1 0.98504986E-01 0.64381931E+03</pdfrwt>
<pdfrwt beam="2">  1       -1 0.10243246E+00 0.64381931E+03</pdfrwt>
<totfact> 0.29118421E+01</totfact>
</mgrwt>
</event>
<event>
12    1  0.3203156E-008  0.1599782E+04  0.7818608E-02  0.8820682E-01
          2   -1    0    0  501    0  0.00000000000E+00  0.00000000000E+00  0.10761652958E+04  0.10761652958E+04  0.00000000000E+00 0. -1.
         -2   -1    0    0    0  501 -0.00000000000E+00 -0.00000000000E+00 -0.24466897974E+04  0.24466897974E+04  0.00000000000E+00 0.  1.
         23    2    1    2    0    0  0.34363286484E+03 -0.15092927349E+04 -0.40646112870E+03  0.16030405006E+04  0.92087415449E+02 0.  0.
    5000000    2    1    2    0    0 -0.34363286484E+03  0.15092927349E+04 -0.96406337292E+03  0.19198145926E+04  0.60018478624E+03 0.  0.
         23    2    4    4    0    0 -0.37682579061E+03  0.45686761329E+03 -0.28578158676E+03  0.66392460232E+03  0.91646438453E+02 0.  0.
         23    2    4    4    0    0  0.33192925766E+02  0.10524251216E+04 -0.67828178616E+03  0.12558899903E+04  0.92157904848E+02 0.  0.
          5    1    3    3  502    0  0.45784475759E+02 -0.12248211562E+03 -0.15872638399E+02  0.13180332893E+03  0.47000000000E+01 0. -1.
         -5    1    3    3    0  502  0.29784838909E+03 -0.13868106193E+04 -0.39058849030E+03  0.14712371717E+04  0.47000000000E+01 0.  1.
         11    1    5    5    0    0 -0.35894874859E+03  0.41823747364E+03 -0.23918600141E+03  0.60081339178E+03  0.00000000000E+00 0. -1.
        -11    1    5    5    0    0 -0.17877042025E+02  0.38630139655E+02 -0.46595585353E+02  0.63111210539E+02  0.00000000000E+00 0.  1.
          2    1    6    6  503    0 -0.84960322626E+01  0.84216205675E+03 -0.52639791310E+03  0.99317867240E+03  0.00000000000E+00 0. -1.
         -2    1    6    6    0  503  0.41688958029E+02  0.21026306484E+03 -0.15188387306E+03  0.26271131790E+03  0.00000000000E+00 0.  1.
<mgrwt>
<rscale>  0 0.15997821E+04</rscale>
<asrwt>0</asrwt>
<pdfrwt beam="1">  1        2 0.16556389E+00 0.15997821E+04</pdfrwt>
<pdfrwt beam="2">  1       -2 0.37641381E+00 0.15997821E+04</pdfrwt>
<totfact> 0.22337162E-01</totfact>
</mgrwt>
</event>
<event>
12    1  0.3203156E-008  0.5733689E+03  0.7818608E-02  0.9962251E-01
          1   -1    0    0  501    0  0.00000000000E+00  0.00000000000E+00  0.48235442898E+03  0.48235442898E+03  0.00000000000E+00 0. -1.
         -1   -1    0    0    0  501 -0.00000000000E+00 -0.00000000000E+00 -0.70034468237E+03  0.70034468237E+03  0.00000000000E+00 0.  1.
         23    2    1    2    0    0 -0.32292027309E+03 -0.27045263698E+03 -0.10487249272E+03  0.44250044391E+03  0.85943420383E+02 0.  0.
    5000000    2    1    2    0    0  0.32292027309E+03  0.27045263698E+03 -0.11311776067E+03  0.74019866745E+03  0.59806045504E+03 0.  0.
         23    2    4    4    0    0  0.48421783349E+03  0.20431716272E+03 -0.68528667084E+02  0.53772354385E+03  0.90763528734E+02 0.  0.
         23    2    4    4    0    0 -0.16129756039E+03  0.66135474259E+02 -0.44589093585E+02  0.20247512360E+03  0.92828791140E+02 0.  0.
          5    1    3    3  502    0 -0.16209477661E+03 -0.99092681221E+02 -0.79780062589E+02  0.20610925371E+03  0.47000000000E+01 0. -1.
         -5    1    3    3    0  502 -0.16082549648E+03 -0.17135995576E+03 -0.25092430131E+02  0.23639119021E+03  0.47000000000E+01 0.  1.
         11    1    5    5    0    0  0.10355722434E+03  0.76270829531E+02 -0.41718109147E+02  0.13520998033E+03  0.00000000000E+00 0. -1.
        -11    1    5    5    0    0  0.38066060914E+03  0.12804633319E+03 -0.26810557937E+02  0.40251356352E+03  0.00000000000E+00 0.  1.
          4    1    6    6  503    0 -0.10843424291E+03  0.82297404947E+02 -0.83649383315E+01  0.13638482353E+03  0.00000000000E+00 0. -1.
         -4    1    6    6    0  503 -0.52863317482E+02 -0.16161930688E+02 -0.36224155254E+02  0.66090300065E+02  0.00000000000E+00 0.  1.
<mgrwt>
<rscale>  0 0.57336890E+03</rscale>
<asrwt>0</asrwt>
<pdfrwt beam="1">  1        1 0.74208374E-01 0.57336890E+03</pdfrwt>
<pdfrwt beam="2">  1       -1 0.10774534E+00 0.57336890E+03</pdfrwt>
<totfact> 0.38868115E+01</totfact>
</mgrwt>
</event>
<event>
12    1  0.3203156E-008  0.5549488E+03  0.7818608E-02  0.1000355E+00
         -2   -1    0    0    0  501 -0.00000000000E+00  0.00000000000E+00  0.50732232651E+03  0.50732232651E+03  0.00000000000E+00 0. -1.
          2   -1    0    0  501    0  0.00000000000E+00 -0.00000000000E+00 -0.20903036688E+04  0.20903036688E+04  0.00000000000E+00 0.  1.
         23    2    1    2    0    0  0.40185380919E+03  0.67252478570E+02 -0.17942570598E+04  0.18421885743E+04  0.91054746491E+02 0.  0.
    5000000    2    1    2    0    0 -0.40185380919E+03 -0.67252478570E+02  0.21127571751E+03  0.75543742100E+03  0.60003240612E+03 0.  0.
         23    2    4    4    0    0 -0.25191749570E+03  0.24166421660E+03  0.46116000968E+02  0.36379688340E+03  0.91419191678E+02 0.  0.
         23    2    4    4    0    0 -0.14993631350E+03 -0.30891669517E+03  0.16515971654E+03  0.39164053759E+03  0.90521577871E+02 0.  0.
          5    1    3    3  502    0  0.22459073423E+03  0.17079419338E+02 -0.80588871136E+03  0.83678635838E+03  0.47000000000E+01 0. -1.
         -5    1    3    3    0  502  0.17726307497E+03  0.50173059232E+02 -0.98836834844E+03  0.10054022159E+04  0.47000000000E+01 0.  1.
         13    1    5    5    0    0 -0.12277501858E+02  0.29011255422E+02 -0.19097743145E+02  0.36839025316E+02  0.00000000000E+00 0. -1.
        -13    1    5    5    0    0 -0.23963999384E+03  0.21265296117E+03  0.65213744112E+02  0.32695785809E+03  0.00000000000E+00 0.  1.
          4    1    6    6  503    0 -0.18247184268E+02 -0.98707162841E+02  0.14506022587E+02  0.10142232703E+03  0.00000000000E+00 0. -1.
         -4    1    6    6    0  503 -0.13168912923E+03 -0.21020953232E+03  0.15065369395E+03  0.29021821056E+03  0.00000000000E+00 0.  1.
<mgrwt>
<rscale>  0 0.55494882E+03</rscale>
<asrwt>0</asrwt>
<pdfrwt beam="1">  1        2 0.32158517E+00 0.55494882E+03</pdfrwt>
<pdfrwt beam="2">  1       -2 0.78049591E-01 0.55494882E+03</pdfrwt>
<totfact> 0.93480712E+00</totfact>
</mgrwt>
</event>
<event>
12    1  0.3203156E-008  0.9969130E+03  0.7818608E-02  0.9311937E-01
         -1   -1    0    0    0  501 -0.00000000000E+00  0.00000000000E+00  0.83394728272E+03  0.83394728272E+03  0.00000000000E+00 0.  1.
          1   -1    0    0  501    0  0.00000000000E+00 -0.00000000000E+00 -0.18156596321E+04  0.18156596321E+04  0.00000000000E+00 0. -1.
         23    2    1    2    0    0  0.61929774074E+03 -0.70727440756E+03 -0.11855589264E+04  0.15158417171E+04  0.91974800693E+02 0.  0.
    5000000    2    1    2    0    0 -0.61929774074E+03  0.70727440756E+03  0.20384657698E+03  0.11337651978E+04  0.60008609174E+03 0.  0.
         23    2    4    4    0    0  0.30870971976E+02  0.25643260229E+03 -0.84761487255E+02  0.28718489847E+03  0.92628072221E+02 0.  0.
         23    2    4    4    0    0 -0.65016871272E+03  0.45084180528E+03  0.28860806423E+03  0.84658029932E+03  0.86173662311E+02 0.  0.
          5    1    3    3  502    0  0.48115744113E+03 -0.49351635776E+03 -0.83848981611E+03  0.10854299334E+04  0.47000000000E+01 0. -1.
         -5    1    3    3    0  502  0.13814029961E+03 -0.21375804981E+03 -0.34706911027E+03  0.43041178369E+03  0.47000000000E+01 0.  1.
         11    1    5    5    0    0  0.64714699882E+01  0.38445453238E+02 -0.52627889622E+02  0.65495248412E+02  0.00000000000E+00 0. -1.
        -11    1    5    5    0    0  0.24399501987E+02  0.21798714905E+03 -0.32133597633E+02  0.22168965006E+03  0.00000000000E+00 0.  1.
          1    1    6    6  503    0 -0.46888739479E+03  0.30990883338E+03  0.16480896857E+03  0.58571398321E+03  0.00000000000E+00 0. -1.
         -1    1    6    6    0  503 -0.18128131792E+03  0.14093297189E+03  0.12379909566E+03  0.26086631611E+03  0.00000000000E+00 0.  1.
<mgrwt>
<rscale>  0 0.99691297E+03</rscale>
<asrwt>0</asrwt>
<pdfrwt beam="1">  1        1 0.27933225E+00 0.99691297E+03</pdfrwt>
<pdfrwt beam="2">  1       -1 0.12829958E+00 0.99691297E+03</pdfrwt>
<totfact> 0.21031565E+00</totfact>
</mgrwt>
</event>
<event>
12    1  0.3203156E-008  0.1768559E+04  0.7818608E-02  0.8723201E-01
          2   -1    0    0  501    0  0.00000000000E+00  0.00000000000E+00  0.18722748555E+04  0.18722748555E+04  0.00000000000E+00 0.  1.
         -2   -1    0    0    0  501 -0.00000000000E+00 -0.00000000000E+00 -0.18028680389E+04  0.18028680389E+04  0.00000000000E+00 0. -1.
         23    2    1    2    0    0  0.41975878688E+03 -0.16698575318E+04 -0.44442911846E+03  0.17807782035E+04  0.95037640918E+02 0.  0.
    5000000    2    1    2    0    0 -0.41975878688E+03  0.16698575318E+04  0.51383593502E+03  0.18943646909E+04  0.59997383131E+03 0.  0.
         23    2    4    4    0    0 -0.53980026196E+03  0.11402330146E+04  0.27680670709E+03  0.12948751921E+04  0.92542745173E+02 0.  0.
         23    2    4    4    0    0  0.12004147508E+03  0.52962451719E+03  0.23702922793E+03  0.59948949875E+03  0.91064368817E+02 0.  0.
          5    1    3    3  502    0  0.26711474018E+03 -0.87400515739E+03 -0.22455889527E+03  0.94110790402E+03  0.47000000000E+01 0. -1.
         -5    1    3    3    0  502  0.15264404670E+03 -0.79585237441E+03 -0.21987022319E+03  0.83967029952E+03  0.47000000000E+01 0.  1.
         11    1    5    5    0    0 -0.15439868763E+02  0.65914977330E+02 -0.40269416821E+00  0.67700339337E+02  0.00000000000E+00 0. -1.
        -11    1    5    5    0    0 -0.52436039320E+03  0.10743180373E+04  0.27720940126E+03  0.12271748528E+04  0.00000000000E+00 0.  1.
          3    1    6    6  503    0  0.11090695461E+03  0.29973809433E+03  0.12016776031E+03  0.34144336044E+03  0.00000000000E+00 0. -1.
         -3    1    6    6    0  503  0.91345204725E+01  0.22988642286E+03  0.11686146762E+03  0.25804613831E+03  0.00000000000E+00 0.  1.
<mgrwt>
<rscale>  0 0.17685586E+04</rscale>
<asrwt>0</asrwt>
<pdfrwt beam="1">  1        2 0.28804229E+00 0.17685586E+04</pdfrwt>
<pdfrwt beam="2">  1       -2 0.27736431E+00 0.17685586E+04</pdfrwt>
<totfact> 0.31372722E-01</totfact>
</mgrwt>
</event>
<event>
12    1  0.3203156E-008  0.1217374E+04  0.7818608E-02  0.9097784E-01
          2   -1    0    0  501    0  0.00000000000E+00  0.00000000000E+00  0.16552443256E+04  0.16552443256E+04  0.00000000000E+00 0. -1.
         -2   -1    0    0    0  501 -0.00000000000E+00 -0.00000000000E+00 -0.26357510579E+04  0.26357510579E+04  0.00000000000E+00 0.  1.
         23    2    1    2    0    0 -0.61968722020E+03  0.10226139164E+04 -0.21839771179E+04  0.24915310834E+04  0.90662092610E+02 0.  0.
    5000000    2    1    2    0    0  0.61968722020E+03 -0.10226139164E+04  0.12034703856E+04  0.17994643001E+04  0.59998277093E+03 0.  0.
         23    2    4    4    0    0  0.43912121132E+03 -0.44467493355E+03  0.27893510613E+03  0.69053038972E+03  0.92001037689E+02 0.  0.
         23    2    4    4    0    0  0.18056600888E+03 -0.57793898285E+03  0.92453527946E+03  0.11089339104E+04  0.91385902334E+02 0.  0.
          5    1    3    3  502    0 -0.52124953991E+03  0.80465269517E+03 -0.17912400039E+04  0.20316815410E+04  0.47000000000E+01 0. -1.
         -5    1    3    3    0  502 -0.98437680290E+02  0.21796122122E+03 -0.39273711402E+03  0.45984954234E+03  0.47000000000E+01 0.  1.
         13    1    5    5    0    0  0.20591425505E+03 -0.25517542480E+03  0.18069295379E+03  0.37438632641E+03  0.00000000000E+00 0.  1.
        -13    1    5    5    0    0  0.23320695627E+03 -0.18949950874E+03  0.98242152348E+02  0.31614406331E+03  0.00000000000E+00 0. -1.
          1    1    6    6  503    0  0.10899463890E+03 -0.43641398971E+03  0.62549816485E+03  0.77044464821E+03  0.00000000000E+00 0. -1.
         -1    1    6    6    0  503  0.71571369982E+02 -0.14152499313E+03  0.29903711461E+03  0.33848926216E+03  0.00000000000E+00 0.  1.
<mgrwt>
<rscale>  0 0.12173740E+04</rscale>
<asrwt>0</asrwt>
<pdfrwt beam="1">  1        2 0.25465297E+00 0.12173740E+04</pdfrwt>
<pdfrwt beam="2">  1       -2 0.40550016E+00 0.12173740E+04</pdfrwt>
<totfact> 0.69588573E-02</totfact>
</mgrwt>
</event>
<event>
12    1  0.3203156E-008  0.9112386E+03  0.7818608E-02  0.9411641E-01
         -2   -1    0    0    0  501 -0.00000000000E+00  0.00000000000E+00  0.10074324284E+04  0.10074324284E+04  0.00000000000E+00 0.  1.
          2   -1    0    0  501    0  0.00000000000E+00 -0.00000000000E+00 -0.89696315708E+03  0.89696315708E+03  0.00000000000E+00 0. -1.
         23    2    1    2    0    0 -0.43069199997E+03 -0.69510906631E+03  0.29299972871E+03  0.87387508026E+03  0.95585574108E+02 0.  0.
    5000000    2    1    2    0    0  0.43069199997E+03  0.69510906631E+03 -0.18253045738E+03  0.10305205052E+04  0.59998577558E+03 0.  0.
         23    2    4    4    0    0  0.74335996103E+02  0.62908655267E+03 -0.12040013574E+03  0.65112202298E+03  0.90487375084E+02 0.  0.
         23    2    4    4    0    0  0.35635600387E+03  0.66022513637E+02 -0.62130321637E+02  0.37939848224E+03  0.93458320449E+02 0.  0.
          5    1    3    3  502    0 -0.35450119319E+03 -0.50537267094E+03  0.24222570337E+03  0.66315006890E+03  0.47000000000E+01 0. -1.
         -5    1    3    3    0  502 -0.76190806777E+02 -0.18973639536E+03  0.50774025334E+02  0.21072501136E+03  0.47000000000E+01 0.  1.
         13    1    5    5    0    0 -0.13020409945E+02  0.14694948514E+03 -0.51805351085E+02  0.15635688875E+03  0.00000000000E+00 0. -1.
        -13    1    5    5    0    0  0.87356406048E+02  0.48213706753E+03 -0.68594784654E+02  0.49476513423E+03  0.00000000000E+00 0.  1.
          2    1    6    6  503    0  0.13571621681E+03  0.36300480464E+02  0.20401022401E+02  0.14196062166E+03  0.00000000000E+00 0. -1.
         -2    1    6    6    0  503  0.22063978705E+03  0.29722033173E+02 -0.82531344038E+02  0.23743786058E+03  0.00000000000E+00 0.  1.
<mgrwt>
<rscale>  0 0.91123863E+03</rscale>
<asrwt>0</asrwt>
<pdfrwt beam="1">  1        2 0.13799433E+00 0.91123863E+03</pdfrwt>
<pdfrwt beam="2">  1       -2 0.15498960E+00 0.91123863E+03</pdfrwt>
<totfact> 0.80875394E+00</totfact>
</mgrwt>
</event>
<event>
12    1  0.3203156E-008  0.1016529E+04  0.7818608E-02  0.9290600E-01
         -2   -1    0    0    0  501 -0.00000000000E+00  0.00000000000E+00  0.11766724824E+04  0.11766724824E+04  0.00000000000E+00 0.  1.
          2   -1    0    0  501    0  0.00000000000E+00 -0.00000000000E+00 -0.94549665594E+03  0.94549665594E+03  0.00000000000E+00 0. -1.
         23    2    1    2    0    0  0.17649367569E+03 -0.92771818453E+03  0.31720528882E+03  0.10000188813E+04  0.87221099164E+02 0.  0.
    5000000    2    1    2    0    0 -0.17649367569E+03  0.92771818453E+03 -0.86029462370E+02  0.11221502571E+04  0.60000756961E+03 0.  0.
         23    2    4    4    0    0 -0.35912336856E+03  0.61798919101E+03  0.63766590736E+02  0.72282066613E+03  0.86736977416E+02 0.  0.
         23    2    4    4    0    0  0.18262969287E+03  0.30972899352E+03 -0.14979605311E+03  0.39932959094E+03  0.87975056300E+02 0.  0.
          5    1    3    3  502    0  0.13256305407E+03 -0.46986297748E+03  0.15394137715E+03  0.51192208246E+03  0.47000000000E+01 0. -1.
         -5    1    3    3    0  502  0.43930621625E+02 -0.45785520705E+03  0.16326391167E+03  0.48809679880E+03  0.47000000000E+01 0.  1.
         13    1    5    5    0    0 -0.10271858315E+03  0.22692103449E+03 -0.10610926441E+02  0.24931276537E+03  0.00000000000E+00 0. -1.
        -13    1    5    5    0    0 -0.25640478541E+03  0.39106815652E+03  0.74377517176E+02  0.47350790076E+03  0.00000000000E+00 0.  1.
          1    1    6    6  503    0  0.17620818953E+03  0.31424772600E+03 -0.15221372543E+03  0.39111376550E+03  0.00000000000E+00 0. -1.
         -1    1    6    6    0  503  0.64215033316E+01 -0.45187324743E+01  0.24176723274E+01  0.82158254421E+01  0.00000000000E+00 0.  1.
<mgrwt>
<rscale>  0 0.10165287E+04</rscale>
<asrwt>0</asrwt>
<pdfrwt beam="1">  1        2 0.14546102E+00 0.10165287E+04</pdfrwt>
<pdfrwt beam="2">  1       -2 0.18102654E+00 0.10165287E+04</pdfrwt>
<totfact> 0.48270770E+00</totfact>
</mgrwt>
</event>
<event>
12    1  0.3203156E-008  0.6068987E+03  0.7818608E-02  0.9891196E-01
          2   -1    0    0  501    0  0.00000000000E+00  0.00000000000E+00  0.15714312354E+04  0.15714312354E+04  0.00000000000E+00 0. -1.
         -2   -1    0    0    0  501 -0.00000000000E+00 -0.00000000000E+00 -0.27423547263E+03  0.27423547263E+03  0.00000000000E+00 0.  1.
         23    2    1    2    0    0 -0.13373670312E+02  0.50283136991E+03  0.38053316193E+03  0.64014597982E+03  0.10937616981E+03 0.  0.
    5000000    2    1    2    0    0  0.13373670312E+02 -0.50283136991E+03  0.91666260088E+03  0.12055207283E+04  0.59999305061E+03 0.  0.
         23    2    4    4    0    0 -0.22367783181E+03 -0.27109510458E+03  0.20655905701E+03  0.41763731171E+03  0.90719082493E+02 0.  0.
         23    2    4    4    0    0  0.23705150212E+03 -0.23173626533E+03  0.71010354388E+03  0.78788341655E+03  0.81351851379E+02 0.  0.
          5    1    3    3  502    0  0.40795222995E+02  0.23388762670E+03  0.21061402603E+03  0.31740830188E+03  0.47000000000E+01 0. -1.
         -5    1    3    3    0  502 -0.54168893307E+02  0.26894374321E+03  0.16991913590E+03  0.32273767794E+03  0.47000000000E+01 0.  1.
         13    1    5    5    0    0 -0.11891737742E+03 -0.74830663918E+02  0.79050127343E+02  0.16121381314E+03  0.00000000000E+00 0.  1.
        -13    1    5    5    0    0 -0.10476045439E+03 -0.19626444066E+03  0.12750892966E+03  0.25642349856E+03  0.00000000000E+00 0. -1.
          3    1    6    6  503    0  0.12825198445E+03 -0.17292326384E+03  0.49431929656E+03  0.53916842790E+03  0.00000000000E+00 0. -1.
         -3    1    6    6    0  503  0.10879951767E+03 -0.58813001489E+02  0.21578424732E+03  0.24871498865E+03  0.00000000000E+00 0.  1.
<mgrwt>
<rscale>  0 0.60689873E+03</rscale>
<asrwt>0</asrwt>
<pdfrwt beam="1">  1        2 0.24175865E+00 0.60689873E+03</pdfrwt>
<pdfrwt beam="2">  1       -2 0.42190073E-01 0.60689873E+03</pdfrwt>
<totfact> 0.63979036E+01</totfact>
</mgrwt>
</event>
<event>
12    1  0.3203156E-008  0.1276030E+04  0.7818608E-02  0.9048793E-01
          1   -1    0    0  501    0  0.00000000000E+00  0.00000000000E+00  0.41343207669E+04  0.41343207669E+04  0.00000000000E+00 0. -1.
         -1   -1    0    0    0  501 -0.00000000000E+00 -0.00000000000E+00 -0.45520165064E+03  0.45520165064E+03  0.00000000000E+00 0.  1.
         23    2    1    2    0    0  0.55448405108E+03 -0.10727150546E+04  0.25792945087E+04  0.28494597700E+04  0.92144813862E+02 0.  0.
    5000000    2    1    2    0    0 -0.55448405108E+03  0.10727150546E+04  0.10998246076E+04  0.17400626476E+04  0.60002808185E+03 0.  0.
         23    2    4    4    0    0 -0.62337594025E+03  0.62931753678E+03  0.75794810360E+03  0.11688937367E+04  0.84788648259E+02 0.  0.
         23    2    4    4    0    0  0.68891889172E+02  0.44339751778E+03  0.34187650399E+03  0.57116891096E+03  0.89481448911E+02 0.  0.
          5    1    3    3  502    0  0.46710264650E+03 -0.94128752372E+03  0.22984830097E+04  0.25273015888E+04  0.47000000000E+01 0. -1.
         -5    1    3    3    0  502  0.87381404587E+02 -0.13142753084E+03  0.28081149897E+03  0.32215818115E+03  0.47000000000E+01 0.  1.
         11    1    5    5    0    0 -0.21782915184E+03  0.17477381633E+03  0.20817670065E+03  0.34832881729E+03  0.00000000000E+00 0. -1.
        -11    1    5    5    0    0 -0.40554678841E+03  0.45454372045E+03  0.54977140295E+03  0.82056491937E+03  0.00000000000E+00 0.  1.
          1    1    6    6  503    0  0.13123699947E+02  0.31051861547E+03  0.20427104341E+03  0.37191491128E+03  0.00000000000E+00 0. -1.
         -1    1    6    6    0  503  0.55768189225E+02  0.13287890231E+03  0.13760546057E+03  0.19925399968E+03  0.00000000000E+00 0.  1.
<mgrwt>
<rscale>  0 0.12760298E+04</rscale>
<asrwt>0</asrwt>
<pdfrwt beam="1">  1        1 0.63604932E+00 0.12760298E+04</pdfrwt>
<pdfrwt beam="2">  1       -1 0.70031026E-01 0.12760298E+04</pdfrwt>
<totfact> 0.15119503E-01</totfact>
</mgrwt>
</event>
<event>
12    1  0.3203156E-008  0.1173745E+04  0.7818608E-02  0.9136153E-01
         -1   -1    0    0    0  501 -0.00000000000E+00  0.00000000000E+00  0.17638992909E+04  0.17638992909E+04  0.00000000000E+00 0.  1.
          1   -1    0    0  501    0  0.00000000000E+00 -0.00000000000E+00 -0.11647497868E+04  0.11647497868E+04  0.00000000000E+00 0. -1.
         23    2    1    2    0    0  0.24147911329E+03  0.11349225286E+04 -0.45541986613E+03  0.12495830300E+04  0.87688004216E+02 0.  0.
    5000000    2    1    2    0    0 -0.24147911329E+03 -0.11349225286E+04  0.10545693703E+04  0.16790660478E+04  0.60065375031E+03 0.  0.
         23    2    4    4    0    0 -0.28250692609E+02 -0.46406011157E+03  0.79004210921E+03  0.92121716104E+03  0.91239436091E+02 0.  0.
         23    2    4    4    0    0 -0.21322842068E+03 -0.67086241708E+03  0.26452726109E+03  0.75784888671E+03  0.94008091086E+02 0.  0.
          5    1    3    3  502    0  0.12646652425E+03  0.39666032207E+03 -0.15531878861E+03  0.44438632850E+03  0.47000000000E+01 0. -1.
         -5    1    3    3    0  502  0.11501258904E+03  0.73826220658E+03 -0.30010107752E+03  0.80519670145E+03  0.47000000000E+01 0.  1.
         11    1    5    5    0    0  0.22823362721E+02 -0.32216796287E+03  0.53611674814E+03  0.62588678675E+03  0.00000000000E+00 0. -1.
        -11    1    5    5    0    0 -0.51074055330E+02 -0.14189214870E+03  0.25392536106E+03  0.29533037430E+03  0.00000000000E+00 0.  1.
          4    1    6    6  503    0 -0.65587082166E+02 -0.36124796370E+03  0.13429880990E+03  0.39094491551E+03  0.00000000000E+00 0. -1.
         -4    1    6    6    0  503 -0.14764133852E+03 -0.30961445339E+03  0.13022845120E+03  0.36690397121E+03  0.00000000000E+00 0.  1.
<mgrwt>
<rscale>  0 0.11737448E+04</rscale>
<asrwt>0</asrwt>
<pdfrwt beam="1">  1        1 0.17919227E+00 0.11737448E+04</pdfrwt>
<pdfrwt beam="2">  1       -1 0.27136912E+00 0.11737448E+04</pdfrwt>
<totfact> 0.56618540E-01</totfact>
</mgrwt>
</event>
<event>
12    1  0.3203156E-008  0.5280557E+03  0.7818608E-02  0.1006705E+00
          1   -1    0    0  501    0  0.00000000000E+00  0.00000000000E+00  0.53091457376E+03  0.53091457376E+03  0.00000000000E+00 0. -1.
         -1   -1    0    0    0  501 -0.00000000000E+00 -0.00000000000E+00 -0.22701751616E+04  0.22701751616E+04  0.00000000000E+00 0.  1.
         23    2    1    2    0    0 -0.22833702854E+03 -0.45940117573E+03 -0.19216710249E+04  0.19909807696E+04  0.89429625798E+02 0.  0.
    5000000    2    1    2    0    0  0.22833702854E+03  0.45940117573E+03  0.18241043703E+03  0.81010896583E+03  0.59984642210E+03 0.  0.
         23    2    4    4    0    0  0.14814798758E+03  0.29073207176E+03  0.38959152746E+03  0.51622314295E+03  0.90729329757E+02 0.  0.
         23    2    4    4    0    0  0.80189040959E+02  0.16866910397E+03 -0.20718109043E+03  0.29388582287E+03  0.92549034177E+02 0.  0.
          5    1    3    3  502    0 -0.18545949456E+03 -0.30169995633E+03 -0.12098921531E+04  0.12606661730E+04  0.47000000000E+01 0. -1.
         -5    1    3    3    0  502 -0.42877533973E+02 -0.15770121940E+03 -0.71177887185E+03  0.73031459654E+03  0.47000000000E+01 0.  1.
         13    1    5    5    0    0  0.17374280738E+02  0.89648548619E+01  0.60939990427E+02  0.63999349114E+02  0.00000000000E+00 0. -1.
        -13    1    5    5    0    0  0.13077370684E+03  0.28176721690E+03  0.32865153703E+03  0.45222379384E+03  0.00000000000E+00 0.  1.
          1    1    6    6  503    0  0.45693110987E+02  0.11190927407E+02 -0.51987189495E+02  0.70112517566E+02  0.00000000000E+00 0. -1.
         -1    1    6    6    0  503  0.34495929973E+02  0.15747817657E+03 -0.15519390094E+03  0.22377330531E+03  0.00000000000E+00 0.  1.
<mgrwt>
<rscale>  0 0.52805570E+03</rscale>
<asrwt>0</asrwt>
<pdfrwt beam="1">  1        1 0.81679166E-01 0.52805570E+03</pdfrwt>
<pdfrwt beam="2">  1       -1 0.34925772E+00 0.52805570E+03</pdfrwt>
<totfact> 0.71926605E-01</totfact>
</mgrwt>
</event>
<event>
12    1  0.3203156E-008  0.4175971E+03  0.7818608E-02  0.1037851E+00
          2   -1    0    0  501    0  0.00000000000E+00  0.00000000000E+00  0.39078811747E+03  0.39078811747E+03  0.00000000000E+00 0. -1.
         -2   -1    0    0    0  501 -0.00000000000E+00 -0.00000000000E+00 -0.94329465386E+03  0.94329465386E+03  0.00000000000E+00 0.  1.
         23    2    1    2    0    0 -0.18453506365E+03 -0.13132292733E+03  0.22157523233E+03  0.32961908616E+03  0.90852943953E+02 0.  0.
    5000000    2    1    2    0    0  0.18453506365E+03  0.13132292733E+03 -0.77408176871E+03  0.10044636852E+04  0.59870344011E+03 0.  0.
         23    2    4    4    0    0  0.32812437367E+02  0.34386814093E+03 -0.50820786374E+03  0.62130528064E+03  0.91777255322E+02 0.  0.
         23    2    4    4    0    0  0.15172262628E+03 -0.21254521359E+03 -0.26587390497E+03  0.38315840452E+03  0.89029244992E+02 0.  0.
          5    1    3    3  502    0 -0.49350865613E+02 -0.22636823146E+02  0.90349229727E+01  0.55241773433E+02  0.47000000000E+01 0. -1.
         -5    1    3    3    0  502 -0.13518419803E+03 -0.10868610419E+03  0.21254030935E+03  0.27437731273E+03  0.47000000000E+01 0.  1.
         11    1    5    5    0    0  0.16505950879E+01  0.10938934353E+03 -0.93647368579E+02  0.14400896702E+03  0.00000000000E+00 0. -1.
        -11    1    5    5    0    0  0.31161842279E+02  0.23447879740E+03 -0.41456049516E+03  0.47729631362E+03  0.00000000000E+00 0.  1.
          3    1    6    6  503    0  0.56015570883E+02 -0.84253109712E+02 -0.45859482691E+02  0.11108295472E+03  0.00000000000E+00 0. -1.
         -3    1    6    6    0  503  0.95707055396E+02 -0.12829210388E+03 -0.22001442228E+03  0.27207544980E+03  0.00000000000E+00 0.  1.
<mgrwt>
<rscale>  0 0.41759715E+03</rscale>
<asrwt>0</asrwt>
<pdfrwt beam="1">  1        2 0.60121249E-01 0.41759715E+03</pdfrwt>
<pdfrwt beam="2">  1       -2 0.14512225E+00 0.41759715E+03</pdfrwt>
<totfact> 0.27932670E+01</totfact>
</mgrwt>
</event>
<event>
12    1  0.3203156E-008  0.1155667E+04  0.7818608E-02  0.9152571E-01
         -2   -1    0    0    0  501 -0.00000000000E+00  0.00000000000E+00  0.50109777563E+03  0.50109777563E+03  0.00000000000E+00 0. -1.
          2   -1    0    0  501    0  0.00000000000E+00 -0.00000000000E+00 -0.29786584771E+04  0.29786584771E+04  0.00000000000E+00 0.  1.
         23    2    1    2    0    0  0.44597602820E+03  0.10537301921E+04 -0.10723165296E+04  0.15708330067E+04  0.91715100853E+02 0.  0.
    5000000    2    1    2    0    0 -0.44597602820E+03 -0.10537301921E+04 -0.14052441719E+04  0.19089232461E+04  0.60002903370E+03 0.  0.
         23    2    4    4    0    0 -0.18161477446E+03 -0.21350855276E+03 -0.67420581160E+02  0.30447447934E+03  0.97925203078E+02 0.  0.
         23    2    4    4    0    0 -0.26436125374E+03 -0.84022163934E+03 -0.13378235907E+04  0.16044487667E+04  0.92868775522E+02 0.  0.
          5    1    3    3  502    0  0.19205031119E+03  0.47320186919E+03 -0.41772320013E+03  0.65978639949E+03  0.47000000000E+01 0. -1.
         -5    1    3    3    0  502  0.25392571701E+03  0.58052832291E+03 -0.65459332947E+03  0.91104660717E+03  0.47000000000E+01 0.  1.
         11    1    5    5    0    0 -0.11329605060E+03 -0.17005273784E+03 -0.85513174877E+02  0.22150943954E+03  0.00000000000E+00 0. -1.
        -11    1    5    5    0    0 -0.68318723863E+02 -0.43455814922E+02  0.18092593718E+02  0.82965039795E+02  0.00000000000E+00 0.  1.
          4    1    6    6  503    0 -0.70526643397E+02 -0.17196821923E+03 -0.22294372803E+03  0.29026019659E+03  0.00000000000E+00 0. -1.
         -4    1    6    6    0  503 -0.19383461034E+03 -0.66825342011E+03 -0.11148798627E+04  0.13141885701E+04  0.00000000000E+00 0.  1.
<mgrwt>
<rscale>  0 0.11556669E+04</rscale>
<asrwt>0</asrwt>
<pdfrwt beam="1">  1        2 0.45825515E+00 0.11556669E+04</pdfrwt>
<pdfrwt beam="2">  1       -2 0.77091965E-01 0.11556669E+04</pdfrwt>
<totfact> 0.26946060E+00</totfact>
</mgrwt>
</event>
<event>
12    1  0.3203156E-008  0.8564724E+03  0.7818608E-02  0.9481691E-01
         -2   -1    0    0    0  501 -0.00000000000E+00  0.00000000000E+00  0.81095000391E+03  0.81095000391E+03  0.00000000000E+00 0.  1.
          2   -1    0    0  501    0  0.00000000000E+00 -0.00000000000E+00 -0.12278794942E+04  0.12278794942E+04  0.00000000000E+00 0. -1.
         23    2    1    2    0    0 -0.13472719539E+02  0.80007664257E+03 -0.62271924881E+03  0.10176781340E+04  0.87094049390E+02 0.  0.
    5000000    2    1    2    0    0  0.13472719539E+02 -0.80007664257E+03  0.20578975857E+03  0.10211513641E+04  0.60008044079E+03 0.  0.
         23    2    4    4    0    0 -0.10681045184E+03 -0.50320036877E+02 -0.11876156974E+03  0.19071054381E+03  0.91244848293E+02 0.  0.
         23    2    4    4    0    0  0.12028317138E+03 -0.74975660570E+03  0.32455132831E+03  0.83044082025E+03  0.87723327145E+02 0.  0.
          5    1    3    3  502    0  0.62144011774E+01  0.66575457349E+03 -0.48100140034E+03  0.82137214954E+03  0.47000000000E+01 0. -1.
         -5    1    3    3    0  502 -0.19687120716E+02  0.13432206908E+03 -0.14171784847E+03  0.19630598448E+03  0.47000000000E+01 0.  1.
         13    1    5    5    0    0  0.10962318644E+02  0.10855582068E+02 -0.59734136764E+01  0.16543813437E+02  0.00000000000E+00 0.  1.
        -13    1    5    5    0    0 -0.11777277048E+03 -0.61175618945E+02 -0.11278815606E+03  0.17416673037E+03  0.00000000000E+00 0. -1.
          1    1    6    6  503    0  0.37153898231E+01 -0.24869179144E+03  0.83883966974E+02  0.26248415413E+03  0.00000000000E+00 0. -1.
         -1    1    6    6    0  503  0.11656778155E+03 -0.50106481425E+03  0.24066736134E+03  0.56795666612E+03  0.00000000000E+00 0.  1.
<mgrwt>
<rscale>  0 0.85647241E+03</rscale>
<asrwt>0</asrwt>
<pdfrwt beam="1">  1        2 0.18890454E+00 0.85647241E+03</pdfrwt>
<pdfrwt beam="2">  1       -2 0.12476154E+00 0.85647241E+03</pdfrwt>
<totfact> 0.88474506E+00</totfact>
</mgrwt>
</event>
<event>
12    1  0.3203156E-008  0.4665958E+03  0.7818608E-02  0.1022885E+00
         -2   -1    0    0    0  501 -0.00000000000E+00  0.00000000000E+00  0.26569577126E+03  0.26569577126E+03  0.00000000000E+00 0.  1.
          2   -1    0    0  501    0  0.00000000000E+00 -0.00000000000E+00 -0.18173504175E+04  0.18173504175E+04  0.00000000000E+00 0. -1.
         23    2    1    2    0    0  0.24408967902E+03  0.28761145702E+03 -0.12017916774E+02  0.38811507719E+03  0.90491774225E+02 0.  0.
    5000000    2    1    2    0    0 -0.24408967902E+03 -0.28761145702E+03 -0.15396367294E+04  0.16949311115E+04  0.60000841047E+03 0.  0.
         23    2    4    4    0    0  0.82982563138E+02 -0.15478357723E+03 -0.11222023740E+04  0.11397518374E+04  0.94085180031E+02 0.  0.
         23    2    4    4    0    0 -0.32707224216E+03 -0.13282787979E+03 -0.41743435543E+03  0.55517927413E+03  0.96711364809E+02 0.  0.
          5    1    3    3  502    0  0.52021935383E+02  0.12033827019E+03  0.14565938995E+02  0.13199180889E+03  0.47000000000E+01 0. -1.
         -5    1    3    3    0  502  0.19206774364E+03  0.16727318683E+03 -0.26583855769E+02  0.25612326830E+03  0.47000000000E+01 0.  1.
         11    1    5    5    0    0 -0.13559228474E+02 -0.12539631896E+02 -0.25536787608E+03  0.25603485539E+03  0.00000000000E+00 0.  1.
        -11    1    5    5    0    0  0.96541791612E+02 -0.14224394533E+03 -0.86683449793E+03  0.88371698203E+03  0.00000000000E+00 0. -1.
          1    1    6    6  503    0 -0.19732711472E+03 -0.10743771581E+03 -0.20049455900E+03  0.30112940934E+03  0.00000000000E+00 0. -1.
         -1    1    6    6    0  503 -0.12974512744E+03 -0.25390163981E+02 -0.21693979643E+03  0.25404986478E+03  0.00000000000E+00 0.  1.
<mgrwt>
<rscale>  0 0.46659583E+03</rscale>
<asrwt>0</asrwt>
<pdfrwt beam="1">  1        2 0.27959239E+00 0.46659583E+03</pdfrwt>
<pdfrwt beam="2">  1       -2 0.40876270E-01 0.46659583E+03</pdfrwt>
<totfact> 0.51176712E+01</totfact>
</mgrwt>
</event>
<event>
12    1  0.3203156E-008  0.7905057E+03  0.7818608E-02  0.9573862E-01
          2   -1    0    0  501    0  0.00000000000E+00  0.00000000000E+00  0.99198887748E+03  0.99198887748E+03  0.00000000000E+00 0. -1.
         -2   -1    0    0    0  501 -0.00000000000E+00 -0.00000000000E+00 -0.77198889729E+03  0.77198889729E+03  0.00000000000E+00 0.  1.
         23    2    1    2    0    0 -0.40667644495E+03 -0.64884643755E+03  0.23614423011E+02  0.77149224858E+03  0.90858231547E+02 0.  0.
    5000000    2    1    2    0    0  0.40667644495E+03  0.64884643755E+03  0.19638555718E+03  0.99248552619E+03  0.60006066545E+03 0.  0.
         23    2    4    4    0    0  0.37217234942E+03  0.37343925908E+03  0.37209535446E+03  0.65162374567E+03  0.90495387813E+02 0.  0.
         23    2    4    4    0    0  0.34504095530E+02  0.27540717847E+03 -0.17570979729E+03  0.34086178051E+03  0.90956989792E+02 0.  0.
          5    1    3    3  502    0 -0.26978938041E+03 -0.41440971590E+03  0.57603853452E+02  0.49785742572E+03  0.47000000000E+01 0. -1.
         -5    1    3    3    0  502 -0.13688706454E+03 -0.23443672165E+03 -0.33989430440E+02  0.27363482286E+03  0.47000000000E+01 0.  1.
         13    1    5    5    0    0  0.23736086146E+03  0.20365037655E+03  0.17371410932E+03  0.35775724479E+03  0.00000000000E+00 0.  1.
        -13    1    5    5    0    0  0.13481148796E+03  0.16978888253E+03  0.19838124515E+03  0.29386650089E+03  0.00000000000E+00 0. -1.
          4    1    6    6  503    0  0.11874251534E+02  0.25400541658E+03 -0.13010228386E+03  0.28563325045E+03  0.00000000000E+00 0. -1.
         -4    1    6    6    0  503  0.22629843995E+02  0.21401761892E+02 -0.45607513431E+02  0.55228530061E+02  0.00000000000E+00 0.  1.
<mgrwt>
<rscale>  0 0.79050571E+03</rscale>
<asrwt>0</asrwt>
<pdfrwt beam="1">  1        2 0.15261367E+00 0.79050571E+03</pdfrwt>
<pdfrwt beam="2">  1       -2 0.11876752E+00 0.79050571E+03</pdfrwt>
<totfact> 0.14058182E+01</totfact>
</mgrwt>
</event>
<event>
12    1  0.3203156E-008  0.7602751E+03  0.7818608E-02  0.9619367E-01
          2   -1    0    0  501    0  0.00000000000E+00  0.00000000000E+00  0.15677011356E+04  0.15677011356E+04  0.00000000000E+00 0. -1.
         -2   -1    0    0    0  501 -0.00000000000E+00 -0.00000000000E+00 -0.46563526528E+03  0.46563526528E+03  0.00000000000E+00 0.  1.
         23    2    1    2    0    0 -0.11882918138E+03  0.68618123317E+03  0.16527737642E+03  0.72088001427E+03  0.85943729918E+02 0.  0.
    5000000    2    1    2    0    0  0.11882918138E+03 -0.68618123317E+03  0.93678849392E+03  0.13124563866E+04  0.60000335447E+03 0.  0.
         23    2    4    4    0    0 -0.15195696954E+03 -0.32183870273E+03  0.70412357486E+03  0.79454879991E+03  0.94056980569E+02 0.  0.
         23    2    4    4    0    0  0.27078615092E+03 -0.36434253044E+03  0.23266491906E+03  0.51790758674E+03  0.89580605134E+02 0.  0.
          5    1    3    3  502    0 -0.33872128149E+02  0.13729326812E+03  0.42414770575E+00  0.14148863007E+03  0.47000000000E+01 0. -1.
         -5    1    3    3    0  502 -0.84957053234E+02  0.54888796505E+03  0.16485322872E+03  0.57939138420E+03  0.47000000000E+01 0.  1.
         13    1    5    5    0    0 -0.11516784127E+03 -0.16129600480E+03  0.31717198451E+03  0.37400280826E+03  0.00000000000E+00 0.  1.
        -13    1    5    5    0    0 -0.36789128266E+02 -0.16054269793E+03  0.38695159034E+03  0.42054599164E+03  0.00000000000E+00 0. -1.
          2    1    6    6  503    0  0.20243157497E+03 -0.20878194923E+03  0.16970629383E+03  0.33670264483E+03  0.00000000000E+00 0. -1.
         -2    1    6    6    0  503  0.68354575947E+02 -0.15556058121E+03  0.62958625235E+02  0.18120494190E+03  0.00000000000E+00 0.  1.
<mgrwt>
<rscale>  0 0.76027509E+03</rscale>
<asrwt>0</asrwt>
<pdfrwt beam="1">  1        2 0.24118479E+00 0.76027509E+03</pdfrwt>
<pdfrwt beam="2">  1       -2 0.71636195E-01 0.76027509E+03</pdfrwt>
<totfact> 0.21035641E+01</totfact>
</mgrwt>
</event>
<event>
12    1  0.3203156E-008  0.1343819E+04  0.7818608E-02  0.8995521E-01
          1   -1    0    0  501    0  0.00000000000E+00  0.00000000000E+00  0.10086365375E+04  0.10086365375E+04  0.00000000000E+00 0. -1.
         -1   -1    0    0    0  501 -0.00000000000E+00 -0.00000000000E+00 -0.19456955485E+04  0.19456955485E+04  0.00000000000E+00 0.  1.
         23    2    1    2    0    0  0.54227632313E+03 -0.11594343395E+04 -0.47634869945E+02  0.12841661291E+04  0.91988956073E+02 0.  0.
    5000000    2    1    2    0    0 -0.54227632313E+03  0.11594343395E+04 -0.88942414106E+03  0.16701659569E+04  0.60002285172E+03 0.  0.
         23    2    4    4    0    0 -0.20317947763E+01  0.67596424266E+03 -0.46039096851E+03  0.82289105623E+03  0.90873874104E+02 0.  0.
         23    2    4    4    0    0 -0.54024452835E+03  0.48347009684E+03 -0.42903317256E+03  0.84727490065E+03  0.90541753741E+02 0.  0.
          5    1    3    3  502    0  0.16419282963E+03 -0.36260114249E+03  0.27225483321E+02  0.39900149220E+03  0.47000000000E+01 0. -1.
         -5    1    3    3    0  502  0.37808349350E+03 -0.79683319700E+03 -0.74860353267E+02  0.88516463688E+03  0.47000000000E+01 0.  1.
         11    1    5    5    0    0 -0.23059873112E+02  0.36645918088E+03 -0.20151748822E+03  0.41884768957E+03  0.00000000000E+00 0.  1.
        -11    1    5    5    0    0  0.21028078336E+02  0.30950506178E+03 -0.25887348029E+03  0.40404336666E+03  0.00000000000E+00 0. -1.
          2    1    6    6  503    0 -0.26987638550E+03  0.29945720680E+03 -0.22205000047E+03  0.46023264211E+03  0.00000000000E+00 0.  1.
         -2    1    6    6    0  503 -0.27036814285E+03  0.18401289003E+03 -0.20698317209E+03  0.38704225854E+03  0.00000000000E+00 0. -1.
<mgrwt>
<rscale>  0 0.13438185E+04</rscale>
<asrwt>0</asrwt>
<pdfrwt beam="1">  1        1 0.15517485E+00 0.13438185E+04</pdfrwt>
<pdfrwt beam="2">  1       -1 0.29933778E+00 0.13438185E+04</pdfrwt>
<totfact> 0.48092822E-01</totfact>
</mgrwt>
</event>
<event>
12    1  0.3203156E-008  0.4167402E+03  0.7818608E-02  0.1038133E+00
         -2   -1    0    0    0  501 -0.00000000000E+00  0.00000000000E+00  0.88735100799E+02  0.88735100799E+02  0.00000000000E+00 0.  1.
          2   -1    0    0  501    0  0.00000000000E+00 -0.00000000000E+00 -0.24395989840E+04  0.24395989840E+04  0.00000000000E+00 0. -1.
         23    2    1    2    0    0 -0.15315668129E+03 -0.19820062105E+03 -0.89817720094E+03  0.93683857215E+03  0.90574669558E+02 0.  0.
    5000000    2    1    2    0    0  0.15315668129E+03  0.19820062105E+03 -0.14526866822E+04  0.15914955126E+04  0.59984907664E+03 0.  0.
         23    2    4    4    0    0 -0.12871044137E+03  0.24872972181E+03 -0.40202148929E+03  0.49837072500E+03  0.91209919722E+02 0.  0.
         23    2    4    4    0    0  0.28186712267E+03 -0.50529100753E+02 -0.10506651929E+04  0.10931247876E+04  0.94985203026E+02 0.  0.
          5    1    3    3  502    0 -0.26516509977E+02 -0.91681000750E+02 -0.42270055962E+03  0.43336633960E+03  0.47000000000E+01 0. -1.
         -5    1    3    3    0  502 -0.12664017132E+03 -0.10651962030E+03 -0.47547664132E+03  0.50347223254E+03  0.47000000000E+01 0.  1.
         11    1    5    5    0    0 -0.24683461515E+02  0.16656513534E+02 -0.10649098029E+02  0.31624610737E+02  0.00000000000E+00 0. -1.
        -11    1    5    5    0    0 -0.10402697986E+03  0.23207320827E+03 -0.39137239126E+03  0.46674611426E+03  0.00000000000E+00 0.  1.
          4    1    6    6  503    0  0.15752315071E+03 -0.11453755016E+02 -0.41070488300E+03  0.44002639970E+03  0.00000000000E+00 0. -1.
         -4    1    6    6    0  503  0.12434397196E+03 -0.39075345737E+02 -0.63996030995E+03  0.65309838793E+03  0.00000000000E+00 0.  1.
<mgrwt>
<rscale>  0 0.41674018E+03</rscale>
<asrwt>0</asrwt>
<pdfrwt beam="1">  1        2 0.37532288E+00 0.41674018E+03</pdfrwt>
<pdfrwt beam="2">  1       -2 0.13651555E-01 0.41674018E+03</pdfrwt>
<totfact> 0.16807445E+02</totfact>
</mgrwt>
</event>
<event>
12    1  0.3203156E-008  0.2180742E+04  0.7818608E-02  0.8526487E-01
         -2   -1    0    0    0  501 -0.00000000000E+00  0.00000000000E+00  0.25702163092E+04  0.25702163092E+04  0.00000000000E+00 0.  1.
          2   -1    0    0  501    0  0.00000000000E+00 -0.00000000000E+00 -0.20585285557E+04  0.20585285557E+04  0.00000000000E+00 0. -1.
         23    2    1    2    0    0  0.80185317706E+03 -0.19827486799E+04  0.98666399743E+03  0.23572038817E+04  0.92970160812E+02 0.  0.
    5000000    2    1    2    0    0 -0.80185317706E+03  0.19827486799E+04 -0.47497624397E+03  0.22715409832E+04  0.60002930018E+03 0.  0.
         23    2    4    4    0    0  0.18233384704E+02  0.62807637799E+03 -0.12047086672E+03  0.64622198414E+03  0.90979284124E+02 0.  0.
         23    2    4    4    0    0 -0.82008656176E+03  0.13546723019E+04 -0.35450537725E+03  0.16253189991E+04  0.91152466072E+02 0.  0.
          5    1    3    3  502    0  0.40561382235E+03 -0.11252469777E+04  0.54836051570E+03  0.13158361140E+04  0.47000000000E+01 0. -1.
         -5    1    3    3    0  502  0.39623935471E+03 -0.85750170221E+03  0.43830348173E+03  0.10413677677E+04  0.47000000000E+01 0.  1.
         11    1    5    5    0    0 -0.36470013532E+02  0.27673030716E+03 -0.45114012056E+02  0.28274546658E+03  0.00000000000E+00 0. -1.
        -11    1    5    5    0    0  0.54703398236E+02  0.35134607083E+03 -0.75356854667E+02  0.36347651755E+03  0.00000000000E+00 0.  1.
          3    1    6    6  503    0 -0.72501420772E+03  0.11369813926E+04 -0.30988082261E+03  0.13836178709E+04  0.00000000000E+00 0. -1.
         -3    1    6    6    0  503 -0.95072354046E+02  0.21769090926E+03 -0.44624554644E+02  0.24170112817E+03  0.00000000000E+00 0.  1.
<mgrwt>
<rscale>  0 0.21807419E+04</rscale>
<asrwt>0</asrwt>
<pdfrwt beam="1">  1        2 0.31669670E+00 0.21807419E+04</pdfrwt>
<pdfrwt beam="2">  1       -2 0.39541789E+00 0.21807419E+04</pdfrwt>
<totfact> 0.42893652E-02</totfact>
</mgrwt>
</event>
<event>
12    1  0.3203156E-008  0.9045233E+03  0.7818608E-02  0.9419945E-01
          2   -1    0    0  501    0  0.00000000000E+00  0.00000000000E+00  0.14303212615E+04  0.14303212615E+04  0.00000000000E+00 0. -1.
         -2   -1    0    0    0  501 -0.00000000000E+00 -0.00000000000E+00 -0.67466506712E+03  0.67466506712E+03  0.00000000000E+00 0.  1.
         23    2    1    2    0    0 -0.34843883010E+03  0.81339285415E+03  0.26460030599E+03  0.92844113632E+03  0.94721001803E+02 0.  0.
    5000000    2    1    2    0    0  0.34843883010E+03 -0.81339285415E+03  0.49105588837E+03  0.11765451923E+04  0.60008761901E+03 0.  0.
         23    2    4    4    0    0  0.14267468774E+03 -0.58799099468E+03  0.58298156612E+03  0.84507354366E+03  0.90511388240E+02 0.  0.
         23    2    4    4    0    0  0.20576414236E+03 -0.22540185946E+03 -0.91925677758E+02  0.33147164863E+03  0.90984850826E+02 0.  0.
          5    1    3    3  502    0 -0.45801878093E+02  0.14853860499E+03  0.13981968426E+02  0.15613812683E+03  0.47000000000E+01 0. -1.
         -5    1    3    3    0  502 -0.30263695201E+03  0.66485424915E+03  0.25061833756E+03  0.77230300948E+03  0.47000000000E+01 0.  1.
         13    1    5    5    0    0  0.96022577663E+02 -0.21856591723E+03  0.24758389484E+03  0.34393194179E+03  0.00000000000E+00 0. -1.
        -13    1    5    5    0    0  0.46652110074E+02 -0.36942507745E+03  0.33539767128E+03  0.50114160187E+03  0.00000000000E+00 0.  1.
          1    1    6    6  503    0  0.14654583408E+03 -0.11358970791E+03 -0.87102585741E+02  0.20485400576E+03  0.00000000000E+00 0. -1.
         -1    1    6    6    0  503  0.59218308280E+02 -0.11181215155E+03 -0.48230920167E+01  0.12661764287E+03  0.00000000000E+00 0.  1.
<mgrwt>
<rscale>  0 0.90452329E+03</rscale>
<asrwt>0</asrwt>
<pdfrwt beam="1">  1        2 0.22004942E+00 0.90452329E+03</pdfrwt>
<pdfrwt beam="2">  1       -2 0.10379463E+00 0.90452329E+03</pdfrwt>
<totfact> 0.10556497E+01</totfact>
</mgrwt>
</event>
<event>
12    1  0.3203156E-008  0.7143309E+03  0.7818608E-02  0.9693033E-01
         -1   -1    0    0    0  501 -0.00000000000E+00  0.00000000000E+00  0.38919772564E+03  0.38919772564E+03  0.00000000000E+00 0.  1.
          1   -1    0    0  501    0  0.00000000000E+00 -0.00000000000E+00 -0.15638240941E+04  0.15638240941E+04  0.00000000000E+00 0. -1.
         23    2    1    2    0    0  0.44477884839E+03 -0.48810404355E+03 -0.57355710935E+03  0.87722548463E+03  0.66955297667E+02 0.  0.
    5000000    2    1    2    0    0 -0.44477884839E+03  0.48810404355E+03 -0.60106925908E+03  0.10757963351E+04  0.59998309900E+03 0.  0.
         23    2    4    4    0    0 -0.11718584070E+03  0.39763969015E+03 -0.57230193034E+02  0.42830908734E+03  0.91233408695E+02 0.  0.
         23    2    4    4    0    0 -0.32759300769E+03  0.90464353397E+02 -0.54383906605E+03  0.64748724775E+03  0.89318689626E+02 0.  0.
          5    1    3    3  502    0  0.19260480297E+03 -0.19619995960E+03 -0.28013790030E+03  0.39254345932E+03  0.47000000000E+01 0. -1.
         -5    1    3    3    0  502  0.25217404541E+03 -0.29190408395E+03 -0.29341920905E+03  0.48468202530E+03  0.47000000000E+01 0.  1.
         11    1    5    5    0    0 -0.78343199675E+02  0.32977176037E+03 -0.14640709660E+02  0.33926600368E+03  0.00000000000E+00 0.  1.
        -11    1    5    5    0    0 -0.38842641023E+02  0.67867929784E+02 -0.42589483374E+02  0.89043083666E+02  0.00000000000E+00 0. -1.
          2    1    6    6  503    0 -0.30142208004E+03  0.10694748129E+03 -0.50613984508E+03  0.59872412417E+03  0.00000000000E+00 0. -1.
         -2    1    6    6    0  503 -0.26170927644E+02 -0.16483127897E+02 -0.37699220972E+02  0.48763123577E+02  0.00000000000E+00 0.  1.
<mgrwt>
<rscale>  0 0.71433093E+03</rscale>
<asrwt>0</asrwt>
<pdfrwt beam="1">  1        1 0.24058832E+00 0.71433093E+03</pdfrwt>
<pdfrwt beam="2">  1       -1 0.59876573E-01 0.71433093E+03</pdfrwt>
<totfact> 0.17404508E+01</totfact>
</mgrwt>
</event>
<event>
12    1  0.3203156E-008  0.1005999E+04  0.7818608E-02  0.9301989E-01
         -1   -1    0    0    0  501 -0.00000000000E+00  0.00000000000E+00  0.46625586632E+03  0.46625586632E+03  0.00000000000E+00 0.  1.
          1   -1    0    0  501    0  0.00000000000E+00 -0.00000000000E+00 -0.21889901591E+04  0.21889901591E+04  0.00000000000E+00 0. -1.
         23    2    1    2    0    0 -0.15902932594E+03  0.90311393157E+03 -0.86232435017E+03  0.12619732125E+04  0.89822070643E+02 0.  0.
    5000000    2    1    2    0    0  0.15902932594E+03 -0.90311393157E+03 -0.86040994261E+03  0.13932728129E+04  0.59999896823E+03 0.  0.
         23    2    4    4    0    0  0.23706953026E+03 -0.93742061907E+03 -0.76547362380E+03  0.12365264808E+04  0.89936031209E+02 0.  0.
         23    2    4    4    0    0 -0.78040204317E+02  0.34306687503E+02 -0.94936318804E+02  0.15674633210E+03  0.91045514443E+02 0.  0.
          5    1    3    3  502    0 -0.61334308689E+02  0.38848972077E+03 -0.43016601743E+03  0.58288168021E+03  0.47000000000E+01 0. -1.
         -5    1    3    3    0  502 -0.97695017253E+02  0.51462421080E+03 -0.43215833274E+03  0.67909153234E+03  0.47000000000E+01 0.  1.
         11    1    5    5    0    0 -0.59533424146E+01 -0.59258404664E+02 -0.38907220811E+02  0.71139107673E+02  0.00000000000E+00 0.  1.
        -11    1    5    5    0    0  0.24302287267E+03 -0.87816221441E+03 -0.72656640299E+03  0.11653873731E+04  0.00000000000E+00 0. -1.
          2    1    6    6  503    0 -0.98088165790E+02  0.21811184164E+02 -0.82714354964E+02  0.13014868628E+03  0.00000000000E+00 0. -1.
         -2    1    6    6    0  503  0.20047961474E+02  0.12495503339E+02 -0.12221963840E+02  0.26597645818E+02  0.00000000000E+00 0.  1.
<mgrwt>
<rscale>  0 0.10059995E+04</rscale>
<asrwt>0</asrwt>
<pdfrwt beam="1">  1        1 0.33676771E+00 0.10059995E+04</pdfrwt>
<pdfrwt beam="2">  1       -1 0.71731673E-01 0.10059995E+04</pdfrwt>
<totfact> 0.44057523E+00</totfact>
</mgrwt>
</event>
<event>
12    1  0.3203156E-008  0.6559780E+03  0.7818608E-02  0.9795626E-01
         -2   -1    0    0    0  501 -0.00000000000E+00  0.00000000000E+00  0.87826895226E+03  0.87826895226E+03  0.00000000000E+00 0.  1.
          2   -1    0    0  501    0  0.00000000000E+00 -0.00000000000E+00 -0.86275367781E+03  0.86275367781E+03  0.00000000000E+00 0. -1.
         23    2    1    2    0    0  0.52535366813E+03  0.79802372412E+02  0.55575791471E+03  0.77432486514E+03  0.91363240700E+02 0.  0.
    5000000    2    1    2    0    0 -0.52535366813E+03 -0.79802372412E+02 -0.54024264026E+03  0.96669776494E+03  0.60023125804E+03 0.  0.
         23    2    4    4    0    0  0.14195868353E+00 -0.22089826556E+03 -0.24267364836E+03  0.34024136753E+03  0.89875606764E+02 0.  0.
         23    2    4    4    0    0 -0.52549562681E+03  0.14109589315E+03 -0.29756899190E+03  0.62645639741E+03  0.88581081767E+02 0.  0.
          5    1    3    3  502    0  0.47556725458E+03  0.43938378344E+02  0.49004091164E+03  0.68429305111E+03  0.47000000000E+01 0. -1.
         -5    1    3    3    0  502  0.49786413555E+02  0.35863994068E+02  0.65717003065E+02  0.90031814027E+02  0.47000000000E+01 0.  1.
         11    1    5    5    0    0 -0.63619185217E+01 -0.19611532288E+03 -0.15844951472E+03  0.25220615097E+03  0.00000000000E+00 0. -1.
        -11    1    5    5    0    0  0.65038772052E+01 -0.24782942685E+02 -0.84224133641E+02  0.88035216558E+02  0.00000000000E+00 0.  1.
          4    1    6    6  503    0 -0.17809065379E+03  0.90902012032E+02 -0.11814707636E+03  0.23224596533E+03  0.00000000000E+00 0. -1.
         -4    1    6    6    0  503 -0.34740497302E+03  0.50193881118E+02 -0.17942191553E+03  0.39421043207E+03  0.00000000000E+00 0.  1.
<mgrwt>
<rscale>  0 0.65597802E+03</rscale>
<asrwt>0</asrwt>
<pdfrwt beam="1">  1        2 0.13273133E+00 0.65597802E+03</pdfrwt>
<pdfrwt beam="2">  1       -2 0.13511830E+00 0.65597802E+03</pdfrwt>
<totfact> 0.12573886E+01</totfact>
</mgrwt>
</event>
<event>
12    1  0.3203156E-008  0.2214484E+04  0.7818608E-02  0.8512424E-01
         -2   -1    0    0    0  501 -0.00000000000E+00  0.00000000000E+00  0.26845963713E+04  0.26845963713E+04  0.00000000000E+00 0.  1.
          2   -1    0    0  501    0  0.00000000000E+00 -0.00000000000E+00 -0.23408060748E+04  0.23408060748E+04  0.00000000000E+00 0. -1.
         23    2    1    2    0    0  0.71024758838E+03  0.20560114625E+04  0.13425691284E+04  0.25578366737E+04  0.91661409481E+02 0.  0.
    5000000    2    1    2    0    0 -0.71024758838E+03 -0.20560114625E+04 -0.99877883191E+03  0.24675657725E+04  0.59973903966E+03 0.  0.
         23    2    4    4    0    0 -0.15205188496E+03 -0.12923318979E+04 -0.53387018179E+03  0.14091216823E+04  0.85819779632E+02 0.  0.
         23    2    4    4    0    0 -0.55819570342E+03 -0.76367956459E+03 -0.46490865012E+03  0.10584440901E+04  0.96824161663E+02 0.  0.
          5    1    3    3  502    0  0.54876453215E+03  0.14797034827E+04  0.99646439903E+03  0.18664480429E+04  0.47000000000E+01 0. -1.
         -5    1    3    3    0  502  0.16148305623E+03  0.57630797980E+03  0.34610472932E+03  0.69138863072E+03  0.47000000000E+01 0.  1.
         11    1    5    5    0    0 -0.35928438371E+02 -0.39069400850E+03 -0.12019196788E+03  0.41033982272E+03  0.00000000000E+00 0.  1.
        -11    1    5    5    0    0 -0.11612344658E+03 -0.90163788941E+03 -0.41367821390E+03  0.99878185963E+03  0.00000000000E+00 0. -1.
          4    1    6    6  503    0 -0.87962930385E+02 -0.18757511400E+03 -0.96860209180E+02  0.22870024188E+03  0.00000000000E+00 0.  1.
         -4    1    6    6    0  503 -0.47023277304E+03 -0.57610445059E+03 -0.36804844094E+03  0.82974384825E+03  0.00000000000E+00 0. -1.
<mgrwt>
<rscale>  0 0.22144837E+04</rscale>
<asrwt>0</asrwt>
<pdfrwt beam="1">  1        2 0.36012401E+00 0.22144837E+04</pdfrwt>
<pdfrwt beam="2">  1       -2 0.41301483E+00 0.22144837E+04</pdfrwt>
<totfact> 0.22606842E-02</totfact>
</mgrwt>
</event>
<event>
12    1  0.3203156E-008  0.1207506E+04  0.7818608E-02  0.9106312E-01
          1   -1    0    0  501    0  0.00000000000E+00  0.00000000000E+00  0.17843312474E+04  0.17843312474E+04  0.00000000000E+00 0. -1.
         -1   -1    0    0    0  501 -0.00000000000E+00 -0.00000000000E+00 -0.10118979629E+04  0.10118979629E+04  0.00000000000E+00 0.  1.
         23    2    1    2    0    0 -0.11889056221E+04 -0.15239011154E+03  0.81885409632E+03  0.14544333412E+04  0.90194172194E+02 0.  0.
    5000000    2    1    2    0    0  0.11889056221E+04  0.15239011154E+03 -0.46420811794E+02  0.13417958691E+04  0.60128357555E+03 0.  0.
         23    2    4    4    0    0  0.92511477730E+03  0.12705012479E+03 -0.27814906819E+03  0.97834634851E+03  0.88405814906E+02 0.  0.
         23    2    4    4    0    0  0.26379084476E+03  0.25339986750E+02  0.23172825640E+03  0.36344952056E+03  0.90387191998E+02 0.  0.
          5    1    3    3  502    0 -0.35391874958E+03 -0.48772650233E+02  0.19553574052E+03  0.40730034193E+03  0.47000000000E+01 0. -1.
         -5    1    3    3    0  502 -0.83498687248E+03 -0.10361746130E+03  0.62331835581E+03  0.10471329993E+04  0.47000000000E+01 0.  1.
         13    1    5    5    0    0  0.71820584691E+03  0.12827592401E+03 -0.19356219186E+03  0.75481168070E+03  0.00000000000E+00 0. -1.
        -13    1    5    5    0    0  0.20690893040E+03 -0.12257992254E+01 -0.84586876336E+02  0.22353466781E+03  0.00000000000E+00 0.  1.
          2    1    6    6  503    0  0.45065633077E+02  0.40484893161E+02  0.45078488662E+02  0.75511641479E+02  0.00000000000E+00 0. -1.
         -2    1    6    6    0  503  0.21872521168E+03 -0.15144906410E+02  0.18664976774E+03  0.28793787908E+03  0.00000000000E+00 0.  1.
<mgrwt>
<rscale>  0 0.12075060E+04</rscale>
<asrwt>0</asrwt>
<pdfrwt beam="1">  1        1 0.27451250E+00 0.12075060E+04</pdfrwt>
<pdfrwt beam="2">  1       -1 0.15567661E+00 0.12075060E+04</pdfrwt>
<totfact> 0.12910337E+00</totfact>
</mgrwt>
</event>
<event>
12    1  0.3203156E-008  0.6457799E+03  0.7818608E-02  0.9814730E-01
         -1   -1    0    0    0  501 -0.00000000000E+00  0.00000000000E+00  0.20942229211E+03  0.20942229211E+03  0.00000000000E+00 0.  1.
          1   -1    0    0  501    0  0.00000000000E+00 -0.00000000000E+00 -0.21455397396E+04  0.21455397396E+04  0.00000000000E+00 0. -1.
         23    2    1    2    0    0 -0.48642378163E+03 -0.21154767812E+03 -0.79845595655E+03  0.96369841342E+03  0.99107023012E+02 0.  0.
    5000000    2    1    2    0    0  0.48642378163E+03  0.21154767812E+03 -0.11376614909E+04  0.13912636183E+04  0.59998355991E+03 0.  0.
         23    2    4    4    0    0  0.22896555324E+03  0.37637607098E+03 -0.46879463854E+03  0.65014780313E+03  0.94019048152E+02 0.  0.
         23    2    4    4    0    0  0.25745822839E+03 -0.16482839286E+03 -0.66886685241E+03  0.74111581516E+03  0.91742284573E+02 0.  0.
          5    1    3    3  502    0 -0.22944049076E+03 -0.93794654232E+02 -0.46127497870E+03  0.52367649550E+03  0.47000000000E+01 0. -1.
         -5    1    3    3    0  502 -0.25698329087E+03 -0.11775302389E+03 -0.33718097785E+03  0.44002191792E+03  0.47000000000E+01 0.  1.
         13    1    5    5    0    0  0.13111230672E+03  0.26042265663E+03 -0.25104889600E+03  0.38475439601E+03  0.00000000000E+00 0. -1.
        -13    1    5    5    0    0  0.97853246522E+02  0.11595341435E+03 -0.21774574254E+03  0.26539340713E+03  0.00000000000E+00 0.  1.
          1    1    6    6  503    0  0.90943416169E+02 -0.10912447372E+03 -0.26339017765E+03  0.29925447597E+03  0.00000000000E+00 0. -1.
         -1    1    6    6    0  503  0.16651481222E+03 -0.55703919139E+02 -0.40547667476E+03  0.44186133919E+03  0.00000000000E+00 0.  1.
<mgrwt>
<rscale>  0 0.64577992E+03</rscale>
<asrwt>0</asrwt>
<pdfrwt beam="1">  1        1 0.33008302E+00 0.64577992E+03</pdfrwt>
<pdfrwt beam="2">  1       -1 0.32218816E-01 0.64577992E+03</pdfrwt>
<totfact> 0.22591250E+01</totfact>
</mgrwt>
</event>
<event>
12    1  0.3203156E-008  0.4681285E+03  0.7818608E-02  0.1022450E+00
         -2   -1    0    0    0  501 -0.00000000000E+00  0.00000000000E+00  0.27807644092E+03  0.27807644092E+03  0.00000000000E+00 0.  1.
          2   -1    0    0  501    0  0.00000000000E+00 -0.00000000000E+00 -0.12340005880E+04  0.12340005880E+04  0.00000000000E+00 0. -1.
         23    2    1    2    0    0 -0.28639132282E+03  0.31543169650E+03 -0.37397765551E+03  0.57413512691E+03  0.90855446661E+02 0.  0.
    5000000    2    1    2    0    0  0.28639132282E+03 -0.31543169650E+03 -0.58194649160E+03  0.93794190204E+03  0.59963000890E+03 0.  0.
         23    2    4    4    0    0  0.30421045815E+03 -0.28823233514E+03 -0.91458283330E+02  0.43828036555E+03  0.90017661460E+02 0.  0.
         23    2    4    4    0    0 -0.17819135324E+02 -0.27199361357E+02 -0.49048820827E+03  0.49966153649E+03  0.89585946166E+02 0.  0.
          5    1    3    3  502    0 -0.25525251164E+03  0.29575786249E+03 -0.36761883317E+03  0.53646272417E+03  0.47000000000E+01 0. -1.
         -5    1    3    3    0  502 -0.31138811188E+02  0.19673834011E+02 -0.63588223378E+01  0.37672402743E+02  0.47000000000E+01 0.  1.
         11    1    5    5    0    0  0.11643839073E+03 -0.15246622230E+03 -0.80477738098E+01  0.19201201640E+03  0.00000000000E+00 0.  1.
        -11    1    5    5    0    0  0.18777206741E+03 -0.13576611284E+03 -0.83410509520E+02  0.24626834916E+03  0.00000000000E+00 0. -1.
          4    1    6    6  503    0 -0.11458234806E+02 -0.55085226402E+02 -0.41741681362E+03  0.42119172547E+03  0.00000000000E+00 0. -1.
         -4    1    6    6    0  503 -0.63609005186E+01  0.27885865045E+02 -0.73071394647E+02  0.78469811013E+02  0.00000000000E+00 0.  1.
<mgrwt>
<rscale>  0 0.46812855E+03</rscale>
<asrwt>0</asrwt>
<pdfrwt beam="1">  1        2 0.18984625E+00 0.46812855E+03</pdfrwt>
<pdfrwt beam="2">  1       -2 0.42780990E-01 0.46812855E+03</pdfrwt>
<totfact> 0.97922009E+01</totfact>
</mgrwt>
</event>
<event>
12    1  0.3203156E-008  0.6709272E+03  0.7818608E-02  0.9768284E-01
         -2   -1    0    0    0  501 -0.00000000000E+00  0.00000000000E+00  0.17991307831E+03  0.17991307831E+03  0.00000000000E+00 0.  1.
          2   -1    0    0  501    0  0.00000000000E+00 -0.00000000000E+00 -0.26493303108E+04  0.26493303108E+04  0.00000000000E+00 0. -1.
         23    2    1    2    0    0  0.44238446106E+03 -0.30965616039E+03 -0.12772715348E+04  0.13891556926E+04  0.82097597814E+02 0.  0.
    5000000    2    1    2    0    0 -0.44238446106E+03  0.30965616039E+03 -0.11921456976E+04  0.14400876965E+04  0.60087457932E+03 0.  0.
         23    2    4    4    0    0  0.11699811573E+03  0.15314933830E+03 -0.24896895857E+03  0.32864988728E+03  0.94243976846E+02 0.  0.
         23    2    4    4    0    0 -0.55938257679E+03  0.15650682209E+03 -0.94317673907E+03  0.11114378092E+04  0.91150370308E+02 0.  0.
          5    1    3    3  502    0  0.24354052774E+02 -0.30815288883E+02 -0.14660301481E+03  0.15184609270E+03  0.47000000000E+01 0. -1.
         -5    1    3    3    0  502  0.41803040829E+03 -0.27884087150E+03 -0.11306685200E+04  0.12373095999E+04  0.47000000000E+01 0.  1.
         11    1    5    5    0    0 -0.80177816723E+01 -0.71922287226E+01 -0.17657732342E+02  0.20683531816E+02  0.00000000000E+00 0.  1.
        -11    1    5    5    0    0  0.12501589740E+03  0.16034156702E+03 -0.23131122623E+03  0.30796635546E+03  0.00000000000E+00 0. -1.
          3    1    6    6  503    0 -0.55794098380E+03  0.16121566209E+03 -0.92176813329E+03  0.10894701110E+04  0.00000000000E+00 0. -1.
         -3    1    6    6    0  503 -0.14415929850E+01 -0.47088400039E+01 -0.21408605783E+02  0.21967698243E+02  0.00000000000E+00 0.  1.
<mgrwt>
<rscale>  0 0.67092718E+03</rscale>
<asrwt>0</asrwt>
<pdfrwt beam="1">  1        2 0.40758927E+00 0.67092718E+03</pdfrwt>
<pdfrwt beam="2">  1       -2 0.27678936E-01 0.67092718E+03</pdfrwt>
<totfact> 0.35874485E+01</totfact>
</mgrwt>
</event>
<event>
12    1  0.3203156E-008  0.8340540E+03  0.7818608E-02  0.9511993E-01
          2   -1    0    0  501    0  0.00000000000E+00  0.00000000000E+00  0.13551693463E+04  0.13551693463E+04  0.00000000000E+00 0. -1.
         -2   -1    0    0    0  501 -0.00000000000E+00 -0.00000000000E+00 -0.51745792399E+03  0.51745792399E+03  0.00000000000E+00 0.  1.
         23    2    1    2    0    0  0.66654648521E+03 -0.28615509107E+03  0.41278702999E+03  0.83972171697E+03  0.92576869277E+02 0.  0.
    5000000    2    1    2    0    0 -0.66654648521E+03  0.28615509107E+03  0.42492439233E+03  0.10329055533E+04  0.60013680925E+03 0.  0.
         23    2    4    4    0    0 -0.65085037326E+03  0.21136114231E+02  0.33659262532E+03  0.73881399305E+03  0.92187728120E+02 0.  0.
         23    2    4    4    0    0 -0.15696111956E+02  0.26501897684E+03  0.88331767009E+02  0.29409156028E+03  0.90586526306E+02 0.  0.
          5    1    3    3  502    0  0.30620456514E+03 -0.84889125537E+02  0.19787040957E+03  0.37435569761E+03  0.47000000000E+01 0. -1.
         -5    1    3    3    0  502  0.36034192007E+03 -0.20126596554E+03  0.21491662042E+03  0.46536601936E+03  0.47000000000E+01 0.  1.
         11    1    5    5    0    0 -0.48275661192E+03  0.54066872313E+02  0.26280795515E+03  0.55230896636E+03  0.00000000000E+00 0. -1.
        -11    1    5    5    0    0 -0.16809376134E+03 -0.32930758082E+02  0.73784670167E+02  0.18650502669E+03  0.00000000000E+00 0.  1.
          3    1    6    6  503    0 -0.53124258483E+02  0.17809256105E+03  0.56715121868E+02  0.19430839454E+03  0.00000000000E+00 0. -1.
         -3    1    6    6    0  503  0.37428146527E+02  0.86926415793E+02  0.31616645141E+02  0.99783165740E+02  0.00000000000E+00 0.  1.
<mgrwt>
<rscale>  0 0.83405398E+03</rscale>
<asrwt>0</asrwt>
<pdfrwt beam="1">  1        2 0.20848759E+00 0.83405398E+03</pdfrwt>
<pdfrwt beam="2">  1       -2 0.79608912E-01 0.83405398E+03</pdfrwt>
<totfact> 0.21720181E+01</totfact>
</mgrwt>
</event>
<event>
12    1  0.3203156E-008  0.6517074E+03  0.7818608E-02  0.9803581E-01
         -2   -1    0    0    0  501 -0.00000000000E+00  0.00000000000E+00  0.15300122793E+03  0.15300122793E+03  0.00000000000E+00 0.  1.
          2   -1    0    0  501    0  0.00000000000E+00 -0.00000000000E+00 -0.29569547079E+04  0.29569547079E+04  0.00000000000E+00 0. -1.
         23    2    1    2    0    0 -0.33491372288E+03 -0.41122442629E+03 -0.96942407652E+03  0.11082722906E+04  0.84921724681E+02 0.  0.
    5000000    2    1    2    0    0  0.33491372288E+03  0.41122442629E+03 -0.18345294034E+04  0.20016836452E+04  0.59997212691E+03 0.  0.
         23    2    4    4    0    0  0.64833796843E+02  0.46738960462E+03 -0.13945301606E+04  0.14750646254E+04  0.91895684238E+02 0.  0.
         23    2    4    4    0    0  0.27007992604E+03 -0.56165178324E+02 -0.43999924283E+03  0.52661901978E+03  0.87353102972E+02 0.  0.
          5    1    3    3  502    0 -0.28652768946E+03 -0.30903989133E+03 -0.80530000352E+03  0.90891911462E+03  0.47000000000E+01 0. -1.
         -5    1    3    3    0  502 -0.48386033421E+02 -0.10218453496E+03 -0.16412407301E+03  0.19935317594E+03  0.47000000000E+01 0.  1.
         13    1    5    5    0    0 -0.20978636550E+02  0.96697641712E+02 -0.24626288878E+03  0.26539771570E+03  0.00000000000E+00 0.  1.
        -13    1    5    5    0    0  0.85812433393E+02  0.37069196290E+03 -0.11482672718E+04  0.12096669098E+04  0.00000000000E+00 0. -1.
          1    1    6    6  503    0  0.27575844508E+03 -0.48777911446E+02 -0.42612659043E+03  0.50990771297E+03  0.00000000000E+00 0. -1.
         -1    1    6    6    0  503 -0.56785190476E+01 -0.73872668785E+01 -0.13872652405E+02  0.16711306809E+02  0.00000000000E+00 0.  1.
<mgrwt>
<rscale>  0 0.65170737E+03</rscale>
<asrwt>0</asrwt>
<pdfrwt beam="1">  1        2 0.45491610E+00 0.65170737E+03</pdfrwt>
<pdfrwt beam="2">  1       -2 0.23538651E-01 0.65170737E+03</pdfrwt>
<totfact> 0.31765843E+01</totfact>
</mgrwt>
</event>
<event>
12    1  0.3203156E-008  0.1482350E+04  0.7818608E-02  0.8896276E-01
          1   -1    0    0  501    0  0.00000000000E+00  0.00000000000E+00  0.12199790942E+04  0.12199790942E+04  0.00000000000E+00 0. -1.
         -1   -1    0    0    0  501 -0.00000000000E+00 -0.00000000000E+00 -0.20484934142E+04  0.20484934142E+04  0.00000000000E+00 0.  1.
         23    2    1    2    0    0  0.41471175178E+03  0.14114146469E+04 -0.80597547054E+03  0.16795665915E+04  0.85266252034E+02 0.  0.
    5000000    2    1    2    0    0 -0.41471175178E+03 -0.14114146469E+04 -0.22538849433E+02  0.15889059169E+04  0.60003072472E+03 0.  0.
         23    2    4    4    0    0 -0.39279792002E+03 -0.92797158770E+03 -0.25623677313E+03  0.10437366911E+04  0.91145613184E+02 0.  0.
         23    2    4    4    0    0 -0.21913831762E+02 -0.48344305916E+03  0.23369792369E+03  0.54516922585E+03  0.91637098399E+02 0.  0.
          5    1    3    3  502    0  0.33623815156E+03  0.11451259845E+04 -0.61535000548E+03  0.13427759806E+04  0.47000000000E+01 0. -1.
         -5    1    3    3    0  502  0.78473600220E+02  0.26628866234E+03 -0.19062546506E+03  0.33679061085E+03  0.47000000000E+01 0.  1.
         13    1    5    5    0    0 -0.83832145004E+01 -0.56754254684E+02 -0.30976813870E+02  0.65198824434E+02  0.00000000000E+00 0.  1.
        -13    1    5    5    0    0 -0.38441470552E+03 -0.87121733301E+03 -0.22525995926E+03  0.97853786662E+03  0.00000000000E+00 0. -1.
          4    1    6    6  503    0 -0.62302434147E+01 -0.15418282960E+03  0.12336648278E+03  0.19756125620E+03  0.00000000000E+00 0. -1.
         -4    1    6    6    0  503 -0.15683588347E+02 -0.32926022956E+03  0.11033144092E+03  0.34760796966E+03  0.00000000000E+00 0.  1.
<mgrwt>
<rscale>  0 0.14823496E+04</rscale>
<asrwt>0</asrwt>
<pdfrwt beam="1">  1        1 0.18768909E+00 0.14823496E+04</pdfrwt>
<pdfrwt beam="2">  1       -1 0.31515283E+00 0.14823496E+04</pdfrwt>
<totfact> 0.25853944E-01</totfact>
</mgrwt>
</event>
<event>
12    1  0.3203156E-008  0.6648955E+03  0.7818608E-02  0.9779223E-01
          2   -1    0    0  501    0  0.00000000000E+00  0.00000000000E+00  0.61043793285E+03  0.61043793285E+03  0.00000000000E+00 0. -1.
         -2   -1    0    0    0  501 -0.00000000000E+00 -0.00000000000E+00 -0.81130350492E+03  0.81130350492E+03  0.00000000000E+00 0.  1.
         23    2    1    2    0    0  0.38739816049E+03  0.39148725766E+03 -0.23680783414E+03  0.60634110645E+03  0.90730256233E+02 0.  0.
    5000000    2    1    2    0    0 -0.38739816049E+03 -0.39148725766E+03  0.35942262078E+02  0.81540033133E+03  0.60020517031E+03 0.  0.
         23    2    4    4    0    0 -0.48938427329E+03 -0.40675359324E+03  0.12045404973E+03  0.65403702572E+03  0.91158106434E+02 0.  0.
         23    2    4    4    0    0  0.10198611280E+03  0.15266335581E+02 -0.84511787648E+02  0.16136330560E+03  0.90893596791E+02 0.  0.
          5    1    3    3  502    0  0.16125935902E+03  0.22062120824E+03 -0.13771614369E+03  0.30604921929E+03  0.47000000000E+01 0. -1.
         -5    1    3    3    0  502  0.22613880147E+03  0.17086604942E+03 -0.99091690458E+02  0.30029188716E+03  0.47000000000E+01 0.  1.
         13    1    5    5    0    0 -0.42092972351E+02 -0.95181287946E+01  0.19512414322E+02  0.47361877178E+02  0.00000000000E+00 0. -1.
        -13    1    5    5    0    0 -0.44729130093E+03 -0.39723546445E+03  0.10094163540E+03  0.60667514855E+03  0.00000000000E+00 0.  1.
          3    1    6    6  503    0  0.29293149654E+02  0.44503720040E+02 -0.12016304742E+02  0.54617408339E+02  0.00000000000E+00 0. -1.
         -3    1    6    6    0  503  0.72692963145E+02 -0.29237384459E+02 -0.72495482906E+02  0.10674589726E+03  0.00000000000E+00 0.  1.
<mgrwt>
<rscale>  0 0.66489549E+03</rscale>
<asrwt>0</asrwt>
<pdfrwt beam="1">  1        2 0.93913528E-01 0.66489549E+03</pdfrwt>
<pdfrwt beam="2">  1       -2 0.12481592E+00 0.66489549E+03</pdfrwt>
<totfact> 0.23868180E+01</totfact>
</mgrwt>
</event>
<event>
12    1  0.3203156E-008  0.6293922E+03  0.7818608E-02  0.9846236E-01
         -2   -1    0    0    0  501 -0.00000000000E+00  0.00000000000E+00  0.22300965361E+04  0.22300965361E+04  0.00000000000E+00 0.  1.
          2   -1    0    0  501    0  0.00000000000E+00 -0.00000000000E+00 -0.19352218254E+03  0.19352218254E+03  0.00000000000E+00 0. -1.
         23    2    1    2    0    0 -0.49316894800E+03  0.81919887095E+02  0.58401091009E+03  0.77440215435E+03  0.93292413302E+02 0.  0.
    5000000    2    1    2    0    0  0.49316894800E+03 -0.81919887095E+02  0.14525634435E+04  0.16492165643E+04  0.60004019821E+03 0.  0.
         23    2    4    4    0    0  0.97676210064E+02 -0.27839426364E+03  0.40729628622E+03  0.51106077709E+03  0.90823152727E+02 0.  0.
         23    2    4    4    0    0  0.39549273794E+03  0.19647437654E+03  0.10452671573E+04  0.11381557872E+04  0.88309000277E+02 0.  0.
          5    1    3    3  502    0 -0.26126179703E+03  0.87532368304E+02  0.29328771562E+03  0.40244181719E+03  0.47000000000E+01 0. -1.
         -5    1    3    3    0  502 -0.23190715097E+03 -0.56124812090E+01  0.29072319447E+03  0.37196033715E+03  0.47000000000E+01 0.  1.
         13    1    5    5    0    0  0.75294122963E+02 -0.11766331195E+03  0.13617872848E+03  0.19508589396E+03  0.00000000000E+00 0.  1.
        -13    1    5    5    0    0  0.22382087101E+02 -0.16073095169E+03  0.27111755774E+03  0.31597488313E+03  0.00000000000E+00 0. -1.
          2    1    6    6  503    0  0.34864029931E+03  0.20050958516E+03  0.95861178354E+03  0.10395627463E+04  0.00000000000E+00 0. -1.
         -2    1    6    6    0  503  0.46852438625E+02 -0.40352086213E+01  0.86655373715E+02  0.98593040867E+02  0.00000000000E+00 0.  1.
<mgrwt>
<rscale>  0 0.62939220E+03</rscale>
<asrwt>0</asrwt>
<pdfrwt beam="1">  1        2 0.29772645E-01 0.62939220E+03</pdfrwt>
<pdfrwt beam="2">  1       -2 0.34309176E+00 0.62939220E+03</pdfrwt>
<totfact> 0.32997600E+00</totfact>
</mgrwt>
</event>
<event>
12    1  0.3203156E-008  0.4469562E+03  0.7818608E-02  0.1028634E+00
         -1   -1    0    0    0  501 -0.00000000000E+00  0.00000000000E+00  0.43069703956E+03  0.43069703956E+03  0.00000000000E+00 0.  1.
          1   -1    0    0  501    0  0.00000000000E+00 -0.00000000000E+00 -0.49260041735E+03  0.49260041735E+03  0.00000000000E+00 0. -1.
         23    2    1    2    0    0  0.19017173562E+03  0.16628927373E+03  0.50771683319E+01  0.26882164181E+03  0.91770833500E+02 0.  0.
    5000000    2    1    2    0    0 -0.19017173562E+03 -0.16628927373E+03 -0.66980546115E+02  0.65447581510E+03  0.60002898880E+03 0.  0.
         23    2    4    4    0    0 -0.29118507724E+03 -0.31668937172E+03  0.31834017280E+01  0.44015430242E+03  0.92977247347E+02 0.  0.
         23    2    4    4    0    0  0.10101334161E+03  0.15040009799E+03 -0.70163947843E+02  0.21432151268E+03  0.90481194507E+02 0.  0.
          5    1    3    3  502    0  0.62316163254E+02  0.62405626373E+02 -0.41470172421E+02  0.97568599489E+02  0.47000000000E+01 0. -1.
         -5    1    3    3    0  502  0.12785557237E+03  0.10388364736E+03  0.46547340752E+02  0.17125304232E+03  0.47000000000E+01 0.  1.
         13    1    5    5    0    0 -0.26553126250E+02 -0.82538135218E+02  0.41229213264E+01  0.86802135683E+02  0.00000000000E+00 0. -1.
        -13    1    5    5    0    0 -0.26463195099E+03 -0.23415123650E+03 -0.93951959835E+00  0.35335216674E+03  0.00000000000E+00 0.  1.
          4    1    6    6  503    0  0.86929841770E+02  0.51923869539E+02 -0.49549091614E+02  0.11272975693E+03  0.00000000000E+00 0. -1.
         -4    1    6    6    0  503  0.14083499844E+02  0.98476228454E+02 -0.20614856229E+02  0.10159175575E+03  0.00000000000E+00 0.  1.
<mgrwt>
<rscale>  0 0.44695620E+03</rscale>
<asrwt>0</asrwt>
<pdfrwt beam="1">  1        1 0.75784680E-01 0.44695620E+03</pdfrwt>
<pdfrwt beam="2">  1       -1 0.66261083E-01 0.44695620E+03</pdfrwt>
<totfact> 0.10893834E+02</totfact>
</mgrwt>
</event>
<event>
12    1  0.3203156E-008  0.1394378E+04  0.7818608E-02  0.8957898E-01
          1   -1    0    0  501    0  0.00000000000E+00  0.00000000000E+00  0.13001999479E+04  0.13001999479E+04  0.00000000000E+00 0. -1.
         -1   -1    0    0    0  501 -0.00000000000E+00 -0.00000000000E+00 -0.16473804734E+04  0.16473804734E+04  0.00000000000E+00 0.  1.
         23    2    1    2    0    0 -0.12990998549E+04 -0.37120024681E+03  0.20494433349E+03  0.13695838131E+04  0.91145954732E+02 0.  0.
    5000000    2    1    2    0    0  0.12990998549E+04  0.37120024681E+03 -0.55212485904E+03  0.15779966082E+04  0.59981778843E+03 0.  0.
         23    2    4    4    0    0  0.77803661814E+03 -0.21901043738E+02 -0.47083407995E+03  0.91410254463E+03  0.89878230769E+02 0.  0.
         23    2    4    4    0    0  0.52106323672E+03  0.39310129055E+03 -0.81290779095E+02  0.66389406356E+03  0.90064507779E+02 0.  0.
          5    1    3    3  502    0 -0.72603797187E+03 -0.18857325847E+03  0.15540294010E+03  0.76606995385E+03  0.47000000000E+01 0. -1.
         -5    1    3    3    0  502 -0.57306188300E+03 -0.18262698834E+03  0.49541393393E+02  0.60351385923E+03  0.47000000000E+01 0.  1.
         13    1    5    5    0    0  0.49839439569E+03  0.26831054203E+02 -0.31642525911E+03  0.59096685502E+03  0.00000000000E+00 0. -1.
        -13    1    5    5    0    0  0.27964222245E+03 -0.48732097940E+02 -0.15440882083E+03  0.32313568961E+03  0.00000000000E+00 0.  1.
          1    1    6    6  503    0  0.28386689155E+03  0.18690761735E+03 -0.25221857297E+01  0.33988414344E+03  0.00000000000E+00 0. -1.
         -1    1    6    6    0  503  0.23719634517E+03  0.20619367320E+03 -0.78768593366E+02  0.32400992011E+03  0.00000000000E+00 0.  1.
<mgrwt>
<rscale>  0 0.13943781E+04</rscale>
<asrwt>0</asrwt>
<pdfrwt beam="1">  1        1 0.20003076E+00 0.13943781E+04</pdfrwt>
<pdfrwt beam="2">  1       -1 0.25344315E+00 0.13943781E+04</pdfrwt>
<totfact> 0.57376212E-01</totfact>
</mgrwt>
</event>
<event>
12    1  0.3203156E-008  0.4782089E+03  0.7818608E-02  0.1019629E+00
         -1   -1    0    0    0  501 -0.00000000000E+00  0.00000000000E+00  0.43170239874E+03  0.43170239874E+03  0.00000000000E+00 0.  1.
          1   -1    0    0  501    0  0.00000000000E+00 -0.00000000000E+00 -0.70942476562E+03  0.70942476562E+03  0.00000000000E+00 0. -1.
         23    2    1    2    0    0  0.18580606216E+03  0.26025413974E+03 -0.31503688189E+03  0.46000285206E+03  0.10049018342E+03 0.  0.
    5000000    2    1    2    0    0 -0.18580606216E+03 -0.26025413974E+03  0.37314515004E+02  0.68112431230E+03  0.60023482554E+03 0.  0.
         23    2    4    4    0    0  0.16166682246E+03  0.13184565881E+02  0.12407323658E+03  0.22169042710E+03  0.86269827702E+02 0.  0.
         23    2    4    4    0    0 -0.34747288462E+03 -0.27343870562E+03 -0.86758721573E+02  0.45943388520E+03  0.89701102693E+02 0.  0.
          5    1    3    3  502    0  0.63621935719E+02  0.16866887457E+03 -0.19595821474E+03  0.26630556111E+03  0.47000000000E+01 0. -1.
         -5    1    3    3    0  502  0.12218412644E+03  0.91585265166E+02 -0.11907866714E+03  0.19369729094E+03  0.47000000000E+01 0.  1.
         13    1    5    5    0    0  0.53655084290E+02  0.36813322771E+02  0.78853053410E+02  0.10223449924E+03  0.00000000000E+00 0. -1.
        -13    1    5    5    0    0  0.10801173817E+03 -0.23628756890E+02  0.45220183168E+02  0.11945592786E+03  0.00000000000E+00 0.  1.
          1    1    6    6  503    0 -0.51820258011E+02 -0.76652579165E+02 -0.41501248720E+02  0.10140665993E+03  0.00000000000E+00 0. -1.
         -1    1    6    6    0  503 -0.29565262661E+03 -0.19678612646E+03 -0.45257472854E+02  0.35802722527E+03  0.00000000000E+00 0.  1.
<mgrwt>
<rscale>  0 0.47820887E+03</rscale>
<asrwt>0</asrwt>
<pdfrwt beam="1">  1        1 0.10914227E+00 0.47820887E+03</pdfrwt>
<pdfrwt beam="2">  1       -1 0.66415755E-01 0.47820887E+03</pdfrwt>
<totfact> 0.64430766E+01</totfact>
</mgrwt>
</event>
<event>
12    1  0.3203156E-008  0.7454663E+03  0.7818608E-02  0.9642490E-01
          1   -1    0    0  501    0  0.00000000000E+00  0.00000000000E+00  0.87678969526E+03  0.87678969526E+03  0.00000000000E+00 0. -1.
         -1   -1    0    0    0  501 -0.00000000000E+00 -0.00000000000E+00 -0.71429154662E+03  0.71429154662E+03  0.00000000000E+00 0.  1.
         23    2    1    2    0    0 -0.66737938273E+03  0.15875291569E+02  0.16019173571E+03  0.69360956870E+03  0.98922071496E+02 0.  0.
    5000000    2    1    2    0    0  0.66737938273E+03 -0.15875291569E+02  0.23064129218E+01  0.89747167318E+03  0.59983566021E+03 0.  0.
         23    2    4    4    0    0  0.31548841003E+03 -0.23405000948E+03  0.17601454659E+03  0.43925965469E+03  0.87496170377E+02 0.  0.
         23    2    4    4    0    0  0.35189097270E+03  0.21817471791E+03 -0.17370813367E+03  0.45821201849E+03  0.91412657678E+02 0.  0.
          5    1    3    3  502    0 -0.48344650382E+03  0.21752397591E+02  0.15936061077E+03  0.50952093492E+03  0.47000000000E+01 0. -1.
         -5    1    3    3    0  502 -0.18393287890E+03 -0.58771060221E+01  0.83112494376E+00  0.18408863378E+03  0.47000000000E+01 0.  1.
         11    1    5    5    0    0  0.63416503040E+02 -0.88386772195E+02  0.26435747050E+02  0.11194964528E+03  0.00000000000E+00 0. -1.
        -11    1    5    5    0    0  0.25207190699E+03 -0.14566323729E+03  0.14957879954E+03  0.32731000941E+03  0.00000000000E+00 0.  1.
          3    1    6    6  503    0  0.21116326894E+03  0.80173985676E+02 -0.10871539829E+03  0.25067275870E+03  0.00000000000E+00 0. -1.
         -3    1    6    6    0  503  0.14072770376E+03  0.13800073224E+03 -0.64992735374E+02  0.20753925979E+03  0.00000000000E+00 0.  1.
<mgrwt>
<rscale>  0 0.74546626E+03</rscale>
<asrwt>0</asrwt>
<pdfrwt beam="1">  1        1 0.13489072E+00 0.74546626E+03</pdfrwt>
<pdfrwt beam="2">  1       -1 0.10989101E+00 0.74546626E+03</pdfrwt>
<totfact> 0.14986864E+01</totfact>
</mgrwt>
</event>
<event>
12    1  0.3203156E-008  0.3945439E+03  0.7818608E-02  0.1045685E+00
          2   -1    0    0  501    0  0.00000000000E+00  0.00000000000E+00  0.13587640138E+03  0.13587640138E+03  0.00000000000E+00 0. -1.
         -2   -1    0    0    0  501 -0.00000000000E+00 -0.00000000000E+00 -0.14442211700E+04  0.14442211700E+04  0.00000000000E+00 0.  1.
         23    2    1    2    0    0 -0.21140311941E+03  0.69710520678E+02 -0.28178153930E+03  0.37035121188E+03  0.90599937434E+02 0.  0.
    5000000    2    1    2    0    0  0.21140311941E+03 -0.69710520678E+02 -0.10265632294E+04  0.12097463595E+04  0.60008612296E+03 0.  0.
         23    2    4    4    0    0  0.18663275269E+03 -0.27525854335E+03 -0.32640044461E+03  0.47386596058E+03  0.86096737999E+02 0.  0.
         23    2    4    4    0    0  0.24770366713E+02  0.20554802267E+03 -0.70016278475E+03  0.73588039896E+03  0.91806730333E+02 0.  0.
          5    1    3    3  502    0 -0.56460478123E+02  0.60725705507E+02 -0.76131494169E+02  0.11266539532E+03  0.47000000000E+01 0. -1.
         -5    1    3    3    0  502 -0.15494264128E+03  0.89848151710E+01 -0.20565004513E+03  0.25768581656E+03  0.47000000000E+01 0.  1.
         11    1    5    5    0    0  0.16631363743E+03 -0.21126688734E+03 -0.21705464368E+03  0.34555266172E+03  0.00000000000E+00 0.  1.
        -11    1    5    5    0    0  0.20319115267E+02 -0.63991656012E+02 -0.10934580093E+03  0.12831329886E+03  0.00000000000E+00 0. -1.
          3    1    6    6  503    0 -0.16932636860E+02  0.31390325636E+02 -0.23033621952E+03  0.23308118920E+03  0.00000000000E+00 0. -1.
         -3    1    6    6    0  503  0.41703003573E+02  0.17415769703E+03 -0.46982656523E+03  0.50279920976E+03  0.00000000000E+00 0.  1.
<mgrwt>
<rscale>  0 0.39454389E+03</rscale>
<asrwt>0</asrwt>
<pdfrwt beam="1">  1        2 0.20904061E-01 0.39454389E+03</pdfrwt>
<pdfrwt beam="2">  1       -2 0.22218788E+00 0.39454389E+03</pdfrwt>
<totfact> 0.27291318E+01</totfact>
</mgrwt>
</event>
<event>
12    1  0.3203156E-008  0.7810389E+03  0.7818608E-02  0.9587875E-01
         -1   -1    0    0    0  501 -0.00000000000E+00  0.00000000000E+00  0.12667503330E+04  0.12667503330E+04  0.00000000000E+00 0.  1.
          1   -1    0    0  501    0  0.00000000000E+00 -0.00000000000E+00 -0.10698686353E+04  0.10698686353E+04  0.00000000000E+00 0. -1.
         23    2    1    2    0    0  0.45541735906E+03 -0.53932124128E+03 -0.73478786562E+03  0.10227586491E+04  0.88598389089E+02 0.  0.
    5000000    2    1    2    0    0 -0.45541735906E+03  0.53932124128E+03  0.93166956331E+03  0.13138603192E+04  0.59995699086E+03 0.  0.
         23    2    4    4    0    0 -0.12924441787E+03 -0.59791611112E+02  0.42995069149E+03  0.46200367148E+03  0.91162706363E+02 0.  0.
         23    2    4    4    0    0 -0.32617294118E+03  0.59911285239E+03  0.50171887181E+03  0.85185664770E+03  0.92805842644E+02 0.  0.
          5    1    3    3  502    0  0.31670306964E+03 -0.31376235766E+03 -0.43812469379E+03  0.62507838605E+03  0.47000000000E+01 0. -1.
         -5    1    3    3    0  502  0.13871428942E+03 -0.22555888362E+03 -0.29666317184E+03  0.39768026301E+03  0.47000000000E+01 0.  1.
         11    1    5    5    0    0 -0.13100108633E+03 -0.30999225730E+02  0.29890504071E+03  0.32782077417E+03  0.00000000000E+00 0. -1.
        -11    1    5    5    0    0  0.17566684590E+01 -0.28792385382E+02  0.13104565079E+03  0.13418289731E+03  0.00000000000E+00 0.  1.
          3    1    6    6  503    0 -0.10892522138E+03  0.29280176401E+03  0.21179264910E+03  0.37743039501E+03  0.00000000000E+00 0. -1.
         -3    1    6    6    0  503 -0.21724771981E+03  0.30631108838E+03  0.28992622271E+03  0.47442625269E+03  0.00000000000E+00 0.  1.
<mgrwt>
<rscale>  0 0.78103894E+03</rscale>
<asrwt>0</asrwt>
<pdfrwt beam="1">  1        1 0.16459517E+00 0.78103894E+03</pdfrwt>
<pdfrwt beam="2">  1       -1 0.19488467E+00 0.78103894E+03</pdfrwt>
<totfact> 0.22644118E+00</totfact>
</mgrwt>
</event>
<event>
12    1  0.3203156E-008  0.6987757E+03  0.7818608E-02  0.9719328E-01
         -1   -1    0    0    0  501 -0.00000000000E+00  0.00000000000E+00  0.48564852130E+03  0.48564852130E+03  0.00000000000E+00 0.  1.
          1   -1    0    0  501    0  0.00000000000E+00 -0.00000000000E+00 -0.15284309917E+04  0.15284309917E+04  0.00000000000E+00 0. -1.
         23    2    1    2    0    0  0.41854116739E+03  0.53991284857E+03 -0.83256335910E+03  0.10808509095E+04  0.91620679122E+02 0.  0.
    5000000    2    1    2    0    0 -0.41854116739E+03 -0.53991284857E+03 -0.21021911125E+03  0.93322860343E+03  0.60003413126E+03 0.  0.
         23    2    4    4    0    0 -0.18100434568E+03 -0.33558155571E+03 -0.39579365654E+03  0.55786697134E+03  0.95840416685E+02 0.  0.
         23    2    4    4    0    0 -0.23753682171E+03 -0.20433129286E+03  0.18557454529E+03  0.37536163209E+03  0.91013318133E+02 0.  0.
          5    1    3    3  502    0  0.10156116794E+03  0.19628691134E+03 -0.29000027471E+03  0.36464430851E+03  0.47000000000E+01 0. -1.
         -5    1    3    3    0  502  0.31697999944E+03  0.34362593723E+03 -0.54256308439E+03  0.71620660101E+03  0.47000000000E+01 0.  1.
         11    1    5    5    0    0 -0.10671503245E+03 -0.12827573624E+03 -0.12308654205E+03  0.20734767780E+03  0.00000000000E+00 0. -1.
        -11    1    5    5    0    0 -0.74289313231E+02 -0.20730581948E+03 -0.27270711450E+03  0.35051929354E+03  0.00000000000E+00 0.  1.
          4    1    6    6  503    0 -0.12123057623E+03 -0.15182776408E+03  0.81486577885E+02  0.21068598656E+03  0.00000000000E+00 0. -1.
         -4    1    6    6    0  503 -0.11630624548E+03 -0.52503528780E+02  0.10408796740E+03  0.16467564553E+03  0.00000000000E+00 0.  1.
<mgrwt>
<rscale>  0 0.69877573E+03</rscale>
<asrwt>0</asrwt>
<pdfrwt beam="1">  1        1 0.23514323E+00 0.69877573E+03</pdfrwt>
<pdfrwt beam="2">  1       -1 0.74715156E-01 0.69877573E+03</pdfrwt>
<totfact> 0.11785939E+01</totfact>
</mgrwt>
</event>
<event>
12    1  0.3203156E-008  0.5903517E+03  0.7818608E-02  0.9925628E-01
         -2   -1    0    0    0  501 -0.00000000000E+00  0.00000000000E+00  0.40033607218E+03  0.40033607218E+03  0.00000000000E+00 0.  1.
          2   -1    0    0  501    0  0.00000000000E+00 -0.00000000000E+00 -0.10698967052E+04  0.10698967052E+04  0.00000000000E+00 0. -1.
         23    2    1    2    0    0 -0.44915255443E+03 -0.14065948820E+03 -0.39456583345E+02  0.48110113803E+03  0.91533459848E+02 0.  0.
    5000000    2    1    2    0    0  0.44915255443E+03  0.14065948820E+03 -0.63010404969E+03  0.98913163938E+03  0.59985596422E+03 0.  0.
         23    2    4    4    0    0  0.20717175907E+03  0.33303400205E+03 -0.19717223438E+03  0.44945801243E+03  0.96456366541E+02 0.  0.
         23    2    4    4    0    0  0.24198079536E+03 -0.19237451385E+03 -0.43293181532E+03  0.53967362695E+03  0.90857074642E+02 0.  0.
          5    1    3    3  502    0 -0.12719608018E+03 -0.64268093628E+02 -0.46857637530E+02  0.15008983599E+03  0.47000000000E+01 0. -1.
         -5    1    3    3    0  502 -0.32195647425E+03 -0.76391394570E+02  0.74010541856E+01  0.33101130204E+03  0.47000000000E+01 0.  1.
         11    1    5    5    0    0  0.13428947856E+03  0.26802546979E+03 -0.18177276103E+03  0.35058900890E+03  0.00000000000E+00 0.  1.
        -11    1    5    5    0    0  0.72882280508E+02  0.65008532255E+02 -0.15399473346E+02  0.98869003521E+02  0.00000000000E+00 0. -1.
          1    1    6    6  503    0  0.18799494729E+03 -0.13880622055E+03 -0.25343508324E+03  0.34472976153E+03  0.00000000000E+00 0. -1.
         -1    1    6    6    0  503  0.53985848071E+02 -0.53568293304E+02 -0.17949673207E+03  0.19494386542E+03  0.00000000000E+00 0.  1.
<mgrwt>
<rscale>  0 0.59035170E+03</rscale>
<asrwt>0</asrwt>
<pdfrwt beam="1">  1        2 0.16459950E+00 0.59035170E+03</pdfrwt>
<pdfrwt beam="2">  1       -2 0.61590164E-01 0.59035170E+03</pdfrwt>
<totfact> 0.57506246E+01</totfact>
</mgrwt>
</event>
<event>
12    1  0.3203156E-008  0.1009976E+04  0.7818608E-02  0.9297670E-01
         -2   -1    0    0    0  501 -0.00000000000E+00  0.00000000000E+00  0.19897602443E+04  0.19897602443E+04  0.00000000000E+00 0.  1.
          2   -1    0    0  501    0  0.00000000000E+00 -0.00000000000E+00 -0.92478593550E+03  0.92478593550E+03  0.00000000000E+00 0. -1.
         23    2    1    2    0    0  0.47485563977E+03  0.79343234027E+03 -0.45699120351E+03  0.10353473962E+04  0.89891677199E+02 0.  0.
    5000000    2    1    2    0    0 -0.47485563977E+03 -0.79343234027E+03  0.15219655123E+04  0.18791987836E+04  0.59998857512E+03 0.  0.
         23    2    4    4    0    0 -0.52462526550E+03 -0.34456922876E+03  0.97066876278E+03  0.11596076430E+04  0.92371077953E+02 0.  0.
         23    2    4    4    0    0  0.49769625723E+02 -0.44886311151E+03  0.55129674954E+03  0.71959114058E+03  0.99640328334E+02 0.  0.
          5    1    3    3  502    0  0.32337916097E+03  0.56174740904E+03 -0.36336876322E+03  0.74309702017E+03  0.47000000000E+01 0. -1.
         -5    1    3    3    0  502  0.15147647881E+03  0.23168493123E+03 -0.93622440291E+02  0.29225037608E+03  0.47000000000E+01 0.  1.
         11    1    5    5    0    0 -0.97620976937E+02 -0.28124888941E+02  0.12934614759E+03  0.16447276496E+03  0.00000000000E+00 0. -1.
        -11    1    5    5    0    0 -0.42700428856E+03 -0.31644433982E+03  0.84132261519E+03  0.99513487804E+03  0.00000000000E+00 0.  1.
          3    1    6    6  503    0  0.57024316456E+02 -0.11963084855E+03  0.14144515182E+03  0.19382993465E+03  0.00000000000E+00 0. -1.
         -3    1    6    6    0  503 -0.72546907329E+01 -0.32923226296E+03  0.40985159772E+03  0.52576120593E+03  0.00000000000E+00 0.  1.
<mgrwt>
<rscale>  0 0.10099762E+04</rscale>
<asrwt>0</asrwt>
<pdfrwt beam="1">  1        2 0.14227476E+00 0.10099762E+04</pdfrwt>
<pdfrwt beam="2">  1       -2 0.30611696E+00 0.10099762E+04</pdfrwt>
<totfact> 0.82554835E-01</totfact>
</mgrwt>
</event>
<event>
12    1  0.3203156E-008  0.7731572E+03  0.7818608E-02  0.9599705E-01
          2   -1    0    0  501    0  0.00000000000E+00  0.00000000000E+00  0.21978469055E+04  0.21978469055E+04  0.00000000000E+00 0. -1.
         -2   -1    0    0    0  501 -0.00000000000E+00 -0.00000000000E+00 -0.62348159240E+03  0.62348159240E+03  0.00000000000E+00 0.  1.
         23    2    1    2    0    0 -0.61815235472E+03 -0.26063371145E+03  0.17744959767E+04  0.18993274530E+04  0.92555588837E+02 0.  0.
    5000000    2    1    2    0    0  0.61815235472E+03  0.26063371145E+03 -0.20013066368E+03  0.92200104488E+03  0.59999281581E+03 0.  0.
         23    2    4    4    0    0  0.26906270551E+03  0.40502350867E+03 -0.20013425506E+03  0.53362040986E+03  0.90874857348E+02 0.  0.
         23    2    4    4    0    0  0.34908964921E+03 -0.14438979722E+03  0.35913766475E-02  0.38838063502E+03  0.90152764351E+02 0.  0.
          5    1    3    3  502    0 -0.79712021851E+02 -0.57352423268E+02  0.33189352106E+03  0.34614838755E+03  0.47000000000E+01 0. -1.
         -5    1    3    3    0  502 -0.53844033287E+03 -0.20328128818E+03  0.14426024557E+04  0.15531790654E+04  0.47000000000E+01 0.  1.
         13    1    5    5    0    0  0.95969021885E+02  0.16024144758E+03 -0.30799996720E+02  0.18930402659E+03  0.00000000000E+00 0.  1.
        -13    1    5    5    0    0  0.17309368363E+03  0.24478206109E+03 -0.16933425834E+03  0.34431638327E+03  0.00000000000E+00 0. -1.
          3    1    6    6  503    0  0.25622720932E+03 -0.66637539457E+02  0.20501413854E+02  0.26554331555E+03  0.00000000000E+00 0. -1.
         -3    1    6    6    0  503  0.92862439884E+02 -0.77752257763E+02 -0.20497822477E+02  0.12283731947E+03  0.00000000000E+00 0.  1.
<mgrwt>
<rscale>  0 0.77315717E+03</rscale>
<asrwt>0</asrwt>
<pdfrwt beam="1">  1        2 0.33813029E+00 0.77315717E+03</pdfrwt>
<pdfrwt beam="2">  1       -2 0.95920246E-01 0.77315717E+03</pdfrwt>
<totfact> 0.48937510E+00</totfact>
</mgrwt>
</event>
<event>
12    1  0.3203156E-008  0.5086124E+03  0.7818608E-02  0.1011555E+00
         -2   -1    0    0    0  501 -0.00000000000E+00  0.00000000000E+00  0.80203370726E+02  0.80203370726E+02  0.00000000000E+00 0. -1.
          2   -1    0    0  501    0  0.00000000000E+00 -0.00000000000E+00 -0.36811487684E+04  0.36811487684E+04  0.00000000000E+00 0.  1.
         23    2    1    2    0    0 -0.30046803692E+03 -0.16484069920E+03 -0.17525858023E+04  0.17880802711E+04  0.90667326593E+02 0.  0.
    5000000    2    1    2    0    0  0.30046803692E+03  0.16484069920E+03 -0.18483595954E+04  0.19732718680E+04  0.59992930754E+03 0.  0.
         23    2    4    4    0    0 -0.12832304663E+03  0.19158837344E+03 -0.76091879781E+03  0.80032749956E+03  0.91399018350E+02 0.  0.
         23    2    4    4    0    0  0.42879108355E+03 -0.26747674241E+02 -0.10874407976E+04  0.11729443685E+04  0.93240398549E+02 0.  0.
          5    1    3    3  502    0 -0.12667854015E+03 -0.60155695741E+02 -0.50645760878E+03  0.52553549809E+03  0.47000000000E+01 0. -1.
         -5    1    3    3    0  502 -0.17378949678E+03 -0.10468500346E+03 -0.12461281935E+04  0.12625447730E+04  0.47000000000E+01 0.  1.
         13    1    5    5    0    0 -0.17384002924E+02  0.93307999860E+02 -0.22286970935E+03  0.24223850591E+03  0.00000000000E+00 0. -1.
        -13    1    5    5    0    0 -0.11093904371E+03  0.98280373585E+02 -0.53804908846E+03  0.55808899366E+03  0.00000000000E+00 0.  1.
          3    1    6    6  503    0  0.26161796101E+03 -0.44919642479E+00 -0.54169308049E+03  0.60156093020E+03  0.00000000000E+00 0. -1.
         -3    1    6    6    0  503  0.16717312254E+03 -0.26298477817E+02 -0.54574771708E+03  0.57138343828E+03  0.00000000000E+00 0.  1.
<mgrwt>
<rscale>  0 0.50861239E+03</rscale>
<asrwt>0</asrwt>
<pdfrwt beam="1">  1        2 0.56633048E+00 0.50861239E+03</pdfrwt>
<pdfrwt beam="2">  1       -2 0.12338982E-01 0.50861239E+03</pdfrwt>
<totfact> 0.33374691E+01</totfact>
</mgrwt>
</event>
<event>
12    1  0.3203156E-008  0.4569521E+03  0.7818608E-02  0.1025669E+00
          2   -1    0    0  501    0  0.00000000000E+00  0.00000000000E+00  0.45424331754E+03  0.45424331754E+03  0.00000000000E+00 0. -1.
         -2   -1    0    0    0  501 -0.00000000000E+00 -0.00000000000E+00 -0.77502833861E+03  0.77502833861E+03  0.00000000000E+00 0.  1.
         23    2    1    2    0    0  0.30302721686E+02  0.38481727766E+03  0.88669711506E+02  0.40665695385E+03  0.92222384754E+02 0.  0.
    5000000    2    1    2    0    0 -0.30302721686E+02 -0.38481727766E+03 -0.40945473257E+03  0.82261470230E+03  0.60003264768E+03 0.  0.
         23    2    4    4    0    0 -0.18450553658E+02  0.28873985894E+02  0.11396591902E+03  0.14913733009E+03  0.89886498084E+02 0.  0.
         23    2    4    4    0    0 -0.11852168028E+02 -0.41369126356E+03 -0.52342065159E+03  0.67347737220E+03  0.91223116203E+02 0.  0.
          5    1    3    3  502    0 -0.16736591383E+02  0.29293918085E+03  0.61744299341E+02  0.29987985206E+03  0.47000000000E+01 0. -1.
         -5    1    3    3    0  502  0.47039313070E+02  0.91878096811E+02  0.26925412164E+02  0.10677710180E+03  0.47000000000E+01 0.  1.
         11    1    5    5    0    0 -0.23865353926E+02 -0.28029901647E+02  0.60781767699E+02  0.71060916043E+02  0.00000000000E+00 0. -1.
        -11    1    5    5    0    0  0.54148002677E+01  0.56903887541E+02  0.53184151322E+02  0.78076414051E+02  0.00000000000E+00 0.  1.
          4    1    6    6  503    0 -0.49734744870E+02 -0.27032135490E+03 -0.35749850585E+03  0.45094607377E+03  0.00000000000E+00 0. -1.
         -4    1    6    6    0  503  0.37882576842E+02 -0.14336990865E+03 -0.16592214573E+03  0.22253129843E+03  0.00000000000E+00 0.  1.
<mgrwt>
<rscale>  0 0.45695213E+03</rscale>
<asrwt>0</asrwt>
<pdfrwt beam="1">  1        2 0.69883588E-01 0.45695213E+03</pdfrwt>
<pdfrwt beam="2">  1       -2 0.11923513E+00 0.45695213E+03</pdfrwt>
<totfact> 0.38549886E+01</totfact>
</mgrwt>
</event>
<event>
12    1  0.3203156E-008  0.6370346E+03  0.7818608E-02  0.9831417E-01
          3   -1    0    0  501    0  0.00000000000E+00  0.00000000000E+00  0.19337005565E+03  0.19337005565E+03  0.00000000000E+00 0. -1.
         -3   -1    0    0    0  501 -0.00000000000E+00 -0.00000000000E+00 -0.22698780419E+04  0.22698780419E+04  0.00000000000E+00 0.  1.
         23    2    1    2    0    0 -0.43197718910E+03 -0.29151191833E+03 -0.85006036428E+03  0.10018230230E+04  0.97279268135E+02 0.  0.
    5000000    2    1    2    0    0  0.43197718910E+03  0.29151191833E+03 -0.12264476220E+04  0.14614250746E+04  0.60000499059E+03 0.  0.
         23    2    4    4    0    0  0.25608260959E+03 -0.12154647977E+03 -0.71865035634E+03  0.77779747968E+03  0.90325716402E+02 0.  0.
         23    2    4    4    0    0  0.17589457951E+03  0.41305839811E+03 -0.50779726563E+03  0.68362759490E+03  0.89064483251E+02 0.  0.
          5    1    3    3  502    0 -0.83601151605E+02 -0.15879624289E+02 -0.11916718096E+03  0.14650673034E+03  0.47000000000E+01 0. -1.
         -5    1    3    3    0  502 -0.34837603750E+03 -0.27563229404E+03 -0.73089318333E+03  0.85531629264E+03  0.47000000000E+01 0.  1.
         11    1    5    5    0    0  0.11001537630E+03 -0.16432553862E+02 -0.20054326563E+03  0.22932730592E+03  0.00000000000E+00 0.  1.
        -11    1    5    5    0    0  0.14606723329E+03 -0.10511392591E+03 -0.51810709071E+03  0.54847017376E+03  0.00000000000E+00 0. -1.
          2    1    6    6  503    0  0.79101117756E+02  0.26460978117E+03 -0.26263046498E+03  0.38111689054E+03  0.00000000000E+00 0. -1.
         -2    1    6    6    0  503  0.96793461758E+02  0.14844861694E+03 -0.24516680065E+03  0.30251070436E+03  0.00000000000E+00 0.  1.
<mgrwt>
<rscale>  0 0.63703460E+03</rscale>
<asrwt>0</asrwt>
<pdfrwt beam="1">  1        3 0.29749239E-01 0.63703460E+03</pdfrwt>
<pdfrwt beam="2">  1       -3 0.34921201E+00 0.63703460E+03</pdfrwt>
<totfact> 0.60732942E-01</totfact>
</mgrwt>
</event>
<event>
12    1  0.3203156E-008  0.3558241E+03  0.7818608E-02  0.1060250E+00
         -1   -1    0    0    0  501 -0.00000000000E+00  0.00000000000E+00  0.60189791090E+03  0.60189791090E+03  0.00000000000E+00 0.  1.
          1   -1    0    0  501    0  0.00000000000E+00 -0.00000000000E+00 -0.47614636974E+03  0.47614636974E+03  0.00000000000E+00 0. -1.
         23    2    1    2    0    0  0.26499615130E+03  0.10556393606E+03 -0.17767207440E+03  0.34791988421E+03  0.90078715618E+02 0.  0.
    5000000    2    1    2    0    0 -0.26499615130E+03 -0.10556393606E+03  0.30342361556E+03  0.73012439643E+03  0.59970746117E+03 0.  0.
         23    2    4    4    0    0 -0.91770898794E+02 -0.19487569378E+03 -0.11437147841E+03  0.25988552820E+03  0.89784290409E+02 0.  0.
         23    2    4    4    0    0 -0.17322525251E+03  0.89311757713E+02  0.41779509397E+03  0.47023886823E+03  0.92672943628E+02 0.  0.
          5    1    3    3  502    0  0.17940716748E+03  0.42723803385E+02 -0.15084045165E+03  0.23830062310E+03  0.47000000000E+01 0. -1.
         -5    1    3    3    0  502  0.85588983827E+02  0.62840132677E+02 -0.26831622755E+02  0.10961926111E+03  0.47000000000E+01 0.  1.
         13    1    5    5    0    0 -0.55216962707E+02 -0.17597551152E+03 -0.64864267694E+02  0.19550873855E+03  0.00000000000E+00 0. -1.
        -13    1    5    5    0    0 -0.36553936087E+02 -0.18900182251E+02 -0.49507210714E+02  0.64376789647E+02  0.00000000000E+00 0.  1.
          2    1    6    6  503    0 -0.69953065992E+02  0.29221381050E+02  0.26861884378E+03  0.27911181234E+03  0.00000000000E+00 0. -1.
         -2    1    6    6    0  503 -0.10327218652E+03  0.60090376664E+02  0.14917625019E+03  0.19112705590E+03  0.00000000000E+00 0.  1.
<mgrwt>
<rscale>  0 0.35582406E+03</rscale>
<asrwt>0</asrwt>
<pdfrwt beam="1">  1        1 0.73253287E-01 0.35582406E+03</pdfrwt>
<pdfrwt beam="2">  1       -1 0.92599679E-01 0.35582406E+03</pdfrwt>
<totfact> 0.57410851E+01</totfact>
</mgrwt>
</event>
<event>
12    1  0.3203156E-008  0.1791028E+04  0.7818608E-02  0.8711085E-01
         -1   -1    0    0    0  501 -0.00000000000E+00  0.00000000000E+00  0.13868021050E+04  0.13868021050E+04  0.00000000000E+00 0.  1.
          1   -1    0    0  501    0  0.00000000000E+00 -0.00000000000E+00 -0.33324207457E+04  0.33324207457E+04  0.00000000000E+00 0. -1.
         23    2    1    2    0    0  0.25821508047E+03  0.17495476053E+04  0.30279905645E+03  0.17963517745E+04  0.87181295209E+02 0.  0.
    5000000    2    1    2    0    0 -0.25821508047E+03 -0.17495476053E+04 -0.22484176972E+04  0.29228710761E+04  0.60016775617E+03 0.  0.
         23    2    4    4    0    0 -0.32652329940E+03 -0.16288666899E+04 -0.21875042381E+04  0.27483570069E+04  0.92017861766E+02 0.  0.
         23    2    4    4    0    0  0.68308218929E+02 -0.12068091543E+03 -0.60913459069E+02  0.17451406926E+03  0.86688031193E+02 0.  0.
          5    1    3    3  502    0  0.24284112560E+02  0.39821117761E+03  0.56272241798E+02  0.40292743180E+03  0.47000000000E+01 0. -1.
         -5    1    3    3    0  502  0.23393096791E+03  0.13513364277E+04  0.24652681466E+03  0.13934243427E+04  0.47000000000E+01 0.  1.
         11    1    5    5    0    0 -0.22730198392E+03 -0.13182568873E+04 -0.17659394645E+04  0.22154028087E+04  0.00000000000E+00 0.  1.
        -11    1    5    5    0    0 -0.99221315483E+02 -0.31060980262E+03 -0.42156477366E+03  0.53295419815E+03  0.00000000000E+00 0. -1.
          1    1    6    6  503    0  0.74311941577E+02 -0.90596677394E+02 -0.76667089750E+02  0.14002808742E+03  0.00000000000E+00 0. -1.
         -1    1    6    6    0  503 -0.60037226488E+01 -0.30084238040E+02  0.15753630681E+02  0.34485981843E+02  0.00000000000E+00 0.  1.
<mgrwt>
<rscale>  0 0.17910283E+04</rscale>
<asrwt>0</asrwt>
<pdfrwt beam="1">  1        1 0.51268011E+00 0.17910283E+04</pdfrwt>
<pdfrwt beam="2">  1       -1 0.21335417E+00 0.17910283E+04</pdfrwt>
<totfact> 0.37607341E-02</totfact>
</mgrwt>
</event>
<event>
12    1  0.3203156E-008  0.1835606E+03  0.7818608E-02  0.1164401E+00
          2   -1    0    0  501    0  0.00000000000E+00  0.00000000000E+00  0.85078468878E+03  0.85078468878E+03  0.00000000000E+00 0.  1.
         -2   -1    0    0    0  501 -0.00000000000E+00 -0.00000000000E+00 -0.22586555570E+03  0.22586555570E+03  0.00000000000E+00 0. -1.
         23    2    1    2    0    0  0.11515964648E+03 -0.82492904976E+02  0.37564212493E+03  0.41175863402E+03  0.91495044213E+02 0.  0.
    5000000    2    1    2    0    0 -0.11515964648E+03  0.82492904976E+02  0.24927700816E+03  0.66489161046E+03  0.59989582705E+03 0.  0.
         23    2    4    4    0    0 -0.70276217323E+02  0.51152584706E+02  0.43350424074E+03  0.45158365647E+03  0.91905051061E+02 0.  0.
         23    2    4    4    0    0 -0.44883429160E+02  0.31340320270E+02 -0.18422723258E+03  0.21330795399E+03  0.92541191492E+02 0.  0.
          5    1    3    3  502    0  0.59138122913E+02 -0.61492653440E+02  0.31523082514E+03  0.32660561404E+03  0.47000000000E+01 0. -1.
         -5    1    3    3    0  502  0.56021523571E+02 -0.21000251536E+02  0.60411299796E+02  0.85153019975E+02  0.47000000000E+01 0.  1.
         13    1    5    5    0    0 -0.91280653228E+02  0.48104296834E+02  0.32369408948E+03  0.33974114351E+03  0.00000000000E+00 0.  1.
        -13    1    5    5    0    0  0.21004435905E+02  0.30482878714E+01  0.10981015126E+03  0.11184251296E+03  0.00000000000E+00 0. -1.
          1    1    6    6  503    0 -0.25041994306E+02 -0.26290729242E+02 -0.11727621474E+03  0.12276813294E+03  0.00000000000E+00 0. -1.
         -1    1    6    6    0  503 -0.19841434855E+02  0.57631049513E+02 -0.66951017845E+02  0.90539821049E+02  0.00000000000E+00 0.  1.
<mgrwt>
<rscale>  0 0.18356064E+03</rscale>
<asrwt>0</asrwt>
<pdfrwt beam="1">  1        2 0.13088995E+00 0.18356064E+03</pdfrwt>
<pdfrwt beam="2">  1       -2 0.34748548E-01 0.18356064E+03</pdfrwt>
<totfact> 0.26036878E+02</totfact>
</mgrwt>
</event>
<event>
12    1  0.3203156E-008  0.2066836E+04  0.7818608E-02  0.8575995E-01
         -1   -1    0    0    0  501 -0.00000000000E+00  0.00000000000E+00  0.33011707030E+04  0.33011707030E+04  0.00000000000E+00 0.  1.
          1   -1    0    0  501    0  0.00000000000E+00 -0.00000000000E+00 -0.13468845636E+04  0.13468845636E+04  0.00000000000E+00 0. -1.
         23    2    1    2    0    0  0.99620076122E+03  0.17918705950E+04  0.68545923365E+03  0.21636428260E+04  0.90993030832E+02 0.  0.
    5000000    2    1    2    0    0 -0.99620076122E+03 -0.17918705950E+04  0.12688269057E+04  0.24844124406E+04  0.59930565862E+03 0.  0.
         23    2    4    4    0    0 -0.95232204265E+03 -0.15100061402E+04  0.12591407251E+04  0.21864906593E+04  0.90940756747E+02 0.  0.
         23    2    4    4    0    0 -0.43878718570E+02 -0.28186445482E+03  0.96861805771E+01  0.29792178130E+03  0.85385319825E+02 0.  0.
          5    1    3    3  502    0  0.82822675020E+03  0.15193789762E+04  0.54711881833E+03  0.18148920394E+04  0.47000000000E+01 0. -1.
         -5    1    3    3    0  502  0.16797401102E+03  0.27249161877E+03  0.13834041532E+03  0.34875078665E+03  0.47000000000E+01 0.  1.
         11    1    5    5    0    0 -0.48619908826E+03 -0.79013958114E+03  0.70838696822E+03  0.11672712658E+04  0.00000000000E+00 0. -1.
        -11    1    5    5    0    0 -0.46612295438E+03 -0.71986655905E+03  0.55075375687E+03  0.10192193935E+04  0.00000000000E+00 0.  1.
          3    1    6    6  503    0 -0.51666747247E+02 -0.28476683969E+03  0.10189441904E+02  0.28959528740E+03  0.00000000000E+00 0. -1.
         -3    1    6    6    0  503  0.77880286769E+01  0.29023848705E+01 -0.50326132686E+00  0.83264938943E+01  0.00000000000E+00 0.  1.
<mgrwt>
<rscale>  0 0.20668360E+04</rscale>
<asrwt>0</asrwt>
<pdfrwt beam="1">  1        1 0.20721301E+00 0.20668360E+04</pdfrwt>
<pdfrwt beam="2">  1       -1 0.50787241E+00 0.20668360E+04</pdfrwt>
<totfact> 0.97906874E-03</totfact>
</mgrwt>
</event>
<event>
12    1  0.3203156E-008  0.8559736E+03  0.7818608E-02  0.9482354E-01
         -1   -1    0    0    0  501 -0.00000000000E+00  0.00000000000E+00  0.10779998970E+04  0.10779998970E+04  0.00000000000E+00 0.  1.
          1   -1    0    0  501    0  0.00000000000E+00 -0.00000000000E+00 -0.98900707013E+03  0.98900707013E+03  0.00000000000E+00 0. -1.
         23    2    1    2    0    0  0.54580324173E+03  0.51983313456E+03 -0.52656764959E+03  0.92361559298E+03  0.87547744335E+02 0.  0.
    5000000    2    1    2    0    0 -0.54580324173E+03 -0.51983313456E+03  0.61556047646E+03  0.11433913741E+04  0.60025117060E+03 0.  0.
         23    2    4    4    0    0 -0.24121355880E+03 -0.58392378291E+03  0.42254833123E+03  0.76569133984E+03  0.92656195050E+02 0.  0.
         23    2    4    4    0    0 -0.30458968292E+03  0.64090648343E+02  0.19301214523E+03  0.37770003430E+03  0.92310029569E+02 0.  0.
          5    1    3    3  502    0  0.17374583042E+03  0.13549216965E+03 -0.11442012575E+03  0.24831390779E+03  0.47000000000E+01 0. -1.
         -5    1    3    3    0  502  0.37205741131E+03  0.38434096491E+03 -0.41214752384E+03  0.67530168519E+03  0.47000000000E+01 0.  1.
         11    1    5    5    0    0 -0.12962120444E+03 -0.20173331456E+03  0.14277125460E+03  0.27907278259E+03  0.00000000000E+00 0. -1.
        -11    1    5    5    0    0 -0.11159235437E+03 -0.38219046835E+03  0.27977707663E+03  0.48661855724E+03  0.00000000000E+00 0.  1.
          3    1    6    6  503    0 -0.14465018001E+03  0.65380350923E+02  0.60090419543E+02  0.16973250539E+03  0.00000000000E+00 0. -1.
         -3    1    6    6    0  503 -0.15993950291E+03 -0.12897025801E+01  0.13292172568E+03  0.20796752892E+03  0.00000000000E+00 0.  1.
<mgrwt>
<rscale>  0 0.85597356E+03</rscale>
<asrwt>0</asrwt>
<pdfrwt beam="1">  1        1 0.15215493E+00 0.85597356E+03</pdfrwt>
<pdfrwt beam="2">  1       -1 0.16584614E+00 0.85597356E+03</pdfrwt>
<totfact> 0.41640814E+00</totfact>
</mgrwt>
</event>
<event>
12    1  0.3203156E-008  0.1278242E+04  0.7818608E-02  0.9047000E-01
         -1   -1    0    0    0  501 -0.00000000000E+00  0.00000000000E+00  0.90413679712E+03  0.90413679712E+03  0.00000000000E+00 0.  1.
          1   -1    0    0  501    0  0.00000000000E+00 -0.00000000000E+00 -0.21534757561E+04  0.21534757561E+04  0.00000000000E+00 0. -1.
         23    2    1    2    0    0  0.20714650260E+03  0.12392311490E+04 -0.10715637780E+04  0.16539648838E+04  0.93527494577E+02 0.  0.
    5000000    2    1    2    0    0 -0.20714650260E+03 -0.12392311490E+04 -0.17777518091E+03  0.14036476694E+04  0.60001604208E+03 0.  0.
         23    2    4    4    0    0 -0.59815439737E+02 -0.10169605565E+04  0.73252090730E+02  0.10255683190E+04  0.92940022573E+02 0.  0.
         23    2    4    4    0    0 -0.14733106286E+03 -0.22227059252E+03 -0.25102727164E+03  0.37807935046E+03  0.93907644832E+02 0.  0.
          5    1    3    3  502    0  0.13257216154E+03  0.79158910188E+03 -0.62503708227E+03  0.10172915651E+04  0.47000000000E+01 0. -1.
         -5    1    3    3    0  502  0.74574341060E+02  0.44764204711E+03 -0.44652669578E+03  0.63667331868E+03  0.47000000000E+01 0.  1.
         11    1    5    5    0    0 -0.52130253177E+02 -0.24367642056E+03  0.30729221450E+02  0.25107776939E+03  0.00000000000E+00 0. -1.
        -11    1    5    5    0    0 -0.76851865608E+01 -0.77328413591E+03  0.42522869279E+02  0.77449054956E+03  0.00000000000E+00 0.  1.
          1    1    6    6  503    0 -0.69969731486E+02 -0.42669657320E+02 -0.42930345976E+02  0.92517444764E+02  0.00000000000E+00 0. -1.
         -1    1    6    6    0  503 -0.77361331375E+02 -0.17960093520E+03 -0.20809692567E+03  0.28556190570E+03  0.00000000000E+00 0.  1.
<mgrwt>
<rscale>  0 0.12782417E+04</rscale>
<asrwt>0</asrwt>
<pdfrwt beam="1">  1        1 0.33130395E+00 0.12782417E+04</pdfrwt>
<pdfrwt beam="2">  1       -1 0.13909797E+00 0.12782417E+04</pdfrwt>
<totfact> 0.97384692E-01</totfact>
</mgrwt>
</event>
<event>
12    1  0.3203156E-008  0.7471752E+03  0.7818608E-02  0.9639793E-01
         -1   -1    0    0    0  501 -0.00000000000E+00  0.00000000000E+00  0.67299783321E+03  0.67299783321E+03  0.00000000000E+00 0.  1.
          1   -1    0    0  501    0  0.00000000000E+00 -0.00000000000E+00 -0.13510124954E+04  0.13510124954E+04  0.00000000000E+00 0. -1.
         23    2    1    2    0    0 -0.48773017894E+03  0.50817257878E+03  0.21113690325E+03  0.74078897821E+03  0.89829956255E+02 0.  0.
    5000000    2    1    2    0    0  0.48773017894E+03 -0.50817257878E+03 -0.88915156544E+03  0.12832213504E+04  0.59995535709E+03 0.  0.
         23    2    4    4    0    0 -0.72214671358E+01 -0.18838968976E+03  0.37355919373E+01  0.20936299294E+03  0.90972981535E+02 0.  0.
         23    2    4    4    0    0  0.49495164608E+03 -0.31978288902E+03 -0.89288715737E+03  0.10738583575E+04  0.93199077246E+02 0.  0.
          5    1    3    3  502    0 -0.27190700653E+03  0.26418773713E+03  0.15781390099E+03  0.41067736484E+03  0.47000000000E+01 0. -1.
         -5    1    3    3    0  502 -0.21582317241E+03  0.24398484165E+03  0.53323002260E+02  0.33011161336E+03  0.47000000000E+01 0.  1.
         13    1    5    5    0    0  0.12115052043E+02 -0.15564281272E+03  0.35166889575E+02  0.16002552846E+03  0.00000000000E+00 0. -1.
        -13    1    5    5    0    0 -0.19336519179E+02 -0.32746877045E+02 -0.31431297637E+02  0.49337464480E+02  0.00000000000E+00 0.  1.
          3    1    6    6  503    0  0.83136064572E+02 -0.18882801778E+02 -0.15422245881E+03  0.17621785447E+03  0.00000000000E+00 0. -1.
         -3    1    6    6    0  503  0.41181558150E+03 -0.30090008724E+03 -0.73866469857E+03  0.89764050298E+03  0.00000000000E+00 0.  1.
<mgrwt>
<rscale>  0 0.74717516E+03</rscale>
<asrwt>0</asrwt>
<pdfrwt beam="1">  1        1 0.20784808E+00 0.74717516E+03</pdfrwt>
<pdfrwt beam="2">  1       -1 0.10353813E+00 0.74717516E+03</pdfrwt>
<totfact> 0.75981671E+00</totfact>
</mgrwt>
</event>
<event>
12    1  0.4187873E-008  0.1642273E+04  0.7818608E-02  0.8794991E-01
         -1   -1    0    0    0  501 -0.00000000000E+00  0.00000000000E+00  0.25481081746E+04  0.25481081746E+04  0.00000000000E+00 0.  1.
          1   -1    0    0  501    0  0.00000000000E+00 -0.00000000000E+00 -0.10774700397E+04  0.10774700397E+04  0.00000000000E+00 0. -1.
         23    2    1    2    0    0  0.11937697353E+04  0.10642060739E+04  0.62204004623E+03  0.17183302058E+04  0.90022933068E+02 0.  0.
    5000000    2    1    2    0    0 -0.11937697353E+04 -0.10642060739E+04  0.84859808872E+03  0.19072480085E+04  0.59987957229E+03 0.  0.
         23    2    4    4    0    0 -0.25844218269E+03  0.14525761625E+01  0.52667582675E+02  0.27867255576E+03  0.89944690192E+02 0.  0.
         23    2    4    4    0    0 -0.93532755256E+03 -0.10656586501E+04  0.79593050604E+03  0.16285754528E+04  0.91031015647E+02 0.  0.
          5    1    3    3  502    0  0.59587344321E+03  0.47719289357E+03  0.31731352157E+03  0.82673343888E+03  0.47000000000E+01 0. -1.
         -5    1    3    3    0  502  0.59789629205E+03  0.58701318038E+03  0.30472652465E+03  0.89159676694E+03  0.47000000000E+01 0.  1.
         11    1    5    5    0    0 -0.13020020031E+03  0.24703069229E+02  0.65284188228E+02  0.14773069764E+03  0.00000000000E+00 0.  1.
        -11    1    5    5    0    0 -0.12824198238E+03 -0.23250493067E+02 -0.12616605553E+02  0.13094185812E+03  0.00000000000E+00 0. -1.
          2    1    6    6  503    0 -0.52076428907E+03 -0.53002653636E+03  0.43698584793E+03  0.86202100050E+03  0.00000000000E+00 0. -1.
         -2    1    6    6    0  503 -0.41456326349E+03 -0.53563211375E+03  0.35894465811E+03  0.76655445228E+03  0.00000000000E+00 0.  1.
<mgrwt>
<rscale>  0 0.16422735E+04</rscale>
<asrwt>0</asrwt>
<pdfrwt beam="1">  1        1 0.16576462E+00 0.16422735E+04</pdfrwt>
<pdfrwt beam="2">  1       -1 0.39201664E+00 0.16422735E+04</pdfrwt>
<totfact> 0.10012078E-01</totfact>
</mgrwt>
</event>
<event>
12    1  0.3203156E-008  0.1064465E+04  0.7818608E-02  0.9240536E-01
         -1   -1    0    0    0  501 -0.00000000000E+00  0.00000000000E+00  0.16428346454E+04  0.16428346454E+04  0.00000000000E+00 0. -1.
          1   -1    0    0  501    0  0.00000000000E+00 -0.00000000000E+00 -0.11591263422E+04  0.11591263422E+04  0.00000000000E+00 0.  1.
         23    2    1    2    0    0  0.93966116613E+03  0.37290395544E+03  0.10813987802E+04  0.14831345131E+04  0.90797549907E+02 0.  0.
    5000000    2    1    2    0    0 -0.93966116613E+03 -0.37290395544E+03 -0.59769047693E+03  0.13188264745E+04  0.60004074565E+03 0.  0.
         23    2    4    4    0    0 -0.47676128432E+03  0.43995097230E+02 -0.61250656389E+02  0.49159862827E+03  0.93170153995E+02 0.  0.
         23    2    4    4    0    0 -0.46289988181E+03 -0.41689905267E+03 -0.53643982054E+03  0.82722784621E+03  0.91962534688E+02 0.  0.
          5    1    3    3  502    0  0.61614444822E+03  0.22831258194E+03  0.64242561353E+03  0.91896320659E+03  0.47000000000E+01 0. -1.
         -5    1    3    3    0  502  0.32351671791E+03  0.14459137350E+03  0.43897316662E+03  0.56417130650E+03  0.47000000000E+01 0.  1.
         11    1    5    5    0    0 -0.72243875606E+02  0.41298772330E+02 -0.12375339428E+02  0.84130346395E+02  0.00000000000E+00 0. -1.
        -11    1    5    5    0    0 -0.40451740872E+03  0.26963248999E+01 -0.48875316961E+02  0.40746828187E+03  0.00000000000E+00 0.  1.
          3    1    6    6  503    0 -0.50085759952E+02 -0.90499943911E+02 -0.90277477953E+02  0.13729110031E+03  0.00000000000E+00 0. -1.
         -3    1    6    6    0  503 -0.41281412186E+03 -0.32639910876E+03 -0.44616234259E+03  0.68993674590E+03  0.00000000000E+00 0.  1.
<mgrwt>
<rscale>  0 0.10644650E+04</rscale>
<asrwt>0</asrwt>
<pdfrwt beam="1">  1        1 0.17832713E+00 0.10644650E+04</pdfrwt>
<pdfrwt beam="2">  1       -1 0.25274379E+00 0.10644650E+04</pdfrwt>
<totfact> 0.76581216E-01</totfact>
</mgrwt>
</event>
<event>
12    1  0.3203156E-008  0.1366007E+04  0.7818608E-02  0.8978799E-01
         -2   -1    0    0    0  501 -0.00000000000E+00  0.00000000000E+00  0.77110928286E+03  0.77110928286E+03  0.00000000000E+00 0.  1.
          2   -1    0    0  501    0  0.00000000000E+00 -0.00000000000E+00 -0.25978472754E+04  0.25978472754E+04  0.00000000000E+00 0. -1.
         23    2    1    2    0    0 -0.12228392469E+04 -0.57235668857E+03 -0.88494496967E+03  0.16170049294E+04  0.93001826027E+02 0.  0.
    5000000    2    1    2    0    0  0.12228392469E+04  0.57235668857E+03 -0.94179302289E+03  0.17519516289E+04  0.59952682126E+03 0.  0.
         23    2    4    4    0    0  0.16839947983E+03  0.18175825957E+03  0.25945140900E+02  0.26521682804E+03  0.90952547034E+02 0.  0.
         23    2    4    4    0    0  0.10544397670E+04  0.39059842900E+03 -0.96773816379E+03  0.14867348009E+04  0.97225816362E+02 0.  0.
          5    1    3    3  502    0 -0.37754464947E+03 -0.19557638070E+03 -0.23215801026E+03  0.48446828044E+03  0.47000000000E+01 0. -1.
         -5    1    3    3    0  502 -0.84529459740E+03 -0.37678030788E+03 -0.65278695941E+03  0.11325366489E+04  0.47000000000E+01 0.  1.
         13    1    5    5    0    0  0.13428137874E+03  0.10417204194E+03  0.49927109001E+02  0.17713277283E+03  0.00000000000E+00 0. -1.
        -13    1    5    5    0    0  0.34118101090E+02  0.77586217636E+02 -0.23981968101E+02  0.88084055215E+02  0.00000000000E+00 0.  1.
          1    1    6    6  503    0  0.91520412198E+03  0.36356157543E+03 -0.81482999911E+03  0.12781719491E+04  0.00000000000E+00 0. -1.
         -1    1    6    6    0  503  0.13923564506E+03  0.27036853565E+02 -0.15290816468E+03  0.20856285175E+03  0.00000000000E+00 0.  1.
<mgrwt>
<rscale>  0 0.13660066E+04</rscale>
<asrwt>0</asrwt>
<pdfrwt beam="1">  1        2 0.39966881E+00 0.13660066E+04</pdfrwt>
<pdfrwt beam="2">  1       -2 0.11863220E+00 0.13660066E+04</pdfrwt>
<totfact> 0.16066861E+00</totfact>
</mgrwt>
</event>
<event>
12    1  0.3203156E-008  0.2819275E+03  0.7818608E-02  0.1094641E+00
          1   -1    0    0  501    0  0.00000000000E+00  0.00000000000E+00  0.64899317818E+03  0.64899317818E+03  0.00000000000E+00 0. -1.
         -1   -1    0    0    0  501 -0.00000000000E+00 -0.00000000000E+00 -0.30369196291E+03  0.30369196291E+03  0.00000000000E+00 0.  1.
         23    2    1    2    0    0  0.21074219638E+01  0.22381708025E+03  0.11970724661E+03  0.27376091624E+03  0.10255090313E+03 0.  0.
    5000000    2    1    2    0    0 -0.21074219638E+01 -0.22381708025E+03  0.22559396866E+03  0.67892422484E+03  0.59995577983E+03 0.  0.
         23    2    4    4    0    0  0.10604269924E+03 -0.10752322698E+03 -0.16881265633E+03  0.24432572379E+03  0.91602663513E+02 0.  0.
         23    2    4    4    0    0 -0.10815012121E+03 -0.11629385327E+03  0.39440662499E+03  0.43459850106E+03  0.89992012191E+02 0.  0.
          5    1    3    3  502    0  0.75273900424E-01  0.16731974658E+03  0.33723091037E+02  0.17074905602E+03  0.47000000000E+01 0. -1.
         -5    1    3    3    0  502  0.20321480633E+01  0.56497333665E+02  0.85984155571E+02  0.10301186022E+03  0.47000000000E+01 0.  1.
         13    1    5    5    0    0 -0.47399203791E+01 -0.48412778948E+02 -0.30018495647E+02  0.57160949009E+02  0.00000000000E+00 0. -1.
        -13    1    5    5    0    0  0.11078261962E+03 -0.59110448028E+02 -0.13879416069E+03  0.18716477478E+03  0.00000000000E+00 0.  1.
          4    1    6    6  503    0 -0.74228171539E+02 -0.45592354059E+02  0.11423678648E+03  0.14366115545E+03  0.00000000000E+00 0. -1.
         -4    1    6    6    0  503 -0.33921949668E+02 -0.70701499211E+02  0.28016983851E+03  0.29093734561E+03  0.00000000000E+00 0.  1.
<mgrwt>
<rscale>  0 0.28192750E+03</rscale>
<asrwt>0</asrwt>
<pdfrwt beam="1">  1        1 0.99845104E-01 0.28192750E+03</pdfrwt>
<pdfrwt beam="2">  1       -1 0.46721841E-01 0.28192750E+03</pdfrwt>
<totfact> 0.14800737E+02</totfact>
</mgrwt>
</event>
<event>
12    1  0.3203156E-008  0.7823581E+03  0.7818608E-02  0.9585910E-01
         -2   -1    0    0    0  501 -0.00000000000E+00  0.00000000000E+00  0.84519093207E+03  0.84519093207E+03  0.00000000000E+00 0.  1.
          2   -1    0    0  501    0  0.00000000000E+00 -0.00000000000E+00 -0.86686589594E+03  0.86686589594E+03  0.00000000000E+00 0. -1.
         23    2    1    2    0    0  0.58789047969E+03 -0.45905132779E+03 -0.62422198447E+02  0.75391988698E+03  0.90306851682E+02 0.  0.
    5000000    2    1    2    0    0 -0.58789047969E+03  0.45905132779E+03  0.40747234577E+02  0.95813694103E+03  0.60001893552E+03 0.  0.
         23    2    4    4    0    0 -0.32928656265E+03  0.43438316088E+03 -0.20411496486E+03  0.58977503420E+03  0.95148837573E+02 0.  0.
         23    2    4    4    0    0 -0.25860391704E+03  0.24668166909E+02  0.24486219944E+03  0.36836190682E+03  0.90821216219E+02 0.  0.
          5    1    3    3  502    0  0.11189494298E+03 -0.13037228864E+03 -0.30642835420E+02  0.17458088461E+03  0.47000000000E+01 0. -1.
         -5    1    3    3    0  502  0.47599553671E+03 -0.32867903916E+03 -0.31779363027E+02  0.57933900236E+03  0.47000000000E+01 0.  1.
         11    1    5    5    0    0 -0.23060231520E+03  0.22817137765E+03 -0.12947954453E+03  0.34929150835E+03  0.00000000000E+00 0.  1.
        -11    1    5    5    0    0 -0.98684247444E+02  0.20621178324E+03 -0.74635420334E+02  0.24048352585E+03  0.00000000000E+00 0. -1.
          2    1    6    6  503    0 -0.12018124891E+03 -0.29284352577E+01  0.17107923258E+03  0.20909378791E+03  0.00000000000E+00 0. -1.
         -2    1    6    6    0  503 -0.13842266813E+03  0.27596602167E+02  0.73782966862E+02  0.15926811891E+03  0.00000000000E+00 0.  1.
<mgrwt>
<rscale>  0 0.78235806E+03</rscale>
<asrwt>0</asrwt>
<pdfrwt beam="1">  1        2 0.13336398E+00 0.78235806E+03</pdfrwt>
<pdfrwt beam="2">  1       -2 0.13002938E+00 0.78235806E+03</pdfrwt>
<totfact> 0.13574053E+01</totfact>
</mgrwt>
</event>
<event>
12    1  0.3203156E-008  0.6551668E+03  0.7818608E-02  0.9797132E-01
         -1   -1    0    0    0  501 -0.00000000000E+00  0.00000000000E+00  0.38656243110E+03  0.38656243110E+03  0.00000000000E+00 0.  1.
          1   -1    0    0  501    0  0.00000000000E+00 -0.00000000000E+00 -0.11582254627E+04  0.11582254627E+04  0.00000000000E+00 0. -1.
         23    2    1    2    0    0 -0.50124328646E+03 -0.16789714871E+03 -0.36146256363E+03  0.64607532753E+03  0.85579548760E+02 0.  0.
    5000000    2    1    2    0    0  0.50124328646E+03  0.16789714871E+03 -0.41020046793E+03  0.89871256623E+03  0.59998797325E+03 0.  0.
         23    2    4    4    0    0 -0.28898718624E+02 -0.13316144221E+03 -0.10792948902E+02  0.16444325977E+03  0.91422055917E+02 0.  0.
         23    2    4    4    0    0  0.53014200509E+03  0.30105859092E+03 -0.39940751903E+03  0.73426930646E+03  0.89096730756E+02 0.  0.
          5    1    3    3  502    0 -0.32476476332E+03 -0.65488426553E+02 -0.21863171519E+03  0.39696700416E+03  0.47000000000E+01 0. -1.
         -5    1    3    3    0  502 -0.17647852315E+03 -0.10240872216E+03 -0.14283084845E+03  0.24910832337E+03  0.47000000000E+01 0.  1.
         11    1    5    5    0    0 -0.28204086029E+02  0.59308408528E+00 -0.12062168195E+02  0.30680908054E+02  0.00000000000E+00 0. -1.
        -11    1    5    5    0    0 -0.69463259479E+00 -0.13375452629E+03  0.12692192931E+01  0.13376235171E+03  0.00000000000E+00 0.  1.
          3    1    6    6  503    0  0.44336667312E+03  0.22331784860E+03 -0.35162294025E+03  0.60834493541E+03  0.00000000000E+00 0. -1.
         -3    1    6    6    0  503  0.86775331968E+02  0.77740742319E+02 -0.47784578784E+02  0.12592437105E+03  0.00000000000E+00 0.  1.
<mgrwt>
<rscale>  0 0.65516675E+03</rscale>
<asrwt>0</asrwt>
<pdfrwt beam="1">  1        1 0.17818853E+00 0.65516675E+03</pdfrwt>
<pdfrwt beam="2">  1       -1 0.59471144E-01 0.65516675E+03</pdfrwt>
<totfact> 0.34174958E+01</totfact>
</mgrwt>
</event>
<event>
12    1  0.3203156E-008  0.6056082E+03  0.7818608E-02  0.9893839E-01
          1   -1    0    0  501    0  0.00000000000E+00  0.00000000000E+00  0.20268539144E+04  0.20268539144E+04  0.00000000000E+00 0. -1.
         -1   -1    0    0    0  501 -0.00000000000E+00 -0.00000000000E+00 -0.19826642325E+03  0.19826642325E+03  0.00000000000E+00 0.  1.
         23    2    1    2    0    0 -0.25531901056E+03  0.41108088992E+03  0.61366222157E+03  0.78627425990E+03  0.86432600268E+02 0.  0.
    5000000    2    1    2    0    0  0.25531901056E+03 -0.41108088992E+03  0.12149252696E+04  0.14388460778E+04  0.60004943927E+03 0.  0.
         23    2    4    4    0    0  0.27120555749E+03 -0.52449807398E+03  0.10953510814E+04  0.12471344107E+04  0.83063607829E+02 0.  0.
         23    2    4    4    0    0 -0.15886546929E+02  0.11341718406E+03  0.11957418821E+03  0.19171166702E+03  0.96641278818E+02 0.  0.
          5    1    3    3  502    0 -0.26077086417E+02  0.10988322636E+03  0.14134575521E+03  0.18098356386E+03  0.47000000000E+01 0. -1.
         -5    1    3    3    0  502 -0.22924192415E+03  0.30119766356E+03  0.47231646635E+03  0.60529069603E+03  0.47000000000E+01 0.  1.
         11    1    5    5    0    0  0.15513205359E+03 -0.24261152705E+03  0.46519317286E+03  0.54711150160E+03  0.00000000000E+00 0. -1.
        -11    1    5    5    0    0  0.11607350391E+03 -0.28188654693E+03  0.63015790853E+03  0.70002290915E+03  0.00000000000E+00 0.  1.
          4    1    6    6  503    0  0.18627448620E+02  0.63205805223E+02  0.11249431079E+03  0.13037225785E+03  0.00000000000E+00 0.  1.
         -4    1    6    6    0  503 -0.34513995550E+02  0.50211378837E+02  0.70798774240E+01  0.61339409174E+02  0.00000000000E+00 0. -1.
<mgrwt>
<rscale>  0 0.60560816E+03</rscale>
<asrwt>0</asrwt>
<pdfrwt beam="1">  1        1 0.31182366E+00 0.60560816E+03</pdfrwt>
<pdfrwt beam="2">  1       -1 0.30502528E-01 0.60560816E+03</pdfrwt>
<totfact> 0.30018208E+01</totfact>
</mgrwt>
</event>
<event>
12    1  0.3203156E-008  0.2240856E+04  0.7818608E-02  0.8501613E-01
          2   -1    0    0  501    0  0.00000000000E+00  0.00000000000E+00  0.34249418621E+04  0.34249418621E+04  0.00000000000E+00 0. -1.
         -2   -1    0    0    0  501 -0.00000000000E+00 -0.00000000000E+00 -0.16248708226E+04  0.16248708226E+04  0.00000000000E+00 0.  1.
         23    2    1    2    0    0 -0.22131846487E+04 -0.30031293283E+03  0.15580377962E+04  0.27245288962E+04  0.84863329807E+02 0.  0.
    5000000    2    1    2    0    0  0.22131846487E+04  0.30031293283E+03  0.24203324323E+03  0.23252837884E+04  0.59999204911E+03 0.  0.
         23    2    4    4    0    0  0.98727373857E+03  0.44152003298E+02 -0.16280870591E+03  0.10059764304E+04  0.93931195819E+02 0.  0.
         23    2    4    4    0    0  0.12259109101E+04  0.25616092953E+03  0.40484194914E+03  0.13193073580E+04  0.90547886411E+02 0.  0.
          5    1    3    3  502    0 -0.13616589355E+04 -0.14434235067E+03  0.94348294068E+03  0.16628685818E+04  0.47000000000E+01 0. -1.
         -5    1    3    3    0  502 -0.85152571319E+03 -0.15597058216E+03  0.61455485556E+03  0.10616603144E+04  0.47000000000E+01 0.  1.
         13    1    5    5    0    0  0.32001723138E+03  0.58387984294E+02 -0.54980738616E+02  0.32991372616E+03  0.00000000000E+00 0. -1.
        -13    1    5    5    0    0  0.66725650719E+03 -0.14235980995E+02 -0.10782796729E+03  0.67606270425E+03  0.00000000000E+00 0.  1.
          3    1    6    6  503    0  0.19692927774E+03  0.65269500866E+02  0.42147392654E+02  0.21170179707E+03  0.00000000000E+00 0. -1.
         -3    1    6    6    0  503  0.10289816324E+04  0.19089142867E+03  0.36269455649E+03  0.11076055610E+04  0.00000000000E+00 0.  1.
<mgrwt>
<rscale>  0 0.22408559E+04</rscale>
<asrwt>0</asrwt>
<pdfrwt beam="1">  1        2 0.52691413E+00 0.22408559E+04</pdfrwt>
<pdfrwt beam="2">  1       -2 0.24998013E+00 0.22408559E+04</pdfrwt>
<totfact> 0.51069983E-02</totfact>
</mgrwt>
</event>
<event>
12    1  0.3203156E-008  0.3644050E+03  0.7818608E-02  0.1056853E+00
         -2   -1    0    0    0  501 -0.00000000000E+00  0.00000000000E+00  0.66361313455E+03  0.66361313455E+03  0.00000000000E+00 0.  1.
          2   -1    0    0  501    0  0.00000000000E+00 -0.00000000000E+00 -0.47525216164E+03  0.47525216164E+03  0.00000000000E+00 0. -1.
         23    2    1    2    0    0  0.27196788706E+03 -0.15284095264E+02  0.35770348062E+03  0.45822488457E+03  0.88420187947E+02 0.  0.
    5000000    2    1    2    0    0 -0.27196788706E+03  0.15284095264E+02 -0.16934250772E+03  0.68064041162E+03  0.60032853493E+03 0.  0.
         23    2    4    4    0    0  0.51071478486E+02  0.43640830206E+02 -0.29866747082E+03  0.32015025555E+03  0.93707577197E+02 0.  0.
         23    2    4    4    0    0 -0.32303936554E+03 -0.28356734941E+02  0.12932496311E+03  0.36049015607E+03  0.89831344370E+02 0.  0.
          5    1    3    3  502    0  0.16084093129E+03  0.33704681408E+02  0.21827152901E+03  0.27325878046E+03  0.47000000000E+01 0. -1.
         -5    1    3    3    0  502  0.11112695577E+03 -0.48988776672E+02  0.13943195161E+03  0.18496610411E+03  0.47000000000E+01 0.  1.
         11    1    5    5    0    0  0.64016492409E+02  0.64357310958E+02 -0.24055001386E+03  0.25710753381E+03  0.00000000000E+00 0. -1.
        -11    1    5    5    0    0 -0.12945013923E+02 -0.20716480753E+02 -0.58117456964E+02  0.63042721739E+02  0.00000000000E+00 0.  1.
          3    1    6    6  503    0 -0.21215149688E+03  0.38906878911E+01  0.12203798815E+03  0.24477880960E+03  0.00000000000E+00 0. -1.
         -3    1    6    6    0  503 -0.11088786867E+03 -0.32247422832E+02  0.72869749623E+01  0.11571134647E+03  0.00000000000E+00 0.  1.
<mgrwt>
<rscale>  0 0.36440498E+03</rscale>
<asrwt>0</asrwt>
<pdfrwt beam="1">  1        2 0.73115717E-01 0.36440498E+03</pdfrwt>
<pdfrwt beam="2">  1       -2 0.10209433E+00 0.36440498E+03</pdfrwt>
<totfact> 0.53767899E+01</totfact>
</mgrwt>
</event>
<event>
12    1  0.3203156E-008  0.5142508E+03  0.7818608E-02  0.1010125E+00
          2   -1    0    0  501    0  0.00000000000E+00  0.00000000000E+00  0.26919623587E+04  0.26919623587E+04  0.00000000000E+00 0. -1.
         -2   -1    0    0    0  501 -0.00000000000E+00 -0.00000000000E+00 -0.39713064431E+03  0.39713064431E+03  0.00000000000E+00 0.  1.
         23    2    1    2    0    0 -0.32168847937E+03  0.15557039017E+03  0.23592466064E+04  0.23878450950E+04  0.89855572954E+02 0.  0.
    5000000    2    1    2    0    0  0.32168847937E+03 -0.15557039017E+03 -0.64414892012E+02  0.70124790798E+03  0.59992810075E+03 0.  0.
         23    2    4    4    0    0  0.10658043839E+02 -0.31478875303E+03 -0.92076706163E+02  0.33981632048E+03  0.88269241043E+02 0.  0.
         23    2    4    4    0    0  0.31103043553E+03  0.15921836285E+03  0.27661814151E+02  0.36143158750E+03  0.88188420923E+02 0.  0.
          5    1    3    3  502    0 -0.84646681877E+02  0.60857566100E+02  0.47140671388E+03  0.48281992916E+03  0.47000000000E+01 0. -1.
         -5    1    3    3    0  502 -0.23704179749E+03  0.94712824075E+02  0.18878398925E+04  0.19050251658E+04  0.47000000000E+01 0.  1.
         13    1    5    5    0    0  0.22692681715E+02 -0.25965800777E+03 -0.41288906477E+02  0.26389773133E+03  0.00000000000E+00 0. -1.
        -13    1    5    5    0    0 -0.12034637875E+02 -0.55130745259E+02 -0.50787799687E+02  0.75918589150E+02  0.00000000000E+00 0.  1.
          1    1    6    6  503    0  0.10260104126E+03  0.74378501794E+02  0.47930274123E+02  0.13548596375E+03  0.00000000000E+00 0. -1.
         -1    1    6    6    0  503  0.20842939427E+03  0.84839861059E+02 -0.20268459972E+02  0.22594562375E+03  0.00000000000E+00 0.  1.
<mgrwt>
<rscale>  0 0.51425078E+03</rscale>
<asrwt>0</asrwt>
<pdfrwt beam="1">  1        2 0.41414804E+00 0.51425078E+03</pdfrwt>
<pdfrwt beam="2">  1       -2 0.61097024E-01 0.51425078E+03</pdfrwt>
<totfact> 0.74304234E+00</totfact>
</mgrwt>
</event>
<event>
12    1  0.3203156E-008  0.1271671E+04  0.7818608E-02  0.9052337E-01
         -1   -1    0    0    0  501 -0.00000000000E+00  0.00000000000E+00  0.97054288195E+03  0.97054288195E+03  0.00000000000E+00 0.  1.
          1   -1    0    0  501    0  0.00000000000E+00 -0.00000000000E+00 -0.19438483154E+04  0.19438483154E+04  0.00000000000E+00 0. -1.
         23    2    1    2    0    0  0.94251564010E+03 -0.83073200731E+03 -0.84314598773E+03  0.15158801752E+04  0.92445384907E+02 0.  0.
    5000000    2    1    2    0    0 -0.94251564010E+03  0.83073200731E+03 -0.13015944568E+03  0.13985110221E+04  0.60036671942E+03 0.  0.
         23    2    4    4    0    0 -0.10639486623E+03  0.19740765149E+03 -0.23876257952E+03  0.34008053906E+03  0.91419665490E+02 0.  0.
         23    2    4    4    0    0 -0.83612077387E+03  0.63332435582E+03  0.10860313383E+03  0.10584304830E+04  0.91009661898E+02 0.  0.
          5    1    3    3  502    0  0.15725480645E+03 -0.11932669987E+03 -0.16984966886E+03  0.26045908597E+03  0.47000000000E+01 0. -1.
         -5    1    3    3    0  502  0.78526083366E+03 -0.71140530744E+03 -0.67329631887E+03  0.12554210893E+04  0.47000000000E+01 0.  1.
         13    1    5    5    0    0 -0.76177758557E+02  0.63998270309E+02 -0.64612786709E+02  0.11863238052E+03  0.00000000000E+00 0.  1.
        -13    1    5    5    0    0 -0.30217107675E+02  0.13340938118E+03 -0.17414979281E+03  0.22144815854E+03  0.00000000000E+00 0. -1.
          4    1    6    6  503    0 -0.85866142923E+01  0.13822680758E+02 -0.80242837585E+01  0.18143472054E+02  0.00000000000E+00 0.  1.
         -4    1    6    6    0  503 -0.82753415958E+03  0.61950167506E+03  0.11662741759E+03  0.10402870110E+04  0.00000000000E+00 0. -1.
<mgrwt>
<rscale>  0 0.12716714E+04</rscale>
<asrwt>0</asrwt>
<pdfrwt beam="1">  1        1 0.29905358E+00 0.12716714E+04</pdfrwt>
<pdfrwt beam="2">  1       -1 0.14931429E+00 0.12716714E+04</pdfrwt>
<totfact> 0.11192263E+00</totfact>
</mgrwt>
</event>
<event>
12    1  0.3203156E-008  0.5883122E+03  0.7818608E-02  0.9929956E-01
         -1   -1    0    0    0  501 -0.00000000000E+00  0.00000000000E+00  0.56575519426E+03  0.56575519426E+03  0.00000000000E+00 0.  1.
          1   -1    0    0  501    0  0.00000000000E+00 -0.00000000000E+00 -0.97568683435E+03  0.97568683435E+03  0.00000000000E+00 0. -1.
         23    2    1    2    0    0 -0.51321290801E+03 -0.22732117881E+03 -0.44017094375E+03  0.71923006863E+03  0.92081619368E+02 0.  0.
    5000000    2    1    2    0    0  0.51321290801E+03  0.22732117881E+03  0.30239303659E+02  0.82221195998E+03  0.60004640185E+03 0.  0.
         23    2    4    4    0    0  0.84250386305E+02 -0.44175557020E+01 -0.23086550708E+03  0.26008830729E+03  0.85025895118E+02 0.  0.
         23    2    4    4    0    0  0.42896252170E+03  0.23173873451E+03  0.26110481074E+03  0.56212365269E+03  0.10047682633E+03 0.  0.
          5    1    3    3  502    0 -0.24920871554E+03 -0.15862973919E+03 -0.24422795572E+03  0.38332461754E+03  0.47000000000E+01 0. -1.
         -5    1    3    3    0  502 -0.26400419247E+03 -0.68691439622E+02 -0.19594298803E+03  0.33590545110E+03  0.47000000000E+01 0.  1.
         13    1    5    5    0    0  0.10000773660E+03  0.17096890016E+01 -0.17332083900E+03  0.20011142808E+03  0.00000000000E+00 0.  1.
        -13    1    5    5    0    0 -0.15757350294E+02 -0.61272447036E+01 -0.57544668074E+02  0.59976879209E+02  0.00000000000E+00 0. -1.
          3    1    6    6  503    0  0.31250628137E+03  0.19882144776E+03  0.15625742852E+03  0.40200314421E+03  0.00000000000E+00 0. -1.
         -3    1    6    6    0  503  0.11645624033E+03  0.32917286747E+02  0.10484738222E+03  0.16012050849E+03  0.00000000000E+00 0.  1.
<mgrwt>
<rscale>  0 0.58831218E+03</rscale>
<asrwt>0</asrwt>
<pdfrwt beam="1">  1        1 0.15010567E+00 0.58831218E+03</pdfrwt>
<pdfrwt beam="2">  1       -1 0.87039261E-01 0.58831218E+03</pdfrwt>
<totfact> 0.21611619E+01</totfact>
</mgrwt>
</event>
<event>
12    1  0.3203156E-008  0.3363717E+03  0.7818608E-02  0.1068352E+00
          2   -1    0    0  501    0  0.00000000000E+00  0.00000000000E+00  0.56634723359E+03  0.56634723359E+03  0.00000000000E+00 0. -1.
         -2   -1    0    0    0  501 -0.00000000000E+00 -0.00000000000E+00 -0.52552463152E+03  0.52552463152E+03  0.00000000000E+00 0.  1.
         23    2    1    2    0    0  0.17066404305E+02 -0.29757520269E+03 -0.21317979552E+03  0.37541629930E+03  0.81544522503E+02 0.  0.
    5000000    2    1    2    0    0 -0.17066404305E+02  0.29757520269E+03  0.25400239760E+03  0.71645556581E+03  0.59995757881E+03 0.  0.
         23    2    4    4    0    0 -0.68663021472E+02  0.22137282014E+03  0.43107667209E+03  0.49719083030E+03  0.87470500723E+02 0.  0.
         23    2    4    4    0    0  0.51596617167E+02  0.76202382553E+02 -0.17707427449E+03  0.21926473551E+03  0.90844435941E+02 0.  0.
          5    1    3    3  502    0 -0.23058044661E+02 -0.11460137598E+03 -0.11424487587E+03  0.16352103982E+03  0.47000000000E+01 0. -1.
         -5    1    3    3    0  502  0.40124448966E+02 -0.18297382671E+03 -0.98934919654E+02  0.21189525949E+03  0.47000000000E+01 0.  1.
         13    1    5    5    0    0 -0.31920289475E+02  0.21228109272E+02  0.11550239851E+03  0.12169774675E+03  0.00000000000E+00 0. -1.
        -13    1    5    5    0    0 -0.36742731997E+02  0.20014471087E+03  0.31557427358E+03  0.37549308354E+03  0.00000000000E+00 0.  1.
          1    1    6    6  503    0  0.44382226790E+02  0.95844211655E+02 -0.12824279397E+03  0.16613882499E+03  0.00000000000E+00 0. -1.
         -1    1    6    6    0  503  0.72143903771E+01 -0.19641829102E+02 -0.48831480521E+02  0.53125910523E+02  0.00000000000E+00 0.  1.
<mgrwt>
<rscale>  0 0.33637165E+03</rscale>
<asrwt>0</asrwt>
<pdfrwt beam="1">  1        2 0.87130344E-01 0.33637165E+03</pdfrwt>
<pdfrwt beam="2">  1       -2 0.80849943E-01 0.33637165E+03</pdfrwt>
<totfact> 0.75306506E+01</totfact>
</mgrwt>
</event>
<event>
12    1  0.3203156E-008  0.4965649E+03  0.7818608E-02  0.1014679E+00
         -2   -1    0    0    0  501 -0.00000000000E+00  0.00000000000E+00  0.46262714995E+03  0.46262714995E+03  0.00000000000E+00 0.  1.
          2   -1    0    0  501    0  0.00000000000E+00 -0.00000000000E+00 -0.55811497046E+03  0.55811497046E+03  0.00000000000E+00 0. -1.
         23    2    1    2    0    0 -0.68750366690E+02  0.30620607392E+03 -0.90031004392E+02  0.34351588597E+03  0.10681202901E+03 0.  0.
    5000000    2    1    2    0    0  0.68750366690E+02 -0.30620607392E+03 -0.54568161209E+01  0.67722623444E+03  0.60009734473E+03 0.  0.
         23    2    4    4    0    0  0.31890250308E+03 -0.18661666450E+03 -0.43853301017E+02  0.38207908457E+03  0.86814335894E+02 0.  0.
         23    2    4    4    0    0 -0.25015213639E+03 -0.11958940942E+03  0.38396484897E+02  0.29514714987E+03  0.93593973287E+02 0.  0.
          5    1    3    3  502    0  0.19624652018E+02  0.14755993088E+02 -0.17183270499E+02  0.30335146017E+02  0.47000000000E+01 0. -1.
         -5    1    3    3    0  502 -0.88375018708E+02  0.29145008083E+03 -0.72847733893E+02  0.31318073996E+03  0.47000000000E+01 0.  1.
         11    1    5    5    0    0  0.16526437242E+03 -0.50362975732E+02 -0.36577872737E+02  0.17659751665E+03  0.00000000000E+00 0. -1.
        -11    1    5    5    0    0  0.15363813067E+03 -0.13625368877E+03 -0.72754282809E+01  0.20548156792E+03  0.00000000000E+00 0.  1.
          2    1    6    6  503    0 -0.13526080044E+03 -0.27153081112E+02 -0.13969809795E+02  0.13866481001E+03  0.00000000000E+00 0. -1.
         -2    1    6    6    0  503 -0.11489133596E+03 -0.92436328306E+02  0.52366294691E+02  0.15648233986E+03  0.00000000000E+00 0.  1.
<mgrwt>
<rscale>  0 0.49656486E+03</rscale>
<asrwt>0</asrwt>
<pdfrwt beam="1">  1        2 0.85863841E-01 0.49656486E+03</pdfrwt>
<pdfrwt beam="2">  1       -2 0.71173408E-01 0.49656486E+03</pdfrwt>
<totfact> 0.99762700E+01</totfact>
</mgrwt>
</event>
<event>
12    1  0.3203156E-008  0.7130791E+03  0.7818608E-02  0.9695123E-01
          1   -1    0    0  501    0  0.00000000000E+00  0.00000000000E+00  0.14599726273E+04  0.14599726273E+04  0.00000000000E+00 0. -1.
         -1   -1    0    0    0  501 -0.00000000000E+00 -0.00000000000E+00 -0.42510415344E+03  0.42510415344E+03  0.00000000000E+00 0.  1.
         23    2    1    2    0    0 -0.28486839581E+03 -0.58748877267E+03  0.61567766512E+03  0.90354222369E+03  0.10505475583E+03 0.  0.
    5000000    2    1    2    0    0  0.28486839581E+03  0.58748877267E+03  0.41919080878E+03  0.98153455709E+03  0.60116228396E+03 0.  0.
         23    2    4    4    0    0  0.36672120293E+03  0.41634031276E+03  0.60343599887E+02  0.56524170109E+03  0.89627751816E+02 0.  0.
         23    2    4    4    0    0 -0.81852807120E+02  0.17114845990E+03  0.35884720890E+03  0.41629285600E+03  0.92394508827E+02 0.  0.
          5    1    3    3  502    0 -0.85472255536E+02 -0.12290543124E+03  0.19464057410E+03  0.24559783098E+03  0.47000000000E+01 0. -1.
         -5    1    3    3    0  502 -0.19939614027E+03 -0.46458334143E+03  0.42103709102E+03  0.65794439271E+03  0.47000000000E+01 0.  1.
         13    1    5    5    0    0  0.22668790245E+03  0.31048819567E+03  0.63665194802E+02  0.38967112004E+03  0.00000000000E+00 0.  1.
        -13    1    5    5    0    0  0.14003330048E+03  0.10585211710E+03 -0.33215949154E+01  0.17557058105E+03  0.00000000000E+00 0. -1.
          1    1    6    6  503    0 -0.77323341003E+02  0.55735526668E+02  0.15328751115E+03  0.18050598071E+03  0.00000000000E+00 0. -1.
         -1    1    6    6    0  503 -0.45294661173E+01  0.11541293324E+03  0.20555969774E+03  0.23578687529E+03  0.00000000000E+00 0.  1.
<mgrwt>
<rscale>  0 0.71307906E+03</rscale>
<asrwt>0</asrwt>
<pdfrwt beam="1">  1        1 0.22461117E+00 0.71307906E+03</pdfrwt>
<pdfrwt beam="2">  1       -1 0.65400640E-01 0.71307906E+03</pdfrwt>
<totfact> 0.17196944E+01</totfact>
</mgrwt>
</event>
<event>
12    1  0.3203156E-008  0.1419291E+04  0.7818608E-02  0.8939972E-01
         -2   -1    0    0    0  501 -0.00000000000E+00  0.00000000000E+00  0.10356642186E+04  0.10356642186E+04  0.00000000000E+00 0.  1.
          2   -1    0    0  501    0  0.00000000000E+00 -0.00000000000E+00 -0.25732240546E+04  0.25732240546E+04  0.00000000000E+00 0. -1.
         23    2    1    2    0    0 -0.80423575280E+03  0.11315251751E+04 -0.15680583854E+04  0.20962113480E+04  0.90280383084E+02 0.  0.
    5000000    2    1    2    0    0  0.80423575280E+03 -0.11315251751E+04  0.30498549291E+02  0.15126769252E+04  0.60009745079E+03 0.  0.
         23    2    4    4    0    0  0.64554421424E+03 -0.57875613815E+03  0.22296115440E+03  0.89977567809E+03  0.90546090541E+02 0.  0.
         23    2    4    4    0    0  0.15869153856E+03 -0.55276903698E+03 -0.19246260511E+03  0.61290124710E+03  0.88710042726E+02 0.  0.
          5    1    3    3  502    0 -0.68916850823E+03  0.91237327645E+03 -0.13011782944E+04  0.17321851149E+04  0.47000000000E+01 0. -1.
         -5    1    3    3    0  502 -0.11506724457E+03  0.21915189868E+03 -0.26688009094E+03  0.36402623313E+03  0.47000000000E+01 0.  1.
         11    1    5    5    0    0  0.35346449668E+03 -0.35073080970E+03  0.89493451218E+02  0.50592324427E+03  0.00000000000E+00 0. -1.
        -11    1    5    5    0    0  0.29207971756E+03 -0.22802532846E+03  0.13346770318E+03  0.39385243381E+03  0.00000000000E+00 0.  1.
          2    1    6    6  503    0  0.98389194923E+02 -0.22117873893E+03 -0.51008980543E+02  0.24739115653E+03  0.00000000000E+00 0. -1.
         -2    1    6    6    0  503  0.60302343635E+02 -0.33159029805E+03 -0.14145362456E+03  0.36551009057E+03  0.00000000000E+00 0.  1.
<mgrwt>
<rscale>  0 0.14192911E+04</rscale>
<asrwt>0</asrwt>
<pdfrwt beam="1">  1        2 0.39588062E+00 0.14192911E+04</pdfrwt>
<pdfrwt beam="2">  1       -2 0.15933296E+00 0.14192911E+04</pdfrwt>
<totfact> 0.76549498E-01</totfact>
</mgrwt>
</event>
<event>
12    1  0.3203156E-008  0.4486460E+03  0.7818608E-02  0.1028127E+00
         -1   -1    0    0    0  501 -0.00000000000E+00  0.00000000000E+00  0.10956234681E+03  0.10956234681E+03  0.00000000000E+00 0.  1.
          1   -1    0    0  501    0  0.00000000000E+00 -0.00000000000E+00 -0.21729855259E+04  0.21729855259E+04  0.00000000000E+00 0. -1.
         23    2    1    2    0    0  0.27580232309E+03 -0.14670907773E+02 -0.41727654220E+03  0.50884167242E+03  0.92292892251E+02 0.  0.
    5000000    2    1    2    0    0 -0.27580232309E+03  0.14670907773E+02 -0.16461466369E+04  0.17737062003E+04  0.59996064694E+03 0.  0.
         23    2    4    4    0    0  0.15484068638E+03  0.58524757807E+02 -0.28148330264E+03  0.33925294226E+03  0.91972407413E+02 0.  0.
         23    2    4    4    0    0 -0.43064300948E+03 -0.43853850035E+02 -0.13646633343E+04  0.14344532581E+04  0.89294859329E+02 0.  0.
          5    1    3    3  502    0  0.12781143323E+03  0.38875334572E+02 -0.19750842921E+03  0.23849260725E+03  0.47000000000E+01 0. -1.
         -5    1    3    3    0  502  0.14799088986E+03 -0.53546242344E+02 -0.21976811299E+03  0.27034906517E+03  0.47000000000E+01 0.  1.
         13    1    5    5    0    0  0.13545658650E+03  0.35209208958E+02 -0.27452615872E+03  0.30814410110E+03  0.00000000000E+00 0. -1.
        -13    1    5    5    0    0  0.19384099879E+02  0.23315548850E+02 -0.69571439245E+01  0.31108841153E+02  0.00000000000E+00 0.  1.
          1    1    6    6  503    0 -0.24985382632E+03 -0.50795836507E+02 -0.91210231213E+03  0.94706799087E+03  0.00000000000E+00 0. -1.
         -1    1    6    6    0  503 -0.18078918315E+03  0.69419864717E+01 -0.45256102214E+03  0.48738526720E+03  0.00000000000E+00 0.  1.
<mgrwt>
<rscale>  0 0.44864595E+03</rscale>
<asrwt>0</asrwt>
<pdfrwt beam="1">  1        1 0.33430549E+00 0.44864595E+03</pdfrwt>
<pdfrwt beam="2">  1       -1 0.16855744E-01 0.44864595E+03</pdfrwt>
<totfact> 0.66800508E+01</totfact>
</mgrwt>
</event>
<event>
12    1  0.3203156E-008  0.4401311E+03  0.7818608E-02  0.1030707E+00
         -1   -1    0    0    0  501 -0.00000000000E+00  0.00000000000E+00  0.55926485704E+03  0.55926485704E+03  0.00000000000E+00 0.  1.
          1   -1    0    0  501    0  0.00000000000E+00 -0.00000000000E+00 -0.24508702332E+04  0.24508702332E+04  0.00000000000E+00 0. -1.
         23    2    1    2    0    0  0.23646838226E+03 -0.14598566821E+03  0.47231639680E+03  0.55551095091E+03  0.90997399754E+02 0.  0.
    5000000    2    1    2    0    0 -0.23646838226E+03  0.14598566821E+03 -0.23639217729E+04  0.24546241393E+04  0.59985365344E+03 0.  0.
         23    2    4    4    0    0  0.10126064560E+03  0.21057826175E+03 -0.52613788976E+03  0.58274241227E+03  0.90392020366E+02 0.  0.
         23    2    4    4    0    0 -0.33772902786E+03 -0.64592593539E+02 -0.18377838832E+04  0.18718817270E+04  0.90876285926E+02 0.  0.
          5    1    3    3  502    0  0.16002505979E+03 -0.73535274140E+02  0.21855028478E+03  0.28071653546E+03  0.47000000000E+01 0. -1.
         -5    1    3    3    0  502  0.76443322468E+02 -0.72450394071E+02  0.25376611203E+03  0.27479441545E+03  0.47000000000E+01 0.  1.
         13    1    5    5    0    0 -0.14840079543E+02  0.14840792641E+02 -0.27227937513E+02  0.34377865964E+02  0.00000000000E+00 0.  1.
        -13    1    5    5    0    0  0.11610072514E+03  0.19573746911E+03 -0.49890995225E+03  0.54836454630E+03  0.00000000000E+00 0. -1.
          2    1    6    6  503    0 -0.82374423717E+02 -0.45306379150E+02 -0.35993436915E+03  0.37200935979E+03  0.00000000000E+00 0. -1.
         -2    1    6    6    0  503 -0.25535460414E+03 -0.19286214389E+02 -0.14778495140E+04  0.14998723672E+04  0.00000000000E+00 0.  1.
<mgrwt>
<rscale>  0 0.44013106E+03</rscale>
<asrwt>0</asrwt>
<pdfrwt beam="1">  1        1 0.37705696E+00 0.44013106E+03</pdfrwt>
<pdfrwt beam="2">  1       -1 0.86040747E-01 0.44013106E+03</pdfrwt>
<totfact> 0.22549414E+00</totfact>
</mgrwt>
</event>
<event>
12    1  0.3203156E-008  0.8730123E+03  0.7818608E-02  0.9459961E-01
         -2   -1    0    0    0  501 -0.00000000000E+00  0.00000000000E+00  0.43890056346E+03  0.43890056346E+03  0.00000000000E+00 0. -1.
          2   -1    0    0  501    0  0.00000000000E+00 -0.00000000000E+00 -0.21051377348E+04  0.21051377348E+04  0.00000000000E+00 0.  1.
         23    2    1    2    0    0 -0.22851346633E+02  0.84228986920E+03 -0.10099674363E+04  0.13190002011E+04  0.98756773184E+02 0.  0.
    5000000    2    1    2    0    0  0.22851346633E+02 -0.84228986920E+03 -0.65626973502E+03  0.12250380972E+04  0.60004497047E+03 0.  0.
         23    2    4    4    0    0 -0.13302306495E+03 -0.48202049934E+03 -0.64521511005E+03  0.82145275616E+03  0.91886858575E+02 0.  0.
         23    2    4    4    0    0  0.15587441158E+03 -0.36026936986E+03 -0.11054624968E+02  0.40358534099E+03  0.93102479505E+02 0.  0.
          5    1    3    3  502    0 -0.84208099656E+01  0.56358893422E+03 -0.60209467321E+03  0.82476874475E+03  0.47000000000E+01 0. -1.
         -5    1    3    3    0  502 -0.14430536667E+02  0.27870093498E+03 -0.40787276307E+03  0.49423145631E+03  0.47000000000E+01 0.  1.
         13    1    5    5    0    0 -0.70690713013E+02 -0.17472176707E+03 -0.18139473389E+03  0.26158922431E+03  0.00000000000E+00 0.  1.
        -13    1    5    5    0    0 -0.62332351933E+02 -0.30729873227E+03 -0.46382037616E+03  0.55986353185E+03  0.00000000000E+00 0. -1.
          4    1    6    6  503    0  0.16589797271E+03 -0.33068304259E+03 -0.21655840000E+02  0.37059733865E+03  0.00000000000E+00 0.  1.
         -4    1    6    6    0  503 -0.10023561127E+02 -0.29586327265E+02  0.10601215033E+02  0.32988002348E+02  0.00000000000E+00 0. -1.
<mgrwt>
<rscale>  0 0.87301234E+03</rscale>
<asrwt>0</asrwt>
<pdfrwt beam="1">  1        2 0.32386734E+00 0.87301234E+03</pdfrwt>
<pdfrwt beam="2">  1       -2 0.67523164E-01 0.87301234E+03</pdfrwt>
<totfact> 0.11970989E+01</totfact>
</mgrwt>
</event>
<event>
12    1  0.3203156E-008  0.8194472E+03  0.7818608E-02  0.9532287E-01
          1   -1    0    0  501    0  0.00000000000E+00  0.00000000000E+00  0.11766105052E+04  0.11766105052E+04  0.00000000000E+00 0. -1.
         -1   -1    0    0    0  501 -0.00000000000E+00 -0.00000000000E+00 -0.80092442637E+03  0.80092442637E+03  0.00000000000E+00 0.  1.
         23    2    1    2    0    0  0.71871843819E+03  0.15787126184E+02 -0.33791472189E+03  0.80023035085E+03  0.96834025046E+02 0.  0.
    5000000    2    1    2    0    0 -0.71871843819E+03 -0.15787126184E+02  0.71360080072E+03  0.11773045807E+04  0.60001212175E+03 0.  0.
         23    2    4    4    0    0  0.60161214287E+02 -0.98698161169E+02  0.91545703576E+02  0.17353769857E+03  0.91509662117E+02 0.  0.
         23    2    4    4    0    0 -0.77887965247E+03  0.82911034985E+02  0.62205509714E+03  0.10037668821E+04  0.84069358550E+02 0.  0.
          5    1    3    3  502    0  0.18256087916E+03  0.10085850718E+02 -0.41507720946E+02  0.18755047289E+03  0.47000000000E+01 0. -1.
         -5    1    3    3    0  502  0.53615755903E+03  0.57012754660E+01 -0.29640700094E+03  0.61267987796E+03  0.47000000000E+01 0.  1.
         13    1    5    5    0    0  0.71519061661E+02 -0.10107178193E+03  0.55528902934E+02  0.13569797473E+03  0.00000000000E+00 0. -1.
        -13    1    5    5    0    0 -0.11357847374E+02  0.23736207623E+01  0.36016800642E+02  0.37839723849E+02  0.00000000000E+00 0.  1.
          4    1    6    6  503    0 -0.62604794748E+03  0.83067814600E+02  0.46215023328E+03  0.78257212606E+03  0.00000000000E+00 0. -1.
         -4    1    6    6    0  503 -0.15283170499E+03 -0.15677961520E+00  0.15990486387E+03  0.22119475608E+03  0.00000000000E+00 0.  1.
<mgrwt>
<rscale>  0 0.81944717E+03</rscale>
<asrwt>0</asrwt>
<pdfrwt beam="1">  1        1 0.18101700E+00 0.81944717E+03</pdfrwt>
<pdfrwt beam="2">  1       -1 0.12321914E+00 0.81944717E+03</pdfrwt>
<totfact> 0.66150457E+00</totfact>
</mgrwt>
</event>
<event>
12    1  0.3203156E-008  0.8235968E+03  0.7818608E-02  0.9526476E-01
          1   -1    0    0  501    0  0.00000000000E+00  0.00000000000E+00  0.28280407911E+04  0.28280407911E+04  0.00000000000E+00 0. -1.
         -1   -1    0    0    0  501 -0.00000000000E+00 -0.00000000000E+00 -0.27961176848E+03  0.27961176848E+03  0.00000000000E+00 0.  1.
         23    2    1    2    0    0 -0.63817373677E+03 -0.35771874210E+03  0.16304292830E+04  0.17894018403E+04  0.91819838272E+02 0.  0.
    5000000    2    1    2    0    0  0.63817373677E+03  0.35771874210E+03  0.91799973964E+03  0.13182507192E+04  0.59986083389E+03 0.  0.
         23    2    4    4    0    0  0.66791161974E+03  0.42759255567E+03  0.89118926692E+03  0.11967498855E+04  0.95134922518E+02 0.  0.
         23    2    4    4    0    0 -0.29737882969E+02 -0.69873813570E+02  0.26810472725E+02  0.12150083376E+03  0.90977797564E+02 0.  0.
          5    1    3    3  502    0 -0.56650085963E+03 -0.34712673573E+03  0.14849162313E+04  0.16267816383E+04  0.47000000000E+01 0. -1.
         -5    1    3    3    0  502 -0.71672877141E+02 -0.10592006363E+02  0.14551305163E+03  0.16262020204E+03  0.47000000000E+01 0.  1.
         11    1    5    5    0    0  0.30388338921E+03  0.23684120284E+03  0.47847653247E+03  0.61431153474E+03  0.00000000000E+00 0.  1.
        -11    1    5    5    0    0  0.36402823053E+03  0.19075135283E+03  0.41271273445E+03  0.58243835073E+03  0.00000000000E+00 0. -1.
          2    1    6    6  503    0  0.29725509735E+02 -0.16383426063E+02  0.23814676915E+02  0.41462771436E+02  0.00000000000E+00 0. -1.
         -2    1    6    6    0  503 -0.59463392704E+02 -0.53490387507E+02  0.29957958104E+01  0.80038062321E+02  0.00000000000E+00 0.  1.
<mgrwt>
<rscale>  0 0.82359678E+03</rscale>
<asrwt>0</asrwt>
<pdfrwt beam="1">  1        1 0.43508318E+00 0.82359678E+03</pdfrwt>
<pdfrwt beam="2">  1       -1 0.43017197E-01 0.82359678E+03</pdfrwt>
<totfact> 0.44575829E+00</totfact>
</mgrwt>
</event>
<event>
12    1  0.3203156E-008  0.5425289E+03  0.7818608E-02  0.1003238E+00
          1   -1    0    0  501    0  0.00000000000E+00  0.00000000000E+00  0.16751622358E+04  0.16751622358E+04  0.00000000000E+00 0. -1.
         -1   -1    0    0    0  501 -0.00000000000E+00 -0.00000000000E+00 -0.19341174807E+03  0.19341174807E+03  0.00000000000E+00 0.  1.
         23    2    1    2    0    0 -0.16375519194E+02  0.40387862660E+03  0.55931609675E+03  0.69620402792E+03  0.92083927736E+02 0.  0.
    5000000    2    1    2    0    0  0.16375519194E+02 -0.40387862660E+03  0.92243439093E+03  0.11723699559E+04  0.60014998565E+03 0.  0.
         23    2    4    4    0    0  0.23363143374E+03 -0.37088234988E+03  0.41227084032E+03  0.60861408471E+03  0.91139969510E+02 0.  0.
         23    2    4    4    0    0 -0.21725591454E+03 -0.32996276720E+02  0.51016355060E+03  0.56375587119E+03  0.96254596022E+02 0.  0.
          5    1    3    3  502    0 -0.18080900622E+02  0.18287331933E+03  0.32960680037E+03  0.37740204390E+03  0.47000000000E+01 0. -1.
         -5    1    3    3    0  502  0.17053814282E+01  0.22100530728E+03  0.22970929638E+03  0.31880198402E+03  0.47000000000E+01 0.  1.
         11    1    5    5    0    0  0.18653555846E+03 -0.25458081958E+03  0.24514706663E+03  0.39962981939E+03  0.00000000000E+00 0.  1.
        -11    1    5    5    0    0  0.47095875283E+02 -0.11630153030E+03  0.16712377369E+03  0.20898426532E+03  0.00000000000E+00 0. -1.
          2    1    6    6  503    0 -0.18315653720E+03 -0.62980728366E+02  0.43044075067E+03  0.47200861126E+03  0.00000000000E+00 0.  1.
         -2    1    6    6    0  503 -0.34099377340E+02  0.29984451646E+02  0.79722799932E+02  0.91747259929E+02  0.00000000000E+00 0. -1.
<mgrwt>
<rscale>  0 0.54252890E+03</rscale>
<asrwt>0</asrwt>
<pdfrwt beam="1">  1        1 0.25771726E+00 0.54252890E+03</pdfrwt>
<pdfrwt beam="2">  1       -1 0.29755655E-01 0.54252890E+03</pdfrwt>
<totfact> 0.54243457E+01</totfact>
</mgrwt>
</event>
<event>
12    1  0.3203156E-008  0.9098492E+03  0.7818608E-02  0.9413353E-01
          2   -1    0    0  501    0  0.00000000000E+00  0.00000000000E+00  0.51782712753E+03  0.51782712753E+03  0.00000000000E+00 0.  1.
         -2   -1    0    0    0  501 -0.00000000000E+00 -0.00000000000E+00 -0.20304440916E+04  0.20304440916E+04  0.00000000000E+00 0. -1.
         23    2    1    2    0    0 -0.67233704062E+03  0.52059760801E+03 -0.20924505558E+03  0.88034961256E+03  0.90404543034E+02 0.  0.
    5000000    2    1    2    0    0  0.67233704062E+03 -0.52059760801E+03 -0.13033719085E+04  0.16679216066E+04  0.60010431440E+03 0.  0.
         23    2    4    4    0    0  0.49725607339E+03 -0.57879763157E+03 -0.12270543241E+04  0.14477518787E+04  0.89737881244E+02 0.  0.
         23    2    4    4    0    0  0.17508096723E+03  0.58200023555E+02 -0.76317584463E+02  0.22016972787E+03  0.92788725307E+02 0.  0.
          5    1    3    3  502    0 -0.33824008704E+03  0.23946229254E+03 -0.59407793520E+02  0.41868833511E+03  0.47000000000E+01 0. -1.
         -5    1    3    3    0  502 -0.33409695358E+03  0.28113531547E+03 -0.14983726206E+03  0.46166127745E+03  0.47000000000E+01 0.  1.
         13    1    5    5    0    0  0.42170285204E+03 -0.47352355381E+03 -0.95386742524E+03  0.11453911630E+04  0.00000000000E+00 0.  1.
        -13    1    5    5    0    0  0.75553221346E+02 -0.10527407775E+03 -0.27318689883E+03  0.30236071569E+03  0.00000000000E+00 0. -1.
          3    1    6    6  503    0  0.10620965149E+03  0.79677695400E+02 -0.62359667703E+02  0.14668930898E+03  0.00000000000E+00 0. -1.
         -3    1    6    6    0  503  0.68871315733E+02 -0.21477671846E+02 -0.13957916760E+02  0.73480418881E+02  0.00000000000E+00 0.  1.
<mgrwt>
<rscale>  0 0.90984917E+03</rscale>
<asrwt>0</asrwt>
<pdfrwt beam="1">  1        2 0.79665713E-01 0.90984917E+03</pdfrwt>
<pdfrwt beam="2">  1       -2 0.31237601E+00 0.90984917E+03</pdfrwt>
<totfact> 0.16093819E+00</totfact>
</mgrwt>
</event>
<event>
12    1  0.3203156E-008  0.1781250E+04  0.7818608E-02  0.8716335E-01
          2   -1    0    0  501    0  0.00000000000E+00  0.00000000000E+00  0.29294858472E+04  0.29294858472E+04  0.00000000000E+00 0. -1.
         -2   -1    0    0    0  501 -0.00000000000E+00 -0.00000000000E+00 -0.12027053703E+04  0.12027053703E+04  0.00000000000E+00 0.  1.
         23    2    1    2    0    0  0.12266386382E+04  0.12469330513E+04  0.25724881990E+03  0.17702484546E+04  0.90101345508E+02 0.  0.
    5000000    2    1    2    0    0 -0.12266386382E+04 -0.12469330513E+04  0.14695316570E+04  0.23619427629E+04  0.59980491916E+03 0.  0.
         23    2    4    4    0    0  0.68362561953E+00 -0.55001660551E+02  0.27266299189E+01  0.10669255316E+03  0.91379518389E+02 0.  0.
         23    2    4    4    0    0 -0.12273222638E+04 -0.11919313907E+04  0.14668050271E+04  0.22552502097E+04  0.87270507407E+02 0.  0.
          5    1    3    3  502    0  0.11357158381E+04  0.11638403748E+04  0.21696048216E+03  0.16405696644E+04  0.47000000000E+01 0. -1.
         -5    1    3    3    0  502  0.90922800125E+02  0.83092676521E+02  0.40288337742E+02  0.12967879022E+03  0.47000000000E+01 0.  1.
         11    1    5    5    0    0  0.14647602778E+02  0.20585758778E+02  0.14188048047E+02  0.28976308236E+02  0.00000000000E+00 0.  1.
        -11    1    5    5    0    0 -0.13963977158E+02 -0.75587419330E+02 -0.11461418128E+02  0.77716244920E+02  0.00000000000E+00 0. -1.
          1    1    6    6  503    0 -0.19353713948E+03 -0.19707890673E+03  0.19661033034E+03  0.33904622374E+03  0.00000000000E+00 0. -1.
         -1    1    6    6    0  503 -0.10337851243E+04 -0.99485248400E+03  0.12701946967E+04  0.19162039860E+04  0.00000000000E+00 0.  1.
<mgrwt>
<rscale>  0 0.17812498E+04</rscale>
<asrwt>0</asrwt>
<pdfrwt beam="1">  1        2 0.45069013E+00 0.17812498E+04</pdfrwt>
<pdfrwt beam="2">  1       -2 0.18503160E+00 0.17812498E+04</pdfrwt>
<totfact> 0.29515428E-01</totfact>
</mgrwt>
</event>
<event>
12    1  0.3203156E-008  0.9852935E+03  0.7818608E-02  0.9324823E-01
         -1   -1    0    0    0  501 -0.00000000000E+00  0.00000000000E+00  0.30963630702E+03  0.30963630702E+03  0.00000000000E+00 0.  1.
          1   -1    0    0  501    0  0.00000000000E+00 -0.00000000000E+00 -0.34053086162E+04  0.34053086162E+04  0.00000000000E+00 0. -1.
         23    2    1    2    0    0  0.13274763952E+03  0.88884237253E+03 -0.94087033934E+03  0.13043852157E+04  0.92309785589E+02 0.  0.
    5000000    2    1    2    0    0 -0.13274763952E+03 -0.88884237253E+03 -0.21548019698E+04  0.24105597075E+04  0.59996989522E+03 0.  0.
         23    2    4    4    0    0  0.21827975487E+03 -0.22711662053E+03 -0.62313335561E+03  0.70305582173E+03  0.82245357852E+02 0.  0.
         23    2    4    4    0    0 -0.35102739439E+03 -0.66172575201E+03 -0.15316686142E+04  0.17075038857E+04  0.91975940419E+02 0.  0.
          5    1    3    3  502    0  0.32547788592E+02  0.51648320919E+03 -0.55475147001E+03  0.75867354468E+03  0.47000000000E+01 0. -1.
         -5    1    3    3    0  502  0.10019985093E+03  0.37235916335E+03 -0.38611886933E+03  0.54571167104E+03  0.47000000000E+01 0.  1.
         13    1    5    5    0    0  0.21610003956E+03 -0.21936591697E+03 -0.62306512740E+03  0.69500416230E+03  0.00000000000E+00 0. -1.
        -13    1    5    5    0    0  0.21797153118E+01 -0.77507035562E+01 -0.68228202876E-01  0.80516594280E+01  0.00000000000E+00 0.  1.
          3    1    6    6  503    0 -0.10341150956E+03 -0.14115558947E+03 -0.42719560536E+03  0.46164372192E+03  0.00000000000E+00 0. -1.
         -3    1    6    6    0  503 -0.24761588482E+03 -0.52057016254E+03 -0.11044730088E+04  0.12458601638E+04  0.00000000000E+00 0.  1.
<mgrwt>
<rscale>  0 0.98529348E+03</rscale>
<asrwt>0</asrwt>
<pdfrwt beam="1">  1        1 0.52389367E+00 0.98529348E+03</pdfrwt>
<pdfrwt beam="2">  1       -1 0.47636352E-01 0.98529348E+03</pdfrwt>
<totfact> 0.13555550E+00</totfact>
</mgrwt>
</event>
<event>
12    1  0.3203156E-008  0.1566337E+04  0.7818608E-02  0.8841499E-01
         -2   -1    0    0    0  501 -0.00000000000E+00  0.00000000000E+00  0.17624336928E+04  0.17624336928E+04  0.00000000000E+00 0.  1.
          2   -1    0    0  501    0  0.00000000000E+00 -0.00000000000E+00 -0.17997710542E+04  0.17997710542E+04  0.00000000000E+00 0. -1.
         23    2    1    2    0    0 -0.32142663998E+03 -0.15085394580E+04  0.76387485297E+03  0.17235105232E+04  0.89316019934E+02 0.  0.
    5000000    2    1    2    0    0  0.32142663998E+03  0.15085394580E+04 -0.80121221430E+03  0.18386942238E+04  0.59987419949E+03 0.  0.
         23    2    4    4    0    0 -0.72898190381E+02  0.43782333127E+03 -0.45744898160E+03  0.64420999904E+03  0.93506879627E+02 0.  0.
         23    2    4    4    0    0  0.39432483036E+03  0.10707161267E+04 -0.34376323270E+03  0.11944842248E+04  0.81818746393E+02 0.  0.
          5    1    3    3  502    0 -0.14526663554E+03 -0.89171835143E+03  0.44586491174E+03  0.10075125921E+04  0.47000000000E+01 0. -1.
         -5    1    3    3    0  502 -0.17616000444E+03 -0.61682110654E+03  0.31800994123E+03  0.71599793111E+03  0.47000000000E+01 0.  1.
         13    1    5    5    0    0 -0.72241257254E+02  0.43289974555E+03 -0.42348825525E+03  0.60988793338E+03  0.00000000000E+00 0.  1.
        -13    1    5    5    0    0 -0.65693312723E+00  0.49235857225E+01 -0.33960726349E+02  0.34322065667E+02  0.00000000000E+00 0. -1.
          4    1    6    6  503    0  0.34431057487E+03  0.99678926334E+03 -0.31239846562E+03  0.10998779063E+04  0.00000000000E+00 0. -1.
         -4    1    6    6    0  503  0.50014255485E+02  0.73926863363E+02 -0.31364767087E+02  0.94606318462E+02  0.00000000000E+00 0.  1.
<mgrwt>
<rscale>  0 0.15663374E+04</rscale>
<asrwt>0</asrwt>
<pdfrwt beam="1">  1        2 0.27688785E+00 0.15663374E+04</pdfrwt>
<pdfrwt beam="2">  1       -2 0.27114365E+00 0.15663374E+04</pdfrwt>
<totfact> 0.38353342E-01</totfact>
</mgrwt>
</event>
<event>
12    1  0.3203156E-008  0.6695125E+03  0.7818608E-02  0.9770839E-01
         -2   -1    0    0    0  501 -0.00000000000E+00  0.00000000000E+00  0.22797636875E+03  0.22797636875E+03  0.00000000000E+00 0.  1.
          2   -1    0    0  501    0  0.00000000000E+00 -0.00000000000E+00 -0.23294968259E+04  0.23294968259E+04  0.00000000000E+00 0. -1.
         23    2    1    2    0    0  0.31890841576E+03  0.46032245345E+03 -0.49435502390E+03  0.75287645939E+03  0.94003907618E+02 0.  0.
    5000000    2    1    2    0    0 -0.31890841576E+03 -0.46032245345E+03 -0.16071654333E+04  0.18045967353E+04  0.59999109019E+03 0.  0.
         23    2    4    4    0    0 -0.30011424859E+03 -0.10509311757E+01 -0.38963976856E+03  0.50003286437E+03  0.90244387882E+02 0.  0.
         23    2    4    4    0    0 -0.18794167167E+02 -0.45927152228E+03 -0.12175256647E+04  0.13045638709E+04  0.90744681234E+02 0.  0.
          5    1    3    3  502    0  0.16739711539E+03  0.28751951798E+03 -0.34169591259E+03  0.47693548216E+03  0.47000000000E+01 0. -1.
         -5    1    3    3    0  502  0.15151130037E+03  0.17280293547E+03 -0.15265911131E+03  0.27594097722E+03  0.47000000000E+01 0.  1.
         13    1    5    5    0    0 -0.98272409975E+02  0.41728731436E+02 -0.14336088072E+03  0.17874869429E+03  0.00000000000E+00 0. -1.
        -13    1    5    5    0    0 -0.20184183862E+03 -0.42779662612E+02 -0.24627888784E+03  0.32128417008E+03  0.00000000000E+00 0.  1.
          3    1    6    6  503    0  0.13621039499E+02 -0.32200111625E+03 -0.93094943538E+03  0.98515841509E+03  0.00000000000E+00 0. -1.
         -3    1    6    6    0  503 -0.32415206666E+02 -0.13727040603E+03 -0.28657622931E+03  0.31940545581E+03  0.00000000000E+00 0.  1.
<mgrwt>
<rscale>  0 0.66951251E+03</rscale>
<asrwt>0</asrwt>
<pdfrwt beam="1">  1        2 0.35838414E+00 0.66951251E+03</pdfrwt>
<pdfrwt beam="2">  1       -2 0.35073286E-01 0.66951251E+03</pdfrwt>
<totfact> 0.34974513E+01</totfact>
</mgrwt>
</event>
<event>
12    1  0.3203156E-008  0.7068041E+03  0.7818608E-02  0.9705667E-01
         -2   -1    0    0    0  501 -0.00000000000E+00  0.00000000000E+00  0.52122816412E+03  0.52122816412E+03  0.00000000000E+00 0.  1.
          2   -1    0    0  501    0  0.00000000000E+00 -0.00000000000E+00 -0.10668895249E+04  0.10668895249E+04  0.00000000000E+00 0. -1.
         23    2    1    2    0    0 -0.61418543296E+03 -0.58867363127E+02 -0.30586714372E+03  0.69466806526E+03  0.91213479212E+02 0.  0.
    5000000    2    1    2    0    0  0.61418543296E+03  0.58867363127E+02 -0.23979421704E+03  0.89344962373E+03  0.60005154038E+03 0.  0.
         23    2    4    4    0    0  0.33057490439E+03 -0.21480031966E+03  0.32784509193E+02  0.40546282448E+03  0.88917564353E+02 0.  0.
         23    2    4    4    0    0  0.28361052857E+03  0.27366768279E+03 -0.27257872623E+03  0.48798679925E+03  0.92211830758E+02 0.  0.
          5    1    3    3  502    0 -0.67332909530E+02 -0.24528142735E+02 -0.62102753591E+02  0.94943101357E+02  0.47000000000E+01 0. -1.
         -5    1    3    3    0  502 -0.54685252343E+03 -0.34339220392E+02 -0.24376439013E+03  0.59972496390E+03  0.47000000000E+01 0.  1.
         13    1    5    5    0    0  0.21500929131E+03 -0.15870701598E+03  0.60604711101E+02  0.27402526030E+03  0.00000000000E+00 0. -1.
        -13    1    5    5    0    0  0.11556561308E+03 -0.56093303679E+02 -0.27820201907E+02  0.13143756418E+03  0.00000000000E+00 0.  1.
          3    1    6    6  503    0  0.13945287916E+03  0.17352473256E+03 -0.19552720890E+03  0.29629179492E+03  0.00000000000E+00 0. -1.
         -3    1    6    6    0  503  0.14415764940E+03  0.10014295022E+03 -0.77051517333E+02  0.19169500433E+03  0.00000000000E+00 0.  1.
<mgrwt>
<rscale>  0 0.70680407E+03</rscale>
<asrwt>0</asrwt>
<pdfrwt beam="1">  1        2 0.16413685E+00 0.70680407E+03</pdfrwt>
<pdfrwt beam="2">  1       -2 0.80188948E-01 0.70680407E+03</pdfrwt>
<totfact> 0.32078549E+01</totfact>
</mgrwt>
</event>
<event>
12    1  0.3203156E-008  0.1123448E+04  0.7818608E-02  0.9182634E-01
         -2   -1    0    0    0  501 -0.00000000000E+00  0.00000000000E+00  0.11625015413E+04  0.11625015413E+04  0.00000000000E+00 0.  1.
          2   -1    0    0  501    0  0.00000000000E+00 -0.00000000000E+00 -0.11899411658E+04  0.11899411658E+04  0.00000000000E+00 0. -1.
         23    2    1    2    0    0 -0.10285603452E+04 -0.19083167495E+03 -0.34527663491E+03  0.11053261460E+04  0.90425784941E+02 0.  0.
    5000000    2    1    2    0    0  0.10285603452E+04  0.19083167495E+03  0.31783701042E+03  0.12471165610E+04  0.59993852994E+03 0.  0.
         23    2    4    4    0    0  0.32518815038E+03  0.34108864455E+03  0.10361242055E+03  0.49107080405E+03  0.91248037274E+02 0.  0.
         23    2    4    4    0    0  0.70337219479E+03 -0.15025696960E+03  0.21422458987E+03  0.75604575696E+03  0.91670117215E+02 0.  0.
          5    1    3    3  502    0 -0.38512628542E+03 -0.28768782353E+02 -0.13844783664E+03  0.41029232509E+03  0.47000000000E+01 0. -1.
         -5    1    3    3    0  502 -0.64343405975E+03 -0.16206289259E+03 -0.20682879828E+03  0.69503382091E+03  0.47000000000E+01 0.  1.
         11    1    5    5    0    0  0.23033636558E+03  0.22118457770E+03  0.11080514557E+03  0.33801662534E+03  0.00000000000E+00 0.  1.
        -11    1    5    5    0    0  0.94851784799E+02  0.11990406685E+03 -0.71927250173E+01  0.15305417871E+03  0.00000000000E+00 0. -1.
          2    1    6    6  503    0  0.42026931334E+03 -0.44221658857E+02  0.13276293587E+03  0.44295355060E+03  0.00000000000E+00 0. -1.
         -2    1    6    6    0  503  0.28310288146E+03 -0.10603531074E+03  0.81461653999E+02  0.31309220636E+03  0.00000000000E+00 0.  1.
<mgrwt>
<rscale>  0 0.11234485E+04</rscale>
<asrwt>0</asrwt>
<pdfrwt beam="1">  1        2 0.18306787E+00 0.11234485E+04</pdfrwt>
<pdfrwt beam="2">  1       -2 0.17884639E+00 0.11234485E+04</pdfrwt>
<totfact> 0.34714075E+00</totfact>
</mgrwt>
</event>
<event>
12    1  0.3203156E-008  0.9423795E+03  0.7818608E-02  0.9374102E-01
         -1   -1    0    0    0  501 -0.00000000000E+00  0.00000000000E+00  0.17554735524E+04  0.17554735524E+04  0.00000000000E+00 0.  1.
          1   -1    0    0  501    0  0.00000000000E+00 -0.00000000000E+00 -0.61576306987E+03  0.61576306987E+03  0.00000000000E+00 0. -1.
         23    2    1    2    0    0 -0.88492621588E+03 -0.18585252680E+03  0.18879804379E+03  0.92834744600E+03  0.92459233693E+02 0.  0.
    5000000    2    1    2    0    0  0.88492621588E+03  0.18585252680E+03  0.95091243878E+03  0.14428891763E+04  0.60004928100E+03 0.  0.
         23    2    4    4    0    0  0.82894335904E+03  0.23432136671E+03  0.99269687088E+03  0.13178104964E+04  0.95518750533E+02 0.  0.
         23    2    4    4    0    0  0.55982856839E+02 -0.48468839909E+02 -0.41784432102E+02  0.12507867986E+03  0.91735645679E+02 0.  0.
          5    1    3    3  502    0 -0.27895653827E+03 -0.71486558537E+02  0.18611441454E+02  0.28860969153E+03  0.47000000000E+01 0. -1.
         -5    1    3    3    0  502 -0.60596967761E+03 -0.11436596826E+03  0.17018660233E+03  0.63973775447E+03  0.47000000000E+01 0.  1.
         11    1    5    5    0    0  0.76600199797E+03  0.19381681279E+03  0.88177944994E+03  0.11840012737E+04  0.00000000000E+00 0. -1.
        -11    1    5    5    0    0  0.62941361068E+02  0.40504553922E+02  0.11091742094E+03  0.13380922273E+03  0.00000000000E+00 0.  1.
          3    1    6    6  503    0  0.57177520600E+02 -0.71759541753E+02 -0.21661396786E+02  0.94275748765E+02  0.00000000000E+00 0. -1.
         -3    1    6    6    0  503 -0.11946637615E+01  0.23290701844E+02 -0.20123035316E+02  0.30802931098E+02  0.00000000000E+00 0.  1.
<mgrwt>
<rscale>  0 0.94237952E+03</rscale>
<asrwt>0</asrwt>
<pdfrwt beam="1">  1        1 0.94732781E-01 0.94237952E+03</pdfrwt>
<pdfrwt beam="2">  1       -1 0.27007285E+00 0.94237952E+03</pdfrwt>
<totfact> 0.17331881E+00</totfact>
</mgrwt>
</event>
<event>
12    1  0.3203156E-008  0.2317459E+04  0.7818608E-02  0.8471069E-01
         -2   -1    0    0    0  501 -0.00000000000E+00  0.00000000000E+00  0.13288253995E+04  0.13288253995E+04  0.00000000000E+00 0.  1.
          2   -1    0    0  501    0  0.00000000000E+00 -0.00000000000E+00 -0.41694140560E+04  0.41694140560E+04  0.00000000000E+00 0. -1.
         23    2    1    2    0    0 -0.18349071959E+04 -0.13590597671E+04 -0.95514014261E+03  0.24768446995E+04  0.92407277821E+02 0.  0.
    5000000    2    1    2    0    0  0.18349071959E+04  0.13590597671E+04 -0.18854485139E+04  0.30213947560E+04  0.59998525364E+03 0.  0.
         23    2    4    4    0    0  0.94573662965E+03  0.10310940319E+04 -0.12322273350E+04  0.18666809400E+04  0.92416726287E+02 0.  0.
         23    2    4    4    0    0  0.88917056624E+03  0.32796573520E+03 -0.65322117890E+03  0.11547138160E+04  0.92088375263E+02 0.  0.
          5    1    3    3  502    0 -0.12568523271E+04 -0.95061997783E+03 -0.70157235199E+03  0.17249875273E+04  0.47000000000E+01 0. -1.
         -5    1    3    3    0  502 -0.57805486880E+03 -0.40843978932E+03 -0.25356779062E+03  0.75185717213E+03  0.47000000000E+01 0.  1.
         13    1    5    5    0    0  0.39396887077E+03  0.41153922139E+03 -0.44389417182E+03  0.72223129097E+03  0.00000000000E+00 0.  1.
        -13    1    5    5    0    0  0.55176775888E+03  0.61955481056E+03 -0.78833316317E+03  0.11444496490E+04  0.00000000000E+00 0. -1.
          4    1    6    6  503    0  0.37441074388E+03  0.91614507119E+02 -0.27894256402E+03  0.47579993387E+03  0.00000000000E+00 0. -1.
         -4    1    6    6    0  503  0.51475982235E+03  0.23635122808E+03 -0.37427861488E+03  0.67891388208E+03  0.00000000000E+00 0.  1.
<mgrwt>
<rscale>  0 0.23174586E+04</rscale>
<asrwt>0</asrwt>
<pdfrwt beam="1">  1        2 0.64144832E+00 0.23174586E+04</pdfrwt>
<pdfrwt beam="2">  1       -2 0.20443468E+00 0.23174586E+04</pdfrwt>
<totfact> 0.26655267E-02</totfact>
</mgrwt>
</event>
<event>
12    1  0.3203156E-008  0.8861369E+03  0.7818608E-02  0.9443079E-01
          1   -1    0    0  501    0  0.00000000000E+00  0.00000000000E+00  0.12493208876E+04  0.12493208876E+04  0.00000000000E+00 0. -1.
         -1   -1    0    0    0  501 -0.00000000000E+00 -0.00000000000E+00 -0.68053489078E+03  0.68053489078E+03  0.00000000000E+00 0.  1.
         23    2    1    2    0    0  0.59155219988E+03 -0.52833545723E+03  0.29868718004E+02  0.79871085506E+03  0.89300219024E+02 0.  0.
    5000000    2    1    2    0    0 -0.59155219988E+03  0.52833545723E+03  0.53891727883E+03  0.11311449233E+04  0.59998720288E+03 0.  0.
         23    2    4    4    0    0 -0.10466427585E+03 -0.10457782087E+03  0.19102253117E+02  0.17384425946E+03  0.89251326135E+02 0.  0.
         23    2    4    4    0    0 -0.48688792403E+03  0.63291327810E+03  0.51981502571E+03  0.95730066388E+03  0.92616585667E+02 0.  0.
          5    1    3    3  502    0  0.21866582436E+03 -0.25073624092E+03 -0.19210226559E+01  0.33272989884E+03  0.47000000000E+01 0. -1.
         -5    1    3    3    0  502  0.37288637552E+03 -0.27759921632E+03  0.31789740660E+02  0.46598095622E+03  0.47000000000E+01 0.  1.
         13    1    5    5    0    0 -0.11717967930E+03 -0.71888423980E+02  0.10983815031E+02  0.13791180854E+03  0.00000000000E+00 0. -1.
        -13    1    5    5    0    0  0.12515403445E+02 -0.32689396889E+02  0.81184380854E+01  0.35932450922E+02  0.00000000000E+00 0.  1.
          4    1    6    6  503    0 -0.33984140564E+02  0.17944824648E+02  0.39307203196E+02  0.54972672890E+02  0.00000000000E+00 0. -1.
         -4    1    6    6    0  503 -0.45290378347E+03  0.61496845346E+03  0.48050782252E+03  0.90232799099E+03  0.00000000000E+00 0.  1.
<mgrwt>
<rscale>  0 0.88613686E+03</rscale>
<asrwt>0</asrwt>
<pdfrwt beam="1">  1        1 0.19220321E+00 0.88613686E+03</pdfrwt>
<pdfrwt beam="2">  1       -1 0.10469768E+00 0.88613686E+03</pdfrwt>
<totfact> 0.85758644E+00</totfact>
</mgrwt>
</event>
<event>
12    1  0.3203156E-008  0.7228184E+03  0.7818608E-02  0.9678986E-01
         -2   -1    0    0    0  501 -0.00000000000E+00  0.00000000000E+00  0.58053529803E+03  0.58053529803E+03  0.00000000000E+00 0.  1.
          2   -1    0    0  501    0  0.00000000000E+00 -0.00000000000E+00 -0.11444730380E+04  0.11444730380E+04  0.00000000000E+00 0. -1.
         23    2    1    2    0    0  0.44625199225E+03  0.40910978328E+03 -0.61945610147E+03  0.87096357444E+03  0.91323770111E+02 0.  0.
    5000000    2    1    2    0    0 -0.44625199225E+03 -0.40910978328E+03  0.55518361458E+02  0.85404476164E+03  0.59983206905E+03 0.  0.
         23    2    4    4    0    0 -0.39404214306E+03  0.12156797232E+02 -0.48584014051E+02  0.40754388072E+03  0.91184483677E+02 0.  0.
         23    2    4    4    0    0 -0.52209849195E+02 -0.42126658051E+03  0.10410237551E+03  0.44650088092E+03  0.91292561949E+02 0.  0.
          5    1    3    3  502    0  0.36905306603E+03  0.28671868425E+03 -0.46599672969E+03  0.65998697830E+03  0.47000000000E+01 0. -1.
         -5    1    3    3    0  502  0.77198926226E+02  0.12239109903E+03 -0.15345937178E+03  0.21097659614E+03  0.47000000000E+01 0.  1.
         11    1    5    5    0    0 -0.17853547699E+03  0.50881994127E+02 -0.19631606125E+02  0.18667965564E+03  0.00000000000E+00 0. -1.
        -11    1    5    5    0    0 -0.21550666607E+03 -0.38725196895E+02 -0.28952407926E+02  0.22086422508E+03  0.00000000000E+00 0.  1.
          3    1    6    6  503    0 -0.37663881609E+01 -0.27058988657E+03  0.31741761797E+02  0.27247130461E+03  0.00000000000E+00 0. -1.
         -3    1    6    6    0  503 -0.48443461034E+02 -0.15067669394E+03  0.72360613712E+02  0.17402957631E+03  0.00000000000E+00 0.  1.
<mgrwt>
<rscale>  0 0.72281840E+03</rscale>
<asrwt>0</asrwt>
<pdfrwt beam="1">  1        2 0.17607278E+00 0.72281840E+03</pdfrwt>
<pdfrwt beam="2">  1       -2 0.89313123E-01 0.72281840E+03</pdfrwt>
<totfact> 0.22475914E+01</totfact>
</mgrwt>
</event>
<event>
12    1  0.3203156E-008  0.7130559E+03  0.7818608E-02  0.9695162E-01
         -2   -1    0    0    0  501 -0.00000000000E+00  0.00000000000E+00  0.41457113576E+03  0.41457113576E+03  0.00000000000E+00 0.  1.
          2   -1    0    0  501    0  0.00000000000E+00 -0.00000000000E+00 -0.21245496146E+04  0.21245496146E+04  0.00000000000E+00 0. -1.
         23    2    1    2    0    0  0.21036685663E+03 -0.57414135969E+03  0.88212314865E+01  0.61868345897E+03  0.93802414678E+02 0.  0.
    5000000    2    1    2    0    0 -0.21036685663E+03  0.57414135969E+03 -0.17187997104E+04  0.19204372914E+04  0.59992868803E+03 0.  0.
         23    2    4    4    0    0  0.16825670185E+03  0.25570905530E+03 -0.42410574428E+03  0.53158743639E+03  0.94984638309E+02 0.  0.
         23    2    4    4    0    0 -0.37862355848E+03  0.31843230439E+03 -0.12946939661E+04  0.13888498550E+04  0.88974842189E+02 0.  0.
          5    1    3    3  502    0  0.15366238085E+03 -0.48472233358E+03 -0.19790600148E+02  0.50890237356E+03  0.47000000000E+01 0. -1.
         -5    1    3    3    0  502  0.56704475782E+02 -0.89419026112E+02  0.28611831634E+02  0.10978108541E+03  0.47000000000E+01 0.  1.
         13    1    5    5    0    0  0.80386600592E+02  0.15972583531E+03 -0.17319737485E+03  0.24894111488E+03  0.00000000000E+00 0. -1.
        -13    1    5    5    0    0  0.87870101253E+02  0.95983219992E+02 -0.25090836943E+03  0.28264632151E+03  0.00000000000E+00 0.  1.
          4    1    6    6  503    0 -0.34588224685E+03  0.31810443506E+03 -0.12095954216E+04  0.12976694665E+04  0.00000000000E+00 0. -1.
         -4    1    6    6    0  503 -0.32741311625E+02  0.32786932653E+00 -0.85098544507E+02  0.91180388585E+02  0.00000000000E+00 0.  1.
<mgrwt>
<rscale>  0 0.71305586E+03</rscale>
<asrwt>0</asrwt>
<pdfrwt beam="1">  1        2 0.32685379E+00 0.71305586E+03</pdfrwt>
<pdfrwt beam="2">  1       -2 0.63780174E-01 0.71305586E+03</pdfrwt>
<totfact> 0.13511925E+01</totfact>
</mgrwt>
</event>
<event>
12    1  0.3203156E-008  0.9050468E+03  0.7818608E-02  0.9419295E-01
          1   -1    0    0  501    0  0.00000000000E+00  0.00000000000E+00  0.19957166990E+04  0.19957166990E+04  0.00000000000E+00 0. -1.
         -1   -1    0    0    0  501 -0.00000000000E+00 -0.00000000000E+00 -0.57753643661E+03  0.57753643661E+03  0.00000000000E+00 0.  1.
         23    2    1    2    0    0  0.34475413888E+03 -0.76145737284E+03  0.12855053491E+04  0.15356574309E+04  0.83946384705E+02 0.  0.
    5000000    2    1    2    0    0 -0.34475413888E+03  0.76145737284E+03  0.13267491331E+03  0.10375957048E+04  0.60027449302E+03 0.  0.
         23    2    4    4    0    0  0.11996353124E+03  0.22545947134E+03 -0.93357904724E+02  0.28762661556E+03  0.93755797480E+02 0.  0.
         23    2    4    4    0    0 -0.46471767012E+03  0.53599790150E+03  0.22603281804E+03  0.74996908919E+03  0.90036307013E+02 0.  0.
          5    1    3    3  502    0  0.22793949919E+03 -0.57097875425E+03  0.98552937666E+03  0.11615779764E+04  0.47000000000E+01 0. -1.
         -5    1    3    3    0  502  0.11681463969E+03 -0.19047861858E+03  0.29997597242E+03  0.37407945441E+03  0.47000000000E+01 0.  1.
         11    1    5    5    0    0  0.48583421559E+02  0.44469184348E+02  0.11114921681E+02  0.66793702480E+02  0.00000000000E+00 0.  1.
        -11    1    5    5    0    0  0.71380109679E+02  0.18099028699E+03 -0.10447282641E+03  0.22083291308E+03  0.00000000000E+00 0. -1.
          1    1    6    6  503    0 -0.36103183500E+03  0.44803167359E+03  0.21227975198E+03  0.61330176872E+03  0.00000000000E+00 0. -1.
         -1    1    6    6    0  503 -0.10368583512E+03  0.87966227913E+02  0.13753066059E+02  0.13666732047E+03  0.00000000000E+00 0.  1.
<mgrwt>
<rscale>  0 0.90504680E+03</rscale>
<asrwt>0</asrwt>
<pdfrwt beam="1">  1        1 0.30703333E+00 0.90504680E+03</pdfrwt>
<pdfrwt beam="2">  1       -1 0.88851760E-01 0.90504680E+03</pdfrwt>
<totfact> 0.38203131E+00</totfact>
</mgrwt>
</event>
<event>
12    1  0.3203156E-008  0.6183767E+03  0.7818608E-02  0.9867997E-01
          2   -1    0    0  501    0  0.00000000000E+00  0.00000000000E+00  0.85391708775E+03  0.85391708775E+03  0.00000000000E+00 0. -1.
         -2   -1    0    0    0  501 -0.00000000000E+00 -0.00000000000E+00 -0.92169404277E+03  0.92169404277E+03  0.00000000000E+00 0.  1.
         23    2    1    2    0    0 -0.41609232597E+02  0.54993624858E+03  0.52612218049E+03  0.76779737892E+03  0.92450313905E+02 0.  0.
    5000000    2    1    2    0    0  0.41609232597E+02 -0.54993624858E+03 -0.59389913550E+03  0.10078137516E+04  0.59900848828E+03 0.  0.
         23    2    4    4    0    0 -0.94632324079E+02 -0.14958129631E+02  0.61846798088E+02  0.14594174988E+03  0.91076591518E+02 0.  0.
         23    2    4    4    0    0  0.13624155668E+03 -0.53497811895E+03 -0.65574593359E+03  0.86187200172E+03  0.89762288345E+02 0.  0.
          5    1    3    3  502    0  0.12323146753E+02  0.38246341274E+03  0.34501604471E+03  0.51525555129E+03  0.47000000000E+01 0. -1.
         -5    1    3    3    0  502 -0.53932379350E+02  0.16747283584E+03  0.18110613578E+03  0.25254182763E+03  0.47000000000E+01 0.  1.
         13    1    5    5    0    0 -0.84279487605E+01  0.23158651830E+02 -0.10831539687E+02  0.26919801761E+02  0.00000000000E+00 0. -1.
        -13    1    5    5    0    0 -0.86204375318E+02 -0.38116781461E+02  0.72678337775E+02  0.11902194812E+03  0.00000000000E+00 0.  1.
          3    1    6    6  503    0  0.50779189312E+02 -0.70509476066E+02 -0.10916872817E+03  0.13952750084E+03  0.00000000000E+00 0. -1.
         -3    1    6    6    0  503  0.85462367364E+02 -0.46446864288E+03 -0.54657720542E+03  0.72234450087E+03  0.00000000000E+00 0.  1.
<mgrwt>
<rscale>  0 0.61837668E+03</rscale>
<asrwt>0</asrwt>
<pdfrwt beam="1">  1        2 0.13137186E+00 0.61837668E+03</pdfrwt>
<pdfrwt beam="2">  1       -2 0.14179908E+00 0.61837668E+03</pdfrwt>
<totfact> 0.11317266E+01</totfact>
</mgrwt>
</event>
<event>
12    1  0.3203156E-008  0.5577453E+03  0.7818608E-02  0.9997169E-01
         -1   -1    0    0    0  501 -0.00000000000E+00  0.00000000000E+00  0.65282918256E+03  0.65282918256E+03  0.00000000000E+00 0.  1.
          1   -1    0    0  501    0  0.00000000000E+00 -0.00000000000E+00 -0.79794359715E+03  0.79794359715E+03  0.00000000000E+00 0. -1.
         23    2    1    2    0    0  0.37659241405E+03  0.33365327727E+03  0.25481740121E+03  0.57142813609E+03  0.91933949112E+02 0.  0.
    5000000    2    1    2    0    0 -0.37659241405E+03 -0.33365327727E+03 -0.39993181581E+03  0.87934464362E+03  0.60012931041E+03 0.  0.
         23    2    4    4    0    0 -0.15872243903E+03  0.17465334941E+02 -0.41677592164E+03  0.45573942198E+03  0.92186774097E+02 0.  0.
         23    2    4    4    0    0 -0.21786997502E+03 -0.35111861221E+03  0.16844105830E+02  0.42360522163E+03  0.91684535428E+02 0.  0.
          5    1    3    3  502    0  0.17010101095E+03  0.20262088655E+03  0.10551557648E+03  0.28485997345E+03  0.47000000000E+01 0. -1.
         -5    1    3    3    0  502  0.20649140309E+03  0.13103239073E+03  0.14930182473E+03  0.28656816264E+03  0.47000000000E+01 0.  1.
         13    1    5    5    0    0 -0.12708900636E+03  0.51213688168E+02 -0.28867494303E+03  0.31954292377E+03  0.00000000000E+00 0.  1.
        -13    1    5    5    0    0 -0.31633432671E+02 -0.33748353227E+02 -0.12810097860E+03  0.13619649822E+03  0.00000000000E+00 0. -1.
          4    1    6    6  503    0 -0.37055918533E+02 -0.14109779939E+03  0.12801082568E+02  0.14644315554E+03  0.00000000000E+00 0. -1.
         -4    1    6    6    0  503 -0.18081405648E+03 -0.21002081283E+03  0.40430232613E+01  0.27716206609E+03  0.00000000000E+00 0.  1.
<mgrwt>
<rscale>  0 0.55774532E+03</rscale>
<asrwt>0</asrwt>
<pdfrwt beam="1">  1        1 0.12276055E+00 0.55774532E+03</pdfrwt>
<pdfrwt beam="2">  1       -1 0.10043526E+00 0.55774532E+03</pdfrwt>
<totfact> 0.22072245E+01</totfact>
</mgrwt>
</event>
<event>
12    1  0.3203156E-008  0.1786393E+04  0.7818608E-02  0.8713569E-01
         -2   -1    0    0    0  501 -0.00000000000E+00  0.00000000000E+00  0.16064361512E+04  0.16064361512E+04  0.00000000000E+00 0.  1.
          2   -1    0    0  501    0  0.00000000000E+00 -0.00000000000E+00 -0.36356775516E+04  0.36356775516E+04  0.00000000000E+00 0. -1.
         23    2    1    2    0    0  0.12069799759E+04  0.13131386695E+04 -0.27060939529E+04  0.32422955068E+04  0.91661574638E+02 0.  0.
    5000000    2    1    2    0    0 -0.12069799759E+04 -0.13131386695E+04  0.67685255245E+03  0.19998181961E+04  0.60000801006E+03 0.  0.
         23    2    4    4    0    0 -0.58857191710E+03 -0.54862461406E+03  0.60390856226E+03  0.10098249973E+04  0.87379087401E+02 0.  0.
         23    2    4    4    0    0 -0.61840805879E+03 -0.76451405543E+03  0.72943990190E+02  0.98999319875E+03  0.88630918705E+02 0.  0.
          5    1    3    3  502    0  0.25838947965E+03  0.31629401720E+03 -0.67484427553E+03  0.78882438776E+03  0.47000000000E+01 0. -1.
         -5    1    3    3    0  502  0.94859049624E+03  0.99684465229E+03 -0.20312496773E+04  0.24534711190E+04  0.47000000000E+01 0.  1.
         11    1    5    5    0    0 -0.38087146166E+03 -0.36847884950E+03  0.44682143659E+03  0.69317323162E+03  0.00000000000E+00 0.  1.
        -11    1    5    5    0    0 -0.20770045544E+03 -0.18014576456E+03  0.15708712567E+03  0.31665176571E+03  0.00000000000E+00 0. -1.
          4    1    6    6  503    0 -0.17910460738E+03 -0.21257196395E+03 -0.18920520110E+02  0.27860955892E+03  0.00000000000E+00 0.  1.
         -4    1    6    6    0  503 -0.43930345142E+03 -0.55194209147E+03  0.91864510300E+02  0.71138363983E+03  0.00000000000E+00 0. -1.
<mgrwt>
<rscale>  0 0.17863927E+04</rscale>
<asrwt>0</asrwt>
<pdfrwt beam="1">  1        2 0.55933500E+00 0.17863927E+04</pdfrwt>
<pdfrwt beam="2">  1       -2 0.24714403E+00 0.17863927E+04</pdfrwt>
<totfact> 0.39684070E-02</totfact>
</mgrwt>
</event>
<event>
12    1  0.3203156E-008  0.8678065E+03  0.7818608E-02  0.9466744E-01
          2   -1    0    0  501    0  0.00000000000E+00  0.00000000000E+00  0.20154876444E+04  0.20154876444E+04  0.00000000000E+00 0. -1.
         -2   -1    0    0    0  501 -0.00000000000E+00 -0.00000000000E+00 -0.50007367294E+03  0.50007367294E+03  0.00000000000E+00 0.  1.
         23    2    1    2    0    0  0.73623617484E+03 -0.21464716672E+03  0.73586730571E+02  0.77581989480E+03  0.91457044213E+02 0.  0.
    5000000    2    1    2    0    0 -0.73623617484E+03  0.21464716672E+03  0.14418272409E+04  0.17397414225E+04  0.59976438155E+03 0.  0.
         23    2    4    4    0    0 -0.17561655534E+03 -0.19179552009E+03  0.41645414240E+03  0.49910824107E+03  0.89712248567E+02 0.  0.
         23    2    4    4    0    0 -0.56061961950E+03  0.40644268681E+03  0.10253730985E+04  0.12406331814E+04  0.91053195479E+02 0.  0.
          5    1    3    3  502    0  0.18554991226E+03 -0.22732337163E+02 -0.67847623422E+01  0.18711935253E+03  0.47000000000E+01 0. -1.
         -5    1    3    3    0  502  0.55068626258E+03 -0.19191482956E+03  0.80371492913E+02  0.58870054227E+03  0.47000000000E+01 0.  1.
         11    1    5    5    0    0 -0.74582129099E+02 -0.14180717728E+03  0.27451874261E+03  0.31785579993E+03  0.00000000000E+00 0.  1.
        -11    1    5    5    0    0 -0.10103442624E+03 -0.49988342816E+02  0.14193539980E+03  0.18125244114E+03  0.00000000000E+00 0. -1.
          3    1    6    6  503    0 -0.33836974239E+03  0.24157546704E+03  0.53480864166E+03  0.67740170655E+03  0.00000000000E+00 0. -1.
         -3    1    6    6    0  503 -0.22224987711E+03  0.16486721978E+03  0.49056445679E+03  0.56323147488E+03  0.00000000000E+00 0.  1.
<mgrwt>
<rscale>  0 0.86780651E+03</rscale>
<asrwt>0</asrwt>
<pdfrwt beam="1">  1        2 0.31007502E+00 0.86780651E+03</pdfrwt>
<pdfrwt beam="2">  1       -2 0.76934412E-01 0.86780651E+03</pdfrwt>
<totfact> 0.10067471E+01</totfact>
</mgrwt>
</event>
<event>
12    1  0.3203156E-008  0.6459754E+03  0.7818608E-02  0.9814361E-01
         -1   -1    0    0    0  501 -0.00000000000E+00  0.00000000000E+00  0.13485711476E+04  0.13485711476E+04  0.00000000000E+00 0.  1.
          1   -1    0    0  501    0  0.00000000000E+00 -0.00000000000E+00 -0.43649161125E+03  0.43649161125E+03  0.00000000000E+00 0. -1.
         23    2    1    2    0    0  0.31145961974E+03 -0.52942566144E+03  0.62354359150E+03  0.87931700689E+03  0.84220914193E+02 0.  0.
    5000000    2    1    2    0    0 -0.31145961974E+03  0.52942566144E+03  0.28853594482E+03  0.90574575194E+03  0.59985310701E+03 0.  0.
         23    2    4    4    0    0  0.44999233055E+01  0.92066617672E+02  0.33188461878E+03  0.35666235466E+03  0.92542550475E+02 0.  0.
         23    2    4    4    0    0 -0.31595954304E+03  0.43735904376E+03 -0.43348673962E+02  0.54908339728E+03  0.92196006601E+02 0.  0.
          5    1    3    3  502    0  0.11741130041E+03 -0.19143621776E+03  0.17260354055E+03  0.28327956358E+03  0.47000000000E+01 0. -1.
         -5    1    3    3    0  502  0.19404831933E+03 -0.33798944368E+03  0.45094005095E+03  0.59603744330E+03  0.47000000000E+01 0.  1.
         13    1    5    5    0    0 -0.43397764106E+02  0.53599144902E+02  0.18579142201E+03  0.19817842152E+03  0.00000000000E+00 0. -1.
        -13    1    5    5    0    0  0.47897687411E+02  0.38467472770E+02  0.14609319677E+03  0.15848393314E+03  0.00000000000E+00 0.  1.
          3    1    6    6  503    0 -0.89665505370E+02  0.62489810023E+02 -0.27279249270E+01  0.10932667005E+03  0.00000000000E+00 0. -1.
         -3    1    6    6    0  503 -0.22629403767E+03  0.37486923374E+03 -0.40620749035E+02  0.43975672723E+03  0.00000000000E+00 0.  1.
<mgrwt>
<rscale>  0 0.64597540E+03</rscale>
<asrwt>0</asrwt>
<pdfrwt beam="1">  1        1 0.67152556E-01 0.64597540E+03</pdfrwt>
<pdfrwt beam="2">  1       -1 0.20747248E+00 0.64597540E+03</pdfrwt>
<totfact> 0.74883249E+00</totfact>
</mgrwt>
</event>
<event>
12    1  0.3203156E-008  0.9901466E+03  0.7818608E-02  0.9319418E-01
          2   -1    0    0  501    0  0.00000000000E+00  0.00000000000E+00  0.12262533568E+04  0.12262533568E+04  0.00000000000E+00 0.  1.
         -2   -1    0    0    0  501 -0.00000000000E+00 -0.00000000000E+00 -0.87228824322E+03  0.87228824322E+03  0.00000000000E+00 0. -1.
         23    2    1    2    0    0  0.43493874187E+03  0.79322162986E+03 -0.11411130049E+03  0.91639388323E+03  0.91564715185E+02 0.  0.
    5000000    2    1    2    0    0 -0.43493874187E+03 -0.79322162986E+03  0.46807641403E+03  0.11821477167E+04  0.60000452630E+03 0.  0.
         23    2    4    4    0    0 -0.38588660396E+02  0.72379419206E+02  0.87699925825E+01  0.12129376287E+03  0.88923557651E+02 0.  0.
         23    2    4    4    0    0 -0.39635008147E+03 -0.86560104906E+03  0.45930642144E+03  0.10608539539E+04  0.89945313676E+02 0.  0.
          5    1    3    3  502    0  0.19807820076E+03  0.44820404196E+03 -0.79368526089E+02  0.49643054880E+03  0.47000000000E+01 0. -1.
         -5    1    3    3    0  502  0.23686054111E+03  0.34501758789E+03 -0.34742774403E+02  0.41996333443E+03  0.47000000000E+01 0.  1.
         11    1    5    5    0    0  0.19928252910E+02  0.49068385879E+02  0.21276922962E+02  0.57074943781E+02  0.00000000000E+00 0. -1.
        -11    1    5    5    0    0 -0.58516913306E+02  0.23311033327E+02 -0.12506930379E+02  0.64218819089E+02  0.00000000000E+00 0.  1.
          3    1    6    6  503    0 -0.11682377384E+03 -0.17156432914E+03  0.85828328980E+02  0.22460769182E+03  0.00000000000E+00 0. -1.
         -3    1    6    6    0  503 -0.27952630763E+03 -0.69403671992E+03  0.37347809246E+03  0.83624626206E+03  0.00000000000E+00 0.  1.
<mgrwt>
<rscale>  0 0.99014665E+03</rscale>
<asrwt>0</asrwt>
<pdfrwt beam="1">  1        2 0.18865436E+00 0.99014665E+03</pdfrwt>
<pdfrwt beam="2">  1       -2 0.13419819E+00 0.99014665E+03</pdfrwt>
<totfact> 0.72667971E+00</totfact>
</mgrwt>
</event>
<event>
12    1  0.3203156E-008  0.8751734E+03  0.7818608E-02  0.9457159E-01
          1   -1    0    0  501    0  0.00000000000E+00  0.00000000000E+00  0.10421823049E+04  0.10421823049E+04  0.00000000000E+00 0. -1.
         -1   -1    0    0    0  501 -0.00000000000E+00 -0.00000000000E+00 -0.10411085756E+04  0.10411085756E+04  0.00000000000E+00 0.  1.
         23    2    1    2    0    0 -0.56348960449E+03 -0.59032529303E+03 -0.49139605634E+03  0.95693033842E+03  0.90780517911E+02 0.  0.
    5000000    2    1    2    0    0  0.56348960449E+03  0.59032529303E+03  0.49246978558E+03  0.11263605421E+04  0.60013089828E+03 0.  0.
         23    2    4    4    0    0  0.44967573230E+02 -0.58409447261E+02 -0.54180749965E+02  0.12796839720E+03  0.89479667206E+02 0.  0.
         23    2    4    4    0    0  0.51852203126E+03  0.64873474029E+03  0.54665053555E+03  0.99839214488E+03  0.90764567808E+02 0.  0.
          5    1    3    3  502    0 -0.29880869571E+03 -0.27526505129E+03 -0.20120200574E+03  0.45338926124E+03  0.47000000000E+01 0. -1.
         -5    1    3    3    0  502 -0.26468090878E+03 -0.31506024174E+03 -0.29019405061E+03  0.50354107718E+03  0.47000000000E+01 0.  1.
         11    1    5    5    0    0 -0.29885187632E+00 -0.56547755851E+02  0.10186143678E+01  0.56557719009E+02  0.00000000000E+00 0. -1.
        -11    1    5    5    0    0  0.45266425106E+02 -0.18616914098E+01 -0.55199364333E+02  0.71410678190E+02  0.00000000000E+00 0.  1.
          2    1    6    6  503    0  0.82861311034E+02  0.11430034539E+03  0.54818301305E+02  0.15144507909E+03  0.00000000000E+00 0. -1.
         -2    1    6    6    0  503  0.43566072023E+03  0.53443439490E+03  0.49183223425E+03  0.84694706579E+03  0.00000000000E+00 0.  1.
<mgrwt>
<rscale>  0 0.87517338E+03</rscale>
<asrwt>0</asrwt>
<pdfrwt beam="1">  1        1 0.16033574E+00 0.87517338E+03</pdfrwt>
<pdfrwt beam="2">  1       -1 0.16017055E+00 0.87517338E+03</pdfrwt>
<totfact> 0.41658436E+00</totfact>
</mgrwt>
</event>
<event>
12    1  0.3203156E-008  0.1442435E+04  0.7818608E-02  0.8923662E-01
          2   -1    0    0  501    0  0.00000000000E+00  0.00000000000E+00  0.32483866769E+04  0.32483866769E+04  0.00000000000E+00 0. -1.
         -2   -1    0    0    0  501 -0.00000000000E+00 -0.00000000000E+00 -0.11474892706E+04  0.11474892706E+04  0.00000000000E+00 0.  1.
         23    2    1    2    0    0 -0.13354062020E+04 -0.52739384787E+03  0.24124613145E+04  0.28088708461E+04  0.91278918228E+02 0.  0.
    5000000    2    1    2    0    0  0.13354062020E+04  0.52739384787E+03 -0.31156390823E+03  0.15870051013E+04  0.60004927091E+03 0.  0.
         23    2    4    4    0    0  0.99774335295E+03  0.36070631415E+03 -0.47544494253E+03  0.11661074214E+04  0.90320437857E+02 0.  0.
         23    2    4    4    0    0  0.33766284909E+03  0.16668753372E+03  0.16388103430E+03  0.42089767991E+03  0.92178793634E+02 0.  0.
          5    1    3    3  502    0 -0.68643541738E+03 -0.24803928955E+03  0.11476547436E+04  0.13600921189E+04  0.47000000000E+01 0. -1.
         -5    1    3    3    0  502 -0.64897078466E+03 -0.27935455831E+03  0.12648065709E+04  0.14487787272E+04  0.47000000000E+01 0.  1.
         13    1    5    5    0    0  0.45229030299E+03  0.15615342971E+03 -0.16593815734E+03  0.50644435415E+03  0.00000000000E+00 0. -1.
        -13    1    5    5    0    0  0.54545304996E+03  0.20455288443E+03 -0.30950678520E+03  0.65966306727E+03  0.00000000000E+00 0.  1.
          4    1    6    6  503    0  0.15487514956E+03  0.12712591993E+03  0.76559158928E+02  0.21449619177E+03  0.00000000000E+00 0. -1.
         -4    1    6    6    0  503  0.18278769954E+03  0.39561613785E+02  0.87321875372E+02  0.20640148814E+03  0.00000000000E+00 0.  1.
<mgrwt>
<rscale>  0 0.14424351E+04</rscale>
<asrwt>0</asrwt>
<pdfrwt beam="1">  1        2 0.49975179E+00 0.14424351E+04</pdfrwt>
<pdfrwt beam="2">  1       -2 0.17653681E+00 0.14424351E+04</pdfrwt>
<totfact> 0.22037826E-01</totfact>
</mgrwt>
</event>
<event>
12    1  0.3203156E-008  0.6187086E+03  0.7818608E-02  0.9867334E-01
         -2   -1    0    0    0  501 -0.00000000000E+00  0.00000000000E+00  0.11219324807E+04  0.11219324807E+04  0.00000000000E+00 0.  1.
          2   -1    0    0  501    0  0.00000000000E+00 -0.00000000000E+00 -0.36743208660E+03  0.36743208660E+03  0.00000000000E+00 0. -1.
         23    2    1    2    0    0 -0.39447926420E+03  0.25817414968E+03  0.11691709202E+03  0.49488225411E+03  0.94715667001E+02 0.  0.
    5000000    2    1    2    0    0  0.39447926420E+03 -0.25817414968E+03  0.63758330206E+03  0.99448231319E+03  0.60017899224E+03 0.  0.
         23    2    4    4    0    0  0.49510739077E+03 -0.36681437857E+02  0.41959111973E+03  0.65626885215E+03  0.90306379989E+02 0.  0.
         23    2    4    4    0    0 -0.10062812657E+03 -0.22149271183E+03  0.21799218233E+03  0.33821346104E+03  0.87651083392E+02 0.  0.
          5    1    3    3  502    0 -0.10659832705E+03  0.25747119441E+02  0.12941290050E+02  0.11052458766E+03  0.47000000000E+01 0. -1.
         -5    1    3    3    0  502 -0.28788093715E+03  0.23242703024E+03  0.10397580197E+03  0.38435766645E+03  0.47000000000E+01 0.  1.
         11    1    5    5    0    0  0.19125492840E+03 -0.55312923659E+02  0.14497100541E+03  0.24628146412E+03  0.00000000000E+00 0.  1.
        -11    1    5    5    0    0  0.30385246237E+03  0.18631485802E+02  0.27462011432E+03  0.40998738803E+03  0.00000000000E+00 0. -1.
          3    1    6    6  503    0 -0.10473064795E+03 -0.15252221621E+03  0.12900365366E+03  0.22555149682E+03  0.00000000000E+00 0. -1.
         -3    1    6    6    0  503  0.41025213815E+01 -0.68970495615E+02  0.88988528670E+02  0.11266196422E+03  0.00000000000E+00 0.  1.
<mgrwt>
<rscale>  0 0.61870861E+03</rscale>
<asrwt>0</asrwt>
<pdfrwt beam="1">  1        2 0.56528014E-01 0.61870861E+03</pdfrwt>
<pdfrwt beam="2">  1       -2 0.17260500E+00 0.61870861E+03</pdfrwt>
<totfact> 0.18359453E+01</totfact>
</mgrwt>
</event>
<event>
12    1  0.3203156E-008  0.4280021E+03  0.7818608E-02  0.1034493E+00
          1   -1    0    0  501    0  0.00000000000E+00  0.00000000000E+00  0.98679386332E+03  0.98679386332E+03  0.00000000000E+00 0. -1.
         -1   -1    0    0    0  501 -0.00000000000E+00 -0.00000000000E+00 -0.29567852567E+03  0.29567852567E+03  0.00000000000E+00 0.  1.
         23    2    1    2    0    0  0.18464790707E+03  0.25606116751E+03  0.19677716281E+02  0.32820296366E+03  0.87565985083E+02 0.  0.
    5000000    2    1    2    0    0 -0.18464790707E+03 -0.25606116751E+03  0.67143762137E+03  0.95426942534E+03  0.60011622679E+03 0.  0.
         23    2    4    4    0    0 -0.29505095289E+03 -0.80803040618E+02  0.65503859967E+03  0.72819044446E+03  0.87186926553E+02 0.  0.
         23    2    4    4    0    0  0.11040304582E+03 -0.17525812690E+03  0.16399021694E+02  0.22607898088E+03  0.89098451810E+02 0.  0.
          5    1    3    3  502    0  0.26719208047E+02  0.94049426272E+02 -0.15763288677E+02  0.99145256723E+02  0.47000000000E+01 0. -1.
         -5    1    3    3    0  502  0.15792869902E+03  0.16201174124E+03  0.35441004958E+02  0.22905770694E+03  0.47000000000E+01 0.  1.
         13    1    5    5    0    0 -0.39222487622E+02  0.10964691195E+02  0.14045647549E+03  0.14624175017E+03  0.00000000000E+00 0.  1.
        -13    1    5    5    0    0 -0.25582846526E+03 -0.91767731813E+02  0.51458212419E+03  0.58194869428E+03  0.00000000000E+00 0. -1.
          1    1    6    6  503    0  0.10576991246E+03 -0.10549062924E+03  0.35604173484E+02  0.15356824024E+03  0.00000000000E+00 0. -1.
         -1    1    6    6    0  503  0.46331333586E+01 -0.69767497656E+02 -0.19205151790E+02  0.72510740647E+02  0.00000000000E+00 0.  1.
<mgrwt>
<rscale>  0 0.42800210E+03</rscale>
<asrwt>0</asrwt>
<pdfrwt beam="1">  1        1 0.15181444E+00 0.42800210E+03</pdfrwt>
<pdfrwt beam="2">  1       -1 0.45489004E-01 0.42800210E+03</pdfrwt>
<totfact> 0.78786566E+01</totfact>
</mgrwt>
</event>
<event>
12    1  0.3203156E-008  0.1347687E+04  0.7818608E-02  0.8992581E-01
         -1   -1    0    0    0  501 -0.00000000000E+00  0.00000000000E+00  0.10552989646E+04  0.10552989646E+04  0.00000000000E+00 0.  1.
          1   -1    0    0  501    0  0.00000000000E+00 -0.00000000000E+00 -0.17941673421E+04  0.17941673421E+04  0.00000000000E+00 0. -1.
         23    2    1    2    0    0  0.87945405282E+03 -0.96628081137E+03 -0.27147837454E+03  0.13376229065E+04  0.91632388549E+02 0.  0.
    5000000    2    1    2    0    0 -0.87945405282E+03  0.96628081137E+03 -0.46739000293E+03  0.15118434002E+04  0.60006584181E+03 0.  0.
         23    2    4    4    0    0  0.39790509276E+02  0.13116699666E+03  0.34384439725E+02  0.16930097237E+03  0.93233384089E+02 0.  0.
         23    2    4    4    0    0 -0.91924456210E+03  0.83511381471E+03 -0.50177444265E+03  0.13425424279E+04  0.90647287965E+02 0.  0.
          5    1    3    3  502    0  0.63366280895E+03 -0.69114608576E+03 -0.15280702238E+03  0.95004396919E+03  0.47000000000E+01 0. -1.
         -5    1    3    3    0  502  0.24579124388E+03 -0.27513472561E+03 -0.11867135216E+03  0.38757893728E+03  0.47000000000E+01 0.  1.
         13    1    5    5    0    0  0.26259942588E+02  0.16155753365E+02  0.43298426286E+02  0.53153990164E+02  0.00000000000E+00 0.  1.
        -13    1    5    5    0    0  0.13530566688E+02  0.11501124329E+03 -0.89139865606E+01  0.11614698220E+03  0.00000000000E+00 0. -1.
          4    1    6    6  503    0 -0.17055546623E+03  0.14478050215E+03 -0.54454368584E+02  0.23025168647E+03  0.00000000000E+00 0. -1.
         -4    1    6    6    0  503 -0.74868909587E+03  0.69033331257E+03 -0.44732007407E+03  0.11122907414E+04  0.00000000000E+00 0.  1.
<mgrwt>
<rscale>  0 0.13476867E+04</rscale>
<asrwt>0</asrwt>
<pdfrwt beam="1">  1        1 0.27602574E+00 0.13476867E+04</pdfrwt>
<pdfrwt beam="2">  1       -1 0.16235369E+00 0.13476867E+04</pdfrwt>
<totfact> 0.11122784E+00</totfact>
</mgrwt>
</event>
<event>
12    1  0.3203156E-008  0.4166610E+03  0.7818608E-02  0.1038159E+00
         -2   -1    0    0    0  501 -0.00000000000E+00  0.00000000000E+00  0.12985502378E+03  0.12985502378E+03  0.00000000000E+00 0.  1.
          2   -1    0    0  501    0  0.00000000000E+00 -0.00000000000E+00 -0.14176739291E+04  0.14176739291E+04  0.00000000000E+00 0. -1.
         23    2    1    2    0    0  0.21344196440E+01 -0.20383102004E+03 -0.36380041472E+03  0.42714019074E+03  0.92446526783E+02 0.  0.
    5000000    2    1    2    0    0 -0.21344196440E+01  0.20383102004E+03 -0.92401849061E+03  0.11203887622E+04  0.59992430099E+03 0.  0.
         23    2    4    4    0    0  0.20188864902E+03  0.31370642362E+03 -0.55561079764E+03  0.67543025988E+03  0.91279410010E+02 0.  0.
         23    2    4    4    0    0 -0.20402306867E+03 -0.10987540358E+03 -0.36840769297E+03  0.44495850228E+03  0.92551734992E+02 0.  0.
          5    1    3    3  502    0  0.30071261363E+02 -0.55406472232E+02 -0.56874378657E+02  0.85034950889E+02  0.47000000000E+01 0. -1.
         -5    1    3    3    0  502 -0.27936841719E+02 -0.14842454780E+03 -0.30692603607E+03  0.34210523985E+03  0.47000000000E+01 0.  1.
         13    1    5    5    0    0 -0.32131698354E-01  0.90828037024E+01 -0.54237245188E+02  0.54992518774E+02  0.00000000000E+00 0. -1.
        -13    1    5    5    0    0  0.20192078072E+03  0.30462361991E+03 -0.50137355245E+03  0.62043774111E+03  0.00000000000E+00 0.  1.
          2    1    6    6  503    0 -0.16122184349E+03 -0.46171152314E+02 -0.29156022267E+03  0.33635044457E+03  0.00000000000E+00 0. -1.
         -2    1    6    6    0  503 -0.42801225180E+02 -0.63704251266E+02 -0.76847470301E+02  0.10860805770E+03  0.00000000000E+00 0.  1.
<mgrwt>
<rscale>  0 0.41666101E+03</rscale>
<asrwt>0</asrwt>
<pdfrwt beam="1">  1        2 0.21810369E+00 0.41666101E+03</pdfrwt>
<pdfrwt beam="2">  1       -2 0.19977695E-01 0.41666101E+03</pdfrwt>
<totfact> 0.31440352E+02</totfact>
</mgrwt>
</event>
<event>
12    1  0.3203156E-008  0.6295027E+03  0.7818608E-02  0.9846020E-01
          2   -1    0    0  501    0  0.00000000000E+00  0.00000000000E+00  0.11232017935E+04  0.11232017935E+04  0.00000000000E+00 0. -1.
         -2   -1    0    0    0  501 -0.00000000000E+00 -0.00000000000E+00 -0.39992390475E+03  0.39992390475E+03  0.00000000000E+00 0.  1.
         23    2    1    2    0    0  0.43650455535E+03 -0.27205468301E+03  0.44156050352E+03  0.68406766817E+03  0.91776462000E+02 0.  0.
    5000000    2    1    2    0    0 -0.43650455535E+03  0.27205468301E+03  0.28171738526E+03  0.83905803011E+03  0.60008642322E+03 0.  0.
         23    2    4    4    0    0  0.86088842329E+02 -0.34351465822E+02 -0.54537297060E+02  0.14026844448E+03  0.90053360674E+02 0.  0.
         23    2    4    4    0    0 -0.52259339768E+03  0.30640614884E+03  0.33625468232E+03  0.69878958563E+03  0.90835490038E+02 0.  0.
          5    1    3    3  502    0  0.19837946048E+03 -0.17724853853E+03  0.22013980353E+03  0.34533328517E+03  0.47000000000E+01 0. -1.
         -5    1    3    3    0  502  0.23812509488E+03 -0.94806144479E+02  0.22142069999E+03  0.33873438300E+03  0.47000000000E+01 0.  1.
         13    1    5    5    0    0 -0.76530654255E+01 -0.33439137442E+02 -0.64373699729E+01  0.34902507867E+02  0.00000000000E+00 0.  1.
        -13    1    5    5    0    0  0.93741907755E+02 -0.91232838039E+00 -0.48099927087E+02  0.10536593661E+03  0.00000000000E+00 0. -1.
          2    1    6    6  503    0 -0.10548317967E+03  0.89841929158E+02  0.11141487804E+03  0.17779636801E+03  0.00000000000E+00 0. -1.
         -2    1    6    6    0  503 -0.41711021801E+03  0.21656421968E+03  0.22483980428E+03  0.52099321761E+03  0.00000000000E+00 0.  1.
<mgrwt>
<rscale>  0 0.62950269E+03</rscale>
<asrwt>0</asrwt>
<pdfrwt beam="1">  1        2 0.17280027E+00 0.62950269E+03</pdfrwt>
<pdfrwt beam="2">  1       -2 0.61526755E-01 0.62950269E+03</pdfrwt>
<totfact> 0.53257094E+01</totfact>
</mgrwt>
</event>
<event>
12    1  0.3203156E-008  0.5848369E+03  0.7818608E-02  0.9937374E-01
          2   -1    0    0  501    0  0.00000000000E+00  0.00000000000E+00  0.51548274649E+03  0.51548274649E+03  0.00000000000E+00 0. -1.
         -2   -1    0    0    0  501 -0.00000000000E+00 -0.00000000000E+00 -0.14546423046E+04  0.14546423046E+04  0.00000000000E+00 0.  1.
         23    2    1    2    0    0 -0.48973191695E+03  0.28704154502E+03 -0.98742223063E+03  0.11427391314E+04  0.92843211093E+02 0.  0.
    5000000    2    1    2    0    0  0.48973191695E+03 -0.28704154502E+03  0.48262672532E+02  0.82738591967E+03  0.60000664618E+03 0.  0.
         23    2    4    4    0    0  0.18023834163E+03 -0.81496476823E+02 -0.25828803211E+03  0.33774790154E+03  0.90738095266E+02 0.  0.
         23    2    4    4    0    0  0.30949357533E+03 -0.20554506820E+03  0.30655070464E+03  0.48963801813E+03  0.87960252702E+02 0.  0.
          5    1    3    3  502    0 -0.19761439671E+02 -0.14960022409E+01 -0.64037228823E+02  0.67198282686E+02  0.47000000000E+01 0. -1.
         -5    1    3    3    0  502 -0.46997047728E+03  0.28853754726E+03 -0.92338500180E+03  0.10755408487E+04  0.47000000000E+01 0.  1.
         11    1    5    5    0    0  0.19095410599E+02  0.19624483193E+02 -0.32798570481E+02  0.42725885270E+02  0.00000000000E+00 0.  1.
        -11    1    5    5    0    0  0.16114293103E+03 -0.10112096002E+03 -0.22548946163E+03  0.29502201627E+03  0.00000000000E+00 0. -1.
          4    1    6    6  503    0  0.23293525848E+03 -0.19321508576E+03  0.22508156608E+03  0.37716391052E+03  0.00000000000E+00 0. -1.
         -4    1    6    6    0  503  0.76558316843E+02 -0.12329982435E+02  0.81469138565E+02  0.11247410761E+03  0.00000000000E+00 0.  1.
<mgrwt>
<rscale>  0 0.58483685E+03</rscale>
<asrwt>0</asrwt>
<pdfrwt beam="1">  1        2 0.79305039E-01 0.58483685E+03</pdfrwt>
<pdfrwt beam="2">  1       -2 0.22379112E+00 0.58483685E+03</pdfrwt>
<totfact> 0.58220307E+00</totfact>
</mgrwt>
</event>
<event>
12    1  0.3203156E-008  0.1240972E+04  0.7818608E-02  0.9077731E-01
         -2   -1    0    0    0  501 -0.00000000000E+00  0.00000000000E+00  0.20320437639E+04  0.20320437639E+04  0.00000000000E+00 0.  1.
          2   -1    0    0  501    0  0.00000000000E+00 -0.00000000000E+00 -0.11703583994E+04  0.11703583994E+04  0.00000000000E+00 0. -1.
         23    2    1    2    0    0  0.39243323383E+03 -0.11548920131E+04  0.12896244552E+04  0.17773353297E+04  0.89499910237E+02 0.  0.
    5000000    2    1    2    0    0 -0.39243323383E+03  0.11548920131E+04 -0.42793909064E+03  0.14250668336E+04  0.59992016981E+03 0.  0.
         23    2    4    4    0    0 -0.22565031490E+03  0.10208784307E+04 -0.14538157885E+03  0.10594766343E+04  0.90797027135E+02 0.  0.
         23    2    4    4    0    0 -0.16678291893E+03  0.13401358235E+03 -0.28255751179E+03  0.36559019937E+03  0.89673095804E+02 0.  0.
          5    1    3    3  502    0  0.17397746365E+03 -0.60351259450E+03  0.71170121649E+03  0.94922933011E+03  0.47000000000E+01 0. -1.
         -5    1    3    3    0  502  0.21845577017E+03 -0.55137941857E+03  0.57792323869E+03  0.82810599959E+03  0.47000000000E+01 0.  1.
         13    1    5    5    0    0 -0.17246348847E+03  0.70102408325E+03 -0.13888717898E+03  0.73516533422E+03  0.00000000000E+00 0. -1.
        -13    1    5    5    0    0 -0.53186826430E+02  0.31985434747E+03 -0.64943998763E+01  0.32431130004E+03  0.00000000000E+00 0.  1.
          3    1    6    6  503    0 -0.11713859856E+03  0.10337386457E+03 -0.13341479707E+03  0.20544370331E+03  0.00000000000E+00 0. -1.
         -3    1    6    6    0  503 -0.49644320360E+02  0.30639717772E+02 -0.14914271472E+03  0.16014649607E+03  0.00000000000E+00 0.  1.
<mgrwt>
<rscale>  0 0.12409722E+04</rscale>
<asrwt>0</asrwt>
<pdfrwt beam="1">  1        2 0.18005514E+00 0.12409722E+04</pdfrwt>
<pdfrwt beam="2">  1       -2 0.31262212E+00 0.12409722E+04</pdfrwt>
<totfact> 0.51050130E-01</totfact>
</mgrwt>
</event>
<event>
12    1  0.3203156E-008  0.8144171E+03  0.7818608E-02  0.9539380E-01
          1   -1    0    0  501    0  0.00000000000E+00  0.00000000000E+00  0.33533594620E+04  0.33533594620E+04  0.00000000000E+00 0. -1.
         -1   -1    0    0    0  501 -0.00000000000E+00 -0.00000000000E+00 -0.32799043709E+03  0.32799043709E+03  0.00000000000E+00 0.  1.
         23    2    1    2    0    0  0.44510189514E+03  0.60282005955E+03  0.24468262689E+04  0.25605845048E+04  0.90147070497E+02 0.  0.
    5000000    2    1    2    0    0 -0.44510189514E+03 -0.60282005955E+03  0.57854275595E+03  0.11207653943E+04  0.59991301653E+03 0.  0.
         23    2    4    4    0    0 -0.37394673373E+03 -0.13515259006E+03  0.60001533493E+02  0.41338835361E+03  0.95850741288E+02 0.  0.
         23    2    4    4    0    0 -0.71155161409E+02 -0.46766746949E+03  0.51854122246E+03  0.70737704072E+03  0.87871265720E+02 0.  0.
          5    1    3    3  502    0  0.28685354360E+03  0.45628642291E+03  0.17365917078E+04  0.18183110583E+04  0.47000000000E+01 0. -1.
         -5    1    3    3    0  502  0.15824835154E+03  0.14653363664E+03  0.71023456118E+03  0.74227344646E+03  0.47000000000E+01 0.  1.
         13    1    5    5    0    0 -0.10891528938E+03 -0.18744829605E+02 -0.21663932039E+02  0.11261986880E+03  0.00000000000E+00 0.  1.
        -13    1    5    5    0    0 -0.26503144435E+03 -0.11640776046E+03  0.81665465532E+02  0.30076848480E+03  0.00000000000E+00 0. -1.
          1    1    6    6  503    0 -0.69237634378E+02 -0.36814555499E+03  0.35600793371E+03  0.51678491516E+03  0.00000000000E+00 0. -1.
         -1    1    6    6    0  503 -0.19175270305E+01 -0.99521914503E+02  0.16253328874E+03  0.19059212556E+03  0.00000000000E+00 0.  1.
<mgrwt>
<rscale>  0 0.81441713E+03</rscale>
<asrwt>0</asrwt>
<pdfrwt beam="1">  1        1 0.51590143E+00 0.81441713E+03</pdfrwt>
<pdfrwt beam="2">  1       -1 0.50460070E-01 0.81441713E+03</pdfrwt>
<totfact> 0.13729733E+00</totfact>
</mgrwt>
</event>
<event>
12    1  0.3203156E-008  0.1577122E+04  0.7818608E-02  0.8834727E-01
          1   -1    0    0  501    0  0.00000000000E+00  0.00000000000E+00  0.44162418171E+04  0.44162418171E+04  0.00000000000E+00 0. -1.
         -1   -1    0    0    0  501 -0.00000000000E+00 -0.00000000000E+00 -0.60841523804E+03  0.60841523804E+03  0.00000000000E+00 0.  1.
         23    2    1    2    0    0 -0.93215635696E+03 -0.12452866827E+04  0.22930240065E+04  0.27723344701E+04  0.90691363276E+02 0.  0.
    5000000    2    1    2    0    0  0.93215635696E+03  0.12452866827E+04  0.15148025726E+04  0.22523225851E+04  0.59889548130E+03 0.  0.
         23    2    4    4    0    0  0.29228043579E+03  0.67728222391E+03  0.39990191461E+03  0.84399020370E+03  0.90878262916E+02 0.  0.
         23    2    4    4    0    0  0.63987592117E+03  0.56800445883E+03  0.11149006580E+04  0.14083323814E+04  0.91248888566E+02 0.  0.
          5    1    3    3  502    0 -0.73919405453E+03 -0.10206461715E+04  0.18031307838E+04  0.21998702624E+04  0.47000000000E+01 0. -1.
         -5    1    3    3    0  502 -0.19296230242E+03 -0.22464051123E+03  0.48989322273E+03  0.57246420772E+03  0.47000000000E+01 0.  1.
         13    1    5    5    0    0  0.18009789385E+03  0.43776051436E+03  0.20707778578E+03  0.51667274814E+03  0.00000000000E+00 0. -1.
        -13    1    5    5    0    0  0.11218254194E+03  0.23952170955E+03  0.19282412882E+03  0.32731745557E+03  0.00000000000E+00 0.  1.
          3    1    6    6  503    0  0.39091974632E+03  0.28949889498E+03  0.65342619902E+03  0.81461258020E+03  0.00000000000E+00 0. -1.
         -3    1    6    6    0  503  0.24895617484E+03  0.27850556386E+03  0.46147445894E+03  0.59371980120E+03  0.00000000000E+00 0.  1.
<mgrwt>
<rscale>  0 0.15771224E+04</rscale>
<asrwt>0</asrwt>
<pdfrwt beam="1">  1        1 0.67942180E+00 0.15771224E+04</pdfrwt>
<pdfrwt beam="2">  1       -1 0.93602347E-01 0.15771224E+04</pdfrwt>
<totfact> 0.41930633E-02</totfact>
</mgrwt>
</event>
<event>
12    1  0.3203156E-008  0.8106326E+03  0.7818608E-02  0.9544753E-01
          1   -1    0    0  501    0  0.00000000000E+00  0.00000000000E+00  0.11088454989E+04  0.11088454989E+04  0.00000000000E+00 0. -1.
         -1   -1    0    0    0  501 -0.00000000000E+00 -0.00000000000E+00 -0.63260349757E+03  0.63260349757E+03  0.00000000000E+00 0.  1.
         23    2    1    2    0    0  0.66135738137E+03  0.26237025207E+03  0.36313385913E+03  0.80388251721E+03  0.90161891922E+02 0.  0.
    5000000    2    1    2    0    0 -0.66135738137E+03 -0.26237025207E+03  0.11310814224E+03  0.93756647930E+03  0.60000476348E+03 0.  0.
         23    2    4    4    0    0 -0.39022673827E+03 -0.43431054641E+03  0.12463156677E+03  0.60388370967E+03  0.90774166926E+02 0.  0.
         23    2    4    4    0    0 -0.27113064310E+03  0.17194029434E+03 -0.11523424529E+02  0.33368276963E+03  0.90200393516E+02 0.  0.
          5    1    3    3  502    0  0.10285805274E+03  0.23640851575E+02  0.24443038262E+02  0.10843533094E+03  0.47000000000E+01 0. -1.
         -5    1    3    3    0  502  0.55849932863E+03  0.23872940050E+03  0.33869082087E+03  0.69544718627E+03  0.47000000000E+01 0.  1.
         13    1    5    5    0    0 -0.84104947408E+02 -0.10121407704E+03  0.67480201529E+02  0.14789019294E+03  0.00000000000E+00 0.  1.
        -13    1    5    5    0    0 -0.30612179086E+03 -0.33309646937E+03  0.57151365242E+02  0.45599351673E+03  0.00000000000E+00 0. -1.
          3    1    6    6  503    0 -0.16341092767E+03  0.77024608713E+02 -0.45184035419E+02  0.18621900732E+03  0.00000000000E+00 0. -1.
         -3    1    6    6    0  503 -0.10771971543E+03  0.94915685627E+02  0.33660610890E+02  0.14746376231E+03  0.00000000000E+00 0.  1.
<mgrwt>
<rscale>  0 0.81063259E+03</rscale>
<asrwt>0</asrwt>
<pdfrwt beam="1">  1        1 0.17059161E+00 0.81063259E+03</pdfrwt>
<pdfrwt beam="2">  1       -1 0.97323615E-01 0.81063259E+03</pdfrwt>
<totfact> 0.12966852E+01</totfact>
</mgrwt>
</event>
<event>
12    1  0.3203156E-008  0.8174065E+03  0.7818608E-02  0.9535158E-01
         -2   -1    0    0    0  501 -0.00000000000E+00  0.00000000000E+00  0.10844980440E+04  0.10844980440E+04  0.00000000000E+00 0.  1.
          2   -1    0    0  501    0  0.00000000000E+00 -0.00000000000E+00 -0.10394897037E+04  0.10394897037E+04  0.00000000000E+00 0. -1.
         23    2    1    2    0    0  0.73488812289E+02 -0.80710727846E+03  0.56185627514E+03  0.99074001894E+03  0.95186904284E+02 0.  0.
    5000000    2    1    2    0    0 -0.73488812289E+02  0.80710727846E+03 -0.51684793489E+03  0.11332477288E+04  0.60024650142E+03 0.  0.
         23    2    4    4    0    0 -0.70070289970E+02  0.47910556685E+03 -0.60833498597E+03  0.78163350009E+03  0.80171588404E+02 0.  0.
         23    2    4    4    0    0 -0.34185223196E+01  0.32800171161E+03  0.91487051080E+02  0.35161422867E+03  0.87554989424E+02 0.  0.
          5    1    3    3  502    0  0.75762760732E+02 -0.32302180449E+03  0.23540774103E+03  0.40684392170E+03  0.47000000000E+01 0. -1.
         -5    1    3    3    0  502 -0.22739484427E+01 -0.48408547397E+03  0.32644853411E+03  0.58389609724E+03  0.47000000000E+01 0.  1.
         11    1    5    5    0    0 -0.13296992243E+02  0.14946864610E+03 -0.13372711746E+03  0.20099907490E+03  0.00000000000E+00 0.  1.
        -11    1    5    5    0    0 -0.56773297727E+02  0.32963692075E+03 -0.47460786851E+03  0.58063442519E+03  0.00000000000E+00 0. -1.
          4    1    6    6  503    0 -0.34077672212E+02  0.17293872443E+03  0.78691599269E+02  0.19303227177E+03  0.00000000000E+00 0. -1.
         -4    1    6    6    0  503  0.30659149893E+02  0.15506298718E+03  0.12795451810E+02  0.15858195689E+03  0.00000000000E+00 0.  1.
<mgrwt>
<rscale>  0 0.81740648E+03</rscale>
<asrwt>0</asrwt>
<pdfrwt beam="1">  1        2 0.15992149E+00 0.81740648E+03</pdfrwt>
<pdfrwt beam="2">  1       -2 0.16684585E+00 0.81740648E+03</pdfrwt>
<totfact> 0.53979681E+00</totfact>
</mgrwt>
</event>
<event>
12    1  0.3203156E-008  0.1648397E+04  0.7818608E-02  0.8791355E-01
         -2   -1    0    0    0  501 -0.00000000000E+00  0.00000000000E+00  0.14989177990E+04  0.14989177990E+04  0.00000000000E+00 0.  1.
          2   -1    0    0  501    0  0.00000000000E+00 -0.00000000000E+00 -0.19182903313E+04  0.19182903313E+04  0.00000000000E+00 0. -1.
         23    2    1    2    0    0 -0.16022110977E+04  0.35736017088E+03 -0.18880091336E+03  0.16542022892E+04  0.77153971527E+02 0.  0.
    5000000    2    1    2    0    0  0.16022110977E+04 -0.35736017088E+03 -0.23057161888E+03  0.17630058411E+04  0.60019965932E+03 0.  0.
         23    2    4    4    0    0  0.21440925167E+03 -0.53589959057E+02  0.15866877078E+03  0.28721911561E+03  0.92064274483E+02 0.  0.
         23    2    4    4    0    0  0.13878018460E+04 -0.30377021183E+03 -0.38924038966E+03  0.14757867255E+04  0.90377391023E+02 0.  0.
          5    1    3    3  502    0 -0.14956114546E+04  0.32750822322E+03 -0.15792763997E+03  0.15391811099E+04  0.47000000000E+01 0. -1.
         -5    1    3    3    0  502 -0.10659964307E+03  0.29851947667E+02 -0.30873273384E+02  0.11502117932E+03  0.47000000000E+01 0.  1.
         13    1    5    5    0    0  0.17760497294E+03 -0.11145118206E+02  0.14462171670E+03  0.22931022876E+03  0.00000000000E+00 0. -1.
        -13    1    5    5    0    0  0.36804278739E+02 -0.42444840850E+02  0.14047054080E+02  0.57908886854E+02  0.00000000000E+00 0.  1.
          2    1    6    6  503    0  0.13496410704E+04 -0.29199867424E+03 -0.36226954308E+03  0.14275970953E+04  0.00000000000E+00 0. -1.
         -2    1    6    6    0  503  0.38160775589E+02 -0.11771537584E+02 -0.26970846577E+02  0.48189630168E+02  0.00000000000E+00 0.  1.
<mgrwt>
<rscale>  0 0.16483970E+04</rscale>
<asrwt>0</asrwt>
<pdfrwt beam="1">  1        2 0.29512159E+00 0.16483970E+04</pdfrwt>
<pdfrwt beam="2">  1       -2 0.23060274E+00 0.16483970E+04</pdfrwt>
<totfact> 0.58133186E-01</totfact>
</mgrwt>
</event>
<event>
12    1  0.3203156E-008  0.7214238E+03  0.7818608E-02  0.9681280E-01
          2   -1    0    0  501    0  0.00000000000E+00  0.00000000000E+00  0.17705124912E+04  0.17705124912E+04  0.00000000000E+00 0. -1.
         -2   -1    0    0    0  501 -0.00000000000E+00 -0.00000000000E+00 -0.44775994822E+03  0.44775994822E+03  0.00000000000E+00 0.  1.
         23    2    1    2    0    0 -0.97768063795E+02  0.69688470803E+03  0.15313194796E+03  0.72728338790E+03  0.10141421129E+03 0.  0.
    5000000    2    1    2    0    0  0.97768063795E+02 -0.69688470803E+03  0.11696205950E+04  0.14909890515E+04  0.59985758718E+03 0.  0.
         23    2    4    4    0    0 -0.43641198188E+02 -0.36491660753E+03  0.15352230642E+03  0.40860806190E+03  0.91229189660E+02 0.  0.
         23    2    4    4    0    0  0.14140926198E+03 -0.33196810049E+03  0.10160982886E+04  0.10823809896E+04  0.94305225146E+02 0.  0.
          5    1    3    3  502    0 -0.40446032226E+02  0.30813246274E+03  0.16586270744E+02  0.31125341845E+03  0.47000000000E+01 0. -1.
         -5    1    3    3    0  502 -0.57322031570E+02  0.38875224528E+03  0.13654567722E+03  0.41602996945E+03  0.47000000000E+01 0.  1.
         11    1    5    5    0    0 -0.11342836997E+02 -0.19320745778E+03  0.32954566652E+02  0.19632571190E+03  0.00000000000E+00 0. -1.
        -11    1    5    5    0    0 -0.32298361191E+02 -0.17170914976E+03  0.12056773977E+03  0.21228234999E+03  0.00000000000E+00 0.  1.
          3    1    6    6  503    0  0.11239077103E+03 -0.15499286305E+03  0.46633349505E+03  0.50410455425E+03  0.00000000000E+00 0. -1.
         -3    1    6    6    0  503  0.29018490950E+02 -0.17697523744E+03  0.54976479356E+03  0.57827643538E+03  0.00000000000E+00 0.  1.
<mgrwt>
<rscale>  0 0.72142377E+03</rscale>
<asrwt>0</asrwt>
<pdfrwt beam="1">  1        2 0.27238653E+00 0.72142377E+03</pdfrwt>
<pdfrwt beam="2">  1       -2 0.68886147E-01 0.72142377E+03</pdfrwt>
<totfact> 0.17825799E+01</totfact>
</mgrwt>
</event>
<event>
12    1  0.3203156E-008  0.1013841E+04  0.7818608E-02  0.9293493E-01
          1   -1    0    0  501    0  0.00000000000E+00  0.00000000000E+00  0.19663046134E+04  0.19663046134E+04  0.00000000000E+00 0. -1.
         -1   -1    0    0    0  501 -0.00000000000E+00 -0.00000000000E+00 -0.67929432055E+03  0.67929432055E+03  0.00000000000E+00 0.  1.
         23    2    1    2    0    0  0.66312284967E+03 -0.70447005950E+03  0.11394560944E+04  0.14976109140E+04  0.92023258963E+02 0.  0.
    5000000    2    1    2    0    0 -0.66312284967E+03  0.70447005950E+03  0.14755419843E+03  0.11479880199E+04  0.60007855646E+03 0.  0.
         23    2    4    4    0    0 -0.95003735352E+02  0.40027317123E+03 -0.13218163455E+03  0.43951297974E+03  0.80345214568E+02 0.  0.
         23    2    4    4    0    0 -0.56811911432E+03  0.30419688827E+03  0.27973583298E+03  0.70847504018E+03  0.91595149561E+02 0.  0.
          5    1    3    3  502    0  0.35287727997E+03 -0.41510347476E+03  0.58460468052E+03  0.79913577817E+03  0.47000000000E+01 0. -1.
         -5    1    3    3    0  502  0.31024556970E+03 -0.28936658474E+03  0.55485141387E+03  0.69847513582E+03  0.47000000000E+01 0.  1.
         13    1    5    5    0    0 -0.48177507624E+02  0.29505659574E+03 -0.12524402817E+03  0.32413813957E+03  0.00000000000E+00 0. -1.
        -13    1    5    5    0    0 -0.46826227728E+02  0.10521657549E+03 -0.69376063857E+01  0.11537484017E+03  0.00000000000E+00 0.  1.
          1    1    6    6  503    0 -0.53319031632E+03  0.28577282782E+03  0.23547527647E+03  0.64915840006E+03  0.00000000000E+00 0. -1.
         -1    1    6    6    0  503 -0.34928797997E+02  0.18424060447E+02  0.44260556511E+02  0.59316640123E+02  0.00000000000E+00 0.  1.
<mgrwt>
<rscale>  0 0.10138410E+04</rscale>
<asrwt>0</asrwt>
<pdfrwt beam="1">  1        1 0.30250840E+00 0.10138410E+04</pdfrwt>
<pdfrwt beam="2">  1       -1 0.10450682E+00 0.10138410E+04</pdfrwt>
<totfact> 0.27273755E+00</totfact>
</mgrwt>
</event>
<event>
12    1  0.3203156E-008  0.3984095E+03  0.7818608E-02  0.1044332E+00
         -2   -1    0    0    0  501 -0.00000000000E+00  0.00000000000E+00  0.34168137202E+03  0.34168137202E+03  0.00000000000E+00 0.  1.
          2   -1    0    0  501    0  0.00000000000E+00 -0.00000000000E+00 -0.93844884150E+03  0.93844884150E+03  0.00000000000E+00 0. -1.
         23    2    1    2    0    0 -0.25466945019E+03  0.23681219553E+03 -0.44343733686E+03  0.56996323778E+03  0.85351484388E+02 0.  0.
    5000000    2    1    2    0    0  0.25466945019E+03 -0.23681219553E+03 -0.15333013262E+03  0.71016697574E+03  0.59990870893E+03 0.  0.
         23    2    4    4    0    0  0.11705335548E+03 -0.24463581284E+03  0.17925343355E+03  0.33862525594E+03  0.94800324716E+02 0.  0.
         23    2    4    4    0    0  0.13761609471E+03  0.78236173089E+01 -0.33258356617E+03  0.37154171981E+03  0.91826045105E+02 0.  0.
          5    1    3    3  502    0 -0.78479229842E+02  0.27070432281E+02 -0.12158501331E+03  0.14729834786E+03  0.47000000000E+01 0. -1.
         -5    1    3    3    0  502 -0.17619022034E+03  0.20974176325E+03 -0.32185232355E+03  0.42266488992E+03  0.47000000000E+01 0.  1.
         13    1    5    5    0    0  0.12192837270E+03 -0.15513447009E+03  0.11554092979E+03  0.22865462675E+03  0.00000000000E+00 0.  1.
        -13    1    5    5    0    0 -0.48750172260E+01 -0.89501342749E+02  0.63712503764E+02  0.10997062918E+03  0.00000000000E+00 0. -1.
          4    1    6    6  503    0 -0.39246142140E+01 -0.93849126901E+01 -0.86805951314E+02  0.87399956330E+02  0.00000000000E+00 0. -1.
         -4    1    6    6    0  503  0.14154070892E+03  0.17208529999E+02 -0.24577761486E+03  0.28414176348E+03  0.00000000000E+00 0.  1.
<mgrwt>
<rscale>  0 0.39840954E+03</rscale>
<asrwt>0</asrwt>
<pdfrwt beam="1">  1        2 0.14437674E+00 0.39840954E+03</pdfrwt>
<pdfrwt beam="2">  1       -2 0.52566366E-01 0.39840954E+03</pdfrwt>
<totfact> 0.98895139E+01</totfact>
</mgrwt>
</event>
<event>
12    1  0.3203156E-008  0.1115785E+04  0.7818608E-02  0.9189942E-01
         -1   -1    0    0    0  501 -0.00000000000E+00  0.00000000000E+00  0.54565835979E+03  0.54565835979E+03  0.00000000000E+00 0.  1.
          1   -1    0    0  501    0  0.00000000000E+00 -0.00000000000E+00 -0.23927704540E+04  0.23927704540E+04  0.00000000000E+00 0. -1.
         23    2    1    2    0    0  0.68424219661E+03  0.78323780566E+03 -0.58599104837E+03  0.11972136626E+04  0.91028574696E+02 0.  0.
    5000000    2    1    2    0    0 -0.68424219661E+03 -0.78323780566E+03 -0.12611210458E+04  0.17412151511E+04  0.59979585399E+03 0.  0.
         23    2    4    4    0    0 -0.37073541413E+03 -0.34587172987E+02 -0.37591809347E+03  0.53698730122E+03  0.91651125733E+02 0.  0.
         23    2    4    4    0    0 -0.31350678249E+03 -0.74865063267E+03 -0.88520295235E+03  0.12042278499E+04  0.88409135166E+02 0.  0.
          5    1    3    3  502    0  0.22451878493E+03  0.25485833366E+03 -0.14348807304E+03  0.36874431810E+03  0.47000000000E+01 0. -1.
         -5    1    3    3    0  502  0.45972341168E+03  0.52837947199E+03 -0.44250297534E+03  0.82846934455E+03  0.47000000000E+01 0.  1.
         13    1    5    5    0    0 -0.13374557703E+03  0.23229172827E+02 -0.99412532862E+02  0.16825672508E+03  0.00000000000E+00 0.  1.
        -13    1    5    5    0    0 -0.23698983710E+03 -0.57816345814E+02 -0.27650556061E+03  0.36873057614E+03  0.00000000000E+00 0. -1.
          1    1    6    6  503    0 -0.98779537811E+02 -0.21669375727E+03 -0.32017332905E+03  0.39902950037E+03  0.00000000000E+00 0. -1.
         -1    1    6    6    0  503 -0.21472724468E+03 -0.53195687541E+03 -0.56502962330E+03  0.80519834954E+03  0.00000000000E+00 0.  1.
<mgrwt>
<rscale>  0 0.11157853E+04</rscale>
<asrwt>0</asrwt>
<pdfrwt beam="1">  1        1 0.36811852E+00 0.11157853E+04</pdfrwt>
<pdfrwt beam="2">  1       -1 0.83947442E-01 0.11157853E+04</pdfrwt>
<totfact> 0.22627728E+00</totfact>
</mgrwt>
</event>
<event>
12    1  0.3203156E-008  0.9518866E+03  0.7818608E-02  0.9362948E-01
          2   -1    0    0  501    0  0.00000000000E+00  0.00000000000E+00  0.80595204430E+03  0.80595204430E+03  0.00000000000E+00 0. -1.
         -2   -1    0    0    0  501 -0.00000000000E+00 -0.00000000000E+00 -0.12596947956E+04  0.12596947956E+04  0.00000000000E+00 0.  1.
         23    2    1    2    0    0  0.79497445588E+03  0.44702658539E+03 -0.29152510693E+03  0.96193199337E+03  0.92244882472E+02 0.  0.
    5000000    2    1    2    0    0 -0.79497445588E+03 -0.44702658539E+03 -0.16221764434E+03  0.11037148465E+04  0.60004561885E+03 0.  0.
         23    2    4    4    0    0 -0.14252563185E+02 -0.86598754814E+02  0.13887270504E+03  0.18827490774E+03  0.91974631214E+02 0.  0.
         23    2    4    4    0    0 -0.78072189270E+03 -0.36042783058E+03 -0.30109034938E+03  0.91543993876E+03  0.89106611397E+02 0.  0.
          5    1    3    3  502    0  0.63922263377E+03  0.38620407925E+03 -0.26556183612E+03  0.79265651146E+03  0.47000000000E+01 0. -1.
         -5    1    3    3    0  502  0.15575182211E+03  0.60822506144E+02 -0.25963270805E+02  0.16927548191E+03  0.47000000000E+01 0.  1.
         13    1    5    5    0    0  0.38667455955E+02 -0.44858222708E+02  0.56621046688E+02  0.81935189160E+02  0.00000000000E+00 0. -1.
        -13    1    5    5    0    0 -0.52920019140E+02 -0.41740532105E+02  0.82251658356E+02  0.10633971858E+03  0.00000000000E+00 0.  1.
          1    1    6    6  503    0 -0.50716837352E+03 -0.27221352494E+03 -0.17540913068E+03  0.60173775466E+03  0.00000000000E+00 0. -1.
         -1    1    6    6    0  503 -0.27355351917E+03 -0.88214305632E+02 -0.12568121870E+03  0.31370218409E+03  0.00000000000E+00 0.  1.
<mgrwt>
<rscale>  0 0.95188661E+03</rscale>
<asrwt>0</asrwt>
<pdfrwt beam="1">  1        2 0.12399262E+00 0.95188661E+03</pdfrwt>
<pdfrwt beam="2">  1       -2 0.19379920E+00 0.95188661E+03</pdfrwt>
<totfact> 0.49725923E+00</totfact>
</mgrwt>
</event>
<event>
12    1  0.3203156E-008  0.5270942E+03  0.7818608E-02  0.1006939E+00
          1   -1    0    0  501    0  0.00000000000E+00  0.00000000000E+00  0.46763584151E+03  0.46763584151E+03  0.00000000000E+00 0. -1.
         -1   -1    0    0    0  501 -0.00000000000E+00 -0.00000000000E+00 -0.81087820478E+03  0.81087820478E+03  0.00000000000E+00 0.  1.
         23    2    1    2    0    0 -0.21495537141E+03  0.28078641381E+03 -0.44470572163E+03  0.57455398617E+03  0.85453392490E+02 0.  0.
    5000000    2    1    2    0    0  0.21495537141E+03 -0.28078641381E+03  0.10146335836E+03  0.70396006012E+03  0.60018174853E+03 0.  0.
         23    2    4    4    0    0  0.25983002903E+03 -0.43326132271E+03  0.89172797271E+02  0.52041620540E+03  0.87488406815E+02 0.  0.
         23    2    4    4    0    0 -0.44874657624E+02  0.15247490890E+03  0.12290561093E+02  0.18354385472E+03  0.90966784991E+02 0.  0.
          5    1    3    3  502    0 -0.64334949848E+02  0.14719871930E+03 -0.22521636264E+03  0.27667842116E+03  0.47000000000E+01 0. -1.
         -5    1    3    3    0  502 -0.15062042156E+03  0.13358769451E+03 -0.21948935900E+03  0.29787556501E+03  0.47000000000E+01 0.  1.
         13    1    5    5    0    0  0.22992505540E+03 -0.41512106578E+03  0.97514211790E+02  0.48445851407E+03  0.00000000000E+00 0.  1.
        -13    1    5    5    0    0  0.29904973633E+02 -0.18140256925E+02 -0.83414145189E+01  0.35957691325E+02  0.00000000000E+00 0. -1.
          3    1    6    6  503    0 -0.71928600990E+02  0.12360438894E+03  0.15506719008E+02  0.14384792991E+03  0.00000000000E+00 0.  1.
         -3    1    6    6    0  503  0.27053943366E+02  0.28870519957E+02 -0.32161579151E+01  0.39695924803E+02  0.00000000000E+00 0. -1.
<mgrwt>
<rscale>  0 0.52709419E+03</rscale>
<asrwt>0</asrwt>
<pdfrwt beam="1">  1        1 0.71943977E-01 0.52709419E+03</pdfrwt>
<pdfrwt beam="2">  1       -1 0.12475049E+00 0.52709419E+03</pdfrwt>
<totfact> 0.28721476E+01</totfact>
</mgrwt>
</event>
<event>
12    1  0.3203156E-008  0.4442189E+03  0.7818608E-02  0.1029460E+00
          2   -1    0    0  501    0  0.00000000000E+00  0.00000000000E+00  0.28976824578E+04  0.28976824578E+04  0.00000000000E+00 0. -1.
         -2   -1    0    0    0  501 -0.00000000000E+00 -0.00000000000E+00 -0.10203062740E+03  0.10203062740E+03  0.00000000000E+00 0.  1.
         23    2    1    2    0    0  0.18434700486E+03  0.18162682829E+03  0.25096952406E+03  0.37243688679E+03  0.93548969438E+02 0.  0.
    5000000    2    1    2    0    0 -0.18434700486E+03 -0.18162682829E+03  0.25446823064E+04  0.26272761984E+04  0.60016669315E+03 0.  0.
         23    2    4    4    0    0 -0.37150279466E+03 -0.20841831533E+03  0.15101875860E+04  0.15717267737E+04  0.90586895343E+02 0.  0.
         23    2    4    4    0    0  0.18715578980E+03  0.26791487036E+02  0.10344947204E+04  0.10555494248E+04  0.90885577442E+02 0.  0.
          5    1    3    3  502    0  0.10838203886E+03  0.13951034690E+03  0.21499118518E+03  0.27830397580E+03  0.47000000000E+01 0. -1.
         -5    1    3    3    0  502  0.75964965999E+02  0.42116481397E+02  0.35978338876E+02  0.94132910997E+02  0.47000000000E+01 0.  1.
         13    1    5    5    0    0 -0.18407754653E+03 -0.15489337367E+03  0.83774793911E+03  0.87160662562E+03  0.00000000000E+00 0.  1.
        -13    1    5    5    0    0 -0.18742524813E+03 -0.53524941656E+02  0.67243964687E+03  0.70012014805E+03  0.00000000000E+00 0. -1.
          3    1    6    6  503    0  0.10942995565E+03  0.11679787671E+02  0.81120532408E+03  0.81863631147E+03  0.00000000000E+00 0. -1.
         -3    1    6    6    0  503  0.77725834146E+02  0.15111699365E+02  0.22328939630E+03  0.23691311329E+03  0.00000000000E+00 0.  1.
<mgrwt>
<rscale>  0 0.44421893E+03</rscale>
<asrwt>0</asrwt>
<pdfrwt beam="1">  1        2 0.44579724E+00 0.44421893E+03</pdfrwt>
<pdfrwt beam="2">  1       -2 0.15697022E-01 0.44421893E+03</pdfrwt>
<totfact> 0.72521402E+01</totfact>
</mgrwt>
</event>
<event>
12    1  0.3203156E-008  0.8547092E+03  0.7818608E-02  0.9484038E-01
         -1   -1    0    0    0  501 -0.00000000000E+00  0.00000000000E+00  0.26430922868E+03  0.26430922868E+03  0.00000000000E+00 0.  1.
          1   -1    0    0  501    0  0.00000000000E+00 -0.00000000000E+00 -0.29414067883E+04  0.29414067883E+04  0.00000000000E+00 0. -1.
         23    2    1    2    0    0 -0.59507501159E+03  0.47044938054E+03 -0.88487872123E+03  0.11691268351E+04  0.91707776722E+02 0.  0.
    5000000    2    1    2    0    0  0.59507501159E+03 -0.47044938054E+03 -0.17922188384E+04  0.20365891818E+04  0.60017517593E+03 0.  0.
         23    2    4    4    0    0 -0.10295640319E+03 -0.11238716319E+03 -0.34641828776E+03  0.38899157491E+03  0.89877248779E+02 0.  0.
         23    2    4    4    0    0  0.69803141478E+03 -0.35806221736E+03 -0.14458005506E+04  0.16475976069E+04  0.93713577579E+02 0.  0.
          5    1    3    3  502    0 -0.34805097450E+03  0.31733372234E+03 -0.59161579012E+03  0.75622186249E+03  0.47000000000E+01 0. -1.
         -5    1    3    3    0  502 -0.24702403709E+03  0.15311565821E+03 -0.29326293111E+03  0.41290497266E+03  0.47000000000E+01 0.  1.
         13    1    5    5    0    0 -0.11952889069E+02 -0.52768302238E+02 -0.19614458926E+03  0.20347005965E+03  0.00000000000E+00 0.  1.
        -13    1    5    5    0    0 -0.91003514119E+02 -0.59618860948E+02 -0.15027369851E+03  0.18552151526E+03  0.00000000000E+00 0. -1.
          4    1    6    6  503    0  0.13134705818E+03 -0.77332485453E+02 -0.21128913041E+03  0.26052919151E+03  0.00000000000E+00 0. -1.
         -4    1    6    6    0  503  0.56668435659E+03 -0.28072973190E+03 -0.12345114202E+04  0.13870684154E+04  0.00000000000E+00 0.  1.
<mgrwt>
<rscale>  0 0.85470922E+03</rscale>
<asrwt>0</asrwt>
<pdfrwt beam="1">  1        1 0.45252412E+00 0.85470922E+03</pdfrwt>
<pdfrwt beam="2">  1       -1 0.40662958E-01 0.85470922E+03</pdfrwt>
<totfact> 0.40863108E+00</totfact>
</mgrwt>
</event>
<event>
12    1  0.3203156E-008  0.5982710E+03  0.7818608E-02  0.9909000E-01
          1   -1    0    0  501    0  0.00000000000E+00  0.00000000000E+00  0.39570472364E+03  0.39570472364E+03  0.00000000000E+00 0.  1.
         -1   -1    0    0    0  501 -0.00000000000E+00 -0.00000000000E+00 -0.11960656271E+04  0.11960656271E+04  0.00000000000E+00 0. -1.
         23    2    1    2    0    0  0.34696160643E+03  0.38148868338E+03 -0.55586786298E+03  0.76353515766E+03  0.89893737316E+02 0.  0.
    5000000    2    1    2    0    0 -0.34696160643E+03 -0.38148868338E+03 -0.24449304050E+03  0.82823519309E+03  0.60023388469E+03 0.  0.
         23    2    4    4    0    0 -0.19575113844E+03  0.43565532937E+02  0.11129609232E+03  0.24588993098E+03  0.88648599140E+02 0.  0.
         23    2    4    4    0    0 -0.15121046799E+03 -0.42505421632E+03 -0.35578913282E+03  0.58234526211E+03  0.94891542438E+02 0.  0.
          5    1    3    3  502    0  0.69545152458E+02  0.56324456508E+02 -0.55348645650E+02  0.10533059957E+03  0.47000000000E+01 0. -1.
         -5    1    3    3    0  502  0.27741645397E+03  0.32516422687E+03 -0.50051921733E+03  0.65820455809E+03  0.47000000000E+01 0.  1.
         13    1    5    5    0    0 -0.20510258993E+03  0.39107990641E+02  0.10759003007E+03  0.23488746645E+03  0.00000000000E+00 0. -1.
        -13    1    5    5    0    0  0.93514514858E+01  0.44575422957E+01  0.37060622554E+01  0.11002464526E+02  0.00000000000E+00 0.  1.
          3    1    6    6  503    0 -0.16268434536E+03 -0.37167382780E+03 -0.32358713507E+03  0.51895690041E+03  0.00000000000E+00 0. -1.
         -3    1    6    6    0  503  0.11473877367E+02 -0.53380388517E+02 -0.32201997755E+02  0.63388361704E+02  0.00000000000E+00 0.  1.
<mgrwt>
<rscale>  0 0.59827101E+03</rscale>
<asrwt>0</asrwt>
<pdfrwt beam="1">  1        1 0.60877650E-01 0.59827101E+03</pdfrwt>
<pdfrwt beam="2">  1       -1 0.18401010E+00 0.59827101E+03</pdfrwt>
<totfact> 0.12451691E+01</totfact>
</mgrwt>
</event>
<event>
12    1  0.3203156E-008  0.6394972E+03  0.7818608E-02  0.9826689E-01
         -1   -1    0    0    0  501 -0.00000000000E+00  0.00000000000E+00  0.36474192205E+03  0.36474192205E+03  0.00000000000E+00 0.  1.
          1   -1    0    0  501    0  0.00000000000E+00 -0.00000000000E+00 -0.13327223047E+04  0.13327223047E+04  0.00000000000E+00 0. -1.
         23    2    1    2    0    0 -0.22265445542E+03 -0.47921131735E+03 -0.15478853605E+03  0.55732036338E+03  0.86185865138E+02 0.  0.
    5000000    2    1    2    0    0  0.22265445542E+03  0.47921131735E+03 -0.81319184656E+03  0.11401438633E+04  0.59952360803E+03 0.  0.
         23    2    4    4    0    0 -0.97993544058E+02 -0.60431895432E+02 -0.25308923788E+03  0.29383237170E+03  0.95018691157E+02 0.  0.
         23    2    4    4    0    0  0.32064799948E+03  0.53964321278E+03 -0.56010260868E+03  0.84631149163E+03  0.92186072358E+02 0.  0.
          5    1    3    3  502    0 -0.16117319537E+02 -0.67835685227E+02  0.49479314555E+01  0.70057263755E+02  0.47000000000E+01 0. -1.
         -5    1    3    3    0  502 -0.20653713588E+03 -0.41137563213E+03 -0.15973646750E+03  0.48726309962E+03  0.47000000000E+01 0.  1.
         13    1    5    5    0    0 -0.48361707765E+02 -0.11571154898E+02 -0.20046306650E+03  0.20653858582E+03  0.00000000000E+00 0. -1.
        -13    1    5    5    0    0 -0.49631836293E+02 -0.48860740534E+02 -0.52626171378E+02  0.87293785880E+02  0.00000000000E+00 0.  1.
          3    1    6    6  503    0  0.12159357779E+03  0.24935833722E+03 -0.30031461937E+03  0.40884404008E+03  0.00000000000E+00 0. -1.
         -3    1    6    6    0  503  0.19905442169E+03  0.29028487556E+03 -0.25978798931E+03  0.43746745155E+03  0.00000000000E+00 0.  1.
<mgrwt>
<rscale>  0 0.63949723E+03</rscale>
<asrwt>0</asrwt>
<pdfrwt beam="1">  1        1 0.20503420E+00 0.63949723E+03</pdfrwt>
<pdfrwt beam="2">  1       -1 0.56114143E-01 0.63949723E+03</pdfrwt>
<totfact> 0.28794610E+01</totfact>
</mgrwt>
</event>
<event>
12    1  0.3203156E-008  0.3752703E+03  0.7818608E-02  0.1052696E+00
         -2   -1    0    0    0  501 -0.00000000000E+00  0.00000000000E+00  0.33006972268E+03  0.33006972268E+03  0.00000000000E+00 0.  1.
          2   -1    0    0  501    0  0.00000000000E+00 -0.00000000000E+00 -0.94490531407E+03  0.94490531407E+03  0.00000000000E+00 0. -1.
         23    2    1    2    0    0  0.11528445314E+03 -0.24574630206E+03  0.99678187076E+02  0.30325763400E+03  0.91365756641E+02 0.  0.
    5000000    2    1    2    0    0 -0.11528445314E+03  0.24574630206E+03 -0.71451377846E+03  0.97171740274E+03  0.60001918392E+03 0.  0.
         23    2    4    4    0    0 -0.83029719229E+01  0.33197824002E+03 -0.72994051542E+03  0.80641448193E+03  0.84927436296E+02 0.  0.
         23    2    4    4    0    0 -0.10698148122E+03 -0.86231937953E+02  0.15426736951E+02  0.16530292081E+03  0.90587454815E+02 0.  0.
          5    1    3    3  502    0  0.68610459887E+02 -0.13993615317E+03  0.89236585288E+01  0.15617696325E+03  0.47000000000E+01 0. -1.
         -5    1    3    3    0  502  0.46673993254E+02 -0.10581014889E+03  0.90754528547E+02  0.14708067075E+03  0.47000000000E+01 0.  1.
         11    1    5    5    0    0  0.22231576828E+02  0.48376096543E+02 -0.74228147779E+02  0.91347181937E+02  0.00000000000E+00 0. -1.
        -11    1    5    5    0    0 -0.30534548751E+02  0.28360214347E+03 -0.65571236764E+03  0.71506729999E+03  0.00000000000E+00 0.  1.
          2    1    6    6  503    0 -0.55152001340E+02 -0.26121117296E+02  0.49842065403E+02  0.78792686870E+02  0.00000000000E+00 0. -1.
         -2    1    6    6    0  503 -0.51829479879E+02 -0.60110820657E+02 -0.34415328453E+02  0.86510233944E+02  0.00000000000E+00 0.  1.
<mgrwt>
<rscale>  0 0.37527029E+03</rscale>
<asrwt>0</asrwt>
<pdfrwt beam="1">  1        2 0.14537005E+00 0.37527029E+03</pdfrwt>
<pdfrwt beam="2">  1       -2 0.50779958E-01 0.37527029E+03</pdfrwt>
<totfact> 0.10539997E+02</totfact>
</mgrwt>
</event>
<event>
12    1  0.3203156E-008  0.6493096E+03  0.7818608E-02  0.9808076E-01
          2   -1    0    0  501    0  0.00000000000E+00  0.00000000000E+00  0.23613323470E+04  0.23613323470E+04  0.00000000000E+00 0.  1.
         -2   -1    0    0    0  501 -0.00000000000E+00 -0.00000000000E+00 -0.21049421760E+03  0.21049421760E+03  0.00000000000E+00 0. -1.
         23    2    1    2    0    0  0.56341105138E+03 -0.45837841920E+02  0.71094278154E+03  0.91278770392E+03  0.90601507897E+02 0.  0.
    5000000    2    1    2    0    0 -0.56341105138E+03  0.45837841920E+02  0.14398953479E+04  0.16590388607E+04  0.59964840357E+03 0.  0.
         23    2    4    4    0    0  0.29338053111E+02 -0.10513766238E+03  0.59669791490E+03  0.61339301753E+03  0.91038139781E+02 0.  0.
         23    2    4    4    0    0 -0.59274910449E+03  0.15097550430E+03  0.84319743301E+03  0.10456458432E+04  0.90819681770E+02 0.  0.
          5    1    3    3  502    0  0.15501110710E+03 -0.42410542828E+02  0.24647950643E+03  0.29428104688E+03  0.47000000000E+01 0. -1.
         -5    1    3    3    0  502  0.40839994428E+03 -0.34272990916E+01  0.46446327512E+03  0.61850665704E+03  0.47000000000E+01 0.  1.
         11    1    5    5    0    0  0.22113743893E+02 -0.24046195998E+02  0.44381096281E+02  0.55108247278E+02  0.00000000000E+00 0.  1.
        -11    1    5    5    0    0  0.72243092180E+01 -0.81091466382E+02  0.55231681862E+03  0.55828477025E+03  0.00000000000E+00 0. -1.
          1    1    6    6  503    0 -0.16444068778E+03  0.73243192995E+02  0.29572144822E+03  0.34620294634E+03  0.00000000000E+00 0. -1.
         -1    1    6    6    0  503 -0.42830841671E+03  0.77732311305E+02  0.54747598478E+03  0.69944289686E+03  0.00000000000E+00 0.  1.
<mgrwt>
<rscale>  0 0.64930956E+03</rscale>
<asrwt>0</asrwt>
<pdfrwt beam="1">  1        2 0.36328188E+00 0.64930956E+03</pdfrwt>
<pdfrwt beam="2">  1       -2 0.32383727E-01 0.64930956E+03</pdfrwt>
<totfact> 0.39161562E+01</totfact>
</mgrwt>
</event>
<event>
12    1  0.3203156E-008  0.4564914E+03  0.7818608E-02  0.1025804E+00
          2   -1    0    0  501    0  0.00000000000E+00  0.00000000000E+00  0.22279364489E+04  0.22279364489E+04  0.00000000000E+00 0. -1.
         -2   -1    0    0    0  501 -0.00000000000E+00 -0.00000000000E+00 -0.17297417353E+03  0.17297417353E+03  0.00000000000E+00 0.  1.
         23    2    1    2    0    0  0.27988397540E+03  0.15409028090E+03  0.12520727918E+03  0.35492754085E+03  0.90652314595E+02 0.  0.
    5000000    2    1    2    0    0 -0.27988397540E+03 -0.15409028090E+03  0.19297549962E+04  0.20459830816E+04  0.60001130862E+03 0.  0.
         23    2    4    4    0    0  0.21077209619E+02  0.14079541817E+03  0.10796586936E+04  0.10927987424E+04  0.90986802032E+02 0.  0.
         23    2    4    4    0    0 -0.30096118502E+03 -0.29488569907E+03  0.85009630254E+03  0.95318433916E+03  0.91440966875E+02 0.  0.
          5    1    3    3  502    0  0.59416295091E+02  0.78311303155E+02  0.28150826535E+02  0.10235973505E+03  0.47000000000E+01 0. -1.
         -5    1    3    3    0  502  0.22046768031E+03  0.75778977744E+02  0.97056452647E+02  0.25256780580E+03  0.47000000000E+01 0.  1.
         11    1    5    5    0    0  0.19011876691E+01  0.12618200095E+03  0.10288436013E+04  0.10365542281E+04  0.00000000000E+00 0. -1.
        -11    1    5    5    0    0  0.19176021950E+02  0.14613417213E+02  0.50815092336E+02  0.56244514307E+02  0.00000000000E+00 0.  1.
          1    1    6    6  503    0 -0.54943715464E+02 -0.11130009416E+03  0.25249513080E+03  0.28135442756E+03  0.00000000000E+00 0. -1.
         -1    1    6    6    0  503 -0.24601746955E+03 -0.18358560490E+03  0.59760117174E+03  0.67182991160E+03  0.00000000000E+00 0.  1.
<mgrwt>
<rscale>  0 0.45649135E+03</rscale>
<asrwt>0</asrwt>
<pdfrwt beam="1">  1        2 0.34275943E+00 0.45649135E+03</pdfrwt>
<pdfrwt beam="2">  1       -2 0.26611413E-01 0.45649135E+03</pdfrwt>
<totfact> 0.68842540E+01</totfact>
</mgrwt>
</event>
<event>
12    1  0.3203156E-008  0.7517570E+03  0.7818608E-02  0.9632598E-01
          2   -1    0    0  501    0  0.00000000000E+00  0.00000000000E+00  0.26320203342E+04  0.26320203342E+04  0.00000000000E+00 0.  1.
         -2   -1    0    0    0  501 -0.00000000000E+00 -0.00000000000E+00 -0.25104047807E+03  0.25104047807E+03  0.00000000000E+00 0. -1.
         23    2    1    2    0    0 -0.65045290743E+03  0.36486841948E+02  0.14804315175E+04  0.16200217554E+04  0.91502653262E+02 0.  0.
    5000000    2    1    2    0    0  0.65045290743E+03 -0.36486841948E+02  0.90054833863E+03  0.12630390569E+04  0.59988338414E+03 0.  0.
         23    2    4    4    0    0  0.13283859674E+03 -0.24383081455E+03  0.46588957904E+03  0.55003669179E+03  0.91584406695E+02 0.  0.
         23    2    4    4    0    0  0.51761431069E+03  0.20734397260E+03  0.43465875959E+03  0.71300236509E+03  0.92347375323E+02 0.  0.
          5    1    3    3  502    0 -0.33768574273E+03  0.12201227716E+02  0.87794101528E+03  0.94073537571E+03  0.47000000000E+01 0. -1.
         -5    1    3    3    0  502 -0.31276716470E+03  0.24285614231E+02  0.60249050224E+03  0.67928637971E+03  0.47000000000E+01 0.  1.
         11    1    5    5    0    0  0.14517643616E+03 -0.21143432524E+03  0.39244314267E+03  0.46882010594E+03  0.00000000000E+00 0. -1.
        -11    1    5    5    0    0 -0.12337839425E+02 -0.32396489304E+02  0.73446436370E+02  0.81216585845E+02  0.00000000000E+00 0.  1.
          4    1    6    6  503    0  0.36334262873E+03  0.11604241542E+03  0.33639976099E+03  0.50857497699E+03  0.00000000000E+00 0. -1.
         -4    1    6    6    0  503  0.15427168196E+03  0.91301557180E+02  0.98258998606E+02  0.20442738810E+03  0.00000000000E+00 0.  1.
<mgrwt>
<rscale>  0 0.75175701E+03</rscale>
<asrwt>0</asrwt>
<pdfrwt beam="1">  1        2 0.40492619E+00 0.75175701E+03</pdfrwt>
<pdfrwt beam="2">  1       -2 0.38621614E-01 0.75175701E+03</pdfrwt>
<totfact> 0.19359883E+01</totfact>
</mgrwt>
</event>
<event>
12    1  0.3203156E-008  0.4397660E+03  0.7818608E-02  0.1030819E+00
          1   -1    0    0  501    0  0.00000000000E+00  0.00000000000E+00  0.66577128863E+03  0.66577128863E+03  0.00000000000E+00 0. -1.
         -1   -1    0    0    0  501 -0.00000000000E+00 -0.00000000000E+00 -0.10583103535E+04  0.10583103535E+04  0.00000000000E+00 0.  1.
         23    2    1    2    0    0 -0.20181819089E+03 -0.34679529331E+03  0.45375994029E+03  0.61175167264E+03  0.85699871212E+02 0.  0.
    5000000    2    1    2    0    0  0.20181819089E+03  0.34679529331E+03 -0.84629900519E+03  0.11123299695E+04  0.60004866240E+03 0.  0.
         23    2    4    4    0    0  0.71319972968E+02  0.22028922297E+02  0.62148302730E+02  0.13373384944E+03  0.91926704458E+02 0.  0.
         23    2    4    4    0    0  0.13049821792E+03  0.32476637101E+03 -0.90844730792E+03  0.97859612007E+03  0.99352273876E+02 0.  0.
          5    1    3    3  502    0 -0.79023961388E+02 -0.21508370852E+03  0.23306247242E+03  0.32687305516E+03  0.47000000000E+01 0. -1.
         -5    1    3    3    0  502 -0.12279422950E+03 -0.13171158479E+03  0.22069746788E+03  0.28487861748E+03  0.47000000000E+01 0.  1.
         11    1    5    5    0    0  0.30415238150E+02 -0.35957771668E+02  0.19745327536E+02  0.51067856961E+02  0.00000000000E+00 0. -1.
        -11    1    5    5    0    0  0.40904734818E+02  0.57986693965E+02  0.42402975194E+02  0.82665992481E+02  0.00000000000E+00 0.  1.
          2    1    6    6  503    0  0.69527997483E+02  0.12207451309E+03 -0.48883738820E+03  0.50862394879E+03  0.00000000000E+00 0. -1.
         -2    1    6    6    0  503  0.60970220438E+02  0.20269185792E+03 -0.41960991972E+03  0.46997217128E+03  0.00000000000E+00 0.  1.
<mgrwt>
<rscale>  0 0.43976601E+03</rscale>
<asrwt>0</asrwt>
<pdfrwt beam="1">  1        1 0.10242635E+00 0.43976601E+03</pdfrwt>
<pdfrwt beam="2">  1       -1 0.16281697E+00 0.43976601E+03</pdfrwt>
<totfact> 0.89070039E+00</totfact>
</mgrwt>
</event>
<event>
12    1  0.3203156E-008  0.1749991E+04  0.7818608E-02  0.8733356E-01
          2   -1    0    0  501    0  0.00000000000E+00  0.00000000000E+00  0.29894270355E+04  0.29894270355E+04  0.00000000000E+00 0. -1.
         -2   -1    0    0    0  501 -0.00000000000E+00 -0.00000000000E+00 -0.10962317219E+04  0.10962317219E+04  0.00000000000E+00 0.  1.
         23    2    1    2    0    0 -0.67873353975E+03 -0.16053663856E+04  0.11922725163E+04  0.21135236660E+04  0.87109606378E+02 0.  0.
    5000000    2    1    2    0    0  0.67873353975E+03  0.16053663856E+04  0.70092279728E+03  0.19721350914E+04  0.60011965554E+03 0.  0.
         23    2    4    4    0    0  0.63150987114E+03  0.14421701850E+04  0.42326384078E+03  0.16328282710E+04  0.91193880511E+02 0.  0.
         23    2    4    4    0    0  0.47223668604E+02  0.16319620053E+03  0.27765895650E+03  0.33930682032E+03  0.95768196437E+02 0.  0.
          5    1    3    3  502    0 -0.59097000650E+03 -0.13468265087E+04  0.10343122654E+04  0.17980576035E+04  0.47000000000E+01 0. -1.
         -5    1    3    3    0  502 -0.87763533244E+02 -0.25853987688E+03  0.15796025091E+03  0.31546606247E+03  0.47000000000E+01 0.  1.
         13    1    5    5    0    0  0.14501166176E+03  0.39469179033E+03  0.80786890866E+02  0.42817813248E+03  0.00000000000E+00 0.  1.
        -13    1    5    5    0    0  0.48649820938E+03  0.10474783947E+04  0.34247694991E+03  0.12046501386E+04  0.00000000000E+00 0. -1.
          3    1    6    6  503    0  0.45985900420E+02  0.51700215574E+02  0.48615037237E+02  0.84563805339E+02  0.00000000000E+00 0. -1.
         -3    1    6    6    0  503  0.12377681845E+01  0.11149598495E+03  0.22904391927E+03  0.25474301499E+03  0.00000000000E+00 0.  1.
<mgrwt>
<rscale>  0 0.17499905E+04</rscale>
<asrwt>0</asrwt>
<pdfrwt beam="1">  1        2 0.45991185E+00 0.17499905E+04</pdfrwt>
<pdfrwt beam="2">  1       -2 0.16865103E+00 0.17499905E+04</pdfrwt>
<totfact> 0.35449863E-01</totfact>
</mgrwt>
</event>
<event>
12    1  0.3203156E-008  0.5035299E+03  0.7818608E-02  0.1012862E+00
         -1   -1    0    0    0  501 -0.00000000000E+00  0.00000000000E+00  0.99186956962E+03  0.99186956962E+03  0.00000000000E+00 0.  1.
          1   -1    0    0  501    0  0.00000000000E+00 -0.00000000000E+00 -0.40812287891E+03  0.40812287891E+03  0.00000000000E+00 0. -1.
         23    2    1    2    0    0  0.22094595294E+03  0.41776331290E+03  0.86248782935E+02  0.48848872009E+03  0.88538564333E+02 0.  0.
    5000000    2    1    2    0    0 -0.22094595294E+03 -0.41776331290E+03  0.49749790777E+03  0.91150372843E+03  0.59999298245E+03 0.  0.
         23    2    4    4    0    0 -0.16891959383E+03 -0.12086125550E+03  0.54786343991E+03  0.59315899621E+03  0.92422798785E+02 0.  0.
         23    2    4    4    0    0 -0.52026359106E+02 -0.29690205741E+03 -0.50365532137E+02  0.31834473222E+03  0.89157770127E+02 0.  0.
          5    1    3    3  502    0  0.93072289344E+02  0.26623516204E+03  0.40687035994E+02  0.28499322351E+03  0.47000000000E+01 0. -1.
         -5    1    3    3    0  502  0.12787366359E+03  0.15152815086E+03  0.45561746941E+02  0.20349549658E+03  0.47000000000E+01 0.  1.
         11    1    5    5    0    0 -0.68640335325E+02 -0.98746784819E+02  0.23686025347E+03  0.26564111658E+03  0.00000000000E+00 0.  1.
        -11    1    5    5    0    0 -0.10027925850E+03 -0.22114470678E+02  0.31100318644E+03  0.32751787963E+03  0.00000000000E+00 0. -1.
          1    1    6    6  503    0 -0.36556407499E+02 -0.10496757365E+03 -0.58520260884E+02  0.12561521955E+03  0.00000000000E+00 0. -1.
         -1    1    6    6    0  503 -0.15469951607E+02 -0.19193448375E+03  0.81547287467E+01  0.19272951268E+03  0.00000000000E+00 0.  1.
<mgrwt>
<rscale>  0 0.50352994E+03</rscale>
<asrwt>0</asrwt>
<pdfrwt beam="1">  1        1 0.62788136E-01 0.50352994E+03</pdfrwt>
<pdfrwt beam="2">  1       -1 0.15259532E+00 0.50352994E+03</pdfrwt>
<totfact> 0.20589879E+01</totfact>
</mgrwt>
</event>
<event>
12    1  0.3203156E-008  0.7260914E+03  0.7818608E-02  0.9673624E-01
          1   -1    0    0  501    0  0.00000000000E+00  0.00000000000E+00  0.10778175642E+04  0.10778175642E+04  0.00000000000E+00 0. -1.
         -1   -1    0    0    0  501 -0.00000000000E+00 -0.00000000000E+00 -0.68662133492E+03  0.68662133492E+03  0.00000000000E+00 0.  1.
         23    2    1    2    0    0 -0.11773206215E+03 -0.69558639623E+03 -0.97405244523E+02  0.71737227282E+03  0.86220201011E+02 0.  0.
    5000000    2    1    2    0    0  0.11773206215E+03  0.69558639623E+03  0.48860147380E+03  0.10470666263E+04  0.59992986809E+03 0.  0.
         23    2    4    4    0    0  0.55272318005E+02  0.96638632235E+02  0.40790900681E+03  0.43260781572E+03  0.91464255333E+02 0.  0.
         23    2    4    4    0    0  0.62459744146E+02  0.59894776400E+03  0.80692466995E+02  0.61445881058E+03  0.91699029640E+02 0.  0.
          5    1    3    3  502    0 -0.72141670490E+02 -0.57952635198E+03 -0.59933160416E+02  0.58708541710E+03  0.47000000000E+01 0. -1.
         -5    1    3    3    0  502 -0.45590391661E+02 -0.11606004426E+03 -0.37472084107E+02  0.13028685571E+03  0.47000000000E+01 0.  1.
         11    1    5    5    0    0  0.73284748904E+02  0.44076093830E+02  0.28843220178E+03  0.30084296817E+03  0.00000000000E+00 0.  1.
        -11    1    5    5    0    0 -0.18012430898E+02  0.52562538405E+02  0.11947680503E+03  0.13176484755E+03  0.00000000000E+00 0. -1.
          1    1    6    6  503    0  0.51295742219E+02  0.44436322604E+03  0.99759374336E+02  0.45830324306E+03  0.00000000000E+00 0. -1.
         -1    1    6    6    0  503  0.11164001927E+02  0.15458453796E+03 -0.19066907341E+02  0.15615556753E+03  0.00000000000E+00 0.  1.
<mgrwt>
<rscale>  0 0.72609135E+03</rscale>
<asrwt>0</asrwt>
<pdfrwt beam="1">  1        1 0.16581809E+00 0.72609135E+03</pdfrwt>
<pdfrwt beam="2">  1       -1 0.10563405E+00 0.72609135E+03</pdfrwt>
<totfact> 0.11462333E+01</totfact>
</mgrwt>
</event>
<event>
12    1  0.3203156E-008  0.9206058E+03  0.7818608E-02  0.9400183E-01
          1   -1    0    0  501    0  0.00000000000E+00  0.00000000000E+00  0.82860403068E+03  0.82860403068E+03  0.00000000000E+00 0. -1.
         -1   -1    0    0    0  501 -0.00000000000E+00 -0.00000000000E+00 -0.12910011904E+04  0.12910011904E+04  0.00000000000E+00 0.  1.
         23    2    1    2    0    0 -0.91187878721E+03 -0.15681633530E+02  0.40942063046E+02  0.91749429367E+03  0.91382110977E+02 0.  0.
    5000000    2    1    2    0    0  0.91187878721E+03  0.15681633530E+02 -0.50333922281E+03  0.12021109275E+04  0.59995955905E+03 0.  0.
         23    2    4    4    0    0  0.46538468537E+03  0.35977057201E+02  0.58005133458E+02  0.47914217422E+03  0.91298267163E+02 0.  0.
         23    2    4    4    0    0  0.44649410184E+03 -0.20295423670E+02 -0.56134435627E+03  0.72296875324E+03  0.88359745587E+02 0.  0.
          5    1    3    3  502    0 -0.59669633177E+03  0.32990447063E+02  0.25990730463E+02  0.59819101465E+03  0.47000000000E+01 0. -1.
         -5    1    3    3    0  502 -0.31518245544E+03 -0.48672080594E+02  0.14951332583E+02  0.31930327902E+03  0.47000000000E+01 0.  1.
         11    1    5    5    0    0  0.23990024631E+03  0.41687351985E+02 -0.95611818116E+01  0.24368294912E+03  0.00000000000E+00 0.  1.
        -11    1    5    5    0    0  0.22548443906E+03 -0.57102947840E+01  0.67566315270E+02  0.23545922510E+03  0.00000000000E+00 0. -1.
          4    1    6    6  503    0  0.19368639653E+03 -0.52639641713E+02 -0.24355321235E+03  0.31560025242E+03  0.00000000000E+00 0. -1.
         -4    1    6    6    0  503  0.25280770531E+03  0.32344218043E+02 -0.31779114392E+03  0.40736850082E+03  0.00000000000E+00 0.  1.
<mgrwt>
<rscale>  0 0.92060584E+03</rscale>
<asrwt>0</asrwt>
<pdfrwt beam="1">  1        1 0.12747754E+00 0.92060584E+03</pdfrwt>
<pdfrwt beam="2">  1       -1 0.19861557E+00 0.92060584E+03</pdfrwt>
<totfact> 0.32582071E+00</totfact>
</mgrwt>
</event>
<event>
12    1  0.3203156E-008  0.1020418E+04  0.7818608E-02  0.9286430E-01
         -1   -1    0    0    0  501 -0.00000000000E+00  0.00000000000E+00  0.15138184802E+04  0.15138184802E+04  0.00000000000E+00 0.  1.
          1   -1    0    0  501    0  0.00000000000E+00 -0.00000000000E+00 -0.11660488543E+04  0.11660488543E+04  0.00000000000E+00 0. -1.
         23    2    1    2    0    0 -0.66329853963E+03  0.76256992147E+03  0.92257041533E+03  0.13718959378E+04  0.97388167262E+02 0.  0.
    5000000    2    1    2    0    0  0.66329853963E+03 -0.76256992147E+03 -0.57480078947E+03  0.13079713966E+04  0.59909547572E+03 0.  0.
         23    2    4    4    0    0  0.21469610309E+03 -0.16952471523E+03 -0.46958285587E+03  0.55102541666E+03  0.91037934541E+02 0.  0.
         23    2    4    4    0    0  0.44860243654E+03 -0.59304520623E+03 -0.10521793361E+03  0.75694597997E+03  0.94602538760E+02 0.  0.
          5    1    3    3  502    0 -0.40283431084E+03  0.41783738821E+03  0.57930456023E+03  0.82004843057E+03  0.47000000000E+01 0. -1.
         -5    1    3    3    0  502 -0.26046422880E+03  0.34473253326E+03  0.34326585510E+03  0.55184750724E+03  0.47000000000E+01 0.  1.
         11    1    5    5    0    0  0.18135858645E+03 -0.10645419948E+03 -0.29369217724E+03  0.36121811753E+03  0.00000000000E+00 0.  1.
        -11    1    5    5    0    0  0.33337516649E+02 -0.63070515758E+02 -0.17589067863E+03  0.18980729913E+03  0.00000000000E+00 0. -1.
          3    1    6    6  503    0  0.38342032585E+03 -0.46239392516E+03 -0.11086860100E+03  0.61082823689E+03  0.00000000000E+00 0. -1.
         -3    1    6    6    0  503  0.65182110687E+02 -0.13065128107E+03  0.56506673987E+01  0.14611774308E+03  0.00000000000E+00 0.  1.
<mgrwt>
<rscale>  0 0.10204175E+04</rscale>
<asrwt>0</asrwt>
<pdfrwt beam="1">  1        1 0.17939213E+00 0.10204175E+04</pdfrwt>
<pdfrwt beam="2">  1       -1 0.23289515E+00 0.10204175E+04</pdfrwt>
<totfact> 0.10265430E+00</totfact>
</mgrwt>
</event>
<event>
12    1  0.3203156E-008  0.8401997E+03  0.7818608E-02  0.9503586E-01
         -1   -1    0    0    0  501 -0.00000000000E+00  0.00000000000E+00  0.50995958435E+03  0.50995958435E+03  0.00000000000E+00 0.  1.
          1   -1    0    0  501    0  0.00000000000E+00 -0.00000000000E+00 -0.17010782565E+04  0.17010782565E+04  0.00000000000E+00 0. -1.
         23    2    1    2    0    0  0.66255609219E+03 -0.49589286300E+03 -0.63921949539E+03  0.10495892281E+04  0.90253408008E+02 0.  0.
    5000000    2    1    2    0    0 -0.66255609219E+03  0.49589286300E+03 -0.55189917676E+03  0.11614486127E+04  0.59956640313E+03 0.  0.
         23    2    4    4    0    0 -0.20813143331E+03  0.11641840955E+03 -0.49774987432E+03  0.55947580755E+03  0.91576756015E+02 0.  0.
         23    2    4    4    0    0 -0.45442465889E+03  0.37947445345E+03 -0.54149302439E+02  0.60197280515E+03  0.94532955924E+02 0.  0.
          5    1    3    3  502    0  0.44498311739E+03 -0.28522575507E+03 -0.43127847696E+03  0.68219272996E+03  0.47000000000E+01 0. -1.
         -5    1    3    3    0  502  0.21757297480E+03 -0.21066710793E+03 -0.20794101842E+03  0.36739649817E+03  0.47000000000E+01 0.  1.
         11    1    5    5    0    0 -0.17904835926E+03  0.12640421364E+03 -0.38935569265E+03  0.44680442654E+03  0.00000000000E+00 0. -1.
        -11    1    5    5    0    0 -0.29083074047E+02 -0.99858040919E+01 -0.10839418167E+03  0.11267138101E+03  0.00000000000E+00 0.  1.
          3    1    6    6  503    0 -0.21224170472E+03  0.23655182440E+03 -0.41133658256E+02  0.32046105019E+03  0.00000000000E+00 0. -1.
         -3    1    6    6    0  503 -0.24218295417E+03  0.14292262905E+03 -0.13015644183E+02  0.28151175495E+03  0.00000000000E+00 0.  1.
<mgrwt>
<rscale>  0 0.84019968E+03</rscale>
<asrwt>0</asrwt>
<pdfrwt beam="1">  1        1 0.26170435E+00 0.84019968E+03</pdfrwt>
<pdfrwt beam="2">  1       -1 0.78455319E-01 0.84019968E+03</pdfrwt>
<totfact> 0.79572774E+00</totfact>
</mgrwt>
</event>
<event>
12    1  0.4002712E-008  0.9685588E+03  0.7818608E-02  0.9343717E-01
          2   -1    0    0  501    0  0.00000000000E+00  0.00000000000E+00  0.19777490493E+04  0.19777490493E+04  0.00000000000E+00 0. -1.
         -2   -1    0    0    0  501 -0.00000000000E+00 -0.00000000000E+00 -0.62721872105E+03  0.62721872105E+03  0.00000000000E+00 0.  1.
         23    2    1    2    0    0 -0.75181467471E+03  0.58593713678E+03  0.16895168298E+03  0.97258912851E+03  0.94006958959E+02 0.  0.
    5000000    2    1    2    0    0  0.75181467471E+03 -0.58593713678E+03  0.11815786453E+04  0.16323786419E+04  0.59998691823E+03 0.  0.
         23    2    4    4    0    0  0.62452086913E+03 -0.36494940749E+03  0.11476674357E+04  0.13597440471E+04  0.92460502919E+02 0.  0.
         23    2    4    4    0    0  0.12729380558E+03 -0.22098772929E+03  0.33911209564E+02  0.27263459476E+03  0.90223958511E+02 0.  0.
          5    1    3    3  502    0 -0.29586073197E+03  0.23147852722E+03  0.20350546956E+02  0.37623412398E+03  0.47000000000E+01 0. -1.
         -5    1    3    3    0  502 -0.45595394274E+03  0.35445860957E+03  0.14860113603E+03  0.59635500453E+03  0.47000000000E+01 0.  1.
         13    1    5    5    0    0  0.42646346747E+03 -0.26780549344E+03  0.72139882523E+03  0.87977675375E+03  0.00000000000E+00 0.  1.
        -13    1    5    5    0    0  0.19805740166E+03 -0.97143914050E+02  0.42626861051E+03  0.47996729336E+03  0.00000000000E+00 0. -1.
          3    1    6    6  503    0  0.13186504050E+03 -0.21326675562E+03  0.48613856007E+02  0.25541026791E+03  0.00000000000E+00 0. -1.
         -3    1    6    6    0  503 -0.45712349154E+01 -0.77209736756E+01 -0.14702646443E+02  0.17224326854E+02  0.00000000000E+00 0.  1.
<mgrwt>
<rscale>  0 0.96855880E+03</rscale>
<asrwt>0</asrwt>
<pdfrwt beam="1">  1        2 0.30426908E+00 0.96855880E+03</pdfrwt>
<pdfrwt beam="2">  1       -2 0.96495189E-01 0.96855880E+03</pdfrwt>
<totfact> 0.62033060E+00</totfact>
</mgrwt>
</event>
<event>
12    1  0.3203156E-008  0.4775410E+03  0.7818608E-02  0.1019813E+00
          2   -1    0    0  501    0  0.00000000000E+00  0.00000000000E+00  0.17138994524E+04  0.17138994524E+04  0.00000000000E+00 0. -1.
         -2   -1    0    0    0  501 -0.00000000000E+00 -0.00000000000E+00 -0.15955435380E+03  0.15955435380E+03  0.00000000000E+00 0.  1.
         23    2    1    2    0    0 -0.78363306199E+02  0.29634248142E+03  0.25227012378E+03  0.40741484014E+03  0.91580361213E+02 0.  0.
    5000000    2    1    2    0    0  0.78363306199E+02 -0.29634248142E+03  0.13020749748E+04  0.14660389660E+04  0.59992610871E+03 0.  0.
         23    2    4    4    0    0 -0.14411046516E+02  0.15774975740E+03  0.51302594114E+03  0.54647016678E+03  0.10169249078E+03 0.  0.
         23    2    4    4    0    0  0.92774352715E+02 -0.45409223882E+03  0.78904903366E+03  0.91956879926E+03  0.90562449088E+02 0.  0.
          5    1    3    3  502    0 -0.72610608405E+02  0.10350503034E+03  0.11010804935E+03  0.16772436999E+03  0.47000000000E+01 0. -1.
         -5    1    3    3    0  502 -0.57526977940E+01  0.19283745108E+03  0.14216207443E+03  0.23969047014E+03  0.47000000000E+01 0.  1.
         11    1    5    5    0    0 -0.38431481485E+02  0.12479068637E+03  0.46729612441E+03  0.48519620986E+03  0.00000000000E+00 0. -1.
        -11    1    5    5    0    0  0.24020434969E+02  0.32959071028E+02  0.45729816733E+02  0.61273956927E+02  0.00000000000E+00 0.  1.
          3    1    6    6  503    0  0.40595998614E+02 -0.13781929395E+03  0.32747891936E+03  0.35760961328E+03  0.00000000000E+00 0. -1.
         -3    1    6    6    0  503  0.52178354101E+02 -0.31627294487E+03  0.46157011430E+03  0.56195918598E+03  0.00000000000E+00 0.  1.
<mgrwt>
<rscale>  0 0.47754095E+03</rscale>
<asrwt>0</asrwt>
<pdfrwt beam="1">  1        2 0.26367683E+00 0.47754095E+03</pdfrwt>
<pdfrwt beam="2">  1       -2 0.24546825E-01 0.47754095E+03</pdfrwt>
<totfact> 0.14992860E+02</totfact>
</mgrwt>
</event>
<event>
12    1  0.3203156E-008  0.1591034E+04  0.7818608E-02  0.8826075E-01
         -2   -1    0    0    0  501 -0.00000000000E+00  0.00000000000E+00  0.21874611793E+04  0.21874611793E+04  0.00000000000E+00 0.  1.
          2   -1    0    0  501    0  0.00000000000E+00 -0.00000000000E+00 -0.11889210588E+04  0.11889210588E+04  0.00000000000E+00 0. -1.
         23    2    1    2    0    0 -0.13420590401E+04  0.77471232271E+03  0.34213015509E+03  0.15896428005E+04  0.92787608619E+02 0.  0.
    5000000    2    1    2    0    0  0.13420590401E+04 -0.77471232271E+03  0.65640996548E+03  0.17867394375E+04  0.60021839764E+03 0.  0.
         23    2    4    4    0    0  0.28900181398E+03  0.49419096529E+02  0.40083752330E+02  0.31151707549E+03  0.97323612409E+02 0.  0.
         23    2    4    4    0    0  0.10530572261E+04 -0.82413141924E+03  0.61632621315E+03  0.14752223620E+04  0.91109268860E+02 0.  0.
          5    1    3    3  502    0 -0.19461609923E+03  0.12551783874E+03  0.82971145336E+02  0.24604157145E+03  0.47000000000E+01 0. -1.
         -5    1    3    3    0  502 -0.11474429408E+04  0.64919448396E+03  0.25915900975E+03  0.13436012291E+04  0.47000000000E+01 0.  1.
         13    1    5    5    0    0  0.11915545847E+03  0.86949907384E+01  0.63491416182E+02  0.13529518128E+03  0.00000000000E+00 0. -1.
        -13    1    5    5    0    0  0.16984635551E+03  0.40724105791E+02 -0.23407663851E+02  0.17622189421E+03  0.00000000000E+00 0.  1.
          2    1    6    6  503    0  0.83426026020E+03 -0.67521233897E+03  0.45876178788E+03  0.11672036080E+04  0.00000000000E+00 0.  1.
         -2    1    6    6    0  503  0.21879696589E+03 -0.14891908027E+03  0.15756442527E+03  0.30801875407E+03  0.00000000000E+00 0. -1.
<mgrwt>
<rscale>  0 0.15910337E+04</rscale>
<asrwt>0</asrwt>
<pdfrwt beam="1">  1        2 0.18291093E+00 0.15910337E+04</pdfrwt>
<pdfrwt beam="2">  1       -2 0.33653249E+00 0.15910337E+04</pdfrwt>
<totfact> 0.34059259E-01</totfact>
</mgrwt>
</event>
<event>
12    1  0.3203156E-008  0.5966290E+03  0.7818608E-02  0.9912425E-01
         -2   -1    0    0    0  501 -0.00000000000E+00  0.00000000000E+00  0.54917439033E+03  0.54917439033E+03  0.00000000000E+00 0.  1.
          2   -1    0    0  501    0  0.00000000000E+00 -0.00000000000E+00 -0.75642194122E+03  0.75642194122E+03  0.00000000000E+00 0. -1.
         23    2    1    2    0    0 -0.47447786496E+03  0.61661800875E+02  0.64670126395E+02  0.49143374828E+03  0.91615946632E+02 0.  0.
    5000000    2    1    2    0    0  0.47447786496E+03 -0.61661800875E+02 -0.27191767728E+03  0.81416258327E+03  0.59999172223E+03 0.  0.
         23    2    4    4    0    0  0.15949279532E+03 -0.27331511675E+03  0.16076089523E+02  0.32932544232E+03  0.89764700751E+02 0.  0.
         23    2    4    4    0    0  0.31498506965E+03  0.21165331587E+03 -0.28799376680E+03  0.48483714095E+03  0.90077318507E+02 0.  0.
          5    1    3    3  502    0 -0.40067430671E+03  0.33291069665E+02  0.81983306753E+02  0.41035539227E+03  0.47000000000E+01 0. -1.
         -5    1    3    3    0  502 -0.73803558254E+02  0.28370731210E+02 -0.17313180358E+02  0.81078356017E+02  0.47000000000E+01 0.  1.
         11    1    5    5    0    0  0.37026100024E+02 -0.14484569247E+03 -0.10435464908E+02  0.14986695980E+03  0.00000000000E+00 0. -1.
        -11    1    5    5    0    0  0.12246669529E+03 -0.12846942428E+03  0.26511554431E+02  0.17945848252E+03  0.00000000000E+00 0.  1.
          4    1    6    6  503    0  0.21713186810E+03  0.18027065692E+03 -0.24394432905E+03  0.37303162543E+03  0.00000000000E+00 0. -1.
         -4    1    6    6    0  503  0.97853201549E+02  0.31382658951E+02 -0.44049437751E+02  0.11180551553E+03  0.00000000000E+00 0.  1.
<mgrwt>
<rscale>  0 0.59662901E+03</rscale>
<asrwt>0</asrwt>
<pdfrwt beam="1">  1        2 0.11637261E+00 0.59662901E+03</pdfrwt>
<pdfrwt beam="2">  1       -2 0.84488368E-01 0.59662901E+03</pdfrwt>
<totfact> 0.46537247E+01</totfact>
</mgrwt>
</event>
<event>
12    1  0.3203156E-008  0.5722693E+03  0.7818608E-02  0.9964669E-01
          1   -1    0    0  501    0  0.00000000000E+00  0.00000000000E+00  0.23013020153E+04  0.23013020153E+04  0.00000000000E+00 0. -1.
         -1   -1    0    0    0  501 -0.00000000000E+00 -0.00000000000E+00 -0.21849104481E+03  0.21849104481E+03  0.00000000000E+00 0.  1.
         23    2    1    2    0    0 -0.42270299428E+03 -0.83407062721E+02  0.15436610209E+04  0.16053621849E+04  0.93079739953E+02 0.  0.
    5000000    2    1    2    0    0  0.42270299428E+03  0.83407062721E+02  0.53914994959E+03  0.91443087515E+03  0.59988882120E+03 0.  0.
         23    2    4    4    0    0  0.55830962386E+03  0.94131766150E+02  0.43090105211E+03  0.71695252380E+03  0.88174708285E+02 0.  0.
         23    2    4    4    0    0 -0.13560662959E+03 -0.10724703429E+02  0.10824889747E+03  0.19747835135E+03  0.93678696589E+02 0.  0.
          5    1    3    3  502    0 -0.30754807762E+03 -0.94387360578E+02  0.12162081994E+04  0.12580458132E+04  0.47000000000E+01 0. -1.
         -5    1    3    3    0  502 -0.11515491665E+03  0.10980297857E+02  0.32745282150E+03  0.34731637174E+03  0.47000000000E+01 0.  1.
         13    1    5    5    0    0  0.38876198512E+03  0.30898419078E+02  0.26541129225E+03  0.47173482745E+03  0.00000000000E+00 0. -1.
        -13    1    5    5    0    0  0.16954763874E+03  0.63233347072E+02  0.16548975986E+03  0.24521769635E+03  0.00000000000E+00 0.  1.
          3    1    6    6  503    0 -0.99346332951E+02 -0.95278816580E+01  0.12292845051E+03  0.15834101915E+03  0.00000000000E+00 0. -1.
         -3    1    6    6    0  503 -0.36260296636E+02 -0.11968217710E+01 -0.14679553035E+02  0.39137332200E+02  0.00000000000E+00 0.  1.
<mgrwt>
<rscale>  0 0.57226932E+03</rscale>
<asrwt>0</asrwt>
<pdfrwt beam="1">  1        1 0.35404645E+00 0.57226932E+03</pdfrwt>
<pdfrwt beam="2">  1       -1 0.33614008E-01 0.57226932E+03</pdfrwt>
<totfact> 0.16717015E+01</totfact>
</mgrwt>
</event>
<event>
12    1  0.3203156E-008  0.8204447E+03  0.7818608E-02  0.9530887E-01
          2   -1    0    0  501    0  0.00000000000E+00  0.00000000000E+00  0.13187131659E+04  0.13187131659E+04  0.00000000000E+00 0.  1.
         -2   -1    0    0    0  501 -0.00000000000E+00 -0.00000000000E+00 -0.10634412461E+04  0.10634412461E+04  0.00000000000E+00 0. -1.
         23    2    1    2    0    0 -0.71517428280E+03 -0.72587137573E+02 -0.72560599985E+03  0.10260871974E+04  0.98018989746E+02 0.  0.
    5000000    2    1    2    0    0  0.71517428280E+03  0.72587137573E+02  0.98087791964E+03  0.13560672147E+04  0.60004470678E+03 0.  0.
         23    2    4    4    0    0  0.46832019111E+03  0.31383540500E+03  0.51093199240E+03  0.76624321923E+03  0.90888433445E+02 0.  0.
         23    2    4    4    0    0  0.24685409170E+03 -0.24124826743E+03  0.46994592725E+03  0.58982399544E+03  0.88912889597E+02 0.  0.
          5    1    3    3  502    0 -0.38050496786E+03 -0.60923586033E+02 -0.32660820368E+03  0.50516405515E+03  0.47000000000E+01 0. -1.
         -5    1    3    3    0  502 -0.33466931494E+03 -0.11663551541E+02 -0.39899779617E+03  0.52092314227E+03  0.47000000000E+01 0.  1.
         11    1    5    5    0    0  0.95509548211E+02  0.47366169875E+02  0.55590724611E+02  0.12023292607E+03  0.00000000000E+00 0.  1.
        -11    1    5    5    0    0  0.37281064290E+03  0.26646923512E+03  0.45534126779E+03  0.64601029316E+03  0.00000000000E+00 0. -1.
          1    1    6    6  503    0  0.16106630586E+03 -0.20952441386E+03  0.36469192733E+03  0.45038099065E+03  0.00000000000E+00 0. -1.
         -1    1    6    6    0  503  0.85787785839E+02 -0.31723853569E+02  0.10525399992E+03  0.13944300479E+03  0.00000000000E+00 0.  1.
<mgrwt>
<rscale>  0 0.82044469E+03</rscale>
<asrwt>0</asrwt>
<pdfrwt beam="1">  1        2 0.20287895E+00 0.82044469E+03</pdfrwt>
<pdfrwt beam="2">  1       -2 0.16360635E+00 0.82044469E+03</pdfrwt>
<totfact> 0.38740986E+00</totfact>
</mgrwt>
</event>
<event>
12    1  0.3203156E-008  0.8669828E+03  0.7818608E-02  0.9467822E-01
          2   -1    0    0  501    0  0.00000000000E+00  0.00000000000E+00  0.56144273719E+03  0.56144273719E+03  0.00000000000E+00 0. -1.
         -2   -1    0    0    0  501 -0.00000000000E+00 -0.00000000000E+00 -0.15830294808E+04  0.15830294808E+04  0.00000000000E+00 0.  1.
         23    2    1    2    0    0 -0.27884736313E+03 -0.78999438615E+03 -0.33631432550E+03  0.90717485724E+03  0.89509295617E+02 0.  0.
    5000000    2    1    2    0    0  0.27884736313E+03  0.78999438615E+03 -0.68527241810E+03  0.12372973608E+04  0.59954940568E+03 0.  0.
         23    2    4    4    0    0  0.24909581281E+03  0.31361595311E+03 -0.17519455660E+02  0.41114771264E+03  0.91278805191E+02 0.  0.
         23    2    4    4    0    0  0.29751550316E+02  0.47637843304E+03 -0.66775296244E+03  0.82614964812E+03  0.93849113066E+02 0.  0.
          5    1    3    3  502    0 -0.74021213953E+02 -0.14272777578E+03 -0.36147132436E+02  0.16486073904E+03  0.47000000000E+01 0. -1.
         -5    1    3    3    0  502 -0.20482614917E+03 -0.64726661037E+03 -0.30016719306E+03  0.74231411819E+03  0.47000000000E+01 0.  1.
         13    1    5    5    0    0  0.12203970610E+03  0.21733693283E+03  0.96066847758E+01  0.24944201857E+03  0.00000000000E+00 0. -1.
        -13    1    5    5    0    0  0.12705610671E+03  0.96279020281E+02 -0.27126140436E+02  0.16170569407E+03  0.00000000000E+00 0.  1.
          1    1    6    6  503    0  0.53870275413E+02  0.42893941199E+03 -0.57767945799E+03  0.72152933545E+03  0.00000000000E+00 0. -1.
         -1    1    6    6    0  503 -0.24118725097E+02  0.47439021050E+02 -0.90073504447E+02  0.10462031266E+03  0.00000000000E+00 0.  1.
<mgrwt>
<rscale>  0 0.86698283E+03</rscale>
<asrwt>0</asrwt>
<pdfrwt beam="1">  1        2 0.86375806E-01 0.86698283E+03</pdfrwt>
<pdfrwt beam="2">  1       -2 0.24354300E+00 0.86698283E+03</pdfrwt>
<totfact> 0.38330438E+00</totfact>
</mgrwt>
</event>
<event>
12    1  0.3203156E-008  0.5478122E+03  0.7818608E-02  0.1002002E+00
         -1   -1    0    0    0  501 -0.00000000000E+00  0.00000000000E+00  0.22188496821E+03  0.22188496821E+03  0.00000000000E+00 0.  1.
          1   -1    0    0  501    0  0.00000000000E+00 -0.00000000000E+00 -0.16280939984E+04  0.16280939984E+04  0.00000000000E+00 0. -1.
         23    2    1    2    0    0  0.36011651422E+03  0.19051033369E+03 -0.25808641486E+03  0.49200606527E+03  0.97382132190E+02 0.  0.
    5000000    2    1    2    0    0 -0.36011651422E+03 -0.19051033369E+03 -0.11481226153E+04  0.13579729013E+04  0.59993897181E+03 0.  0.
         23    2    4    4    0    0 -0.85761658208E+02 -0.34099574509E+03 -0.81472520602E+03  0.89206932617E+03  0.91527925675E+02 0.  0.
         23    2    4    4    0    0 -0.27435485601E+03  0.15048541140E+03 -0.33339740931E+03  0.46590357517E+03  0.89419588265E+02 0.  0.
          5    1    3    3  502    0  0.17161734661E+03  0.13935506126E+03 -0.11075701545E+03  0.24730861940E+03  0.47000000000E+01 0. -1.
         -5    1    3    3    0  502  0.18849916760E+03  0.51155272432E+02 -0.14732939941E+03  0.24469744587E+03  0.47000000000E+01 0.  1.
         13    1    5    5    0    0 -0.47604630136E+02 -0.10297373131E+03 -0.35924822297E+03  0.37673475531E+03  0.00000000000E+00 0. -1.
        -13    1    5    5    0    0 -0.38157028072E+02 -0.23802201378E+03 -0.45547698305E+03  0.51533457086E+03  0.00000000000E+00 0.  1.
          4    1    6    6  503    0 -0.19570118303E+03  0.59914281885E+02 -0.22591888148E+03  0.30484096710E+03  0.00000000000E+00 0. -1.
         -4    1    6    6    0  503 -0.78653672975E+02  0.90571129518E+02 -0.10747852783E+03  0.16106260807E+03  0.00000000000E+00 0.  1.
<mgrwt>
<rscale>  0 0.54781217E+03</rscale>
<asrwt>0</asrwt>
<pdfrwt beam="1">  1        1 0.25047600E+00 0.54781217E+03</pdfrwt>
<pdfrwt beam="2">  1       -1 0.34136149E-01 0.54781217E+03</pdfrwt>
<totfact> 0.45843277E+01</totfact>
</mgrwt>
</event>
<event>
12    1  0.3203156E-008  0.9191525E+03  0.7818608E-02  0.9401952E-01
         -1   -1    0    0    0  501 -0.00000000000E+00  0.00000000000E+00  0.85661050492E+03  0.85661050492E+03  0.00000000000E+00 0.  1.
          1   -1    0    0  501    0  0.00000000000E+00 -0.00000000000E+00 -0.13560687775E+04  0.13560687775E+04  0.00000000000E+00 0. -1.
         23    2    1    2    0    0 -0.74205888034E+03 -0.52597351124E+03  0.17557447133E+03  0.93090096051E+03  0.91927617564E+02 0.  0.
    5000000    2    1    2    0    0  0.74205888034E+03  0.52597351124E+03 -0.67503274390E+03  0.12817783219E+04  0.59998912049E+03 0.  0.
         23    2    4    4    0    0  0.23678983718E+03  0.14919424127E+03  0.69016913761E+02  0.30216718563E+03  0.90627396921E+02 0.  0.
         23    2    4    4    0    0  0.50526904317E+03  0.37677926998E+03 -0.74404965766E+03  0.97961113626E+03  0.93641128482E+02 0.  0.
          5    1    3    3  502    0 -0.68596154900E+03 -0.51030063592E+03  0.15471710807E+03  0.86885525794E+03  0.47000000000E+01 0. -1.
         -5    1    3    3    0  502 -0.56097331348E+02 -0.15672875320E+02  0.20857363258E+02  0.62045702569E+02  0.47000000000E+01 0.  1.
         13    1    5    5    0    0  0.19146091007E+03  0.82949217115E+02  0.23725026585E+02  0.21000173711E+03  0.00000000000E+00 0.  1.
        -13    1    5    5    0    0  0.45328927110E+02  0.66245024150E+02  0.45291887176E+02  0.92165448523E+02  0.00000000000E+00 0. -1.
          4    1    6    6  503    0  0.24586655438E+03  0.23614273199E+03 -0.42905216087E+03  0.54799590252E+03  0.00000000000E+00 0. -1.
         -4    1    6    6    0  503  0.25940248879E+03  0.14063653799E+03 -0.31499749679E+03  0.43161523374E+03  0.00000000000E+00 0.  1.
<mgrwt>
<rscale>  0 0.91915249E+03</rscale>
<asrwt>0</asrwt>
<pdfrwt beam="1">  1        1 0.20862597E+00 0.91915249E+03</pdfrwt>
<pdfrwt beam="2">  1       -1 0.13178623E+00 0.91915249E+03</pdfrwt>
<totfact> 0.41022043E+00</totfact>
</mgrwt>
</event>
<event>
12    1  0.3203156E-008  0.7426028E+03  0.7818608E-02  0.9647027E-01
         -2   -1    0    0    0  501 -0.00000000000E+00  0.00000000000E+00  0.22656903119E+03  0.22656903119E+03  0.00000000000E+00 0.  1.
          2   -1    0    0  501    0  0.00000000000E+00 -0.00000000000E+00 -0.28373712551E+04  0.28373712551E+04  0.00000000000E+00 0. -1.
         23    2    1    2    0    0 -0.25276508378E+03 -0.60354785892E+03 -0.15216272045E+04  0.16587966389E+04  0.89981854915E+02 0.  0.
    5000000    2    1    2    0    0  0.25276508378E+03  0.60354785892E+03 -0.10891750194E+04  0.14051436474E+04  0.59997186706E+03 0.  0.
         23    2    4    4    0    0  0.38602222913E+03  0.55108793642E+03 -0.67371481267E+03  0.95655879158E+03  0.91662412578E+02 0.  0.
         23    2    4    4    0    0 -0.13325714534E+03  0.52459922496E+02 -0.41546020673E+03  0.44858485579E+03  0.90064861148E+02 0.  0.
          5    1    3    3  502    0 -0.21513439683E+03 -0.42970553305E+03 -0.10511526277E+04  0.11557999787E+04  0.47000000000E+01 0. -1.
         -5    1    3    3    0  502 -0.37630686949E+02 -0.17384232586E+03 -0.47047457672E+03  0.50299666022E+03  0.47000000000E+01 0.  1.
         13    1    5    5    0    0  0.21007220033E+03  0.22676390784E+03 -0.33253089982E+03  0.45401431539E+03  0.00000000000E+00 0. -1.
        -13    1    5    5    0    0  0.17595002879E+03  0.32432402859E+03 -0.34118391286E+03  0.50254447618E+03  0.00000000000E+00 0.  1.
          4    1    6    6  503    0 -0.10337131934E+03  0.21513545676E+02 -0.37480307438E+03  0.38939158552E+03  0.00000000000E+00 0.  1.
         -4    1    6    6    0  503 -0.29885826006E+02  0.30946376820E+02 -0.40657132355E+02  0.59193270274E+02  0.00000000000E+00 0. -1.
<mgrwt>
<rscale>  0 0.74260276E+03</rscale>
<asrwt>0</asrwt>
<pdfrwt beam="1">  1        2 0.43651867E+00 0.74260276E+03</pdfrwt>
<pdfrwt beam="2">  1       -2 0.34856773E-01 0.74260276E+03</pdfrwt>
<totfact> 0.17901350E+01</totfact>
</mgrwt>
</event>
<event>
12    1  0.3203156E-008  0.4826191E+03  0.7818608E-02  0.1018418E+00
          1   -1    0    0  501    0  0.00000000000E+00  0.00000000000E+00  0.23374274081E+04  0.23374274081E+04  0.00000000000E+00 0. -1.
         -1   -1    0    0    0  501 -0.00000000000E+00 -0.00000000000E+00 -0.15369283444E+03  0.15369283444E+03  0.00000000000E+00 0.  1.
         23    2    1    2    0    0 -0.19321409667E+03 -0.33885613816E+03  0.39901664544E+03  0.56834336817E+03  0.10791075616E+03 0.  0.
    5000000    2    1    2    0    0  0.19321409667E+03  0.33885613816E+03  0.17847179283E+04  0.19227768744E+04  0.59974799353E+03 0.  0.
         23    2    4    4    0    0  0.31370110371E+03  0.22235301900E+03  0.16307515553E+04  0.16778870598E+04  0.90028345199E+02 0.  0.
         23    2    4    4    0    0 -0.12048700704E+03  0.11650311916E+03  0.15396637297E+03  0.24488981457E+03  0.90417264021E+02 0.  0.
          5    1    3    3  502    0 -0.96805992223E+02 -0.16571878913E+03  0.27195874304E+03  0.33289302353E+03  0.47000000000E+01 0. -1.
         -5    1    3    3    0  502 -0.96408104443E+02 -0.17313734903E+03  0.12705790240E+03  0.23545034465E+03  0.47000000000E+01 0.  1.
         13    1    5    5    0    0  0.19233529602E+03  0.14316004481E+03  0.82200253196E+03  0.85625686979E+03  0.00000000000E+00 0. -1.
        -13    1    5    5    0    0  0.12136580768E+03  0.79192974184E+02  0.80874902333E+03  0.82163019003E+03  0.00000000000E+00 0.  1.
          1    1    6    6  503    0 -0.85698294485E+02  0.20328139127E+02  0.74891439376E+02  0.11561210408E+03  0.00000000000E+00 0. -1.
         -1    1    6    6    0  503 -0.34788712555E+02  0.96174980033E+02  0.79074933595E+02  0.12927771049E+03  0.00000000000E+00 0.  1.
<mgrwt>
<rscale>  0 0.48261913E+03</rscale>
<asrwt>0</asrwt>
<pdfrwt beam="1">  1        1 0.35960419E+00 0.48261913E+03</pdfrwt>
<pdfrwt beam="2">  1       -1 0.23645053E-01 0.48261913E+03</pdfrwt>
<totfact> 0.29487901E+01</totfact>
</mgrwt>
</event>
<event>
12    1  0.3203156E-008  0.3012484E+04  0.7818608E-02  0.8240175E-01
         -2   -1    0    0    0  501 -0.00000000000E+00  0.00000000000E+00  0.24058037494E+04  0.24058037494E+04  0.00000000000E+00 0.  1.
          2   -1    0    0  501    0  0.00000000000E+00 -0.00000000000E+00 -0.37794039237E+04  0.37794039237E+04  0.00000000000E+00 0. -1.
         23    2    1    2    0    0 -0.14630499592E+01  0.29847650967E+04 -0.69238669775E+03  0.30654214955E+04  0.92654102085E+02 0.  0.
    5000000    2    1    2    0    0  0.14630499592E+01 -0.29847650967E+04 -0.68121347659E+03  0.31197861776E+04  0.60015762072E+03 0.  0.
         23    2    4    4    0    0  0.27626603909E+03 -0.15138463302E+04 -0.26197541883E+03  0.15631604735E+04  0.82376635738E+02 0.  0.
         23    2    4    4    0    0 -0.27480298913E+03 -0.14709187665E+04 -0.41923805776E+03  0.15566257040E+04  0.90577771829E+02 0.  0.
          5    1    3    3  502    0  0.32654100944E+02  0.11283239895E+04 -0.23112960787E+03  0.11522258031E+04  0.47000000000E+01 0. -1.
         -5    1    3    3    0  502 -0.34117150904E+02  0.18564411072E+04 -0.46125708988E+03  0.19131956924E+04  0.47000000000E+01 0.  1.
         13    1    5    5    0    0  0.15593714882E+03 -0.64682035487E+03 -0.96322373747E+02  0.67228785913E+03  0.00000000000E+00 0.  1.
        -13    1    5    5    0    0  0.12032889027E+03 -0.86702597535E+03 -0.16565304508E+03  0.89087261442E+03  0.00000000000E+00 0. -1.
          2    1    6    6  503    0 -0.22104690985E+03 -0.13228135620E+04 -0.36413969001E+03  0.13897104627E+04  0.00000000000E+00 0. -1.
         -2    1    6    6    0  503 -0.53756079273E+02 -0.14810520448E+03 -0.55098367755E+02  0.16691524131E+03  0.00000000000E+00 0.  1.
<mgrwt>
<rscale>  0 0.30124844E+04</rscale>
<asrwt>0</asrwt>
<pdfrwt beam="1">  1        2 0.58144676E+00 0.30124844E+04</pdfrwt>
<pdfrwt beam="2">  1       -2 0.37012365E+00 0.30124844E+04</pdfrwt>
<totfact> 0.46854998E-03</totfact>
</mgrwt>
</event>
<event>
12    1  0.3203156E-008  0.5901042E+03  0.7818608E-02  0.9926152E-01
         -2   -1    0    0    0  501 -0.00000000000E+00  0.00000000000E+00  0.10450980294E+04  0.10450980294E+04  0.00000000000E+00 0.  1.
          2   -1    0    0  501    0  0.00000000000E+00 -0.00000000000E+00 -0.75498548070E+03  0.75498548070E+03  0.00000000000E+00 0. -1.
         23    2    1    2    0    0  0.44050573476E+03 -0.96327292081E+02  0.77870618599E+03  0.90448691758E+03  0.91591541170E+02 0.  0.
    5000000    2    1    2    0    0 -0.44050573476E+03  0.96327292081E+02 -0.48859363734E+03  0.89559659248E+03  0.60003771920E+03 0.  0.
         23    2    4    4    0    0 -0.51909509579E+03  0.22633156549E+03 -0.37971558791E+03  0.68782017180E+03  0.90702618626E+02 0.  0.
         23    2    4    4    0    0  0.78589361022E+02 -0.13000427341E+03 -0.10887804942E+03  0.20777642068E+03  0.90770108379E+02 0.  0.
          5    1    3    3  502    0  0.33016593843E+03 -0.87614382399E+02  0.51007757623E+03  0.61391127264E+03  0.47000000000E+01 0. -1.
         -5    1    3    3    0  502  0.11033979633E+03 -0.87129096829E+01  0.26862860976E+03  0.29057564493E+03  0.47000000000E+01 0.  1.
         11    1    5    5    0    0 -0.16811594790E+03  0.94535397568E+02 -0.17617286044E+03  0.26122172591E+03  0.00000000000E+00 0.  1.
        -11    1    5    5    0    0 -0.35097914788E+03  0.13179616792E+03 -0.20354272747E+03  0.42659844589E+03  0.00000000000E+00 0. -1.
          3    1    6    6  503    0 -0.68913124686E+00 -0.40285859191E+02 -0.71985733362E+02  0.82494673527E+02  0.00000000000E+00 0. -1.
         -3    1    6    6    0  503  0.79278492269E+02 -0.89718414215E+02 -0.36892316062E+02  0.12528174716E+03  0.00000000000E+00 0.  1.
<mgrwt>
<rscale>  0 0.59010420E+03</rscale>
<asrwt>0</asrwt>
<pdfrwt beam="1">  1        2 0.11615161E+00 0.59010420E+03</pdfrwt>
<pdfrwt beam="2">  1       -2 0.16078431E+00 0.59010420E+03</pdfrwt>
<totfact> 0.95884304E+00</totfact>
</mgrwt>
</event>
<event>
12    1  0.3203156E-008  0.6140837E+03  0.7818608E-02  0.9876610E-01
          1   -1    0    0  501    0  0.00000000000E+00  0.00000000000E+00  0.29164826775E+03  0.29164826775E+03  0.00000000000E+00 0. -1.
         -1   -1    0    0    0  501 -0.00000000000E+00 -0.00000000000E+00 -0.13724624233E+04  0.13724624233E+04  0.00000000000E+00 0.  1.
         23    2    1    2    0    0  0.18067255589E+03  0.44748295604E+03 -0.35695945316E+03  0.60726092430E+03  0.91990274347E+02 0.  0.
    5000000    2    1    2    0    0 -0.18067255589E+03 -0.44748295604E+03 -0.72385470234E+03  0.10568497667E+04  0.60006852183E+03 0.  0.
         23    2    4    4    0    0 -0.29753179021E+03 -0.32183391897E+02 -0.19517810309E+03  0.36839888084E+03  0.89790347940E+02 0.  0.
         23    2    4    4    0    0  0.11685923431E+03 -0.41529956415E+03 -0.52867659925E+03  0.68845088586E+03  0.91300969497E+02 0.  0.
          5    1    3    3  502    0  0.12037131535E+03  0.38735575595E+03 -0.28636635819E+03  0.49654961115E+03  0.47000000000E+01 0. -1.
         -5    1    3    3    0  502  0.60301240540E+02  0.60127200093E+02 -0.70593094972E+02  0.11071131315E+03  0.47000000000E+01 0.  1.
         11    1    5    5    0    0 -0.24299350742E+03 -0.10861090351E+02 -0.19177086309E+03  0.30974162113E+03  0.00000000000E+00 0.  1.
        -11    1    5    5    0    0 -0.54538282788E+02 -0.21322301546E+02 -0.34072400038E+01  0.58657259714E+02  0.00000000000E+00 0. -1.
          3    1    6    6  503    0  0.13777869126E+02 -0.15278429941E+03 -0.24028046909E+03  0.28507468433E+03  0.00000000000E+00 0. -1.
         -3    1    6    6    0  503  0.10308136519E+03 -0.26251526474E+03 -0.28839613016E+03  0.40337620153E+03  0.00000000000E+00 0.  1.
<mgrwt>
<rscale>  0 0.61408365E+03</rscale>
<asrwt>0</asrwt>
<pdfrwt beam="1">  1        1 0.44868965E-01 0.61408365E+03</pdfrwt>
<pdfrwt beam="2">  1       -1 0.21114806E+00 0.61408365E+03</pdfrwt>
<totfact> 0.12045975E+01</totfact>
</mgrwt>
</event>
<event>
12    1  0.3203156E-008  0.5125462E+03  0.7818608E-02  0.1010555E+00
          3   -1    0    0  501    0  0.00000000000E+00  0.00000000000E+00  0.18507331372E+04  0.18507331372E+04  0.00000000000E+00 0. -1.
         -3   -1    0    0    0  501 -0.00000000000E+00 -0.00000000000E+00 -0.21446859910E+03  0.21446859910E+03  0.00000000000E+00 0.  1.
         23    2    1    2    0    0  0.16946210944E+03  0.45046051108E+03  0.59079361380E+03  0.76749534917E+03  0.91542003010E+02 0.  0.
    5000000    2    1    2    0    0 -0.16946210944E+03 -0.45046051108E+03  0.10454709243E+04  0.12977063871E+04  0.59950007093E+03 0.  0.
         23    2    4    4    0    0 -0.80175617056E+02 -0.37736086672E+03  0.10773604527E+04  0.11481856341E+04  0.93783537176E+02 0.  0.
         23    2    4    4    0    0 -0.89286492379E+02 -0.73099644358E+02 -0.31889528450E+02  0.14952075305E+03  0.89576100838E+02 0.  0.
          5    1    3    3  502    0  0.32761529877E+02  0.19555196289E+03  0.20440019336E+03  0.28480768437E+03  0.47000000000E+01 0. -1.
         -5    1    3    3    0  502  0.13670057956E+03  0.25490854818E+03  0.38639342043E+03  0.48268766479E+03  0.47000000000E+01 0.  1.
         13    1    5    5    0    0 -0.93486807272E+02 -0.24726677053E+03  0.66626569981E+03  0.71679189566E+03  0.00000000000E+00 0.  1.
        -13    1    5    5    0    0  0.13311190216E+02 -0.13009409619E+03  0.41109475292E+03  0.43139373840E+03  0.00000000000E+00 0. -1.
          4    1    6    6  503    0  0.15864347836E+02 -0.34868470343E+01  0.68066900215E+01  0.17611549152E+02  0.00000000000E+00 0. -1.
         -4    1    6    6    0  503 -0.10515084021E+03 -0.69612797324E+02 -0.38696218471E+02  0.13190920390E+03  0.00000000000E+00 0.  1.
<mgrwt>
<rscale>  0 0.51254620E+03</rscale>
<asrwt>0</asrwt>
<pdfrwt beam="1">  1        3 0.28472816E+00 0.51254620E+03</pdfrwt>
<pdfrwt beam="2">  1       -3 0.32995170E-01 0.51254620E+03</pdfrwt>
<totfact> 0.11524645E+00</totfact>
</mgrwt>
</event>
<event>
12    1  0.3203156E-008  0.1334064E+04  0.7818608E-02  0.9002980E-01
          1   -1    0    0  501    0  0.00000000000E+00  0.00000000000E+00  0.19617835609E+04  0.19617835609E+04  0.00000000000E+00 0. -1.
         -1   -1    0    0    0  501 -0.00000000000E+00 -0.00000000000E+00 -0.18340158754E+04  0.18340158754E+04  0.00000000000E+00 0.  1.
         23    2    1    2    0    0  0.94241856956E+03 -0.86197271488E+03 -0.12743861177E+04  0.18064845955E+04  0.90426187573E+02 0.  0.
    5000000    2    1    2    0    0 -0.94241856956E+03  0.86197271488E+03  0.14021538033E+04  0.19893148408E+04  0.60015708474E+03 0.  0.
         23    2    4    4    0    0 -0.77713537536E+03  0.92056622467E+03  0.12572856304E+04  0.17435667863E+04  0.88749176220E+02 0.  0.
         23    2    4    4    0    0 -0.16528319420E+03 -0.58593509783E+02  0.14486817288E+03  0.24574805450E+03  0.93024647834E+02 0.  0.
          5    1    3    3  502    0  0.40078486218E+03 -0.42582171261E+03 -0.56835531079E+03  0.81547684577E+03  0.47000000000E+01 0. -1.
         -5    1    3    3    0  502  0.54163370738E+03 -0.43615100227E+03 -0.70603080690E+03  0.99100774974E+03  0.47000000000E+01 0.  1.
         11    1    5    5    0    0 -0.64844990713E+03  0.71604468816E+03  0.10218859653E+04  0.14062212498E+04  0.00000000000E+00 0.  1.
        -11    1    5    5    0    0 -0.12868546823E+03  0.20452153651E+03  0.23539966509E+03  0.33734553644E+03  0.00000000000E+00 0. -1.
          2    1    6    6  503    0 -0.26528215902E+02  0.60016181726E+01 -0.90699534299E+01  0.28671060581E+02  0.00000000000E+00 0. -1.
         -2    1    6    6    0  503 -0.13875497830E+03 -0.64595127956E+02  0.15393812631E+03  0.21707699392E+03  0.00000000000E+00 0.  1.
<mgrwt>
<rscale>  0 0.13340645E+04</rscale>
<asrwt>0</asrwt>
<pdfrwt beam="1">  1        1 0.30181286E+00 0.13340645E+04</pdfrwt>
<pdfrwt beam="2">  1       -1 0.28215629E+00 0.13340645E+04</pdfrwt>
<totfact> 0.13151732E-01</totfact>
</mgrwt>
</event>
<event>
12    1  0.3203156E-008  0.6931100E+03  0.7818608E-02  0.9729088E-01
         -4   -1    0    0    0  501 -0.00000000000E+00  0.00000000000E+00  0.14893579330E+04  0.14893579330E+04  0.00000000000E+00 0.  1.
          4   -1    0    0  501    0  0.00000000000E+00 -0.00000000000E+00 -0.37346717822E+03  0.37346717822E+03  0.00000000000E+00 0. -1.
         23    2    1    2    0    0 -0.54688108778E+03  0.26641400307E+03  0.63234401598E+03  0.88134906269E+03  0.82836408385E+02 0.  0.
    5000000    2    1    2    0    0  0.54688108778E+03 -0.26641400307E+03  0.48354673883E+03  0.98147604856E+03  0.59951850685E+03 0.  0.
         23    2    4    4    0    0  0.61078512462E+03 -0.30541706293E+03  0.51964196665E+03  0.86291305546E+03  0.90846667509E+02 0.  0.
         23    2    4    4    0    0 -0.63904036840E+02  0.39003059853E+02 -0.36095227828E+02  0.11856299310E+03  0.84553848272E+02 0.  0.
          5    1    3    3  502    0 -0.14724327507E+03  0.43741198248E+02  0.12419253365E+03  0.19758479165E+03  0.47000000000E+01 0. -1.
         -5    1    3    3    0  502 -0.39963781271E+03  0.22267280482E+03  0.50815148233E+03  0.68376427104E+03  0.47000000000E+01 0.  1.
         11    1    5    5    0    0  0.19820507538E+03 -0.68629428543E+02  0.19983316879E+03  0.28970423835E+03  0.00000000000E+00 0.  1.
        -11    1    5    5    0    0  0.41258004924E+03 -0.23678763438E+03  0.31980879787E+03  0.57320881712E+03  0.00000000000E+00 0. -1.
          4    1    6    6  503    0 -0.53789767863E+02  0.48994205304E+01 -0.55997981733E+02  0.77801782797E+02  0.00000000000E+00 0. -1.
         -4    1    6    6    0  503 -0.10114268977E+02  0.34103639323E+02  0.19902753905E+02  0.40761210299E+02  0.00000000000E+00 0.  1.
<mgrwt>
<rscale>  0 0.69311004E+03</rscale>
<asrwt>0</asrwt>
<pdfrwt beam="1">  1        4 0.57456490E-01 0.69311004E+03</pdfrwt>
<pdfrwt beam="2">  1       -4 0.22913199E+00 0.69311004E+03</pdfrwt>
<totfact> 0.48776387E-01</totfact>
</mgrwt>
</event>
<event>
12    1  0.3203156E-008  0.1188150E+04  0.7818608E-02  0.9123293E-01
          2   -1    0    0  501    0  0.00000000000E+00  0.00000000000E+00  0.19221542789E+04  0.19221542789E+04  0.00000000000E+00 0.  1.
         -2   -1    0    0    0  501 -0.00000000000E+00 -0.00000000000E+00 -0.74999659478E+03  0.74999659478E+03  0.00000000000E+00 0. -1.
         23    2    1    2    0    0  0.82173437854E+03 -0.75841257843E+03  0.67385475252E+03  0.13088068595E+04  0.91968145811E+02 0.  0.
    5000000    2    1    2    0    0 -0.82173437854E+03  0.75841257843E+03  0.49830293159E+03  0.13633440142E+04  0.59997005049E+03 0.  0.
         23    2    4    4    0    0 -0.39728281576E+03  0.20290391311E+02  0.21582216709E+03  0.46165895302E+03  0.91128729915E+02 0.  0.
         23    2    4    4    0    0 -0.42445156278E+03  0.73812218712E+03  0.28248076450E+03  0.90168506121E+03  0.90868449008E+02 0.  0.
          5    1    3    3  502    0  0.41540465599E+03 -0.32542355195E+03  0.29791093041E+03  0.60599878617E+03  0.47000000000E+01 0. -1.
         -5    1    3    3    0  502  0.40632972255E+03 -0.43298902648E+03  0.37594382212E+03  0.70280807328E+03  0.47000000000E+01 0.  1.
         11    1    5    5    0    0 -0.10244536993E+03 -0.86309678983E+01  0.15341435548E+02  0.10394665493E+03  0.00000000000E+00 0. -1.
        -11    1    5    5    0    0 -0.29483744584E+03  0.28921359209E+02  0.20048073154E+03  0.35771229809E+03  0.00000000000E+00 0.  1.
          1    1    6    6  503    0 -0.31515020182E+03  0.46698457760E+03  0.17021062779E+03  0.58852859169E+03  0.00000000000E+00 0. -1.
         -1    1    6    6    0  503 -0.10930136097E+03  0.27113760952E+03  0.11227013671E+03  0.31315646952E+03  0.00000000000E+00 0.  1.
<mgrwt>
<rscale>  0 0.11881496E+04</rscale>
<asrwt>0</asrwt>
<pdfrwt beam="1">  1        2 0.29571604E+00 0.11881496E+04</pdfrwt>
<pdfrwt beam="2">  1       -2 0.11538409E+00 0.11881496E+04</pdfrwt>
<totfact> 0.42205753E+00</totfact>
</mgrwt>
</event>
<event>
12    1  0.3283908E-008  0.1710490E+04  0.7818608E-02  0.8755404E-01
          1   -1    0    0  501    0  0.00000000000E+00  0.00000000000E+00  0.19186312297E+04  0.19186312297E+04  0.00000000000E+00 0. -1.
         -1   -1    0    0    0  501 -0.00000000000E+00 -0.00000000000E+00 -0.16299009741E+04  0.16299009741E+04  0.00000000000E+00 0.  1.
         23    2    1    2    0    0 -0.78564371972E+03 -0.14781196208E+04 -0.23991695891E+03  0.16934240723E+04  0.89728890955E+02 0.  0.
    5000000    2    1    2    0    0  0.78564371972E+03  0.14781196208E+04  0.52864721446E+03  0.18551081314E+04  0.59990385407E+03 0.  0.
         23    2    4    4    0    0  0.82625424442E+03  0.13415964134E+04  0.56941758857E+03  0.16779463360E+04  0.93222870553E+02 0.  0.
         23    2    4    4    0    0 -0.40610524701E+02  0.13652320744E+03 -0.40770374111E+02  0.17716179540E+03  0.97140503691E+02 0.  0.
          5    1    3    3  502    0 -0.22252967103E+03 -0.42315094939E+03 -0.10929520733E+03  0.49045255917E+03  0.47000000000E+01 0. -1.
         -5    1    3    3    0  502 -0.56311404869E+03 -0.10549686714E+04 -0.13062175157E+03  0.12029715132E+04  0.47000000000E+01 0.  1.
         13    1    5    5    0    0  0.52308074343E+03  0.80051007253E+03  0.30520866331E+03  0.10037839252E+04  0.00000000000E+00 0.  1.
        -13    1    5    5    0    0  0.30317350098E+03  0.54108634083E+03  0.26420892526E+03  0.67416241079E+03  0.00000000000E+00 0. -1.
          3    1    6    6  503    0  0.10058108055E+01 -0.14154651687E+02 -0.11182469690E+02  0.18066915844E+02  0.00000000000E+00 0. -1.
         -3    1    6    6    0  503 -0.41616335506E+02  0.15067785913E+03 -0.29587904421E+02  0.15909487955E+03  0.00000000000E+00 0.  1.
<mgrwt>
<rscale>  0 0.17104895E+04</rscale>
<asrwt>0</asrwt>
<pdfrwt beam="1">  1        1 0.29517403E+00 0.17104895E+04</pdfrwt>
<pdfrwt beam="2">  1       -1 0.25075400E+00 0.17104895E+04</pdfrwt>
<totfact> 0.21505569E-01</totfact>
</mgrwt>
</event>
<event>
12    1  0.3203156E-008  0.7323457E+03  0.7818608E-02  0.9663462E-01
         -2   -1    0    0    0  501 -0.00000000000E+00  0.00000000000E+00  0.27157653581E+03  0.27157653581E+03  0.00000000000E+00 0.  1.
          2   -1    0    0  501    0  0.00000000000E+00 -0.00000000000E+00 -0.29368110165E+04  0.29368110165E+04  0.00000000000E+00 0. -1.
         23    2    1    2    0    0 -0.17927741769E+03  0.62944570993E+03 -0.19785332900E+04  0.20859350249E+04  0.90491183288E+02 0.  0.
    5000000    2    1    2    0    0  0.17927741769E+03 -0.62944570993E+03 -0.68670119068E+03  0.11224525274E+04  0.59999904729E+03 0.  0.
         23    2    4    4    0    0  0.32330292625E+03 -0.55116937118E+03 -0.67792506990E+03  0.93624776864E+03  0.93086121594E+02 0.  0.
         23    2    4    4    0    0 -0.14402550856E+03 -0.78276338747E+02 -0.87761207770E+01  0.18620475876E+03  0.87890042465E+02 0.  0.
          5    1    3    3  502    0 -0.13739449571E+03  0.53255224904E+03 -0.15544360292E+04  0.16488731316E+04  0.47000000000E+01 0. -1.
         -5    1    3    3    0  502 -0.41882921976E+02  0.96893460891E+02 -0.42409726085E+03  0.43706189330E+03  0.47000000000E+01 0.  1.
         11    1    5    5    0    0  0.18403674295E+02 -0.92239134096E+02 -0.83981697250E+02  0.12609392753E+03  0.00000000000E+00 0.  1.
        -11    1    5    5    0    0  0.30489925195E+03 -0.45893023709E+03 -0.59394337265E+03  0.81015384111E+03  0.00000000000E+00 0. -1.
          3    1    6    6  503    0 -0.11200169975E+03 -0.58795398373E+02  0.32342215652E+02  0.13056530370E+03  0.00000000000E+00 0. -1.
         -3    1    6    6    0  503 -0.32023808812E+02 -0.19480940374E+02 -0.41118336430E+02  0.55639455061E+02  0.00000000000E+00 0.  1.
<mgrwt>
<rscale>  0 0.73234572E+03</rscale>
<asrwt>0</asrwt>
<pdfrwt beam="1">  1        2 0.45181707E+00 0.73234572E+03</pdfrwt>
<pdfrwt beam="2">  1       -2 0.41781006E-01 0.73234572E+03</pdfrwt>
<totfact> 0.11012811E+01</totfact>
</mgrwt>
</event>
<event>
12    1  0.3203156E-008  0.9897296E+03  0.7818608E-02  0.9319881E-01
         -2   -1    0    0    0  501 -0.00000000000E+00  0.00000000000E+00  0.17740149892E+04  0.17740149892E+04  0.00000000000E+00 0.  1.
          2   -1    0    0  501    0  0.00000000000E+00 -0.00000000000E+00 -0.69800157838E+03  0.69800157838E+03  0.00000000000E+00 0. -1.
         23    2    1    2    0    0  0.57506361669E+03 -0.79683101813E+03  0.84190835237E+03  0.12970897731E+04  0.89411245804E+02 0.  0.
    5000000    2    1    2    0    0 -0.57506361669E+03  0.79683101813E+03  0.23410505846E+03  0.11749267945E+04  0.60000829946E+03 0.  0.
         23    2    4    4    0    0 -0.45431828923E+03  0.70100382850E+03 -0.47001468972E+02  0.84159289888E+03  0.90873504696E+02 0.  0.
         23    2    4    4    0    0 -0.12074532746E+03  0.95827189628E+02  0.28110652744E+03  0.33333389566E+03  0.91259639766E+02 0.  0.
          5    1    3    3  502    0  0.28737902507E+03 -0.32875124804E+03  0.35017462028E+03  0.55973961967E+03  0.47000000000E+01 0. -1.
         -5    1    3    3    0  502  0.28768459162E+03 -0.46807977009E+03  0.49173373208E+03  0.73735015338E+03  0.47000000000E+01 0.  1.
         13    1    5    5    0    0 -0.17100213628E+03  0.33604974353E+03 -0.43555676684E+02  0.37956324599E+03  0.00000000000E+00 0. -1.
        -13    1    5    5    0    0 -0.28331615295E+03  0.36495408497E+03 -0.34457922875E+01  0.46202965288E+03  0.00000000000E+00 0.  1.
          2    1    6    6  503    0 -0.70456550750E+02  0.52051885169E+02  0.70557170551E+02  0.11248039211E+03  0.00000000000E+00 0. -1.
         -2    1    6    6    0  503 -0.50288776715E+02  0.43775304459E+02  0.21054935688E+03  0.22085350355E+03  0.00000000000E+00 0.  1.
<mgrwt>
<rscale>  0 0.98972962E+03</rscale>
<asrwt>0</asrwt>
<pdfrwt beam="1">  1        2 0.10738486E+00 0.98972962E+03</pdfrwt>
<pdfrwt beam="2">  1       -2 0.27292538E+00 0.98972962E+03</pdfrwt>
<totfact> 0.19174135E+00</totfact>
</mgrwt>
</event>
<event>
12    1  0.3203156E-008  0.1015698E+04  0.7818608E-02  0.9291494E-01
         -2   -1    0    0    0  501 -0.00000000000E+00  0.00000000000E+00  0.80644561539E+03  0.80644561539E+03  0.00000000000E+00 0.  1.
          2   -1    0    0  501    0  0.00000000000E+00 -0.00000000000E+00 -0.16237014854E+04  0.16237014854E+04  0.00000000000E+00 0. -1.
         23    2    1    2    0    0  0.85387150255E+03 -0.40517490111E+03 -0.90172905523E+03  0.13074586286E+04  0.55403367115E+02 0.  0.
    5000000    2    1    2    0    0 -0.85387150255E+03  0.40517490111E+03  0.84473185264E+02  0.11226884721E+04  0.60002536871E+03 0.  0.
         23    2    4    4    0    0 -0.80623915979E+03  0.51817375903E+03  0.12353015779E+03  0.97078397723E+03  0.92931174729E+02 0.  0.
         23    2    4    4    0    0 -0.47632342762E+02 -0.11299885792E+03 -0.39056972531E+02  0.15190449491E+03  0.80696632545E+02 0.  0.
          5    1    3    3  502    0  0.71182494031E+02 -0.49846038416E+02 -0.76537842186E+02  0.11589523842E+03  0.47000000000E+01 0. -1.
         -5    1    3    3    0  502  0.78268900852E+03 -0.35532886270E+03 -0.82519121304E+03  0.11915633902E+04  0.47000000000E+01 0.  1.
         11    1    5    5    0    0 -0.48513941853E+03  0.30423069157E+03  0.11919775940E+03  0.58491424581E+03  0.00000000000E+00 0. -1.
        -11    1    5    5    0    0 -0.32109974126E+03  0.21394306746E+03  0.43323983959E+01  0.38586973142E+03  0.00000000000E+00 0.  1.
          1    1    6    6  503    0 -0.29963028919E+02 -0.99923141754E+02  0.30957078931E+01  0.10436474868E+03  0.00000000000E+00 0. -1.
         -1    1    6    6    0  503 -0.17669313843E+02 -0.13075716162E+02 -0.42152680424E+02  0.47539746231E+02  0.00000000000E+00 0.  1.
<mgrwt>
<rscale>  0 0.10156976E+04</rscale>
<asrwt>0</asrwt>
<pdfrwt beam="1">  1        2 0.24980023E+00 0.10156976E+04</pdfrwt>
<pdfrwt beam="2">  1       -2 0.12406856E+00 0.10156976E+04</pdfrwt>
<totfact> 0.52473857E+00</totfact>
</mgrwt>
</event>
<event>
12    1  0.3203156E-008  0.6413775E+03  0.7818608E-02  0.9823095E-01
         -2   -1    0    0    0  501 -0.00000000000E+00  0.00000000000E+00  0.18497190397E+03  0.18497190397E+03  0.00000000000E+00 0.  1.
          2   -1    0    0  501    0  0.00000000000E+00 -0.00000000000E+00 -0.34032996707E+04  0.34032996707E+04  0.00000000000E+00 0. -1.
         23    2    1    2    0    0 -0.18506473950E+03 -0.47418833390E+03 -0.37688999035E+03  0.63989886844E+03  0.91219313681E+02 0.  0.
    5000000    2    1    2    0    0  0.18506473950E+03  0.47418833390E+03 -0.28414377764E+04  0.29483727062E+04  0.60002453611E+03 0.  0.
         23    2    4    4    0    0 -0.20553793080E+03  0.14427093402E+03 -0.10255081776E+04  0.10596088619E+04  0.89688206904E+02 0.  0.
         23    2    4    4    0    0  0.39060267030E+03  0.32991739988E+03 -0.18159295987E+04  0.18887638443E+04  0.91720309440E+02 0.  0.
          5    1    3    3  502    0 -0.76966351186E+02 -0.11445318434E+03 -0.13529272532E+03  0.19326034810E+03  0.47000000000E+01 0. -1.
         -5    1    3    3    0  502 -0.10809838831E+03 -0.35973514956E+03 -0.24159726502E+03  0.44663852034E+03  0.47000000000E+01 0.  1.
         11    1    5    5    0    0 -0.15299939484E+03  0.13409337001E+03 -0.90763167785E+03  0.93015327196E+03  0.00000000000E+00 0. -1.
        -11    1    5    5    0    0 -0.52538535955E+02  0.10177564014E+02 -0.11787649979E+03  0.12945558996E+03  0.00000000000E+00 0.  1.
          3    1    6    6  503    0  0.38831659504E+03  0.32380294416E+03 -0.18118321647E+04  0.18810565961E+04  0.00000000000E+00 0. -1.
         -3    1    6    6    0  503  0.22860752528E+01  0.61144557244E+01 -0.40974339704E+01  0.77072481476E+01  0.00000000000E+00 0.  1.
<mgrwt>
<rscale>  0 0.64137750E+03</rscale>
<asrwt>0</asrwt>
<pdfrwt beam="1">  1        2 0.52358453E+00 0.64137750E+03</pdfrwt>
<pdfrwt beam="2">  1       -2 0.28457218E-01 0.64137750E+03</pdfrwt>
<totfact> 0.11791848E+01</totfact>
</mgrwt>
</event>
<event>
12    1  0.3203156E-008  0.1166767E+04  0.7818608E-02  0.9142453E-01
          1   -1    0    0  501    0  0.00000000000E+00  0.00000000000E+00  0.11768071021E+04  0.11768071021E+04  0.00000000000E+00 0. -1.
         -1   -1    0    0    0  501 -0.00000000000E+00 -0.00000000000E+00 -0.21982006092E+04  0.21982006092E+04  0.00000000000E+00 0.  1.
         23    2    1    2    0    0  0.51063392531E+03  0.99204257952E+03 -0.16236878669E+04  0.19723049135E+04  0.93428568619E+02 0.  0.
    5000000    2    1    2    0    0 -0.51063392531E+03 -0.99204257952E+03  0.60229435982E+03  0.14027027979E+04  0.59993429476E+03 0.  0.
         23    2    4    4    0    0  0.26442327394E+02 -0.12376069178E+02  0.17957208080E+03  0.20443405358E+03  0.93245837958E+02 0.  0.
         23    2    4    4    0    0 -0.53707625270E+03 -0.97966651034E+03  0.42272227902E+03  0.11982687443E+04  0.94638711204E+02 0.  0.
          5    1    3    3  502    0  0.38012346043E+03  0.81524092956E+03 -0.13235985537E+04  0.16003271040E+04  0.47000000000E+01 0. -1.
         -5    1    3    3    0  502  0.13051046488E+03  0.17680164996E+03 -0.30008931318E+03  0.37197780949E+03  0.47000000000E+01 0.  1.
         13    1    5    5    0    0  0.19302480210E+02 -0.52418256148E+02  0.11919433209E+03  0.13163414497E+03  0.00000000000E+00 0.  1.
        -13    1    5    5    0    0  0.71398471846E+01  0.40042186970E+02  0.60377748708E+02  0.72799908614E+02  0.00000000000E+00 0. -1.
          1    1    6    6  503    0 -0.26536669086E+03 -0.45107448879E+03  0.15047953763E+03  0.54454730400E+03  0.00000000000E+00 0. -1.
         -1    1    6    6    0  503 -0.27170956184E+03 -0.52859202155E+03  0.27224274140E+03  0.65372144029E+03  0.00000000000E+00 0.  1.
<mgrwt>
<rscale>  0 0.11667675E+04</rscale>
<asrwt>0</asrwt>
<pdfrwt beam="1">  1        1 0.18104725E+00 0.11667675E+04</pdfrwt>
<pdfrwt beam="2">  1       -1 0.33818471E+00 0.11667675E+04</pdfrwt>
<totfact> 0.20510922E-01</totfact>
</mgrwt>
</event>
<event>
12    1  0.3203156E-008  0.5134095E+03  0.7818608E-02  0.1010337E+00
          2   -1    0    0  501    0  0.00000000000E+00  0.00000000000E+00  0.42952736106E+03  0.42952736106E+03  0.00000000000E+00 0. -1.
         -2   -1    0    0    0  501 -0.00000000000E+00 -0.00000000000E+00 -0.66799092656E+03  0.66799092656E+03  0.00000000000E+00 0.  1.
         23    2    1    2    0    0 -0.33531119670E+03  0.12891308180E+03 -0.66444262481E+02  0.37722284807E+03  0.93968376611E+02 0.  0.
    5000000    2    1    2    0    0  0.33531119670E+03 -0.12891308180E+03 -0.17201930302E+03  0.72029543954E+03  0.60015222929E+03 0.  0.
         23    2    4    4    0    0  0.32759168270E+03  0.15477331590E+03 -0.19570824064E+03  0.42124868783E+03  0.88756135862E+02 0.  0.
         23    2    4    4    0    0  0.77195139987E+01 -0.28368639770E+03  0.23688937616E+02  0.29904675171E+03  0.91270098112E+02 0.  0.
          5    1    3    3  502    0 -0.27564796276E+03  0.10418012037E+03 -0.90255953935E+02  0.30822641690E+03  0.47000000000E+01 0. -1.
         -5    1    3    3    0  502 -0.59663233938E+02  0.24732961423E+02  0.23811691454E+02  0.68996431173E+02  0.47000000000E+01 0.  1.
         13    1    5    5    0    0  0.10136073176E+03  0.86552437380E+02 -0.98537211295E+02  0.16575555607E+03  0.00000000000E+00 0. -1.
        -13    1    5    5    0    0  0.22623095094E+03  0.68220878524E+02 -0.97171029341E+02  0.25549313175E+03  0.00000000000E+00 0.  1.
          4    1    6    6  503    0  0.45105478049E+02 -0.21381976082E+03  0.23693729263E+02  0.21980624894E+03  0.00000000000E+00 0. -1.
         -4    1    6    6    0  503 -0.37385964050E+02 -0.69866636879E+02 -0.47916466432E-02  0.79240502773E+02  0.00000000000E+00 0.  1.
<mgrwt>
<rscale>  0 0.51340952E+03</rscale>
<asrwt>0</asrwt>
<pdfrwt beam="1">  1        2 0.66081133E-01 0.51340952E+03</pdfrwt>
<pdfrwt beam="2">  1       -2 0.10276783E+00 0.51340952E+03</pdfrwt>
<totfact> 0.58396852E+01</totfact>
</mgrwt>
</event>
<event>
12    1  0.3203156E-008  0.4182775E+03  0.7818608E-02  0.1037628E+00
         -2   -1    0    0    0  501 -0.00000000000E+00  0.00000000000E+00  0.77630376242E+03  0.77630376242E+03  0.00000000000E+00 0.  1.
          2   -1    0    0  501    0  0.00000000000E+00 -0.00000000000E+00 -0.33090152491E+03  0.33090152491E+03  0.00000000000E+00 0. -1.
         23    2    1    2    0    0 -0.10098825388E+03  0.30122258223E+03  0.98542783754E+02  0.34474014268E+03  0.90561660059E+02 0.  0.
    5000000    2    1    2    0    0  0.10098825388E+03 -0.30122258223E+03  0.34685945376E+03  0.76246514465E+03  0.60008994715E+03 0.  0.
         23    2    4    4    0    0  0.80924033812E+02  0.63214204435E+02  0.36081916971E+03  0.38636253257E+03  0.92416440393E+02 0.  0.
         23    2    4    4    0    0  0.20064220068E+02 -0.36443678667E+03 -0.13959715952E+02  0.37610261208E+03  0.89674727410E+02 0.  0.
          5    1    3    3  502    0 -0.98632048129E+01  0.12742866384E+03  0.68245782982E+01  0.12807814820E+03  0.47000000000E+01 0. -1.
         -5    1    3    3    0  502 -0.91125049067E+02  0.17379391839E+03  0.91718205455E+02  0.21666199447E+03  0.47000000000E+01 0.  1.
         13    1    5    5    0    0  0.94356022146E+02  0.73538162859E+02  0.33246827538E+03  0.35333563993E+03  0.00000000000E+00 0. -1.
        -13    1    5    5    0    0 -0.13431988335E+02 -0.10323958424E+02  0.28350894328E+02  0.33026892639E+02  0.00000000000E+00 0.  1.
          3    1    6    6  503    0  0.49059511610E+02 -0.11990226525E+03 -0.75844555953E+01  0.12977254277E+03  0.00000000000E+00 0. -1.
         -3    1    6    6    0  503 -0.28995291542E+02 -0.24453452142E+03 -0.63752603570E+01  0.24633006930E+03  0.00000000000E+00 0.  1.
<mgrwt>
<rscale>  0 0.41827748E+03</rscale>
<asrwt>0</asrwt>
<pdfrwt beam="1">  1        2 0.50907927E-01 0.41827748E+03</pdfrwt>
<pdfrwt beam="2">  1       -2 0.11943135E+00 0.41827748E+03</pdfrwt>
<totfact> 0.54787135E+01</totfact>
</mgrwt>
</event>
<event>
12    1  0.3203156E-008  0.5225574E+03  0.7818608E-02  0.1008053E+00
          1   -1    0    0  501    0  0.00000000000E+00  0.00000000000E+00  0.26105239245E+03  0.26105239245E+03  0.00000000000E+00 0.  1.
         -1   -1    0    0    0  501 -0.00000000000E+00 -0.00000000000E+00 -0.14431741228E+04  0.14431741228E+04  0.00000000000E+00 0. -1.
         23    2    1    2    0    0 -0.35181010193E+02 -0.37663981736E+03 -0.82057494206E+03  0.90808785747E+03  0.90471353755E+02 0.  0.
    5000000    2    1    2    0    0  0.35181010193E+02  0.37663981736E+03 -0.36154678831E+03  0.79613865780E+03  0.60002118862E+03 0.  0.
         23    2    4    4    0    0 -0.24619433993E+03  0.16511486773E+03 -0.29145300392E+03  0.42581198072E+03  0.92176010305E+02 0.  0.
         23    2    4    4    0    0  0.28137535012E+03  0.21152494964E+03 -0.70093784399E+02  0.37032667708E+03  0.91180135811E+02 0.  0.
          5    1    3    3  502    0  0.49748884965E+01 -0.99876420548E+02 -0.31207361324E+03  0.32773782049E+03  0.47000000000E+01 0. -1.
         -5    1    3    3    0  502 -0.40155898689E+02 -0.27676339682E+03 -0.50850132881E+03  0.58035003698E+03  0.47000000000E+01 0.  1.
         13    1    5    5    0    0 -0.48341149405E+02  0.67625663927E+02 -0.12218046270E+03  0.14777740901E+03  0.00000000000E+00 0.  1.
        -13    1    5    5    0    0 -0.19785319053E+03  0.97489203799E+02 -0.16927254122E+03  0.27803457172E+03  0.00000000000E+00 0. -1.
          1    1    6    6  503    0  0.87282317116E+02  0.21305640324E+02 -0.34503179983E+02  0.96242415908E+02  0.00000000000E+00 0. -1.
         -1    1    6    6    0  503  0.19409303301E+03  0.19021930931E+03 -0.35590604416E+02  0.27408426117E+03  0.00000000000E+00 0.  1.
<mgrwt>
<rscale>  0 0.52255736E+03</rscale>
<asrwt>0</asrwt>
<pdfrwt beam="1">  1        1 0.40161905E-01 0.52255736E+03</pdfrwt>
<pdfrwt beam="2">  1       -1 0.22202679E+00 0.52255736E+03</pdfrwt>
<totfact> 0.11933325E+01</totfact>
</mgrwt>
</event>
<event>
12    1  0.3203156E-008  0.1300296E+04  0.7818608E-02  0.9029331E-01
          2   -1    0    0  501    0  0.00000000000E+00  0.00000000000E+00  0.27848128233E+04  0.27848128233E+04  0.00000000000E+00 0.  1.
         -2   -1    0    0    0  501 -0.00000000000E+00 -0.00000000000E+00 -0.65951826807E+03  0.65951826807E+03  0.00000000000E+00 0. -1.
         23    2    1    2    0    0  0.12456946031E+04 -0.31350953612E+03  0.90859901718E+03  0.15760724414E+04  0.91700017596E+02 0.  0.
    5000000    2    1    2    0    0 -0.12456946031E+04  0.31350953612E+03  0.12166955380E+04  0.18682586499E+04  0.59999923104E+03 0.  0.
         23    2    4    4    0    0 -0.23607568947E+03  0.13656983799E+03  0.60869675447E+03  0.67295582947E+03  0.89301498862E+02 0.  0.
         23    2    4    4    0    0 -0.10096189136E+04  0.17693969813E+03  0.60799878356E+03  0.11953028204E+04  0.91914657224E+02 0.  0.
          5    1    3    3  502    0  0.52577454428E+03 -0.14321537020E+03  0.43935723014E+03  0.70000455667E+03  0.47000000000E+01 0. -1.
         -5    1    3    3    0  502  0.71992005882E+03 -0.17029416592E+03  0.46924178704E+03  0.87606788478E+03  0.47000000000E+01 0.  1.
         13    1    5    5    0    0 -0.94980348084E+02  0.10620049255E+03  0.31418432956E+03  0.34498058508E+03  0.00000000000E+00 0.  1.
        -13    1    5    5    0    0 -0.14109534139E+03  0.30369345444E+02  0.29451242491E+03  0.32797524439E+03  0.00000000000E+00 0. -1.
          1    1    6    6  503    0 -0.75125019629E+02 -0.10714578121E+02  0.48894394686E+02  0.90273100037E+02  0.00000000000E+00 0. -1.
         -1    1    6    6    0  503 -0.93449389400E+03  0.18765427625E+03  0.55910438888E+03  0.11050297204E+04  0.00000000000E+00 0.  1.
<mgrwt>
<rscale>  0 0.13002957E+04</rscale>
<asrwt>0</asrwt>
<pdfrwt beam="1">  1        2 0.42843274E+00 0.13002957E+04</pdfrwt>
<pdfrwt beam="2">  1       -2 0.10146435E+00 0.13002957E+04</pdfrwt>
<totfact> 0.18377137E+00</totfact>
</mgrwt>
</event>
<event>
12    1  0.3203156E-008  0.1278584E+04  0.7818608E-02  0.9046723E-01
          2   -1    0    0  501    0  0.00000000000E+00  0.00000000000E+00  0.20120821056E+04  0.20120821056E+04  0.00000000000E+00 0. -1.
         -2   -1    0    0    0  501 -0.00000000000E+00 -0.00000000000E+00 -0.91503525895E+03  0.91503525895E+03  0.00000000000E+00 0.  1.
         23    2    1    2    0    0  0.10902385293E+04 -0.66015133451E+03  0.72882526052E+03  0.14711039799E+04  0.92416579025E+02 0.  0.
    5000000    2    1    2    0    0 -0.10902385293E+04  0.66015133451E+03  0.36822158613E+03  0.14560133847E+04  0.59997333654E+03 0.  0.
         23    2    4    4    0    0 -0.40976177136E+03  0.27760226432E+03  0.43567387180E+03  0.66611509915E+03  0.94498022862E+02 0.  0.
         23    2    4    4    0    0 -0.68047675794E+03  0.38254907020E+03 -0.67452285668E+02  0.78989828550E+03  0.99985405901E+02 0.  0.
          5    1    3    3  502    0  0.84384973753E+03 -0.54881616126E+03  0.55259451360E+03  0.11483311129E+04  0.47000000000E+01 0. -1.
         -5    1    3    3    0  502  0.24638879177E+03 -0.11133517326E+03  0.17623074692E+03  0.32277286701E+03  0.47000000000E+01 0.  1.
         11    1    5    5    0    0 -0.20009914123E+03  0.17169743850E+03  0.27835711989E+03  0.38340887170E+03  0.00000000000E+00 0.  1.
        -11    1    5    5    0    0 -0.20966263013E+03  0.10590482582E+03  0.15731675191E+03  0.28270622745E+03  0.00000000000E+00 0. -1.
          1    1    6    6  503    0 -0.12409502334E+03  0.87024057246E+02  0.23471486334E+02  0.15337428737E+03  0.00000000000E+00 0. -1.
         -1    1    6    6    0  503 -0.55638173460E+03  0.29552501295E+03 -0.90923772002E+02  0.63652399813E+03  0.00000000000E+00 0.  1.
<mgrwt>
<rscale>  0 0.12785842E+04</rscale>
<asrwt>0</asrwt>
<pdfrwt beam="1">  1        2 0.30955109E+00 0.12785842E+04</pdfrwt>
<pdfrwt beam="2">  1       -2 0.14077466E+00 0.12785842E+04</pdfrwt>
<totfact> 0.22498813E+00</totfact>
</mgrwt>
</event>
<event>
12    1  0.3203156E-008  0.5726012E+03  0.7818608E-02  0.9963939E-01
         -1   -1    0    0    0  501 -0.00000000000E+00  0.00000000000E+00  0.69686942914E+03  0.69686942914E+03  0.00000000000E+00 0. -1.
          1   -1    0    0  501    0  0.00000000000E+00 -0.00000000000E+00 -0.86837558111E+03  0.86837558111E+03  0.00000000000E+00 0.  1.
         23    2    1    2    0    0 -0.45726609276E+03 -0.22053630674E+03 -0.49611910128E+03  0.71490667659E+03  0.85022652299E+02 0.  0.
    5000000    2    1    2    0    0  0.45726609276E+03  0.22053630674E+03  0.32461294931E+03  0.85033833365E+03  0.59997764346E+03 0.  0.
         23    2    4    4    0    0  0.15767184279E+03 -0.90227752148E+02  0.35344993678E+03  0.40767083748E+03  0.90924125815E+02 0.  0.
         23    2    4    4    0    0  0.29959424997E+03  0.31076405889E+03 -0.28836987478E+02  0.44266749617E+03  0.93765267594E+02 0.  0.
          5    1    3    3  502    0 -0.29720308753E+03 -0.11937356860E+03 -0.26239114146E+03  0.41406632951E+03  0.47000000000E+01 0. -1.
         -5    1    3    3    0  502 -0.16006300523E+03 -0.10116273814E+03 -0.23372795982E+03  0.30084034708E+03  0.47000000000E+01 0.  1.
         11    1    5    5    0    0  0.12384014909E+03 -0.33163097886E+02  0.28416790077E+03  0.31174920917E+03  0.00000000000E+00 0.  1.
        -11    1    5    5    0    0  0.33831693697E+02 -0.57064654262E+02  0.69282036014E+02  0.95921628316E+02  0.00000000000E+00 0. -1.
          1    1    6    6  503    0  0.15332262792E+03  0.95353420059E+02 -0.24859251845E+02  0.18225829296E+03  0.00000000000E+00 0. -1.
         -1    1    6    6    0  503  0.14627162205E+03  0.21541063883E+03 -0.39777356333E+01  0.26040920322E+03  0.00000000000E+00 0.  1.
<mgrwt>
<rscale>  0 0.57260118E+03</rscale>
<asrwt>0</asrwt>
<pdfrwt beam="1">  1        1 0.13359624E+00 0.57260118E+03</pdfrwt>
<pdfrwt beam="2">  1       -1 0.10721068E+00 0.57260118E+03</pdfrwt>
<totfact> 0.16536020E+01</totfact>
</mgrwt>
</event>
<event>
12    1  0.3203156E-008  0.3406503E+03  0.7818608E-02  0.1066519E+00
         -1   -1    0    0    0  501 -0.00000000000E+00  0.00000000000E+00  0.24120319339E+03  0.24120319339E+03  0.00000000000E+00 0.  1.
          1   -1    0    0  501    0  0.00000000000E+00 -0.00000000000E+00 -0.77205777274E+03  0.77205777274E+03  0.00000000000E+00 0. -1.
         23    2    1    2    0    0 -0.92816572996E+02 -0.15037378944E+03 -0.73810912150E+01  0.19766819208E+03  0.88266873070E+02 0.  0.
    5000000    2    1    2    0    0  0.92816572996E+02  0.15037378944E+03 -0.52347348813E+03  0.81559277405E+03  0.59994990419E+03 0.  0.
         23    2    4    4    0    0  0.16334185594E+03 -0.11800203234E+03 -0.11086107638E+02  0.22558268596E+03  0.10079486535E+03 0.  0.
         23    2    4    4    0    0 -0.70525282945E+02  0.26837582178E+03 -0.51238738049E+03  0.59001008810E+03  0.92583363065E+02 0.  0.
          5    1    3    3  502    0 -0.37539040257E+02 -0.37421264628E+02 -0.41273100557E+02  0.67343072541E+02  0.47000000000E+01 0. -1.
         -5    1    3    3    0  502 -0.55277532739E+02 -0.11295252481E+03  0.33892009342E+02  0.13032511954E+03  0.47000000000E+01 0.  1.
         13    1    5    5    0    0  0.13860692072E+03 -0.67186172827E+02 -0.43984196955E+02  0.16018885690E+03  0.00000000000E+00 0.  1.
        -13    1    5    5    0    0  0.24734935218E+02 -0.50815859515E+02  0.32898089317E+02  0.65393829061E+02  0.00000000000E+00 0. -1.
          1    1    6    6  503    0 -0.60708540379E+02  0.68294389646E+02 -0.18161875260E+03  0.20331016165E+03  0.00000000000E+00 0. -1.
         -1    1    6    6    0  503 -0.98167425660E+01  0.20008143213E+03 -0.33076862789E+03  0.38669992645E+03  0.00000000000E+00 0.  1.
<mgrwt>
<rscale>  0 0.34065033E+03</rscale>
<asrwt>0</asrwt>
<pdfrwt beam="1">  1        1 0.11877812E+00 0.34065033E+03</pdfrwt>
<pdfrwt beam="2">  1       -1 0.37108184E-01 0.34065033E+03</pdfrwt>
<totfact> 0.17186753E+02</totfact>
</mgrwt>
</event>
<event>
12    1  0.3203156E-008  0.1289613E+04  0.7818608E-02  0.9037843E-01
         -1   -1    0    0    0  501 -0.00000000000E+00  0.00000000000E+00  0.14019587997E+04  0.14019587997E+04  0.00000000000E+00 0.  1.
          1   -1    0    0  501    0  0.00000000000E+00 -0.00000000000E+00 -0.13177695194E+04  0.13177695194E+04  0.00000000000E+00 0. -1.
         23    2    1    2    0    0  0.11504051666E+04 -0.52582956750E+03  0.30124482942E+03  0.13031158676E+04  0.86219115211E+02 0.  0.
    5000000    2    1    2    0    0 -0.11504051666E+04  0.52582956750E+03 -0.21705554914E+03  0.14166124515E+04  0.59979075101E+03 0.  0.
         23    2    4    4    0    0 -0.46078808731E+03  0.39690505502E+03 -0.33349169210E+03  0.69977396106E+03  0.92777172702E+02 0.  0.
         23    2    4    4    0    0 -0.68961707929E+03  0.12892451248E+03  0.11643614296E+03  0.71683849046E+03  0.90037770142E+02 0.  0.
          5    1    3    3  502    0  0.41612973175E+03 -0.18660391512E+03  0.66655013459E+02  0.46092293890E+03  0.47000000000E+01 0. -1.
         -5    1    3    3    0  502  0.73427543485E+03 -0.33922565238E+03  0.23458981596E+03  0.84219292873E+03  0.47000000000E+01 0.  1.
         13    1    5    5    0    0 -0.15734509008E+03  0.16665379130E+03 -0.82440082718E+02  0.24357202377E+03  0.00000000000E+00 0. -1.
        -13    1    5    5    0    0 -0.30344299723E+03  0.23025126372E+03 -0.25105160938E+03  0.45620193729E+03  0.00000000000E+00 0.  1.
          3    1    6    6  503    0 -0.17798858654E+02  0.13905920877E+02  0.16469014193E+02  0.27953576395E+02  0.00000000000E+00 0. -1.
         -3    1    6    6    0  503 -0.67181822064E+03  0.11501859160E+03  0.99967128768E+02  0.68888491407E+03  0.00000000000E+00 0.  1.
<mgrwt>
<rscale>  0 0.12896133E+04</rscale>
<asrwt>0</asrwt>
<pdfrwt beam="1">  1        1 0.20273377E+00 0.12896133E+04</pdfrwt>
<pdfrwt beam="2">  1       -1 0.21568597E+00 0.12896133E+04</pdfrwt>
<totfact> 0.10022484E+00</totfact>
</mgrwt>
</event>
<event>
12    1  0.3203156E-008  0.6031105E+03  0.7818608E-02  0.9898974E-01
         -1   -1    0    0    0  501 -0.00000000000E+00  0.00000000000E+00  0.27645759982E+03  0.27645759982E+03  0.00000000000E+00 0.  1.
          1   -1    0    0  501    0  0.00000000000E+00 -0.00000000000E+00 -0.25687428985E+04  0.25687428985E+04  0.00000000000E+00 0. -1.
         23    2    1    2    0    0 -0.43762185918E+03 -0.39869026642E+03 -0.17330471215E+04  0.18335293748E+04  0.88942806289E+02 0.  0.
    5000000    2    1    2    0    0  0.43762185918E+03  0.39869026642E+03 -0.55923817723E+03  0.10116711236E+04  0.60022021226E+03 0.  0.
         23    2    4    4    0    0  0.10216058953E+03  0.12193151871E+03  0.10596981104E+03  0.21099856707E+03  0.89368412461E+02 0.  0.
         23    2    4    4    0    0  0.33546126964E+03  0.27675874772E+03 -0.66520798827E+03  0.80067255649E+03  0.97186455761E+02 0.  0.
          5    1    3    3  502    0 -0.28347336938E+03 -0.21006099237E+03 -0.11002627995E+04  0.11554579566E+04  0.47000000000E+01 0. -1.
         -5    1    3    3    0  502 -0.15414848980E+03 -0.18862927406E+03 -0.63278432204E+03  0.67807141818E+03  0.47000000000E+01 0.  1.
         13    1    5    5    0    0  0.45172994030E+02  0.91582888850E+02  0.20954521074E+02  0.10424546452E+03  0.00000000000E+00 0.  1.
        -13    1    5    5    0    0  0.56987595504E+02  0.30348629855E+02  0.85015289971E+02  0.10675310255E+03  0.00000000000E+00 0. -1.
          2    1    6    6  503    0  0.18388846307E+03  0.20482680733E+03 -0.45411719234E+03  0.53102863598E+03  0.00000000000E+00 0. -1.
         -2    1    6    6    0  503  0.15157280657E+03  0.71931940388E+02 -0.21109079593E+03  0.26964392051E+03  0.00000000000E+00 0.  1.
<mgrwt>
<rscale>  0 0.60311048E+03</rscale>
<asrwt>0</asrwt>
<pdfrwt beam="1">  1        1 0.39519123E+00 0.60311048E+03</pdfrwt>
<pdfrwt beam="2">  1       -1 0.42531937E-01 0.60311048E+03</pdfrwt>
<totfact> 0.71809229E+00</totfact>
</mgrwt>
</event>
<event>
12    1  0.3203156E-008  0.2837320E+03  0.7818608E-02  0.1093668E+00
         -2   -1    0    0    0  501 -0.00000000000E+00  0.00000000000E+00  0.78238691866E+03  0.78238691866E+03  0.00000000000E+00 0.  1.
          2   -1    0    0  501    0  0.00000000000E+00 -0.00000000000E+00 -0.25840971393E+03  0.25840971393E+03  0.00000000000E+00 0. -1.
         23    2    1    2    0    0  0.97008391255E+02 -0.15633503228E+03  0.32156075541E+03  0.38153827080E+03  0.91207797769E+02 0.  0.
    5000000    2    1    2    0    0 -0.97008391255E+02  0.15633503228E+03  0.20241644932E+03  0.65925836179E+03  0.59983155831E+03 0.  0.
         23    2    4    4    0    0  0.24825271557E+02 -0.62058705268E+02  0.33983451204E+03  0.35945724150E+03  0.96199978616E+02 0.  0.
         23    2    4    4    0    0 -0.12183366281E+03  0.21839373755E+03 -0.13741806272E+03  0.29980112029E+03  0.91965872840E+02 0.  0.
          5    1    3    3  502    0  0.10482888343E+03 -0.92024821226E+02  0.23492333914E+03  0.27325579188E+03  0.47000000000E+01 0. -1.
         -5    1    3    3    0  502 -0.78204921726E+01 -0.64310211053E+02  0.86637416270E+02  0.10828247892E+03  0.47000000000E+01 0.  1.
         13    1    5    5    0    0  0.36235480316E+02 -0.73214389956E+02  0.16722506628E+03  0.18611173988E+03  0.00000000000E+00 0. -1.
        -13    1    5    5    0    0 -0.11410208758E+02  0.11155684688E+02  0.17260944576E+03  0.17334550162E+03  0.00000000000E+00 0.  1.
          3    1    6    6  503    0 -0.43016662405E+02  0.12451400702E+02 -0.34098917698E+02  0.56286826275E+02  0.00000000000E+00 0. -1.
         -3    1    6    6    0  503 -0.78817000407E+02  0.20594233684E+03 -0.10331914503E+03  0.24351429401E+03  0.00000000000E+00 0.  1.
<mgrwt>
<rscale>  0 0.28373203E+03</rscale>
<asrwt>0</asrwt>
<pdfrwt beam="1">  1        2 0.39755341E-01 0.28373203E+03</pdfrwt>
<pdfrwt beam="2">  1       -2 0.12036722E+00 0.28373203E+03</pdfrwt>
<totfact> 0.71405669E+01</totfact>
</mgrwt>
</event>
<event>
12    1  0.3203156E-008  0.9935371E+03  0.7818608E-02  0.9315662E-01
         -2   -1    0    0    0  501 -0.00000000000E+00  0.00000000000E+00  0.11410811409E+04  0.11410811409E+04  0.00000000000E+00 0.  1.
          2   -1    0    0  501    0  0.00000000000E+00 -0.00000000000E+00 -0.15497529610E+04  0.15497529610E+04  0.00000000000E+00 0. -1.
         23    2    1    2    0    0  0.78669164313E+03  0.55545587674E+03 -0.10165067002E+04  0.14036472407E+04  0.97594735779E+02 0.  0.
    5000000    2    1    2    0    0 -0.78669164313E+03 -0.55545587674E+03  0.60783488015E+03  0.12871868612E+04  0.59997650105E+03 0.  0.
         23    2    4    4    0    0 -0.60511422844E+03 -0.22573407553E+03  0.62029053916E+03  0.90008857059E+03  0.90994393289E+02 0.  0.
         23    2    4    4    0    0 -0.18157741469E+03 -0.32972180121E+03 -0.12455659017E+02  0.38709829063E+03  0.89460155684E+02 0.  0.
          5    1    3    3  502    0  0.66408709776E+03  0.46491984138E+03 -0.90335165198E+03  0.12137662170E+04  0.47000000000E+01 0. -1.
         -5    1    3    3    0  502  0.12260454538E+03  0.90536035356E+02 -0.11315504825E+03  0.18988102377E+03  0.47000000000E+01 0.  1.
         11    1    5    5    0    0 -0.21330137146E+03 -0.10336506652E+03  0.28037399105E+03  0.36713946520E+03  0.00000000000E+00 0.  1.
        -11    1    5    5    0    0 -0.39181285698E+03 -0.12236900901E+03  0.33991654811E+03  0.53294910540E+03  0.00000000000E+00 0. -1.
          3    1    6    6  503    0 -0.17022361591E+03 -0.30801131856E+03  0.12480364747E+02  0.35214032896E+03  0.00000000000E+00 0. -1.
         -3    1    6    6    0  503 -0.11353798784E+02 -0.21710482645E+02 -0.24936023764E+02  0.34957961678E+02  0.00000000000E+00 0.  1.
<mgrwt>
<rscale>  0 0.99353714E+03</rscale>
<asrwt>0</asrwt>
<pdfrwt beam="1">  1        2 0.23842353E+00 0.99353714E+03</pdfrwt>
<pdfrwt beam="2">  1       -2 0.17555094E+00 0.99353714E+03</pdfrwt>
<totfact> 0.23030646E+00</totfact>
</mgrwt>
</event>
<event>
12    1  0.3203156E-008  0.1115974E+04  0.7818608E-02  0.9189761E-01
         -4   -1    0    0    0  501 -0.00000000000E+00  0.00000000000E+00  0.67247686059E+03  0.67247686059E+03  0.00000000000E+00 0.  1.
          4   -1    0    0  501    0  0.00000000000E+00 -0.00000000000E+00 -0.20489269806E+04  0.20489269806E+04  0.00000000000E+00 0. -1.
         23    2    1    2    0    0 -0.10801153278E+04 -0.11924306128E+03 -0.80161969816E+03  0.13534517078E+04  0.91484182879E+02 0.  0.
    5000000    2    1    2    0    0  0.10801153278E+04  0.11924306128E+03 -0.57483042189E+03  0.13679521335E+04  0.59999583043E+03 0.  0.
         23    2    4    4    0    0  0.10093882232E+04  0.15612629844E+03 -0.66123840883E+03  0.12201290517E+04  0.90767082896E+02 0.  0.
         23    2    4    4    0    0  0.70727104642E+02 -0.36883237163E+02  0.86407986934E+02  0.14782308179E+03  0.89569117386E+02 0.  0.
          5    1    3    3  502    0 -0.79499423323E+02  0.14580313412E+02 -0.57191865949E+02  0.99124887786E+02  0.47000000000E+01 0. -1.
         -5    1    3    3    0  502 -0.10006159045E+04 -0.13382337469E+03 -0.74442783221E+03  0.12543268200E+04  0.47000000000E+01 0.  1.
         13    1    5    5    0    0  0.38474810912E+03  0.25146149413E+02 -0.28253254020E+03  0.47800425999E+03  0.00000000000E+00 0. -1.
        -13    1    5    5    0    0  0.62464011405E+03  0.13098014903E+03 -0.37870586863E+03  0.74212479170E+03  0.00000000000E+00 0.  1.
          1    1    6    6  503    0 -0.15121445695E+02 -0.27387168085E+02  0.36484949897E+02  0.48061072238E+02  0.00000000000E+00 0. -1.
         -1    1    6    6    0  503  0.85848550338E+02 -0.94960690780E+01  0.49923037036E+02  0.99762009552E+02  0.00000000000E+00 0.  1.
<mgrwt>
<rscale>  0 0.11159742E+04</rscale>
<asrwt>0</asrwt>
<pdfrwt beam="1">  1        4 0.31521953E+00 0.11159742E+04</pdfrwt>
<pdfrwt beam="2">  1       -4 0.10345798E+00 0.11159742E+04</pdfrwt>
<totfact> 0.36484384E-02</totfact>
</mgrwt>
</event>
<event>
12    1  0.3203156E-008  0.6704635E+03  0.7818608E-02  0.9769121E-01
         -2   -1    0    0    0  501 -0.00000000000E+00  0.00000000000E+00  0.29727707594E+03  0.29727707594E+03  0.00000000000E+00 0. -1.
          2   -1    0    0  501    0  0.00000000000E+00 -0.00000000000E+00 -0.17836433774E+04  0.17836433774E+04  0.00000000000E+00 0.  1.
         23    2    1    2    0    0  0.47384558929E+03  0.32936144541E+03 -0.85760876751E+03  0.10376435488E+04  0.90568935199E+02 0.  0.
    5000000    2    1    2    0    0 -0.47384558929E+03 -0.32936144541E+03 -0.62875753391E+03  0.10432769045E+04  0.60006837847E+03 0.  0.
         23    2    4    4    0    0 -0.53689755959E+03 -0.14032346826E+03 -0.60315200477E+03  0.82467373987E+03  0.91349718886E+02 0.  0.
         23    2    4    4    0    0  0.63051970303E+02 -0.18903797714E+03 -0.25605529146E+02  0.21860316465E+03  0.86144023059E+02 0.  0.
          5    1    3    3  502    0  0.27479058791E+03  0.22365250376E+03 -0.46095599913E+03  0.58140591051E+03  0.47000000000E+01 0.  1.
         -5    1    3    3    0  502  0.19905500138E+03  0.10570894164E+03 -0.39665276838E+03  0.45623763828E+03  0.47000000000E+01 0.  1.
         13    1    5    5    0    0 -0.37538335557E+03 -0.55681023928E+02 -0.38993872372E+03  0.54411878144E+03  0.00000000000E+00 0.  1.
        -13    1    5    5    0    0 -0.16151420402E+03 -0.84642444335E+02 -0.21321328105E+03  0.28055495843E+03  0.00000000000E+00 0. -1.
          1    1    6    6  503    0  0.40630301077E+02 -0.11521020653E+03 -0.57615283372E+02  0.13506936712E+03  0.00000000000E+00 0. -1.
         -1    1    6    6    0  503  0.22421669225E+02 -0.73827770610E+02  0.32009754226E+02  0.83533797529E+02  0.00000000000E+00 0.  1.
<mgrwt>
<rscale>  0 0.67046348E+03</rscale>
<asrwt>0</asrwt>
<pdfrwt beam="1">  1        2 0.27440668E+00 0.67046348E+03</pdfrwt>
<pdfrwt beam="2">  1       -2 0.45734934E-01 0.67046348E+03</pdfrwt>
<totfact> 0.41434971E+01</totfact>
</mgrwt>
</event>
<event>
12    1  0.3203156E-008  0.1982022E+04  0.7818608E-02  0.8615073E-01
         -1   -1    0    0    0  501 -0.00000000000E+00  0.00000000000E+00  0.15838591720E+04  0.15838591720E+04  0.00000000000E+00 0.  1.
          1   -1    0    0  501    0  0.00000000000E+00 -0.00000000000E+00 -0.28396228860E+04  0.28396228860E+04  0.00000000000E+00 0. -1.
         23    2    1    2    0    0  0.14273891115E+04 -0.13142967955E+04  0.15809743094E+03  0.19488534769E+04  0.90660545620E+02 0.  0.
    5000000    2    1    2    0    0 -0.14273891115E+04  0.13142967955E+04 -0.14138611449E+04  0.24746285811E+04  0.59997294550E+03 0.  0.
         23    2    4    4    0    0 -0.51431057436E+03  0.14984728530E+03 -0.29785279170E+03  0.61916236613E+03  0.87613779209E+02 0.  0.
         23    2    4    4    0    0 -0.91307853710E+03  0.11644495102E+04 -0.11160083533E+04  0.18554662150E+04  0.87322127020E+02 0.  0.
          5    1    3    3  502    0  0.70133917500E+03 -0.60769283604E+03  0.40198085103E+02  0.92887307928E+03  0.47000000000E+01 0. -1.
         -5    1    3    3    0  502  0.72604993645E+03 -0.70660395941E+03  0.11789934584E+03  0.10199803976E+04  0.47000000000E+01 0.  1.
         11    1    5    5    0    0 -0.37263901100E+03  0.14837800355E+03 -0.21678068130E+03  0.45592732781E+03  0.00000000000E+00 0.  1.
        -11    1    5    5    0    0 -0.14167156335E+03  0.14692817448E+01 -0.81072110395E+02  0.16323503832E+03  0.00000000000E+00 0. -1.
          1    1    6    6  503    0 -0.28796730698E+03  0.34241973985E+03 -0.38440328618E+03  0.58986637008E+03  0.00000000000E+00 0. -1.
         -1    1    6    6    0  503 -0.62511123012E+03  0.82202977032E+03 -0.73160506707E+03  0.12655998449E+04  0.00000000000E+00 0.  1.
<mgrwt>
<rscale>  0 0.19820216E+04</rscale>
<asrwt>0</asrwt>
<pdfrwt beam="1">  1        1 0.43686505E+00 0.19820216E+04</pdfrwt>
<pdfrwt beam="2">  1       -1 0.24367064E+00 0.19820216E+04</pdfrwt>
<totfact> 0.53422918E-02</totfact>
</mgrwt>
</event>
<event>
12    1  0.3203156E-008  0.6791982E+03  0.7818608E-02  0.9753483E-01
         -1   -1    0    0    0  501 -0.00000000000E+00  0.00000000000E+00  0.10719494821E+04  0.10719494821E+04  0.00000000000E+00 0.  1.
          1   -1    0    0  501    0  0.00000000000E+00 -0.00000000000E+00 -0.51675735761E+03  0.51675735761E+03  0.00000000000E+00 0. -1.
         23    2    1    2    0    0  0.33594035791E+03 -0.45116826611E+03 -0.43476517574E+02  0.57148504858E+03  0.91083614048E+02 0.  0.
    5000000    2    1    2    0    0 -0.33594035791E+03  0.45116826611E+03  0.59866864206E+03  0.10172217911E+04  0.59993941440E+03 0.  0.
         23    2    4    4    0    0 -0.42127792239E+03  0.50102400321E+03  0.38459026897E+03  0.76461609733E+03  0.90708112246E+02 0.  0.
         23    2    4    4    0    0  0.85337564479E+02 -0.49855737103E+02  0.21407837309E+03  0.25260569380E+03  0.90620043493E+02 0.  0.
          5    1    3    3  502    0  0.27967202478E+03 -0.35434414825E+03 -0.49324341376E+00  0.45144052780E+03  0.47000000000E+01 0. -1.
         -5    1    3    3    0  502  0.56268333122E+02 -0.96824117858E+02 -0.42983274160E+02  0.12004452078E+03  0.47000000000E+01 0.  1.
         13    1    5    5    0    0 -0.34117751133E+03  0.45396855241E+03  0.32653702765E+03  0.65506944002E+03  0.00000000000E+00 0. -1.
        -13    1    5    5    0    0 -0.80100411057E+02  0.47055450803E+02  0.58053241318E+02  0.10954665732E+03  0.00000000000E+00 0.  1.
          4    1    6    6  503    0  0.93100108712E+02 -0.10172251608E+02  0.14938850696E+03  0.17631798251E+03  0.00000000000E+00 0. -1.
         -4    1    6    6    0  503 -0.77625442331E+01 -0.39683485495E+02  0.64689866133E+02  0.76287711293E+02  0.00000000000E+00 0.  1.
<mgrwt>
<rscale>  0 0.67919817E+03</rscale>
<asrwt>0</asrwt>
<pdfrwt beam="1">  1        1 0.79501132E-01 0.67919817E+03</pdfrwt>
<pdfrwt beam="2">  1       -1 0.16491530E+00 0.67919817E+03</pdfrwt>
<totfact> 0.11804023E+01</totfact>
</mgrwt>
</event>
<event>
12    1  0.3203156E-008  0.7809816E+03  0.7818608E-02  0.9587961E-01
         -1   -1    0    0    0  501 -0.00000000000E+00  0.00000000000E+00  0.41496728896E+03  0.41496728896E+03  0.00000000000E+00 0.  1.
          1   -1    0    0  501    0  0.00000000000E+00 -0.00000000000E+00 -0.20498067668E+04  0.20498067668E+04  0.00000000000E+00 0. -1.
         23    2    1    2    0    0 -0.65125541303E+03 -0.24667580459E+03 -0.14992437564E+03  0.71836034811E+03  0.92637496496E+02 0.  0.
    5000000    2    1    2    0    0  0.65125541303E+03  0.24667580459E+03 -0.14849151022E+04  0.17464137077E+04  0.60000450998E+03 0.  0.
         23    2    4    4    0    0  0.71819744923E+03  0.21527493104E+03 -0.10425290817E+04  0.12872880287E+04  0.89959493544E+02 0.  0.
         23    2    4    4    0    0 -0.66942036200E+02  0.31400873556E+02 -0.44238602052E+03  0.45912567903E+03  0.98100697913E+02 0.  0.
          5    1    3    3  502    0 -0.48184056025E+03 -0.16019464382E+03 -0.14474376665E+03  0.52802035700E+03  0.47000000000E+01 0. -1.
         -5    1    3    3    0  502 -0.16941485277E+03 -0.86481160769E+02 -0.51806089830E+01  0.19033999112E+03  0.47000000000E+01 0.  1.
         11    1    5    5    0    0  0.53299677059E+03  0.17616829350E+03 -0.83764961460E+03  0.10083539567E+04  0.00000000000E+00 0. -1.
        -11    1    5    5    0    0  0.18520067864E+03  0.39106637534E+02 -0.20487946713E+03  0.27893407199E+03  0.00000000000E+00 0.  1.
          2    1    6    6  503    0  0.19082739340E+02 -0.51894705946E+01 -0.16995683070E+03  0.17110349455E+03  0.00000000000E+00 0. -1.
         -2    1    6    6    0  503 -0.86024775540E+02  0.36590344151E+02 -0.27242918982E+03  0.28802218449E+03  0.00000000000E+00 0.  1.
<mgrwt>
<rscale>  0 0.78098161E+03</rscale>
<asrwt>0</asrwt>
<pdfrwt beam="1">  1        1 0.31535489E+00 0.78098161E+03</pdfrwt>
<pdfrwt beam="2">  1       -1 0.63841122E-01 0.78098161E+03</pdfrwt>
<totfact> 0.71575106E+00</totfact>
</mgrwt>
</event>
<event>
12    1  0.3203156E-008  0.1532259E+04  0.7818608E-02  0.8863280E-01
         -1   -1    0    0    0  501 -0.00000000000E+00  0.00000000000E+00  0.98117405436E+03  0.98117405436E+03  0.00000000000E+00 0.  1.
          1   -1    0    0  501    0  0.00000000000E+00 -0.00000000000E+00 -0.36218004691E+04  0.36218004691E+04  0.00000000000E+00 0. -1.
         23    2    1    2    0    0  0.10501984529E+04  0.10503373603E+04  0.30543107646E+02  0.14883784882E+04  0.90621640972E+02 0.  0.
    5000000    2    1    2    0    0 -0.10501984529E+04 -0.10503373603E+04 -0.26711695224E+04  0.31145960352E+04  0.59953021967E+03 0.  0.
         23    2    4    4    0    0  0.49863819932E+01  0.10186381939E+02 -0.26814678706E+03  0.28248730124E+03  0.88134837445E+02 0.  0.
         23    2    4    4    0    0 -0.10551848349E+04 -0.10605237423E+04 -0.24030227353E+04  0.28321087340E+04  0.90531601363E+02 0.  0.
          5    1    3    3  502    0  0.49474386689E+03  0.43513744590E+03 -0.14414169280E+01  0.65889320707E+03  0.47000000000E+01 0. -1.
         -5    1    3    3    0  502  0.55545458604E+03  0.61519991442E+03  0.31984524574E+02  0.82948528116E+03  0.47000000000E+01 0.  1.
         13    1    5    5    0    0  0.40986842521E+02 -0.13430026663E+01 -0.73155799781E+02  0.83865940390E+02  0.00000000000E+00 0. -1.
        -13    1    5    5    0    0 -0.36000460527E+02  0.11529384605E+02 -0.19499098728E+03  0.19862136085E+03  0.00000000000E+00 0.  1.
          1    1    6    6  503    0 -0.36482983987E+03 -0.41846314002E+03 -0.93635576026E+03  0.10885652582E+04  0.00000000000E+00 0. -1.
         -1    1    6    6    0  503 -0.69035499505E+03 -0.64206060223E+03 -0.14666669751E+04  0.17435434758E+04  0.00000000000E+00 0.  1.
<mgrwt>
<rscale>  0 0.15322589E+04</rscale>
<asrwt>0</asrwt>
<pdfrwt beam="1">  1        1 0.55720008E+00 0.15322589E+04</pdfrwt>
<pdfrwt beam="2">  1       -1 0.15094985E+00 0.15322589E+04</pdfrwt>
<totfact> 0.65304010E-02</totfact>
</mgrwt>
</event>
<event>
12    1  0.3203156E-008  0.7950214E+03  0.7818608E-02  0.9567251E-01
         -2   -1    0    0    0  501 -0.00000000000E+00  0.00000000000E+00  0.28844972784E+03  0.28844972784E+03  0.00000000000E+00 0.  1.
          2   -1    0    0  501    0  0.00000000000E+00 -0.00000000000E+00 -0.26882255617E+04  0.26882255617E+04  0.00000000000E+00 0. -1.
         23    2    1    2    0    0  0.70444706010E+03 -0.31570054729E+03 -0.94320694450E+03  0.12224057613E+04  0.93402404375E+02 0.  0.
    5000000    2    1    2    0    0 -0.70444706010E+03  0.31570054729E+03 -0.14565688893E+04  0.17542695282E+04  0.59996345895E+03 0.  0.
         23    2    4    4    0    0 -0.16473824770E+03  0.17368543661E+03 -0.98566402359E+03  0.10182608721E+04  0.89533877117E+02 0.  0.
         23    2    4    4    0    0 -0.53970881240E+03  0.14201511068E+03 -0.47090486575E+03  0.73600865606E+03  0.92214181980E+02 0.  0.
          5    1    3    3  502    0  0.18288572268E+03 -0.85831515537E+02 -0.18603660825E+03  0.27467425476E+03  0.47000000000E+01 0. -1.
         -5    1    3    3    0  502  0.52156133743E+03 -0.22986903175E+03 -0.75717033626E+03  0.94773150658E+03  0.47000000000E+01 0.  1.
         11    1    5    5    0    0 -0.81536386469E+02  0.30147728936E+02 -0.41290179387E+03  0.42195374066E+03  0.00000000000E+00 0. -1.
        -11    1    5    5    0    0 -0.83201861230E+02  0.14353770767E+03 -0.57276222972E+03  0.59630713146E+03  0.00000000000E+00 0.  1.
          2    1    6    6  503    0 -0.32799863153E+03  0.40975293873E+02 -0.25989877533E+03  0.42048715844E+03  0.00000000000E+00 0. -1.
         -2    1    6    6    0  503 -0.21171018087E+03  0.10103981681E+03 -0.21100609041E+03  0.31552149761E+03  0.00000000000E+00 0.  1.
<mgrwt>
<rscale>  0 0.79502142E+03</rscale>
<asrwt>0</asrwt>
<pdfrwt beam="1">  1        2 0.41357316E+00 0.79502142E+03</pdfrwt>
<pdfrwt beam="2">  1       -2 0.44376882E-01 0.79502142E+03</pdfrwt>
<totfact> 0.13581571E+01</totfact>
</mgrwt>
</event>
<event>
12    1  0.3203156E-008  0.1413222E+04  0.7818608E-02  0.8944303E-01
          2   -1    0    0  501    0  0.00000000000E+00  0.00000000000E+00  0.15526389502E+04  0.15526389502E+04  0.00000000000E+00 0. -1.
         -2   -1    0    0    0  501 -0.00000000000E+00 -0.00000000000E+00 -0.14810265557E+04  0.14810265557E+04  0.00000000000E+00 0.  1.
         23    2    1    2    0    0 -0.13702245775E+04  0.60375443472E+02  0.52177252026E+03  0.14703580976E+04  0.92443416162E+02 0.  0.
    5000000    2    1    2    0    0  0.13702245775E+04 -0.60375443472E+02 -0.45016012580E+03  0.15633074083E+04  0.60010443020E+03 0.  0.
         23    2    4    4    0    0  0.11975633629E+04  0.93138150898E+02 -0.51010801593E+03  0.13081366287E+04  0.90435214249E+02 0.  0.
         23    2    4    4    0    0  0.17266121457E+03 -0.15351359437E+03  0.59947890130E+02  0.25517077966E+03  0.90222273248E+02 0.  0.
          5    1    3    3  502    0 -0.50119805891E+03 -0.16024908437E+02  0.21466146996E+03  0.54548870624E+03  0.47000000000E+01 0. -1.
         -5    1    3    3    0  502 -0.86902651860E+03  0.76400351908E+02  0.30711105029E+03  0.92486939133E+03  0.47000000000E+01 0.  1.
         13    1    5    5    0    0  0.47332119308E+03  0.81039568935E+02 -0.19904284129E+03  0.51982537089E+03  0.00000000000E+00 0. -1.
        -13    1    5    5    0    0  0.72424216987E+03  0.12098581963E+02 -0.31106517464E+03  0.78831125780E+03  0.00000000000E+00 0.  1.
          3    1    6    6  503    0  0.44025627078E+02  0.45182667161E+01  0.11295312826E+02  0.45675536839E+02  0.00000000000E+00 0. -1.
         -3    1    6    6    0  503  0.12863558749E+03 -0.15803186109E+03  0.48652577304E+02  0.20949524282E+03  0.00000000000E+00 0.  1.
<mgrwt>
<rscale>  0 0.14132218E+04</rscale>
<asrwt>0</asrwt>
<pdfrwt beam="1">  1        2 0.23886753E+00 0.14132218E+04</pdfrwt>
<pdfrwt beam="2">  1       -2 0.22785024E+00 0.14132218E+04</pdfrwt>
<totfact> 0.99161808E-01</totfact>
</mgrwt>
</event>
<event>
12    1  0.3203156E-008  0.9412214E+03  0.7818608E-02  0.9375471E-01
          2   -1    0    0  501    0  0.00000000000E+00  0.00000000000E+00  0.88396308153E+03  0.88396308153E+03  0.00000000000E+00 0.  1.
         -2   -1    0    0    0  501 -0.00000000000E+00 -0.00000000000E+00 -0.12448645616E+04  0.12448645616E+04  0.00000000000E+00 0. -1.
         23    2    1    2    0    0  0.68685814034E+03 -0.58262203986E+03  0.17456527613E+03  0.92131879940E+03  0.84455599019E+02 0.  0.
    5000000    2    1    2    0    0 -0.68685814034E+03  0.58262203986E+03 -0.53546675620E+03  0.12075088437E+04  0.60010866881E+03 0.  0.
         23    2    4    4    0    0 -0.48701027531E+03  0.17651264789E+03 -0.36018891045E+02  0.52735873731E+03  0.92055169258E+02 0.  0.
         23    2    4    4    0    0 -0.19984786504E+03  0.40610939197E+03 -0.49944786515E+03  0.68015010641E+03  0.91060363675E+02 0.  0.
          5    1    3    3  502    0  0.15995812750E+03 -0.17781114670E+03  0.27730402261E+02  0.24082041369E+03  0.47000000000E+01 0. -1.
         -5    1    3    3    0  502  0.52690001285E+03 -0.40481089316E+03  0.14683487387E+03  0.68049838570E+03  0.47000000000E+01 0.  1.
         11    1    5    5    0    0 -0.35308587914E+03  0.10864356000E+03  0.12323604973E+02  0.36962810015E+03  0.00000000000E+00 0.  1.
        -11    1    5    5    0    0 -0.13392439617E+03  0.67869087886E+02 -0.48342496018E+02  0.15773063716E+03  0.00000000000E+00 0. -1.
          4    1    6    6  503    0 -0.11273346484E+03  0.14333572580E+03 -0.16434191774E+03  0.24548366608E+03  0.00000000000E+00 0. -1.
         -4    1    6    6    0  503 -0.87114400192E+02  0.26277366617E+03 -0.33510594741E+03  0.43466644032E+03  0.00000000000E+00 0.  1.
<mgrwt>
<rscale>  0 0.94122142E+03</rscale>
<asrwt>0</asrwt>
<pdfrwt beam="1">  1        2 0.13599432E+00 0.94122142E+03</pdfrwt>
<pdfrwt beam="2">  1       -2 0.19151762E+00 0.94122142E+03</pdfrwt>
<totfact> 0.45443291E+00</totfact>
</mgrwt>
</event>
<event>
12    1  0.3203156E-008  0.1584727E+04  0.7818608E-02  0.8829986E-01
          2   -1    0    0  501    0  0.00000000000E+00  0.00000000000E+00  0.16584372013E+04  0.16584372013E+04  0.00000000000E+00 0.  1.
         -2   -1    0    0    0  501 -0.00000000000E+00 -0.00000000000E+00 -0.17582147254E+04  0.17582147254E+04  0.00000000000E+00 0. -1.
         23    2    1    2    0    0 -0.33257065583E+03 -0.15378453695E+04  0.45972891540E+03  0.16418935753E+04  0.94298543599E+02 0.  0.
    5000000    2    1    2    0    0  0.33257065583E+03  0.15378453695E+04 -0.55950643948E+03  0.17747583514E+04  0.60095601207E+03 0.  0.
         23    2    4    4    0    0  0.33944442040E+03  0.12180333845E+04 -0.19888684716E+03  0.12832435572E+04  0.91269978054E+02 0.  0.
         23    2    4    4    0    0 -0.68737645698E+01  0.31981198500E+03 -0.36061959232E+03  0.49151479418E+03  0.95986187245E+02 0.  0.
          5    1    3    3  502    0 -0.20212815425E+03 -0.75426328761E+03  0.25636463909E+03  0.82189647520E+03  0.47000000000E+01 0. -1.
         -5    1    3    3    0  502 -0.13044250157E+03 -0.78358208185E+03  0.20336427631E+03  0.81999710005E+03  0.47000000000E+01 0.  1.
         11    1    5    5    0    0  0.14316882958E+03  0.35955006935E+03 -0.53428232944E+02  0.39067651863E+03  0.00000000000E+00 0.  1.
        -11    1    5    5    0    0  0.19627559082E+03  0.85848331511E+03 -0.14545861422E+03  0.89256703856E+03  0.00000000000E+00 0. -1.
          3    1    6    6  503    0  0.23081805954E+02  0.24303622865E+03 -0.22055998604E+03  0.32900772885E+03  0.00000000000E+00 0. -1.
         -3    1    6    6    0  503 -0.29955570524E+02  0.76775756341E+02 -0.14005960629E+03  0.16250706532E+03  0.00000000000E+00 0.  1.
<mgrwt>
<rscale>  0 0.15847268E+04</rscale>
<asrwt>0</asrwt>
<pdfrwt beam="1">  1        2 0.25514419E+00 0.15847268E+04</pdfrwt>
<pdfrwt beam="2">  1       -2 0.27049457E+00 0.15847268E+04</pdfrwt>
<totfact> 0.46354441E-01</totfact>
</mgrwt>
</event>
<event>
12    1  0.3203156E-008  0.9448766E+03  0.7818608E-02  0.9371159E-01
         -1   -1    0    0    0  501 -0.00000000000E+00  0.00000000000E+00  0.13853091256E+04  0.13853091256E+04  0.00000000000E+00 0.  1.
          1   -1    0    0  501    0  0.00000000000E+00 -0.00000000000E+00 -0.16414692352E+04  0.16414692352E+04  0.00000000000E+00 0. -1.
         23    2    1    2    0    0  0.30796862345E+03 -0.87613022468E+03 -0.12365650791E+04  0.15490407007E+04  0.89359128561E+02 0.  0.
    5000000    2    1    2    0    0 -0.30796862345E+03  0.87613022468E+03  0.98040496947E+03  0.14777376601E+04  0.60005486784E+03 0.  0.
         23    2    4    4    0    0 -0.27988350620E+03  0.77387996741E+03  0.47703375496E+03  0.95546301663E+03  0.90129860641E+02 0.  0.
         23    2    4    4    0    0 -0.28085117243E+02  0.10225025728E+03  0.50337121451E+03  0.52227464351E+03  0.90245967977E+02 0.  0.
          5    1    3    3  502    0  0.22674775345E+03 -0.54409527756E+03 -0.82637777477E+03  0.10150746433E+04  0.47000000000E+01 0. -1.
         -5    1    3    3    0  502  0.81220869998E+02 -0.33203494712E+03 -0.41018730434E+03  0.53396605742E+03  0.47000000000E+01 0.  1.
         11    1    5    5    0    0 -0.64135279340E+02  0.16708787652E+03  0.62483762788E+02  0.18956770069E+03  0.00000000000E+00 0.  1.
        -11    1    5    5    0    0 -0.21574822686E+03  0.60679209089E+03  0.41454999217E+03  0.76589531594E+03  0.00000000000E+00 0. -1.
          1    1    6    6  503    0 -0.54339005575E+02  0.92806299709E+02  0.44139865798E+03  0.45431103009E+03  0.00000000000E+00 0. -1.
         -1    1    6    6    0  503  0.26253888332E+02  0.94439575687E+01  0.61972556532E+02  0.67963613428E+02  0.00000000000E+00 0.  1.
<mgrwt>
<rscale>  0 0.94487659E+03</rscale>
<asrwt>0</asrwt>
<pdfrwt beam="1">  1        1 0.25253373E+00 0.94487659E+03</pdfrwt>
<pdfrwt beam="2">  1       -1 0.21312448E+00 0.94487659E+03</pdfrwt>
<totfact> 0.65187098E-01</totfact>
</mgrwt>
</event>
<event>
12    1  0.3203156E-008  0.8899756E+03  0.7818608E-02  0.9438200E-01
          1   -1    0    0  501    0  0.00000000000E+00  0.00000000000E+00  0.28780476778E+04  0.28780476778E+04  0.00000000000E+00 0. -1.
         -1   -1    0    0    0  501 -0.00000000000E+00 -0.00000000000E+00 -0.38063432764E+03  0.38063432764E+03  0.00000000000E+00 0.  1.
         23    2    1    2    0    0 -0.80753283267E+03  0.11231457114E+03  0.36419605575E+03  0.89731748539E+03  0.88408505433E+02 0.  0.
    5000000    2    1    2    0    0  0.80753283267E+03 -0.11231457114E+03  0.21332172944E+04  0.23613645200E+04  0.60058515851E+03 0.  0.
         23    2    4    4    0    0 -0.43410807888E+02 -0.97270469678E+01  0.54443287623E+03  0.55377762242E+03  0.91013101767E+02 0.  0.
         23    2    4    4    0    0  0.85094364055E+03 -0.10258752418E+03  0.15887844182E+04  0.18075868976E+04  0.92223562490E+02 0.  0.
          5    1    3    3  502    0 -0.41391186369E+03  0.10143839344E+03  0.19627646090E+03  0.46921137846E+03  0.47000000000E+01 0. -1.
         -5    1    3    3    0  502 -0.39362096897E+03  0.10876177702E+02  0.16791959485E+03  0.42810610693E+03  0.47000000000E+01 0.  1.
         13    1    5    5    0    0 -0.22077680429E+01  0.36171366255E+02  0.27485132437E+03  0.27723003532E+03  0.00000000000E+00 0.  1.
        -13    1    5    5    0    0 -0.41203039845E+02 -0.45898413223E+02  0.26958155186E+03  0.27654758710E+03  0.00000000000E+00 0. -1.
          4    1    6    6  503    0  0.15569249927E+03 -0.55180334375E+02  0.30689743550E+03  0.34852698539E+03  0.00000000000E+00 0. -1.
         -4    1    6    6    0  503  0.69525114129E+03 -0.47407189800E+02  0.12818869827E+04  0.14590599122E+04  0.00000000000E+00 0.  1.
<mgrwt>
<rscale>  0 0.88997557E+03</rscale>
<asrwt>0</asrwt>
<pdfrwt beam="1">  1        1 0.44277655E+00 0.88997557E+03</pdfrwt>
<pdfrwt beam="2">  1       -1 0.58559129E-01 0.88997557E+03</pdfrwt>
<totfact> 0.22598213E+00</totfact>
</mgrwt>
</event>
<event>
12    1  0.3203156E-008  0.7947519E+03  0.7818608E-02  0.9567645E-01
          2   -1    0    0  501    0  0.00000000000E+00  0.00000000000E+00  0.44821767997E+03  0.44821767997E+03  0.00000000000E+00 0. -1.
         -2   -1    0    0    0  501 -0.00000000000E+00 -0.00000000000E+00 -0.32479411605E+04  0.32479411605E+04  0.00000000000E+00 0.  1.
         23    2    1    2    0    0  0.11880113450E+03  0.67486884503E+03  0.60947715829E+02  0.69401628092E+03  0.91554937445E+02 0.  0.
    5000000    2    1    2    0    0 -0.11880113450E+03 -0.67486884503E+03 -0.28606711963E+04  0.30021425595E+04  0.59988214396E+03 0.  0.
         23    2    4    4    0    0 -0.86051431978E+02  0.76992080249E+02 -0.57145082842E+03  0.59072536507E+03  0.95224882612E+02 0.  0.
         23    2    4    4    0    0 -0.32749702521E+02 -0.75186092528E+03 -0.22892203679E+04  0.24114171945E+04  0.89641501973E+02 0.  0.
          5    1    3    3  502    0  0.47106173134E+02  0.15055235928E+03  0.46792592715E+02  0.16461057428E+03  0.47000000000E+01 0. -1.
         -5    1    3    3    0  502  0.71694961366E+02  0.52431648575E+03  0.14155123114E+02  0.52940570664E+03  0.47000000000E+01 0.  1.
         13    1    5    5    0    0 -0.91490909630E+02  0.21651686106E+02 -0.35222360739E+03  0.36455569075E+03  0.00000000000E+00 0.  1.
        -13    1    5    5    0    0  0.54394776514E+01  0.55340394143E+02 -0.21922722103E+03  0.22616967432E+03  0.00000000000E+00 0. -1.
          1    1    6    6  503    0 -0.14802387474E+02 -0.54600984897E+03 -0.15297977470E+04  0.16243851183E+04  0.00000000000E+00 0. -1.
         -1    1    6    6    0  503 -0.17947315047E+02 -0.20585107631E+03 -0.75942262093E+03  0.78703207617E+03  0.00000000000E+00 0.  1.
<mgrwt>
<rscale>  0 0.79475187E+03</rscale>
<asrwt>0</asrwt>
<pdfrwt beam="1">  1        2 0.68956567E-01 0.79475187E+03</pdfrwt>
<pdfrwt beam="2">  1       -2 0.49968325E+00 0.79475187E+03</pdfrwt>
<totfact> 0.12140367E-01</totfact>
</mgrwt>
</event>
<event>
12    1  0.3203156E-008  0.7402706E+03  0.7818608E-02  0.9650739E-01
          1   -1    0    0  501    0  0.00000000000E+00  0.00000000000E+00  0.17518604013E+04  0.17518604013E+04  0.00000000000E+00 0. -1.
         -1   -1    0    0    0  501 -0.00000000000E+00 -0.00000000000E+00 -0.40403998342E+03  0.40403998342E+03  0.00000000000E+00 0.  1.
         23    2    1    2    0    0  0.25992794597E+03  0.67853067528E+03  0.69378201612E+03  0.10088309571E+04  0.91869471114E+02 0.  0.
    5000000    2    1    2    0    0 -0.25992794597E+03 -0.67853067528E+03  0.65403840176E+03  0.11470694276E+04  0.60002968795E+03 0.  0.
         23    2    4    4    0    0 -0.13336504599E+03 -0.15664077658E+03  0.54808865880E+03  0.59182042682E+03  0.86762153701E+02 0.  0.
         23    2    4    4    0    0 -0.12656289998E+03 -0.52188989870E+03  0.10594974296E+03  0.55524900081E+03  0.93214112923E+02 0.  0.
          5    1    3    3  502    0  0.18175213582E+03  0.53181522230E+03  0.57787463917E+03  0.80611566053E+03  0.47000000000E+01 0. -1.
         -5    1    3    3    0  502  0.78175810145E+02  0.14671545298E+03  0.11590737695E+03  0.20271529658E+03  0.47000000000E+01 0.  1.
         11    1    5    5    0    0 -0.88635245675E+02 -0.85518968782E+02  0.42721442790E+03  0.44461429150E+03  0.00000000000E+00 0.  1.
        -11    1    5    5    0    0 -0.44729800311E+02 -0.71121807798E+02  0.12087423090E+03  0.14720613532E+03  0.00000000000E+00 0. -1.
          4    1    6    6  503    0 -0.61090717658E+02 -0.93764740856E+02  0.24270335170E+02  0.11451179669E+03  0.00000000000E+00 0. -1.
         -4    1    6    6    0  503 -0.65472182322E+02 -0.42812515785E+03  0.81679407794E+02  0.44073720412E+03  0.00000000000E+00 0.  1.
<mgrwt>
<rscale>  0 0.74027060E+03</rscale>
<asrwt>0</asrwt>
<pdfrwt beam="1">  1        1 0.26951698E+00 0.74027060E+03</pdfrwt>
<pdfrwt beam="2">  1       -1 0.62159998E-01 0.74027060E+03</pdfrwt>
<totfact> 0.12023228E+01</totfact>
</mgrwt>
</event>
<event>
12    1  0.3203156E-008  0.5299861E+03  0.7818608E-02  0.1006236E+00
          1   -1    0    0  501    0  0.00000000000E+00  0.00000000000E+00  0.54081123710E+03  0.54081123710E+03  0.00000000000E+00 0. -1.
         -1   -1    0    0    0  501 -0.00000000000E+00 -0.00000000000E+00 -0.65592787447E+03  0.65592787447E+03  0.00000000000E+00 0.  1.
         23    2    1    2    0    0  0.40933964600E+03  0.94568106756E+02  0.83544937084E+02  0.43787432939E+03  0.90841065727E+02 0.  0.
    5000000    2    1    2    0    0 -0.40933964600E+03 -0.94568106756E+02 -0.19866157446E+03  0.75886478217E+03  0.59992271490E+03 0.  0.
         23    2    4    4    0    0 -0.48664062177E+03 -0.12330963852E+03  0.16902279210E+02  0.51041345227E+03  0.90619222593E+02 0.  0.
         23    2    4    4    0    0  0.77300975765E+02  0.28741531768E+02 -0.21556385367E+03  0.24845132991E+03  0.91971581601E+02 0.  0.
          5    1    3    3  502    0  0.20070647711E+03  0.52907531055E+01  0.60395559728E+02  0.20971598808E+03  0.47000000000E+01 0. -1.
         -5    1    3    3    0  502  0.20863316889E+03  0.89277353651E+02  0.23149377356E+02  0.22815834131E+03  0.47000000000E+01 0.  1.
         11    1    5    5    0    0 -0.18587573082E+03 -0.90953921266E+02  0.19974989988E+02  0.20789757894E+03  0.00000000000E+00 0. -1.
        -11    1    5    5    0    0 -0.30076489095E+03 -0.32355717258E+02 -0.30727107777E+01  0.30251587333E+03  0.00000000000E+00 0.  1.
          3    1    6    6  503    0  0.15095039185E+02  0.53637531851E+02 -0.83872948105E+02  0.10069516600E+03  0.00000000000E+00 0. -1.
         -3    1    6    6    0  503  0.62205936580E+02 -0.24896000083E+02 -0.13169090556E+03  0.14775616391E+03  0.00000000000E+00 0.  1.
<mgrwt>
<rscale>  0 0.52998609E+03</rscale>
<asrwt>0</asrwt>
<pdfrwt beam="1">  1        1 0.83201729E-01 0.52998609E+03</pdfrwt>
<pdfrwt beam="2">  1       -1 0.10091198E+00 0.52998609E+03</pdfrwt>
<totfact> 0.38851978E+01</totfact>
</mgrwt>
</event>
<event>
12    1  0.3203156E-008  0.1581698E+04  0.7818608E-02  0.8831871E-01
         -2   -1    0    0    0  501 -0.00000000000E+00  0.00000000000E+00  0.12887753540E+04  0.12887753540E+04  0.00000000000E+00 0. -1.
          2   -1    0    0  501    0  0.00000000000E+00 -0.00000000000E+00 -0.30594453537E+04  0.30594453537E+04  0.00000000000E+00 0.  1.
         23    2    1    2    0    0 -0.87092494799E+03 -0.12836713521E+04  0.40861265344E+03  0.16067584250E+04  0.91574725892E+02 0.  0.
    5000000    2    1    2    0    0  0.87092494799E+03  0.12836713521E+04 -0.21792826531E+04  0.27414622827E+04  0.60001679983E+03 0.  0.
         23    2    4    4    0    0  0.80796143052E+03  0.88839924433E+03 -0.18848226187E+04  0.22367027399E+04  0.90708061040E+02 0.  0.
         23    2    4    4    0    0  0.62963517471E+02  0.39527210777E+03 -0.29446003444E+03  0.50475954279E+03  0.88718884351E+02 0.  0.
          5    1    3    3  502    0 -0.49650422264E+03 -0.78003939368E+03  0.20655687728E+03  0.94745223222E+03  0.47000000000E+01 0. -1.
         -5    1    3    3    0  502 -0.37442072535E+03 -0.50363195843E+03  0.20205577616E+03  0.65930619275E+03  0.47000000000E+01 0.  1.
         11    1    5    5    0    0  0.30686676911E+03  0.38043393207E+03 -0.70389868472E+03  0.85695422807E+03  0.00000000000E+00 0. -1.
        -11    1    5    5    0    0  0.50109466141E+03  0.50796531226E+03 -0.11809239339E+04  0.13797485118E+04  0.00000000000E+00 0.  1.
          3    1    6    6  503    0  0.80024937223E+02  0.36861795638E+03 -0.26096403517E+03  0.45867790005E+03  0.00000000000E+00 0. -1.
         -3    1    6    6    0  503 -0.17061419752E+02  0.26654151389E+02 -0.33495999269E+02  0.46081642736E+02  0.00000000000E+00 0.  1.
<mgrwt>
<rscale>  0 0.15816978E+04</rscale>
<asrwt>0</asrwt>
<pdfrwt beam="1">  1        2 0.47068390E+00 0.15816978E+04</pdfrwt>
<pdfrwt beam="2">  1       -2 0.19827313E+00 0.15816978E+04</pdfrwt>
<totfact> 0.20362919E-01</totfact>
</mgrwt>
</event>
<event>
12    1  0.3203156E-008  0.1703764E+04  0.7818608E-02  0.8759220E-01
          1   -1    0    0  501    0  0.00000000000E+00  0.00000000000E+00  0.28258112802E+04  0.28258112802E+04  0.00000000000E+00 0. -1.
         -1   -1    0    0    0  501 -0.00000000000E+00 -0.00000000000E+00 -0.14983554530E+04  0.14983554530E+04  0.00000000000E+00 0.  1.
         23    2    1    2    0    0  0.50832167530E+03  0.16183602151E+04 -0.48867482743E+03  0.17676000106E+04  0.90144324297E+02 0.  0.
    5000000    2    1    2    0    0 -0.50832167530E+03 -0.16183602151E+04  0.18161306546E+04  0.25565667226E+04  0.60018508890E+03 0.  0.
         23    2    4    4    0    0 -0.10876706445E+03 -0.48939374547E+03  0.21161083241E+03  0.55238192858E+03  0.94921747840E+02 0.  0.
         23    2    4    4    0    0 -0.39955461085E+03 -0.11289664696E+04  0.16045198222E+04  0.20041847940E+04  0.89797839649E+02 0.  0.
          5    1    3    3  502    0  0.19392364920E+03  0.74833305325E+03 -0.24463940217E+03  0.81085095264E+03  0.47000000000E+01 0. -1.
         -5    1    3    3    0  502  0.31439802610E+03  0.87002716184E+03 -0.24403542526E+03  0.95674905798E+03  0.47000000000E+01 0.  1.
         11    1    5    5    0    0  0.14767529922E+02 -0.11612796421E+03  0.49133575993E+02  0.12695626137E+03  0.00000000000E+00 0.  1.
        -11    1    5    5    0    0 -0.12353459437E+03 -0.37326578126E+03  0.16247725641E+03  0.42542566721E+03  0.00000000000E+00 0. -1.
          1    1    6    6  503    0 -0.13385405584E+03 -0.46746311078E+03  0.70536646681E+03  0.85672663126E+03  0.00000000000E+00 0. -1.
         -1    1    6    6    0  503 -0.26570055501E+03 -0.66150335884E+03  0.89915335543E+03  0.11474581627E+04  0.00000000000E+00 0.  1.
<mgrwt>
<rscale>  0 0.17037642E+04</rscale>
<asrwt>0</asrwt>
<pdfrwt beam="1">  1        1 0.43474020E+00 0.17037642E+04</pdfrwt>
<pdfrwt beam="2">  1       -1 0.23051622E+00 0.17037642E+04</pdfrwt>
<totfact> 0.68900235E-02</totfact>
</mgrwt>
</event>
<event>
12    1  0.3203156E-008  0.7934266E+03  0.7818608E-02  0.9569581E-01
          1   -1    0    0  501    0  0.00000000000E+00  0.00000000000E+00  0.14952621068E+04  0.14952621068E+04  0.00000000000E+00 0. -1.
         -1   -1    0    0    0  501 -0.00000000000E+00 -0.00000000000E+00 -0.49449126066E+03  0.49449126066E+03  0.00000000000E+00 0.  1.
         23    2    1    2    0    0  0.66261895086E+03 -0.25789026368E+03  0.72454843941E+03  0.10192956550E+04  0.91771068617E+02 0.  0.
    5000000    2    1    2    0    0 -0.66261895086E+03  0.25789026368E+03  0.27622240677E+03  0.97045771253E+03  0.59993173917E+03 0.  0.
         23    2    4    4    0    0  0.19992482082E+01 -0.85493210568E+02  0.16051729826E+03  0.20821871192E+03  0.10137131204E+03 0.  0.
         23    2    4    4    0    0 -0.66461819907E+03  0.34338347425E+03  0.11570510851E+03  0.76223900061E+03  0.89392734569E+02 0.  0.
          5    1    3    3  502    0  0.81066810539E+02 -0.57173336564E+02  0.13130407257E+03  0.16463130826E+03  0.47000000000E+01 0. -1.
         -5    1    3    3    0  502  0.58155214032E+03 -0.20071692712E+03  0.59324436684E+03  0.85466434671E+03  0.47000000000E+01 0.  1.
         13    1    5    5    0    0  0.13668399799E+02  0.16313812730E+02  0.64007052437E+02  0.67452712329E+02  0.00000000000E+00 0.  1.
        -13    1    5    5    0    0 -0.11669151591E+02 -0.10180702330E+03  0.96510245827E+02  0.14076599959E+03  0.00000000000E+00 0. -1.
          3    1    6    6  503    0 -0.43609551169E+03  0.21108109241E+03  0.11597334889E+03  0.49818103189E+03  0.00000000000E+00 0. -1.
         -3    1    6    6    0  503 -0.22852268738E+03  0.13230238184E+03 -0.26824038411E+00  0.26405796872E+03  0.00000000000E+00 0.  1.
<mgrwt>
<rscale>  0 0.79342659E+03</rscale>
<asrwt>0</asrwt>
<pdfrwt beam="1">  1        1 0.23004032E+00 0.79342659E+03</pdfrwt>
<pdfrwt beam="2">  1       -1 0.76075580E-01 0.79342659E+03</pdfrwt>
<totfact> 0.11794583E+01</totfact>
</mgrwt>
</event>
<event>
12    1  0.3203156E-008  0.8044739E+03  0.7818608E-02  0.9553564E-01
         -1   -1    0    0    0  501 -0.00000000000E+00  0.00000000000E+00  0.14912359664E+04  0.14912359664E+04  0.00000000000E+00 0.  1.
          1   -1    0    0  501    0  0.00000000000E+00 -0.00000000000E+00 -0.62303717623E+03  0.62303717623E+03  0.00000000000E+00 0. -1.
         23    2    1    2    0    0  0.49103997892E+03  0.57043934591E+03  0.86707700339E+03  0.11517764419E+04  0.90802721075E+02 0.  0.
    5000000    2    1    2    0    0 -0.49103997892E+03 -0.57043934591E+03  0.11217867853E+01  0.96249670068E+03  0.59989776809E+03 0.  0.
         23    2    4    4    0    0 -0.39032849596E+03 -0.16662196527E+03 -0.21534745939E+03  0.48476679202E+03  0.92223100727E+02 0.  0.
         23    2    4    4    0    0 -0.10071148297E+03 -0.40381738063E+03  0.21646924618E+03  0.47772990867E+03  0.90308645161E+02 0.  0.
          5    1    3    3  502    0  0.34798295905E+03  0.45944798354E+03  0.67946872113E+03  0.89100192051E+03  0.47000000000E+01 0. -1.
         -5    1    3    3    0  502  0.14305701987E+03  0.11099136237E+03  0.18760828227E+03  0.26077452144E+03  0.47000000000E+01 0.  1.
         11    1    5    5    0    0 -0.49697434080E+02 -0.32602658814E+01  0.23398967536E+00  0.49804809395E+02  0.00000000000E+00 0.  1.
        -11    1    5    5    0    0 -0.34063106188E+03 -0.16336169939E+03 -0.21558144907E+03  0.43496198262E+03  0.00000000000E+00 0. -1.
          4    1    6    6  503    0 -0.46219688570E+02 -0.32364012244E+03  0.14691801348E+03  0.35841887666E+03  0.00000000000E+00 0. -1.
         -4    1    6    6    0  503 -0.54491794396E+02 -0.80177258199E+02  0.69551232696E+02  0.11931103201E+03  0.00000000000E+00 0.  1.
<mgrwt>
<rscale>  0 0.80447393E+03</rscale>
<asrwt>0</asrwt>
<pdfrwt beam="1">  1        1 0.95851874E-01 0.80447393E+03</pdfrwt>
<pdfrwt beam="2">  1       -1 0.22942092E+00 0.80447393E+03</pdfrwt>
<totfact> 0.31873836E+00</totfact>
</mgrwt>
</event>
<event>
12    1  0.3203156E-008  0.5094564E+03  0.7818608E-02  0.1011340E+00
         -1   -1    0    0    0  501 -0.00000000000E+00  0.00000000000E+00  0.35291057210E+03  0.35291057210E+03  0.00000000000E+00 0.  1.
          1   -1    0    0  501    0  0.00000000000E+00 -0.00000000000E+00 -0.12680347894E+04  0.12680347894E+04  0.00000000000E+00 0. -1.
         23    2    1    2    0    0 -0.14874128625E+03 -0.47138218615E+03 -0.13618508243E+03  0.52047808079E+03  0.89587500518E+02 0.  0.
    5000000    2    1    2    0    0  0.14874128625E+03  0.47138218615E+03 -0.77893913487E+03  0.11004672807E+04  0.59996410263E+03 0.  0.
         23    2    4    4    0    0  0.58344480119E+02  0.13603716131E+03  0.62758753036E+02  0.18561648018E+03  0.92761139572E+02 0.  0.
         23    2    4    4    0    0  0.90396806130E+02  0.33534502484E+03 -0.84169788791E+03  0.91485080054E+03  0.88706169411E+02 0.  0.
          5    1    3    3  502    0 -0.15302244658E+03 -0.37443494201E+03 -0.99102582554E+02  0.41648626247E+03  0.47000000000E+01 0. -1.
         -5    1    3    3    0  502  0.42811603332E+01 -0.96947244146E+02 -0.37082499880E+02  0.10399181833E+03  0.47000000000E+01 0.  1.
         13    1    5    5    0    0  0.16516166375E+02  0.11026227813E+03  0.76034871252E+01  0.11175136127E+03  0.00000000000E+00 0. -1.
        -13    1    5    5    0    0  0.41828313744E+02  0.25774883181E+02  0.55155265911E+02  0.73865118909E+02  0.00000000000E+00 0.  1.
          4    1    6    6  503    0 -0.55571665664E+01  0.12818857314E+03 -0.25943094912E+03  0.28942634598E+03  0.00000000000E+00 0. -1.
         -4    1    6    6    0  503  0.95953972697E+02  0.20715645170E+03 -0.58226693879E+03  0.62542445456E+03  0.00000000000E+00 0.  1.
<mgrwt>
<rscale>  0 0.50945638E+03</rscale>
<asrwt>0</asrwt>
<pdfrwt beam="1">  1        1 0.19508227E+00 0.50945638E+03</pdfrwt>
<pdfrwt beam="2">  1       -1 0.54293935E-01 0.50945638E+03</pdfrwt>
<totfact> 0.34751157E+01</totfact>
</mgrwt>
</event>
<event>
12    1  0.3203156E-008  0.1059004E+04  0.7818608E-02  0.9246097E-01
         -2   -1    0    0    0  501 -0.00000000000E+00  0.00000000000E+00  0.46663916873E+03  0.46663916873E+03  0.00000000000E+00 0. -1.
          2   -1    0    0  501    0  0.00000000000E+00 -0.00000000000E+00 -0.25030815207E+04  0.25030815207E+04  0.00000000000E+00 0.  1.
         23    2    1    2    0    0 -0.98995118515E+03 -0.90840841537E+02 -0.87376166251E+03  0.13265203932E+04  0.89115111845E+02 0.  0.
    5000000    2    1    2    0    0  0.98995118515E+03  0.90840841537E+02 -0.11626806895E+04  0.16432002963E+04  0.60002118342E+03 0.  0.
         23    2    4    4    0    0  0.89822981089E+02 -0.15978062401E+03 -0.33128639624E+03  0.38909124883E+03  0.89684490491E+02 0.  0.
         23    2    4    4    0    0  0.90012820407E+03  0.25062146555E+03 -0.83139429326E+03  0.12541090475E+04  0.92364112902E+02 0.  0.
          5    1    3    3  502    0 -0.54780174593E+03 -0.89060019273E+02 -0.45817413620E+03  0.71969720644E+03  0.47000000000E+01 0. -1.
         -5    1    3    3    0  502 -0.44214943923E+03 -0.17808222637E+01 -0.41558752630E+03  0.60682318673E+03  0.47000000000E+01 0.  1.
         11    1    5    5    0    0  0.49281314130E+02 -0.82208525821E+02 -0.86434041570E+02  0.12906484100E+03  0.00000000000E+00 0.  1.
        -11    1    5    5    0    0  0.40541666959E+02 -0.77572098194E+02 -0.24485235467E+03  0.26002640783E+03  0.00000000000E+00 0. -1.
          3    1    6    6  503    0  0.50487843710E+03  0.10140522652E+03 -0.49161940333E+03  0.71195146881E+03  0.00000000000E+00 0. -1.
         -3    1    6    6    0  503  0.39524976696E+03  0.14921623904E+03 -0.33977488993E+03  0.54215757867E+03  0.00000000000E+00 0.  1.
<mgrwt>
<rscale>  0 0.10590037E+04</rscale>
<asrwt>0</asrwt>
<pdfrwt beam="1">  1        2 0.38508946E+00 0.10590037E+04</pdfrwt>
<pdfrwt beam="2">  1       -2 0.71790642E-01 0.10590037E+04</pdfrwt>
<totfact> 0.61187264E+00</totfact>
</mgrwt>
</event>
<event>
12    1  0.3203156E-008  0.7830485E+03  0.7818608E-02  0.9584883E-01
         -2   -1    0    0    0  501 -0.00000000000E+00  0.00000000000E+00  0.17274635795E+04  0.17274635795E+04  0.00000000000E+00 0.  1.
          2   -1    0    0  501    0  0.00000000000E+00 -0.00000000000E+00 -0.53163326742E+03  0.53163326742E+03  0.00000000000E+00 0. -1.
         23    2    1    2    0    0  0.14159842832E+03 -0.73428142392E+03  0.35864461154E+02  0.75424071128E+03  0.91506647633E+02 0.  0.
    5000000    2    1    2    0    0 -0.14159842832E+03  0.73428142392E+03  0.11599658509E+04  0.15048561356E+04  0.59987656166E+03 0.  0.
         23    2    4    4    0    0 -0.41390792447E+02  0.68950296759E+03  0.57645521098E+03  0.90425346725E+03  0.90808494898E+02 0.  0.
         23    2    4    4    0    0 -0.10020763588E+03  0.44778456332E+02  0.58351063995E+03  0.60060266839E+03  0.90510871765E+02 0.  0.
          5    1    3    3  502    0  0.10338352120E+03 -0.51738823882E+03  0.66596193700E+02  0.53182317094E+03  0.47000000000E+01 0. -1.
         -5    1    3    3    0  502  0.38214907130E+02 -0.21689318510E+03 -0.30731732546E+02  0.22241754035E+03  0.47000000000E+01 0.  1.
         13    1    5    5    0    0 -0.22506530842E+02  0.22766742659E+03  0.24676592763E+03  0.33650025869E+03  0.00000000000E+00 0. -1.
        -13    1    5    5    0    0 -0.18884261605E+02  0.46183554100E+03  0.32968928335E+03  0.56775320856E+03  0.00000000000E+00 0.  1.
          2    1    6    6  503    0 -0.95429813918E+02  0.14501391914E+02  0.29323788673E+03  0.30871604747E+03  0.00000000000E+00 0.  1.
         -2    1    6    6    0  503 -0.47778219604E+01  0.30277064418E+02  0.29027275322E+03  0.29188662092E+03  0.00000000000E+00 0. -1.
<mgrwt>
<rscale>  0 0.78304846E+03</rscale>
<asrwt>0</asrwt>
<pdfrwt beam="1">  1        2 0.81789734E-01 0.78304846E+03</pdfrwt>
<pdfrwt beam="2">  1       -2 0.26576362E+00 0.78304846E+03</pdfrwt>
<totfact> 0.30317875E+00</totfact>
</mgrwt>
</event>
<event>
12    1  0.3203156E-008  0.4799772E+03  0.7818608E-02  0.1019141E+00
         -1   -1    0    0    0  501 -0.00000000000E+00  0.00000000000E+00  0.18688298437E+03  0.18688298437E+03  0.00000000000E+00 0.  1.
          1   -1    0    0  501    0  0.00000000000E+00 -0.00000000000E+00 -0.13302102521E+04  0.13302102521E+04  0.00000000000E+00 0. -1.
         23    2    1    2    0    0  0.33498258237E+02 -0.30528205839E+03 -0.33603435588E+03  0.46497002782E+03  0.94650778968E+02 0.  0.
    5000000    2    1    2    0    0 -0.33498258237E+02  0.30528205839E+03 -0.80729291187E+03  0.10521232087E+04  0.60076795201E+03 0.  0.
         23    2    4    4    0    0 -0.20405071467E+03 -0.68477535539E+02 -0.17255217632E+03  0.29064093050E+03  0.91498797234E+02 0.  0.
         23    2    4    4    0    0  0.17055245644E+03  0.37375959393E+03 -0.63474073554E+03  0.76148227816E+03  0.90416171901E+02 0.  0.
          5    1    3    3  502    0  0.16429662600E+02 -0.13905961501E+03 -0.86623668816E+02  0.16472176644E+03  0.47000000000E+01 0. -1.
         -5    1    3    3    0  502  0.17068595637E+02 -0.16622244338E+03 -0.24941068707E+03  0.30024826138E+03  0.47000000000E+01 0.  1.
         11    1    5    5    0    0 -0.16293066954E+03 -0.89453255037E+02 -0.12280644211E+03  0.22277726575E+03  0.00000000000E+00 0.  1.
        -11    1    5    5    0    0 -0.41120045138E+02  0.20975719498E+02 -0.49745734210E+02  0.67863664746E+02  0.00000000000E+00 0. -1.
          4    1    6    6  503    0  0.16877038919E+02  0.13930162580E+03 -0.20901984786E+03  0.25175200931E+03  0.00000000000E+00 0. -1.
         -4    1    6    6    0  503  0.15367541752E+03  0.23445796813E+03 -0.42572088769E+03  0.50973026885E+03  0.00000000000E+00 0.  1.
<mgrwt>
<rscale>  0 0.47997719E+03</rscale>
<asrwt>0</asrwt>
<pdfrwt beam="1">  1        1 0.20464773E+00 0.47997719E+03</pdfrwt>
<pdfrwt beam="2">  1       -1 0.28751228E-01 0.47997719E+03</pdfrwt>
<totfact> 0.99554701E+01</totfact>
</mgrwt>
</event>
<event>
12    1  0.3203156E-008  0.1079931E+04  0.7818608E-02  0.9224977E-01
         -2   -1    0    0    0  501 -0.00000000000E+00  0.00000000000E+00  0.14425371728E+04  0.14425371728E+04  0.00000000000E+00 0. -1.
          2   -1    0    0  501    0  0.00000000000E+00 -0.00000000000E+00 -0.11814138430E+04  0.11814138430E+04  0.00000000000E+00 0.  1.
         23    2    1    2    0    0  0.69899473207E+03 -0.81019061967E+03 -0.49534561458E+03  0.11827324105E+04  0.92120579970E+02 0.  0.
    5000000    2    1    2    0    0 -0.69899473207E+03  0.81019061967E+03  0.75646894441E+03  0.14412186054E+04  0.59988609667E+03 0.  0.
         23    2    4    4    0    0 -0.22838540814E+03  0.16782592889E+03 -0.53079531606E+02  0.30206191669E+03  0.89991820633E+02 0.  0.
         23    2    4    4    0    0 -0.47060932393E+03  0.64236469078E+03  0.80954847602E+03  0.11391566887E+04  0.90574249301E+02 0.  0.
          5    1    3    3  502    0  0.46799098919E+03 -0.53349083922E+03 -0.37516291614E+03  0.80274363600E+03  0.47000000000E+01 0. -1.
         -5    1    3    3    0  502  0.23100374288E+03 -0.27669978045E+03 -0.12018269844E+03  0.37998877448E+03  0.47000000000E+01 0.  1.
         13    1    5    5    0    0 -0.86981381942E+02  0.32524486135E+02  0.16569392660E+02  0.94329994042E+02  0.00000000000E+00 0. -1.
        -13    1    5    5    0    0 -0.14140402620E+03  0.13530144275E+03 -0.69648924266E+02  0.20773192265E+03  0.00000000000E+00 0.  1.
          1    1    6    6  503    0 -0.27232347731E+02  0.10427025375E+02  0.23743370102E+02  0.37604138668E+02  0.00000000000E+00 0. -1.
         -1    1    6    6    0  503 -0.44337697620E+03  0.63193766541E+03  0.78580510591E+03  0.11015525500E+04  0.00000000000E+00 0.  1.
<mgrwt>
<rscale>  0 0.10799305E+04</rscale>
<asrwt>0</asrwt>
<pdfrwt beam="1">  1        2 0.18175598E+00 0.10799305E+04</pdfrwt>
<pdfrwt beam="2">  1       -2 0.22192880E+00 0.10799305E+04</pdfrwt>
<totfact> 0.18382278E+00</totfact>
</mgrwt>
</event>
<event>
12    1  0.3203156E-008  0.8356698E+03  0.7818608E-02  0.9509775E-01
         -2   -1    0    0    0  501 -0.00000000000E+00  0.00000000000E+00  0.46564585789E+03  0.46564585789E+03  0.00000000000E+00 0. -1.
          2   -1    0    0  501    0  0.00000000000E+00 -0.00000000000E+00 -0.20650188501E+04  0.20650188501E+04  0.00000000000E+00 0.  1.
         23    2    1    2    0    0 -0.53105490400E+03  0.55771105570E+03 -0.12927519812E+04  0.15074232687E+04  0.89756857232E+02 0.  0.
    5000000    2    1    2    0    0  0.53105490400E+03 -0.55771105570E+03 -0.30662101099E+03  0.10232414393E+04  0.59995471992E+03 0.  0.
         23    2    4    4    0    0  0.40704429541E+03 -0.11427745538E+03  0.50037363878E+02  0.43532482511E+03  0.90882178362E+02 0.  0.
         23    2    4    4    0    0  0.12401060859E+03 -0.44343360032E+03 -0.35665837487E+03  0.58791661416E+03  0.80179547930E+02 0.  0.
          5    1    3    3  502    0 -0.40492690408E+03  0.46174743695E+03 -0.10748297073E+04  0.12379246677E+04  0.47000000000E+01 0. -1.
         -5    1    3    3    0  502 -0.12612799992E+03  0.95963618753E+02 -0.21792227392E+03  0.26949860103E+03  0.47000000000E+01 0.  1.
         13    1    5    5    0    0  0.61867439846E+02  0.15278062358E+02  0.90162759857E+01  0.64360644303E+02  0.00000000000E+00 0.  1.
        -13    1    5    5    0    0  0.34517685556E+03 -0.12955551774E+03  0.41021087892E+02  0.37096418081E+03  0.00000000000E+00 0. -1.
          2    1    6    6  503    0  0.11690399907E+03 -0.29096873321E+03 -0.22006104859E+03  0.38308773644E+03  0.00000000000E+00 0. -1.
         -2    1    6    6    0  503  0.71066095216E+01 -0.15246486712E+03 -0.13659732628E+03  0.20482887772E+03  0.00000000000E+00 0.  1.
<mgrwt>
<rscale>  0 0.83566980E+03</rscale>
<asrwt>0</asrwt>
<pdfrwt beam="1">  1        2 0.31769521E+00 0.83566980E+03</pdfrwt>
<pdfrwt beam="2">  1       -2 0.71637824E-01 0.83566980E+03</pdfrwt>
<totfact> 0.11123457E+01</totfact>
</mgrwt>
</event>
<event>
12    1  0.3203156E-008  0.6374389E+03  0.7818608E-02  0.9830639E-01
          2   -1    0    0  501    0  0.00000000000E+00  0.00000000000E+00  0.18354696554E+04  0.18354696554E+04  0.00000000000E+00 0. -1.
         -2   -1    0    0    0  501 -0.00000000000E+00 -0.00000000000E+00 -0.36487135616E+03  0.36487135616E+03  0.00000000000E+00 0.  1.
         23    2    1    2    0    0 -0.58556045298E+03 -0.82053082278E+02  0.11558494737E+04  0.13010962551E+04  0.85145210071E+02 0.  0.
    5000000    2    1    2    0    0  0.58556045298E+03  0.82053082278E+02  0.31474882552E+03  0.89924475644E+03  0.59996712944E+03 0.  0.
         23    2    4    4    0    0  0.52792960597E+03  0.15015000811E+03 -0.35123746227E+01  0.55617472464E+03  0.89795844859E+02 0.  0.
         23    2    4    4    0    0  0.57630847009E+02 -0.68096925828E+02  0.31826120015E+03  0.34307003180E+03  0.91914902852E+02 0.  0.
          5    1    3    3  502    0 -0.43598767867E+02 -0.12252439137E+02  0.14519710267E+03  0.15216853633E+03  0.47000000000E+01 0. -1.
         -5    1    3    3    0  502 -0.54196168511E+03 -0.69800643142E+02  0.10106523711E+04  0.11489277188E+04  0.47000000000E+01 0.  1.
         13    1    5    5    0    0  0.34372383719E+03  0.53702797540E+02 -0.11640573884E+02  0.34808845094E+03  0.00000000000E+00 0. -1.
        -13    1    5    5    0    0  0.18420576878E+03  0.96447210567E+02  0.81281992616E+01  0.20808627370E+03  0.00000000000E+00 0.  1.
          4    1    6    6  503    0  0.69478253223E+02 -0.82862636884E+02  0.25355133715E+03  0.27564782755E+03  0.00000000000E+00 0. -1.
         -4    1    6    6    0  503 -0.11847406213E+02  0.14765711055E+02  0.64709862999E+02  0.67422204253E+02  0.00000000000E+00 0.  1.
<mgrwt>
<rscale>  0 0.63743890E+03</rscale>
<asrwt>0</asrwt>
<pdfrwt beam="1">  1        2 0.28237994E+00 0.63743890E+03</pdfrwt>
<pdfrwt beam="2">  1       -2 0.56134056E-01 0.63743890E+03</pdfrwt>
<totfact> 0.25704673E+01</totfact>
</mgrwt>
</event>
<event>
12    1  0.3203156E-008  0.6122915E+03  0.7818608E-02  0.9880228E-01
         -2   -1    0    0    0  501 -0.00000000000E+00  0.00000000000E+00  0.29654199976E+03  0.29654199976E+03  0.00000000000E+00 0.  1.
          2   -1    0    0  501    0  0.00000000000E+00 -0.00000000000E+00 -0.13849042232E+04  0.13849042232E+04  0.00000000000E+00 0. -1.
         23    2    1    2    0    0  0.13258150986E+03  0.47408266027E+03 -0.35548572285E+03  0.61405765978E+03  0.91457557731E+02 0.  0.
    5000000    2    1    2    0    0 -0.13258150986E+03 -0.47408266027E+03 -0.73287650055E+03  0.10673885631E+04  0.59989845318E+03 0.  0.
         23    2    4    4    0    0  0.19731974472E+03 -0.20984109470E+03 -0.13869361787E+03  0.33258717891E+03  0.91705753656E+02 0.  0.
         23    2    4    4    0    0 -0.32990125458E+03 -0.26424156556E+03 -0.59418288269E+03  0.73480138423E+03  0.90671569101E+02 0.  0.
          5    1    3    3  502    0  0.13583839277E+03  0.38403514844E+03 -0.26328390891E+03  0.48505213213E+03  0.47000000000E+01 0. -1.
         -5    1    3    3    0  502 -0.32568829129E+01  0.90047511824E+02 -0.92201813939E+02  0.12900552765E+03  0.47000000000E+01 0.  1.
         11    1    5    5    0    0  0.85895204627E+02 -0.33143546429E+02 -0.28319562593E+02  0.96324859061E+02  0.00000000000E+00 0.  1.
        -11    1    5    5    0    0  0.11142454010E+03 -0.17669754828E+03 -0.11037405528E+03  0.23626231985E+03  0.00000000000E+00 0. -1.
          1    1    6    6  503    0 -0.25021651565E+03 -0.22783757178E+03 -0.51778338928E+03  0.61856115464E+03  0.00000000000E+00 0.  1.
         -1    1    6    6    0  503 -0.79684738929E+02 -0.36403993780E+02 -0.76399493407E+02  0.11624022959E+03  0.00000000000E+00 0. -1.
<mgrwt>
<rscale>  0 0.61229145E+03</rscale>
<asrwt>0</asrwt>
<pdfrwt beam="1">  1        2 0.21306218E+00 0.61229145E+03</pdfrwt>
<pdfrwt beam="2">  1       -2 0.45621847E-01 0.61229145E+03</pdfrwt>
<totfact> 0.69516426E+01</totfact>
</mgrwt>
</event>
<event>
12    1  0.3203156E-008  0.1065952E+04  0.7818608E-02  0.9239028E-01
          1   -1    0    0  501    0  0.00000000000E+00  0.00000000000E+00  0.16919043157E+04  0.16919043157E+04  0.00000000000E+00 0. -1.
         -1   -1    0    0    0  501 -0.00000000000E+00 -0.00000000000E+00 -0.12064962903E+04  0.12064962903E+04  0.00000000000E+00 0.  1.
         23    2    1    2    0    0 -0.41559310421E+03 -0.97175561373E+03  0.11071069361E+04  0.15332778023E+04  0.90710804376E+02 0.  0.
    5000000    2    1    2    0    0  0.41559310421E+03  0.97175561373E+03 -0.62169891074E+03  0.13651228037E+04  0.60002011012E+03 0.  0.
         23    2    4    4    0    0  0.12013459547E+03  0.38715059812E+03 -0.56562432125E+03  0.70194133961E+03  0.92048165763E+02 0.  0.
         23    2    4    4    0    0  0.29545850875E+03  0.58460501560E+03 -0.56074589493E+02  0.66318146411E+03  0.87215480789E+02 0.  0.
          5    1    3    3  502    0 -0.27489997263E+03 -0.54588515997E+03  0.67178495435E+03  0.90822778956E+03  0.47000000000E+01 0. -1.
         -5    1    3    3    0  502 -0.14069313158E+03 -0.42587045375E+03  0.43532198177E+03  0.62505001277E+03  0.47000000000E+01 0.  1.
         11    1    5    5    0    0  0.12176622191E+03  0.24801517855E+03 -0.38736779138E+03  0.47580704848E+03  0.00000000000E+00 0. -1.
        -11    1    5    5    0    0 -0.16316264441E+01  0.13913541958E+03 -0.17825652987E+03  0.22613429113E+03  0.00000000000E+00 0.  1.
          4    1    6    6  503    0  0.21887853864E+03  0.47505664630E+03 -0.74218097825E+02  0.52829438566E+03  0.00000000000E+00 0.  1.
         -4    1    6    6    0  503  0.76579970105E+02  0.10954836930E+03  0.18143508332E+02  0.13488707845E+03  0.00000000000E+00 0. -1.
<mgrwt>
<rscale>  0 0.10659516E+04</rscale>
<asrwt>0</asrwt>
<pdfrwt beam="1">  1        1 0.26029297E+00 0.10659516E+04</pdfrwt>
<pdfrwt beam="2">  1       -1 0.18561481E+00 0.10659516E+04</pdfrwt>
<totfact> 0.91448491E-01</totfact>
</mgrwt>
</event>
<event>
12    1  0.3203156E-008  0.1062098E+04  0.7818608E-02  0.9242942E-01
          1   -1    0    0  501    0  0.00000000000E+00  0.00000000000E+00  0.34834983224E+04  0.34834983224E+04  0.00000000000E+00 0. -1.
         -1   -1    0    0    0  501 -0.00000000000E+00 -0.00000000000E+00 -0.33091060568E+03  0.33091060568E+03  0.00000000000E+00 0.  1.
         23    2    1    2    0    0  0.31148003120E+03 -0.93719652844E+03  0.14457362273E+04  0.17531932999E+04  0.90423255337E+02 0.  0.
    5000000    2    1    2    0    0 -0.31148003120E+03  0.93719652844E+03  0.17068514894E+04  0.20612156281E+04  0.59992559222E+03 0.  0.
         23    2    4    4    0    0 -0.93252858166E+02  0.90531456853E+03  0.13078191124E+04  0.15960182214E+04  0.92697189218E+02 0.  0.
         23    2    4    4    0    0 -0.21822717303E+03  0.31881959903E+02  0.39903237699E+03  0.46519740671E+03  0.92424190066E+02 0.  0.
          5    1    3    3  502    0  0.21168687588E+03 -0.73545109616E+03  0.10787481715E+04  0.13226561744E+04  0.47000000000E+01 0. -1.
         -5    1    3    3    0  502  0.99793155315E+02 -0.20174543228E+03  0.36698805585E+03  0.43053712550E+03  0.47000000000E+01 0.  1.
         11    1    5    5    0    0 -0.26108378602E+02  0.60101388429E+03  0.90572184576E+03  0.10873046484E+04  0.00000000000E+00 0.  1.
        -11    1    5    5    0    0 -0.67144479564E+02  0.30430068424E+03  0.40209726661E+03  0.50871357303E+03  0.00000000000E+00 0. -1.
          3    1    6    6  503    0 -0.18985620979E+03  0.27810165926E+02  0.25941498439E+03  0.32266843640E+03  0.00000000000E+00 0. -1.
         -3    1    6    6    0  503 -0.28370963247E+02  0.40717939771E+01  0.13961739260E+03  0.14252897032E+03  0.00000000000E+00 0.  1.
<mgrwt>
<rscale>  0 0.10620981E+04</rscale>
<asrwt>0</asrwt>
<pdfrwt beam="1">  1        1 0.53592279E+00 0.10620981E+04</pdfrwt>
<pdfrwt beam="2">  1       -1 0.50909326E-01 0.10620981E+04</pdfrwt>
<totfact> 0.10272411E+00</totfact>
</mgrwt>
</event>
<event>
12    1  0.3203156E-008  0.5505121E+03  0.7818608E-02  0.1001375E+00
         -2   -1    0    0    0  501 -0.00000000000E+00  0.00000000000E+00  0.11250448157E+04  0.11250448157E+04  0.00000000000E+00 0.  1.
          2   -1    0    0  501    0  0.00000000000E+00 -0.00000000000E+00 -0.35548901895E+03  0.35548901895E+03  0.00000000000E+00 0. -1.
         23    2    1    2    0    0 -0.26643554911E+03 -0.39179581648E+03  0.17927890767E+03  0.51476920354E+03  0.91403186709E+02 0.  0.
    5000000    2    1    2    0    0  0.26643554911E+03  0.39179581648E+03  0.59027688910E+03  0.96576463112E+03  0.59981885038E+03 0.  0.
         23    2    4    4    0    0  0.37170502752E+03  0.27532979782E+03  0.15758749798E+03  0.49664671859E+03  0.88617258579E+02 0.  0.
         23    2    4    4    0    0 -0.10526947841E+03  0.11646601866E+03  0.43268939111E+03  0.46911791253E+03  0.90584270609E+02 0.  0.
          5    1    3    3  502    0 -0.16029536267E+03 -0.16138363187E+03  0.10365623889E+03  0.25001197129E+03  0.47000000000E+01 0. -1.
         -5    1    3    3    0  502 -0.10614018643E+03 -0.23041218462E+03  0.75622668784E+02  0.26475723225E+03  0.47000000000E+01 0.  1.
         11    1    5    5    0    0  0.18883900412E+03  0.13508631578E+03  0.32531927166E+02  0.23445001274E+03  0.00000000000E+00 0.  1.
        -11    1    5    5    0    0  0.18286602340E+03  0.14024348205E+03  0.12505557082E+03  0.26219670586E+03  0.00000000000E+00 0. -1.
          3    1    6    6  503    0 -0.26289198836E+02  0.33804217632E+02  0.24972970655E+03  0.25337476874E+03  0.00000000000E+00 0. -1.
         -3    1    6    6    0  503 -0.78980279573E+02  0.82661801028E+02  0.18295968457E+03  0.21574314378E+03  0.00000000000E+00 0.  1.
<mgrwt>
<rscale>  0 0.55051208E+03</rscale>
<asrwt>0</asrwt>
<pdfrwt beam="1">  1        2 0.54690619E-01 0.55051208E+03</pdfrwt>
<pdfrwt beam="2">  1       -2 0.17308382E+00 0.55051208E+03</pdfrwt>
<totfact> 0.19041820E+01</totfact>
</mgrwt>
</event>
<event>
12    1  0.3203156E-008  0.7138772E+03  0.7818608E-02  0.9693790E-01
          1   -1    0    0  501    0  0.00000000000E+00  0.00000000000E+00  0.96228505874E+03  0.96228505874E+03  0.00000000000E+00 0. -1.
         -1   -1    0    0    0  501 -0.00000000000E+00 -0.00000000000E+00 -0.69772444032E+03  0.69772444032E+03  0.00000000000E+00 0.  1.
         23    2    1    2    0    0 -0.57104225441E+03 -0.32260883703E+03 -0.15389899474E+03  0.67756668436E+03  0.72429228384E+02 0.  0.
    5000000    2    1    2    0    0  0.57104225441E+03  0.32260883703E+03  0.41845961316E+03  0.98244281470E+03  0.59993309482E+03 0.  0.
         23    2    4    4    0    0  0.62440727874E+03  0.33998793341E+03  0.48042879366E+03  0.86286049302E+03  0.90775327159E+02 0.  0.
         23    2    4    4    0    0 -0.53365024329E+02 -0.17379096381E+02 -0.61969180507E+02  0.11958232168E+03  0.85497915259E+02 0.  0.
          5    1    3    3  502    0 -0.11081827101E+03 -0.68960995089E+02 -0.59995484546E+02  0.14372841125E+03  0.47000000000E+01 0. -1.
         -5    1    3    3    0  502 -0.46022398340E+03 -0.25364784194E+03 -0.93903510196E+02  0.53383827311E+03  0.47000000000E+01 0.  1.
         11    1    5    5    0    0  0.15859893300E+03  0.53455817630E+02  0.82955213858E+02  0.18679591402E+03  0.00000000000E+00 0.  1.
        -11    1    5    5    0    0  0.46580834574E+03  0.28653211578E+03  0.39747357981E+03  0.67606457900E+03  0.00000000000E+00 0. -1.
          2    1    6    6  503    0 -0.40942114281E+02 -0.18470946220E+02  0.10434964097E+02  0.46112048879E+02  0.00000000000E+00 0. -1.
         -2    1    6    6    0  503 -0.12422910047E+02  0.10918498383E+01 -0.72404144603E+02  0.73470272804E+02  0.00000000000E+00 0.  1.
<mgrwt>
<rscale>  0 0.71387725E+03</rscale>
<asrwt>0</asrwt>
<pdfrwt beam="1">  1        1 0.14804385E+00 0.71387725E+03</pdfrwt>
<pdfrwt beam="2">  1       -1 0.10734222E+00 0.71387725E+03</pdfrwt>
<totfact> 0.13569242E+01</totfact>
</mgrwt>
</event>
<event>
12    1  0.3203156E-008  0.6125727E+03  0.7818608E-02  0.9879660E-01
          2   -1    0    0  501    0  0.00000000000E+00  0.00000000000E+00  0.34038963347E+04  0.34038963347E+04  0.00000000000E+00 0. -1.
         -2   -1    0    0    0  501 -0.00000000000E+00 -0.00000000000E+00 -0.18561652094E+03  0.18561652094E+03  0.00000000000E+00 0.  1.
         23    2    1    2    0    0 -0.30862266124E+03 -0.35712846823E+03  0.28513456490E+03  0.55862244158E+03  0.89267140017E+02 0.  0.
    5000000    2    1    2    0    0  0.30862266124E+03  0.35712846823E+03  0.29331452489E+04  0.30308904140E+04  0.60013911823E+03 0.  0.
         23    2    4    4    0    0  0.20498395392E+03 -0.12501487110E+03  0.11895799507E+04  0.12169823110E+04  0.91095261918E+02 0.  0.
         23    2    4    4    0    0  0.10363870732E+03  0.48214333934E+03  0.17435652981E+04  0.18139081031E+04  0.83901586142E+02 0.  0.
          5    1    3    3  502    0 -0.20879038672E+03 -0.19649675254E+03  0.20833361367E+03  0.35444235629E+03  0.47000000000E+01 0. -1.
         -5    1    3    3    0  502 -0.99832274523E+02 -0.16063171569E+03  0.76800951229E+02  0.20418008530E+03  0.47000000000E+01 0.  1.
         13    1    5    5    0    0  0.15162182279E+03 -0.55585174746E+02  0.90285364323E+03  0.91718241909E+03  0.00000000000E+00 0. -1.
        -13    1    5    5    0    0  0.53362131129E+02 -0.69429696355E+02  0.28672630750E+03  0.29979989190E+03  0.00000000000E+00 0.  1.
          4    1    6    6  503    0  0.11625902418E+03  0.46181911417E+03  0.16672638668E+04  0.17339440177E+04  0.00000000000E+00 0. -1.
         -4    1    6    6    0  503 -0.12620316863E+02  0.20324225167E+02  0.76301431358E+02  0.79964085398E+02  0.00000000000E+00 0.  1.
<mgrwt>
<rscale>  0 0.61257272E+03</rscale>
<asrwt>0</asrwt>
<pdfrwt beam="1">  1        2 0.52367631E+00 0.61257272E+03</pdfrwt>
<pdfrwt beam="2">  1       -2 0.28556390E-01 0.61257272E+03</pdfrwt>
<totfact> 0.11781613E+01</totfact>
</mgrwt>
</event>
<event>
12    1  0.3203156E-008  0.5174520E+03  0.7818608E-02  0.1009321E+00
          2   -1    0    0  501    0  0.00000000000E+00  0.00000000000E+00  0.20760888557E+04  0.20760888557E+04  0.00000000000E+00 0. -1.
         -2   -1    0    0    0  501 -0.00000000000E+00 -0.00000000000E+00 -0.14404897437E+04  0.14404897437E+04  0.00000000000E+00 0.  1.
         23    2    1    2    0    0 -0.24012646522E+03 -0.36548591824E+03  0.19535254302E+04  0.20038979583E+04  0.90026356554E+02 0.  0.
    5000000    2    1    2    0    0  0.24012646522E+03  0.36548591824E+03 -0.13179263182E+04  0.15126806411E+04  0.60002688771E+03 0.  0.
         23    2    4    4    0    0  0.24707605304E+03  0.41177317296E+03 -0.13217386570E+04  0.14093017861E+04  0.92383575900E+02 0.  0.
         23    2    4    4    0    0 -0.69495878161E+01 -0.46287254720E+02  0.38123387945E+01  0.10337885494E+03  0.92096943490E+02 0.  0.
          5    1    3    3  502    0 -0.67485361830E+02 -0.18318368815E+03  0.83515177281E+03  0.85767774327E+03  0.47000000000E+01 0. -1.
         -5    1    3    3    0  502 -0.17264110339E+03 -0.18230223010E+03  0.11183736574E+04  0.11462202150E+04  0.47000000000E+01 0.  1.
         13    1    5    5    0    0  0.23916270220E+03  0.35604728731E+03 -0.11036133919E+04  0.11840316667E+04  0.00000000000E+00 0.  1.
        -13    1    5    5    0    0  0.79133508373E+01  0.55725885648E+02 -0.21812526505E+03  0.22527011943E+03  0.00000000000E+00 0. -1.
          3    1    6    6  503    0 -0.29889216750E+02  0.18109562332E+02  0.11391395231E+01  0.34965971525E+02  0.00000000000E+00 0. -1.
         -3    1    6    6    0  503  0.22939628934E+02 -0.64396817053E+02  0.26731992714E+01  0.68412883410E+02  0.00000000000E+00 0.  1.
<mgrwt>
<rscale>  0 0.51745200E+03</rscale>
<asrwt>0</asrwt>
<pdfrwt beam="1">  1        2 0.31939828E+00 0.51745200E+03</pdfrwt>
<pdfrwt beam="2">  1       -2 0.22161381E+00 0.51745200E+03</pdfrwt>
<totfact> 0.65352337E-01</totfact>
</mgrwt>
</event>
<event>
12    1  0.3203156E-008  0.8450887E+03  0.7818608E-02  0.9496953E-01
          2   -1    0    0  501    0  0.00000000000E+00  0.00000000000E+00  0.20800625263E+04  0.20800625263E+04  0.00000000000E+00 0. -1.
         -2   -1    0    0    0  501 -0.00000000000E+00 -0.00000000000E+00 -0.34814674048E+03  0.34814674048E+03  0.00000000000E+00 0.  1.
         23    2    1    2    0    0  0.57633884833E+03 -0.46733313631E+03  0.77373784653E+03  0.10758963152E+04  0.91191543416E+02 0.  0.
    5000000    2    1    2    0    0 -0.57633884833E+03  0.46733313631E+03  0.95817793929E+03  0.13523129515E+04  0.60006551908E+03 0.  0.
         23    2    4    4    0    0  0.70751450349E+02 -0.40870680093E+02  0.90936514537E+02  0.15323024729E+03  0.92378995393E+02 0.  0.
         23    2    4    4    0    0 -0.64709029868E+03  0.50820381640E+03  0.86724142475E+03  0.11990827043E+04  0.93245210022E+02 0.  0.
          5    1    3    3  502    0  0.13893215699E+03 -0.68925248185E+02  0.14162515233E+03  0.21007762340E+03  0.47000000000E+01 0.  1.
         -5    1    3    3    0  502  0.43740669134E+03 -0.39840788812E+03  0.63211269420E+03  0.86581869183E+03  0.47000000000E+01 0. -1.
         13    1    5    5    0    0 -0.20568851127E+02 -0.14965025023E+02  0.66626139547E+01  0.26294867091E+02  0.00000000000E+00 0.  1.
        -13    1    5    5    0    0  0.91320301476E+02 -0.25905655070E+02  0.84273900583E+02  0.12693538020E+03  0.00000000000E+00 0. -1.
          3    1    6    6  503    0 -0.23607606651E+03  0.17475074287E+03  0.37460442634E+03  0.47602332669E+03  0.00000000000E+00 0. -1.
         -3    1    6    6    0  503 -0.41101423217E+03  0.33345307353E+03  0.49263699841E+03  0.72305937757E+03  0.00000000000E+00 0.  1.
<mgrwt>
<rscale>  0 0.84508870E+03</rscale>
<asrwt>0</asrwt>
<pdfrwt beam="1">  1        2 0.32000961E+00 0.84508870E+03</pdfrwt>
<pdfrwt beam="2">  1       -2 0.53561038E-01 0.84508870E+03</pdfrwt>
<totfact> 0.20255074E+01</totfact>
</mgrwt>
</event>
<event>
12    1  0.3203156E-008  0.4946854E+03  0.7818608E-02  0.1015175E+00
          1   -1    0    0  501    0  0.00000000000E+00  0.00000000000E+00  0.17531615446E+04  0.17531615446E+04  0.00000000000E+00 0. -1.
         -1   -1    0    0    0  501 -0.00000000000E+00 -0.00000000000E+00 -0.28301779634E+03  0.28301779634E+03  0.00000000000E+00 0.  1.
         23    2    1    2    0    0  0.48378822444E+03 -0.74949038270E+02  0.10347782836E+04  0.11478098111E+04  0.83862160019E+02 0.  0.
    5000000    2    1    2    0    0 -0.48378822444E+03  0.74949038270E+02  0.43536546474E+03  0.88836952988E+03  0.59999077434E+03 0.  0.
         23    2    4    4    0    0 -0.16740217801E+03  0.76503985752E+01 -0.12949478732E+03  0.23101552684E+03  0.92288980384E+02 0.  0.
         23    2    4    4    0    0 -0.31638604644E+03  0.67298639695E+02  0.56486025206E+03  0.65735400304E+03  0.91749352423E+02 0.  0.
          5    1    3    3  502    0  0.12877105532E+03 -0.50174675013E+02  0.34350251092E+03  0.37029116612E+03  0.47000000000E+01 0. -1.
         -5    1    3    3    0  502  0.35501716913E+03 -0.24774363257E+02  0.69127577265E+03  0.77751864499E+03  0.47000000000E+01 0.  1.
         11    1    5    5    0    0 -0.94739977304E+02 -0.14026775365E+02 -0.12158832267E+03  0.15477769198E+03  0.00000000000E+00 0.  1.
        -11    1    5    5    0    0 -0.72662200702E+02  0.21677173940E+02 -0.79064646528E+01  0.76237834860E+02  0.00000000000E+00 0. -1.
          4    1    6    6  503    0 -0.29130624448E+03  0.59562208406E+02  0.44875792733E+03  0.53832208025E+03  0.00000000000E+00 0. -1.
         -4    1    6    6    0  503 -0.25079801956E+02  0.77364312888E+01  0.11610232473E+03  0.11903192279E+03  0.00000000000E+00 0.  1.
<mgrwt>
<rscale>  0 0.49468543E+03</rscale>
<asrwt>0</asrwt>
<pdfrwt beam="1">  1        1 0.26971715E+00 0.49468543E+03</pdfrwt>
<pdfrwt beam="2">  1       -1 0.43541201E-01 0.49468543E+03</pdfrwt>
<totfact> 0.24671445E+01</totfact>
</mgrwt>
</event>
<event>
12    1  0.3203156E-008  0.5148028E+03  0.7818608E-02  0.1009986E+00
          1   -1    0    0  501    0  0.00000000000E+00  0.00000000000E+00  0.71372816990E+03  0.71372816990E+03  0.00000000000E+00 0. -1.
         -1   -1    0    0    0  501 -0.00000000000E+00 -0.00000000000E+00 -0.44330631566E+03  0.44330631566E+03  0.00000000000E+00 0.  1.
         23    2    1    2    0    0  0.16869453407E+03  0.30671132372E+03  0.28721367647E+03  0.46222026133E+03  0.92877295988E+02 0.  0.
    5000000    2    1    2    0    0 -0.16869453407E+03 -0.30671132372E+03 -0.16791822228E+02  0.69481422423E+03  0.59996263131E+03 0.  0.
         23    2    4    4    0    0 -0.36406418908E+03 -0.87288462269E+02 -0.29439051165E+02  0.38652196110E+03  0.91490760532E+02 0.  0.
         23    2    4    4    0    0  0.19536965501E+03 -0.21942286145E+03  0.12647228937E+02  0.30829226313E+03  0.92566046022E+02 0.  0.
          5    1    3    3  502    0  0.31365375346E+02  0.81125485318E+02  0.26408571898E+02  0.91019963791E+02  0.47000000000E+01 0. -1.
         -5    1    3    3    0  502  0.13732915872E+03  0.22558583840E+03  0.26080510457E+03  0.37120029754E+03  0.47000000000E+01 0.  1.
         11    1    5    5    0    0 -0.27071998708E+03 -0.70026798880E+02  0.18374909639E+02  0.28023329794E+03  0.00000000000E+00 0. -1.
        -11    1    5    5    0    0 -0.93344202000E+02 -0.17261663390E+02 -0.47813960804E+02  0.10628866317E+03  0.00000000000E+00 0.  1.
          4    1    6    6  503    0  0.18845644999E+03 -0.16969996262E+03 -0.86758538690E+01  0.25375023409E+03  0.00000000000E+00 0.  1.
         -4    1    6    6    0  503  0.69132050206E+01 -0.49722898826E+02  0.21323082806E+02  0.54542029039E+02  0.00000000000E+00 0. -1.
<mgrwt>
<rscale>  0 0.51480279E+03</rscale>
<asrwt>0</asrwt>
<pdfrwt beam="1">  1        1 0.10980433E+00 0.51480279E+03</pdfrwt>
<pdfrwt beam="2">  1       -1 0.68200972E-01 0.51480279E+03</pdfrwt>
<totfact> 0.60247479E+01</totfact>
</mgrwt>
</event>
<event>
12    1  0.3203156E-008  0.2172044E+04  0.7818608E-02  0.8530155E-01
         -2   -1    0    0    0  501 -0.00000000000E+00  0.00000000000E+00  0.14277628637E+04  0.14277628637E+04  0.00000000000E+00 0.  1.
          2   -1    0    0  501    0  0.00000000000E+00 -0.00000000000E+00 -0.34289904703E+04  0.34289904703E+04  0.00000000000E+00 0. -1.
         23    2    1    2    0    0  0.10973269571E+04  0.18727127169E+04 -0.10308927238E+04  0.24046637152E+04  0.92132538220E+02 0.  0.
    5000000    2    1    2    0    0 -0.10973269571E+04 -0.18727127169E+04 -0.97033488287E+03  0.24520896188E+04  0.60001195215E+03 0.  0.
         23    2    4    4    0    0 -0.87638407576E+03 -0.14762552249E+04 -0.99908976710E+03  0.19884707138E+04  0.91961292847E+02 0.  0.
         23    2    4    4    0    0 -0.22094288138E+03 -0.39645749195E+03  0.28754884229E+02  0.46361890500E+03  0.90118510632E+02 0.  0.
          5    1    3    3  502    0  0.51990569186E+03  0.86306160066E+03 -0.52731591387E+03  0.11372165220E+04  0.47000000000E+01 0. -1.
         -5    1    3    3    0  502  0.57742126528E+03  0.10096511162E+04 -0.50357680992E+03  0.12674471932E+04  0.47000000000E+01 0.  1.
         13    1    5    5    0    0 -0.22430062589E+03 -0.36440729493E+03 -0.20436303240E+03  0.47420216827E+03  0.00000000000E+00 0.  1.
        -13    1    5    5    0    0 -0.65208344987E+03 -0.11118479300E+04 -0.79472673470E+03  0.15142685455E+04  0.00000000000E+00 0. -1.
          2    1    6    6  503    0 -0.25532118278E+02 -0.20181137442E+02  0.22527718083E+02  0.39581124974E+02  0.00000000000E+00 0. -1.
         -2    1    6    6    0  503 -0.19541076310E+03 -0.37627635451E+03  0.62271661459E+01  0.42403778003E+03  0.00000000000E+00 0.  1.
<mgrwt>
<rscale>  0 0.21720438E+04</rscale>
<asrwt>0</asrwt>
<pdfrwt beam="1">  1        2 0.52753699E+00 0.21720438E+04</pdfrwt>
<pdfrwt beam="2">  1       -2 0.21965583E+00 0.21720438E+04</pdfrwt>
<totfact> 0.79282636E-02</totfact>
</mgrwt>
</event>
<event>
12    1  0.3203156E-008  0.5532270E+03  0.7818608E-02  0.1000750E+00
          2   -1    0    0  501    0  0.00000000000E+00  0.00000000000E+00  0.11789364278E+04  0.11789364278E+04  0.00000000000E+00 0. -1.
         -2   -1    0    0    0  501 -0.00000000000E+00 -0.00000000000E+00 -0.85621488620E+03  0.85621488620E+03  0.00000000000E+00 0.  1.
         23    2    1    2    0    0 -0.37810602815E+03 -0.36289491969E+03 -0.60908177312E+03  0.80875741826E+03  0.91929668663E+02 0.  0.
    5000000    2    1    2    0    0  0.37810602815E+03  0.36289491969E+03  0.93180331473E+03  0.12263938958E+04  0.60093899770E+03 0.  0.
         23    2    4    4    0    0  0.82211309603E+02  0.22509854776E+03  0.83457623336E+03  0.87300171204E+03  0.90478971658E+02 0.  0.
         23    2    4    4    0    0  0.29589471855E+03  0.13779637193E+03  0.97227081377E+02  0.35339218372E+03  0.94294249994E+02 0.  0.
          5    1    3    3  502    0 -0.37502924607E+03 -0.33299872759E+03 -0.57787580208E+03  0.76517816266E+03  0.47000000000E+01 0. -1.
         -5    1    3    3    0  502 -0.30767820843E+01 -0.29896192097E+02 -0.31205971043E+02  0.43579255600E+02  0.47000000000E+01 0.  1.
         11    1    5    5    0    0  0.81825039607E+02  0.18693308938E+03  0.56465497894E+03  0.60039533830E+03  0.00000000000E+00 0.  1.
        -11    1    5    5    0    0  0.38626999604E+00  0.38165458380E+02  0.26992125442E+03  0.27260637374E+03  0.00000000000E+00 0. -1.
          4    1    6    6  503    0  0.12756995803E+03  0.26015892202E+02  0.74641381396E+02  0.15007417051E+03  0.00000000000E+00 0. -1.
         -4    1    6    6    0  503  0.16832476052E+03  0.11178047973E+03  0.22585699981E+02  0.20331801321E+03  0.00000000000E+00 0.  1.
<mgrwt>
<rscale>  0 0.55322702E+03</rscale>
<asrwt>0</asrwt>
<pdfrwt beam="1">  1        2 0.18137483E+00 0.55322702E+03</pdfrwt>
<pdfrwt beam="2">  1       -2 0.13172537E+00 0.55322702E+03</pdfrwt>
<totfact> 0.86049713E+00</totfact>
</mgrwt>
</event>
<event>
12    1  0.3203156E-008  0.5558721E+03  0.7818608E-02  0.1000144E+00
          1   -1    0    0  501    0  0.00000000000E+00  0.00000000000E+00  0.67538552907E+03  0.67538552907E+03  0.00000000000E+00 0. -1.
         -1   -1    0    0    0  501 -0.00000000000E+00 -0.00000000000E+00 -0.19723927267E+04  0.19723927267E+04  0.00000000000E+00 0.  1.
         23    2    1    2    0    0  0.39683969295E+03  0.95587974131E+01  0.53869540490E+03  0.67610498139E+03  0.96706225705E+02 0.  0.
    5000000    2    1    2    0    0 -0.39683969295E+03 -0.95587974131E+01 -0.18357026026E+04  0.19716732744E+04  0.60009861149E+03 0.  0.
         23    2    4    4    0    0 -0.36631734181E+03  0.24300022922E+03 -0.11414979278E+04  0.12267543777E+04  0.93119695620E+02 0.  0.
         23    2    4    4    0    0 -0.30522351147E+02 -0.25255902663E+03 -0.69420467476E+03  0.74491889673E+03  0.90919504997E+02 0.  0.
          5    1    3    3  502    0  0.21567662442E+02 -0.21303947226E+02  0.56499659525E+02  0.64290930598E+02  0.47000000000E+01 0. -1.
         -5    1    3    3    0  502  0.37527203051E+03  0.30862744639E+02  0.48219574537E+03  0.61181405079E+03  0.47000000000E+01 0.  1.
         13    1    5    5    0    0 -0.21216976436E+03  0.18769302031E+03 -0.78149617818E+03  0.83125264227E+03  0.00000000000E+00 0. -1.
        -13    1    5    5    0    0 -0.15414757744E+03  0.55307208910E+02 -0.36000174963E+03  0.39550173543E+03  0.00000000000E+00 0.  1.
          3    1    6    6  503    0 -0.17432437730E+02 -0.31452217843E+02 -0.20196862613E+03  0.20514496785E+03  0.00000000000E+00 0. -1.
         -3    1    6    6    0  503 -0.13089913417E+02 -0.22110680879E+03 -0.49223604863E+03  0.53977392888E+03  0.00000000000E+00 0.  1.
<mgrwt>
<rscale>  0 0.55587205E+03</rscale>
<asrwt>0</asrwt>
<pdfrwt beam="1">  1        1 0.10390547E+00 0.55587205E+03</pdfrwt>
<pdfrwt beam="2">  1       -1 0.30344503E+00 0.55587205E+03</pdfrwt>
<totfact> 0.99660328E-01</totfact>
</mgrwt>
</event>
<event>
12    1  0.3203156E-008  0.1078361E+04  0.7818608E-02  0.9226543E-01
          1   -1    0    0  501    0  0.00000000000E+00  0.00000000000E+00  0.19664434380E+04  0.19664434380E+04  0.00000000000E+00 0. -1.
         -1   -1    0    0    0  501 -0.00000000000E+00 -0.00000000000E+00 -0.82122633106E+03  0.82122633106E+03  0.00000000000E+00 0.  1.
         23    2    1    2    0    0 -0.80300811473E+03  0.62087600632E+03  0.12395928811E+04  0.16047677491E+04  0.91542175729E+02 0.  0.
    5000000    2    1    2    0    0  0.80300811473E+03 -0.62087600632E+03 -0.94375774173E+02  0.11829020200E+04  0.60003446121E+03 0.  0.
         23    2    4    4    0    0  0.63464146009E+03 -0.17867379229E+03  0.80070869668E+02  0.67043967488E+03  0.91563674896E+02 0.  0.
         23    2    4    4    0    0  0.16836665464E+03 -0.44220221403E+03 -0.17444664384E+03  0.51246234513E+03  0.91081804664E+02 0.  0.
          5    1    3    3  502    0 -0.26144791631E+03  0.16241961979E+03  0.33254806036E+03  0.45315058014E+03  0.47000000000E+01 0. -1.
         -5    1    3    3    0  502 -0.54156019842E+03  0.45845638653E+03  0.90704482077E+03  0.11516171689E+04  0.47000000000E+01 0.  1.
         13    1    5    5    0    0  0.41641030778E+03 -0.16031259006E+03  0.65083959267E+02  0.45092526289E+03  0.00000000000E+00 0.  1.
        -13    1    5    5    0    0  0.21823115231E+03 -0.18361202226E+02  0.14986910400E+02  0.21951441199E+03  0.00000000000E+00 0. -1.
          3    1    6    6  503    0  0.15780386922E+03 -0.38738986985E+03 -0.12164878799E+03  0.43562759327E+03  0.00000000000E+00 0. -1.
         -3    1    6    6    0  503  0.10562785419E+02 -0.54812344183E+02 -0.52797855848E+02  0.76834751856E+02  0.00000000000E+00 0.  1.
<mgrwt>
<rscale>  0 0.10783613E+04</rscale>
<asrwt>0</asrwt>
<pdfrwt beam="1">  1        1 0.30252976E+00 0.10783613E+04</pdfrwt>
<pdfrwt beam="2">  1       -1 0.12634251E+00 0.10783613E+04</pdfrwt>
<totfact> 0.17101836E+00</totfact>
</mgrwt>
</event>
<event>
12    1  0.3203156E-008  0.9470459E+03  0.7818608E-02  0.9368610E-01
         -1   -1    0    0    0  501 -0.00000000000E+00  0.00000000000E+00  0.72186885152E+03  0.72186885152E+03  0.00000000000E+00 0.  1.
          1   -1    0    0  501    0  0.00000000000E+00 -0.00000000000E+00 -0.22673704154E+04  0.22673704154E+04  0.00000000000E+00 0. -1.
         23    2    1    2    0    0 -0.65765547493E+03 -0.67292122976E+03 -0.16145585344E+04  0.18711673944E+04  0.95574326267E+02 0.  0.
    5000000    2    1    2    0    0  0.65765547493E+03  0.67292122976E+03  0.69056970493E+02  0.11180718725E+04  0.59998511796E+03 0.  0.
         23    2    4    4    0    0  0.48809936654E+03  0.42502234199E+03  0.30905655042E+03  0.72319255661E+03  0.92771438343E+02 0.  0.
         23    2    4    4    0    0  0.16955610839E+03  0.24789888777E+03 -0.23999957993E+03  0.39487931591E+03  0.90148451558E+02 0.  0.
          5    1    3    3  502    0 -0.34854147000E+03 -0.42029505411E+03 -0.96225436114E+03  0.11063835837E+04  0.47000000000E+01 0. -1.
         -5    1    3    3    0  502 -0.30911400493E+03 -0.25262617565E+03 -0.65230417325E+03  0.76478381070E+03  0.47000000000E+01 0.  1.
         13    1    5    5    0    0  0.48421461597E+03  0.42409075424E+03  0.29404323027E+03  0.70765682603E+03  0.00000000000E+00 0.  1.
        -13    1    5    5    0    0  0.38847505622E+01  0.93158774749E+00  0.15013320154E+02  0.15535730581E+02  0.00000000000E+00 0. -1.
          3    1    6    6  503    0  0.69564281818E+01  0.20119609202E+02 -0.56103132342E+02  0.60006266557E+02  0.00000000000E+00 0. -1.
         -3    1    6    6    0  503  0.16259968021E+03  0.22777927857E+03 -0.18389644758E+03  0.33487304935E+03  0.00000000000E+00 0.  1.
<mgrwt>
<rscale>  0 0.94704589E+03</rscale>
<asrwt>0</asrwt>
<pdfrwt beam="1">  1        1 0.34882622E+00 0.94704589E+03</pdfrwt>
<pdfrwt beam="2">  1       -1 0.11105675E+00 0.94704589E+03</pdfrwt>
<totfact> 0.14959492E+00</totfact>
</mgrwt>
</event>
<event>
12    1  0.3203156E-008  0.5636503E+03  0.7818608E-02  0.9983829E-01
          3   -1    0    0  501    0  0.00000000000E+00  0.00000000000E+00  0.21965102941E+03  0.21965102941E+03  0.00000000000E+00 0. -1.
         -3   -1    0    0    0  501 -0.00000000000E+00 -0.00000000000E+00 -0.24799308248E+04  0.24799308248E+04  0.00000000000E+00 0.  1.
         23    2    1    2    0    0  0.40773522783E+02  0.52736636732E+03 -0.38304928075E+03  0.65926755863E+03  0.90162058734E+02 0.  0.
    5000000    2    1    2    0    0 -0.40773522783E+02 -0.52736636732E+03 -0.18772305147E+04  0.20403142956E+04  0.59925808645E+03 0.  0.
         23    2    4    4    0    0 -0.14037852217E+03 -0.18758314904E+03 -0.14759291516E+04  0.14973566183E+04  0.93895764900E+02 0.  0.
         23    2    4    4    0    0  0.99604999389E+02 -0.33978321829E+03 -0.40130136308E+03  0.54295767728E+03  0.91577639104E+02 0.  0.
          5    1    3    3  502    0 -0.15022305509E+02  0.20835044740E+03 -0.11286646174E+03  0.23747948708E+03  0.47000000000E+01 0. -1.
         -5    1    3    3    0  502  0.55795828292E+02  0.31901591992E+03 -0.27018281901E+03  0.42178807155E+03  0.47000000000E+01 0.  1.
         13    1    5    5    0    0 -0.47431885014E+02 -0.54948656170E+02 -0.75385379694E+03  0.75734053482E+03  0.00000000000E+00 0.  1.
        -13    1    5    5    0    0 -0.92946637158E+02 -0.13263449287E+03 -0.72207535467E+03  0.74001608352E+03  0.00000000000E+00 0. -1.
          4    1    6    6  503    0  0.94312519707E+02 -0.21211378643E+03 -0.30321622659E+03  0.38187326409E+03  0.00000000000E+00 0. -1.
         -4    1    6    6    0  503  0.52924796822E+01 -0.12766943186E+03 -0.98085136491E+02  0.16108441319E+03  0.00000000000E+00 0.  1.
<mgrwt>
<rscale>  0 0.56365025E+03</rscale>
<asrwt>0</asrwt>
<pdfrwt beam="1">  1        3 0.33792465E-01 0.56365025E+03</pdfrwt>
<pdfrwt beam="2">  1       -3 0.38152783E+00 0.56365025E+03</pdfrwt>
<totfact> 0.32000239E-01</totfact>
</mgrwt>
</event>
<event>
12    1  0.3203156E-008  0.1100028E+04  0.7818608E-02  0.9205165E-01
         -2   -1    0    0    0  501 -0.00000000000E+00  0.00000000000E+00  0.79216668304E+03  0.79216668304E+03  0.00000000000E+00 0. -1.
          2   -1    0    0  501    0  0.00000000000E+00 -0.00000000000E+00 -0.16080572244E+04  0.16080572244E+04  0.00000000000E+00 0.  1.
         23    2    1    2    0    0  0.10027511876E+04 -0.29976790424E+03 -0.35713643246E+03  0.11095544429E+04  0.90520106913E+02 0.  0.
    5000000    2    1    2    0    0 -0.10027511876E+04  0.29976790424E+03 -0.45875410888E+03  0.12906694645E+04  0.60000132812E+03 0.  0.
         23    2    4    4    0    0 -0.20158263077E+03 -0.12842269509E+03  0.21059153212E+02  0.25862115417E+03  0.96506309660E+02 0.  0.
         23    2    4    4    0    0 -0.80116855678E+03  0.42819059933E+03 -0.47981326209E+03  0.10320483104E+04  0.98410887342E+02 0.  0.
          5    1    3    3  502    0  0.40616161288E+03 -0.16567111581E+03 -0.16309640531E+03  0.46801357012E+03  0.47000000000E+01 0. -1.
         -5    1    3    3    0  502  0.59658957467E+03 -0.13409678843E+03 -0.19404002715E+03  0.64154087275E+03  0.47000000000E+01 0.  1.
         13    1    5    5    0    0 -0.28537440520E+02 -0.32694140694E+02 -0.31939742427E+02  0.53883573503E+02  0.00000000000E+00 0. -1.
        -13    1    5    5    0    0 -0.17304519025E+03 -0.95728554397E+02  0.52998895639E+02  0.20473758066E+03  0.00000000000E+00 0.  1.
          3    1    6    6  503    0 -0.57133706985E+03  0.31756519224E+03 -0.39249192873E+03  0.76244580976E+03  0.00000000000E+00 0. -1.
         -3    1    6    6    0  503 -0.22983148693E+03  0.11062540709E+03 -0.87321333366E+02  0.26960250061E+03  0.00000000000E+00 0.  1.
<mgrwt>
<rscale>  0 0.11000277E+04</rscale>
<asrwt>0</asrwt>
<pdfrwt beam="1">  1        2 0.24739342E+00 0.11000277E+04</pdfrwt>
<pdfrwt beam="2">  1       -2 0.12187180E+00 0.11000277E+04</pdfrwt>
<totfact> 0.55497002E+00</totfact>
</mgrwt>
</event>
<event>
12    1  0.3203156E-008  0.4954909E+03  0.7818608E-02  0.1014963E+00
         -1   -1    0    0    0  501 -0.00000000000E+00  0.00000000000E+00  0.21926444706E+03  0.21926444706E+03  0.00000000000E+00 0.  1.
          1   -1    0    0  501    0  0.00000000000E+00 -0.00000000000E+00 -0.17189178343E+04  0.17189178343E+04  0.00000000000E+00 0. -1.
         23    2    1    2    0    0  0.16507133798E+03 -0.41166419994E+03 -0.77070356710E+03  0.89495879992E+03  0.10124872880E+03 0.  0.
    5000000    2    1    2    0    0 -0.16507133798E+03  0.41166419994E+03 -0.72894982018E+03  0.10432234815E+04  0.60019282888E+03 0.  0.
         23    2    4    4    0    0 -0.29452190937E+02  0.39847717093E+03 -0.14234088842E+03  0.43400415929E+03  0.91908620187E+02 0.  0.
         23    2    4    4    0    0 -0.13561914704E+03  0.13187029011E+02 -0.58660893176E+03  0.60921932219E+03  0.92041799914E+02 0.  0.
          5    1    3    3  502    0  0.52845834066E+02 -0.21464214228E+03 -0.45903655465E+03  0.50951013721E+03  0.47000000000E+01 0. -1.
         -5    1    3    3    0  502  0.11222550391E+03 -0.19702205766E+03 -0.31166701245E+03  0.38544866271E+03  0.47000000000E+01 0.  1.
         11    1    5    5    0    0 -0.22410154681E+02  0.23208156177E+03 -0.13012015765E+03  0.26701183827E+03  0.00000000000E+00 0. -1.
        -11    1    5    5    0    0 -0.70420362560E+01  0.16639560916E+03 -0.12220730771E+02  0.16699232102E+03  0.00000000000E+00 0.  1.
          3    1    6    6  503    0 -0.78447092906E+02  0.29688850452E+02 -0.47868026680E+03  0.48597342731E+03  0.00000000000E+00 0. -1.
         -3    1    6    6    0  503 -0.57172054136E+02 -0.16501821441E+02 -0.10792866495E+03  0.12324589487E+03  0.00000000000E+00 0.  1.
<mgrwt>
<rscale>  0 0.49549094E+03</rscale>
<asrwt>0</asrwt>
<pdfrwt beam="1">  1        1 0.26444889E+00 0.49549094E+03</pdfrwt>
<pdfrwt beam="2">  1       -1 0.33732993E-01 0.49549094E+03</pdfrwt>
<totfact> 0.41075091E+01</totfact>
</mgrwt>
</event>
<event>
12    1  0.3203156E-008  0.1424321E+04  0.7818608E-02  0.8936399E-01
          2   -1    0    0  501    0  0.00000000000E+00  0.00000000000E+00  0.13715683401E+04  0.13715683401E+04  0.00000000000E+00 0. -1.
         -2   -1    0    0    0  501 -0.00000000000E+00 -0.00000000000E+00 -0.14958545319E+04  0.14958545319E+04  0.00000000000E+00 0.  1.
         23    2    1    2    0    0 -0.62874777839E+03 -0.12117574242E+04 -0.14469824345E+03  0.13758861825E+04  0.91898757121E+02 0.  0.
    5000000    2    1    2    0    0  0.62874777839E+03  0.12117574242E+04  0.20412051571E+02  0.14915366895E+04  0.60048748552E+03 0.  0.
         23    2    4    4    0    0  0.29239852641E+03  0.10085586460E+03 -0.39693767273E+02  0.32551839988E+03  0.93369319524E+02 0.  0.
         23    2    4    4    0    0  0.33634925198E+03  0.11109015596E+04  0.60105818844E+02  0.11660182896E+04  0.93556655425E+02 0.  0.
          5    1    3    3  502    0 -0.56973724735E+03 -0.11257232559E+04 -0.11298469546E+03  0.12667442565E+04  0.47000000000E+01 0. -1.
         -5    1    3    3    0  502 -0.59010531038E+02 -0.86034168329E+02 -0.31713547989E+02  0.10914192604E+03  0.47000000000E+01 0.  1.
         13    1    5    5    0    0  0.16335422779E+03  0.15603526984E+02 -0.46962409788E+02  0.17068550532E+03  0.00000000000E+00 0. -1.
        -13    1    5    5    0    0  0.12904429862E+03  0.85252337614E+02  0.72686425150E+01  0.15483289456E+03  0.00000000000E+00 0.  1.
          1    1    6    6  503    0  0.34993784180E+02  0.23198430179E+03 -0.42477294961E+01  0.23464723398E+03  0.00000000000E+00 0. -1.
         -1    1    6    6    0  503  0.30135546780E+03  0.87891725784E+03  0.64353548341E+02  0.93137105564E+03  0.00000000000E+00 0.  1.
<mgrwt>
<rscale>  0 0.14243211E+04</rscale>
<asrwt>0</asrwt>
<pdfrwt beam="1">  1        2 0.21101051E+00 0.14243211E+04</pdfrwt>
<pdfrwt beam="2">  1       -2 0.23013147E+00 0.14243211E+04</pdfrwt>
<totfact> 0.12165515E+00</totfact>
</mgrwt>
</event>
<event>
12    1  0.3203156E-008  0.4518865E+03  0.7818608E-02  0.1027161E+00
          2   -1    0    0  501    0  0.00000000000E+00  0.00000000000E+00  0.11225696505E+04  0.11225696505E+04  0.00000000000E+00 0. -1.
         -2   -1    0    0    0  501 -0.00000000000E+00 -0.00000000000E+00 -0.30667111612E+03  0.30667111612E+03  0.00000000000E+00 0.  1.
         23    2    1    2    0    0  0.37562717769E+03  0.19321309952E+03  0.22503243483E+03  0.48718441856E+03  0.91005398275E+02 0.  0.
    5000000    2    1    2    0    0 -0.37562717769E+03 -0.19321309952E+03  0.59086609957E+03  0.94205634808E+03  0.59993361040E+03 0.  0.
         23    2    4    4    0    0 -0.58283870617E+02 -0.80171578897E+02 -0.10093721323E+03  0.16720910066E+03  0.89140735308E+02 0.  0.
         23    2    4    4    0    0 -0.31734330707E+03 -0.11304152063E+03  0.69180331279E+03  0.77484724742E+03  0.91166185132E+02 0.  0.
          5    1    3    3  502    0  0.16898814073E+03  0.13593082953E+03  0.99383856538E+02  0.23860725694E+03  0.47000000000E+01 0. -1.
         -5    1    3    3    0  502  0.20663903696E+03  0.57282269988E+02  0.12564857829E+03  0.24857716162E+03  0.47000000000E+01 0.  1.
         13    1    5    5    0    0 -0.37954293575E+02  0.42888950862E+01 -0.60114843342E+02  0.71223011815E+02  0.00000000000E+00 0.  1.
        -13    1    5    5    0    0 -0.20329577042E+02 -0.84460473983E+02 -0.40822369886E+02  0.95986088842E+02  0.00000000000E+00 0. -1.
          2    1    6    6  503    0 -0.20769007640E+03 -0.11544155520E+03  0.43658846159E+03  0.49706277803E+03  0.00000000000E+00 0. -1.
         -2    1    6    6    0  503 -0.10965323067E+03  0.24000345756E+01  0.25521485120E+03  0.27778446939E+03  0.00000000000E+00 0.  1.
<mgrwt>
<rscale>  0 0.45188649E+03</rscale>
<asrwt>0</asrwt>
<pdfrwt beam="1">  1        2 0.17270302E+00 0.45188649E+03</pdfrwt>
<pdfrwt beam="2">  1       -2 0.47180172E-01 0.45188649E+03</pdfrwt>
<totfact> 0.93970996E+01</totfact>
</mgrwt>
</event>
<event>
12    1  0.3203156E-008  0.3696692E+03  0.7818608E-02  0.1054820E+00
         -1   -1    0    0    0  501 -0.00000000000E+00  0.00000000000E+00  0.16628415455E+03  0.16628415455E+03  0.00000000000E+00 0.  1.
          1   -1    0    0  501    0  0.00000000000E+00 -0.00000000000E+00 -0.17006248969E+04  0.17006248969E+04  0.00000000000E+00 0. -1.
         23    2    1    2    0    0 -0.30419883980E+03 -0.13610360817E+03 -0.31587714212E+03  0.46846634440E+03  0.92850528436E+02 0.  0.
    5000000    2    1    2    0    0  0.30419883980E+03  0.13610360817E+03 -0.12184636002E+04  0.13984427070E+04  0.59993944151E+03 0.  0.
         23    2    4    4    0    0  0.39037023121E+02 -0.38318395205E+02  0.33988902067E+02  0.10332962912E+03  0.80805805519E+02 0.  0.
         23    2    4    4    0    0  0.26516181668E+03  0.17442200338E+03 -0.12524525023E+04  0.12951130779E+04  0.89144768735E+02 0.  0.
          5    1    3    3  502    0 -0.23524046944E+03 -0.13764400634E+03 -0.22017358304E+03  0.35040326428E+03  0.47000000000E+01 0. -1.
         -5    1    3    3    0  502 -0.68958370358E+02  0.15403981688E+01 -0.95703559079E+02  0.11806308013E+03  0.47000000000E+01 0.  1.
         13    1    5    5    0    0  0.46207110603E+02 -0.48668150820E+02  0.27612116727E-01  0.67109513014E+02  0.00000000000E+00 0. -1.
        -13    1    5    5    0    0 -0.71700874821E+01  0.10349755615E+02  0.33961289950E+02  0.36220116108E+02  0.00000000000E+00 0.  1.
          1    1    6    6  503    0  0.71324214151E+02  0.56803607362E+02 -0.22168989177E+03  0.23970857608E+03  0.00000000000E+00 0. -1.
         -1    1    6    6    0  503  0.19383760252E+03  0.11761839602E+03 -0.10307626105E+04  0.10554045018E+04  0.00000000000E+00 0.  1.
<mgrwt>
<rscale>  0 0.36966925E+03</rscale>
<asrwt>0</asrwt>
<pdfrwt beam="1">  1        1 0.26163463E+00 0.36966925E+03</pdfrwt>
<pdfrwt beam="2">  1       -1 0.25582175E-01 0.36966925E+03</pdfrwt>
<totfact> 0.69699393E+01</totfact>
</mgrwt>
</event>
<event>
12    1  0.3203156E-008  0.5132384E+03  0.7818608E-02  0.1010380E+00
         -1   -1    0    0    0  501 -0.00000000000E+00  0.00000000000E+00  0.67107004199E+03  0.67107004199E+03  0.00000000000E+00 0.  1.
          1   -1    0    0  501    0  0.00000000000E+00 -0.00000000000E+00 -0.41509272581E+03  0.41509272581E+03  0.00000000000E+00 0. -1.
         23    2    1    2    0    0 -0.56909731976E+02 -0.34529652521E+03  0.10231175827E+03  0.37488359122E+03  0.87187173173E+02 0.  0.
    5000000    2    1    2    0    0  0.56909731976E+02  0.34529652521E+03  0.15366555791E+03  0.71127917659E+03  0.59986378074E+03 0.  0.
         23    2    4    4    0    0 -0.36594643484E+02 -0.15001526563E+03  0.19996707439E+02  0.18152352962E+03  0.93312248082E+02 0.  0.
         23    2    4    4    0    0  0.93504375460E+02  0.49531179084E+03  0.13366885047E+03  0.52975564697E+03  0.93256879259E+02 0.  0.
          5    1    3    3  502    0  0.89065703821E+01 -0.20834732713E+03  0.56244762814E+02  0.21604050329E+03  0.47000000000E+01 0. -1.
         -5    1    3    3    0  502 -0.65816302358E+02 -0.13694919808E+03  0.46066995455E+02  0.15884308793E+03  0.47000000000E+01 0.  1.
         11    1    5    5    0    0 -0.42035677672E+01 -0.83508941702E+02 -0.33662598467E+02  0.90136473537E+02  0.00000000000E+00 0.  1.
        -11    1    5    5    0    0 -0.32391075717E+02 -0.66506323930E+02  0.53659305906E+02  0.91387056081E+02  0.00000000000E+00 0. -1.
          2    1    6    6  503    0  0.94004149970E+02  0.33423638806E+03  0.12292230834E+03  0.36832137761E+03  0.00000000000E+00 0. -1.
         -2    1    6    6    0  503 -0.49977450997E+00  0.16107540278E+03  0.10746542135E+02  0.16143426936E+03  0.00000000000E+00 0.  1.
<mgrwt>
<rscale>  0 0.51323836E+03</rscale>
<asrwt>0</asrwt>
<pdfrwt beam="1">  1        1 0.63860419E-01 0.51323836E+03</pdfrwt>
<pdfrwt beam="2">  1       -1 0.10324154E+00 0.51323836E+03</pdfrwt>
<totfact> 0.52802480E+01</totfact>
</mgrwt>
</event>
<event>
12    1  0.3203156E-008  0.1892720E+04  0.7818608E-02  0.8658489E-01
         -2   -1    0    0    0  501 -0.00000000000E+00  0.00000000000E+00  0.27394519617E+04  0.27394519617E+04  0.00000000000E+00 0.  1.
          2   -1    0    0  501    0  0.00000000000E+00 -0.00000000000E+00 -0.18599949361E+04  0.18599949361E+04  0.00000000000E+00 0. -1.
         23    2    1    2    0    0 -0.18452965961E+04  0.84714751817E+02  0.16800957471E+04  0.24986682612E+04  0.91242770852E+02 0.  0.
    5000000    2    1    2    0    0  0.18452965961E+04 -0.84714751817E+02 -0.80063872149E+03  0.21007786366E+04  0.59996033287E+03 0.  0.
         23    2    4    4    0    0  0.33490042261E+03  0.19797542898E+03 -0.11908783980E+03  0.41740674028E+03  0.93241137382E+02 0.  0.
         23    2    4    4    0    0  0.15103961735E+04 -0.28269018079E+03 -0.68155088170E+03  0.16833718963E+04  0.89548857501E+02 0.  0.
          5    1    3    3  502    0 -0.98401115502E+03  0.12478931851E+02  0.85204729112E+03  0.13017067078E+04  0.47000000000E+01 0. -1.
         -5    1    3    3    0  502 -0.86128544107E+03  0.72235819966E+02  0.82804845596E+03  0.11969615533E+04  0.47000000000E+01 0.  1.
         11    1    5    5    0    0  0.52440008028E+02  0.75401126376E+02 -0.20556131113E+02  0.94116092286E+02  0.00000000000E+00 0.  1.
        -11    1    5    5    0    0  0.28246041458E+03  0.12257430260E+03 -0.98531708683E+02  0.32329064799E+03  0.00000000000E+00 0. -1.
          1    1    6    6  503    0  0.54190922762E+03 -0.79830284346E+02 -0.20234228899E+03  0.58393568754E+03  0.00000000000E+00 0. -1.
         -1    1    6    6    0  503  0.96848694586E+03 -0.20285989645E+03 -0.47920859271E+03  0.10994362088E+04  0.00000000000E+00 0.  1.
<mgrwt>
<rscale>  0 0.18927196E+04</rscale>
<asrwt>0</asrwt>
<pdfrwt beam="1">  1        2 0.28615307E+00 0.18927196E+04</pdfrwt>
<pdfrwt beam="2">  1       -2 0.42145415E+00 0.18927196E+04</pdfrwt>
<totfact> 0.38423416E-02</totfact>
</mgrwt>
</event>
<event>
12    1  0.3203156E-008  0.1388535E+04  0.7818608E-02  0.8962160E-01
         -2   -1    0    0    0  501 -0.00000000000E+00  0.00000000000E+00  0.22221217845E+04  0.22221217845E+04  0.00000000000E+00 0.  1.
          2   -1    0    0  501    0  0.00000000000E+00 -0.00000000000E+00 -0.23306765684E+04  0.23306765684E+04  0.00000000000E+00 0. -1.
         23    2    1    2    0    0 -0.38977917466E+03 -0.13251692558E+04  0.17045205418E+04  0.21957484990E+04  0.88993438478E+02 0.  0.
    5000000    2    1    2    0    0  0.38977917466E+03  0.13251692558E+04 -0.18130753258E+04  0.23570498539E+04  0.60036698398E+03 0.  0.
         23    2    4    4    0    0  0.31498555185E+03  0.78540838957E+03 -0.14927176021E+04  0.17183604845E+04  0.92058019205E+02 0.  0.
         23    2    4    4    0    0  0.74793622809E+02  0.53976086620E+03 -0.32035772367E+03  0.63868936938E+03  0.91428446032E+02 0.  0.
          5    1    3    3  502    0 -0.28480401635E+03 -0.81873159305E+03  0.10562782984E+04  0.13664481999E+04  0.47000000000E+01 0. -1.
         -5    1    3    3    0  502 -0.10497515830E+03 -0.50643766271E+03  0.64824224338E+03  0.82930029915E+03  0.47000000000E+01 0.  1.
         13    1    5    5    0    0  0.19618157977E+03  0.41856877808E+03 -0.88913853139E+03  0.10021249235E+04  0.00000000000E+00 0.  1.
        -13    1    5    5    0    0  0.11880397207E+03  0.36683961148E+03 -0.60357907071E+03  0.71623556107E+03  0.00000000000E+00 0. -1.
          4    1    6    6  503    0  0.48459523587E+01  0.16300182943E+02  0.58127424854E+01  0.17971288030E+02  0.00000000000E+00 0.  1.
         -4    1    6    6    0  503  0.69947670451E+02  0.52346068326E+03 -0.32617046616E+03  0.62071808135E+03  0.00000000000E+00 0. -1.
<mgrwt>
<rscale>  0 0.13885349E+04</rscale>
<asrwt>0</asrwt>
<pdfrwt beam="1">  1        2 0.35856562E+00 0.13885349E+04</pdfrwt>
<pdfrwt beam="2">  1       -2 0.34186489E+00 0.13885349E+04</pdfrwt>
<totfact> 0.72730110E-02</totfact>
</mgrwt>
</event>
<event>
12    1  0.3203156E-008  0.8389859E+03  0.7818608E-02  0.9505240E-01
         -1   -1    0    0    0  501 -0.00000000000E+00  0.00000000000E+00  0.30801175799E+03  0.30801175799E+03  0.00000000000E+00 0.  1.
          1   -1    0    0  501    0  0.00000000000E+00 -0.00000000000E+00 -0.32571884194E+04  0.32571884194E+04  0.00000000000E+00 0. -1.
         23    2    1    2    0    0 -0.43668916437E+03 -0.63328368220E+03 -0.22041722667E+04  0.23377114765E+04  0.12154800596E+03 0.  0.
    5000000    2    1    2    0    0  0.43668916437E+03  0.63328368220E+03 -0.74500439473E+03  0.12274887009E+04  0.59995942717E+03 0.  0.
         23    2    4    4    0    0 -0.66654209930E+02  0.29106441576E+03 -0.80914197274E+02  0.32213007485E+03  0.89774160967E+02 0.  0.
         23    2    4    4    0    0  0.50334337430E+03  0.34221926644E+03 -0.66409019746E+03  0.90535862605E+03  0.90497915072E+02 0.  0.
          5    1    3    3  502    0 -0.83124266251E+02 -0.14295197377E+03 -0.63275280940E+03  0.65402073227E+03  0.47000000000E+01 0. -1.
         -5    1    3    3    0  502 -0.35356489812E+03 -0.49033170842E+03 -0.15714194573E+04  0.16836907442E+04  0.47000000000E+01 0.  1.
         11    1    5    5    0    0 -0.61044313776E+02  0.28280042847E+03 -0.55184697508E+02  0.29452986508E+03  0.00000000000E+00 0.  1.
        -11    1    5    5    0    0 -0.56098961534E+01  0.82639872907E+01 -0.25729499766E+02  0.27600209764E+02  0.00000000000E+00 0. -1.
          1    1    6    6  503    0  0.15795195859E+03  0.10304286109E+03 -0.26991429450E+03  0.32927249934E+03  0.00000000000E+00 0. -1.
         -1    1    6    6    0  503  0.34539141571E+03  0.23917640534E+03 -0.39417590296E+03  0.57608612672E+03  0.00000000000E+00 0.  1.
<mgrwt>
<rscale>  0 0.83898591E+03</rscale>
<asrwt>0</asrwt>
<pdfrwt beam="1">  1        1 0.50110592E+00 0.83898591E+03</pdfrwt>
<pdfrwt beam="2">  1       -1 0.47386424E-01 0.83898591E+03</pdfrwt>
<totfact> 0.18167108E+00</totfact>
</mgrwt>
</event>
<event>
12    1  0.3203156E-008  0.2433730E+04  0.7818608E-02  0.8426983E-01
         -1   -1    0    0    0  501 -0.00000000000E+00  0.00000000000E+00  0.15774707221E+04  0.15774707221E+04  0.00000000000E+00 0.  1.
          1   -1    0    0  501    0  0.00000000000E+00 -0.00000000000E+00 -0.39251068164E+04  0.39251068164E+04  0.00000000000E+00 0. -1.
         23    2    1    2    0    0 -0.42962777528E+03  0.23719769492E+04 -0.16490501231E+04  0.29221120899E+04  0.92293470883E+02 0.  0.
    5000000    2    1    2    0    0  0.42962777528E+03 -0.23719769492E+04 -0.69858597118E+03  0.25804654486E+04  0.59993741302E+03 0.  0.
         23    2    4    4    0    0  0.37439614669E+03 -0.88362623327E+03 -0.46443318237E+03  0.10700282289E+04  0.91073788919E+02 0.  0.
         23    2    4    4    0    0  0.55231628589E+02 -0.14883507159E+04 -0.23415278881E+03  0.15104372197E+04  0.91403937124E+02 0.  0.
          5    1    3    3  502    0 -0.36959395387E+03  0.18268256908E+04 -0.12798793530E+04  0.22609743572E+04  0.47000000000E+01 0. -1.
         -5    1    3    3    0  502 -0.60033821406E+02  0.54515125834E+03 -0.36917077004E+03  0.66113773273E+03  0.47000000000E+01 0.  1.
         11    1    5    5    0    0  0.34970061799E+03 -0.74661200625E+03 -0.38770117783E+03  0.91106103714E+03  0.00000000000E+00 0.  1.
        -11    1    5    5    0    0  0.24695528700E+02 -0.13701422702E+03 -0.76732004546E+02  0.15896719179E+03  0.00000000000E+00 0. -1.
          2    1    6    6  503    0 -0.20615042512E+02 -0.30330751355E+03 -0.29124784590E+02  0.30539921550E+03  0.00000000000E+00 0. -1.
         -2    1    6    6    0  503  0.75846671100E+02 -0.11850432024E+04 -0.20502800422E+03  0.12050380042E+04  0.00000000000E+00 0.  1.
<mgrwt>
<rscale>  0 0.24337297E+04</rscale>
<asrwt>0</asrwt>
<pdfrwt beam="1">  1        1 0.60386259E+00 0.24337297E+04</pdfrwt>
<pdfrwt beam="2">  1       -1 0.24268780E+00 0.24337297E+04</pdfrwt>
<totfact> 0.73789460E-03</totfact>
</mgrwt>
</event>
<event>
12    1  0.3203156E-008  0.6149677E+03  0.7818608E-02  0.9874830E-01
         -2   -1    0    0    0  501 -0.00000000000E+00  0.00000000000E+00  0.89399442512E+03  0.89399442512E+03  0.00000000000E+00 0.  1.
          2   -1    0    0  501    0  0.00000000000E+00 -0.00000000000E+00 -0.50707065038E+03  0.50707065038E+03  0.00000000000E+00 0. -1.
         23    2    1    2    0    0  0.11942661949E+03  0.51347328722E+03  0.60338238811E+02  0.53820246118E+03  0.90020286734E+02 0.  0.
    5000000    2    1    2    0    0 -0.11942661949E+03 -0.51347328722E+03  0.32658553593E+03  0.86286261432E+03  0.59996353621E+03 0.  0.
         23    2    4    4    0    0 -0.20888471048E+03 -0.53645093369E+03  0.84897590939E+02  0.58899442626E+03  0.91073633377E+02 0.  0.
         23    2    4    4    0    0  0.89458090988E+02  0.22977646465E+02  0.24168794499E+03  0.27386818806E+03  0.89777499394E+02 0.  0.
          5    1    3    3  502    0  0.40407134610E+02  0.78851577295E+02 -0.15200340407E+02  0.90019154172E+02  0.47000000000E+01 0. -1.
         -5    1    3    3    0  502  0.79019484880E+02  0.43462170993E+03  0.75538579217E+02  0.44818330701E+03  0.47000000000E+01 0.  1.
         13    1    5    5    0    0 -0.17713364457E+03 -0.38881993859E+03  0.30002679719E+02  0.42831931251E+03  0.00000000000E+00 0. -1.
        -13    1    5    5    0    0 -0.31751065905E+02 -0.14763099510E+03  0.54894911220E+02  0.16067511375E+03  0.00000000000E+00 0.  1.
          4    1    6    6  503    0  0.24662739064E+02  0.46168397668E+02  0.60219650622E+02  0.79788332245E+02  0.00000000000E+00 0. -1.
         -4    1    6    6    0  503  0.64795351924E+02 -0.23190751203E+02  0.18146829437E+03  0.19407985582E+03  0.00000000000E+00 0.  1.
<mgrwt>
<rscale>  0 0.61496770E+03</rscale>
<asrwt>0</asrwt>
<pdfrwt beam="1">  1        2 0.78010869E-01 0.61496770E+03</pdfrwt>
<pdfrwt beam="2">  1       -2 0.13753760E+00 0.61496770E+03</pdfrwt>
<totfact> 0.23366125E+01</totfact>
</mgrwt>
</event>
<event>
12    1  0.3203156E-008  0.4019252E+03  0.7818608E-02  0.1043115E+00
          3   -1    0    0  501    0  0.00000000000E+00  0.00000000000E+00  0.94453148201E+03  0.94453148201E+03  0.00000000000E+00 0. -1.
         -3   -1    0    0    0  501 -0.00000000000E+00 -0.00000000000E+00 -0.25860631673E+03  0.25860631673E+03  0.00000000000E+00 0.  1.
         23    2    1    2    0    0  0.22155795746E+03 -0.15144110512E+03  0.39115224658E+03  0.48300179515E+03  0.90930288043E+02 0.  0.
    5000000    2    1    2    0    0 -0.22155795746E+03  0.15144110512E+03  0.29477291870E+03  0.72013600358E+03  0.59973531931E+03 0.  0.
         23    2    4    4    0    0 -0.30920331515E+03  0.22171947279E+03  0.60855547091E+00  0.39176385221E+03  0.93339867395E+02 0.  0.
         23    2    4    4    0    0  0.87645357688E+02 -0.70278367676E+02  0.29416436322E+03  0.32837215137E+03  0.93138818536E+02 0.  0.
          5    1    3    3  502    0  0.17011622966E+02 -0.46096938381E+02  0.10313690790E+03  0.11433999657E+03  0.47000000000E+01 0. -1.
         -5    1    3    3    0  502  0.20454633450E+03 -0.10534416673E+03  0.28801533867E+03  0.36866179858E+03  0.47000000000E+01 0.  1.
         11    1    5    5    0    0 -0.69929778642E+02  0.88540182026E+02 -0.28532940709E+02  0.11637725929E+03  0.00000000000E+00 0. -1.
        -11    1    5    5    0    0 -0.23927353651E+03  0.13317929076E+03  0.29141496180E+02  0.27538659292E+03  0.00000000000E+00 0.  1.
          1    1    6    6  503    0  0.10302298783E+03 -0.60492848923E+02  0.28252260905E+03  0.30674443013E+03  0.00000000000E+00 0. -1.
         -1    1    6    6    0  503 -0.15377630138E+02 -0.97855187526E+01  0.11641754177E+02  0.21627721245E+02  0.00000000000E+00 0.  1.
<mgrwt>
<rscale>  0 0.40192524E+03</rscale>
<asrwt>0</asrwt>
<pdfrwt beam="1">  1        3 0.14531253E+00 0.40192524E+03</pdfrwt>
<pdfrwt beam="2">  1       -3 0.39785588E-01 0.40192524E+03</pdfrwt>
<totfact> 0.57783664E+00</totfact>
</mgrwt>
</event>
<event>
12    1  0.3203156E-008  0.6367573E+03  0.7818608E-02  0.9831950E-01
         -2   -1    0    0    0  501 -0.00000000000E+00  0.00000000000E+00  0.39864831387E+03  0.39864831387E+03  0.00000000000E+00 0. -1.
          2   -1    0    0  501    0  0.00000000000E+00 -0.00000000000E+00 -0.25335353869E+04  0.25335353869E+04  0.00000000000E+00 0.  1.
         23    2    1    2    0    0  0.42006985178E+03 -0.30873832498E+03  0.11941532459E+03  0.54187944067E+03  0.87150873690E+02 0.  0.
    5000000    2    1    2    0    0 -0.42006985178E+03  0.30873832498E+03 -0.22543023976E+04  0.23903042601E+04  0.59991426244E+03 0.  0.
         23    2    4    4    0    0 -0.38732917292E+03  0.44009774995E+03 -0.14000378584E+04  0.15205887174E+04  0.91510244182E+02 0.  0.
         23    2    4    4    0    0 -0.32740678858E+02 -0.13135942497E+03 -0.85426453920E+03  0.86971554270E+03  0.91159046159E+02 0.  0.
          5    1    3    3  502    0  0.90629257188E+02 -0.99799895645E+02  0.58429237577E+02  0.14700254159E+03  0.47000000000E+01 0. -1.
         -5    1    3    3    0  502  0.32944059459E+03 -0.20893842934E+03  0.60986087014E+02  0.39487689908E+03  0.47000000000E+01 0.  1.
         13    1    5    5    0    0 -0.20644645726E+03  0.29722942639E+03 -0.89727817097E+03  0.96750896003E+03  0.00000000000E+00 0.  1.
        -13    1    5    5    0    0 -0.18088271567E+03  0.14286832356E+03 -0.50275968744E+03  0.55307975738E+03  0.00000000000E+00 0. -1.
          2    1    6    6  503    0 -0.55286369069E+02 -0.11688541383E+03 -0.58488132016E+03  0.59900328985E+03  0.00000000000E+00 0. -1.
         -2    1    6    6    0  503  0.22545690211E+02 -0.14474011138E+02 -0.26938321904E+03  0.27071225286E+03  0.00000000000E+00 0.  1.
<mgrwt>
<rscale>  0 0.63675727E+03</rscale>
<asrwt>0</asrwt>
<pdfrwt beam="1">  1        2 0.38977467E+00 0.63675727E+03</pdfrwt>
<pdfrwt beam="2">  1       -2 0.61330511E-01 0.63675727E+03</pdfrwt>
<totfact> 0.88219943E+00</totfact>
</mgrwt>
</event>
<event>
12    1  0.3203156E-008  0.9941325E+03  0.7818608E-02  0.9315004E-01
         -1   -1    0    0    0  501 -0.00000000000E+00  0.00000000000E+00  0.38303744169E+03  0.38303744169E+03  0.00000000000E+00 0.  1.
          1   -1    0    0  501    0  0.00000000000E+00 -0.00000000000E+00 -0.29953123727E+04  0.29953123727E+04  0.00000000000E+00 0. -1.
         23    2    1    2    0    0  0.95838663228E+03  0.21803665030E+03 -0.13090243728E+04  0.16392267015E+04  0.86454916445E+02 0.  0.
    5000000    2    1    2    0    0 -0.95838663228E+03 -0.21803665030E+03 -0.13032505582E+04  0.17391231129E+04  0.60003522098E+03 0.  0.
         23    2    4    4    0    0 -0.49490308683E+03 -0.23906615260E+02 -0.23639502938E+03  0.55631220939E+03  0.90000404434E+02 0.  0.
         23    2    4    4    0    0 -0.46348354545E+03 -0.19413003504E+03 -0.10668555288E+04  0.11828109035E+04  0.91419071155E+02 0.  0.
          5    1    3    3  502    0  0.69234643893E+03  0.14508033026E+03 -0.10006295821E+04  0.12254279025E+04  0.47000000000E+01 0. -1.
         -5    1    3    3    0  502  0.26604019335E+03  0.72956320040E+02 -0.30839479069E+03  0.41379879898E+03  0.47000000000E+01 0.  1.
         11    1    5    5    0    0 -0.16064758778E+03 -0.32380313265E+02 -0.40570252232E+02  0.16882558311E+03  0.00000000000E+00 0. -1.
        -11    1    5    5    0    0 -0.33425549905E+03  0.84736980047E+01 -0.19582477715E+03  0.38748662628E+03  0.00000000000E+00 0.  1.
          2    1    6    6  503    0 -0.14053124203E+03 -0.92155102852E+02 -0.42646854661E+03  0.45838522470E+03  0.00000000000E+00 0. -1.
         -2    1    6    6    0  503 -0.32295230343E+03 -0.10197493219E+03 -0.64038698221E+03  0.72442567877E+03  0.00000000000E+00 0.  1.
<mgrwt>
<rscale>  0 0.99413250E+03</rscale>
<asrwt>0</asrwt>
<pdfrwt beam="1">  1        1 0.46081729E+00 0.99413250E+03</pdfrwt>
<pdfrwt beam="2">  1       -1 0.58928837E-01 0.99413250E+03</pdfrwt>
<totfact> 0.18093866E+00</totfact>
</mgrwt>
</event>
<event>
12    1  0.3203156E-008  0.1918945E+04  0.7818608E-02  0.8645483E-01
          2   -1    0    0  501    0  0.00000000000E+00  0.00000000000E+00  0.42698542842E+04  0.42698542842E+04  0.00000000000E+00 0. -1.
         -2   -1    0    0    0  501 -0.00000000000E+00 -0.00000000000E+00 -0.10308199693E+04  0.10308199693E+04  0.00000000000E+00 0.  1.
         23    2    1    2    0    0 -0.50223795124E+03 -0.18410536413E+04  0.62741772589E+03  0.20109559443E+04  0.92570715117E+02 0.  0.
    5000000    2    1    2    0    0  0.50223795124E+03  0.18410536413E+04  0.26116165890E+04  0.32897183092E+04  0.59998656345E+03 0.  0.
         23    2    4    4    0    0  0.39375012156E+03  0.96940757070E+03  0.18329028383E+04  0.21126548732E+04  0.94802965879E+02 0.  0.
         23    2    4    4    0    0  0.10848782968E+03  0.87164607058E+03  0.77871375072E+03  0.11770634360E+04  0.86872005192E+02 0.  0.
          5    1    3    3  502    0 -0.18092135346E+03 -0.62521671971E+03  0.25890816326E+03  0.70048840800E+03  0.47000000000E+01 0. -1.
         -5    1    3    3    0  502 -0.32131659778E+03 -0.12158369216E+04  0.36850956263E+03  0.13104675363E+04  0.47000000000E+01 0.  1.
         11    1    5    5    0    0  0.26166486512E+03  0.74985588553E+03  0.13685022827E+04  0.15822613085E+04  0.00000000000E+00 0.  1.
        -11    1    5    5    0    0  0.13208525643E+03  0.21955168517E+03  0.46440055560E+03  0.53039356469E+03  0.00000000000E+00 0. -1.
          3    1    6    6  503    0  0.82050628307E+02  0.52809686428E+03  0.42048441572E+03  0.68001893174E+03  0.00000000000E+00 0. -1.
         -3    1    6    6    0  503  0.26437201375E+02  0.34354920630E+03  0.35822933500E+03  0.49704450427E+03  0.00000000000E+00 0.  1.
<mgrwt>
<rscale>  0 0.19189452E+04</rscale>
<asrwt>0</asrwt>
<pdfrwt beam="1">  1        2 0.65690065E+00 0.19189452E+04</pdfrwt>
<pdfrwt beam="2">  1       -2 0.15858769E+00 0.19189452E+04</pdfrwt>
<totfact> 0.47584561E-02</totfact>
</mgrwt>
</event>
<event>
12    1  0.3203156E-008  0.4849466E+03  0.7818608E-02  0.1017784E+00
          1   -1    0    0  501    0  0.00000000000E+00  0.00000000000E+00  0.22530233512E+04  0.22530233512E+04  0.00000000000E+00 0. -1.
         -1   -1    0    0    0  501 -0.00000000000E+00 -0.00000000000E+00 -0.16444282946E+03  0.16444282946E+03  0.00000000000E+00 0.  1.
         23    2    1    2    0    0  0.40574111349E+03  0.19564878047E+03  0.93051194078E+03  0.10379594321E+04  0.92752435335E+02 0.  0.
    5000000    2    1    2    0    0 -0.40574111349E+03 -0.19564878047E+03  0.11580685809E+04  0.13795067486E+04  0.59917587959E+03 0.  0.
         23    2    4    4    0    0 -0.33889905060E+03 -0.79092445397E+02  0.11631600304E+04  0.12171307437E+04  0.85777674032E+02 0.  0.
         23    2    4    4    0    0 -0.66842062891E+02 -0.11655633507E+03 -0.50914494842E+01  0.16237600490E+03  0.91031881735E+02 0.  0.
          5    1    3    3  502    0  0.29509892125E+03  0.95697886559E+02  0.60636879300E+03  0.68113630203E+03  0.47000000000E+01 0. -1.
         -5    1    3    3    0  502  0.11064219224E+03  0.99950893910E+02  0.32414314777E+03  0.35682313006E+03  0.47000000000E+01 0.  1.
         13    1    5    5    0    0 -0.12360467765E+03 -0.12131587841E+02  0.54951889331E+03  0.56337936231E+03  0.00000000000E+00 0. -1.
        -13    1    5    5    0    0 -0.21529437294E+03 -0.66960857555E+02  0.61364113712E+03  0.65375138136E+03  0.00000000000E+00 0.  1.
          3    1    6    6  503    0  0.98798896127E+01 -0.70737045593E+02 -0.13248161739E+02  0.72641968775E+02  0.00000000000E+00 0. -1.
         -3    1    6    6    0  503 -0.76721952504E+02 -0.45819289478E+02  0.81567122549E+01  0.89734036124E+02  0.00000000000E+00 0.  1.
<mgrwt>
<rscale>  0 0.48494663E+03</rscale>
<asrwt>0</asrwt>
<pdfrwt beam="1">  1        1 0.34661896E+00 0.48494663E+03</pdfrwt>
<pdfrwt beam="2">  1       -1 0.25298898E-01 0.48494663E+03</pdfrwt>
<totfact> 0.29935603E+01</totfact>
</mgrwt>
</event>
<event>
12    1  0.3203156E-008  0.9027597E+03  0.7818608E-02  0.9422138E-01
         -1   -1    0    0    0  501 -0.00000000000E+00  0.00000000000E+00  0.31232050639E+03  0.31232050639E+03  0.00000000000E+00 0.  1.
          1   -1    0    0  501    0  0.00000000000E+00 -0.00000000000E+00 -0.28236383848E+04  0.28236383848E+04  0.00000000000E+00 0. -1.
         23    2    1    2    0    0  0.51771607814E+03 -0.66119421769E+03 -0.12040927690E+04  0.14704207445E+04  0.84202366832E+02 0.  0.
    5000000    2    1    2    0    0 -0.51771607814E+03  0.66119421769E+03 -0.13072251094E+04  0.16655381467E+04  0.59997674971E+03 0.  0.
         23    2    4    4    0    0 -0.35745579717E+03  0.68819272671E+03 -0.12431734626E+04  0.14680487178E+04  0.91120270246E+02 0.  0.
         23    2    4    4    0    0 -0.16026028096E+03 -0.26998509026E+02 -0.64051646820E+02  0.19748942886E+03  0.92125913338E+02 0.  0.
          5    1    3    3  502    0  0.46622435028E+03 -0.54783531789E+03 -0.10270889184E+04  0.12539626855E+04  0.47000000000E+01 0. -1.
         -5    1    3    3    0  502  0.51491727852E+02 -0.11335889980E+03 -0.17700385057E+03  0.21645805903E+03  0.47000000000E+01 0.  1.
         13    1    5    5    0    0 -0.30458730271E+03  0.58718251476E+03 -0.11155044936E+04  0.12968835745E+04  0.00000000000E+00 0. -1.
        -13    1    5    5    0    0 -0.52868494458E+02  0.10101021195E+03 -0.12766896901E+03  0.17116514328E+03  0.00000000000E+00 0.  1.
          1    1    6    6  503    0 -0.66163230295E+02 -0.56956547272E+02 -0.38959198191E+02  0.95600420731E+02  0.00000000000E+00 0. -1.
         -1    1    6    6    0  503 -0.94097050668E+02  0.29958038246E+02 -0.25092448630E+02  0.10188900813E+03  0.00000000000E+00 0.  1.
<mgrwt>
<rscale>  0 0.90275968E+03</rscale>
<asrwt>0</asrwt>
<pdfrwt beam="1">  1        1 0.43440589E+00 0.90275968E+03</pdfrwt>
<pdfrwt beam="2">  1       -1 0.48049310E-01 0.90275968E+03</pdfrwt>
<totfact> 0.36056408E+00</totfact>
</mgrwt>
</event>
<event>
12    1  0.3203156E-008  0.4412697E+03  0.7818608E-02  0.1030358E+00
         -2   -1    0    0    0  501 -0.00000000000E+00  0.00000000000E+00  0.51582635200E+03  0.51582635200E+03  0.00000000000E+00 0.  1.
          2   -1    0    0  501    0  0.00000000000E+00 -0.00000000000E+00 -0.62282046746E+03  0.62282046746E+03  0.00000000000E+00 0. -1.
         23    2    1    2    0    0  0.10125079964E+03 -0.20727495474E+03 -0.36737132478E+03  0.44477834489E+03  0.98241816597E+02 0.  0.
    5000000    2    1    2    0    0 -0.10125079964E+03  0.20727495474E+03  0.26037720932E+03  0.69386847457E+03  0.60036866805E+03 0.  0.
         23    2    4    4    0    0 -0.15961339337E+02  0.40012465275E+03  0.19879075184E+03  0.45612836119E+03  0.90447867730E+02 0.  0.
         23    2    4    4    0    0 -0.85289460300E+02 -0.19284969801E+03  0.61586457482E+02  0.23774011338E+03  0.90896488945E+02 0.  0.
          5    1    3    3  502    0  0.87820145486E+02 -0.21588730838E+03 -0.33171968493E+03  0.40543772302E+03  0.47000000000E+01 0. -1.
         -5    1    3    3    0  502  0.13430654151E+02  0.86123536398E+01 -0.35651639843E+02  0.39340621876E+02  0.47000000000E+01 0.  1.
         11    1    5    5    0    0  0.23219511833E+02  0.24925083061E+03  0.89901261434E+02  0.26598375720E+03  0.00000000000E+00 0. -1.
        -11    1    5    5    0    0 -0.39180851170E+02  0.15087382214E+03  0.10888949040E+03  0.19014460399E+03  0.00000000000E+00 0.  1.
          4    1    6    6  503    0  0.16799615652E+02 -0.24725951702E+02  0.21969478058E+02  0.37097947918E+02  0.00000000000E+00 0. -1.
         -4    1    6    6    0  503 -0.10208907595E+03 -0.16812374631E+03  0.39616979424E+02  0.20064216546E+03  0.00000000000E+00 0.  1.
<mgrwt>
<rscale>  0 0.44126974E+03</rscale>
<asrwt>0</asrwt>
<pdfrwt beam="1">  1        2 0.95818534E-01 0.44126974E+03</pdfrwt>
<pdfrwt beam="2">  1       -2 0.79357900E-01 0.44126974E+03</pdfrwt>
<totfact> 0.69293393E+01</totfact>
</mgrwt>
</event>
<event>
12    1  0.3203156E-008  0.8692927E+03  0.7818608E-02  0.9464803E-01
         -2   -1    0    0    0  501 -0.00000000000E+00  0.00000000000E+00  0.92087138601E+03  0.92087138601E+03  0.00000000000E+00 0. -1.
          2   -1    0    0  501    0  0.00000000000E+00 -0.00000000000E+00 -0.97736342483E+03  0.97736342483E+03  0.00000000000E+00 0.  1.
         23    2    1    2    0    0 -0.64406272898E+03 -0.48195154909E+03  0.25344325296E+03  0.84804019906E+03  0.88569759097E+02 0.  0.
    5000000    2    1    2    0    0  0.64406272898E+03  0.48195154909E+03 -0.30993529178E+03  0.10501946118E+04  0.59979558433E+03 0.  0.
         23    2    4    4    0    0  0.55554046642E+03  0.55664125631E+03 -0.38903007087E+03  0.88214250410E+03  0.91412818794E+02 0.  0.
         23    2    4    4    0    0  0.88522262563E+02 -0.74689707226E+02  0.79094779098E+02  0.16805210767E+03  0.92578526006E+02 0.  0.
          5    1    3    3  502    0 -0.44689589409E+03 -0.38178239988E+03  0.19423991352E+03  0.61905167395E+03  0.47000000000E+01 0. -1.
         -5    1    3    3    0  502 -0.19716683489E+03 -0.10016914920E+03  0.59203339441E+02  0.22898852511E+03  0.47000000000E+01 0.  1.
         11    1    5    5    0    0  0.38597182804E+02  0.27922536769E+02 -0.48751878018E+02  0.68162718478E+02  0.00000000000E+00 0. -1.
        -11    1    5    5    0    0  0.51694328362E+03  0.52871871954E+03 -0.34027819286E+03  0.81397978562E+03  0.00000000000E+00 0.  1.
          1    1    6    6  503    0  0.21101147669E+02 -0.72011458371E+02  0.18321505977E+02  0.77243680330E+02  0.00000000000E+00 0. -1.
         -1    1    6    6    0  503  0.67421114893E+02 -0.26782488557E+01  0.60773273121E+02  0.90808427341E+02  0.00000000000E+00 0.  1.
<mgrwt>
<rscale>  0 0.86929269E+03</rscale>
<asrwt>0</asrwt>
<pdfrwt beam="1">  1        2 0.15036360E+00 0.86929269E+03</pdfrwt>
<pdfrwt beam="2">  1       -2 0.14167252E+00 0.86929269E+03</pdfrwt>
<totfact> 0.91092620E+00</totfact>
</mgrwt>
</event>
<event>
12    1  0.3203156E-008  0.5799956E+03  0.7818608E-02  0.9947800E-01
         -1   -1    0    0    0  501 -0.00000000000E+00  0.00000000000E+00  0.71174192343E+03  0.71174192343E+03  0.00000000000E+00 0.  1.
          1   -1    0    0  501    0  0.00000000000E+00 -0.00000000000E+00 -0.67892641109E+03  0.67892641109E+03  0.00000000000E+00 0. -1.
         23    2    1    2    0    0 -0.12609574254E+03  0.54656421598E+03  0.25716110162E+02  0.56926179897E+03  0.93622107262E+02 0.  0.
    5000000    2    1    2    0    0  0.12609574254E+03 -0.54656421598E+03  0.70994021866E+01  0.82140653555E+03  0.60002143017E+03 0.  0.
         23    2    4    4    0    0 -0.12750853783E+02 -0.17041253844E+03 -0.26489791871E+03  0.32849470979E+03  0.92384249178E+02 0.  0.
         23    2    4    4    0    0  0.13884659632E+03 -0.37615167754E+03  0.27199732090E+03  0.49291182576E+03  0.90614919128E+02 0.  0.
          5    1    3    3  502    0 -0.18155199156E+02  0.21447256839E+03 -0.23564973902E+02  0.21657675739E+03  0.47000000000E+01 0. -1.
         -5    1    3    3    0  502 -0.10794054338E+03  0.33209164759E+03  0.49281084064E+02  0.35268504158E+03  0.47000000000E+01 0.  1.
         13    1    5    5    0    0 -0.39970368469E+02 -0.60219001708E+02 -0.15247043543E+03  0.16873408725E+03  0.00000000000E+00 0.  1.
        -13    1    5    5    0    0  0.27219514686E+02 -0.11019353673E+03 -0.11242748328E+03  0.15976062254E+03  0.00000000000E+00 0. -1.
          4    1    6    6  503    0  0.12784639058E+03 -0.23013113383E+03  0.15518473523E+03  0.30559342335E+03  0.00000000000E+00 0. -1.
         -4    1    6    6    0  503  0.11000205738E+02 -0.14602054371E+03  0.11681258566E+03  0.18731840241E+03  0.00000000000E+00 0.  1.
<mgrwt>
<rscale>  0 0.57999564E+03</rscale>
<asrwt>0</asrwt>
<pdfrwt beam="1">  1        1 0.10445022E+00 0.57999564E+03</pdfrwt>
<pdfrwt beam="2">  1       -1 0.10949876E+00 0.57999564E+03</pdfrwt>
<totfact> 0.23073002E+01</totfact>
</mgrwt>
</event>
<event>
12    1  0.3203156E-008  0.6090449E+03  0.7818608E-02  0.9886816E-01
         -1   -1    0    0    0  501 -0.00000000000E+00  0.00000000000E+00  0.48850786153E+03  0.48850786153E+03  0.00000000000E+00 0.  1.
          1   -1    0    0  501    0  0.00000000000E+00 -0.00000000000E+00 -0.93530314833E+03  0.93530314833E+03  0.00000000000E+00 0. -1.
         23    2    1    2    0    0  0.35027724247E+03  0.39665491975E+03 -0.28699430043E+03  0.60802959979E+03  0.85469256391E+02 0.  0.
    5000000    2    1    2    0    0 -0.35027724247E+03 -0.39665491975E+03 -0.15980098637E+03  0.81578141008E+03  0.59994473231E+03 0.  0.
         23    2    4    4    0    0 -0.41620529782E+03 -0.20308226521E+03  0.89612661500E+02  0.48081925936E+03  0.93206623678E+02 0.  0.
         23    2    4    4    0    0  0.65928055353E+02 -0.19357265454E+03 -0.24941364787E+03  0.33496215071E+03  0.90418989153E+02 0.  0.
          5    1    3    3  502    0  0.25322031052E+03  0.25177252898E+03 -0.15515986658E+03  0.38936693003E+03  0.47000000000E+01 0. -1.
         -5    1    3    3    0  502  0.97056931943E+02  0.14488239078E+03 -0.13183443385E+03  0.21866266976E+03  0.47000000000E+01 0.  1.
         11    1    5    5    0    0 -0.12037480892E+03 -0.62242901461E+02 -0.16274910079E+02  0.13648862994E+03  0.00000000000E+00 0. -1.
        -11    1    5    5    0    0 -0.29583048889E+03 -0.14083936375E+03  0.10588757158E+03  0.34433062942E+03  0.00000000000E+00 0.  1.
          2    1    6    6  503    0  0.70845044083E+02 -0.69670088805E+02 -0.11848167924E+03  0.15463133532E+03  0.00000000000E+00 0. -1.
         -2    1    6    6    0  503 -0.49169887304E+01 -0.12390256574E+03 -0.13093196862E+03  0.18033081540E+03  0.00000000000E+00 0.  1.
<mgrwt>
<rscale>  0 0.60904490E+03</rscale>
<asrwt>0</asrwt>
<pdfrwt beam="1">  1        1 0.14389279E+00 0.60904490E+03</pdfrwt>
<pdfrwt beam="2">  1       -1 0.75155056E-01 0.60904490E+03</pdfrwt>
<totfact> 0.31648961E+01</totfact>
</mgrwt>
</event>
<event>
12    1  0.3203156E-008  0.5301955E+03  0.7818608E-02  0.1006185E+00
         -1   -1    0    0    0  501 -0.00000000000E+00  0.00000000000E+00  0.94627237677E+03  0.94627237677E+03  0.00000000000E+00 0.  1.
          1   -1    0    0  501    0  0.00000000000E+00 -0.00000000000E+00 -0.46296993178E+03  0.46296993178E+03  0.00000000000E+00 0. -1.
         23    2    1    2    0    0  0.51844190040E+03 -0.27481853733E+02  0.24063844882E+03  0.57950853354E+03  0.91575220535E+02 0.  0.
    5000000    2    1    2    0    0 -0.51844190040E+03  0.27481853733E+02  0.24266399617E+03  0.82973377501E+03  0.60002922094E+03 0.  0.
         23    2    4    4    0    0 -0.38336713467E+03  0.55496630217E+01  0.43046384307E+03  0.58335781638E+03  0.89476606063E+02 0.  0.
         23    2    4    4    0    0 -0.13507476573E+03  0.21932190711E+02 -0.18779984690E+03  0.24637595863E+03  0.81890885735E+02 0.  0.
          5    1    3    3  502    0  0.35882109006E+03  0.22353119385E+02  0.15431982256E+03  0.39126581023E+03  0.47000000000E+01 0. -1.
         -5    1    3    3    0  502  0.15962081034E+03 -0.49834973118E+02  0.86318626261E+02  0.18824272331E+03  0.47000000000E+01 0.  1.
         11    1    5    5    0    0 -0.25918508958E+03 -0.36084358376E+02  0.26642437602E+03  0.37344469432E+03  0.00000000000E+00 0.  1.
        -11    1    5    5    0    0 -0.12418204510E+03  0.41634021398E+02  0.16403946706E+03  0.20991312206E+03  0.00000000000E+00 0. -1.
          1    1    6    6  503    0 -0.78139612482E+02  0.29374110187E+02 -0.16438349596E+03  0.18436531977E+03  0.00000000000E+00 0. -1.
         -1    1    6    6    0  503 -0.56935153245E+02 -0.74419194760E+01 -0.23416350945E+02  0.62010638862E+02  0.00000000000E+00 0.  1.
<mgrwt>
<rscale>  0 0.53019551E+03</rscale>
<asrwt>0</asrwt>
<pdfrwt beam="1">  1        1 0.71226143E-01 0.53019551E+03</pdfrwt>
<pdfrwt beam="2">  1       -1 0.14558037E+00 0.53019551E+03</pdfrwt>
<totfact> 0.19653523E+01</totfact>
</mgrwt>
</event>
<event>
12    1  0.3203156E-008  0.6557757E+03  0.7818608E-02  0.9796001E-01
          1   -1    0    0  501    0  0.00000000000E+00  0.00000000000E+00  0.33370117765E+04  0.33370117765E+04  0.00000000000E+00 0. -1.
         -1   -1    0    0    0  501 -0.00000000000E+00 -0.00000000000E+00 -0.14055388686E+03  0.14055388686E+03  0.00000000000E+00 0.  1.
         23    2    1    2    0    0 -0.50494013983E+03 -0.21516301339E+03  0.12997197596E+04  0.14138647907E+04  0.92100628791E+02 0.  0.
    5000000    2    1    2    0    0  0.50494013983E+03  0.21516301339E+03  0.18967381301E+04  0.20637008727E+04  0.59998840876E+03 0.  0.
         23    2    4    4    0    0  0.20459243821E+03  0.36341626363E+03  0.72624384185E+03  0.84265283695E+03  0.93296513098E+02 0.  0.
         23    2    4    4    0    0  0.30034770161E+03 -0.14825325024E+03  0.11704942883E+04  0.12210480357E+04  0.93346980045E+02 0.  0.
          5    1    3    3  502    0 -0.32243982016E+03 -0.89996155680E+02  0.75601374776E+03  0.82682865363E+03  0.47000000000E+01 0. -1.
         -5    1    3    3    0  502 -0.18250031967E+03 -0.12516685771E+03  0.54370601182E+03  0.58703613708E+03  0.47000000000E+01 0.  1.
         11    1    5    5    0    0  0.15663667756E+03  0.25294454449E+03  0.43025803767E+03  0.52310416776E+03  0.00000000000E+00 0. -1.
        -11    1    5    5    0    0  0.47955760652E+02  0.11047171914E+03  0.29598580418E+03  0.31954866920E+03  0.00000000000E+00 0.  1.
          1    1    6    6  503    0  0.14430208181E+03 -0.48415576308E+02  0.38478653012E+03  0.41379684944E+03  0.00000000000E+00 0. -1.
         -1    1    6    6    0  503  0.15604561980E+03 -0.99837673936E+02  0.78570775813E+03  0.80725118630E+03  0.00000000000E+00 0.  1.
<mgrwt>
<rscale>  0 0.65577573E+03</rscale>
<asrwt>0</asrwt>
<pdfrwt beam="1">  1        1 0.51338637E+00 0.65577573E+03</pdfrwt>
<pdfrwt beam="2">  1       -1 0.21623677E-01 0.65577573E+03</pdfrwt>
<totfact> 0.65548753E+00</totfact>
</mgrwt>
</event>
<event>
12    1  0.3203156E-008  0.1237787E+04  0.7818608E-02  0.9080410E-01
         -1   -1    0    0    0  501 -0.00000000000E+00  0.00000000000E+00  0.30215294613E+04  0.30215294613E+04  0.00000000000E+00 0.  1.
          1   -1    0    0  501    0  0.00000000000E+00 -0.00000000000E+00 -0.58039429943E+03  0.58039429943E+03  0.00000000000E+00 0. -1.
         23    2    1    2    0    0  0.12075140350E+04 -0.22799319998E+03  0.15052796174E+04  0.19453149778E+04  0.91173418095E+02 0.  0.
    5000000    2    1    2    0    0 -0.12075140350E+04  0.22799319998E+03  0.93585554439E+03  0.16566087829E+04  0.59871196386E+03 0.  0.
         23    2    4    4    0    0 -0.84899426301E+03  0.89011016763E+02  0.92502415482E+03  0.12615228805E+04  0.84000423831E+02 0.  0.
         23    2    4    4    0    0 -0.35851977200E+03  0.13898218322E+03  0.10831389577E+02  0.39508590245E+03  0.90128115196E+02 0.  0.
          5    1    3    3  502    0  0.96620757763E+03 -0.19526573628E+03  0.11515337890E+04  0.15158291289E+04  0.47000000000E+01 0. -1.
         -5    1    3    3    0  502  0.24130645737E+03 -0.32727463709E+02  0.35374582848E+03  0.42948584891E+03  0.47000000000E+01 0.  1.
         13    1    5    5    0    0 -0.73499311811E+02 -0.11849486183E+02  0.10115152466E+03  0.12559534267E+03  0.00000000000E+00 0. -1.
        -13    1    5    5    0    0 -0.77549495120E+03  0.10086050295E+03  0.82387263015E+03  0.11359275378E+04  0.00000000000E+00 0.  1.
          1    1    6    6  503    0 -0.38095222526E+02 -0.51395333494E+01 -0.18225150243E+02  0.42541942642E+02  0.00000000000E+00 0. -1.
         -1    1    6    6    0  503 -0.32042454947E+03  0.14412171657E+03  0.29056539820E+02  0.35254395981E+03  0.00000000000E+00 0.  1.
<mgrwt>
<rscale>  0 0.12377865E+04</rscale>
<asrwt>0</asrwt>
<pdfrwt beam="1">  1        1 0.89291433E-01 0.12377865E+04</pdfrwt>
<pdfrwt beam="2">  1       -1 0.46485068E+00 0.12377865E+04</pdfrwt>
<totfact> 0.90963445E-02</totfact>
</mgrwt>
</event>
<event>
12    1  0.3715629E-008  0.1468992E+04  0.7818608E-02  0.8905339E-01
          1   -1    0    0  501    0  0.00000000000E+00  0.00000000000E+00  0.17942593579E+04  0.17942593579E+04  0.00000000000E+00 0. -1.
         -1   -1    0    0    0  501 -0.00000000000E+00 -0.00000000000E+00 -0.13059497539E+04  0.13059497539E+04  0.00000000000E+00 0.  1.
         23    2    1    2    0    0  0.96780929967E+03  0.10895274876E+04  0.36343971765E+02  0.14606075415E+04  0.91260721602E+02 0.  0.
    5000000    2    1    2    0    0 -0.96780929967E+03 -0.10895274876E+04  0.45196563223E+03  0.16396015703E+04  0.60024610783E+03 0.  0.
         23    2    4    4    0    0 -0.36086376204E+03 -0.27085122368E+03 -0.10838504682E+03  0.47289659738E+03  0.91108909098E+02 0.  0.
         23    2    4    4    0    0 -0.60694553763E+03 -0.81867626391E+03  0.56035067905E+03  0.11667049729E+04  0.92703288242E+02 0.  0.
          5    1    3    3  502    0  0.51416893083E+03  0.59178713442E+03  0.63989414776E+02  0.78657385991E+03  0.47000000000E+01 0. -1.
         -5    1    3    3    0  502  0.45364036884E+03  0.49774035317E+03 -0.27645443011E+02  0.67403368160E+03  0.47000000000E+01 0.  1.
         11    1    5    5    0    0 -0.13025897581E+03 -0.54437259763E+02 -0.58145280550E+02  0.15268166125E+03  0.00000000000E+00 0. -1.
        -11    1    5    5    0    0 -0.23060478623E+03 -0.21641396392E+03 -0.50239766269E+02  0.32021493614E+03  0.00000000000E+00 0.  1.
          2    1    6    6  503    0 -0.35382515287E+03 -0.40145445635E+03  0.28134172183E+03  0.60457512665E+03  0.00000000000E+00 0. -1.
         -2    1    6    6    0  503 -0.25312038476E+03 -0.41722180756E+03  0.27900895722E+03  0.56212984629E+03  0.00000000000E+00 0.  1.
<mgrwt>
<rscale>  0 0.14689916E+04</rscale>
<asrwt>0</asrwt>
<pdfrwt beam="1">  1        1 0.27603990E+00 0.14689916E+04</pdfrwt>
<pdfrwt beam="2">  1       -1 0.20091535E+00 0.14689916E+04</pdfrwt>
<totfact> 0.57879246E-01</totfact>
</mgrwt>
</event>
<event>
12    1  0.3203156E-008  0.8103157E+03  0.7818608E-02  0.9545204E-01
          1   -1    0    0  501    0  0.00000000000E+00  0.00000000000E+00  0.94693187703E+03  0.94693187703E+03  0.00000000000E+00 0. -1.
         -1   -1    0    0    0  501 -0.00000000000E+00 -0.00000000000E+00 -0.17424977336E+04  0.17424977336E+04  0.00000000000E+00 0.  1.
         23    2    1    2    0    0 -0.41226606663E+03  0.61092785450E+03 -0.13851762391E+04  0.15710249348E+04  0.78803421607E+02 0.  0.
    5000000    2    1    2    0    0  0.41226606663E+03 -0.61092785450E+03  0.58961038252E+03  0.11184046758E+04  0.59999371887E+03 0.  0.
         23    2    4    4    0    0  0.94935967727E+02  0.69170740707E+02 -0.12974032430E+02  0.15146909995E+03  0.94747735516E+02 0.  0.
         23    2    4    4    0    0  0.31733009890E+03 -0.68009859520E+03  0.60258441495E+03  0.96693557589E+03  0.92865170613E+02 0.  0.
          5    1    3    3  502    0 -0.16158432086E+03  0.30891748769E+03 -0.65977899646E+03  0.74623717484E+03  0.47000000000E+01 0. -1.
         -5    1    3    3    0  502 -0.25068174577E+03  0.30201036681E+03 -0.72539724262E+03  0.82478775993E+03  0.47000000000E+01 0.  1.
         11    1    5    5    0    0  0.48493297401E+02  0.61039518752E+02  0.33877176196E+02  0.85000504759E+02  0.00000000000E+00 0.  1.
        -11    1    5    5    0    0  0.46442670326E+02  0.81312219547E+01 -0.46851208626E+02  0.66468595195E+02  0.00000000000E+00 0. -1.
          4    1    6    6  503    0  0.13788880041E+03 -0.21061201825E+03  0.16956055590E+03  0.30351528071E+03  0.00000000000E+00 0. -1.
         -4    1    6    6    0  503  0.17944129849E+03 -0.46948657695E+03  0.43302385905E+03  0.66342029517E+03  0.00000000000E+00 0.  1.
<mgrwt>
<rscale>  0 0.81031574E+03</rscale>
<asrwt>0</asrwt>
<pdfrwt beam="1">  1        1 0.14568183E+00 0.81031574E+03</pdfrwt>
<pdfrwt beam="2">  1       -1 0.26807657E+00 0.81031574E+03</pdfrwt>
<totfact> 0.92363193E-01</totfact>
</mgrwt>
</event>
<event>
12    1  0.3203156E-008  0.7602721E+03  0.7818608E-02  0.9619372E-01
          2   -1    0    0  501    0  0.00000000000E+00  0.00000000000E+00  0.29036654569E+04  0.29036654569E+04  0.00000000000E+00 0.  1.
         -2   -1    0    0    0  501 -0.00000000000E+00 -0.00000000000E+00 -0.24951697436E+03  0.24951697436E+03  0.00000000000E+00 0. -1.
         23    2    1    2    0    0 -0.16275608623E+03 -0.70979903364E+03  0.89831647241E+03  0.11598827169E+04  0.89728594480E+02 0.  0.
    5000000    2    1    2    0    0  0.16275608623E+03  0.70979903364E+03  0.17558320101E+04  0.19932997144E+04  0.59999457633E+03 0.  0.
         23    2    4    4    0    0  0.25455300079E+03  0.47782400145E+03  0.62581033518E+03  0.83250007279E+03  0.91130615027E+02 0.  0.
         23    2    4    4    0    0 -0.91796914565E+02  0.23197503218E+03  0.11300216750E+04  0.11607996416E+04  0.90927074540E+02 0.  0.
          5    1    3    3  502    0 -0.45830756440E+02 -0.28898173385E+03  0.29987884794E+03  0.41899918160E+03  0.47000000000E+01 0. -1.
         -5    1    3    3    0  502 -0.11692532979E+03 -0.42081729978E+03  0.59843762447E+03  0.74088353533E+03  0.47000000000E+01 0.  1.
         13    1    5    5    0    0  0.14865522444E+03  0.28517882076E+03  0.43785831135E+03  0.54327270904E+03  0.00000000000E+00 0.  1.
        -13    1    5    5    0    0  0.10589777635E+03  0.19264518070E+03  0.18795202383E+03  0.28922736375E+03  0.00000000000E+00 0. -1.
          3    1    6    6  503    0 -0.29300448072E+02  0.87788717186E+02  0.62724593374E+03  0.63403693624E+03  0.00000000000E+00 0. -1.
         -3    1    6    6    0  503 -0.62496466494E+02  0.14418631500E+03  0.50277574122E+03  0.52676270532E+03  0.00000000000E+00 0.  1.
<mgrwt>
<rscale>  0 0.76027206E+03</rscale>
<asrwt>0</asrwt>
<pdfrwt beam="1">  1        2 0.44671774E+00 0.76027206E+03</pdfrwt>
<pdfrwt beam="2">  1       -2 0.38387229E-01 0.76027206E+03</pdfrwt>
<totfact> 0.13538102E+01</totfact>
</mgrwt>
</event>
<event>
12    1  0.3203156E-008  0.7928569E+03  0.7818608E-02  0.9570414E-01
          1   -1    0    0  501    0  0.00000000000E+00  0.00000000000E+00  0.13926569367E+04  0.13926569367E+04  0.00000000000E+00 0. -1.
         -1   -1    0    0    0  501 -0.00000000000E+00 -0.00000000000E+00 -0.54728800196E+03  0.54728800196E+03  0.00000000000E+00 0.  1.
         23    2    1    2    0    0  0.62281234039E+03  0.36924627608E+03  0.93306305267E+02  0.73592784214E+03  0.92982248279E+02 0.  0.
    5000000    2    1    2    0    0 -0.62281234039E+03 -0.36924627608E+03  0.75206262951E+03  0.12040170966E+04  0.59985077008E+03 0.  0.
         23    2    4    4    0    0  0.67025114388E+02 -0.68293196969E+02  0.28367170519E+03  0.31267915004E+03  0.90234626560E+02 0.  0.
         23    2    4    4    0    0 -0.68983745478E+03 -0.30095307911E+03  0.46839092431E+03  0.89133794652E+03  0.92977454730E+02 0.  0.
          5    1    3    3  502    0  0.59446774066E+03  0.33290957067E+03  0.10154049625E+03  0.68887824708E+03  0.47000000000E+01 0. -1.
         -5    1    3    3    0  502  0.28344599733E+02  0.36336705411E+02 -0.82341909788E+01  0.47049595059E+02  0.47000000000E+01 0.  1.
         11    1    5    5    0    0  0.26118284193E+02 -0.15329911126E+01  0.18439943854E+03  0.18624625571E+03  0.00000000000E+00 0. -1.
        -11    1    5    5    0    0  0.40906830195E+02 -0.66760205856E+02  0.99272266655E+02  0.12643289433E+03  0.00000000000E+00 0.  1.
          1    1    6    6  503    0 -0.47643693735E+03 -0.18861039414E+03  0.36405063386E+03  0.62856893024E+03  0.00000000000E+00 0. -1.
         -1    1    6    6    0  503 -0.21340051743E+03 -0.11234268497E+03  0.10434029045E+03  0.26276901628E+03  0.00000000000E+00 0.  1.
<mgrwt>
<rscale>  0 0.79285685E+03</rscale>
<asrwt>0</asrwt>
<pdfrwt beam="1">  1        1 0.21425491E+00 0.79285685E+03</pdfrwt>
<pdfrwt beam="2">  1       -1 0.84198155E-01 0.79285685E+03</pdfrwt>
<totfact> 0.11193883E+01</totfact>
</mgrwt>
</event>
<event>
12    1  0.3203156E-008  0.1406273E+04  0.7818608E-02  0.8949291E-01
          1   -1    0    0  501    0  0.00000000000E+00  0.00000000000E+00  0.77971911172E+03  0.77971911172E+03  0.00000000000E+00 0. -1.
         -1   -1    0    0    0  501 -0.00000000000E+00 -0.00000000000E+00 -0.43198374041E+04  0.43198374041E+04  0.00000000000E+00 0.  1.
         23    2    1    2    0    0  0.13363769524E+04 -0.17406418196E+03 -0.97536671863E+02  0.13542187818E+04  0.90517446852E+02 0.  0.
    5000000    2    1    2    0    0 -0.13363769524E+04  0.17406418196E+03 -0.34425816205E+04  0.37453377341E+04  0.59998735808E+03 0.  0.
         23    2    4    4    0    0 -0.35829929140E+03  0.30735036574E+03 -0.10301930047E+04  0.11367817413E+04  0.90180213246E+02 0.  0.
         23    2    4    4    0    0 -0.97807766100E+03 -0.13328618378E+03 -0.24123886158E+04  0.26085559928E+04  0.10268600643E+03 0.  0.
          5    1    3    3  502    0  0.95556806230E+03 -0.15848753385E+03 -0.92366855903E+02  0.97302741284E+03  0.47000000000E+01 0. -1.
         -5    1    3    3    0  502  0.38080889010E+03 -0.15576648112E+02 -0.51698159603E+01  0.38119136892E+03  0.47000000000E+01 0.  1.
         11    1    5    5    0    0 -0.25821438049E+03  0.19580926160E+03 -0.61121976243E+03  0.69181321988E+03  0.00000000000E+00 0. -1.
        -11    1    5    5    0    0 -0.10008491091E+03  0.11154110414E+03 -0.41897324228E+03  0.44496852142E+03  0.00000000000E+00 0.  1.
          1    1    6    6  503    0 -0.72856639084E+03 -0.73543727267E+02 -0.16846865575E+04  0.18369503158E+04  0.00000000000E+00 0. -1.
         -1    1    6    6    0  503 -0.24951127016E+03 -0.59742456516E+02 -0.72770205830E+03  0.77160567694E+03  0.00000000000E+00 0.  1.
<mgrwt>
<rscale>  0 0.14062727E+04</rscale>
<asrwt>0</asrwt>
<pdfrwt beam="1">  1        1 0.11995679E+00 0.14062727E+04</pdfrwt>
<pdfrwt beam="2">  1       -1 0.66459037E+00 0.14062727E+04</pdfrwt>
<totfact> 0.56745779E-03</totfact>
</mgrwt>
</event>
<event>
12    1  0.3203156E-008  0.3331134E+03  0.7818608E-02  0.1069768E+00
         -2   -1    0    0    0  501 -0.00000000000E+00  0.00000000000E+00  0.12606440843E+03  0.12606440843E+03  0.00000000000E+00 0.  1.
          2   -1    0    0  501    0  0.00000000000E+00 -0.00000000000E+00 -0.11439009609E+04  0.11439009609E+04  0.00000000000E+00 0. -1.
         23    2    1    2    0    0 -0.76895000725E+02 -0.10511678412E+02 -0.51903250681E+02  0.13018451638E+03  0.90723339636E+02 0.  0.
    5000000    2    1    2    0    0  0.76895000725E+02  0.10511678412E+02 -0.96593330179E+03  0.11397808529E+04  0.60004159248E+03 0.  0.
         23    2    4    4    0    0 -0.24438400010E+03  0.12867761903E+02 -0.32682731663E+03  0.41856622903E+03  0.92154622196E+02 0.  0.
         23    2    4    4    0    0  0.32127900082E+03 -0.23560834915E+01 -0.63910598516E+03  0.72121462391E+03  0.92023507727E+02 0.  0.
          5    1    3    3  502    0 -0.20198089505E+02  0.92098900819E+01  0.24178766693E+02  0.33158523094E+02  0.47000000000E+01 0.  1.
         -5    1    3    3    0  502 -0.56696911220E+02 -0.19721568494E+02 -0.76082017374E+02  0.97025993287E+02  0.47000000000E+01 0. -1.
         13    1    5    5    0    0 -0.15070008952E+03 -0.36127260991E+02 -0.17796362559E+03  0.23598039749E+03  0.00000000000E+00 0.  1.
        -13    1    5    5    0    0 -0.93683910582E+02  0.48995022894E+02 -0.14886369104E+03  0.18258583154E+03  0.00000000000E+00 0. -1.
          1    1    6    6  503    0  0.15683878125E+03  0.13551797808E+02 -0.40642674941E+03  0.43584946617E+03  0.00000000000E+00 0. -1.
         -1    1    6    6    0  503  0.16444021957E+03 -0.15907881300E+02 -0.23267923575E+03  0.28536515774E+03  0.00000000000E+00 0.  1.
<mgrwt>
<rscale>  0 0.33311341E+03</rscale>
<asrwt>0</asrwt>
<pdfrwt beam="1">  1        2 0.17598475E+00 0.33311341E+03</pdfrwt>
<pdfrwt beam="2">  1       -2 0.19394525E-01 0.33311341E+03</pdfrwt>
<totfact> 0.47678826E+02</totfact>
</mgrwt>
</event>
<event>
12    1  0.3203156E-008  0.7816693E+03  0.7818608E-02  0.9586936E-01
          2   -1    0    0  501    0  0.00000000000E+00  0.00000000000E+00  0.25267555503E+04  0.25267555503E+04  0.00000000000E+00 0. -1.
         -2   -1    0    0    0  501 -0.00000000000E+00 -0.00000000000E+00 -0.28830547735E+03  0.28830547735E+03  0.00000000000E+00 0.  1.
         23    2    1    2    0    0  0.37102685905E+03  0.63538830005E+03  0.79263927903E+03  0.10853944080E+04  0.91786557695E+02 0.  0.
    5000000    2    1    2    0    0 -0.37102685905E+03 -0.63538830005E+03  0.14458107939E+04  0.17296666197E+04  0.59999878454E+03 0.  0.
         23    2    4    4    0    0 -0.63306682043E+02 -0.43813683137E+03  0.11933536202E+04  0.12761186144E+04  0.91729145853E+02 0.  0.
         23    2    4    4    0    0 -0.30772017701E+03 -0.19725146868E+03  0.25245717367E+03  0.45354800523E+03  0.91494913944E+02 0.  0.
          5    1    3    3  502    0  0.21474503726E+03  0.27914107432E+03  0.36336954747E+03  0.50605798920E+03  0.47000000000E+01 0. -1.
         -5    1    3    3    0  502  0.15628182179E+03  0.35624722574E+03  0.42926973155E+03  0.57933641875E+03  0.47000000000E+01 0.  1.
         13    1    5    5    0    0  0.57472805940E+01 -0.10245357407E+03  0.37770138229E+03  0.39139251431E+03  0.00000000000E+00 0. -1.
        -13    1    5    5    0    0 -0.69053962637E+02 -0.33568325730E+03  0.81565223793E+03  0.88472610011E+03  0.00000000000E+00 0.  1.
          4    1    6    6  503    0 -0.51852323939E+02  0.28413238912E+01  0.37221087664E+02  0.63891673841E+02  0.00000000000E+00 0. -1.
         -4    1    6    6    0  503 -0.25586785307E+03 -0.20009279257E+03  0.21523608601E+03  0.38965633139E+03  0.00000000000E+00 0.  1.
<mgrwt>
<rscale>  0 0.78166926E+03</rscale>
<asrwt>0</asrwt>
<pdfrwt beam="1">  1        2 0.38873161E+00 0.78166926E+03</pdfrwt>
<pdfrwt beam="2">  1       -2 0.44354691E-01 0.78166926E+03</pdfrwt>
<totfact> 0.16873844E+01</totfact>
</mgrwt>
</event>
<event>
12    1  0.3203156E-008  0.8877802E+03  0.7818608E-02  0.9440987E-01
         -1   -1    0    0    0  501 -0.00000000000E+00  0.00000000000E+00  0.99047553993E+03  0.99047553993E+03  0.00000000000E+00 0.  1.
          1   -1    0    0  501    0  0.00000000000E+00 -0.00000000000E+00 -0.14356058495E+04  0.14356058495E+04  0.00000000000E+00 0. -1.
         23    2    1    2    0    0 -0.80166953029E+03  0.30191117847E+03 -0.93339256971E+03  0.12717945960E+04  0.11142445806E+03 0.  0.
    5000000    2    1    2    0    0  0.80166953029E+03 -0.30191117847E+03  0.48826226010E+03  0.11542867934E+04  0.60012796250E+03 0.  0.
         23    2    4    4    0    0  0.25618622404E+03 -0.25959186792E+03 -0.49914493381E+02  0.38140082397E+03  0.99778818374E+02 0.  0.
         23    2    4    4    0    0  0.54548330625E+03 -0.42319310552E+02  0.53817675348E+03  0.77288596947E+03  0.91517989327E+02 0.  0.
          5    1    3    3  502    0 -0.21085913392E+03  0.89479340666E+02 -0.18190599694E+03  0.29254060998E+03  0.47000000000E+01 0. -1.
         -5    1    3    3    0  502 -0.59081039637E+03  0.21243183780E+03 -0.75148657277E+03  0.97925398606E+03  0.47000000000E+01 0.  1.
         13    1    5    5    0    0  0.55420282747E+02 -0.98602501020E+02  0.19693595964E+02  0.11481157899E+03  0.00000000000E+00 0. -1.
        -13    1    5    5    0    0  0.20076594129E+03 -0.16098936690E+03 -0.69608089344E+02  0.26658924498E+03  0.00000000000E+00 0.  1.
          4    1    6    6  503    0  0.33614056484E+03 -0.42371215032E+02  0.38885000591E+03  0.51574230609E+03  0.00000000000E+00 0. -1.
         -4    1    6    6    0  503  0.20934274141E+03  0.51904480052E-01  0.14932674757E+03  0.25714366338E+03  0.00000000000E+00 0.  1.
<mgrwt>
<rscale>  0 0.88778023E+03</rscale>
<asrwt>0</asrwt>
<pdfrwt beam="1">  1        1 0.22086244E+00 0.88778023E+03</pdfrwt>
<pdfrwt beam="2">  1       -1 0.15238085E+00 0.88778023E+03</pdfrwt>
<totfact> 0.24765735E+00</totfact>
</mgrwt>
</event>
<event>
12    1  0.3203156E-008  0.3606462E+03  0.7818608E-02  0.1058328E+00
         -2   -1    0    0    0  501 -0.00000000000E+00  0.00000000000E+00  0.29197368928E+03  0.29197368928E+03  0.00000000000E+00 0. -1.
          2   -1    0    0  501    0  0.00000000000E+00 -0.00000000000E+00 -0.50561567842E+03  0.50561567842E+03  0.00000000000E+00 0.  1.
         23    2    1    2    0    0 -0.10310547654E+03  0.71912207549E+02 -0.45252377435E+02  0.16210831235E+03  0.91810796654E+02 0.  0.
    5000000    2    1    2    0    0  0.10310547654E+03 -0.71912207549E+02 -0.16838961171E+03  0.63548105535E+03  0.59973244492E+03 0.  0.
         23    2    4    4    0    0  0.33556614599E+03 -0.12821761242E+02 -0.43298557042E+02  0.35031235032E+03  0.89860680234E+02 0.  0.
         23    2    4    4    0    0 -0.23246066945E+03 -0.59090446307E+02 -0.12509105467E+03  0.28516870503E+03  0.90242864991E+02 0.  0.
          5    1    3    3  502    0 -0.10426780961E+03  0.50456105427E+02 -0.64687922572E+02  0.13275621274E+03  0.47000000000E+01 0.  1.
         -5    1    3    3    0  502  0.11623330688E+01  0.21456102122E+02  0.19435545138E+02  0.29352099605E+02  0.47000000000E+01 0. -1.
         11    1    5    5    0    0  0.92591243218E+02 -0.34302691314E+02 -0.39532011415E+02  0.10636067355E+03  0.00000000000E+00 0. -1.
        -11    1    5    5    0    0  0.24297490277E+03  0.21480930072E+02 -0.37665456263E+01  0.24395167677E+03  0.00000000000E+00 0.  1.
          3    1    6    6  503    0 -0.12149824413E+03 -0.41287923107E+02 -0.17359894178E+02  0.12949085623E+03  0.00000000000E+00 0. -1.
         -3    1    6    6    0  503 -0.11096242533E+03 -0.17802523200E+02 -0.10773116049E+03  0.15567784880E+03  0.00000000000E+00 0.  1.
<mgrwt>
<rscale>  0 0.36064617E+03</rscale>
<asrwt>0</asrwt>
<pdfrwt beam="1">  1        2 0.77787026E-01 0.36064617E+03</pdfrwt>
<pdfrwt beam="2">  1       -2 0.44919030E-01 0.36064617E+03</pdfrwt>
<totfact> 0.29281362E+02</totfact>
</mgrwt>
</event>
<event>
12    1  0.3203156E-008  0.3707717E+03  0.7818608E-02  0.1054398E+00
          2   -1    0    0  501    0  0.00000000000E+00  0.00000000000E+00  0.19955643853E+04  0.19955643853E+04  0.00000000000E+00 0. -1.
         -2   -1    0    0    0  501 -0.00000000000E+00 -0.00000000000E+00 -0.94524298572E+02  0.94524298572E+02  0.00000000000E+00 0.  1.
         23    2    1    2    0    0  0.19526947848E+03 -0.62588165902E+02  0.65340576885E+03  0.69058004494E+03  0.88962081631E+02 0.  0.
    5000000    2    1    2    0    0 -0.19526947848E+03  0.62588165902E+02  0.12476343179E+04  0.13995086389E+04  0.59998799284E+03 0.  0.
         23    2    4    4    0    0  0.15006619418E+03  0.84414196280E+02  0.15363887032E+03  0.24852428042E+03  0.92270235260E+02 0.  0.
         23    2    4    4    0    0 -0.34533567266E+03 -0.21826030378E+02  0.10939954476E+04  0.11509843585E+04  0.90586157031E+02 0.  0.
          5    1    3    3  502    0  0.45959636766E+02 -0.12603055393E+02  0.60794101490E+02  0.77389521209E+02  0.47000000000E+01 0. -1.
         -5    1    3    3    0  502  0.14930984172E+03 -0.49985110510E+02  0.59261166736E+03  0.61319052373E+03  0.47000000000E+01 0.  1.
         11    1    5    5    0    0 -0.84406566636E+00 -0.37926508532E+01 -0.89766160529E+01  0.97814254127E+01  0.00000000000E+00 0.  1.
        -11    1    5    5    0    0  0.15091025985E+03  0.88206847133E+02  0.16261548637E+03  0.23874285500E+03  0.00000000000E+00 0. -1.
          1    1    6    6  503    0 -0.14546945860E+03  0.35077372676E+02  0.43739302032E+03  0.46228177520E+03  0.00000000000E+00 0. -1.
         -1    1    6    6    0  503 -0.19986621407E+03 -0.56903403053E+02  0.65660242726E+03  0.68870258333E+03  0.00000000000E+00 0.  1.
<mgrwt>
<rscale>  0 0.37077168E+03</rscale>
<asrwt>0</asrwt>
<pdfrwt beam="1">  1        2 0.30700987E+00 0.37077168E+03</pdfrwt>
<pdfrwt beam="2">  1       -2 0.14542201E-01 0.37077168E+03</pdfrwt>
<totfact> 0.26527325E+02</totfact>
</mgrwt>
</event>
<event>
12    1  0.3203156E-008  0.9180602E+03  0.7818608E-02  0.9403283E-01
         -2   -1    0    0    0  501 -0.00000000000E+00  0.00000000000E+00  0.43418942450E+03  0.43418942450E+03  0.00000000000E+00 0.  1.
          2   -1    0    0  501    0  0.00000000000E+00 -0.00000000000E+00 -0.27565362766E+04  0.27565362766E+04  0.00000000000E+00 0. -1.
         23    2    1    2    0    0  0.76077697539E+03  0.34792008848E+03 -0.25173518609E+03  0.87827551513E+03  0.90373017541E+02 0.  0.
    5000000    2    1    2    0    0 -0.76077697539E+03 -0.34792008848E+03 -0.20706116660E+04  0.23124501860E+04  0.60013598204E+03 0.  0.
         23    2    4    4    0    0 -0.72489082693E+03 -0.96158151259E+02 -0.12802668701E+04  0.14772044330E+04  0.91304858804E+02 0.  0.
         23    2    4    4    0    0 -0.35886148459E+02 -0.25176193722E+03 -0.79034479591E+03  0.83524575295E+03  0.91206812871E+02 0.  0.
          5    1    3    3  502    0  0.20680146089E+03  0.10360023098E+03 -0.11128152040E+03  0.25672070206E+03  0.47000000000E+01 0. -1.
         -5    1    3    3    0  502  0.55397551450E+03  0.24431985751E+03 -0.14045366570E+03  0.62155481307E+03  0.47000000000E+01 0.  1.
         13    1    5    5    0    0 -0.57924918791E+03 -0.41152678753E+02 -0.98625440874E+03  0.11445177689E+04  0.00000000000E+00 0. -1.
        -13    1    5    5    0    0 -0.14564163902E+03 -0.55005472506E+02 -0.29401246135E+03  0.33268666407E+03  0.00000000000E+00 0.  1.
          4    1    6    6  503    0  0.17694541621E+02 -0.10880944242E+03 -0.42978838995E+03  0.44370108372E+03  0.00000000000E+00 0. -1.
         -4    1    6    6    0  503 -0.53580690080E+02 -0.14295249481E+03 -0.36055640596E+03  0.39154466923E+03  0.00000000000E+00 0.  1.
<mgrwt>
<rscale>  0 0.91806020E+03</rscale>
<asrwt>0</asrwt>
<pdfrwt beam="1">  1        2 0.42408250E+00 0.91806020E+03</pdfrwt>
<pdfrwt beam="2">  1       -2 0.66798373E-01 0.91806020E+03</pdfrwt>
<totfact> 0.52004372E+00</totfact>
</mgrwt>
</event>
<event>
12    1  0.3203156E-008  0.9714128E+03  0.7818608E-02  0.9340467E-01
          2   -1    0    0  501    0  0.00000000000E+00  0.00000000000E+00  0.14730463833E+04  0.14730463833E+04  0.00000000000E+00 0. -1.
         -2   -1    0    0    0  501 -0.00000000000E+00 -0.00000000000E+00 -0.78879876582E+03  0.78879876582E+03  0.00000000000E+00 0.  1.
         23    2    1    2    0    0  0.21438612974E+02 -0.95350243527E+03  0.29226562632E+02  0.95854207321E+03  0.91226125374E+02 0.  0.
    5000000    2    1    2    0    0 -0.21438612974E+02  0.95350243527E+03  0.65502105485E+03  0.13033030759E+04  0.59993317727E+03 0.  0.
         23    2    4    4    0    0  0.88560431926E+02  0.51975308161E+03  0.41879974637E+02  0.53851522247E+03  0.10128423674E+03 0.  0.
         23    2    4    4    0    0 -0.10999904490E+03  0.43374935366E+03  0.61314108022E+03  0.76478785344E+03  0.93381929965E+02 0.  0.
          5    1    3    3  502    0  0.10297330061E+02 -0.78887538481E+03 -0.93994148213E+01  0.78901257706E+03  0.47000000000E+01 0. -1.
         -5    1    3    3    0  502  0.11141282913E+02 -0.16462705046E+03  0.38625977453E+02  0.16952949614E+03  0.47000000000E+01 0.  1.
         11    1    5    5    0    0 -0.21003444522E+02  0.11230328704E+03 -0.23895419119E+01  0.11427546925E+03  0.00000000000E+00 0. -1.
        -11    1    5    5    0    0  0.10956387645E+03  0.40744979458E+03  0.44269516548E+02  0.42423975323E+03  0.00000000000E+00 0.  1.
          4    1    6    6  503    0 -0.67308197935E+02  0.13509258425E+03  0.25695978872E+03  0.29800794091E+03  0.00000000000E+00 0. -1.
         -4    1    6    6    0  503 -0.42690846965E+02  0.29865676940E+03  0.35618129150E+03  0.46677991253E+03  0.00000000000E+00 0.  1.
<mgrwt>
<rscale>  0 0.97141278E+03</rscale>
<asrwt>0</asrwt>
<pdfrwt beam="1">  1        2 0.22662252E+00 0.97141278E+03</pdfrwt>
<pdfrwt beam="2">  1       -2 0.12135366E+00 0.97141278E+03</pdfrwt>
<totfact> 0.67675115E+00</totfact>
</mgrwt>
</event>
<event>
12    1  0.3203156E-008  0.6114263E+03  0.7818608E-02  0.9881980E-01
         -2   -1    0    0    0  501 -0.00000000000E+00  0.00000000000E+00  0.27078871526E+03  0.27078871526E+03  0.00000000000E+00 0.  1.
          2   -1    0    0  501    0  0.00000000000E+00 -0.00000000000E+00 -0.19315169394E+04  0.19315169394E+04  0.00000000000E+00 0. -1.
         23    2    1    2    0    0  0.23873102027E+03  0.52704958069E+03 -0.48150815927E+03  0.75824783227E+03  0.91191595830E+02 0.  0.
    5000000    2    1    2    0    0 -0.23873102027E+03 -0.52704958069E+03 -0.11792200649E+04  0.14440578224E+04  0.59997439320E+03 0.  0.
         23    2    4    4    0    0  0.30478392562E+02 -0.15869236957E+03 -0.85932274635E+03  0.87925778979E+03  0.92447162970E+02 0.  0.
         23    2    4    4    0    0 -0.26920941283E+03 -0.36835721112E+03 -0.31989731851E+03  0.56480003260E+03  0.92217349196E+02 0.  0.
          5    1    3    3  502    0  0.16806124469E+03  0.32090272258E+03 -0.24933808464E+03  0.43978939253E+03  0.47000000000E+01 0. -1.
         -5    1    3    3    0  502  0.70669775580E+02  0.20614685811E+03 -0.23217007463E+03  0.31845843974E+03  0.47000000000E+01 0.  1.
         11    1    5    5    0    0  0.52851238530E+02 -0.84138954771E+02 -0.61085126536E+03  0.61887954040E+03  0.00000000000E+00 0.  1.
        -11    1    5    5    0    0 -0.22372845969E+02 -0.74553414794E+02 -0.24847148098E+03  0.26037824939E+03  0.00000000000E+00 0. -1.
          4    1    6    6  503    0 -0.18956288596E+03 -0.18222673252E+03 -0.18563142560E+03  0.32186906646E+03  0.00000000000E+00 0. -1.
         -4    1    6    6    0  503 -0.79646526875E+02 -0.18613047861E+03 -0.13426589291E+03  0.24293096614E+03  0.00000000000E+00 0.  1.
<mgrwt>
<rscale>  0 0.61142633E+03</rscale>
<asrwt>0</asrwt>
<pdfrwt beam="1">  1        2 0.29715646E+00 0.61142633E+03</pdfrwt>
<pdfrwt beam="2">  1       -2 0.41659802E-01 0.61142633E+03</pdfrwt>
<totfact> 0.41778235E+01</totfact>
</mgrwt>
</event>
<event>
12    1  0.3203156E-008  0.1293359E+04  0.7818608E-02  0.9034848E-01
          1   -1    0    0  501    0  0.00000000000E+00  0.00000000000E+00  0.11499047654E+04  0.11499047654E+04  0.00000000000E+00 0. -1.
         -1   -1    0    0    0  501 -0.00000000000E+00 -0.00000000000E+00 -0.17726320488E+04  0.17726320488E+04  0.00000000000E+00 0.  1.
         23    2    1    2    0    0 -0.64958192844E+03  0.10403273916E+04  0.31010806274E+03  0.12689294156E+04  0.98879157152E+02 0.  0.
    5000000    2    1    2    0    0  0.64958192844E+03 -0.10403273916E+04 -0.93283534620E+03  0.16536073986E+04  0.59999823504E+03 0.  0.
         23    2    4    4    0    0  0.73890479212E+03 -0.95133114396E+03 -0.79638777690E+03  0.14469156940E+04  0.91215661740E+02 0.  0.
         23    2    4    4    0    0 -0.89322863686E+02 -0.88996247666E+02 -0.13644756930E+03  0.20669170464E+03  0.90579332748E+02 0.  0.
          5    1    3    3  502    0 -0.59620726750E+03  0.94623023379E+03  0.25364649290E+03  0.11468100952E+04  0.47000000000E+01 0. -1.
         -5    1    3    3    0  502 -0.53374660941E+02  0.94097157836E+02  0.56461569841E+02  0.12211932039E+03  0.47000000000E+01 0.  1.
         11    1    5    5    0    0  0.70050055107E+03 -0.89310914120E+03 -0.77332521861E+03  0.13734543509E+04  0.00000000000E+00 0. -1.
        -11    1    5    5    0    0  0.38404241054E+02 -0.58222002752E+02 -0.23062558287E+02  0.73461343101E+02  0.00000000000E+00 0.  1.
          3    1    6    6  503    0 -0.90315742785E+02 -0.28477480703E+02 -0.85123874022E+02  0.12733410474E+03  0.00000000000E+00 0. -1.
         -3    1    6    6    0  503  0.99287909926E+00 -0.60518766963E+02 -0.51323695283E+02  0.79357599895E+02  0.00000000000E+00 0.  1.
<mgrwt>
<rscale>  0 0.12933586E+04</rscale>
<asrwt>0</asrwt>
<pdfrwt beam="1">  1        1 0.17690843E+00 0.12933586E+04</pdfrwt>
<pdfrwt beam="2">  1       -1 0.27271262E+00 0.12933586E+04</pdfrwt>
<totfact> 0.56066091E-01</totfact>
</mgrwt>
</event>
<event>
12    1  0.3203156E-008  0.7578987E+03  0.7818608E-02  0.9623039E-01
          2   -1    0    0  501    0  0.00000000000E+00  0.00000000000E+00  0.16549145385E+04  0.16549145385E+04  0.00000000000E+00 0. -1.
         -2   -1    0    0    0  501 -0.00000000000E+00 -0.00000000000E+00 -0.52876627261E+03  0.52876627261E+03  0.00000000000E+00 0.  1.
         23    2    1    2    0    0 -0.59818489672E+03 -0.44044253182E+03  0.95555999465E+03  0.12137941615E+04  0.91578209972E+02 0.  0.
    5000000    2    1    2    0    0  0.59818489672E+03  0.44044253182E+03  0.17058827121E+03  0.96988664962E+03  0.59980410164E+03 0.  0.
         23    2    4    4    0    0  0.16157420442E+03  0.85492362331E+02 -0.20337011155E+03  0.28780169836E+03  0.89751032061E+02 0.  0.
         23    2    4    4    0    0  0.43661069230E+03  0.35495016949E+03  0.37395838276E+03  0.68208495126E+03  0.93682918672E+02 0.  0.
          5    1    3    3  502    0 -0.21945940913E+03 -0.11153256714E+03  0.33794154747E+03  0.41812501156E+03  0.47000000000E+01 0. -1.
         -5    1    3    3    0  502 -0.37872548759E+03 -0.32890996467E+03  0.61761844719E+03  0.79566914991E+03  0.47000000000E+01 0.  1.
         13    1    5    5    0    0  0.54673739972E+02 -0.83747167859E+01 -0.91091016722E+02  0.10656888407E+03  0.00000000000E+00 0.  1.
        -13    1    5    5    0    0  0.10690046445E+03  0.93867079117E+02 -0.11227909483E+03  0.18123281429E+03  0.00000000000E+00 0. -1.
          2    1    6    6  503    0  0.17169657633E+03  0.19951347690E+03  0.17770347311E+03  0.31759072112E+03  0.00000000000E+00 0. -1.
         -2    1    6    6    0  503  0.26491411597E+03  0.15543669259E+03  0.19625490965E+03  0.36449423014E+03  0.00000000000E+00 0.  1.
<mgrwt>
<rscale>  0 0.75789868E+03</rscale>
<asrwt>0</asrwt>
<pdfrwt beam="1">  1        2 0.25460224E+00 0.75789868E+03</pdfrwt>
<pdfrwt beam="2">  1       -2 0.81348658E-01 0.75789868E+03</pdfrwt>
<totfact> 0.14195114E+01</totfact>
</mgrwt>
</event>
<event>
12    1  0.3203156E-008  0.6385399E+03  0.7818608E-02  0.9828524E-01
         -2   -1    0    0    0  501 -0.00000000000E+00  0.00000000000E+00  0.23130370013E+03  0.23130370013E+03  0.00000000000E+00 0.  1.
          2   -1    0    0  501    0  0.00000000000E+00 -0.00000000000E+00 -0.30294634958E+04  0.30294634958E+04  0.00000000000E+00 0. -1.
         23    2    1    2    0    0 -0.70687811321E+02 -0.49655572727E+03 -0.22466777100E+04  0.23038693544E+04  0.93214337068E+02 0.  0.
    5000000    2    1    2    0    0  0.70687811321E+02  0.49655572727E+03 -0.55148208572E+03  0.95689784158E+03  0.59996385840E+03 0.  0.
         23    2    4    4    0    0 -0.22139814383E+03  0.38637129375E+03 -0.28454465177E+03  0.53661423869E+03  0.93216241052E+02 0.  0.
         23    2    4    4    0    0  0.29208595515E+03  0.11018443352E+03 -0.26693743395E+03  0.42028360288E+03  0.89038747873E+02 0.  0.
          5    1    3    3  502    0 -0.90302643828E+02 -0.33067942223E+03 -0.14774768502E+04  0.15167278532E+04  0.47000000000E+01 0. -1.
         -5    1    3    3    0  502  0.19614832507E+02 -0.16587630504E+03 -0.76920085973E+03  0.78714150116E+03  0.47000000000E+01 0.  1.
         11    1    5    5    0    0 -0.19513482686E+03  0.25621272897E+03 -0.19586813782E+03  0.37694414779E+03  0.00000000000E+00 0. -1.
        -11    1    5    5    0    0 -0.26263316965E+02  0.13015856477E+03 -0.88676513949E+02  0.15967009090E+03  0.00000000000E+00 0.  1.
          3    1    6    6  503    0  0.98152086678E+02  0.32282018893E+02 -0.14586150683E+03  0.17874993717E+03  0.00000000000E+00 0. -1.
         -3    1    6    6    0  503  0.19393386847E+03  0.77902414632E+02 -0.12107592712E+03  0.24153366571E+03  0.00000000000E+00 0.  1.
<mgrwt>
<rscale>  0 0.63853993E+03</rscale>
<asrwt>0</asrwt>
<pdfrwt beam="1">  1        2 0.46607131E+00 0.63853993E+03</pdfrwt>
<pdfrwt beam="2">  1       -2 0.35585184E-01 0.63853993E+03</pdfrwt>
<totfact> 0.13437074E+01</totfact>
</mgrwt>
</event>
<event>
12    1  0.3203156E-008  0.6532513E+03  0.7818608E-02  0.9800697E-01
          1   -1    0    0  501    0  0.00000000000E+00  0.00000000000E+00  0.16356835813E+04  0.16356835813E+04  0.00000000000E+00 0. -1.
         -1   -1    0    0    0  501 -0.00000000000E+00 -0.00000000000E+00 -0.32848875553E+03  0.32848875553E+03  0.00000000000E+00 0.  1.
         23    2    1    2    0    0 -0.34320518138E+03  0.48248698715E+03  0.72152536419E+03  0.93763948243E+03  0.89361392918E+02 0.  0.
    5000000    2    1    2    0    0  0.34320518138E+03 -0.48248698715E+03  0.58566946161E+03  0.10265328544E+04  0.60014789317E+03 0.  0.
         23    2    4    4    0    0  0.10016333444E+02 -0.34981884031E+03  0.54462080569E+03  0.65383994931E+03  0.91767692267E+02 0.  0.
         23    2    4    4    0    0  0.33318884793E+03 -0.13266814683E+03  0.41048655916E+02  0.37269290512E+03  0.92732754766E+02 0.  0.
          5    1    3    3  502    0 -0.23882867338E+03  0.35072231799E+03  0.57479032221E+03  0.71445873504E+03  0.47000000000E+01 0. -1.
         -5    1    3    3    0  502 -0.10437650800E+03  0.13176466916E+03  0.14673504198E+03  0.22318074739E+03  0.47000000000E+01 0.  1.
         11    1    5    5    0    0  0.32661619901E+02 -0.12327555904E+03  0.13861130946E+03  0.18835270102E+03  0.00000000000E+00 0.  1.
        -11    1    5    5    0    0 -0.22645286457E+02 -0.22654328128E+03  0.40600949623E+03  0.46548724829E+03  0.00000000000E+00 0. -1.
          1    1    6    6  503    0  0.10453404519E+03 -0.36205756810E+02  0.56157576216E+02  0.12406408343E+03  0.00000000000E+00 0. -1.
         -1    1    6    6    0  503  0.22865480274E+03 -0.96462390021E+02 -0.15108920300E+02  0.24862882169E+03  0.00000000000E+00 0.  1.
<mgrwt>
<rscale>  0 0.65325130E+03</rscale>
<asrwt>0</asrwt>
<pdfrwt beam="1">  1        1 0.25164362E+00 0.65325130E+03</pdfrwt>
<pdfrwt beam="2">  1       -1 0.50536733E-01 0.65325130E+03</pdfrwt>
<totfact> 0.21783028E+01</totfact>
</mgrwt>
</event>
<event>
12    1  0.3203156E-008  0.5448410E+03  0.7818608E-02  0.1002695E+00
          1   -1    0    0  501    0  0.00000000000E+00  0.00000000000E+00  0.15613736154E+04  0.15613736154E+04  0.00000000000E+00 0.  1.
         -1   -1    0    0    0  501 -0.00000000000E+00 -0.00000000000E+00 -0.63143783408E+03  0.63143783408E+03  0.00000000000E+00 0. -1.
         23    2    1    2    0    0 -0.16174225372E+03 -0.43651302285E+03  0.12735038234E+04  0.13593346865E+04  0.96304858296E+02 0.  0.
    5000000    2    1    2    0    0  0.16174225372E+03  0.43651302285E+03 -0.34356804210E+03  0.83347676303E+03  0.59995028061E+03 0.  0.
         23    2    4    4    0    0  0.23806427830E+03  0.10197424678E+03 -0.38980935429E+03  0.47648735597E+03  0.89529437051E+02 0.  0.
         23    2    4    4    0    0 -0.76322024575E+02  0.33453877608E+03  0.46241312193E+02  0.35698940706E+03  0.86959379400E+02 0.  0.
          5    1    3    3  502    0 -0.12171814357E+03 -0.32700516860E+03  0.82213823071E+03  0.89312991617E+03  0.47000000000E+01 0. -1.
         -5    1    3    3    0  502 -0.40024110150E+02 -0.10950785425E+03  0.45136559273E+03  0.46620477029E+03  0.47000000000E+01 0.  1.
         11    1    5    5    0    0  0.11341452712E+03  0.90182946304E+02 -0.24875101728E+03  0.28787651409E+03  0.00000000000E+00 0.  1.
        -11    1    5    5    0    0  0.12464975117E+03  0.11791300474E+02 -0.14105833702E+03  0.18861084189E+03  0.00000000000E+00 0. -1.
          4    1    6    6  503    0  0.19613100502E+02  0.58154639426E+02  0.57894965656E+01  0.61645389678E+02  0.00000000000E+00 0. -1.
         -4    1    6    6    0  503 -0.95935125078E+02  0.27638413665E+03  0.40451815627E+02  0.29534401738E+03  0.00000000000E+00 0.  1.
<mgrwt>
<rscale>  0 0.54484099E+03</rscale>
<asrwt>0</asrwt>
<pdfrwt beam="1">  1        1 0.24021132E+00 0.54484099E+03</pdfrwt>
<pdfrwt beam="2">  1       -1 0.97144283E-01 0.54484099E+03</pdfrwt>
<totfact> 0.65432704E+00</totfact>
</mgrwt>
</event>
<event>
12    1  0.3203156E-008  0.8613349E+03  0.7818608E-02  0.9475249E-01
          1   -1    0    0  501    0  0.00000000000E+00  0.00000000000E+00  0.16669431816E+04  0.16669431816E+04  0.00000000000E+00 0. -1.
         -1   -1    0    0    0  501 -0.00000000000E+00 -0.00000000000E+00 -0.51736544125E+03  0.51736544125E+03  0.00000000000E+00 0.  1.
         23    2    1    2    0    0 -0.12474442412E+03 -0.77439990594E+03  0.83189688641E+03  0.11469819468E+04  0.90877780026E+02 0.  0.
    5000000    2    1    2    0    0  0.12474442412E+03  0.77439990594E+03  0.31768085389E+03  0.10373266760E+04  0.59989092528E+03 0.  0.
         23    2    4    4    0    0  0.45159804244E+02 -0.58904509951E+02 -0.34842333895E+02  0.12437447160E+03  0.93519365598E+02 0.  0.
         23    2    4    4    0    0  0.79584619875E+02  0.83330441589E+03  0.35252318779E+03  0.91295220445E+03  0.92082400113E+02 0.  0.
          5    1    3    3  502    0 -0.27673673398E+02 -0.41257165901E+03  0.40166945034E+03  0.57649080075E+03  0.47000000000E+01 0. -1.
         -5    1    3    3    0  502 -0.97070750721E+02 -0.36182824693E+03  0.43022743607E+03  0.57049114601E+03  0.47000000000E+01 0.  1.
         13    1    5    5    0    0 -0.13149115783E+02 -0.25556428913E+02 -0.47980619864E+02  0.55930047266E+02  0.00000000000E+00 0. -1.
        -13    1    5    5    0    0  0.58308920027E+02 -0.33348081038E+02  0.13138285969E+02  0.68444424330E+02  0.00000000000E+00 0.  1.
          4    1    6    6  503    0  0.82164059207E+02  0.63935838583E+03  0.23473394925E+03  0.68602485748E+03  0.00000000000E+00 0. -1.
         -4    1    6    6    0  503 -0.25794393323E+01  0.19394603007E+03  0.11778923854E+03  0.22692734697E+03  0.00000000000E+00 0.  1.
<mgrwt>
<rscale>  0 0.86133486E+03</rscale>
<asrwt>0</asrwt>
<pdfrwt beam="1">  1        1 0.25645279E+00 0.86133486E+03</pdfrwt>
<pdfrwt beam="2">  1       -1 0.79594684E-01 0.86133486E+03</pdfrwt>
<totfact> 0.81149823E+00</totfact>
</mgrwt>
</event>
<event>
12    1  0.3203156E-008  0.5287602E+03  0.7818608E-02  0.1006533E+00
          2   -1    0    0  501    0  0.00000000000E+00  0.00000000000E+00  0.31088806897E+04  0.31088806897E+04  0.00000000000E+00 0.  1.
         -2   -1    0    0    0  501 -0.00000000000E+00 -0.00000000000E+00 -0.13810361029E+03  0.13810361029E+03  0.00000000000E+00 0. -1.
         23    2    1    2    0    0  0.12155898010E+03  0.34688412657E+03  0.20683961987E+04  0.21027131707E+04  0.89636268999E+02 0.  0.
    5000000    2    1    2    0    0 -0.12155898010E+03 -0.34688412657E+03  0.90238088072E+03  0.11442711293E+04  0.59996664946E+03 0.  0.
         23    2    4    4    0    0 -0.12403609525E+03  0.13973104690E+03  0.28194683717E+03  0.35035436800E+03  0.91347938109E+02 0.  0.
         23    2    4    4    0    0  0.24771151478E+01 -0.48661517347E+03  0.62043404355E+03  0.79391676126E+03  0.92547059686E+02 0.  0.
          5    1    3    3  502    0  0.12513317061E+03  0.23603592484E+03  0.14351728158E+04  0.14598336787E+04  0.47000000000E+01 0. -1.
         -5    1    3    3    0  502 -0.35741905110E+01  0.11084820174E+03  0.63322338285E+03  0.64287949201E+03  0.47000000000E+01 0.  1.
         11    1    5    5    0    0 -0.49635887599E+02  0.90996389095E+02  0.84257816126E+02  0.13357935373E+03  0.00000000000E+00 0.  1.
        -11    1    5    5    0    0 -0.74400207651E+02  0.48734657804E+02  0.19768902104E+03  0.21677501427E+03  0.00000000000E+00 0. -1.
          1    1    6    6  503    0  0.55585827394E+01 -0.16141659873E+03  0.27906384108E+03  0.32243269621E+03  0.00000000000E+00 0. -1.
         -1    1    6    6    0  503 -0.30814675916E+01 -0.32519857475E+03  0.34137020247E+03  0.47148406505E+03  0.00000000000E+00 0.  1.
<mgrwt>
<rscale>  0 0.52876025E+03</rscale>
<asrwt>0</asrwt>
<pdfrwt beam="1">  1        2 0.47828929E+00 0.52876025E+03</pdfrwt>
<pdfrwt beam="2">  1       -2 0.21246712E-01 0.52876025E+03</pdfrwt>
<totfact> 0.31517403E+01</totfact>
</mgrwt>
</event>
<event>
12    1  0.3203156E-008  0.5232244E+03  0.7818608E-02  0.1007889E+00
          2   -1    0    0  501    0  0.00000000000E+00  0.00000000000E+00  0.23013754830E+04  0.23013754830E+04  0.00000000000E+00 0.  1.
         -2   -1    0    0    0  501 -0.00000000000E+00 -0.00000000000E+00 -0.18639826948E+03  0.18639826948E+03  0.00000000000E+00 0. -1.
         23    2    1    2    0    0  0.44260649505E+03 -0.14469647415E+03  0.43992795359E+03  0.64858184940E+03  0.10141120216E+03 0.  0.
    5000000    2    1    2    0    0 -0.44260649505E+03  0.14469647415E+03  0.16750492599E+04  0.18391919030E+04  0.59999937841E+03 0.  0.
         23    2    4    4    0    0 -0.66091555046E+02 -0.89864688799E+02  0.10907990637E+04  0.11002925380E+04  0.91418355802E+02 0.  0.
         23    2    4    4    0    0 -0.37651494001E+03  0.23456116295E+03  0.58425019616E+03  0.73889936506E+03  0.88552474611E+02 0.  0.
          5    1    3    3  502    0  0.12093363071E+03 -0.12354348651E+02  0.16602961881E+03  0.20582880578E+03  0.47000000000E+01 0. -1.
         -5    1    3    3    0  502  0.32167286434E+03 -0.13234212550E+03  0.27389833478E+03  0.44275304361E+03  0.47000000000E+01 0. -1.
         13    1    5    5    0    0  0.10400947946E+02 -0.61794977218E+01  0.40532516854E+03  0.40550568203E+03  0.00000000000E+00 0. -1.
        -13    1    5    5    0    0 -0.76492502991E+02 -0.83685191077E+02  0.68547389519E+03  0.69478685595E+03  0.00000000000E+00 0.  1.
          2    1    6    6  503    0 -0.32881337799E+03  0.23430336070E+03  0.50724349698E+03  0.64831494477E+03  0.00000000000E+00 0. -1.
         -2    1    6    6    0  503 -0.47701562017E+02  0.25780224658E+00  0.77006699178E+02  0.90584420289E+02  0.00000000000E+00 0.  1.
<mgrwt>
<rscale>  0 0.52322440E+03</rscale>
<asrwt>0</asrwt>
<pdfrwt beam="1">  1        2 0.35405775E+00 0.52322440E+03</pdfrwt>
<pdfrwt beam="2">  1       -2 0.28676658E-01 0.52322440E+03</pdfrwt>
<totfact> 0.54092811E+01</totfact>
</mgrwt>
</event>
<event>
12    1  0.3203156E-008  0.5376583E+03  0.7818608E-02  0.1004392E+00
          1   -1    0    0  501    0  0.00000000000E+00  0.00000000000E+00  0.58060699715E+03  0.58060699715E+03  0.00000000000E+00 0. -1.
         -1   -1    0    0    0  501 -0.00000000000E+00 -0.00000000000E+00 -0.73067688419E+03  0.73067688419E+03  0.00000000000E+00 0.  1.
         23    2    1    2    0    0  0.35783765855E+03 -0.94700089931E+02  0.29172050005E+03  0.47917020316E+03  0.86529396946E+02 0.  0.
    5000000    2    1    2    0    0 -0.35783765855E+03  0.94700089931E+02 -0.44179038708E+03  0.83211367818E+03  0.60018208102E+03 0.  0.
         23    2    4    4    0    0  0.78899951960E+02 -0.15212106409E+03 -0.87054109688E+02  0.21067066735E+03  0.86242051863E+02 0.  0.
         23    2    4    4    0    0 -0.43673761051E+03  0.24682115402E+03 -0.35473627740E+03  0.62144301082E+03  0.93237152971E+02 0.  0.
          5    1    3    3  502    0  0.13127969507E+03 -0.76262642139E+02  0.10096749368E+03  0.18239208783E+03  0.47000000000E+01 0. -1.
         -5    1    3    3    0  502  0.22655796348E+03 -0.18437447792E+02  0.19075300637E+03  0.29677811533E+03  0.47000000000E+01 0.  1.
         13    1    5    5    0    0 -0.10695835858E+02 -0.51709674186E+02 -0.49661749951E+01  0.53037290685E+02  0.00000000000E+00 0. -1.
        -13    1    5    5    0    0  0.89595787818E+02 -0.10041138991E+03 -0.82087934693E+02  0.15763337667E+03  0.00000000000E+00 0.  1.
          1    1    6    6  503    0 -0.18241206628E+03  0.56260825850E+02 -0.10986815008E+03  0.22025088616E+03  0.00000000000E+00 0. -1.
         -1    1    6    6    0  503 -0.25432554423E+03  0.19056032817E+03 -0.24486812732E+03  0.40119212467E+03  0.00000000000E+00 0.  1.
<mgrwt>
<rscale>  0 0.53765833E+03</rscale>
<asrwt>0</asrwt>
<pdfrwt beam="1">  1        1 0.89324154E-01 0.53765833E+03</pdfrwt>
<pdfrwt beam="2">  1       -1 0.11241183E+00 0.53765833E+03</pdfrwt>
<totfact> 0.27366668E+01</totfact>
</mgrwt>
</event>
<event>
12    1  0.3203156E-008  0.1343727E+04  0.7818608E-02  0.8995590E-01
          1   -1    0    0  501    0  0.00000000000E+00  0.00000000000E+00  0.15295135386E+04  0.15295135386E+04  0.00000000000E+00 0. -1.
         -1   -1    0    0    0  501 -0.00000000000E+00 -0.00000000000E+00 -0.12387040913E+04  0.12387040913E+04  0.00000000000E+00 0.  1.
         23    2    1    2    0    0 -0.12539603901E+04 -0.36280205259E+03  0.24146305033E+03  0.13306524133E+04  0.91046422440E+02 0.  0.
    5000000    2    1    2    0    0  0.12539603901E+04  0.36280205259E+03  0.49346396981E+02  0.14375652166E+04  0.60009723863E+03 0.  0.
         23    2    4    4    0    0  0.30478534950E+01 -0.20059459696E+02  0.84550334769E+02  0.12574315021E+03  0.90834516463E+02 0.  0.
         23    2    4    4    0    0  0.12509125366E+04  0.38286151228E+03 -0.35203937788E+02  0.13118220664E+04  0.90954410765E+02 0.  0.
          5    1    3    3  502    0 -0.96528691817E+03 -0.26275847821E+03  0.22013815028E+03  0.10243552838E+04  0.47000000000E+01 0. -1.
         -5    1    3    3    0  502 -0.28867347192E+03 -0.10004357437E+03  0.21324900051E+02  0.30629712948E+03  0.47000000000E+01 0.  1.
         11    1    5    5    0    0 -0.67087617153E+01 -0.44970646423E+02  0.87718710241E+02  0.98802523499E+02  0.00000000000E+00 0. -1.
        -11    1    5    5    0    0  0.97566152103E+01  0.24911186726E+02 -0.31683754717E+01  0.26940626712E+02  0.00000000000E+00 0.  1.
          3    1    6    6  503    0  0.77779946695E+02  0.37480378439E+02  0.16103370004E+02  0.87828340536E+02  0.00000000000E+00 0. -1.
         -3    1    6    6    0  503  0.11731325899E+04  0.34538113384E+03 -0.51307307792E+02  0.12239937259E+04  0.00000000000E+00 0.  1.
<mgrwt>
<rscale>  0 0.13437273E+04</rscale>
<asrwt>0</asrwt>
<pdfrwt beam="1">  1        1 0.23530977E+00 0.13437273E+04</pdfrwt>
<pdfrwt beam="2">  1       -1 0.19056986E+00 0.13437273E+04</pdfrwt>
<totfact> 0.10529622E+00</totfact>
</mgrwt>
</event>
<event>
12    1  0.3203156E-008  0.5991818E+03  0.7818608E-02  0.9907105E-01
          1   -1    0    0  501    0  0.00000000000E+00  0.00000000000E+00  0.79684493868E+03  0.79684493868E+03  0.00000000000E+00 0. -1.
         -1   -1    0    0    0  501 -0.00000000000E+00 -0.00000000000E+00 -0.52850642178E+03  0.52850642178E+03  0.00000000000E+00 0.  1.
         23    2    1    2    0    0 -0.40684035949E+03  0.20771896024E+03 -0.11438490942E+03  0.47964301692E+03  0.91144235268E+02 0.  0.
    5000000    2    1    2    0    0  0.40684035949E+03 -0.20771896024E+03  0.38272342633E+03  0.84570834354E+03  0.60006594365E+03 0.  0.
         23    2    4    4    0    0  0.34294591763E+02 -0.33063708281E+03  0.23275528812E+03  0.41629406168E+03  0.92890915012E+02 0.  0.
         23    2    4    4    0    0  0.37254576773E+03  0.12291812257E+03  0.14996813821E+03  0.42941428187E+03  0.89481668968E+02 0.  0.
          5    1    3    3  502    0 -0.10086022725E+03  0.65583657914E+02  0.81318853803E+01  0.12067402034E+03  0.47000000000E+01 0. -1.
         -5    1    3    3    0  502 -0.30598013225E+03  0.14213530232E+03 -0.12251679480E+03  0.35896899658E+03  0.47000000000E+01 0.  1.
         11    1    5    5    0    0 -0.20649833136E+02 -0.18371229805E+02  0.13163727501E+02  0.30613745521E+02  0.00000000000E+00 0.  1.
        -11    1    5    5    0    0  0.54944424898E+02 -0.31226585300E+03  0.21959156061E+03  0.38568031616E+03  0.00000000000E+00 0. -1.
          3    1    6    6  503    0  0.30550520705E+03  0.12153773887E+03  0.15222377169E+03  0.36232158392E+03  0.00000000000E+00 0. -1.
         -3    1    6    6    0  503  0.67040560681E+02  0.13803836961E+01 -0.22556334784E+01  0.67092697948E+02  0.00000000000E+00 0.  1.
<mgrwt>
<rscale>  0 0.59918184E+03</rscale>
<asrwt>0</asrwt>
<pdfrwt beam="1">  1        1 0.12259153E+00 0.59918184E+03</pdfrwt>
<pdfrwt beam="2">  1       -1 0.81308681E-01 0.59918184E+03</pdfrwt>
<totfact> 0.34953041E+01</totfact>
</mgrwt>
</event>
<event>
12    1  0.3203156E-008  0.1040472E+04  0.7818608E-02  0.9265237E-01
          2   -1    0    0  501    0  0.00000000000E+00  0.00000000000E+00  0.27095804001E+04  0.27095804001E+04  0.00000000000E+00 0.  1.
         -2   -1    0    0    0  501 -0.00000000000E+00 -0.00000000000E+00 -0.78070655703E+03  0.78070655703E+03  0.00000000000E+00 0. -1.
         23    2    1    2    0    0 -0.95772939777E+03 -0.98267893105E+02 -0.27873018834E+03  0.10082880289E+04  0.10978184360E+03 0.  0.
    5000000    2    1    2    0    0  0.95772939777E+03  0.98267893105E+02  0.22076040314E+04  0.24819989282E+04  0.59991744604E+03 0.  0.
         23    2    4    4    0    0  0.36775394825E+03  0.31615898967E+03  0.10592958045E+04  0.11686425049E+04  0.91750911203E+02 0.  0.
         23    2    4    4    0    0  0.58997544951E+03 -0.21789109657E+03  0.11483082269E+04  0.13133564233E+04  0.10366170759E+03 0.  0.
          5    1    3    3  502    0 -0.38141180200E+03 -0.15017607990E+02 -0.16041335199E+03  0.41407127980E+03  0.47000000000E+01 0. -1.
         -5    1    3    3    0  502 -0.57631759576E+03 -0.83250285115E+02 -0.11831683635E+03  0.59421674911E+03  0.47000000000E+01 0.  1.
         13    1    5    5    0    0  0.16519233924E+03  0.17359725780E+03  0.42847435627E+03  0.49093257260E+03  0.00000000000E+00 0.  1.
        -13    1    5    5    0    0  0.20256160902E+03  0.14256173187E+03  0.63082144822E+03  0.67770993233E+03  0.00000000000E+00 0. -1.
          1    1    6    6  503    0  0.35220898160E+03 -0.11530809469E+03  0.77467625024E+03  0.85876097728E+03  0.00000000000E+00 0. -1.
         -1    1    6    6    0  503  0.23776646791E+03 -0.10258300188E+03  0.37363197664E+03  0.45459544598E+03  0.00000000000E+00 0.  1.
<mgrwt>
<rscale>  0 0.10404720E+04</rscale>
<asrwt>0</asrwt>
<pdfrwt beam="1">  1        2 0.41685852E+00 0.10404720E+04</pdfrwt>
<pdfrwt beam="2">  1       -2 0.12010870E+00 0.10404720E+04</pdfrwt>
<totfact> 0.13956188E+00</totfact>
</mgrwt>
</event>
<event>
12    1  0.3203156E-008  0.5252995E+03  0.7818608E-02  0.1007379E+00
          1   -1    0    0  501    0  0.00000000000E+00  0.00000000000E+00  0.23659847394E+03  0.23659847394E+03  0.00000000000E+00 0. -1.
         -1   -1    0    0    0  501 -0.00000000000E+00 -0.00000000000E+00 -0.14113570876E+04  0.14113570876E+04  0.00000000000E+00 0.  1.
         23    2    1    2    0    0  0.25557423917E+03  0.29977804842E+03 -0.62369926143E+03  0.74304523890E+03  0.89052727681E+02 0.  0.
    5000000    2    1    2    0    0 -0.25557423917E+03 -0.29977804842E+03 -0.55105935227E+03  0.90491032268E+03  0.60000934354E+03 0.  0.
         23    2    4    4    0    0  0.99472273881E+02  0.77575962978E+02 -0.20283745854E+02  0.15748143667E+03  0.92066330693E+02 0.  0.
         23    2    4    4    0    0 -0.35504651305E+03 -0.37735401140E+03 -0.53077560642E+03  0.74742888601E+03  0.92049546069E+02 0.  0.
          5    1    3    3  502    0  0.21662375664E+03  0.19721957461E+03 -0.47709677347E+03  0.55987930289E+03  0.47000000000E+01 0. -1.
         -5    1    3    3    0  502  0.38950482529E+02  0.10255847381E+03 -0.14660248796E+03  0.18316593601E+03  0.47000000000E+01 0.  1.
         11    1    5    5    0    0  0.33086503558E+02  0.27835131729E+02  0.36805678422E+02  0.56781768554E+02  0.00000000000E+00 0. -1.
        -11    1    5    5    0    0  0.66385770323E+02  0.49740831249E+02 -0.57089424276E+02  0.10069966812E+03  0.00000000000E+00 0.  1.
          3    1    6    6  503    0 -0.19292713610E+03 -0.16115403837E+03 -0.20654194015E+03  0.32534762481E+03  0.00000000000E+00 0. -1.
         -3    1    6    6    0  503 -0.16211937695E+03 -0.21619997303E+03 -0.32423366627E+03  0.42208126120E+03  0.00000000000E+00 0.  1.
<mgrwt>
<rscale>  0 0.52529946E+03</rscale>
<asrwt>0</asrwt>
<pdfrwt beam="1">  1        1 0.36399764E-01 0.52529946E+03</pdfrwt>
<pdfrwt beam="2">  1       -1 0.21713186E+00 0.52529946E+03</pdfrwt>
<totfact> 0.14575930E+01</totfact>
</mgrwt>
</event>
<event>
12    1  0.3203156E-008  0.5558864E+03  0.7818608E-02  0.1000141E+00
         -1   -1    0    0    0  501 -0.00000000000E+00  0.00000000000E+00  0.17900289451E+03  0.17900289451E+03  0.00000000000E+00 0.  1.
          1   -1    0    0  501    0  0.00000000000E+00 -0.00000000000E+00 -0.21976436226E+04  0.21976436226E+04  0.00000000000E+00 0. -1.
         23    2    1    2    0    0  0.71838273314E+02  0.39652242685E+03 -0.29567567465E+03  0.50824644229E+03  0.92193107223E+02 0.  0.
    5000000    2    1    2    0    0 -0.71838273314E+02 -0.39652242685E+03 -0.17229650534E+04  0.18684000748E+04  0.59993290599E+03 0.  0.
         23    2    4    4    0    0 -0.23458078125E+03  0.21626284676E+02 -0.45777543654E+03  0.52308724889E+03  0.92553122756E+02 0.  0.
         23    2    4    4    0    0  0.16274250793E+03 -0.41814871152E+03 -0.12651896169E+04  0.13453128259E+04  0.88478042801E+02 0.  0.
          5    1    3    3  502    0  0.41000411934E+02  0.15276490748E+03 -0.64586224898E+02  0.17091407544E+03  0.47000000000E+01 0. -1.
         -5    1    3    3    0  502  0.30837861380E+02  0.24375751937E+03 -0.23108944975E+03  0.33733236685E+03  0.47000000000E+01 0.  1.
         13    1    5    5    0    0 -0.13318983575E+03 -0.31339055017E+02 -0.28076702909E+03  0.31233282463E+03  0.00000000000E+00 0. -1.
        -13    1    5    5    0    0 -0.10139094549E+03  0.52965339693E+02 -0.17700840745E+03  0.21075442426E+03  0.00000000000E+00 0.  1.
          1    1    6    6  503    0  0.11397643631E+03 -0.17689167085E+03 -0.54427735462E+03  0.58354016999E+03  0.00000000000E+00 0.  1.
         -1    1    6    6    0  503  0.48766071623E+02 -0.24125704067E+03 -0.72091226226E+03  0.76177265591E+03  0.00000000000E+00 0. -1.
<mgrwt>
<rscale>  0 0.55588640E+03</rscale>
<asrwt>0</asrwt>
<pdfrwt beam="1">  1        1 0.33809902E+00 0.55588640E+03</pdfrwt>
<pdfrwt beam="2">  1       -1 0.27538907E-01 0.55588640E+03</pdfrwt>
<totfact> 0.27811019E+01</totfact>
</mgrwt>
</event>
<event>
12    1  0.3203156E-008  0.8750356E+03  0.7818608E-02  0.9457338E-01
         -1   -1    0    0    0  501 -0.00000000000E+00  0.00000000000E+00  0.32626029709E+03  0.32626029709E+03  0.00000000000E+00 0.  1.
          1   -1    0    0  501    0  0.00000000000E+00 -0.00000000000E+00 -0.24140992616E+04  0.24140992616E+04  0.00000000000E+00 0. -1.
         23    2    1    2    0    0  0.55542137701E+03  0.55125728484E+03 -0.98393975190E+03  0.12601771619E+04  0.86784468202E+02 0.  0.
    5000000    2    1    2    0    0 -0.55542137701E+03 -0.55125728484E+03 -0.11038992126E+04  0.14801823968E+04  0.59997412944E+03 0.  0.
         23    2    4    4    0    0  0.10554570918E+03 -0.12325493887E+03 -0.14450385320E+03  0.23606076640E+03  0.92258577720E+02 0.  0.
         23    2    4    4    0    0 -0.66096708618E+03 -0.42800234597E+03 -0.95939535941E+03  0.12441216304E+04  0.85648574579E+02 0.  0.
          5    1    3    3  502    0  0.42526893696E+03  0.38103698409E+03 -0.67433622277E+03  0.88362564660E+03  0.47000000000E+01 0. -1.
         -5    1    3    3    0  502  0.13015244004E+03  0.17022030075E+03 -0.30960352914E+03  0.37655151532E+03  0.47000000000E+01 0.  1.
         13    1    5    5    0    0  0.38942411680E+02 -0.98212533362E+02 -0.12209446671E+03  0.16145981524E+03  0.00000000000E+00 0. -1.
        -13    1    5    5    0    0  0.66603297498E+02 -0.25042405507E+02 -0.22409386492E+02  0.74600951161E+02  0.00000000000E+00 0.  1.
          1    1    6    6  503    0 -0.22710230038E+03 -0.13172032812E+03 -0.26121678786E+03  0.37035106310E+03  0.00000000000E+00 0. -1.
         -1    1    6    6    0  503 -0.43386478580E+03 -0.29628201785E+03 -0.69817857155E+03  0.87377056727E+03  0.00000000000E+00 0.  1.
<mgrwt>
<rscale>  0 0.87503557E+03</rscale>
<asrwt>0</asrwt>
<pdfrwt beam="1">  1        1 0.37139989E+00 0.87503557E+03</pdfrwt>
<pdfrwt beam="2">  1       -1 0.50193892E-01 0.87503557E+03</pdfrwt>
<totfact> 0.64034114E+00</totfact>
</mgrwt>
</event>
<event>
12    1  0.3203156E-008  0.4996886E+03  0.7818608E-02  0.1013860E+00
         -2   -1    0    0    0  501 -0.00000000000E+00  0.00000000000E+00  0.79223254456E+03  0.79223254456E+03  0.00000000000E+00 0.  1.
          2   -1    0    0  501    0  0.00000000000E+00 -0.00000000000E+00 -0.53227527126E+03  0.53227527126E+03  0.00000000000E+00 0. -1.
         23    2    1    2    0    0  0.36272606591E+03  0.32563838860E+03 -0.34575120883E+02  0.49721587178E+03  0.91747616539E+02 0.  0.
    5000000    2    1    2    0    0 -0.36272606591E+03 -0.32563838860E+03  0.29453239418E+03  0.82729194405E+03  0.60004339047E+03 0.  0.
         23    2    4    4    0    0 -0.14784783426E+03 -0.99295196577E+02 -0.16804765917E+03  0.26192099076E+03  0.92973498835E+02 0.  0.
         23    2    4    4    0    0 -0.21487823165E+03 -0.22634319203E+03  0.46258005335E+03  0.56537095329E+03  0.90885169609E+02 0.  0.
          5    1    3    3  502    0  0.26437252941E+03  0.25652981454E+03  0.11013114909E+02  0.36856988313E+03  0.47000000000E+01 0. -1.
         -5    1    3    3    0  502  0.98353536499E+02  0.69108574065E+02 -0.45588235792E+02  0.12864598864E+03  0.47000000000E+01 0.  1.
         11    1    5    5    0    0 -0.14000079664E+03 -0.51707661684E+02 -0.14637773774E+03  0.20904628062E+03  0.00000000000E+00 0. -1.
        -11    1    5    5    0    0 -0.78470376250E+01 -0.47587534893E+02 -0.21669921429E+02  0.52874710131E+02  0.00000000000E+00 0.  1.
          3    1    6    6  503    0 -0.18069426097E+03 -0.20318901299E+03  0.33607708910E+03  0.43230082207E+03  0.00000000000E+00 0. -1.
         -3    1    6    6    0  503 -0.34183970677E+02 -0.23154179037E+02  0.12650296425E+03  0.13307013122E+03  0.00000000000E+00 0.  1.
<mgrwt>
<rscale>  0 0.49968856E+03</rscale>
<asrwt>0</asrwt>
<pdfrwt beam="1">  1        2 0.81888503E-01 0.49968856E+03</pdfrwt>
<pdfrwt beam="2">  1       -2 0.12188193E+00 0.49968856E+03</pdfrwt>
<totfact> 0.30313162E+01</totfact>
</mgrwt>
</event>
<event>
12    1  0.3203156E-008  0.3336527E+03  0.7818608E-02  0.1069532E+00
          2   -1    0    0  501    0  0.00000000000E+00  0.00000000000E+00  0.13946740165E+04  0.13946740165E+04  0.00000000000E+00 0.  1.
         -2   -1    0    0    0  501 -0.00000000000E+00 -0.00000000000E+00 -0.12361512639E+03  0.12361512639E+03  0.00000000000E+00 0. -1.
         23    2    1    2    0    0 -0.49957114183E+02 -0.15775347523E+03  0.17405739583E+03  0.25718609730E+03  0.92015430221E+02 0.  0.
    5000000    2    1    2    0    0  0.49957114183E+02  0.15775347523E+03  0.10970014943E+04  0.12611030456E+04  0.59965551856E+03 0.  0.
         23    2    4    4    0    0 -0.19663475385E+03  0.14570630439E+03  0.88756115600E+03  0.92495284703E+03  0.88754774731E+02 0.  0.
         23    2    4    4    0    0  0.24659186803E+03  0.12047170837E+02  0.20944033833E+03  0.33615019860E+03  0.90437917899E+02 0.  0.
          5    1    3    3  502    0  0.58218651477E+01 -0.65602032326E+02  0.19705796308E+02  0.68905218723E+02  0.47000000000E+01 0.  1.
         -5    1    3    3    0  502 -0.55778979331E+02 -0.92151442902E+02  0.15435159952E+03  0.18828087858E+03  0.47000000000E+01 0. -1.
         13    1    5    5    0    0 -0.13373504113E+03  0.94246599898E+02  0.42688371567E+03  0.45716210421E+03  0.00000000000E+00 0. -1.
        -13    1    5    5    0    0 -0.62899712715E+02  0.51459704493E+02  0.46067744033E+03  0.46779074282E+03  0.00000000000E+00 0.  1.
          1    1    6    6  503    0  0.20505923162E+03  0.20882885249E+02  0.12348548486E+03  0.24027910508E+03  0.00000000000E+00 0. -1.
         -1    1    6    6    0  503  0.41532636411E+02 -0.88357144120E+01  0.85954853474E+02  0.95871093517E+02  0.00000000000E+00 0.  1.
<mgrwt>
<rscale>  0 0.33365273E+03</rscale>
<asrwt>0</asrwt>
<pdfrwt beam="1">  1        2 0.21456522E+00 0.33365273E+03</pdfrwt>
<pdfrwt beam="2">  1       -2 0.19017713E-01 0.33365273E+03</pdfrwt>
<totfact> 0.35581262E+02</totfact>
</mgrwt>
</event>
<event>
12    1  0.3203156E-008  0.1310821E+04  0.7818608E-02  0.9021028E-01
          2   -1    0    0  501    0  0.00000000000E+00  0.00000000000E+00  0.31038178240E+04  0.31038178240E+04  0.00000000000E+00 0. -1.
         -2   -1    0    0    0  501 -0.00000000000E+00 -0.00000000000E+00 -0.95873884897E+03  0.95873884897E+03  0.00000000000E+00 0.  1.
         23    2    1    2    0    0 -0.84199557051E+03  0.92064595186E+03 -0.26914593145E+03  0.12795543066E+04  0.90962529463E+02 0.  0.
    5000000    2    1    2    0    0  0.84199557051E+03 -0.92064595186E+03  0.24142249065E+04  0.27830023664E+04  0.60006229894E+03 0.  0.
         23    2    4    4    0    0  0.52134512224E+02  0.57436665494E+02  0.16666732259E+03  0.20611269305E+03  0.93206587253E+02 0.  0.
         23    2    4    4    0    0  0.78986105828E+03 -0.97808261735E+03  0.22475575839E+04  0.25768896733E+04  0.91209636115E+02 0.  0.
          5    1    3    3  502    0 -0.33713470835E+03  0.32102578689E+03 -0.13071592599E+03  0.48355569558E+03  0.47000000000E+01 0. -1.
         -5    1    3    3    0  502 -0.50486086216E+03  0.59962016497E+03 -0.13843000546E+03  0.79599861105E+03  0.47000000000E+01 0.  1.
         11    1    5    5    0    0 -0.19993770656E+02  0.32970779288E+02  0.27147804166E+02  0.47157464127E+02  0.00000000000E+00 0. -1.
        -11    1    5    5    0    0  0.72128282880E+02  0.24465886206E+02  0.13951951843E+03  0.15895522892E+03  0.00000000000E+00 0.  1.
          3    1    6    6  503    0  0.23478935606E+02 -0.37177167071E+02  0.50434488642E+02  0.66910685344E+02  0.00000000000E+00 0. -1.
         -3    1    6    6    0  503  0.76638212268E+03 -0.94090545028E+03  0.21971230953E+04  0.25099789880E+04  0.00000000000E+00 0.  1.
<mgrwt>
<rscale>  0 0.13108212E+04</rscale>
<asrwt>0</asrwt>
<pdfrwt beam="1">  1        2 0.47751043E+00 0.13108212E+04</pdfrwt>
<pdfrwt beam="2">  1       -2 0.14749829E+00 0.13108212E+04</pdfrwt>
<totfact> 0.45548839E-01</totfact>
</mgrwt>
</event>
<event>
12    1  0.3203156E-008  0.2250031E+04  0.7818608E-02  0.8497888E-01
          2   -1    0    0  501    0  0.00000000000E+00  0.00000000000E+00  0.19555933338E+04  0.19555933338E+04  0.00000000000E+00 0. -1.
         -2   -1    0    0    0  501 -0.00000000000E+00 -0.00000000000E+00 -0.26136639864E+04  0.26136639864E+04  0.00000000000E+00 0.  1.
         23    2    1    2    0    0  0.17368236300E+04  0.13818195668E+04 -0.26880177189E+03  0.22374015243E+04  0.87917867825E+02 0.  0.
    5000000    2    1    2    0    0 -0.17368236300E+04 -0.13818195668E+04 -0.38926888067E+03  0.23318557958E+04  0.60003296086E+03 0.  0.
         23    2    4    4    0    0 -0.12338174990E+04 -0.12568910705E+04 -0.38744593337E+03  0.18051683692E+04  0.80235315551E+02 0.  0.
         23    2    4    4    0    0 -0.50300613102E+03 -0.12492849630E+03 -0.18229472939E+01  0.52668742666E+03  0.93669766888E+02 0.  0.
          5    1    3    3  502    0  0.25797231916E+03  0.21389380803E+03 -0.10101382457E+02  0.33529748955E+03  0.47000000000E+01 0.  1.
         -5    1    3    3    0  502  0.14788513109E+04  0.11679257587E+04 -0.25870038944E+03  0.19021040348E+04  0.47000000000E+01 0.  1.
         11    1    5    5    0    0 -0.62530059424E+03 -0.66645123062E+03 -0.16577647481E+03  0.92878410600E+03  0.00000000000E+00 0.  1.
        -11    1    5    5    0    0 -0.60851690476E+03 -0.59043983986E+03 -0.22166945856E+03  0.87638426317E+03  0.00000000000E+00 0. -1.
          1    1    6    6  503    0 -0.17646397747E+03 -0.33332936006E+02 -0.44092148728E+02  0.18491819149E+03  0.00000000000E+00 0. -1.
         -1    1    6    6    0  503 -0.32654215356E+03 -0.91595560296E+02  0.42269201434E+02  0.34176923517E+03  0.00000000000E+00 0.  1.
<mgrwt>
<rscale>  0 0.22500306E+04</rscale>
<asrwt>0</asrwt>
<pdfrwt beam="1">  1        2 0.30086051E+00 0.22500306E+04</pdfrwt>
<pdfrwt beam="2">  1       -2 0.40210215E+00 0.22500306E+04</pdfrwt>
<totfact> 0.44035663E-02</totfact>
</mgrwt>
</event>
<event>
12    1  0.3203156E-008  0.6292999E+03  0.7818608E-02  0.9846416E-01
          2   -1    0    0  501    0  0.00000000000E+00  0.00000000000E+00  0.90478866902E+03  0.90478866902E+03  0.00000000000E+00 0. -1.
         -2   -1    0    0    0  501 -0.00000000000E+00 -0.00000000000E+00 -0.49643421883E+03  0.49643421883E+03  0.00000000000E+00 0.  1.
         23    2    1    2    0    0 -0.49141290792E+02  0.48926212078E+03  0.37298779390E+03  0.62459047606E+03  0.95922255499E+02 0.  0.
    5000000    2    1    2    0    0  0.49141290792E+02 -0.48926212078E+03  0.35366656286E+02  0.77663241178E+03  0.60009567018E+03 0.  0.
         23    2    4    4    0    0 -0.23890482507E+03 -0.99420381323E+02  0.66173217000E+02  0.28237479505E+03  0.91633523151E+02 0.  0.
         23    2    4    4    0    0  0.28804611587E+03 -0.38984173946E+03 -0.30806560714E+02  0.49425761673E+03  0.91620962809E+02 0.  0.
          5    1    3    3  502    0  0.21437896784E+02  0.15114635114E+03  0.14573592666E+03  0.21110626045E+03  0.47000000000E+01 0. -1.
         -5    1    3    3    0  502 -0.70579187576E+02  0.33811576964E+03  0.22725186724E+03  0.41348421561E+03  0.47000000000E+01 0.  1.
         13    1    5    5    0    0 -0.20734626856E+03 -0.10921790269E+03  0.78433581744E+02  0.24712922146E+03  0.00000000000E+00 0. -1.
        -13    1    5    5    0    0 -0.31558556517E+02  0.97975213648E+01 -0.12260364743E+02  0.35245573594E+02  0.00000000000E+00 0.  1.
          3    1    6    6  503    0  0.18817605505E+03 -0.17889003956E+03 -0.82017850266E+01  0.25976747915E+03  0.00000000000E+00 0. -1.
         -3    1    6    6    0  503  0.99870060813E+02 -0.21095169990E+03 -0.22604775688E+02  0.23449013758E+03  0.00000000000E+00 0.  1.
<mgrwt>
<rscale>  0 0.62929994E+03</rscale>
<asrwt>0</asrwt>
<pdfrwt beam="1">  1        2 0.13919826E+00 0.62929994E+03</pdfrwt>
<pdfrwt beam="2">  1       -2 0.76374495E-01 0.62929994E+03</pdfrwt>
<totfact> 0.45798871E+01</totfact>
</mgrwt>
</event>
<event>
12    1  0.3203156E-008  0.1136090E+04  0.7818608E-02  0.9170713E-01
          2   -1    0    0  501    0  0.00000000000E+00  0.00000000000E+00  0.47819704068E+03  0.47819704068E+03  0.00000000000E+00 0. -1.
         -2   -1    0    0    0  501 -0.00000000000E+00 -0.00000000000E+00 -0.30186064108E+04  0.30186064108E+04  0.00000000000E+00 0.  1.
         23    2    1    2    0    0  0.21522405038E+03 -0.10824255676E+04 -0.87817345039E+03  0.14133907698E+04  0.92294950750E+02 0.  0.
    5000000    2    1    2    0    0 -0.21522405038E+03  0.10824255676E+04 -0.16622359198E+04  0.20834126817E+04  0.59967795351E+03 0.  0.
         23    2    4    4    0    0 -0.19874273625E+03  0.24385950111E+03 -0.85541126144E+03  0.91591256413E+03  0.90560849418E+02 0.  0.
         23    2    4    4    0    0 -0.16481314125E+02  0.83856606653E+03 -0.80682465833E+03  0.11675001176E+04  0.92875258067E+02 0.  0.
          5    1    3    3  502    0  0.61200890205E+02 -0.17910336073E+03 -0.18139267434E+03  0.26220021947E+03  0.47000000000E+01 0. -1.
         -5    1    3    3    0  502  0.15402316017E+03 -0.90332220691E+03 -0.69678077605E+03  0.11511905504E+04  0.47000000000E+01 0.  1.
         13    1    5    5    0    0 -0.19948199924E+03  0.19853002829E+03 -0.75467281551E+03  0.80544292077E+03  0.00000000000E+00 0. -1.
        -13    1    5    5    0    0  0.73926299226E+00  0.45329472819E+02 -0.10073844593E+03  0.11046964336E+03  0.00000000000E+00 0.  1.
          4    1    6    6  503    0  0.81152384432E+01  0.55906045011E+03 -0.48133493301E+03  0.73776538392E+03  0.00000000000E+00 0.  1.
         -4    1    6    6    0  503 -0.24596552568E+02  0.27950561641E+03 -0.32548972532E+03  0.42973473363E+03  0.00000000000E+00 0. -1.
<mgrwt>
<rscale>  0 0.11360896E+04</rscale>
<asrwt>0</asrwt>
<pdfrwt beam="1">  1        2 0.73568775E-01 0.11360896E+04</pdfrwt>
<pdfrwt beam="2">  1       -2 0.46440099E+00 0.11360896E+04</pdfrwt>
<totfact> 0.18100369E-01</totfact>
</mgrwt>
</event>
<event>
12    1  0.3203156E-008  0.8401589E+03  0.7818608E-02  0.9503641E-01
          2   -1    0    0  501    0  0.00000000000E+00  0.00000000000E+00  0.15443563562E+04  0.15443563562E+04  0.00000000000E+00 0. -1.
         -2   -1    0    0    0  501 -0.00000000000E+00 -0.00000000000E+00 -0.52047308209E+03  0.52047308209E+03  0.00000000000E+00 0.  1.
         23    2    1    2    0    0  0.28166508830E+03 -0.69976989295E+03  0.17362008365E+03  0.77958507538E+03  0.92713705820E+02 0.  0.
    5000000    2    1    2    0    0 -0.28166508830E+03  0.69976989295E+03  0.85026319049E+03  0.12852443629E+04  0.59991037190E+03 0.  0.
         23    2    4    4    0    0  0.72772298101E+02  0.49648079448E+03  0.63128348844E+03  0.81145075384E+03  0.90246864042E+02 0.  0.
         23    2    4    4    0    0 -0.35443738640E+03  0.20328909848E+03  0.21897970205E+03  0.47379360910E+03  0.97856812112E+02 0.  0.
          5    1    3    3  502    0  0.18359944547E+03 -0.38222269289E+03  0.59771683033E+02  0.42824956209E+03  0.47000000000E+01 0. -1.
         -5    1    3    3    0  502  0.98065642836E+02 -0.31754720006E+03  0.11384840062E+03  0.35133551329E+03  0.47000000000E+01 0.  1.
         13    1    5    5    0    0  0.11224348907E+02  0.25358569166E+03  0.25857843266E+03  0.36234582219E+03  0.00000000000E+00 0.  1.
        -13    1    5    5    0    0  0.61547949194E+02  0.24289510281E+03  0.37270505578E+03  0.44910493164E+03  0.00000000000E+00 0. -1.
          1    1    6    6  503    0 -0.29114197910E+03  0.12008904934E+03  0.17586066978E+03  0.36071041978E+03  0.00000000000E+00 0. -1.
         -1    1    6    6    0  503 -0.63295407305E+02  0.83200049142E+02  0.43119032267E+02  0.11308318932E+03  0.00000000000E+00 0.  1.
<mgrwt>
<rscale>  0 0.84015894E+03</rscale>
<asrwt>0</asrwt>
<pdfrwt beam="1">  1        2 0.23759328E+00 0.84015894E+03</pdfrwt>
<pdfrwt beam="2">  1       -2 0.80072783E-01 0.84015894E+03</pdfrwt>
<totfact> 0.16761808E+01</totfact>
</mgrwt>
</event>
<event>
12    1  0.3203156E-008  0.5512048E+03  0.7818608E-02  0.1001215E+00
         -1   -1    0    0    0  501 -0.00000000000E+00  0.00000000000E+00  0.36050865182E+03  0.36050865182E+03  0.00000000000E+00 0.  1.
          1   -1    0    0  501    0  0.00000000000E+00 -0.00000000000E+00 -0.10397432850E+04  0.10397432850E+04  0.00000000000E+00 0. -1.
         23    2    1    2    0    0 -0.16305295722E+03  0.42686117400E+03 -0.19995207492E+03  0.50665026698E+03  0.88977143366E+02 0.  0.
    5000000    2    1    2    0    0  0.16305295722E+03 -0.42686117400E+03 -0.47928255829E+03  0.89360166987E+03  0.60001287068E+03 0.  0.
         23    2    4    4    0    0  0.29328341665E+03 -0.37849114442E+03 -0.12840289019E+03  0.50504577883E+03  0.96505065263E+02 0.  0.
         23    2    4    4    0    0 -0.13023045943E+03 -0.48370029578E+02 -0.35087966810E+03  0.38855589104E+03  0.92517601821E+02 0.  0.
          5    1    3    3  502    0 -0.50863813864E+02  0.12787209076E+03 -0.10590093620E+03  0.17371095948E+03  0.47000000000E+01 0. -1.
         -5    1    3    3    0  502 -0.11218914335E+03  0.29898908324E+03 -0.94051138718E+02  0.33293930750E+03  0.47000000000E+01 0.  1.
         11    1    5    5    0    0  0.90647314124E+02 -0.98991082259E+02 -0.80494335338E+02  0.15651040843E+03  0.00000000000E+00 0. -1.
        -11    1    5    5    0    0  0.20263610252E+03 -0.27950006216E+03 -0.47908554848E+02  0.34853537040E+03  0.00000000000E+00 0.  1.
          3    1    6    6  503    0 -0.43304996412E+02  0.26829880278E+02 -0.12847507985E+03  0.13820640843E+03  0.00000000000E+00 0. -1.
         -3    1    6    6    0  503 -0.86925463018E+02 -0.75199909856E+02 -0.22240458826E+03  0.25034948261E+03  0.00000000000E+00 0.  1.
<mgrwt>
<rscale>  0 0.55120480E+03</rscale>
<asrwt>0</asrwt>
<pdfrwt beam="1">  1        1 0.15996051E+00 0.55120480E+03</pdfrwt>
<pdfrwt beam="2">  1       -1 0.55462869E-01 0.55120480E+03</pdfrwt>
<totfact> 0.48583104E+01</totfact>
</mgrwt>
</event>
<event>
12    1  0.3203156E-008  0.7510943E+03  0.7818608E-02  0.9633635E-01
         -2   -1    0    0    0  501 -0.00000000000E+00  0.00000000000E+00  0.47236431261E+03  0.47236431261E+03  0.00000000000E+00 0. -1.
          2   -1    0    0  501    0  0.00000000000E+00 -0.00000000000E+00 -0.12414594053E+04  0.12414594053E+04  0.00000000000E+00 0.  1.
         23    2    1    2    0    0  0.58275787577E+03 -0.27368194718E+03 -0.29050634337E+03  0.71215486045E+03  0.90895873107E+02 0.  0.
    5000000    2    1    2    0    0 -0.58275787577E+03  0.27368194718E+03 -0.47858874937E+03  0.10016688575E+04  0.59982060575E+03 0.  0.
         23    2    4    4    0    0 -0.44618732792E+03 -0.92997516113E+02 -0.16821323713E+03  0.49421209279E+03  0.90654453397E+02 0.  0.
         23    2    4    4    0    0 -0.13657054785E+03  0.36667946329E+03 -0.31037551224E+03  0.50745676471E+03  0.89855807309E+02 0.  0.
          5    1    3    3  502    0  0.20071629392E+03 -0.49306100116E+02 -0.81024442531E+02  0.22204768056E+03  0.47000000000E+01 0. -1.
         -5    1    3    3    0  502  0.38204158185E+03 -0.22437584706E+03 -0.20948190084E+03  0.49010717989E+03  0.47000000000E+01 0.  1.
         13    1    5    5    0    0 -0.16596606163E+03 -0.29683731787E+01 -0.93640476611E+02  0.19058353474E+03  0.00000000000E+00 0. -1.
        -13    1    5    5    0    0 -0.28022126628E+03 -0.90029142934E+02 -0.74572760517E+02  0.30362855805E+03  0.00000000000E+00 0.  1.
          2    1    6    6  503    0 -0.10198865684E+03  0.24087519190E+03 -0.15302137499E+03  0.30304799191E+03  0.00000000000E+00 0. -1.
         -2    1    6    6    0  503 -0.34581891009E+02  0.12580427140E+03 -0.15735413725E+03  0.20440877280E+03  0.00000000000E+00 0.  1.
<mgrwt>
<rscale>  0 0.75109434E+03</rscale>
<asrwt>0</asrwt>
<pdfrwt beam="1">  1        2 0.19099375E+00 0.75109434E+03</pdfrwt>
<pdfrwt beam="2">  1       -2 0.72671433E-01 0.75109434E+03</pdfrwt>
<totfact> 0.31223406E+01</totfact>
</mgrwt>
</event>
<event>
12    1  0.3203156E-008  0.5187346E+03  0.7818608E-02  0.1009001E+00
          2   -1    0    0  501    0  0.00000000000E+00  0.00000000000E+00  0.97625625210E+03  0.97625625210E+03  0.00000000000E+00 0. -1.
         -2   -1    0    0    0  501 -0.00000000000E+00 -0.00000000000E+00 -0.19625639750E+04  0.19625639750E+04  0.00000000000E+00 0.  1.
         23    2    1    2    0    0 -0.35635415947E+03  0.51827574696E+02 -0.18160012481E+04  0.18534256280E+04  0.87473657067E+02 0.  0.
    5000000    2    1    2    0    0  0.35635415947E+03 -0.51827574696E+02  0.82969352527E+03  0.10853945991E+04  0.60001308773E+03 0.  0.
         23    2    4    4    0    0 -0.14122190845E+03 -0.12634112883E+02  0.95282031340E+02  0.19251654551E+03  0.88773343759E+02 0.  0.
         23    2    4    4    0    0  0.49757606792E+03 -0.39193461812E+02  0.73441149393E+03  0.89287805361E+03  0.93556963312E+02 0.  0.
          5    1    3    3  502    0 -0.40149865475E+02 -0.10747410643E+02 -0.34426628168E+03  0.34679804099E+03  0.47000000000E+01 0. -1.
         -5    1    3    3    0  502 -0.31620429400E+03  0.62574985339E+02 -0.14717349665E+04  0.15066275870E+04  0.47000000000E+01 0.  1.
         13    1    5    5    0    0 -0.46710274771E+02  0.36612735827E+02  0.46062396476E+02  0.75127135997E+02  0.00000000000E+00 0.  1.
        -13    1    5    5    0    0 -0.94511633681E+02 -0.49246848710E+02  0.49219634864E+02  0.11738940951E+03  0.00000000000E+00 0. -1.
          2    1    6    6  503    0  0.30239974858E+03 -0.68290777218E+02  0.46717276724E+03  0.56067783320E+03  0.00000000000E+00 0. -1.
         -2    1    6    6    0  503  0.19517631934E+03  0.29097315405E+02  0.26723872669E+03  0.33220022041E+03  0.00000000000E+00 0.  1.
<mgrwt>
<rscale>  0 0.51873456E+03</rscale>
<asrwt>0</asrwt>
<pdfrwt beam="1">  1        2 0.15019327E+00 0.51873456E+03</pdfrwt>
<pdfrwt beam="2">  1       -2 0.30193292E+00 0.51873456E+03</pdfrwt>
<totfact> 0.89168074E-01</totfact>
</mgrwt>
</event>
<event>
12    1  0.3203156E-008  0.6212880E+03  0.7818608E-02  0.9862199E-01
          2   -1    0    0  501    0  0.00000000000E+00  0.00000000000E+00  0.62944908432E+03  0.62944908432E+03  0.00000000000E+00 0. -1.
         -2   -1    0    0    0  501 -0.00000000000E+00 -0.00000000000E+00 -0.77137535639E+03  0.77137535639E+03  0.00000000000E+00 0.  1.
         23    2    1    2    0    0 -0.39728258870E+03  0.38622953624E+03 -0.15954945432E+03  0.58401113570E+03  0.92769975239E+02 0.  0.
    5000000    2    1    2    0    0  0.39728258870E+03 -0.38622953624E+03  0.17623182242E+02  0.81681330500E+03  0.59988889698E+03 0.  0.
         23    2    4    4    0    0  0.27876716194E+03  0.69066917965E+00 -0.19245906414E+03  0.35057752514E+03  0.90291207569E+02 0.  0.
         23    2    4    4    0    0  0.11851542676E+03 -0.38692020542E+03  0.21008224638E+03  0.46623577986E+03  0.97406880830E+02 0.  0.
          5    1    3    3  502    0 -0.26228029273E+03  0.26998627078E+03 -0.64135255893E+02  0.38186248757E+03  0.47000000000E+01 0. -1.
         -5    1    3    3    0  502 -0.13500229597E+03  0.11624326546E+03 -0.95414198423E+02  0.20214864813E+03  0.47000000000E+01 0.  1.
         11    1    5    5    0    0  0.15063415468E+03  0.40412844237E+00 -0.49406489900E+02  0.15853016470E+03  0.00000000000E+00 0. -1.
        -11    1    5    5    0    0  0.12813300726E+03  0.28654073728E+00 -0.14305257424E+03  0.19204736044E+03  0.00000000000E+00 0.  1.
          3    1    6    6  503    0  0.70157306197E+02 -0.12998600220E+03  0.11797187723E+03  0.18903907585E+03  0.00000000000E+00 0. -1.
         -3    1    6    6    0  503  0.48358120561E+02 -0.25693420322E+03  0.92110369153E+02  0.27719670401E+03  0.00000000000E+00 0.  1.
<mgrwt>
<rscale>  0 0.62128799E+03</rscale>
<asrwt>0</asrwt>
<pdfrwt beam="1">  1        2 0.96838321E-01 0.62128799E+03</pdfrwt>
<pdfrwt beam="2">  1       -2 0.11867313E+00 0.62128799E+03</pdfrwt>
<totfact> 0.26185211E+01</totfact>
</mgrwt>
</event>
<event>
12    1  0.3203156E-008  0.9498684E+03  0.7818608E-02  0.9365304E-01
         -2   -1    0    0    0  501 -0.00000000000E+00  0.00000000000E+00  0.51592467791E+03  0.51592467791E+03  0.00000000000E+00 0.  1.
          2   -1    0    0  501    0  0.00000000000E+00 -0.00000000000E+00 -0.21200588644E+04  0.21200588644E+04  0.00000000000E+00 0. -1.
         23    2    1    2    0    0  0.17006340632E+03 -0.92045500992E+03 -0.48375001422E+03  0.10575621459E+04  0.90910003140E+02 0.  0.
    5000000    2    1    2    0    0 -0.17006340632E+03  0.92045500992E+03 -0.11203841723E+04  0.15784213964E+04  0.59999535315E+03 0.  0.
         23    2    4    4    0    0 -0.71086826405E+02  0.88042652021E+02  0.33940555340E+02  0.14893781402E+03  0.90695455709E+02 0.  0.
         23    2    4    4    0    0 -0.98976579915E+02  0.83241235790E+03 -0.11543247276E+04  0.14294835824E+04  0.90835228087E+02 0.  0.
          5    1    3    3  502    0 -0.25378562051E+01 -0.17557832537E+03 -0.97816450051E+02  0.20105804374E+03  0.47000000000E+01 0. -1.
         -5    1    3    3    0  502  0.17260126253E+03 -0.74487668456E+03 -0.38593356417E+03  0.85650410213E+03  0.47000000000E+01 0.  1.
         13    1    5    5    0    0 -0.59500991418E+02  0.88370143832E+02 -0.66331917060E+01  0.10674103959E+03  0.00000000000E+00 0. -1.
        -13    1    5    5    0    0 -0.11585834988E+02 -0.32749181147E+00  0.40573747046E+02  0.42196774434E+02  0.00000000000E+00 0.  1.
          3    1    6    6  503    0 -0.10836636216E+03  0.80680839281E+03 -0.10974773344E+04  0.13664331490E+04  0.00000000000E+00 0. -1.
         -3    1    6    6    0  503  0.93897822458E+01  0.25603965095E+02 -0.56847393241E+02  0.63050433444E+02  0.00000000000E+00 0.  1.
<mgrwt>
<rscale>  0 0.94986836E+03</rscale>
<asrwt>0</asrwt>
<pdfrwt beam="1">  1        2 0.32616290E+00 0.94986836E+03</pdfrwt>
<pdfrwt beam="2">  1       -2 0.79373027E-01 0.94986836E+03</pdfrwt>
<totfact> 0.81367384E+00</totfact>
</mgrwt>
</event>
<event>
12    1  0.3203156E-008  0.5230238E+03  0.7818608E-02  0.1007938E+00
         -2   -1    0    0    0  501 -0.00000000000E+00  0.00000000000E+00  0.17378509957E+04  0.17378509957E+04  0.00000000000E+00 0.  1.
          2   -1    0    0  501    0  0.00000000000E+00 -0.00000000000E+00 -0.22238879557E+03  0.22238879557E+03  0.00000000000E+00 0. -1.
         23    2    1    2    0    0  0.38977059735E+03  0.18642864877E+03  0.88398081990E+03  0.98788174714E+03  0.88382672171E+02 0.  0.
    5000000    2    1    2    0    0 -0.38977059735E+03 -0.18642864877E+03  0.63148138026E+03  0.97235804416E+03  0.60002889329E+03 0.  0.
         23    2    4    4    0    0  0.50092325358E+02  0.70057698614E+02  0.37520692162E+03  0.39550014422E+03  0.90679699204E+02 0.  0.
         23    2    4    4    0    0 -0.43986292270E+03 -0.25648634739E+03  0.25627445864E+03  0.57685789994E+03  0.88452254976E+02 0.  0.
          5    1    3    3  502    0  0.12211031532E+03  0.10484953728E+03  0.31113202333E+03  0.35032781865E+03  0.47000000000E+01 0. -1.
         -5    1    3    3    0  502  0.26766028202E+03  0.81579111494E+02  0.57284879657E+03  0.63755392850E+03  0.47000000000E+01 0.  1.
         11    1    5    5    0    0 -0.29058302360E+01  0.19808274759E+02  0.24809295505E+03  0.24889942938E+03  0.00000000000E+00 0. -1.
        -11    1    5    5    0    0  0.52998155594E+02  0.50249423856E+02  0.12711396657E+03  0.14660071484E+03  0.00000000000E+00 0.  1.
          1    1    6    6  503    0 -0.29252719038E+03 -0.19984190331E+03  0.21223522786E+03  0.41298030870E+03  0.00000000000E+00 0. -1.
         -1    1    6    6    0  503 -0.14733573232E+03 -0.56644444079E+02  0.44039230782E+02  0.16387759124E+03  0.00000000000E+00 0.  1.
<mgrwt>
<rscale>  0 0.52302383E+03</rscale>
<asrwt>0</asrwt>
<pdfrwt beam="1">  1        2 0.34213662E-01 0.52302383E+03</pdfrwt>
<pdfrwt beam="2">  1       -2 0.26736168E+00 0.52302383E+03</pdfrwt>
<totfact> 0.81963505E+00</totfact>
</mgrwt>
</event>
<event>
12    1  0.3203156E-008  0.5973449E+03  0.7818608E-02  0.9910930E-01
          2   -1    0    0  501    0  0.00000000000E+00  0.00000000000E+00  0.26248323016E+04  0.26248323016E+04  0.00000000000E+00 0. -1.
         -2   -1    0    0    0  501 -0.00000000000E+00 -0.00000000000E+00 -0.29072566172E+03  0.29072566172E+03  0.00000000000E+00 0.  1.
         23    2    1    2    0    0  0.10119939720E+03 -0.52526850656E+03  0.11333904039E+03  0.55381252072E+03  0.87830792160E+02 0.  0.
    5000000    2    1    2    0    0 -0.10119939720E+03  0.52526850656E+03  0.22207675995E+04  0.23617454426E+04  0.59990372783E+03 0.  0.
         23    2    4    4    0    0 -0.23337476063E+03  0.25522534964E+03  0.51367238468E+03  0.62604448471E+03  0.92025105573E+02 0.  0.
         23    2    4    4    0    0  0.13217536343E+03  0.27004315692E+03  0.17070952148E+04  0.17357009579E+04  0.89945035750E+02 0.  0.
          5    1    3    3  502    0  0.67302701768E+02 -0.16110146336E+03  0.57024623220E+02  0.18373141488E+03  0.47000000000E+01 0. -1.
         -5    1    3    3    0  502  0.33896695432E+02 -0.36416704320E+03  0.56314417165E+02  0.37008110584E+03  0.47000000000E+01 0.  1.
         11    1    5    5    0    0 -0.12766923017E+03  0.88355546760E+02  0.27910488073E+03  0.31938326416E+03  0.00000000000E+00 0. -1.
        -11    1    5    5    0    0 -0.10570553046E+03  0.16686980287E+03  0.23456750394E+03  0.30666122055E+03  0.00000000000E+00 0.  1.
          1    1    6    6  503    0  0.79015485802E+02  0.18510161845E+03  0.13458560036E+04  0.13608212368E+04  0.00000000000E+00 0. -1.
         -1    1    6    6    0  503  0.53159877628E+02  0.84941538470E+02  0.36123921123E+03  0.37487972108E+03  0.00000000000E+00 0.  1.
<mgrwt>
<rscale>  0 0.59734491E+03</rscale>
<asrwt>0</asrwt>
<pdfrwt beam="1">  1        2 0.40382034E+00 0.59734491E+03</pdfrwt>
<pdfrwt beam="2">  1       -2 0.44727027E-01 0.59734491E+03</pdfrwt>
<totfact> 0.15067008E+01</totfact>
</mgrwt>
</event>
<event>
12    1  0.3203156E-008  0.1806485E+04  0.7818608E-02  0.8702858E-01
          2   -1    0    0  501    0  0.00000000000E+00  0.00000000000E+00  0.15411808885E+04  0.15411808885E+04  0.00000000000E+00 0.  1.
         -2   -1    0    0    0  501 -0.00000000000E+00 -0.00000000000E+00 -0.22040610332E+04  0.22040610332E+04  0.00000000000E+00 0. -1.
         23    2    1    2    0    0  0.11093134290E+04 -0.13697427521E+04 -0.65826406114E+03  0.18838099924E+04  0.93043122686E+02 0.  0.
    5000000    2    1    2    0    0 -0.11093134290E+04  0.13697427521E+04 -0.46160835748E+01  0.18614319293E+04  0.59844467461E+03 0.  0.
         23    2    4    4    0    0 -0.61183358144E+03  0.34745153300E+03 -0.10167874497E+03  0.71676402842E+03  0.91373990275E+02 0.  0.
         23    2    4    4    0    0 -0.49747984755E+03  0.10222912191E+04  0.97062661392E+02  0.11446679009E+04  0.90983007865E+02 0.  0.
          5    1    3    3  502    0  0.62896656203E+03 -0.83536099798E+03 -0.36184022851E+03  0.11065158716E+04  0.47000000000E+01 0. -1.
         -5    1    3    3    0  502  0.48034686696E+03 -0.53438175413E+03 -0.29642383262E+03  0.77729412084E+03  0.47000000000E+01 0.  1.
         11    1    5    5    0    0 -0.59155077880E+03  0.31238719939E+03 -0.94114077555E+02  0.67555573111E+03  0.00000000000E+00 0. -1.
        -11    1    5    5    0    0 -0.20282802641E+02  0.35064333604E+02 -0.75646674114E+01  0.41208297309E+02  0.00000000000E+00 0.  1.
          3    1    6    6  503    0 -0.47717162409E+03  0.10052344172E+04  0.10298133284E+03  0.11174945849E+04  0.00000000000E+00 0. -1.
         -3    1    6    6    0  503 -0.20308223456E+02  0.17056801954E+02 -0.59186714462E+01  0.27173316038E+02  0.00000000000E+00 0.  1.
<mgrwt>
<rscale>  0 0.18064854E+04</rscale>
<asrwt>0</asrwt>
<pdfrwt beam="1">  1        2 0.23710475E+00 0.18064854E+04</pdfrwt>
<pdfrwt beam="2">  1       -2 0.33908631E+00 0.18064854E+04</pdfrwt>
<totfact> 0.19988023E-01</totfact>
</mgrwt>
</event>
<event>
12    1  0.3203156E-008  0.5244139E+03  0.7818608E-02  0.1007596E+00
         -4   -1    0    0    0  501 -0.00000000000E+00  0.00000000000E+00  0.72562607390E+03  0.72562607390E+03  0.00000000000E+00 0.  1.
          4   -1    0    0  501    0  0.00000000000E+00 -0.00000000000E+00 -0.42295824059E+03  0.42295824059E+03  0.00000000000E+00 0. -1.
         23    2    1    2    0    0 -0.20739622770E+03  0.29636280988E+03  0.24446759978E+03  0.44553458599E+03  0.88840022660E+02 0.  0.
    5000000    2    1    2    0    0  0.20739622770E+03 -0.29636280988E+03  0.58200233531E+02  0.70304972851E+03  0.60003961805E+03 0.  0.
         23    2    4    4    0    0  0.61605118632E+02 -0.44649839057E+03 -0.24760965921E+02  0.46045543955E+03  0.90830077375E+02 0.  0.
         23    2    4    4    0    0  0.14579110907E+03  0.15013558069E+03  0.82961199453E+02  0.24259428896E+03  0.90408452854E+02 0.  0.
          5    1    3    3  502    0 -0.10979029193E+03  0.18030525906E+03  0.91625217520E+02  0.23017637831E+03  0.47000000000E+01 0. -1.
         -5    1    3    3    0  502 -0.97605935774E+02  0.11605755082E+03  0.15284238226E+03  0.21535820768E+03  0.47000000000E+01 0.  1.
         13    1    5    5    0    0  0.66940821669E+02 -0.19022277328E+03  0.92959956772E+01  0.20187172317E+03  0.00000000000E+00 0. -1.
        -13    1    5    5    0    0 -0.53357030369E+01 -0.25627561729E+03 -0.34056961599E+02  0.25858371638E+03  0.00000000000E+00 0.  1.
          1    1    6    6  503    0  0.99563847288E+02  0.37810522732E+02  0.39093604754E+02  0.11345001211E+03  0.00000000000E+00 0. -1.
         -1    1    6    6    0  503  0.46227261785E+02  0.11232505796E+03  0.43867594699E+02  0.12914427684E+03  0.00000000000E+00 0.  1.
<mgrwt>
<rscale>  0 0.52441394E+03</rscale>
<asrwt>0</asrwt>
<pdfrwt beam="1">  1        4 0.65070498E-01 0.52441394E+03</pdfrwt>
<pdfrwt beam="2">  1       -4 0.11163478E+00 0.52441394E+03</pdfrwt>
<totfact> 0.27150336E+00</totfact>
</mgrwt>
</event>
<event>
12    1  0.3203156E-008  0.6620079E+03  0.7818608E-02  0.9784505E-01
          3   -1    0    0  501    0  0.00000000000E+00  0.00000000000E+00  0.51805249216E+03  0.51805249216E+03  0.00000000000E+00 0. -1.
         -3   -1    0    0    0  501 -0.00000000000E+00 -0.00000000000E+00 -0.95200606093E+03  0.95200606093E+03  0.00000000000E+00 0.  1.
         23    2    1    2    0    0 -0.33566714011E+03  0.41891822039E+03 -0.37832228671E+03  0.66302337265E+03  0.91144587006E+02 0.  0.
    5000000    2    1    2    0    0  0.33566714011E+03 -0.41891822039E+03 -0.55631282056E+02  0.80703518044E+03  0.60003836427E+03 0.  0.
         23    2    4    4    0    0  0.46104936317E+03 -0.17934487625E+03 -0.11675226555E+03  0.51615448466E+03  0.89739961095E+02 0.  0.
         23    2    4    4    0    0 -0.12538222305E+03 -0.23957334414E+03  0.61120983496E+02  0.29088069577E+03  0.88089247180E+02 0.  0.
          5    1    3    3  502    0 -0.77422427828E+02  0.10727864346E+03 -0.14281515018E+03  0.19473365604E+03  0.47000000000E+01 0. -1.
         -5    1    3    3    0  502 -0.25824471229E+03  0.31163957693E+03 -0.23550713653E+03  0.46828971662E+03  0.47000000000E+01 0.  1.
         11    1    5    5    0    0  0.97169939048E+02 -0.82161913323E+00 -0.15693652157E+02  0.98432529332E+02  0.00000000000E+00 0. -1.
        -11    1    5    5    0    0  0.36387942412E+03 -0.17852325711E+03 -0.10105861340E+03  0.41772195533E+03  0.00000000000E+00 0.  1.
          3    1    6    6  503    0 -0.90186673009E+02 -0.23125767798E+03  0.53600437791E+02  0.25394242762E+03  0.00000000000E+00 0. -1.
         -3    1    6    6    0  503 -0.35195550042E+02 -0.83156661606E+01  0.75205457052E+01  0.36938268153E+02  0.00000000000E+00 0.  1.
<mgrwt>
<rscale>  0 0.66200786E+03</rscale>
<asrwt>0</asrwt>
<pdfrwt beam="1">  1        3 0.79700384E-01 0.66200786E+03</pdfrwt>
<pdfrwt beam="2">  1       -3 0.14646247E+00 0.66200786E+03</pdfrwt>
<totfact> 0.13131502E+00</totfact>
</mgrwt>
</event>
<event>
12    1  0.3203156E-008  0.5564279E+03  0.7818608E-02  0.1000017E+00
         -2   -1    0    0    0  501 -0.00000000000E+00  0.00000000000E+00  0.60240457234E+03  0.60240457234E+03  0.00000000000E+00 0.  1.
          2   -1    0    0  501    0  0.00000000000E+00 -0.00000000000E+00 -0.85976126304E+03  0.85976126304E+03  0.00000000000E+00 0. -1.
         23    2    1    2    0    0  0.42967529950E+03  0.32772879496E+03  0.13462465863E+03  0.56457020214E+03  0.92675176741E+02 0.  0.
    5000000    2    1    2    0    0 -0.42967529950E+03 -0.32772879496E+03 -0.39198134933E+03  0.89759563323E+03  0.60000126377E+03 0.  0.
         23    2    4    4    0    0 -0.26759629062E+03 -0.16378294011E+03 -0.52251634420E+03  0.61716135779E+03  0.97119438732E+02 0.  0.
         23    2    4    4    0    0 -0.16207900889E+03 -0.16394585485E+03  0.13053499487E+03  0.28043427544E+03  0.91957324410E+02 0.  0.
          5    1    3    3  502    0  0.22708279761E+02  0.48755902217E+02  0.22941887159E+02  0.58661948119E+02  0.47000000000E+01 0. -1.
         -5    1    3    3    0  502  0.40696701974E+03  0.27897289275E+03  0.11168277147E+03  0.50590825402E+03  0.47000000000E+01 0.  1.
         13    1    5    5    0    0 -0.19375578612E+03 -0.78889156466E+02 -0.39592119998E+03  0.44779280952E+03  0.00000000000E+00 0. -1.
        -13    1    5    5    0    0 -0.73840504497E+02 -0.84893783646E+02 -0.12659514421E+03  0.16936854827E+03  0.00000000000E+00 0.  1.
          3    1    6    6  503    0 -0.43492817720E+02 -0.99881390758E+02  0.32226840594E+02  0.11360671929E+03  0.00000000000E+00 0.  1.
         -3    1    6    6    0  503 -0.11858619117E+03 -0.64064464093E+02  0.98308154272E+02  0.16682755615E+03  0.00000000000E+00 0. -1.
<mgrwt>
<rscale>  0 0.55642786E+03</rscale>
<asrwt>0</asrwt>
<pdfrwt beam="1">  1        2 0.13227096E+00 0.55642786E+03</pdfrwt>
<pdfrwt beam="2">  1       -2 0.92677627E-01 0.55642786E+03</pdfrwt>
<totfact> 0.31944807E+01</totfact>
</mgrwt>
</event>
<event>
12    1  0.3203156E-008  0.1242586E+04  0.7818608E-02  0.9076376E-01
          2   -1    0    0  501    0  0.00000000000E+00  0.00000000000E+00  0.68709016264E+03  0.68709016264E+03  0.00000000000E+00 0. -1.
         -2   -1    0    0    0  501 -0.00000000000E+00 -0.00000000000E+00 -0.23987228274E+04  0.23987228274E+04  0.00000000000E+00 0.  1.
         23    2    1    2    0    0 -0.83738394087E+03 -0.84838178589E+03 -0.54721596919E+03  0.13148727115E+04  0.92094578998E+02 0.  0.
    5000000    2    1    2    0    0  0.83738394087E+03  0.84838178589E+03 -0.11644166956E+04  0.17709402785E+04  0.59949954976E+03 0.  0.
         23    2    4    4    0    0  0.59507424330E+03  0.27177021420E+03 -0.37734394523E+03  0.76070700846E+03  0.91182757947E+02 0.  0.
         23    2    4    4    0    0  0.24230969757E+03  0.57661157169E+03 -0.78707275034E+03  0.10102332701E+04  0.99462814676E+02 0.  0.
          5    1    3    3  502    0 -0.74876041945E+03 -0.71713918500E+03 -0.48553633673E+03  0.11448573713E+04  0.47000000000E+01 0. -1.
         -5    1    3    3    0  502 -0.88623521420E+02 -0.13124260089E+03 -0.61679632457E+02  0.17001534018E+03  0.47000000000E+01 0.  1.
         13    1    5    5    0    0  0.69978645759E+02  0.66009524758E+02 -0.63872569338E+02  0.11547282509E+03  0.00000000000E+00 0. -1.
        -13    1    5    5    0    0  0.52509559754E+03  0.20576068944E+03 -0.31347137589E+03  0.64523418337E+03  0.00000000000E+00 0.  1.
          2    1    6    6  503    0  0.20817368912E+03  0.41141042093E+03 -0.62154080798E+03  0.77389133298E+03  0.00000000000E+00 0.  1.
         -2    1    6    6    0  503  0.34136008444E+02  0.16520115076E+03 -0.16553194236E+03  0.23634193709E+03  0.00000000000E+00 0. -1.
<mgrwt>
<rscale>  0 0.12425863E+04</rscale>
<asrwt>0</asrwt>
<pdfrwt beam="1">  1        2 0.10570618E+00 0.12425863E+04</pdfrwt>
<pdfrwt beam="2">  1       -2 0.36903429E+00 0.12425863E+04</pdfrwt>
<totfact> 0.48584018E-01</totfact>
</mgrwt>
</event>
<event>
12    1  0.3203156E-008  0.4843098E+03  0.7818608E-02  0.1017957E+00
          1   -1    0    0  501    0  0.00000000000E+00  0.00000000000E+00  0.99042778320E+03  0.99042778320E+03  0.00000000000E+00 0. -1.
         -1   -1    0    0    0  501 -0.00000000000E+00 -0.00000000000E+00 -0.39762656454E+03  0.39762656454E+03  0.00000000000E+00 0.  1.
         23    2    1    2    0    0 -0.42776042021E+03 -0.42613773126E+02 -0.47137696972E+01  0.43878077571E+03  0.87814797973E+02 0.  0.
    5000000    2    1    2    0    0  0.42776042021E+03  0.42613773126E+02  0.59751498836E+03  0.94927357203E+03  0.59941741923E+03 0.  0.
         23    2    4    4    0    0  0.40868764098E+03  0.10582950392E+03  0.68384898721E+03  0.80886567791E+03  0.91590260415E+02 0.  0.
         23    2    4    4    0    0  0.19072779234E+02 -0.63215730793E+02 -0.86333998851E+02  0.14040789412E+03  0.88886544794E+02 0.  0.
          5    1    3    3  502    0 -0.27750532383E+03  0.70055884428E+01  0.20887299232E+02  0.27841812494E+03  0.47000000000E+01 0. -1.
         -5    1    3    3    0  502 -0.15025509638E+03 -0.49619361569E+02 -0.25601068929E+02  0.16036265077E+03  0.47000000000E+01 0.  1.
         13    1    5    5    0    0  0.24931889572E+03  0.55092055725E+02  0.49229463859E+03  0.55457105726E+03  0.00000000000E+00 0.  1.
        -13    1    5    5    0    0  0.15936874526E+03  0.50737448194E+02  0.19155434861E+03  0.25429462065E+03  0.00000000000E+00 0. -1.
          2    1    6    6  503    0  0.54572949128E+02 -0.36235460596E+02 -0.58630498040E+02  0.87913313448E+02  0.00000000000E+00 0. -1.
         -2    1    6    6    0  503 -0.35500169894E+02 -0.26980270197E+02 -0.27703500812E+02  0.52494580669E+02  0.00000000000E+00 0.  1.
<mgrwt>
<rscale>  0 0.48430980E+03</rscale>
<asrwt>0</asrwt>
<pdfrwt beam="1">  1        1 0.15237350E+00 0.48430980E+03</pdfrwt>
<pdfrwt beam="2">  1       -1 0.61173318E-01 0.48430980E+03</pdfrwt>
<totfact> 0.44221487E+01</totfact>
</mgrwt>
</event>
<event>
12    1  0.3203156E-008  0.9048904E+03  0.7818608E-02  0.9419489E-01
          2   -1    0    0  501    0  0.00000000000E+00  0.00000000000E+00  0.16259181827E+04  0.16259181827E+04  0.00000000000E+00 0.  1.
         -2   -1    0    0    0  501 -0.00000000000E+00 -0.00000000000E+00 -0.58525947281E+03  0.58525947281E+03  0.00000000000E+00 0. -1.
         23    2    1    2    0    0 -0.64642691993E+03  0.52320950231E+03  0.14435507453E+03  0.84922966499E+03  0.93470263874E+02 0.  0.
    5000000    2    1    2    0    0  0.64642691993E+03 -0.52320950231E+03  0.89630363534E+03  0.13619479905E+04  0.59993847682E+03 0.  0.
         23    2    4    4    0    0  0.45040381414E+03 -0.61032058516E+03  0.80914588870E+03  0.11129922678E+04  0.93166016380E+02 0.  0.
         23    2    4    4    0    0  0.19602310580E+03  0.87111082850E+02  0.87157746642E+02  0.24895572266E+03  0.91482677501E+02 0.  0.
          5    1    3    3  502    0 -0.47627381914E+03  0.38290329712E+03  0.64030951318E+02  0.61447029096E+03  0.47000000000E+01 0. -1.
         -5    1    3    3    0  502 -0.17015310079E+03  0.14030620519E+03  0.80324123212E+02  0.23475937403E+03  0.47000000000E+01 0.  1.
         13    1    5    5    0    0  0.42824164007E+03 -0.54442074207E+03  0.71011529254E+03  0.99199222547E+03  0.00000000000E+00 0.  1.
        -13    1    5    5    0    0  0.22162174071E+02 -0.65899843090E+02  0.99030596152E+02  0.12100004237E+03  0.00000000000E+00 0. -1.
          4    1    6    6  503    0  0.26724492715E+02  0.21525962354E+02 -0.18404407832E+02  0.38939540236E+02  0.00000000000E+00 0. -1.
         -4    1    6    6    0  503  0.16929861308E+03  0.65585120496E+02  0.10556215447E+03  0.21001618242E+03  0.00000000000E+00 0.  1.
<mgrwt>
<rscale>  0 0.90489039E+03</rscale>
<asrwt>0</asrwt>
<pdfrwt beam="1">  1        2 0.25014126E+00 0.90489039E+03</pdfrwt>
<pdfrwt beam="2">  1       -2 0.90039920E-01 0.90489039E+03</pdfrwt>
<totfact> 0.11471332E+01</totfact>
</mgrwt>
</event>
<event>
12    1  0.3203156E-008  0.3135461E+03  0.7818608E-02  0.1078659E+00
         -2   -1    0    0    0  501 -0.00000000000E+00  0.00000000000E+00  0.24271920286E+03  0.24271920286E+03  0.00000000000E+00 0.  1.
          2   -1    0    0  501    0  0.00000000000E+00 -0.00000000000E+00 -0.10888684388E+04  0.10888684388E+04  0.00000000000E+00 0. -1.
         23    2    1    2    0    0  0.28034630952E+03  0.65479479143E+02 -0.48969920091E+03  0.57661535846E+03  0.98986609142E+02 0.  0.
    5000000    2    1    2    0    0 -0.28034630952E+03 -0.65479479143E+02 -0.35645003502E+03  0.75497228319E+03  0.60003742006E+03 0.  0.
         23    2    4    4    0    0 -0.19000515170E+03 -0.92883262279E+02  0.12122252576E+03  0.25967708348E+03  0.89487590483E+02 0.  0.
         23    2    4    4    0    0 -0.90341157826E+02  0.27403783136E+02 -0.47767256077E+03  0.49529519971E+03  0.90740109173E+02 0.  0.
          5    1    3    3  502    0  0.15536143167E+02  0.30646211211E+02 -0.83883385259E+02  0.90769346856E+02  0.47000000000E+01 0. -1.
         -5    1    3    3    0  502  0.26481016636E+03  0.34833267931E+02 -0.40581581565E+03  0.48584601161E+03  0.47000000000E+01 0.  1.
         11    1    5    5    0    0 -0.50940331967E+02 -0.33285115371E+02  0.84250400241E+02  0.10392760108E+03  0.00000000000E+00 0. -1.
        -11    1    5    5    0    0 -0.13906481973E+03 -0.59598146908E+02  0.36972125515E+02  0.15574948240E+03  0.00000000000E+00 0.  1.
          3    1    6    6  503    0 -0.72532729860E+02  0.47173719598E+02 -0.44413467498E+03  0.45248421656E+03  0.00000000000E+00 0. -1.
         -3    1    6    6    0  503 -0.17808427967E+02 -0.19769936462E+02 -0.33537885796E+02  0.42810983147E+02  0.00000000000E+00 0.  1.
<mgrwt>
<rscale>  0 0.31354608E+03</rscale>
<asrwt>0</asrwt>
<pdfrwt beam="1">  1        2 0.16751822E+00 0.31354608E+03</pdfrwt>
<pdfrwt beam="2">  1       -2 0.37341416E-01 0.31354608E+03</pdfrwt>
<totfact> 0.15825462E+02</totfact>
</mgrwt>
</event>
<event>
12    1  0.3203156E-008  0.1070166E+04  0.7818608E-02  0.9234768E-01
          2   -1    0    0  501    0  0.00000000000E+00  0.00000000000E+00  0.10159823377E+04  0.10159823377E+04  0.00000000000E+00 0.  1.
         -2   -1    0    0    0  501 -0.00000000000E+00 -0.00000000000E+00 -0.12939664620E+04  0.12939664620E+04  0.00000000000E+00 0. -1.
         23    2    1    2    0    0  0.33539248039E+03  0.97556430583E+03  0.14070440821E+03  0.10451257969E+04  0.90974557351E+02 0.  0.
    5000000    2    1    2    0    0 -0.33539248039E+03 -0.97556430583E+03 -0.41868853253E+03  0.12648230029E+04  0.60021938541E+03 0.  0.
         23    2    4    4    0    0 -0.20442984776E+03 -0.92241023544E+03 -0.50628944576E+03  0.10756506926E+04  0.89795347763E+02 0.  0.
         23    2    4    4    0    0 -0.13096263263E+03 -0.53154070399E+02  0.87600913229E+02  0.18917231030E+03  0.90197985783E+02 0.  0.
          5    1    3    3  502    0  0.18020148026E+03  0.38719560733E+03  0.57516876387E+02  0.43095625404E+03  0.47000000000E+01 0. -1.
         -5    1    3    3    0  502  0.15519100013E+03  0.58836869850E+03  0.83187531822E+02  0.61416954284E+03  0.47000000000E+01 0.  1.
         13    1    5    5    0    0 -0.19984473204E+03 -0.81893995942E+03 -0.47433665145E+03  0.96726202912E+03  0.00000000000E+00 0. -1.
        -13    1    5    5    0    0 -0.45851157221E+01 -0.10347027601E+03 -0.31952794312E+02  0.10838866347E+03  0.00000000000E+00 0.  1.
          4    1    6    6  503    0 -0.76402512923E+02 -0.67297958485E+02  0.24809376873E+02  0.10479439097E+03  0.00000000000E+00 0.  1.
         -4    1    6    6    0  503 -0.54560119707E+02  0.14143888086E+02  0.62791536356E+02  0.84377919331E+02  0.00000000000E+00 0. -1.
<mgrwt>
<rscale>  0 0.10701663E+04</rscale>
<asrwt>0</asrwt>
<pdfrwt beam="1">  1        2 0.15630498E+00 0.10701663E+04</pdfrwt>
<pdfrwt beam="2">  1       -2 0.19907176E+00 0.10701663E+04</pdfrwt>
<totfact> 0.32675919E+00</totfact>
</mgrwt>
</event>
<event>
12    1  0.3203156E-008  0.9178879E+03  0.7818608E-02  0.9403493E-01
          2   -1    0    0  501    0  0.00000000000E+00  0.00000000000E+00  0.40141870192E+04  0.40141870192E+04  0.00000000000E+00 0. -1.
         -2   -1    0    0    0  501 -0.00000000000E+00 -0.00000000000E+00 -0.44329486554E+03  0.44329486554E+03  0.00000000000E+00 0.  1.
         23    2    1    2    0    0  0.47465847387E+03  0.73655820480E+03  0.17331079159E+03  0.89772569291E+03  0.89755965586E+02 0.  0.
    5000000    2    1    2    0    0 -0.47465847387E+03 -0.73655820480E+03  0.33975813621E+04  0.35597561918E+04  0.60040517782E+03 0.  0.
         23    2    4    4    0    0 -0.20120016526E+03 -0.62020529524E+03  0.15163624498E+04  0.16529165463E+04  0.87418046699E+02 0.  0.
         23    2    4    4    0    0 -0.27345830860E+03 -0.11635290955E+03  0.18812189122E+04  0.19068396456E+04  0.93463319375E+02 0.  0.
          5    1    3    3  502    0  0.28035724377E+02  0.88869945538E+02  0.30064689210E+02  0.98029814845E+02  0.47000000000E+01 0. -1.
         -5    1    3    3    0  502  0.44662274949E+03  0.64768825926E+03  0.14324610238E+03  0.79969587806E+03  0.47000000000E+01 0.  1.
         11    1    5    5    0    0 -0.51492762626E+01 -0.12711216027E+03  0.29556193447E+03  0.32177767704E+03  0.00000000000E+00 0. -1.
        -11    1    5    5    0    0 -0.19605088900E+03 -0.49309313498E+03  0.12208005154E+04  0.13311388692E+04  0.00000000000E+00 0.  1.
          3    1    6    6  503    0 -0.96882335392E+02 -0.51699148866E+02  0.98525791332E+03  0.99135873662E+03  0.00000000000E+00 0. -1.
         -3    1    6    6    0  503 -0.17657597321E+03 -0.64653760687E+02  0.89596099891E+03  0.91548090895E+03  0.00000000000E+00 0.  1.
<mgrwt>
<rscale>  0 0.91788790E+03</rscale>
<asrwt>0</asrwt>
<pdfrwt beam="1">  1        2 0.61756721E+00 0.91788790E+03</pdfrwt>
<pdfrwt beam="2">  1       -2 0.68199213E-01 0.91788790E+03</pdfrwt>
<totfact> 0.70254569E-01</totfact>
</mgrwt>
</event>
<event>
12    1  0.3203156E-008  0.1719065E+04  0.7818608E-02  0.8750565E-01
          1   -1    0    0  501    0  0.00000000000E+00  0.00000000000E+00  0.19179466437E+04  0.19179466437E+04  0.00000000000E+00 0. -1.
         -1   -1    0    0    0  501 -0.00000000000E+00 -0.00000000000E+00 -0.19768923971E+04  0.19768923971E+04  0.00000000000E+00 0.  1.
         23    2    1    2    0    0 -0.57734200486E+02 -0.16986421457E+04  0.82030723226E+03  0.18893464225E+04  0.89485037945E+02 0.  0.
    5000000    2    1    2    0    0  0.57734200486E+02  0.16986421457E+04 -0.87925298569E+03  0.20054926182E+04  0.60016368758E+03 0.  0.
         23    2    4    4    0    0  0.75800477040E+02  0.15751380062E+03 -0.29763308936E+03  0.35562134629E+03  0.85584907284E+02 0.  0.
         23    2    4    4    0    0 -0.18066276554E+02  0.15411283451E+04 -0.58161989633E+03  0.16498712719E+04  0.91599911508E+02 0.  0.
          5    1    3    3  502    0 -0.76959998368E+02 -0.14924107681E+04  0.73363223150E+03  0.16647675764E+04  0.47000000000E+01 0. -1.
         -5    1    3    3    0  502  0.19225797883E+02 -0.20623137757E+03  0.86675000766E+02  0.22457884619E+03  0.47000000000E+01 0.  1.
         11    1    5    5    0    0 -0.12327267636E+02  0.65553756512E+02 -0.11534425263E+03  0.13324245996E+03  0.00000000000E+00 0. -1.
        -11    1    5    5    0    0  0.88127744675E+02  0.91960044103E+02 -0.18228883673E+03  0.22237888634E+03  0.00000000000E+00 0.  1.
          3    1    6    6  503    0  0.19425631481E+02  0.92871986767E+03 -0.38545405881E+03  0.10057200302E+04  0.00000000000E+00 0. -1.
         -3    1    6    6    0  503 -0.37491908035E+02  0.61240847742E+03 -0.19616583752E+03  0.64415124171E+03  0.00000000000E+00 0.  1.
<mgrwt>
<rscale>  0 0.17190655E+04</rscale>
<asrwt>0</asrwt>
<pdfrwt beam="1">  1        1 0.29506871E+00 0.17190655E+04</pdfrwt>
<pdfrwt beam="2">  1       -1 0.30413729E+00 0.17190655E+04</pdfrwt>
<totfact> 0.96670435E-02</totfact>
</mgrwt>
</event>
<event>
12    1  0.3203156E-008  0.2192747E+04  0.7818608E-02  0.8521453E-01
          2   -1    0    0  501    0  0.00000000000E+00  0.00000000000E+00  0.31521126399E+04  0.31521126399E+04  0.00000000000E+00 0.  1.
         -2   -1    0    0    0  501 -0.00000000000E+00 -0.00000000000E+00 -0.15649301447E+04  0.15649301447E+04  0.00000000000E+00 0. -1.
         23    2    1    2    0    0 -0.18958872031E+04  0.10357121364E+04  0.47308890698E+03  0.22133466188E+04  0.89455152845E+02 0.  0.
    5000000    2    1    2    0    0  0.18958872031E+04 -0.10357121364E+04  0.11140935882E+04  0.25036961658E+04  0.60016835212E+03 0.  0.
         23    2    4    4    0    0  0.23421036908E+03 -0.33854558403E+03  0.33482316491E+03  0.53819224648E+03  0.89870645719E+02 0.  0.
         23    2    4    4    0    0  0.16616768341E+04 -0.69716655241E+03  0.77927042331E+03  0.19655039193E+04  0.93446036181E+02 0.  0.
          5    1    3    3  502    0 -0.11494939484E+03  0.40627600650E+02  0.21796146545E+02  0.12394001497E+03  0.47000000000E+01 0. -1.
         -5    1    3    3    0  502 -0.17809378083E+04  0.99508453579E+03  0.45129276043E+03  0.20894066038E+04  0.47000000000E+01 0.  1.
         13    1    5    5    0    0 -0.67196909162E+01 -0.25295595595E+02  0.20712710899E+02  0.33377204726E+02  0.00000000000E+00 0.  1.
        -13    1    5    5    0    0  0.24093005999E+03 -0.31324998843E+03  0.31411045401E+03  0.50481504175E+03  0.00000000000E+00 0. -1.
          2    1    6    6  503    0  0.43073417185E+03 -0.18623187286E+03  0.15908003119E+03  0.49550044762E+03  0.00000000000E+00 0.  1.
         -2    1    6    6    0  503  0.12309426622E+04 -0.51093467955E+03  0.62019039212E+03  0.14700034717E+04  0.00000000000E+00 0. -1.
<mgrwt>
<rscale>  0 0.21927473E+04</rscale>
<asrwt>0</asrwt>
<pdfrwt beam="1">  1        2 0.48494040E+00 0.21927473E+04</pdfrwt>
<pdfrwt beam="2">  1       -2 0.24075849E+00 0.21927473E+04</pdfrwt>
<totfact> 0.89071651E-02</totfact>
</mgrwt>
</event>
<event>
12    1  0.3203156E-008  0.1012597E+04  0.7818608E-02  0.9294836E-01
         -2   -1    0    0    0  501 -0.00000000000E+00  0.00000000000E+00  0.65025735961E+03  0.65025735961E+03  0.00000000000E+00 0.  1.
          2   -1    0    0  501    0  0.00000000000E+00 -0.00000000000E+00 -0.25237540672E+04  0.25237540672E+04  0.00000000000E+00 0. -1.
         23    2    1    2    0    0  0.76608290569E+03 -0.52707149294E+03 -0.18442907303E+04  0.20675131830E+04  0.92277229092E+02 0.  0.
    5000000    2    1    2    0    0 -0.76608290569E+03  0.52707149294E+03 -0.29205977209E+02  0.11064982437E+04  0.59899749348E+03 0.  0.
         23    2    4    4    0    0 -0.85102385922E+03  0.45237352483E+03 -0.27166870956E+02  0.96834832838E+03  0.89872305424E+02 0.  0.
         23    2    4    4    0    0  0.84940953533E+02  0.74697968113E+02 -0.20391062529E+01  0.13814991534E+03  0.79287383147E+02 0.  0.
          5    1    3    3  502    0  0.65627503108E+03 -0.44258381356E+03 -0.16339674726E+04  0.18156126073E+04  0.47000000000E+01 0. -1.
         -5    1    3    3    0  502  0.10980787460E+03 -0.84487679380E+02 -0.21032325774E+03  0.25190057570E+03  0.47000000000E+01 0.  1.
         13    1    5    5    0    0 -0.37468696436E+03  0.16785539057E+03  0.23229905815E+02  0.41122424774E+03  0.00000000000E+00 0. -1.
        -13    1    5    5    0    0 -0.47633689486E+03  0.28451813426E+03 -0.50396776771E+02  0.55712408064E+03  0.00000000000E+00 0.  1.
          2    1    6    6  503    0  0.23611680000E+02  0.62816179768E+02  0.22870000598E+02  0.70897255239E+02  0.00000000000E+00 0. -1.
         -2    1    6    6    0  503  0.61329273533E+02  0.11881788346E+02 -0.24909106850E+02  0.67252660099E+02  0.00000000000E+00 0.  1.
<mgrwt>
<rscale>  0 0.10125970E+04</rscale>
<asrwt>0</asrwt>
<pdfrwt beam="1">  1        2 0.38826985E+00 0.10125970E+04</pdfrwt>
<pdfrwt beam="2">  1       -2 0.10003960E+00 0.10125970E+04</pdfrwt>
<totfact> 0.28031464E+00</totfact>
</mgrwt>
</event>
<event>
12    1  0.3203156E-008  0.5234285E+03  0.7818608E-02  0.1007838E+00
          2   -1    0    0  501    0  0.00000000000E+00  0.00000000000E+00  0.11167555280E+04  0.11167555280E+04  0.00000000000E+00 0. -1.
         -2   -1    0    0    0  501 -0.00000000000E+00 -0.00000000000E+00 -0.52575805691E+03  0.52575805691E+03  0.00000000000E+00 0.  1.
         23    2    1    2    0    0  0.27284183124E+03 -0.40610288832E+03 -0.19904232103E+03  0.53648679498E+03  0.94010716652E+02 0.  0.
    5000000    2    1    2    0    0 -0.27284183124E+03  0.40610288832E+03  0.79003979215E+03  0.11060267900E+04  0.59980844124E+03 0.  0.
         23    2    4    4    0    0 -0.24126275284E+03  0.14716831825E+03  0.77371326105E+03  0.82879329131E+03  0.91650857016E+02 0.  0.
         23    2    4    4    0    0 -0.31579078402E+02  0.25893457008E+03  0.16326531101E+02  0.27723349866E+03  0.92452730575E+02 0.  0.
          5    1    3    3  502    0  0.92195492882E+02 -0.18409061992E+03 -0.42717517443E+02  0.21032413448E+03  0.47000000000E+01 0. -1.
         -5    1    3    3    0  502  0.18064633836E+03 -0.22201226841E+03 -0.15632480359E+03  0.32616266049E+03  0.47000000000E+01 0.  1.
         13    1    5    5    0    0 -0.12711809143E+03  0.41135605446E+02  0.26528287549E+03  0.29702887272E+03  0.00000000000E+00 0.  1.
        -13    1    5    5    0    0 -0.11414466141E+03  0.10603271280E+03  0.50843038557E+03  0.53176441859E+03  0.00000000000E+00 0. -1.
          4    1    6    6  503    0 -0.95831755923E+01  0.22241934847E+03 -0.16782939650E+02  0.22325740949E+03  0.00000000000E+00 0. -1.
         -4    1    6    6    0  503 -0.21995902810E+02  0.36515221608E+02  0.33109470751E+02  0.53976089177E+02  0.00000000000E+00 0.  1.
<mgrwt>
<rscale>  0 0.52342850E+03</rscale>
<asrwt>0</asrwt>
<pdfrwt beam="1">  1        2 0.17180854E+00 0.52342850E+03</pdfrwt>
<pdfrwt beam="2">  1       -2 0.80885855E-01 0.52342850E+03</pdfrwt>
<totfact> 0.30003708E+01</totfact>
</mgrwt>
</event>
<event>
12    1  0.3203156E-008  0.7737071E+03  0.7818608E-02  0.9598875E-01
          2   -1    0    0  501    0  0.00000000000E+00  0.00000000000E+00  0.11463439546E+04  0.11463439546E+04  0.00000000000E+00 0. -1.
         -2   -1    0    0    0  501 -0.00000000000E+00 -0.00000000000E+00 -0.56078362491E+03  0.56078362491E+03  0.00000000000E+00 0.  1.
         23    2    1    2    0    0  0.51503148927E+03  0.42744244211E+03  0.41329339390E+03  0.79200418387E+03  0.92166813777E+02 0.  0.
    5000000    2    1    2    0    0 -0.51503148927E+03 -0.42744244211E+03  0.17226693583E+03  0.91512339567E+03  0.59984202576E+03 0.  0.
         23    2    4    4    0    0 -0.25454646879E+03  0.10411374973E+03  0.12198011352E+03  0.31423068573E+03  0.90709415746E+02 0.  0.
         23    2    4    4    0    0 -0.26048502048E+03 -0.53155619184E+03  0.50286822306E+02  0.60089270994E+03  0.90215593898E+02 0.  0.
          5    1    3    3  502    0  0.29317524982E+02  0.52980050528E+02  0.53515908465E+02  0.80947177121E+02  0.47000000000E+01 0. -1.
         -5    1    3    3    0  502  0.48571396429E+03  0.37446239158E+03  0.35977748544E+03  0.71105700675E+03  0.47000000000E+01 0.  1.
         13    1    5    5    0    0 -0.53453860998E+02  0.48372836173E+02 -0.83498532423E+00  0.72096766470E+02  0.00000000000E+00 0. -1.
        -13    1    5    5    0    0 -0.20109260779E+03  0.55740913558E+02  0.12281509885E+03  0.24213391926E+03  0.00000000000E+00 0.  1.
          3    1    6    6  503    0 -0.15316821458E+03 -0.34279825218E+03 -0.98365699882E+01  0.37559007144E+03  0.00000000000E+00 0. -1.
         -3    1    6    6    0  503 -0.10731680591E+03 -0.18875793966E+03  0.60123392294E+02  0.22530263850E+03  0.00000000000E+00 0.  1.
<mgrwt>
<rscale>  0 0.77370711E+03</rscale>
<asrwt>0</asrwt>
<pdfrwt beam="1">  1        2 0.17636061E+00 0.77370711E+03</pdfrwt>
<pdfrwt beam="2">  1       -2 0.86274404E-01 0.77370711E+03</pdfrwt>
<totfact> 0.24138814E+01</totfact>
</mgrwt>
</event>
<event>
12    1  0.3203156E-008  0.6738107E+03  0.7818608E-02  0.9763098E-01
         -3   -1    0    0    0  501 -0.00000000000E+00  0.00000000000E+00  0.14931436961E+04  0.14931436961E+04  0.00000000000E+00 0.  1.
          3   -1    0    0  501    0  0.00000000000E+00 -0.00000000000E+00 -0.36388801478E+03  0.36388801478E+03  0.00000000000E+00 0. -1.
         23    2    1    2    0    0  0.13842473483E+03  0.59513187105E+03  0.46971328538E+03  0.77617583444E+03  0.92059786818E+02 0.  0.
    5000000    2    1    2    0    0 -0.13842473483E+03 -0.59513187105E+03  0.65954239594E+03  0.10808558764E+04  0.59992491401E+03 0.  0.
         23    2    4    4    0    0  0.22280438569E+02  0.53132476464E+02  0.29654178348E+03  0.31525106890E+03  0.90148372689E+02 0.  0.
         23    2    4    4    0    0 -0.16070517340E+03 -0.64826434752E+03  0.36300061247E+03  0.76560480754E+03  0.91150752425E+02 0.  0.
          5    1    3    3  502    0  0.52894781361E+02  0.30278657957E+03  0.18253302590E+03  0.35751638593E+03  0.47000000000E+01 0. -1.
         -5    1    3    3    0  502  0.85529953466E+02  0.29234529148E+03  0.28718025948E+03  0.41865944851E+03  0.47000000000E+01 0.  1.
         11    1    5    5    0    0 -0.11228840551E+01  0.37008763142E+02  0.31276792572E+02  0.48468001522E+02  0.00000000000E+00 0.  1.
        -11    1    5    5    0    0  0.23403322624E+02  0.16123713322E+02  0.26526499091E+03  0.26678306738E+03  0.00000000000E+00 0. -1.
          4    1    6    6  503    0 -0.82451005227E+02 -0.22360142543E+03  0.16932794340E+03  0.29234862431E+03  0.00000000000E+00 0. -1.
         -4    1    6    6    0  503 -0.78254168169E+02 -0.42466292208E+03  0.19367266906E+03  0.47325618324E+03  0.00000000000E+00 0.  1.
<mgrwt>
<rscale>  0 0.67381066E+03</rscale>
<asrwt>0</asrwt>
<pdfrwt beam="1">  1        3 0.55982772E-01 0.67381066E+03</pdfrwt>
<pdfrwt beam="2">  1       -3 0.22971441E+00 0.67381066E+03</pdfrwt>
<totfact> 0.79730397E-01</totfact>
</mgrwt>
</event>
<event>
12    1  0.3203156E-008  0.7943633E+03  0.7818608E-02  0.9568212E-01
          2   -1    0    0  501    0  0.00000000000E+00  0.00000000000E+00  0.16338626982E+04  0.16338626982E+04  0.00000000000E+00 0. -1.
         -2   -1    0    0    0  501 -0.00000000000E+00 -0.00000000000E+00 -0.74666813317E+03  0.74666813317E+03  0.00000000000E+00 0.  1.
         23    2    1    2    0    0  0.27919239946E+03  0.71836416986E+03  0.11330884301E+04  0.13734214386E+04  0.91660140073E+02 0.  0.
    5000000    2    1    2    0    0 -0.27919239946E+03 -0.71836416986E+03 -0.24589386508E+03  0.10071093927E+04  0.59984169539E+03 0.  0.
         23    2    4    4    0    0 -0.13443805228E+03 -0.78085559446E+02 -0.29160734301E+03  0.34278981314E+03  0.91099226118E+02 0.  0.
         23    2    4    4    0    0 -0.14475434718E+03 -0.64027861041E+03  0.45713477934E+02  0.66431957956E+03  0.91215468753E+02 0.  0.
          5    1    3    3  502    0  0.19549239790E+03  0.37995755340E+03  0.63873330051E+03  0.76849680494E+03  0.47000000000E+01 0. -1.
         -5    1    3    3    0  502  0.83700001563E+02  0.33840661645E+03  0.49435512956E+03  0.60492463369E+03  0.47000000000E+01 0.  1.
         11    1    5    5    0    0 -0.54148689435E+02 -0.26813169351E+02 -0.20611453016E+03  0.21478879431E+03  0.00000000000E+00 0.  1.
        -11    1    5    5    0    0 -0.80289362845E+02 -0.51272390094E+02 -0.85492812852E+02  0.12800101883E+03  0.00000000000E+00 0. -1.
          1    1    6    6  503    0 -0.13468549656E+03 -0.55052405927E+03  0.69278327550E+02  0.57097846674E+03  0.00000000000E+00 0. -1.
         -1    1    6    6    0  503 -0.10068850619E+02 -0.89754551143E+02 -0.23564849617E+02  0.93341112813E+02  0.00000000000E+00 0.  1.
<mgrwt>
<rscale>  0 0.79436327E+03</rscale>
<asrwt>0</asrwt>
<pdfrwt beam="1">  1        2 0.25136349E+00 0.79436327E+03</pdfrwt>
<pdfrwt beam="2">  1       -2 0.11487202E+00 0.79436327E+03</pdfrwt>
<totfact> 0.64457007E+00</totfact>
</mgrwt>
</event>
<event>
12    1  0.3203156E-008  0.1362075E+04  0.7818608E-02  0.8981738E-01
          2   -1    0    0  501    0  0.00000000000E+00  0.00000000000E+00  0.36114480440E+04  0.36114480440E+04  0.00000000000E+00 0. -1.
         -2   -1    0    0    0  501 -0.00000000000E+00 -0.00000000000E+00 -0.56553928155E+03  0.56553928155E+03  0.00000000000E+00 0.  1.
         23    2    1    2    0    0  0.61449579751E+03 -0.12053720636E+04  0.17174544375E+04  0.21882649887E+04  0.91252501093E+02 0.  0.
    5000000    2    1    2    0    0 -0.61449579751E+03  0.12053720636E+04  0.13284543249E+04  0.19887223368E+04  0.59974889969E+03 0.  0.
         23    2    4    4    0    0 -0.88817582382E+02  0.34258605921E+03  0.71515979030E+03  0.80335010888E+03  0.93081152089E+02 0.  0.
         23    2    4    4    0    0 -0.52567821513E+03  0.86278600440E+03  0.61329453459E+03  0.11853722279E+04  0.90773659787E+02 0.  0.
          5    1    3    3  502    0  0.50250128539E+03 -0.10033034568E+04  0.13683651560E+04  0.17696244400E+04  0.47000000000E+01 0. -1.
         -5    1    3    3    0  502  0.11199451212E+03 -0.20206860676E+03  0.34908928154E+03  0.41864054876E+03  0.47000000000E+01 0.  1.
         13    1    5    5    0    0  0.49814967678E+01  0.15960428243E+01  0.47699774675E+02  0.47985739203E+02  0.00000000000E+00 0.  1.
        -13    1    5    5    0    0 -0.93799079150E+02  0.34099001638E+03  0.66746001562E+03  0.75536436967E+03  0.00000000000E+00 0. -1.
          1    1    6    6  503    0 -0.22438204561E+03  0.42541275744E+03  0.33151163409E+03  0.58414320173E+03  0.00000000000E+00 0. -1.
         -1    1    6    6    0  503 -0.30129616952E+03  0.43737324696E+03  0.28178290050E+03  0.60122902619E+03  0.00000000000E+00 0.  1.
<mgrwt>
<rscale>  0 0.13620746E+04</rscale>
<asrwt>0</asrwt>
<pdfrwt beam="1">  1        2 0.55560738E+00 0.13620746E+04</pdfrwt>
<pdfrwt beam="2">  1       -2 0.87006045E-01 0.13620746E+04</pdfrwt>
<totfact> 0.76058248E-01</totfact>
</mgrwt>
</event>
<event>
12    1  0.3203156E-008  0.6515348E+03  0.7818608E-02  0.9803904E-01
          2   -1    0    0  501    0  0.00000000000E+00  0.00000000000E+00  0.30761126574E+04  0.30761126574E+04  0.00000000000E+00 0. -1.
         -2   -1    0    0    0  501 -0.00000000000E+00 -0.00000000000E+00 -0.15928765819E+03  0.15928765819E+03  0.00000000000E+00 0.  1.
         23    2    1    2    0    0  0.54661572639E+03  0.14303902880E+03  0.10846219428E+04  0.12263556570E+04  0.91074269927E+02 0.  0.
    5000000    2    1    2    0    0 -0.54661572639E+03 -0.14303902880E+03  0.18322030565E+04  0.20090446586E+04  0.60003623561E+03 0.  0.
         23    2    4    4    0    0 -0.58509343723E+03 -0.42265178724E+02  0.98743776607E+03  0.11524570798E+04  0.94885738475E+02 0.  0.
         23    2    4    4    0    0  0.38477710843E+02 -0.10077385008E+03  0.84476529039E+03  0.85658757877E+03  0.92075953218E+02 0.  0.
          5    1    3    3  502    0  0.34671840583E+02 -0.37259484554E+01  0.36596793092E+02  0.50768439861E+02  0.47000000000E+01 0. -1.
         -5    1    3    3    0  502  0.51194388580E+03  0.14676497726E+03  0.10480251497E+04  0.11755872171E+04  0.47000000000E+01 0.  1.
         11    1    5    5    0    0 -0.45851689571E+03 -0.70949243091E+02  0.75194703869E+03  0.88356996765E+03  0.00000000000E+00 0. -1.
        -11    1    5    5    0    0 -0.12657654152E+03  0.28684064367E+02  0.23549072738E+03  0.26888711218E+03  0.00000000000E+00 0.  1.
          2    1    6    6  503    0  0.64600966666E+02 -0.41556147413E+02  0.48544578837E+03  0.49148531182E+03  0.00000000000E+00 0. -1.
         -2    1    6    6    0  503 -0.26123255823E+02 -0.59217702665E+02  0.35931950201E+03  0.36510226695E+03  0.00000000000E+00 0.  1.
<mgrwt>
<rscale>  0 0.65153478E+03</rscale>
<asrwt>0</asrwt>
<pdfrwt beam="1">  1        2 0.47324806E+00 0.65153478E+03</pdfrwt>
<pdfrwt beam="2">  1       -2 0.24505796E-01 0.65153478E+03</pdfrwt>
<totfact> 0.24994391E+01</totfact>
</mgrwt>
</event>
<event>
12    1  0.3203156E-008  0.9632367E+03  0.7818608E-02  0.9349811E-01
         -2   -1    0    0    0  501 -0.00000000000E+00  0.00000000000E+00  0.10548704155E+04  0.10548704155E+04  0.00000000000E+00 0.  1.
          2   -1    0    0  501    0  0.00000000000E+00 -0.00000000000E+00 -0.10500862193E+04  0.10500862193E+04  0.00000000000E+00 0. -1.
         23    2    1    2    0    0 -0.61785482442E+03  0.62525948751E+03 -0.39511265450E+03  0.96794954971E+03  0.90101666245E+02 0.  0.
    5000000    2    1    2    0    0  0.61785482442E+03 -0.62525948751E+03  0.39989685070E+03  0.11370070851E+04  0.60014465730E+03 0.  0.
         23    2    4    4    0    0  0.17768650472E+03 -0.56021486446E+03  0.32107217248E+03  0.67605271477E+03  0.92448606735E+02 0.  0.
         23    2    4    4    0    0  0.44016831970E+03 -0.65044623054E+02  0.78824678224E+02  0.46095437038E+03  0.91031033283E+02 0.  0.
          5    1    3    3  502    0 -0.31887477564E+03  0.32673902041E+03 -0.15618614167E+03  0.48255125205E+03  0.47000000000E+01 0. -1.
         -5    1    3    3    0  502 -0.29898004877E+03  0.29852046710E+03 -0.23892651283E+03  0.48539829767E+03  0.47000000000E+01 0.  1.
         13    1    5    5    0    0  0.15273599143E+03 -0.33379797571E+03  0.20335646504E+03  0.41964654596E+03  0.00000000000E+00 0.  1.
        -13    1    5    5    0    0  0.24950513295E+02 -0.22641688875E+03  0.11771570744E+03  0.25640616881E+03  0.00000000000E+00 0. -1.
          4    1    6    6  503    0  0.41723569953E+02 -0.32209177017E+02 -0.32944490958E+01  0.52812316448E+02  0.00000000000E+00 0. -1.
         -4    1    6    6    0  503  0.39844474974E+03 -0.32835446037E+02  0.82119127320E+02  0.40814205393E+03  0.00000000000E+00 0.  1.
<mgrwt>
<rscale>  0 0.96323675E+03</rscale>
<asrwt>0</asrwt>
<pdfrwt beam="1">  1        2 0.16155173E+00 0.96323675E+03</pdfrwt>
<pdfrwt beam="2">  1       -2 0.16228776E+00 0.96323675E+03</pdfrwt>
<totfact> 0.56419569E+00</totfact>
</mgrwt>
</event>
<event>
12    1  0.3203156E-008  0.5129295E+03  0.7818608E-02  0.1010458E+00
         -3   -1    0    0    0  501 -0.00000000000E+00  0.00000000000E+00  0.74879613868E+03  0.74879613868E+03  0.00000000000E+00 0.  1.
          3   -1    0    0  501    0  0.00000000000E+00 -0.00000000000E+00 -0.62749873809E+03  0.62749873809E+03  0.00000000000E+00 0. -1.
         23    2    1    2    0    0  0.13709000631E+03  0.45973666675E+03 -0.22113662302E+03  0.53512712312E+03  0.85487772649E+02 0.  0.
    5000000    2    1    2    0    0 -0.13709000631E+03 -0.45973666675E+03  0.34243402360E+03  0.84116775365E+03  0.60012553410E+03 0.  0.
         23    2    4    4    0    0 -0.20625615658E+03 -0.32935363075E+03  0.47726329743E+03  0.62215549665E+03  0.91004344532E+02 0.  0.
         23    2    4    4    0    0  0.69166150278E+02 -0.13038303601E+03 -0.13482927383E+03  0.21901225700E+03  0.89463641846E+02 0.  0.
          5    1    3    3  502    0  0.92899086161E+02  0.38411527416E+03 -0.20744501603E+03  0.44635222496E+03  0.47000000000E+01 0. -1.
         -5    1    3    3    0  502  0.44190920145E+02  0.75621392596E+02 -0.13691606986E+02  0.88774898160E+02  0.47000000000E+01 0.  1.
         13    1    5    5    0    0 -0.22048330132E+02 -0.91885891245E+02  0.78667938566E+02  0.12295442420E+03  0.00000000000E+00 0. -1.
        -13    1    5    5    0    0 -0.18420782645E+03 -0.23746773950E+03  0.39859535886E+03  0.49920107245E+03  0.00000000000E+00 0.  1.
          4    1    6    6  503    0  0.41463721544E+02 -0.87749192735E+02 -0.28497095017E+02  0.10114961915E+03  0.00000000000E+00 0. -1.
         -4    1    6    6    0  503  0.27702428734E+02 -0.42633843273E+02 -0.10633217881E+03  0.11786263785E+03  0.00000000000E+00 0.  1.
<mgrwt>
<rscale>  0 0.51292946E+03</rscale>
<asrwt>0</asrwt>
<pdfrwt beam="1">  1        3 0.96538268E-01 0.51292946E+03</pdfrwt>
<pdfrwt beam="2">  1       -3 0.11519941E+00 0.51292946E+03</pdfrwt>
<totfact> 0.15519627E+00</totfact>
</mgrwt>
</event>
<event>
12    1  0.3203156E-008  0.1505315E+04  0.7818608E-02  0.8880926E-01
         -2   -1    0    0    0  501 -0.00000000000E+00  0.00000000000E+00  0.20676808125E+04  0.20676808125E+04  0.00000000000E+00 0.  1.
          2   -1    0    0  501    0  0.00000000000E+00 -0.00000000000E+00 -0.12313759706E+04  0.12313759706E+04  0.00000000000E+00 0. -1.
         23    2    1    2    0    0  0.33849457150E+03 -0.14102514370E+04  0.93246795105E+03  0.17266506928E+04  0.91861008172E+02 0.  0.
    5000000    2    1    2    0    0 -0.33849457150E+03  0.14102514370E+04 -0.96163109233E+02  0.15724060903E+04  0.59985488144E+03 0.  0.
         23    2    4    4    0    0 -0.45907010965E+03  0.72281205042E+03  0.62478149451E+01  0.86119259163E+03  0.91711607131E+02 0.  0.
         23    2    4    4    0    0  0.12057553815E+03  0.68743938655E+03 -0.10241092418E+03  0.71121349865E+03  0.90693289167E+02 0.  0.
          5    1    3    3  502    0  0.19895284639E+03 -0.89582780027E+03  0.54049719285E+03  0.10650112621E+04  0.47000000000E+01 0. -1.
         -5    1    3    3    0  502  0.13954172511E+03 -0.51442363670E+03  0.39197075820E+03  0.66163943075E+03  0.47000000000E+01 0.  1.
         11    1    5    5    0    0 -0.28857106254E+03  0.52761372063E+03 -0.10635465447E+02  0.60146704769E+03  0.00000000000E+00 0. -1.
        -11    1    5    5    0    0 -0.17049904711E+03  0.19519832979E+03  0.16883280392E+02  0.25972554394E+03  0.00000000000E+00 0.  1.
          1    1    6    6  503    0  0.53245192246E+02  0.42989224295E+03 -0.10194018181E+03  0.44501032765E+03  0.00000000000E+00 0. -1.
         -1    1    6    6    0  503  0.67330345904E+02  0.25754714359E+03 -0.47074236297E+00  0.26620317100E+03  0.00000000000E+00 0.  1.
<mgrwt>
<rscale>  0 0.15053150E+04</rscale>
<asrwt>0</asrwt>
<pdfrwt beam="1">  1        2 0.18944246E+00 0.15053150E+04</pdfrwt>
<pdfrwt beam="2">  1       -2 0.31810474E+00 0.15053150E+04</pdfrwt>
<totfact> 0.42129092E-01</totfact>
</mgrwt>
</event>
<event>
12    1  0.3203156E-008  0.4406077E+03  0.7818608E-02  0.1030561E+00
          2   -1    0    0  501    0  0.00000000000E+00  0.00000000000E+00  0.21712433927E+04  0.21712433927E+04  0.00000000000E+00 0.  1.
         -2   -1    0    0    0  501 -0.00000000000E+00 -0.00000000000E+00 -0.15851268234E+03  0.15851268234E+03  0.00000000000E+00 0. -1.
         23    2    1    2    0    0  0.36805711957E+03  0.19936151629E+03  0.92567099247E+03  0.10194141213E+04  0.84423379461E+02 0.  0.
    5000000    2    1    2    0    0 -0.36805711957E+03 -0.19936151629E+03  0.10870597179E+04  0.13103419537E+04  0.60007178566E+03 0.  0.
         23    2    4    4    0    0 -0.33908724668E+03 -0.19858301602E+03  0.26515687866E+03  0.48290635061E+03  0.92059752551E+02 0.  0.
         23    2    4    4    0    0 -0.28969872888E+02 -0.77850026941E+00  0.82190283920E+03  0.82743560308E+03  0.91024944672E+02 0.  0.
          5    1    3    3  502    0  0.24713797804E+03  0.14672027338E+03  0.71752278070E+03  0.77295863384E+03  0.47000000000E+01 0. -1.
         -5    1    3    3    0  502  0.12091914153E+03  0.52641242910E+02  0.20814821177E+03  0.24645548748E+03  0.47000000000E+01 0.  1.
         13    1    5    5    0    0 -0.12551887278E+03 -0.68144865276E+02  0.15100684172E+03  0.20785037006E+03  0.00000000000E+00 0. -1.
        -13    1    5    5    0    0 -0.21356837390E+03 -0.13043815075E+03  0.11415003694E+03  0.27505598055E+03  0.00000000000E+00 0.  1.
          3    1    6    6  503    0 -0.16184918837E+01  0.28566946591E+02  0.66059771360E+03  0.66121708172E+03  0.00000000000E+00 0. -1.
         -3    1    6    6    0  503 -0.27351381005E+02 -0.29345446861E+02  0.16130512561E+03  0.16621852135E+03  0.00000000000E+00 0.  1.
<mgrwt>
<rscale>  0 0.44060769E+03</rscale>
<asrwt>0</asrwt>
<pdfrwt beam="1">  1        2 0.33403742E+00 0.44060769E+03</pdfrwt>
<pdfrwt beam="2">  1       -2 0.24386568E-01 0.44060769E+03</pdfrwt>
<totfact> 0.86684008E+01</totfact>
</mgrwt>
</event>
<event>
12    1  0.3203156E-008  0.4415969E+03  0.7818608E-02  0.1030258E+00
         -2   -1    0    0    0  501 -0.00000000000E+00  0.00000000000E+00  0.94375203665E+03  0.94375203665E+03  0.00000000000E+00 0.  1.
          2   -1    0    0  501    0  0.00000000000E+00 -0.00000000000E+00 -0.23901087938E+03  0.23901087938E+03  0.00000000000E+00 0. -1.
         23    2    1    2    0    0 -0.62023479169E+02 -0.23610098518E+03  0.56434171473E+02  0.26621887076E+03  0.89983800010E+02 0.  0.
    5000000    2    1    2    0    0  0.62023479169E+02  0.23610098518E+03  0.64830698580E+03  0.91654404527E+03  0.60013369504E+03 0.  0.
         23    2    4    4    0    0  0.29220842434E+03  0.29717146993E+02  0.21048771964E+03  0.37326280774E+03  0.93547696084E+02 0.  0.
         23    2    4    4    0    0 -0.23018494517E+03  0.20638383819E+03  0.43781926616E+03  0.54328123753E+03  0.88822269666E+02 0.  0.
          5    1    3    3  502    0 -0.56956275196E+02 -0.74387902299E+02  0.44758972534E+02  0.10393763955E+03  0.47000000000E+01 0. -1.
         -5    1    3    3    0  502 -0.50672039735E+01 -0.16171308289E+03  0.11675198938E+02  0.16228123121E+03  0.47000000000E+01 0.  1.
         13    1    5    5    0    0  0.23359055919E+03 -0.15572532445E+02  0.16323171024E+03  0.28539734466E+03  0.00000000000E+00 0. -1.
        -13    1    5    5    0    0  0.58617865147E+02  0.45289679439E+02  0.47256009398E+02  0.87865463080E+02  0.00000000000E+00 0.  1.
          1    1    6    6  503    0 -0.17201659760E+03  0.10238526333E+03  0.30519271279E+03  0.36498636130E+03  0.00000000000E+00 0. -1.
         -1    1    6    6    0  503 -0.58168347564E+02  0.10399857486E+03  0.13262655337E+03  0.17829487623E+03  0.00000000000E+00 0.  1.
<mgrwt>
<rscale>  0 0.44159685E+03</rscale>
<asrwt>0</asrwt>
<pdfrwt beam="1">  1        2 0.36770905E-01 0.44159685E+03</pdfrwt>
<pdfrwt beam="2">  1       -2 0.14519262E+00 0.44159685E+03</pdfrwt>
<totfact> 0.47771489E+01</totfact>
</mgrwt>
</event>
<event>
12    1  0.3203156E-008  0.5803853E+03  0.7818608E-02  0.9946957E-01
         -1   -1    0    0    0  501 -0.00000000000E+00  0.00000000000E+00  0.33132274266E+03  0.33132274266E+03  0.00000000000E+00 0.  1.
          1   -1    0    0  501    0  0.00000000000E+00 -0.00000000000E+00 -0.14573215250E+04  0.14573215250E+04  0.00000000000E+00 0. -1.
         23    2    1    2    0    0 -0.37713334127E+02  0.55948278592E+03 -0.44371198669E+03  0.72095135675E+03  0.91908913385E+02 0.  0.
    5000000    2    1    2    0    0  0.37713334127E+02 -0.55948278592E+03 -0.68228679562E+03  0.10676929109E+04  0.60000799757E+03 0.  0.
         23    2    4    4    0    0  0.20757543859E+02 -0.94447998282E+02  0.90230334058E+02  0.16092677434E+03  0.91676679200E+02 0.  0.
         23    2    4    4    0    0  0.16955790268E+02 -0.46503478764E+03 -0.77251712968E+03  0.90676613654E+03  0.94325278643E+02 0.  0.
          5    1    3    3  502    0 -0.11021040523E+02  0.23538406605E+03 -0.24428354805E+03  0.33944611315E+03  0.47000000000E+01 0. -1.
         -5    1    3    3    0  502 -0.26692293604E+02  0.32409871987E+03 -0.19942843864E+03  0.38150524360E+03  0.47000000000E+01 0.  1.
         11    1    5    5    0    0 -0.23221546877E+02 -0.80599190941E+02  0.74567826520E+02  0.11223114796E+03  0.00000000000E+00 0.  1.
        -11    1    5    5    0    0  0.43979090735E+02 -0.13848807342E+02  0.15662507538E+02  0.48695626385E+02  0.00000000000E+00 0. -1.
          4    1    6    6  503    0  0.30499429032E+02 -0.99246403096E+02 -0.22955638708E+03  0.25194483235E+03  0.00000000000E+00 0. -1.
         -4    1    6    6    0  503 -0.13543638764E+02 -0.36578838454E+03 -0.54296074259E+03  0.65482130419E+03  0.00000000000E+00 0.  1.
<mgrwt>
<rscale>  0 0.58038532E+03</rscale>
<asrwt>0</asrwt>
<pdfrwt beam="1">  1        1 0.22420331E+00 0.58038532E+03</pdfrwt>
<pdfrwt beam="2">  1       -1 0.50972729E-01 0.58038532E+03</pdfrwt>
<totfact> 0.28635192E+01</totfact>
</mgrwt>
</event>
<event>
12    1  0.3203156E-008  0.1490923E+04  0.7818608E-02  0.8890512E-01
          2   -1    0    0  501    0  0.00000000000E+00  0.00000000000E+00  0.31838766193E+04  0.31838766193E+04  0.00000000000E+00 0. -1.
         -2   -1    0    0    0  501 -0.00000000000E+00 -0.00000000000E+00 -0.78440527594E+03  0.78440527594E+03  0.00000000000E+00 0.  1.
         23    2    1    2    0    0  0.13918303247E+04  0.35030352406E+03  0.17933440595E+04  0.22987556194E+04  0.91050922676E+02 0.  0.
    5000000    2    1    2    0    0 -0.13918303247E+04 -0.35030352406E+03  0.60612728391E+03  0.16695262758E+04  0.60001957447E+03 0.  0.
         23    2    4    4    0    0 -0.14051045256E+04 -0.37093081414E+03  0.60586338063E+03  0.15771565404E+04  0.91890804568E+02 0.  0.
         23    2    4    4    0    0  0.13274200955E+02  0.20627290073E+02  0.26390327960E+00  0.92369735483E+02  0.89052843197E+02 0.  0.
          5    1    3    3  502    0  0.36067152774E+03  0.12054656948E+03  0.43148800290E+03  0.57516902992E+03  0.47000000000E+01 0. -1.
         -5    1    3    3    0  502  0.10311587969E+04  0.22975695458E+03  0.13618560566E+04  0.17235865895E+04  0.47000000000E+01 0.  1.
         13    1    5    5    0    0 -0.51324947256E+03 -0.13204060853E+03  0.17348869114E+03  0.55763614422E+03  0.00000000000E+00 0.  1.
        -13    1    5    5    0    0 -0.89185505307E+03 -0.23889020560E+03  0.43237468950E+03  0.10195203961E+04  0.00000000000E+00 0. -1.
          4    1    6    6  503    0 -0.17658288947E+02  0.47606161109E+02 -0.48538471046E+01  0.51007073782E+02  0.00000000000E+00 0. -1.
         -4    1    6    6    0  503  0.30932489903E+02 -0.26978871036E+02  0.51177503842E+01  0.41362661701E+02  0.00000000000E+00 0.  1.
<mgrwt>
<rscale>  0 0.14909229E+04</rscale>
<asrwt>0</asrwt>
<pdfrwt beam="1">  1        2 0.48982717E+00 0.14909229E+04</pdfrwt>
<pdfrwt beam="2">  1       -2 0.12067774E+00 0.14909229E+04</pdfrwt>
<totfact> 0.66446489E-01</totfact>
</mgrwt>
</event>
<event>
12    1  0.3203156E-008  0.1193263E+04  0.7818608E-02  0.9118774E-01
          2   -1    0    0  501    0  0.00000000000E+00  0.00000000000E+00  0.20646437771E+04  0.20646437771E+04  0.00000000000E+00 0. -1.
         -2   -1    0    0    0  501 -0.00000000000E+00 -0.00000000000E+00 -0.72095086448E+03  0.72095086448E+03  0.00000000000E+00 0.  1.
         23    2    1    2    0    0  0.73605124273E+02 -0.11393996298E+04  0.54338334028E+03  0.12676610663E+04  0.89721201008E+02 0.  0.
    5000000    2    1    2    0    0 -0.73605124273E+02  0.11393996298E+04  0.80030957233E+03  0.15179335752E+04  0.59998141354E+03 0.  0.
         23    2    4    4    0    0 -0.23131847591E+03  0.27552523780E+03  0.83265392501E+02  0.38054268358E+03  0.91963114733E+02 0.  0.
         23    2    4    4    0    0  0.15771335164E+03  0.86387439199E+03  0.71704417982E+03  0.11373908917E+04  0.91395941868E+02 0.  0.
          5    1    3    3  502    0  0.72954362282E+02 -0.96653691119E+03  0.49342794451E+03  0.10876622482E+04  0.47000000000E+01 0. -1.
         -5    1    3    3    0  502  0.65076199073E+00 -0.17286271860E+03  0.49955395771E+02  0.17999881816E+03  0.47000000000E+01 0.  1.
         13    1    5    5    0    0 -0.17466237422E+03  0.23210947451E+03  0.10002330868E+03  0.30722372207E+03  0.00000000000E+00 0.  1.
        -13    1    5    5    0    0 -0.56656101692E+02  0.43415763296E+02 -0.16757916182E+02  0.73318961505E+02  0.00000000000E+00 0. -1.
          2    1    6    6  503    0  0.55126507598E+02  0.53748135148E+03  0.42106235788E+03  0.68499536075E+03  0.00000000000E+00 0.  1.
         -2    1    6    6    0  503  0.10258684404E+03  0.32639304051E+03  0.29598182194E+03  0.45239553091E+03  0.00000000000E+00 0. -1.
<mgrwt>
<rscale>  0 0.11932626E+04</rscale>
<asrwt>0</asrwt>
<pdfrwt beam="1">  1        2 0.31763750E+00 0.11932626E+04</pdfrwt>
<pdfrwt beam="2">  1       -2 0.11091552E+00 0.11932626E+04</pdfrwt>
<totfact> 0.38749128E+00</totfact>
</mgrwt>
</event>
<event>
12    1  0.3203156E-008  0.7314922E+03  0.7818608E-02  0.9664842E-01
         -2   -1    0    0    0  501 -0.00000000000E+00  0.00000000000E+00  0.53583930575E+03  0.53583930575E+03  0.00000000000E+00 0.  1.
          2   -1    0    0  501    0  0.00000000000E+00 -0.00000000000E+00 -0.13384777173E+04  0.13384777173E+04  0.00000000000E+00 0. -1.
         23    2    1    2    0    0 -0.18871979617E+03 -0.58397600931E+03 -0.80491007566E+03  0.10160736612E+04  0.88782397730E+02 0.  0.
    5000000    2    1    2    0    0  0.18871979617E+03  0.58397600931E+03  0.22716640933E+01  0.85824336189E+03  0.59994446981E+03 0.  0.
         23    2    4    4    0    0  0.39075252292E+03  0.32391775552E+03  0.28479969402E+02  0.51605211449E+03  0.88816832323E+02 0.  0.
         23    2    4    4    0    0 -0.20203272675E+03  0.26005825379E+03 -0.26208305309E+02  0.34219124740E+03  0.89221390308E+02 0.  0.
          5    1    3    3  502    0 -0.14023423212E+03 -0.41782652250E+03 -0.63905286054E+03  0.77630876030E+03  0.47000000000E+01 0. -1.
         -5    1    3    3    0  502 -0.48485564047E+02 -0.16614948681E+03 -0.16585721513E+03  0.23976490089E+03  0.47000000000E+01 0.  1.
         11    1    5    5    0    0  0.12181431200E+03  0.15260046593E+03 -0.58139093757E+01  0.19534438909E+03  0.00000000000E+00 0. -1.
        -11    1    5    5    0    0  0.26893821092E+03  0.17131728960E+03  0.34293878778E+02  0.32070772539E+03  0.00000000000E+00 0.  1.
          3    1    6    6  503    0 -0.33259953901E+02  0.87395369441E+02 -0.36851258684E+02  0.10050965327E+03  0.00000000000E+00 0. -1.
         -3    1    6    6    0  503 -0.16877277285E+03  0.17266288435E+03  0.10642953375E+02  0.24168159413E+03  0.00000000000E+00 0.  1.
<mgrwt>
<rscale>  0 0.73149223E+03</rscale>
<asrwt>0</asrwt>
<pdfrwt beam="1">  1        2 0.20591965E+00 0.73149223E+03</pdfrwt>
<pdfrwt beam="2">  1       -2 0.82436817E-01 0.73149223E+03</pdfrwt>
<totfact> 0.20755930E+01</totfact>
</mgrwt>
</event>
<event>
12    1  0.3203156E-008  0.4167943E+03  0.7818608E-02  0.1038115E+00
          2   -1    0    0  501    0  0.00000000000E+00  0.00000000000E+00  0.21278947370E+04  0.21278947370E+04  0.00000000000E+00 0. -1.
         -2   -1    0    0    0  501 -0.00000000000E+00 -0.00000000000E+00 -0.10360183675E+03  0.10360183675E+03  0.00000000000E+00 0.  1.
         23    2    1    2    0    0  0.17962667540E+03  0.19145167849E+03  0.48407383996E+03  0.55746048679E+03  0.86690392104E+02 0.  0.
    5000000    2    1    2    0    0 -0.17962667540E+03 -0.19145167849E+03  0.15402190603E+04  0.16740360870E+04  0.60100131371E+03 0.  0.
         23    2    4    4    0    0 -0.21638642811E+03 -0.32713004792E+03  0.13946937023E+04  0.14516936945E+04  0.91689175735E+02 0.  0.
         23    2    4    4    0    0  0.36759752705E+02  0.13567836944E+03  0.14552535797E+03  0.22234239243E+03  0.92187907597E+02 0.  0.
          5    1    3    3  502    0 -0.70299678559E+01  0.94749757784E+01  0.45504773859E+02  0.47243730357E+02  0.47000000000E+01 0. -1.
         -5    1    3    3    0  502  0.18665664326E+03  0.18197670271E+03  0.43856906610E+03  0.51021675643E+03  0.47000000000E+01 0.  1.
         11    1    5    5    0    0 -0.34464378665E+02 -0.93400113191E+02  0.48093572178E+03  0.49113189982E+03  0.00000000000E+00 0.  1.
        -11    1    5    5    0    0 -0.18192204944E+03 -0.23372993473E+03  0.91375798055E+03  0.96056179472E+03  0.00000000000E+00 0. -1.
          4    1    6    6  503    0  0.26839621761E+02 -0.15034439678E+01  0.84963719254E+01  0.28192445370E+02  0.00000000000E+00 0.  1.
         -4    1    6    6    0  503  0.99201309441E+01  0.13718181340E+03  0.13702898604E+03  0.19414994706E+03  0.00000000000E+00 0. -1.
<mgrwt>
<rscale>  0 0.41679427E+03</rscale>
<asrwt>0</asrwt>
<pdfrwt beam="1">  1        2 0.32736839E+00 0.41679427E+03</pdfrwt>
<pdfrwt beam="2">  1       -2 0.15938746E-01 0.41679427E+03</pdfrwt>
<totfact> 0.19179159E+02</totfact>
</mgrwt>
</event>
<event>
12    1  0.3203156E-008  0.2025782E+04  0.7818608E-02  0.8594661E-01
         -2   -1    0    0    0  501 -0.00000000000E+00  0.00000000000E+00  0.11224794100E+04  0.11224794100E+04  0.00000000000E+00 0.  1.
          2   -1    0    0  501    0  0.00000000000E+00 -0.00000000000E+00 -0.38202656170E+04  0.38202656170E+04  0.00000000000E+00 0. -1.
         23    2    1    2    0    0  0.37703898914E+03  0.19732984181E+04 -0.10089042423E+04  0.22504603591E+04  0.10304858817E+03 0.  0.
    5000000    2    1    2    0    0 -0.37703898914E+03 -0.19732984181E+04 -0.16888819647E+04  0.26922846679E+04  0.60000782997E+03 0.  0.
         23    2    4    4    0    0 -0.14851973227E+03 -0.19822481727E+03 -0.61066898860E+02  0.27096883179E+03  0.91344143810E+02 0.  0.
         23    2    4    4    0    0 -0.22851925687E+03 -0.17750736009E+04 -0.16278150658E+04  0.24213158361E+04  0.99403975989E+02 0.  0.
          5    1    3    3  502    0  0.19170429457E+03  0.74336724357E+03 -0.39644259743E+03  0.86402211686E+03  0.47000000000E+01 0. -1.
         -5    1    3    3    0  502  0.18533469457E+03  0.12299311746E+04 -0.61246164489E+03  0.13864382423E+04  0.47000000000E+01 0.  1.
         11    1    5    5    0    0 -0.13738603126E+03 -0.18594873941E+03 -0.26596505070E+02  0.23272135561E+03  0.00000000000E+00 0. -1.
        -11    1    5    5    0    0 -0.11133701006E+02 -0.12276077853E+02 -0.34470393790E+02  0.38247476173E+02  0.00000000000E+00 0.  1.
          2    1    6    6  503    0 -0.19132721980E+03 -0.11269300535E+04 -0.10200888261E+04  0.15320439497E+04  0.00000000000E+00 0. -1.
         -2    1    6    6    0  503 -0.37192037075E+02 -0.64814354741E+03 -0.60772623967E+03  0.88927188646E+03  0.00000000000E+00 0.  1.
<mgrwt>
<rscale>  0 0.20257818E+04</rscale>
<asrwt>0</asrwt>
<pdfrwt beam="1">  1        2 0.58773317E+00 0.20257818E+04</pdfrwt>
<pdfrwt beam="2">  1       -2 0.17268914E+00 0.20257818E+04</pdfrwt>
<totfact> 0.86754516E-02</totfact>
</mgrwt>
</event>
<event>
12    1  0.3753141E-008  0.9657722E+03  0.7818608E-02  0.9346903E-01
         -2   -1    0    0    0  501 -0.00000000000E+00  0.00000000000E+00  0.14034248391E+04  0.14034248391E+04  0.00000000000E+00 0. -1.
          2   -1    0    0  501    0  0.00000000000E+00 -0.00000000000E+00 -0.76996274153E+03  0.76996274153E+03  0.00000000000E+00 0.  1.
         23    2    1    2    0    0 -0.95034799699E+03 -0.26162383234E+02  0.31463663222E+03  0.10047910651E+04  0.82237998836E+02 0.  0.
    5000000    2    1    2    0    0  0.95034799699E+03  0.26162383234E+02  0.31882546533E+03  0.11685965155E+04  0.60010195226E+03 0.  0.
         23    2    4    4    0    0  0.23781850971E+03  0.56310559500E+02  0.36394689121E+03  0.44855325424E+03  0.94942928114E+02 0.  0.
         23    2    4    4    0    0  0.71252948728E+03 -0.30148176265E+02 -0.45121425872E+02  0.72004326130E+03  0.88426083788E+02 0.  0.
          5    1    3    3  502    0 -0.32473481797E+03  0.29760775727E+02  0.10881470720E+03  0.34380392126E+03  0.47000000000E+01 0. -1.
         -5    1    3    3    0  502 -0.62561317903E+03 -0.55923158961E+02  0.20582192502E+03  0.66098714382E+03  0.47000000000E+01 0.  1.
         11    1    5    5    0    0  0.15761519278E+03 -0.76991614009E+01  0.24545367016E+03  0.29180358167E+03  0.00000000000E+00 0. -1.
        -11    1    5    5    0    0  0.80203316932E+02  0.64009720901E+02  0.11849322104E+03  0.15674967257E+03  0.00000000000E+00 0.  1.
          3    1    6    6  503    0  0.31337338742E+03 -0.49440517482E+02  0.50100341007E+01  0.31728905616E+03  0.00000000000E+00 0. -1.
         -3    1    6    6    0  503  0.39915609985E+03  0.19292341216E+02 -0.50131459973E+02  0.40275420514E+03  0.00000000000E+00 0.  1.
<mgrwt>
<rscale>  0 0.96577220E+03</rscale>
<asrwt>0</asrwt>
<pdfrwt beam="1">  1        2 0.11845581E+00 0.96577220E+03</pdfrwt>
<pdfrwt beam="2">  1       -2 0.21591151E+00 0.96577220E+03</pdfrwt>
<totfact> 0.37937599E+00</totfact>
</mgrwt>
</event>
<event>
12    1  0.3203156E-008  0.7309365E+03  0.7818608E-02  0.9665742E-01
          1   -1    0    0  501    0  0.00000000000E+00  0.00000000000E+00  0.66529694131E+03  0.66529694131E+03  0.00000000000E+00 0. -1.
         -1   -1    0    0    0  501 -0.00000000000E+00 -0.00000000000E+00 -0.10695711633E+04  0.10695711633E+04  0.00000000000E+00 0.  1.
         23    2    1    2    0    0  0.64526508479E+03 -0.14859292469E+03 -0.50175609191E+03  0.83593834384E+03  0.92665268608E+02 0.  0.
    5000000    2    1    2    0    0 -0.64526508479E+03  0.14859292469E+03  0.97481869922E+02  0.89892976076E+03  0.60010425169E+03 0.  0.
         23    2    4    4    0    0 -0.22258914450E+03 -0.14783199832E+03  0.22235229763E+03  0.35892002376E+03  0.89346584789E+02 0.  0.
         23    2    4    4    0    0 -0.42267594030E+03  0.29642492302E+03 -0.12487042771E+03  0.54000973701E+03  0.97443352031E+02 0.  0.
          5    1    3    3  502    0  0.44549756233E+03 -0.95268356898E+02 -0.29066740762E+03  0.54041999382E+03  0.47000000000E+01 0. -1.
         -5    1    3    3    0  502  0.19976752247E+03 -0.53324567797E+02 -0.21108868429E+03  0.29551835002E+03  0.47000000000E+01 0.  1.
         13    1    5    5    0    0 -0.72148860641E+02 -0.88101981383E+02  0.56309673764E+02  0.12703620183E+03  0.00000000000E+00 0.  1.
        -13    1    5    5    0    0 -0.15044028386E+03 -0.59730016939E+02  0.16604262387E+03  0.23188382193E+03  0.00000000000E+00 0. -1.
          3    1    6    6  503    0 -0.16663361897E+03  0.65882756187E+02 -0.63139417505E+02  0.18998391136E+03  0.00000000000E+00 0. -1.
         -3    1    6    6    0  503 -0.25604232132E+03  0.23054216683E+03 -0.61731010206E+02  0.35002582564E+03  0.00000000000E+00 0.  1.
<mgrwt>
<rscale>  0 0.73093645E+03</rscale>
<asrwt>0</asrwt>
<pdfrwt beam="1">  1        1 0.10235338E+00 0.73093645E+03</pdfrwt>
<pdfrwt beam="2">  1       -1 0.16454941E+00 0.73093645E+03</pdfrwt>
<totfact> 0.82206067E+00</totfact>
</mgrwt>
</event>
<event>
12    1  0.3203156E-008  0.7464557E+03  0.7818608E-02  0.9640927E-01
         -2   -1    0    0    0  501 -0.00000000000E+00  0.00000000000E+00  0.45139202454E+03  0.45139202454E+03  0.00000000000E+00 0.  1.
          2   -1    0    0  501    0  0.00000000000E+00 -0.00000000000E+00 -0.23482617174E+04  0.23482617174E+04  0.00000000000E+00 0. -1.
         23    2    1    2    0    0  0.41525440949E+03  0.48734237839E+03 -0.18052791966E+04  0.19175055755E+04  0.88633155175E+02 0.  0.
    5000000    2    1    2    0    0 -0.41525440949E+03 -0.48734237839E+03 -0.91590496347E+02  0.88214816649E+03  0.59988144682E+03 0.  0.
         23    2    4    4    0    0  0.41776007868E+02 -0.35349438925E+03 -0.14446803050E+03  0.39449041709E+03  0.89711533700E+02 0.  0.
         23    2    4    4    0    0 -0.45703041735E+03 -0.13384798914E+03  0.52877534153E+02  0.48765774939E+03  0.90675025994E+02 0.  0.
          5    1    3    3  502    0  0.10894105791E+03  0.15071802273E+03 -0.41960307416E+03  0.45899118327E+03  0.47000000000E+01 0. -1.
         -5    1    3    3    0  502  0.30631335158E+03  0.33662435567E+03 -0.13856761224E+04  0.14585143922E+04  0.47000000000E+01 0.  1.
         13    1    5    5    0    0  0.67985266165E+02 -0.19757826264E+03 -0.79580452800E+02  0.22358938873E+03  0.00000000000E+00 0. -1.
        -13    1    5    5    0    0 -0.26209258297E+02 -0.15591612661E+03 -0.64887577699E+02  0.17090102837E+03  0.00000000000E+00 0.  1.
          3    1    6    6  503    0 -0.27304063487E+03 -0.33460511849E+02  0.35029224541E+02  0.27730459916E+03  0.00000000000E+00 0. -1.
         -3    1    6    6    0  503 -0.18398978248E+03 -0.10038747730E+03  0.17848309612E+02  0.21035315023E+03  0.00000000000E+00 0.  1.
<mgrwt>
<rscale>  0 0.74645569E+03</rscale>
<asrwt>0</asrwt>
<pdfrwt beam="1">  1        2 0.36127103E+00 0.74645569E+03</pdfrwt>
<pdfrwt beam="2">  1       -2 0.69444928E-01 0.74645569E+03</pdfrwt>
<totfact> 0.84146915E+00</totfact>
</mgrwt>
</event>
<event>
12    1  0.3203156E-008  0.6447060E+03  0.7818608E-02  0.9816764E-01
         -4   -1    0    0    0  501 -0.00000000000E+00  0.00000000000E+00  0.78253725270E+03  0.78253725270E+03  0.00000000000E+00 0. -1.
          4   -1    0    0  501    0  0.00000000000E+00 -0.00000000000E+00 -0.78730236981E+03  0.78730236981E+03  0.00000000000E+00 0.  1.
         23    2    1    2    0    0 -0.52616541699E+02  0.59847174602E+03 -0.29095734900E+03  0.67378990413E+03  0.91650012165E+02 0.  0.
    5000000    2    1    2    0    0  0.52616541699E+02 -0.59847174602E+03  0.28619223189E+03  0.89604971837E+03  0.60005180856E+03 0.  0.
         23    2    4    4    0    0  0.15266097744E+03 -0.51486054998E+03 -0.25425858162E+02  0.54573298061E+03  0.93761676115E+02 0.  0.
         23    2    4    4    0    0 -0.10004443575E+03 -0.83611196041E+02  0.31161809005E+03  0.35031673776E+03  0.92823819572E+02 0.  0.
          5    1    3    3  502    0 -0.62207394839E+02  0.35028163175E+03 -0.13540883187E+03  0.38068966793E+03  0.47000000000E+01 0. -1.
         -5    1    3    3    0  502  0.95908531393E+01  0.24819011427E+03 -0.15554851713E+03  0.29310023621E+03  0.47000000000E+01 0.  1.
         11    1    5    5    0    0  0.32167155287E+02 -0.94482202984E+02 -0.41593886114E+02  0.10812799786E+03  0.00000000000E+00 0.  1.
        -11    1    5    5    0    0  0.12049382216E+03 -0.42037834699E+03  0.16168027952E+02  0.43760498275E+03  0.00000000000E+00 0. -1.
          4    1    6    6  503    0 -0.93275746487E+02 -0.96072214867E+02  0.21954490415E+03  0.25715792870E+03  0.00000000000E+00 0. -1.
         -4    1    6    6    0  503 -0.67686892585E+01  0.12461018826E+02  0.92073185898E+02  0.93158809062E+02  0.00000000000E+00 0.  1.
<mgrwt>
<rscale>  0 0.64470600E+03</rscale>
<asrwt>0</asrwt>
<pdfrwt beam="1">  1        4 0.12112344E+00 0.64470600E+03</pdfrwt>
<pdfrwt beam="2">  1       -4 0.12039035E+00 0.64470600E+03</pdfrwt>
<totfact> 0.53084952E-01</totfact>
</mgrwt>
</event>
<event>
12    1  0.3203156E-008  0.6347820E+03  0.7818608E-02  0.9835761E-01
          1   -1    0    0  501    0  0.00000000000E+00  0.00000000000E+00  0.23568358750E+04  0.23568358750E+04  0.00000000000E+00 0. -1.
         -1   -1    0    0    0  501 -0.00000000000E+00 -0.00000000000E+00 -0.17816917512E+03  0.17816917512E+03  0.00000000000E+00 0.  1.
         23    2    1    2    0    0 -0.32917062608E+03  0.36986690599E+03  0.10455738974E+04  0.11607153077E+04  0.94235987306E+02 0.  0.
    5000000    2    1    2    0    0  0.32917062608E+03 -0.36986690599E+03  0.11330928024E+04  0.13742897424E+04  0.59968172221E+03 0.  0.
         23    2    4    4    0    0 -0.82993110372E+02 -0.32285030258E+03  0.59943917287E+03  0.69187430017E+03  0.90788496016E+02 0.  0.
         23    2    4    4    0    0  0.41216373645E+03 -0.47016603408E+02  0.53365362957E+03  0.68241544226E+03  0.93888938812E+02 0.  0.
          5    1    3    3  502    0 -0.21021591965E+03  0.18784308703E+03  0.51171593518E+03  0.58425255373E+03  0.47000000000E+01 0. -1.
         -5    1    3    3    0  502 -0.11895470643E+03  0.18202381895E+03  0.53385796226E+03  0.57646275397E+03  0.47000000000E+01 0.  1.
         13    1    5    5    0    0 -0.93158969438E+02 -0.18502893613E+03  0.35002376785E+03  0.40673202339E+03  0.00000000000E+00 0.  1.
        -13    1    5    5    0    0  0.10165859066E+02 -0.13782136645E+03  0.24941540503E+03  0.28514227678E+03  0.00000000000E+00 0. -1.
          4    1    6    6  503    0  0.39080376655E+03 -0.21376156580E+02  0.50065085195E+03  0.63548076256E+03  0.00000000000E+00 0.  1.
         -4    1    6    6    0  503  0.21359969903E+02 -0.25640446828E+02  0.33002777616E+02  0.46934679696E+02  0.00000000000E+00 0. -1.
<mgrwt>
<rscale>  0 0.63478198E+03</rscale>
<asrwt>0</asrwt>
<pdfrwt beam="1">  1        1 0.36259011E+00 0.63478198E+03</pdfrwt>
<pdfrwt beam="2">  1       -1 0.27410644E-01 0.63478198E+03</pdfrwt>
<totfact> 0.21626879E+01</totfact>
</mgrwt>
</event>
<event>
12    1  0.3203156E-008  0.8766911E+03  0.7818608E-02  0.9455197E-01
         -1   -1    0    0    0  501 -0.00000000000E+00  0.00000000000E+00  0.15046339263E+04  0.15046339263E+04  0.00000000000E+00 0.  1.
          1   -1    0    0  501    0  0.00000000000E+00 -0.00000000000E+00 -0.56547538725E+03  0.56547538725E+03  0.00000000000E+00 0. -1.
         23    2    1    2    0    0 -0.72132992080E+03  0.33480231340E+03  0.65453545470E+03  0.10340444183E+04  0.91770114361E+02 0.  0.
    5000000    2    1    2    0    0  0.72132992080E+03 -0.33480231340E+03  0.28462308432E+03  0.10360648952E+04  0.60000893598E+03 0.  0.
         23    2    4    4    0    0 -0.55255238505E+02  0.38515437022E+02 -0.23785085923E+02  0.11628730347E+03  0.91762881190E+02 0.  0.
         23    2    4    4    0    0  0.77658515930E+03 -0.37331775042E+03  0.30840817025E+03  0.91977759174E+03  0.91785436561E+02 0.  0.
          5    1    3    3  502    0 -0.47329433702E+03  0.25175132201E+03  0.39849338335E+03  0.66798602093E+03  0.47000000000E+01 0. -1.
         -5    1    3    3    0  502 -0.24803558378E+03  0.83050991384E+02  0.25604207135E+03  0.36605839738E+03  0.47000000000E+01 0.  1.
         11    1    5    5    0    0 -0.35402871487E+02  0.56857517675E+02  0.15360171433E+02  0.68717359467E+02  0.00000000000E+00 0.  1.
        -11    1    5    5    0    0 -0.19852367018E+02 -0.18342080653E+02 -0.39145257355E+02  0.47569944002E+02  0.00000000000E+00 0. -1.
          4    1    6    6  503    0  0.62013655011E+03 -0.29736819562E+03  0.28434809710E+03  0.74421168015E+03  0.00000000000E+00 0. -1.
         -4    1    6    6    0  503  0.15644860919E+03 -0.75949554802E+02  0.24060073149E+02  0.17556591159E+03  0.00000000000E+00 0.  1.
<mgrwt>
<rscale>  0 0.87669109E+03</rscale>
<asrwt>0</asrwt>
<pdfrwt beam="1">  1        1 0.86996214E-01 0.87669109E+03</pdfrwt>
<pdfrwt beam="2">  1       -1 0.23148214E+00 0.87669109E+03</pdfrwt>
<totfact> 0.35163525E+00</totfact>
</mgrwt>
</event>
<event>
12    1  0.3203156E-008  0.6700860E+03  0.7818608E-02  0.9769802E-01
         -2   -1    0    0    0  501 -0.00000000000E+00  0.00000000000E+00  0.59208041084E+03  0.59208041084E+03  0.00000000000E+00 0.  1.
          2   -1    0    0  501    0  0.00000000000E+00 -0.00000000000E+00 -0.91344336821E+03  0.91344336821E+03  0.00000000000E+00 0. -1.
         23    2    1    2    0    0  0.60737695258E+03  0.40487050503E+02 -0.99213138007E+02  0.62240772365E+03  0.83678933520E+02 0.  0.
    5000000    2    1    2    0    0 -0.60737695258E+03 -0.40487050503E+02 -0.22214981937E+03  0.88311605541E+03  0.59999788440E+03 0.  0.
         23    2    4    4    0    0  0.27193150496E+02 -0.15668454393E+02  0.12417329189E+03  0.15375394538E+03  0.85066452871E+02 0.  0.
         23    2    4    4    0    0 -0.63457010308E+03 -0.24818596110E+02 -0.34632311126E+03  0.72936211003E+03  0.93457004615E+02 0.  0.
          5    1    3    3  502    0  0.26703812605E+03  0.67219707419E+01 -0.83879907387E+02  0.28002227504E+03  0.47000000000E+01 0. -1.
         -5    1    3    3    0  502  0.34033882654E+03  0.33765079761E+02 -0.15333230620E+02  0.34238544861E+03  0.47000000000E+01 0.  1.
         11    1    5    5    0    0 -0.28231631648E+02 -0.20240119280E+02  0.54130334277E+02  0.64317808910E+02  0.00000000000E+00 0. -1.
        -11    1    5    5    0    0  0.55424782144E+02  0.45716648873E+01  0.70042957615E+02  0.89436136472E+02  0.00000000000E+00 0.  1.
          1    1    6    6  503    0 -0.25109546534E+02 -0.18385751305E+02 -0.27429252096E+02  0.41483599756E+02  0.00000000000E+00 0. -1.
         -1    1    6    6    0  503 -0.60946055655E+03 -0.64328448052E+01 -0.31889385916E+03  0.68787851027E+03  0.00000000000E+00 0.  1.
<mgrwt>
<rscale>  0 0.67008603E+03</rscale>
<asrwt>0</asrwt>
<pdfrwt beam="1">  1        2 0.14052975E+00 0.67008603E+03</pdfrwt>
<pdfrwt beam="2">  1       -2 0.91089294E-01 0.67008603E+03</pdfrwt>
<totfact> 0.30200407E+01</totfact>
</mgrwt>
</event>
<event>
12    1  0.3203156E-008  0.9051309E+03  0.7818608E-02  0.9419190E-01
         -2   -1    0    0    0  501 -0.00000000000E+00  0.00000000000E+00  0.63173521950E+03  0.63173521950E+03  0.00000000000E+00 0.  1.
          2   -1    0    0  501    0  0.00000000000E+00 -0.00000000000E+00 -0.15045206104E+04  0.15045206104E+04  0.00000000000E+00 0. -1.
         23    2    1    2    0    0 -0.86550605039E+03  0.11023376008E+03 -0.52099589462E+03  0.10203140495E+04  0.91388359367E+02 0.  0.
    5000000    2    1    2    0    0  0.86550605039E+03 -0.11023376008E+03 -0.35178949626E+03  0.11159417804E+04  0.60026494353E+03 0.  0.
         23    2    4    4    0    0  0.49974069832E+03  0.97039080909E+02 -0.43775637313E+03  0.67699582994E+03  0.86806467325E+02 0.  0.
         23    2    4    4    0    0  0.36576535208E+03 -0.20727284099E+03  0.85966876870E+02  0.43894595046E+03  0.92395455038E+02 0.  0.
          5    1    3    3  502    0 -0.17659181945E+03 -0.13767408074E+02 -0.99738431585E+02  0.20333238050E+03  0.47000000000E+01 0. -1.
         -5    1    3    3    0  502 -0.68891423094E+03  0.12400116815E+03 -0.42125746303E+03  0.81698166898E+03  0.47000000000E+01 0.  1.
         11    1    5    5    0    0  0.57309078781E+02  0.31415432966E+02 -0.85773924871E+02  0.10783518038E+03  0.00000000000E+00 0. -1.
        -11    1    5    5    0    0  0.44243161954E+03  0.65623647943E+02 -0.35198244826E+03  0.56916064957E+03  0.00000000000E+00 0.  1.
          1    1    6    6  503    0  0.95891886160E+02 -0.51725783511E+02  0.64731824354E+02  0.12673207800E+03  0.00000000000E+00 0. -1.
         -1    1    6    6    0  503  0.26987346592E+03 -0.15554705748E+03  0.21235052516E+02  0.31221387245E+03  0.00000000000E+00 0.  1.
<mgrwt>
<rscale>  0 0.90513092E+03</rscale>
<asrwt>0</asrwt>
<pdfrwt beam="1">  1        2 0.23146471E+00 0.90513092E+03</pdfrwt>
<pdfrwt beam="2">  1       -2 0.97190033E-01 0.90513092E+03</pdfrwt>
<totfact> 0.11211712E+01</totfact>
</mgrwt>
</event>
<event>
12    1  0.3203156E-008  0.1032758E+04  0.7818608E-02  0.9273328E-01
          1   -1    0    0  501    0  0.00000000000E+00  0.00000000000E+00  0.15461491425E+04  0.15461491425E+04  0.00000000000E+00 0. -1.
         -1   -1    0    0    0  501 -0.00000000000E+00 -0.00000000000E+00 -0.81923893209E+03  0.81923893209E+03  0.00000000000E+00 0.  1.
         23    2    1    2    0    0  0.43796575457E+03  0.89910749283E+03  0.65077731839E+03  0.11967515697E+04  0.92167866271E+02 0.  0.
    5000000    2    1    2    0    0 -0.43796575457E+03 -0.89910749283E+03  0.76132892018E+02  0.11686365049E+04  0.59975559812E+03 0.  0.
         23    2    4    4    0    0 -0.45799512960E+03 -0.64067161140E+03 -0.15916952608E+03  0.80916207155E+03  0.95857538084E+02 0.  0.
         23    2    4    4    0    0  0.20029375022E+02 -0.25843588143E+03  0.23530241810E+03  0.35947443335E+03  0.81635528978E+02 0.  0.
          5    1    3    3  502    0  0.26361173126E+03  0.47768390314E+03  0.39747214486E+03  0.67504018556E+03  0.47000000000E+01 0. -1.
         -5    1    3    3    0  502  0.17435402332E+03  0.42142358969E+03  0.25330517353E+03  0.52171138413E+03  0.47000000000E+01 0.  1.
         13    1    5    5    0    0 -0.31105585999E+03 -0.49865262344E+03 -0.13811216465E+03  0.60372606116E+03  0.00000000000E+00 0.  1.
        -13    1    5    5    0    0 -0.14693926960E+03 -0.14201898796E+03 -0.21057361434E+02  0.20543601038E+03  0.00000000000E+00 0. -1.
          2    1    6    6  503    0  0.40409479198E+02 -0.60476062055E+02  0.64999548671E+02  0.97545996423E+02  0.00000000000E+00 0. -1.
         -2    1    6    6    0  503 -0.20380104175E+02 -0.19795981938E+03  0.17030286943E+03  0.26192843693E+03  0.00000000000E+00 0.  1.
<mgrwt>
<rscale>  0 0.10327581E+04</rscale>
<asrwt>0</asrwt>
<pdfrwt beam="1">  1        1 0.23786910E+00 0.10327581E+04</pdfrwt>
<pdfrwt beam="2">  1       -1 0.12603676E+00 0.10327581E+04</pdfrwt>
<totfact> 0.33372340E+00</totfact>
</mgrwt>
</event>
<event>
12    1  0.3203156E-008  0.9446216E+03  0.7818608E-02  0.9371459E-01
          1   -1    0    0  501    0  0.00000000000E+00  0.00000000000E+00  0.10042400452E+04  0.10042400452E+04  0.00000000000E+00 0. -1.
         -1   -1    0    0    0  501 -0.00000000000E+00 -0.00000000000E+00 -0.15078233585E+04  0.15078233585E+04  0.00000000000E+00 0.  1.
         23    2    1    2    0    0  0.23145414257E+03 -0.82815513264E+03 -0.10250017232E+04  0.13410141876E+04  0.90986674004E+02 0.  0.
    5000000    2    1    2    0    0 -0.23145414257E+03  0.82815513264E+03  0.52141840996E+03  0.11710492162E+04  0.60005596787E+03 0.  0.
         23    2    4    4    0    0  0.13396250415E+03  0.54383191754E+03  0.36051570821E+03  0.67240169981E+03  0.91942172008E+02 0.  0.
         23    2    4    4    0    0 -0.36541664672E+03  0.28432321510E+03  0.16090270175E+03  0.49864751634E+03  0.91600490038E+02 0.  0.
          5    1    3    3  502    0  0.11020156379E+03 -0.42750830729E+03 -0.45722703018E+03  0.63559923269E+03  0.47000000000E+01 0. -1.
         -5    1    3    3    0  502  0.12125257878E+03 -0.40064682535E+03 -0.56777469307E+03  0.70541495491E+03  0.47000000000E+01 0.  1.
         11    1    5    5    0    0  0.32542749295E+02  0.73076296640E+02  0.88633804929E+02  0.11939483673E+03  0.00000000000E+00 0. -1.
        -11    1    5    5    0    0  0.10141975485E+03  0.47075562090E+03  0.27188190328E+03  0.55300686308E+03  0.00000000000E+00 0.  1.
          3    1    6    6  503    0 -0.16193805460E+03  0.85712360147E+02  0.96591972849E+02  0.20712448293E+03  0.00000000000E+00 0. -1.
         -3    1    6    6    0  503 -0.20347859212E+03  0.19861085496E+03  0.64310728900E+02  0.29152303341E+03  0.00000000000E+00 0.  1.
<mgrwt>
<rscale>  0 0.94462155E+03</rscale>
<asrwt>0</asrwt>
<pdfrwt beam="1">  1        1 0.15449847E+00 0.94462155E+03</pdfrwt>
<pdfrwt beam="2">  1       -1 0.23197282E+00 0.94462155E+03</pdfrwt>
<totfact> 0.13954298E+00</totfact>
</mgrwt>
</event>
<event>
12    1  0.3203156E-008  0.1472488E+04  0.7818608E-02  0.8902957E-01
         -2   -1    0    0    0  501 -0.00000000000E+00  0.00000000000E+00  0.89119672758E+03  0.89119672758E+03  0.00000000000E+00 0.  1.
          2   -1    0    0  501    0  0.00000000000E+00 -0.00000000000E+00 -0.25813513430E+04  0.25813513430E+04  0.00000000000E+00 0. -1.
         23    2    1    2    0    0  0.70665461377E+03  0.12557251202E+04 -0.10520402328E+04  0.17863605553E+04  0.89939210168E+02 0.  0.
    5000000    2    1    2    0    0 -0.70665461377E+03 -0.12557251202E+04 -0.63811438261E+03  0.16861875153E+04  0.59986002595E+03 0.  0.
         23    2    4    4    0    0 -0.22659497450E+03 -0.80269474155E+03 -0.57454599786E+03  0.10168444727E+04  0.90583925159E+02 0.  0.
         23    2    4    4    0    0 -0.48005963927E+03 -0.45303037861E+03 -0.63568384750E+02  0.66934304252E+03  0.91024105729E+02 0.  0.
          5    1    3    3  502    0  0.37275511484E+03  0.74173863756E+03 -0.63107452589E+03  0.10427846035E+04  0.47000000000E+01 0. -1.
         -5    1    3    3    0  502  0.33389949893E+03  0.51398648260E+03 -0.42096570690E+03  0.74357595178E+03  0.47000000000E+01 0.  1.
         13    1    5    5    0    0 -0.13246757249E+03 -0.56102083474E+03 -0.35459592545E+03  0.67677936222E+03  0.00000000000E+00 0.  1.
        -13    1    5    5    0    0 -0.94127402005E+02 -0.24167390681E+03 -0.21995007241E+03  0.34006511052E+03  0.00000000000E+00 0. -1.
          3    1    6    6  503    0 -0.33897667452E+02 -0.58527455830E+01  0.60722577131E+00  0.34404581275E+02  0.00000000000E+00 0. -1.
         -3    1    6    6    0  503 -0.44616197182E+03 -0.44717763303E+03 -0.64175610521E+02  0.63493846124E+03  0.00000000000E+00 0.  1.
<mgrwt>
<rscale>  0 0.14724884E+04</rscale>
<asrwt>0</asrwt>
<pdfrwt beam="1">  1        2 0.39713097E+00 0.14724884E+04</pdfrwt>
<pdfrwt beam="2">  1       -2 0.13710719E+00 0.14724884E+04</pdfrwt>
<totfact> 0.11238506E+00</totfact>
</mgrwt>
</event>
<event>
12    1  0.3203156E-008  0.5429082E+03  0.7818608E-02  0.1003149E+00
         -1   -1    0    0    0  501 -0.00000000000E+00  0.00000000000E+00  0.36820904097E+03  0.36820904097E+03  0.00000000000E+00 0.  1.
          1   -1    0    0  501    0  0.00000000000E+00 -0.00000000000E+00 -0.10123846316E+04  0.10123846316E+04  0.00000000000E+00 0. -1.
         23    2    1    2    0    0  0.42278698562E+02  0.38836700464E+03  0.23097781923E+02  0.40190030978E+03  0.91509195312E+02 0.  0.
    5000000    2    1    2    0    0 -0.42278698562E+02 -0.38836700464E+03 -0.66727337256E+03  0.97869336280E+03  0.59997543784E+03 0.  0.
         23    2    4    4    0    0 -0.26596697486E+03 -0.33353624029E+02 -0.22256948945E+03  0.36052441040E+03  0.92681049361E+02 0.  0.
         23    2    4    4    0    0  0.22368827630E+03 -0.35501338061E+03 -0.44470388312E+03  0.61816895240E+03  0.91106337235E+02 0.  0.
          5    1    3    3  502    0  0.82619187441E+01  0.30825874805E+03 -0.10261972170E+02  0.30857594385E+03  0.47000000000E+01 0. -1.
         -5    1    3    3    0  502  0.34016779818E+02  0.80108256594E+02  0.33359754093E+02  0.93324365933E+02  0.47000000000E+01 0.  1.
         13    1    5    5    0    0 -0.97812358839E+02 -0.25270166693E+02 -0.31391921382E+02  0.10578890109E+03  0.00000000000E+00 0.  1.
        -13    1    5    5    0    0 -0.16815461602E+03 -0.80834573357E+01 -0.19117756807E+03  0.25473550931E+03  0.00000000000E+00 0. -1.
          1    1    6    6  503    0  0.85758098950E+02 -0.16658819973E+03 -0.25978550667E+03  0.32030390147E+03  0.00000000000E+00 0. -1.
         -1    1    6    6    0  503  0.13793017735E+03 -0.18842518089E+03 -0.18491837645E+03  0.29786505093E+03  0.00000000000E+00 0.  1.
<mgrwt>
<rscale>  0 0.54290822E+03</rscale>
<asrwt>0</asrwt>
<pdfrwt beam="1">  1        1 0.15575148E+00 0.54290822E+03</pdfrwt>
<pdfrwt beam="2">  1       -1 0.56647545E-01 0.54290822E+03</pdfrwt>
<totfact> 0.48986445E+01</totfact>
</mgrwt>
</event>
<event>
12    1  0.3203156E-008  0.1152139E+04  0.7818608E-02  0.9155812E-01
          2   -1    0    0  501    0  0.00000000000E+00  0.00000000000E+00  0.24627710912E+04  0.24627710912E+04  0.00000000000E+00 0. -1.
         -2   -1    0    0    0  501 -0.00000000000E+00 -0.00000000000E+00 -0.92260434302E+03  0.92260434302E+03  0.00000000000E+00 0.  1.
         23    2    1    2    0    0 -0.62882210855E+03 -0.94024201313E+03 -0.27179220575E+03  0.11666338064E+04  0.87699188571E+02 0.  0.
    5000000    2    1    2    0    0  0.62882210855E+03  0.94024201313E+03  0.18119589540E+04  0.22187416279E+04  0.60012238154E+03 0.  0.
         23    2    4    4    0    0  0.38820421513E+03  0.35356114813E+03  0.12789673703E+04  0.13852930734E+04  0.87013601950E+02 0.  0.
         23    2    4    4    0    0  0.24061789342E+03  0.58668086501E+03  0.53299158371E+03  0.83344855445E+03  0.92005742225E+02 0.  0.
          5    1    3    3  502    0 -0.18334296894E+03 -0.20788676450E+03 -0.60040914110E+02  0.28365216812E+03  0.47000000000E+01 0. -1.
         -5    1    3    3    0  502 -0.44547913961E+03 -0.73235524864E+03 -0.21175129164E+03  0.88298163828E+03  0.47000000000E+01 0.  1.
         13    1    5    5    0    0  0.24611231073E+03  0.18041842701E+03  0.81019457087E+03  0.86575823470E+03  0.00000000000E+00 0.  1.
        -13    1    5    5    0    0  0.14209190440E+03  0.17314272112E+03  0.46877279940E+03  0.51953483871E+03  0.00000000000E+00 0. -1.
          4    1    6    6  503    0  0.55345484768E+02  0.25345820139E+03  0.21066358393E+03  0.33419055662E+03  0.00000000000E+00 0. -1.
         -4    1    6    6    0  503  0.18527240865E+03  0.33322266361E+03  0.32232799978E+03  0.49925799783E+03  0.00000000000E+00 0.  1.
<mgrwt>
<rscale>  0 0.11521391E+04</rscale>
<asrwt>0</asrwt>
<pdfrwt beam="1">  1        2 0.37888786E+00 0.11521391E+04</pdfrwt>
<pdfrwt beam="2">  1       -2 0.14193913E+00 0.11521391E+04</pdfrwt>
<totfact> 0.12473807E+00</totfact>
</mgrwt>
</event>
<event>
12    1  0.3203156E-008  0.3748762E+03  0.7818608E-02  0.1052844E+00
          1   -1    0    0  501    0  0.00000000000E+00  0.00000000000E+00  0.12118642971E+04  0.12118642971E+04  0.00000000000E+00 0. -1.
         -1   -1    0    0    0  501 -0.00000000000E+00 -0.00000000000E+00 -0.17935518776E+03  0.17935518776E+03  0.00000000000E+00 0.  1.
         23    2    1    2    0    0  0.16287149196E+03 -0.11125554067E+03  0.48751231956E+02  0.22212366156E+03  0.89762576737E+02 0.  0.
    5000000    2    1    2    0    0 -0.16287149196E+03  0.11125554067E+03  0.98375787736E+03  0.11690958233E+04  0.60008379790E+03 0.  0.
         23    2    4    4    0    0 -0.27656334636E+03 -0.10720023741E+03  0.27943725446E+03  0.41715082465E+03  0.89165328869E+02 0.  0.
         23    2    4    4    0    0  0.11369185440E+03  0.21845577808E+03  0.70432062290E+03  0.75194499863E+03  0.93300462914E+02 0.  0.
          5    1    3    3  502    0  0.89576253790E+02 -0.85865348219E+02 -0.10188399894E+02  0.12458995449E+03  0.47000000000E+01 0. -1.
         -5    1    3    3    0  502  0.73295238173E+02 -0.25390192456E+02  0.58939631851E+02  0.97533707069E+02  0.47000000000E+01 0.  1.
         13    1    5    5    0    0 -0.10121807153E+03 -0.11593270687E+02  0.51701252628E+02  0.11424763216E+03  0.00000000000E+00 0.  1.
        -13    1    5    5    0    0 -0.17534527483E+03 -0.95606966723E+02  0.22773600183E+03  0.30290319249E+03  0.00000000000E+00 0. -1.
          4    1    6    6  503    0  0.40153271248E+02  0.78440574991E+02  0.39297745183E+03  0.40273624948E+03  0.00000000000E+00 0. -1.
         -4    1    6    6    0  503  0.73538583151E+02  0.14001520309E+03  0.31134317107E+03  0.34920874915E+03  0.00000000000E+00 0.  1.
<mgrwt>
<rscale>  0 0.37487621E+03</rscale>
<asrwt>0</asrwt>
<pdfrwt beam="1">  1        1 0.18644066E+00 0.37487621E+03</pdfrwt>
<pdfrwt beam="2">  1       -1 0.27593106E-01 0.37487621E+03</pdfrwt>
<totfact> 0.13127707E+02</totfact>
</mgrwt>
</event>
<event>
12    1  0.3203156E-008  0.6062857E+03  0.7818608E-02  0.9892450E-01
          2   -1    0    0  501    0  0.00000000000E+00  0.00000000000E+00  0.28599474591E+03  0.28599474591E+03  0.00000000000E+00 0. -1.
         -2   -1    0    0    0  501 -0.00000000000E+00 -0.00000000000E+00 -0.14007836945E+04  0.14007836945E+04  0.00000000000E+00 0.  1.
         23    2    1    2    0    0 -0.29775936211E+03  0.38217792982E+03 -0.47399781380E+03  0.68407949069E+03  0.92575452090E+02 0.  0.
    5000000    2    1    2    0    0  0.29775936211E+03 -0.38217792982E+03 -0.64079113477E+03  0.10026989497E+04  0.60005941171E+03 0.  0.
         23    2    4    4    0    0  0.41932097406E+03 -0.38723959086E+03 -0.34929248883E+03  0.67459137409E+03  0.85344591090E+02 0.  0.
         23    2    4    4    0    0 -0.12156161195E+03  0.50616610398E+01 -0.29149864594E+03  0.32810757562E+03  0.88770911233E+02 0.  0.
          5    1    3    3  502    0 -0.20809209955E+03  0.23092140635E+03 -0.24793538654E+03  0.39764439353E+03  0.47000000000E+01 0. -1.
         -5    1    3    3    0  502 -0.89667262565E+02  0.15125652347E+03 -0.22606242726E+03  0.28643509716E+03  0.47000000000E+01 0.  1.
         13    1    5    5    0    0  0.34676749747E+03 -0.35522492212E+03 -0.31678326376E+03  0.58888375661E+03  0.00000000000E+00 0. -1.
        -13    1    5    5    0    0  0.72553476592E+02 -0.32014668737E+02 -0.32509225065E+02  0.85707617481E+02  0.00000000000E+00 0.  1.
          4    1    6    6  503    0 -0.10729609130E+03 -0.30667316978E+02 -0.20406672560E+03  0.23258582080E+03  0.00000000000E+00 0. -1.
         -4    1    6    6    0  503 -0.14265520648E+02  0.35728978018E+02 -0.87431920346E+02  0.95521754825E+02  0.00000000000E+00 0.  1.
<mgrwt>
<rscale>  0 0.60628566E+03</rscale>
<asrwt>0</asrwt>
<pdfrwt beam="1">  1        2 0.43999192E-01 0.60628566E+03</pdfrwt>
<pdfrwt beam="2">  1       -2 0.21550518E+00 0.60628566E+03</pdfrwt>
<totfact> 0.12660307E+01</totfact>
</mgrwt>
</event>
<event>
12    1  0.3203156E-008  0.1802293E+04  0.7818608E-02  0.8705081E-01
          2   -1    0    0  501    0  0.00000000000E+00  0.00000000000E+00  0.31819330524E+04  0.31819330524E+04  0.00000000000E+00 0. -1.
         -2   -1    0    0    0  501 -0.00000000000E+00 -0.00000000000E+00 -0.10756392090E+04  0.10756392090E+04  0.00000000000E+00 0.  1.
         23    2    1    2    0    0 -0.13716792206E+04 -0.11087841476E+04  0.14408341428E+04  0.22792398015E+04  0.89581669758E+02 0.  0.
    5000000    2    1    2    0    0  0.13716792206E+04  0.11087841476E+04  0.66545970053E+03  0.19783324599E+04  0.60004711379E+03 0.  0.
         23    2    4    4    0    0  0.21272920097E+02  0.16934900286E+03  0.17015561593E+03  0.25832852672E+03  0.93000388114E+02 0.  0.
         23    2    4    4    0    0  0.13504063005E+04  0.93943514470E+03  0.49530408461E+03  0.17200039332E+04  0.83377613215E+02 0.  0.
          5    1    3    3  502    0 -0.10186412775E+04 -0.86344393775E+03  0.11180712566E+04  0.17416288097E+04  0.47000000000E+01 0. -1.
         -5    1    3    3    0  502 -0.35303794308E+03 -0.24534020980E+03  0.32276288622E+03  0.53761099181E+03  0.47000000000E+01 0.  1.
         11    1    5    5    0    0 -0.30740756757E+02  0.24679917784E+02  0.47018204573E+02  0.61357998901E+02  0.00000000000E+00 0. -1.
        -11    1    5    5    0    0  0.52013676854E+02  0.14466908507E+03  0.12313741135E+03  0.19697052782E+03  0.00000000000E+00 0.  1.
          3    1    6    6  503    0  0.13157343858E+04  0.90278717496E+03  0.46936140282E+03  0.16632744162E+04  0.00000000000E+00 0. -1.
         -3    1    6    6    0  503  0.34671914752E+02  0.36647969739E+02  0.25942681786E+02  0.56729516980E+02  0.00000000000E+00 0.  1.
<mgrwt>
<rscale>  0 0.18022927E+04</rscale>
<asrwt>0</asrwt>
<pdfrwt beam="1">  1        2 0.48952816E+00 0.18022927E+04</pdfrwt>
<pdfrwt beam="2">  1       -2 0.16548296E+00 0.18022927E+04</pdfrwt>
<totfact> 0.28042452E-01</totfact>
</mgrwt>
</event>
<event>
12    1  0.3203156E-008  0.1124142E+04  0.7818608E-02  0.9181976E-01
         -2   -1    0    0    0  501 -0.00000000000E+00  0.00000000000E+00  0.50666101001E+03  0.50666101001E+03  0.00000000000E+00 0.  1.
          2   -1    0    0  501    0  0.00000000000E+00 -0.00000000000E+00 -0.34893370711E+04  0.34893370711E+04  0.00000000000E+00 0. -1.
         23    2    1    2    0    0 -0.43226118249E+03 -0.10074294663E+04 -0.23516462265E+04  0.25959862468E+04  0.84503016201E+02 0.  0.
    5000000    2    1    2    0    0  0.43226118249E+03  0.10074294663E+04 -0.63102983459E+03  0.14000118343E+04  0.60005885096E+03 0.  0.
         23    2    4    4    0    0  0.36585907323E+03  0.98123730954E+03 -0.36653856463E+03  0.11129150857E+04  0.86890445805E+02 0.  0.
         23    2    4    4    0    0  0.66402109259E+02  0.26192156723E+02 -0.26449126996E+03  0.28709674856E+03  0.85869913021E+02 0.  0.
          5    1    3    3  502    0 -0.11790921700E+03 -0.20997598296E+03 -0.57280511989E+03  0.62138578375E+03  0.47000000000E+01 0. -1.
         -5    1    3    3    0  502 -0.31435196549E+03 -0.79745348330E+03 -0.17788411066E+04  0.19746004631E+04  0.47000000000E+01 0.  1.
         11    1    5    5    0    0  0.22484770902E+03  0.48314171307E+03 -0.19811111545E+03  0.56853357088E+03  0.00000000000E+00 0.  1.
        -11    1    5    5    0    0  0.14101136421E+03  0.49809559647E+03 -0.16842744919E+03  0.54438151484E+03  0.00000000000E+00 0. -1.
          4    1    6    6  503    0  0.61773079751E+02 -0.10517205117E+02 -0.96360802827E+02  0.11494315685E+03  0.00000000000E+00 0. -1.
         -4    1    6    6    0  503  0.46290295082E+01  0.36709361840E+02 -0.16813046713E+03  0.17215359171E+03  0.00000000000E+00 0.  1.
<mgrwt>
<rscale>  0 0.11241417E+04</rscale>
<asrwt>0</asrwt>
<pdfrwt beam="1">  1        2 0.53682109E+00 0.11241417E+04</pdfrwt>
<pdfrwt beam="2">  1       -2 0.77947847E-01 0.11241417E+04</pdfrwt>
<totfact> 0.12297342E+00</totfact>
</mgrwt>
</event>
<event>
12    1  0.3203156E-008  0.4031354E+03  0.7818608E-02  0.1042699E+00
          1   -1    0    0  501    0  0.00000000000E+00  0.00000000000E+00  0.63242322831E+03  0.63242322831E+03  0.00000000000E+00 0. -1.
         -1   -1    0    0    0  501 -0.00000000000E+00 -0.00000000000E+00 -0.29149666484E+03  0.29149666484E+03  0.00000000000E+00 0.  1.
         23    2    1    2    0    0 -0.14146596644E+03 -0.14799842948E+03  0.10759438054E+03  0.24835329215E+03  0.90480120514E+02 0.  0.
    5000000    2    1    2    0    0  0.14146596644E+03  0.14799842948E+03  0.23333218293E+03  0.67556660100E+03  0.60002514115E+03 0.  0.
         23    2    4    4    0    0 -0.14492216163E+03  0.22852287679E+03  0.22749217274E+03  0.36516522255E+03  0.91475750662E+02 0.  0.
         23    2    4    4    0    0  0.28638812807E+03 -0.80524447314E+02  0.58400101936E+01  0.31040137845E+03  0.88388706915E+02 0.  0.
          5    1    3    3  502    0 -0.81476670255E+02 -0.25291415382E+02  0.26586779449E+02  0.89482122959E+02  0.47000000000E+01 0. -1.
         -5    1    3    3    0  502 -0.59989296186E+02 -0.12270701409E+03  0.81007601090E+02  0.15887116919E+03  0.47000000000E+01 0.  1.
         11    1    5    5    0    0 -0.12215420238E+03  0.15470530217E+03  0.20570321341E+03  0.28490207385E+03  0.00000000000E+00 0. -1.
        -11    1    5    5    0    0 -0.22767959251E+02  0.73817574622E+02  0.21788959331E+02  0.80263148706E+02  0.00000000000E+00 0.  1.
          3    1    6    6  503    0  0.14516256897E+03 -0.85522306014E+02  0.12378137972E+02  0.16893624406E+03  0.00000000000E+00 0. -1.
         -3    1    6    6    0  503  0.14122555909E+03  0.49978586995E+01 -0.65381277782E+01  0.14146513439E+03  0.00000000000E+00 0.  1.
<mgrwt>
<rscale>  0 0.40313541E+03</rscale>
<asrwt>0</asrwt>
<pdfrwt beam="1">  1        1 0.97295881E-01 0.40313541E+03</pdfrwt>
<pdfrwt beam="2">  1       -1 0.44845641E-01 0.40313541E+03</pdfrwt>
<totfact> 0.16302272E+02</totfact>
</mgrwt>
</event>
<event>
12    1  0.3203156E-008  0.8195962E+03  0.7818608E-02  0.9532078E-01
          1   -1    0    0  501    0  0.00000000000E+00  0.00000000000E+00  0.12522269919E+04  0.12522269919E+04  0.00000000000E+00 0. -1.
         -1   -1    0    0    0  501 -0.00000000000E+00 -0.00000000000E+00 -0.98319656034E+03  0.98319656034E+03  0.00000000000E+00 0.  1.
         23    2    1    2    0    0 -0.55308987100E+03 -0.57213173316E+03  0.77780455414E+03  0.11164384335E+04  0.90618572926E+02 0.  0.
    5000000    2    1    2    0    0  0.55308987100E+03  0.57213173316E+03 -0.50877412259E+03  0.11189851188E+04  0.60002788495E+03 0.  0.
         23    2    4    4    0    0  0.29322481161E+03  0.44901526275E+03 -0.19501254407E+02  0.54438217913E+03  0.91521372935E+02 0.  0.
         23    2    4    4    0    0  0.25986505938E+03  0.12311647041E+03 -0.48927286819E+03  0.57460293964E+03  0.89961571364E+02 0.  0.
          5    1    3    3  502    0 -0.20733357542E+03 -0.16384720924E+03  0.22482490795E+03  0.34698911901E+03  0.47000000000E+01 0. -1.
         -5    1    3    3    0  502 -0.34575629557E+03 -0.40828452393E+03  0.55297964618E+03  0.76944931444E+03  0.47000000000E+01 0.  1.
         13    1    5    5    0    0  0.65024227276E+02  0.17647778955E+03 -0.17813452896E+02  0.18891765254E+03  0.00000000000E+00 0.  1.
        -13    1    5    5    0    0  0.22820058434E+03  0.27253747320E+03 -0.16878015112E+01  0.35546452659E+03  0.00000000000E+00 0. -1.
          4    1    6    6  503    0  0.15861302816E+03  0.11260576382E+03 -0.36818191334E+03  0.41640853985E+03  0.00000000000E+00 0. -1.
         -4    1    6    6    0  503  0.10125203122E+03  0.10510706597E+02 -0.12109095484E+03  0.15819439979E+03  0.00000000000E+00 0.  1.
<mgrwt>
<rscale>  0 0.81959617E+03</rscale>
<asrwt>0</asrwt>
<pdfrwt beam="1">  1        1 0.19265031E+00 0.81959617E+03</pdfrwt>
<pdfrwt beam="2">  1       -1 0.15126101E+00 0.81959617E+03</pdfrwt>
<totfact> 0.34372404E+00</totfact>
</mgrwt>
</event>
<event>
12    1  0.3203156E-008  0.1088645E+04  0.7818608E-02  0.9216330E-01
         -1   -1    0    0    0  501 -0.00000000000E+00  0.00000000000E+00  0.66850606205E+03  0.66850606205E+03  0.00000000000E+00 0.  1.
          1   -1    0    0  501    0  0.00000000000E+00 -0.00000000000E+00 -0.18488113730E+04  0.18488113730E+04  0.00000000000E+00 0. -1.
         23    2    1    2    0    0 -0.86239944099E+03 -0.52198215302E+03 -0.78012233377E+03  0.12778125874E+04  0.89532055382E+02 0.  0.
    5000000    2    1    2    0    0  0.86239944099E+03  0.52198215302E+03 -0.40018297714E+03  0.12395048476E+04  0.60002307306E+03 0.  0.
         23    2    4    4    0    0  0.56619243748E+03  0.62081761409E+03 -0.25655658961E+03  0.88292877047E+03  0.88054209644E+02 0.  0.
         23    2    4    4    0    0  0.29620700351E+03 -0.98835461071E+02 -0.14362638753E+03  0.35657607715E+03  0.94925877972E+02 0.  0.
          5    1    3    3  502    0 -0.17608531755E+03 -0.14964507764E+03 -0.18497881588E+03  0.29603874855E+03  0.47000000000E+01 0. -1.
         -5    1    3    3    0  502 -0.68631412343E+03 -0.37233707538E+03 -0.59514351790E+03  0.98177383883E+03  0.47000000000E+01 0.  1.
         11    1    5    5    0    0  0.14191015037E+02  0.30829041128E+02  0.35826303719E+01  0.34126967709E+02  0.00000000000E+00 0. -1.
        -11    1    5    5    0    0  0.55200142244E+03  0.58998857296E+03 -0.26013921999E+03  0.84880180277E+03  0.00000000000E+00 0.  1.
          1    1    6    6  503    0  0.10623879138E+03 -0.79100748081E+02 -0.35606189220E+02  0.13715469314E+03  0.00000000000E+00 0. -1.
         -1    1    6    6    0  503  0.18996821213E+03 -0.19734712990E+02 -0.10802019831E+03  0.21942138401E+03  0.00000000000E+00 0.  1.
<mgrwt>
<rscale>  0 0.10886455E+04</rscale>
<asrwt>0</asrwt>
<pdfrwt beam="1">  1        1 0.28443252E+00 0.10886455E+04</pdfrwt>
<pdfrwt beam="2">  1       -1 0.10284709E+00 0.10886455E+04</pdfrwt>
<totfact> 0.33648385E+00</totfact>
</mgrwt>
</event>
<event>
12    1  0.3203156E-008  0.2522134E+04  0.7818608E-02  0.8395142E-01
         -1   -1    0    0    0  501 -0.00000000000E+00  0.00000000000E+00  0.34641196269E+04  0.34641196269E+04  0.00000000000E+00 0.  1.
          1   -1    0    0  501    0  0.00000000000E+00 -0.00000000000E+00 -0.27568722742E+04  0.27568722742E+04  0.00000000000E+00 0. -1.
         23    2    1    2    0    0  0.24305204901E+04  0.52380692677E+03  0.21466757914E+04  0.32860625070E+04  0.90478156179E+02 0.  0.
    5000000    2    1    2    0    0 -0.24305204901E+04 -0.52380692677E+03 -0.14394284387E+04  0.29349293942E+04  0.60004397294E+03 0.  0.
         23    2    4    4    0    0 -0.26541019004E+03 -0.24471732047E+03 -0.19678537196E+03  0.42138332766E+03  0.92251234690E+02 0.  0.
         23    2    4    4    0    0 -0.21651103001E+04 -0.27908960631E+03 -0.12426430667E+04  0.25135460665E+04  0.90323958646E+02 0.  0.
          5    1    3    3  502    0  0.13455767670E+04  0.33557985029E+03  0.11921575659E+04  0.18287844116E+04  0.47000000000E+01 0. -1.
         -5    1    3    3    0  502  0.10849437231E+04  0.18822707649E+03  0.95451822548E+03  0.14572780954E+04  0.47000000000E+01 0.  1.
         13    1    5    5    0    0 -0.93349043838E+01 -0.47625382033E+02 -0.15955169602E+02  0.51087032510E+02  0.00000000000E+00 0. -1.
        -13    1    5    5    0    0 -0.25607528566E+03 -0.19709193843E+03 -0.18083020235E+03  0.37029629515E+03  0.00000000000E+00 0.  1.
          3    1    6    6  503    0 -0.65922090781E+03 -0.46121051862E+02 -0.39361661803E+03  0.76917709191E+03  0.00000000000E+00 0. -1.
         -3    1    6    6    0  503 -0.15058893923E+04 -0.23296855444E+03 -0.84902644867E+03  0.17443689746E+04  0.00000000000E+00 0.  1.
<mgrwt>
<rscale>  0 0.25221340E+04</rscale>
<asrwt>0</asrwt>
<pdfrwt beam="1">  1        1 0.42413419E+00 0.25221340E+04</pdfrwt>
<pdfrwt beam="2">  1       -1 0.53294148E+00 0.25221340E+04</pdfrwt>
<totfact> 0.68515473E-04</totfact>
</mgrwt>
</event>
<event>
12    1  0.3203156E-008  0.8372913E+03  0.7818608E-02  0.9507555E-01
         -2   -1    0    0    0  501 -0.00000000000E+00  0.00000000000E+00  0.13234212847E+04  0.13234212847E+04  0.00000000000E+00 0.  1.
          2   -1    0    0  501    0  0.00000000000E+00 -0.00000000000E+00 -0.89320973752E+03  0.89320973752E+03  0.00000000000E+00 0. -1.
         23    2    1    2    0    0 -0.71380540164E+03 -0.16221331598E+03 -0.49880368789E+03  0.89039276866E+03  0.90348503840E+02 0.  0.
    5000000    2    1    2    0    0  0.71380540164E+03  0.16221331598E+03  0.92901523508E+03  0.13262382536E+04  0.60000607241E+03 0.  0.
         23    2    4    4    0    0  0.36237427251E+03 -0.20814967998E+03  0.42229470013E+03  0.60115033360E+03  0.91692459794E+02 0.  0.
         23    2    4    4    0    0  0.35143112913E+03  0.37036299596E+03  0.50672053495E+03  0.72508791996E+03  0.91182256140E+02 0.  0.
          5    1    3    3  502    0 -0.54541224224E+03 -0.99196417608E+02 -0.33912108165E+03  0.64987663543E+03  0.47000000000E+01 0. -1.
         -5    1    3    3    0  502 -0.16839315939E+03 -0.63016898370E+02 -0.15968260624E+03  0.24051613323E+03  0.47000000000E+01 0.  1.
         11    1    5    5    0    0  0.77284430375E+02 -0.91202593154E+02  0.11086881110E+03  0.16304198677E+03  0.00000000000E+00 0.  1.
        -11    1    5    5    0    0  0.28508984213E+03 -0.11694708683E+03  0.31142588903E+03  0.43810834683E+03  0.00000000000E+00 0. -1.
          1    1    6    6  503    0  0.25548180389E+03  0.23791823716E+03  0.29168287913E+03  0.45492300631E+03  0.00000000000E+00 0. -1.
         -1    1    6    6    0  503  0.95949325241E+02  0.13244475880E+03  0.21503765582E+03  0.27016491365E+03  0.00000000000E+00 0.  1.
<mgrwt>
<rscale>  0 0.83729131E+03</rscale>
<asrwt>0</asrwt>
<pdfrwt beam="1">  1        2 0.13741688E+00 0.83729131E+03</pdfrwt>
<pdfrwt beam="2">  1       -2 0.20360327E+00 0.83729131E+03</pdfrwt>
<totfact> 0.37760975E+00</totfact>
</mgrwt>
</event>
<event>
12    1  0.3203156E-008  0.4061947E+03  0.7818608E-02  0.1041656E+00
         -2   -1    0    0    0  501 -0.00000000000E+00  0.00000000000E+00  0.21251716065E+04  0.21251716065E+04  0.00000000000E+00 0. -1.
          2   -1    0    0  501    0  0.00000000000E+00 -0.00000000000E+00 -0.21349052988E+03  0.21349052988E+03  0.00000000000E+00 0.  1.
         23    2    1    2    0    0  0.23174224783E+03 -0.21103773484E+03  0.17561216343E+02  0.32737018891E+03  0.92851759868E+02 0.  0.
    5000000    2    1    2    0    0 -0.23174224783E+03  0.21103773484E+03  0.18941198603E+04  0.20112919475E+04  0.59946964721E+03 0.  0.
         23    2    4    4    0    0  0.16919258722E+02  0.20939090843E+03  0.15879438906E+04  0.16043454411E+04  0.90706565124E+02 0.  0.
         23    2    4    4    0    0 -0.24866150655E+03  0.16468264061E+01  0.30617596969E+03  0.40694650634E+03  0.10013230115E+03 0.  0.
          5    1    3    3  502    0  0.18131802751E+03 -0.20605803872E+03  0.33458978380E+01  0.27453492939E+03  0.47000000000E+01 0. -1.
         -5    1    3    3    0  502  0.50424220320E+02 -0.49796961178E+01  0.14215318505E+02  0.52835259520E+02  0.47000000000E+01 0.  1.
         11    1    5    5    0    0 -0.30519799920E+02  0.64988911079E+02  0.36520652156E+03  0.37219728659E+03  0.00000000000E+00 0. -1.
        -11    1    5    5    0    0  0.47439058643E+02  0.14440199735E+03  0.12227373690E+04  0.12321481546E+04  0.00000000000E+00 0.  1.
          3    1    6    6  503    0 -0.57671541762E+02  0.37605563280E+02  0.48587253576E+02  0.84266875633E+02  0.00000000000E+00 0. -1.
         -3    1    6    6    0  503 -0.19098996479E+03 -0.35958736874E+02  0.25758871611E+03  0.32267963071E+03  0.00000000000E+00 0.  1.
<mgrwt>
<rscale>  0 0.40619466E+03</rscale>
<asrwt>0</asrwt>
<pdfrwt beam="1">  1        2 0.32844698E-01 0.40619466E+03</pdfrwt>
<pdfrwt beam="2">  1       -2 0.32694946E+00 0.40619466E+03</pdfrwt>
<totfact> 0.38808506E+00</totfact>
</mgrwt>
</event>
<event>
12    1  0.3203156E-008  0.1766913E+04  0.7818608E-02  0.8724095E-01
          1   -1    0    0  501    0  0.00000000000E+00  0.00000000000E+00  0.22374969699E+04  0.22374969699E+04  0.00000000000E+00 0. -1.
         -1   -1    0    0    0  501 -0.00000000000E+00 -0.00000000000E+00 -0.17684126113E+04  0.17684126113E+04  0.00000000000E+00 0.  1.
         23    2    1    2    0    0 -0.72895686949E+03  0.15779723722E+04  0.11028130239E+04  0.20609149898E+04  0.98990426871E+02 0.  0.
    5000000    2    1    2    0    0  0.72895686949E+03 -0.15779723722E+04 -0.63372866523E+03  0.19449945914E+04  0.60001417858E+03 0.  0.
         23    2    4    4    0    0  0.21157119530E+03 -0.10899578418E+03  0.15013624636E+02  0.25528155878E+03  0.91108801327E+02 0.  0.
         23    2    4    4    0    0  0.51738567419E+03 -0.14689765880E+04 -0.64874228986E+03  0.16897130326E+04  0.93184880695E+02 0.  0.
          5    1    3    3  502    0 -0.40141851189E+03  0.89100844632E+03  0.67659819411E+03  0.11886294963E+04  0.47000000000E+01 0. -1.
         -5    1    3    3    0  502 -0.32753835761E+03  0.68696392586E+03  0.42621482978E+03  0.87228549355E+03  0.47000000000E+01 0.  1.
         11    1    5    5    0    0  0.12598322258E+03 -0.66945038456E+02 -0.35994873953E+02  0.14713613254E+03  0.00000000000E+00 0. -1.
        -11    1    5    5    0    0  0.85587972716E+02 -0.42050745723E+02  0.51008498589E+02  0.10814542625E+03  0.00000000000E+00 0.  1.
          3    1    6    6  503    0  0.32752533508E+03 -0.94550351921E+03 -0.36842297984E+03  0.10662951008E+04  0.00000000000E+00 0. -1.
         -3    1    6    6    0  503  0.18986033911E+03 -0.52347306879E+03 -0.28031931002E+03  0.62341793179E+03  0.00000000000E+00 0.  1.
<mgrwt>
<rscale>  0 0.17669133E+04</rscale>
<asrwt>0</asrwt>
<pdfrwt beam="1">  1        1 0.34423030E+00 0.17669133E+04</pdfrwt>
<pdfrwt beam="2">  1       -1 0.27206348E+00 0.17669133E+04</pdfrwt>
<totfact> 0.93983279E-02</totfact>
</mgrwt>
</event>
<event>
12    1  0.3203156E-008  0.1070575E+04  0.7818608E-02  0.9234356E-01
          1   -1    0    0  501    0  0.00000000000E+00  0.00000000000E+00  0.41292798757E+03  0.41292798757E+03  0.00000000000E+00 0. -1.
         -1   -1    0    0    0  501 -0.00000000000E+00 -0.00000000000E+00 -0.34476336707E+04  0.34476336707E+04  0.00000000000E+00 0.  1.
         23    2    1    2    0    0 -0.70448069313E+03 -0.69544202415E+03 -0.59095924870E+03  0.11565305854E+04  0.91637904129E+02 0.  0.
    5000000    2    1    2    0    0  0.70448069313E+03  0.69544202415E+03 -0.24437464344E+04  0.27040310728E+04  0.59996229138E+03 0.  0.
         23    2    4    4    0    0  0.52841861984E+03  0.12074899343E+03 -0.11531346819E+04  0.12774210924E+04  0.90986237848E+02 0.  0.
         23    2    4    4    0    0  0.17606207329E+03  0.57469303071E+03 -0.12906117525E+04  0.14266099804E+04  0.90925284178E+02 0.  0.
          5    1    3    3  502    0 -0.31146191917E+03 -0.30427505379E+03 -0.20766655254E+03  0.48243064009E+03  0.47000000000E+01 0. -1.
         -5    1    3    3    0  502 -0.39301877397E+03 -0.39116697035E+03 -0.38329269616E+03  0.67409994534E+03  0.47000000000E+01 0.  1.
         11    1    5    5    0    0  0.29594951486E+03  0.23316260824E+02 -0.65550184167E+03  0.71959184806E+03  0.00000000000E+00 0.  1.
        -11    1    5    5    0    0  0.23246910498E+03  0.97432732610E+02 -0.49763284024E+03  0.55782924434E+03  0.00000000000E+00 0. -1.
          3    1    6    6  503    0  0.11535401643E+03  0.31223001602E+03 -0.61559043073E+03  0.69981834101E+03  0.00000000000E+00 0. -1.
         -3    1    6    6    0  503  0.60708056861E+02  0.26246301469E+03 -0.67502132177E+03  0.72679163939E+03  0.00000000000E+00 0.  1.
<mgrwt>
<rscale>  0 0.10705747E+04</rscale>
<asrwt>0</asrwt>
<pdfrwt beam="1">  1        1 0.63527383E-01 0.10705747E+04</pdfrwt>
<pdfrwt beam="2">  1       -1 0.53040517E+00 0.10705747E+04</pdfrwt>
<totfact> 0.55540034E-02</totfact>
</mgrwt>
</event>
<event>
12    1  0.3203156E-008  0.1221536E+04  0.7818608E-02  0.9094213E-01
         -2   -1    0    0    0  501 -0.00000000000E+00  0.00000000000E+00  0.15615754579E+04  0.15615754579E+04  0.00000000000E+00 0.  1.
          2   -1    0    0  501    0  0.00000000000E+00 -0.00000000000E+00 -0.11850190306E+04  0.11850190306E+04  0.00000000000E+00 0. -1.
         23    2    1    2    0    0 -0.24859982677E+03 -0.11269673965E+04  0.76564707638E+03  0.13889302463E+04  0.10513989134E+03 0.  0.
    5000000    2    1    2    0    0  0.24859982677E+03  0.11269673965E+04 -0.38909064911E+03  0.13576642422E+04  0.60000272884E+03 0.  0.
         23    2    4    4    0    0  0.19431998148E+03  0.11589401621E+04 -0.40628476353E+03  0.12468000602E+04  0.92414968640E+02 0.  0.
         23    2    4    4    0    0  0.54279845292E+02 -0.31972765584E+02  0.17194114417E+02  0.11086418202E+03  0.89591684552E+02 0.  0.
          5    1    3    3  502    0 -0.81113917551E+02 -0.61026219945E+03  0.40577279659E+03  0.73734189638E+03  0.47000000000E+01 0.  1.
         -5    1    3    3    0  502 -0.16748590922E+03 -0.51670519707E+03  0.35987427979E+03  0.65158834990E+03  0.47000000000E+01 0. -1.
         13    1    5    5    0    0  0.92339928341E+02  0.43374788288E+03 -0.19622386041E+03  0.48494091564E+03  0.00000000000E+00 0.  1.
        -13    1    5    5    0    0  0.10198005314E+03  0.72519227923E+03 -0.21006090312E+03  0.76185914454E+03  0.00000000000E+00 0. -1.
          1    1    6    6  503    0 -0.18083382836E+02  0.13855848298E+02  0.10088962819E+02  0.24915465832E+02  0.00000000000E+00 0. -1.
         -1    1    6    6    0  503  0.72363228129E+02 -0.45828613882E+02  0.71051515981E+01  0.85948716190E+02  0.00000000000E+00 0.  1.
<mgrwt>
<rscale>  0 0.12215356E+04</rscale>
<asrwt>0</asrwt>
<pdfrwt beam="1">  1        2 0.18231062E+00 0.12215356E+04</pdfrwt>
<pdfrwt beam="2">  1       -2 0.24024238E+00 0.12215356E+04</pdfrwt>
<totfact> 0.13845647E+00</totfact>
</mgrwt>
</event>
<event>
12    1  0.3203156E-008  0.1127619E+04  0.7818608E-02  0.9178683E-01
          2   -1    0    0  501    0  0.00000000000E+00  0.00000000000E+00  0.21942542784E+04  0.21942542784E+04  0.00000000000E+00 0.  1.
         -2   -1    0    0    0  501 -0.00000000000E+00 -0.00000000000E+00 -0.79588325335E+03  0.79588325335E+03  0.00000000000E+00 0. -1.
         23    2    1    2    0    0  0.10717095417E+04 -0.12686634231E+03 -0.53399478760E+02  0.10842775048E+04  0.90276201945E+02 0.  0.
    5000000    2    1    2    0    0 -0.10717095417E+04  0.12686634231E+03  0.14517705038E+04  0.19058600269E+04  0.60000702981E+03 0.  0.
         23    2    4    4    0    0 -0.99624513800E+03 -0.31264743552E+02  0.13587073864E+04  0.16876472447E+04  0.92658520463E+02 0.  0.
         23    2    4    4    0    0 -0.75464403687E+02  0.15813108586E+03  0.93063117369E+02  0.21821278219E+03  0.90861201602E+02 0.  0.
          5    1    3    3  502    0  0.72867700161E+03 -0.12349102088E+03 -0.17083772832E+02  0.73927948045E+03  0.47000000000E+01 0. -1.
         -5    1    3    3    0  502  0.34303254007E+03 -0.33753214332E+01 -0.36315705928E+02  0.34499802440E+03  0.47000000000E+01 0.  1.
         13    1    5    5    0    0 -0.57751839475E+03 -0.39947610914E+02  0.85539756611E+03  0.10328738084E+04  0.00000000000E+00 0. -1.
        -13    1    5    5    0    0 -0.41872674325E+03  0.86828673612E+01  0.50330982029E+03  0.65477343630E+03  0.00000000000E+00 0.  1.
          2    1    6    6  503    0 -0.81959626778E+01  0.22878329902E+02 -0.18401050390E+02  0.30482625195E+02  0.00000000000E+00 0. -1.
         -2    1    6    6    0  503 -0.67268441010E+02  0.13525275596E+03  0.11146416776E+03  0.18773015699E+03  0.00000000000E+00 0.  1.
<mgrwt>
<rscale>  0 0.11276190E+04</rscale>
<asrwt>0</asrwt>
<pdfrwt beam="1">  1        2 0.33757758E+00 0.11276190E+04</pdfrwt>
<pdfrwt beam="2">  1       -2 0.12244358E+00 0.11276190E+04</pdfrwt>
<totfact> 0.25892181E+00</totfact>
</mgrwt>
</event>
<event>
12    1  0.3203156E-008  0.1257215E+04  0.7818608E-02  0.9064200E-01
         -2   -1    0    0    0  501 -0.00000000000E+00  0.00000000000E+00  0.11663977744E+04  0.11663977744E+04  0.00000000000E+00 0.  1.
          2   -1    0    0  501    0  0.00000000000E+00 -0.00000000000E+00 -0.15904587017E+04  0.15904587017E+04  0.00000000000E+00 0. -1.
         23    2    1    2    0    0 -0.79586100165E+03  0.92302660411E+03 -0.64260101661E+03  0.13809549908E+04  0.93422557972E+02 0.  0.
    5000000    2    1    2    0    0  0.79586100165E+03 -0.92302660411E+03  0.21854008932E+03  0.13759014852E+04  0.59997690007E+03 0.  0.
         23    2    4    4    0    0  0.49490202289E+03 -0.25737473558E+03  0.29195367379E+03  0.63549943618E+03  0.86329710833E+02 0.  0.
         23    2    4    4    0    0  0.30095897875E+03 -0.66565186854E+03 -0.73413584469E+02  0.74040204906E+03  0.95587252786E+02 0.  0.
          5    1    3    3  502    0 -0.75453897941E+02  0.13096028600E+03 -0.67642981931E+02  0.16565491308E+03  0.47000000000E+01 0. -1.
         -5    1    3    3    0  502 -0.72040710371E+03  0.79206631811E+03 -0.57495803468E+03  0.12153000778E+04  0.47000000000E+01 0.  1.
         13    1    5    5    0    0  0.33407493495E+03 -0.17483057368E+03  0.24169181589E+03  0.44786909418E+03  0.00000000000E+00 0.  1.
        -13    1    5    5    0    0  0.16082708794E+03 -0.82544161900E+02  0.50261857897E+02  0.18763034200E+03  0.00000000000E+00 0. -1.
          1    1    6    6  503    0  0.31961942725E+02 -0.14700322350E+03 -0.37508298888E+02  0.15504317459E+03  0.00000000000E+00 0. -1.
         -1    1    6    6    0  503  0.26899703603E+03 -0.51864864504E+03 -0.35905285580E+02  0.58535887448E+03  0.00000000000E+00 0.  1.
<mgrwt>
<rscale>  0 0.12572147E+04</rscale>
<asrwt>0</asrwt>
<pdfrwt beam="1">  1        2 0.24468595E+00 0.12572147E+04</pdfrwt>
<pdfrwt beam="2">  1       -2 0.17944581E+00 0.12572147E+04</pdfrwt>
<totfact> 0.19922492E+00</totfact>
</mgrwt>
</event>
<event>
12    1  0.3203156E-008  0.1071034E+04  0.7818608E-02  0.9233893E-01
         -1   -1    0    0    0  501 -0.00000000000E+00  0.00000000000E+00  0.67727069933E+03  0.67727069933E+03  0.00000000000E+00 0.  1.
          1   -1    0    0  501    0  0.00000000000E+00 -0.00000000000E+00 -0.22958309519E+04  0.22958309519E+04  0.00000000000E+00 0. -1.
         23    2    1    2    0    0  0.93174801718E+03 -0.43015021084E+03 -0.87519693389E+02  0.10347464205E+04  0.99281854417E+02 0.  0.
    5000000    2    1    2    0    0 -0.93174801718E+03  0.43015021084E+03 -0.15310405592E+04  0.19383552307E+04  0.59996019466E+03 0.  0.
         23    2    4    4    0    0 -0.33613824151E+03 -0.62280640477E+02 -0.22940472651E+03  0.42201607864E+03  0.92753687280E+02 0.  0.
         23    2    4    4    0    0 -0.59560977568E+03  0.49243085132E+03 -0.13016358327E+04  0.15163391521E+04  0.88257775942E+02 0.  0.
          5    1    3    3  502    0  0.37841501904E+03 -0.15932078261E+03 -0.81603099672E+02  0.41864327808E+03  0.47000000000E+01 0. -1.
         -5    1    3    3    0  502  0.55333299814E+03 -0.27082942823E+03 -0.59165937174E+01  0.61610314243E+03  0.47000000000E+01 0.  1.
         11    1    5    5    0    0 -0.22376220302E+03 -0.30984459616E+02 -0.20000830235E+03  0.30171655780E+03  0.00000000000E+00 0. -1.
        -11    1    5    5    0    0 -0.11237603848E+03 -0.31296180861E+02 -0.29396424158E+02  0.12029952084E+03  0.00000000000E+00 0.  1.
          2    1    6    6  503    0 -0.18180744928E+03  0.15344666712E+03 -0.32453522779E+03  0.40239649892E+03  0.00000000000E+00 0.  1.
         -2    1    6    6    0  503 -0.41380232639E+03  0.33898418420E+03 -0.97710060490E+03  0.11139426532E+04  0.00000000000E+00 0. -1.
<mgrwt>
<rscale>  0 0.10710339E+04</rscale>
<asrwt>0</asrwt>
<pdfrwt beam="1">  1        1 0.35320477E+00 0.10710339E+04</pdfrwt>
<pdfrwt beam="2">  1       -1 0.10419549E+00 0.10710339E+04</pdfrwt>
<totfact> 0.16317056E+00</totfact>
</mgrwt>
</event>
<event>
12    1  0.3203156E-008  0.3606255E+03  0.7818608E-02  0.1058336E+00
          1   -1    0    0  501    0  0.00000000000E+00  0.00000000000E+00  0.70637855482E+03  0.70637855482E+03  0.00000000000E+00 0. -1.
         -1   -1    0    0    0  501 -0.00000000000E+00 -0.00000000000E+00 -0.30532739358E+03  0.30532739358E+03  0.00000000000E+00 0.  1.
         23    2    1    2    0    0  0.90146231636E+02  0.19067448774E+03 -0.46772646244E+02  0.23377934940E+03  0.89342041715E+02 0.  0.
    5000000    2    1    2    0    0 -0.90146231636E+02 -0.19067448774E+03  0.44782380748E+03  0.77792659900E+03  0.60011709485E+03 0.  0.
         23    2    4    4    0    0 -0.21481123886E+03  0.54065653036E+02 -0.67079412548E+01  0.23947644013E+03  0.90757951274E+02 0.  0.
         23    2    4    4    0    0  0.12466500723E+03 -0.24474014077E+03  0.45453174874E+03  0.53845015887E+03  0.88827712155E+02 0.  0.
          5    1    3    3  502    0  0.66161294287E+02  0.13079278968E+03 -0.73208898688E+02  0.16390760672E+03  0.47000000000E+01 0. -1.
         -5    1    3    3    0  502  0.23984937349E+02  0.59881698063E+02  0.26436252444E+02  0.69871742684E+02  0.47000000000E+01 0.  1.
         11    1    5    5    0    0 -0.82554023256E+02 -0.17833872438E+02 -0.24376264320E+02  0.87905722363E+02  0.00000000000E+00 0. -1.
        -11    1    5    5    0    0 -0.13225721561E+03  0.71899525473E+02  0.17668323065E+02  0.15157071776E+03  0.00000000000E+00 0.  1.
          3    1    6    6  503    0  0.11807411946E+03 -0.22472981041E+03  0.35328559823E+03  0.43503528511E+03  0.00000000000E+00 0. -1.
         -3    1    6    6    0  503  0.65908877690E+01 -0.20010330362E+02  0.10124615051E+03  0.10341487376E+03  0.00000000000E+00 0.  1.
<mgrwt>
<rscale>  0 0.36062555E+03</rscale>
<asrwt>0</asrwt>
<pdfrwt beam="1">  1        1 0.10867362E+00 0.36062555E+03</pdfrwt>
<pdfrwt beam="2">  1       -1 0.46973445E-01 0.36062555E+03</pdfrwt>
<totfact> 0.12805348E+02</totfact>
</mgrwt>
</event>
<event>
12    1  0.3203156E-008  0.1246560E+04  0.7818608E-02  0.9073052E-01
         -1   -1    0    0    0  501 -0.00000000000E+00  0.00000000000E+00  0.15996520506E+04  0.15996520506E+04  0.00000000000E+00 0.  1.
          1   -1    0    0  501    0  0.00000000000E+00 -0.00000000000E+00 -0.19993888683E+04  0.19993888683E+04  0.00000000000E+00 0. -1.
         23    2    1    2    0    0  0.33879287904E+03 -0.11326074042E+04  0.10859673767E+04  0.16078347940E+04  0.90705206612E+02 0.  0.
    5000000    2    1    2    0    0 -0.33879287904E+03  0.11326074042E+04 -0.14857041944E+04  0.19912061250E+04  0.60000394340E+03 0.  0.
         23    2    4    4    0    0 -0.17136921384E+03  0.11168428979E+04 -0.12831033674E+04  0.17120370069E+04  0.89504165738E+02 0.  0.
         23    2    4    4    0    0 -0.16742366521E+03  0.15764506310E+02 -0.20260082696E+03  0.27916911804E+03  0.92785225408E+02 0.  0.
          5    1    3    3  502    0  0.25243490274E+03 -0.85574348321E+03  0.87034537764E+03  0.12464122334E+04  0.47000000000E+01 0. -1.
         -5    1    3    3    0  502  0.86357976307E+02 -0.27686392095E+03  0.21562199908E+03  0.36142256056E+03  0.47000000000E+01 0.  1.
         13    1    5    5    0    0 -0.56687590741E+02  0.65997703910E+03 -0.74697861955E+03  0.99837880243E+03  0.00000000000E+00 0. -1.
        -13    1    5    5    0    0 -0.11468162309E+03  0.45686585876E+03 -0.53612474788E+03  0.71365820451E+03  0.00000000000E+00 0.  1.
          3    1    6    6  503    0 -0.41760232314E+02 -0.20626129132E+02 -0.12189094730E+02  0.48144867185E+02  0.00000000000E+00 0. -1.
         -3    1    6    6    0  503 -0.12566343289E+03  0.36390635442E+02 -0.19041173223E+03  0.23102425086E+03  0.00000000000E+00 0.  1.
<mgrwt>
<rscale>  0 0.12465596E+04</rscale>
<asrwt>0</asrwt>
<pdfrwt beam="1">  1        1 0.30759829E+00 0.12465596E+04</pdfrwt>
<pdfrwt beam="2">  1       -1 0.24610032E+00 0.12465596E+04</pdfrwt>
<totfact> 0.21520435E-01</totfact>
</mgrwt>
</event>
<event>
12    1  0.3203156E-008  0.1074937E+04  0.7818608E-02  0.9229970E-01
          1   -1    0    0  501    0  0.00000000000E+00  0.00000000000E+00  0.13369560921E+04  0.13369560921E+04  0.00000000000E+00 0. -1.
         -1   -1    0    0    0  501 -0.00000000000E+00 -0.00000000000E+00 -0.93900751996E+03  0.93900751996E+03  0.00000000000E+00 0.  1.
         23    2    1    2    0    0  0.10275163364E+04  0.66469495925E+02  0.31798585172E+03  0.10815760174E+04  0.92106808148E+02 0.  0.
    5000000    2    1    2    0    0 -0.10275163364E+04 -0.66469495925E+02  0.79962720428E+02  0.11943875947E+04  0.59996639434E+03 0.  0.
         23    2    4    4    0    0 -0.58577508666E+02 -0.10211870966E+03  0.15795172590E+03  0.21760031178E+03  0.92420736791E+02 0.  0.
         23    2    4    4    0    0 -0.96893882769E+03  0.35649213737E+02 -0.77989005474E+02  0.97678728291E+03  0.88981980424E+02 0.  0.
          5    1    3    3  502    0  0.36652326764E+03  0.55230037526E+02  0.14651398425E+03  0.39859515846E+03  0.47000000000E+01 0. -1.
         -5    1    3    3    0  502  0.66099306872E+03  0.11239458399E+02  0.17147186747E+03  0.68298085892E+03  0.47000000000E+01 0.  1.
         11    1    5    5    0    0 -0.49500510264E+02 -0.59180989089E+01  0.76041751623E+02  0.90926741947E+02  0.00000000000E+00 0.  1.
        -11    1    5    5    0    0 -0.90769984023E+01 -0.96200610753E+02  0.81909974278E+02  0.12667356984E+03  0.00000000000E+00 0. -1.
          4    1    6    6  503    0 -0.26204686822E+03  0.37406305940E+02  0.70455861735E+01  0.26479696591E+03  0.00000000000E+00 0.  1.
         -4    1    6    6    0  503 -0.70689195947E+03 -0.17570922032E+01 -0.85034591647E+02  0.71199031700E+03  0.00000000000E+00 0. -1.
<mgrwt>
<rscale>  0 0.10749373E+04</rscale>
<asrwt>0</asrwt>
<pdfrwt beam="1">  1        1 0.20568555E+00 0.10749373E+04</pdfrwt>
<pdfrwt beam="2">  1       -1 0.14446270E+00 0.10749373E+04</pdfrwt>
<totfact> 0.32685373E+00</totfact>
</mgrwt>
</event>
<event>
12    1  0.3203156E-008  0.8474191E+03  0.7818608E-02  0.9493807E-01
          2   -1    0    0  501    0  0.00000000000E+00  0.00000000000E+00  0.85732640161E+03  0.85732640161E+03  0.00000000000E+00 0. -1.
         -2   -1    0    0    0  501 -0.00000000000E+00 -0.00000000000E+00 -0.10283367094E+04  0.10283367094E+04  0.00000000000E+00 0.  1.
         23    2    1    2    0    0  0.76532896953E+03 -0.13699902072E+03 -0.39782527871E+03  0.87802874097E+03  0.90401074740E+02 0.  0.
    5000000    2    1    2    0    0 -0.76532896953E+03  0.13699902072E+03  0.22681497095E+03  0.10076343700E+04  0.59948713855E+03 0.  0.
         23    2    4    4    0    0  0.45756599291E+02  0.29721740721E+02 -0.77399023213E+02  0.12998908517E+03  0.89047769311E+02 0.  0.
         23    2    4    4    0    0 -0.81108556882E+03  0.10727728000E+03  0.30421399416E+03  0.87764528483E+03  0.91361244462E+02 0.  0.
          5    1    3    3  502    0  0.12701714431E+03 -0.32860386338E+02 -0.10477399112E+03  0.16796677992E+03  0.47000000000E+01 0. -1.
         -5    1    3    3    0  502  0.63831182522E+03 -0.10413863438E+03 -0.29305128759E+03  0.71006196105E+03  0.47000000000E+01 0.  1.
         11    1    5    5    0    0  0.49286278114E+02  0.54525206544E+02 -0.36590135147E+02  0.82103430800E+02  0.00000000000E+00 0.  1.
        -11    1    5    5    0    0 -0.35296788236E+01 -0.24803465823E+02 -0.40808888066E+02  0.47885654372E+02  0.00000000000E+00 0. -1.
          1    1    6    6  503    0 -0.32981139834E+03  0.49475767524E+02  0.17180354700E+03  0.37515312715E+03  0.00000000000E+00 0. -1.
         -1    1    6    6    0  503 -0.48127417048E+03  0.57801512472E+02  0.13241044717E+03  0.50249215768E+03  0.00000000000E+00 0.  1.
<mgrwt>
<rscale>  0 0.84741911E+03</rscale>
<asrwt>0</asrwt>
<pdfrwt beam="1">  1        2 0.13189637E+00 0.84741911E+03</pdfrwt>
<pdfrwt beam="2">  1       -2 0.15820565E+00 0.84741911E+03</pdfrwt>
<totfact> 0.81989622E+00</totfact>
</mgrwt>
</event>
<event>
12    1  0.3203156E-008  0.9334354E+03  0.7818608E-02  0.9384724E-01
          3   -1    0    0  501    0  0.00000000000E+00  0.00000000000E+00  0.73091482932E+03  0.73091482932E+03  0.00000000000E+00 0. -1.
         -3   -1    0    0    0  501 -0.00000000000E+00 -0.00000000000E+00 -0.12214234412E+04  0.12214234412E+04  0.00000000000E+00 0.  1.
         23    2    1    2    0    0 -0.44546027302E+03 -0.72001493609E+03 -0.24132867953E+03  0.88509921357E+03  0.91130254403E+02 0.  0.
    5000000    2    1    2    0    0  0.44546027302E+03  0.72001493609E+03 -0.24917993236E+03  0.10672390570E+04  0.60004350093E+03 0.  0.
         23    2    4    4    0    0  0.48574627876E+03  0.26461298617E+03 -0.58707647347E+02  0.56380371776E+03  0.91970454642E+02 0.  0.
         23    2    4    4    0    0 -0.40286005747E+02  0.45540194992E+03 -0.19047228501E+03  0.50343533921E+03  0.90297016319E+02 0.  0.
          5    1    3    3  502    0 -0.29435474043E+03 -0.44874811097E+03 -0.10962532807E+03  0.54777676371E+03  0.47000000000E+01 0. -1.
         -5    1    3    3    0  502 -0.15110553259E+03 -0.27126682512E+03 -0.13170335146E+03  0.33732244986E+03  0.47000000000E+01 0.  1.
         11    1    5    5    0    0  0.44925417810E+03  0.26844544798E+03 -0.47808127966E+02  0.52552630018E+03  0.00000000000E+00 0. -1.
        -11    1    5    5    0    0  0.36492100660E+02 -0.38324618093E+01 -0.10899519381E+02  0.38277417583E+02  0.00000000000E+00 0.  1.
          3    1    6    6  503    0 -0.50776205679E+02  0.39895265250E+03 -0.13669234722E+03  0.42476610010E+03  0.00000000000E+00 0. -1.
         -3    1    6    6    0  503  0.10490199932E+02  0.56449297415E+02 -0.53779937793E+02  0.78669239111E+02  0.00000000000E+00 0.  1.
<mgrwt>
<rscale>  0 0.93343537E+03</rscale>
<asrwt>0</asrwt>
<pdfrwt beam="1">  1        3 0.11244844E+00 0.93343537E+03</pdfrwt>
<pdfrwt beam="2">  1       -3 0.18791130E+00 0.93343537E+03</pdfrwt>
<totfact> 0.29714404E-01</totfact>
</mgrwt>
</event>
<event>
12    1  0.3203156E-008  0.6986582E+03  0.7818608E-02  0.9719530E-01
         -1   -1    0    0    0  501 -0.00000000000E+00  0.00000000000E+00  0.80413530040E+03  0.80413530040E+03  0.00000000000E+00 0.  1.
          1   -1    0    0  501    0  0.00000000000E+00 -0.00000000000E+00 -0.64535919464E+03  0.64535919464E+03  0.00000000000E+00 0. -1.
         23    2    1    2    0    0  0.19444293854E+03  0.55775812965E+03  0.83480077448E+02  0.60413424442E+03  0.95430992964E+02 0.  0.
    5000000    2    1    2    0    0 -0.19444293854E+03 -0.55775812965E+03  0.75296028307E+02  0.84536025062E+03  0.60005189268E+03 0.  0.
         23    2    4    4    0    0  0.14423480741E+03 -0.14307310919E+02  0.99353744561E+02  0.19804029369E+03  0.91325859163E+02 0.  0.
         23    2    4    4    0    0 -0.33867774596E+03 -0.54345081873E+03 -0.24057716255E+02  0.64731995693E+03  0.91667578467E+02 0.  0.
          5    1    3    3  502    0  0.63153952593E+02  0.12184405705E+03  0.55130078122E+02  0.14797233350E+03  0.47000000000E+01 0. -1.
         -5    1    3    3    0  502  0.13128898595E+03  0.43591407260E+03  0.28349999326E+02  0.45616191093E+03  0.47000000000E+01 0.  1.
         11    1    5    5    0    0  0.30181196735E+02 -0.32353778008E+02  0.62991369518E+02  0.76977816424E+02  0.00000000000E+00 0.  1.
        -11    1    5    5    0    0  0.11405361068E+03  0.18046467089E+02  0.36362375044E+02  0.12106247727E+03  0.00000000000E+00 0. -1.
          1    1    6    6  503    0 -0.25136192098E+03 -0.33352312165E+03  0.79695404155E+01  0.41771282188E+03  0.00000000000E+00 0. -1.
         -1    1    6    6    0  503 -0.87315824980E+02 -0.20992769708E+03 -0.32027256670E+02  0.22960713505E+03  0.00000000000E+00 0.  1.
<mgrwt>
<rscale>  0 0.69865818E+03</rscale>
<asrwt>0</asrwt>
<pdfrwt beam="1">  1        1 0.99286029E-01 0.69865818E+03</pdfrwt>
<pdfrwt beam="2">  1       -1 0.12371312E+00 0.69865818E+03</pdfrwt>
<totfact> 0.18264922E+01</totfact>
</mgrwt>
</event>
<event>
12    1  0.3203156E-008  0.5123857E+03  0.7818608E-02  0.1010596E+00
          1   -1    0    0  501    0  0.00000000000E+00  0.00000000000E+00  0.50972987942E+03  0.50972987942E+03  0.00000000000E+00 0. -1.
         -1   -1    0    0    0  501 -0.00000000000E+00 -0.00000000000E+00 -0.62090936814E+03  0.62090936814E+03  0.00000000000E+00 0.  1.
         23    2    1    2    0    0 -0.19863293509E+03 -0.34085258490E+03 -0.85740955128E+02  0.41205250414E+03  0.82463490414E+02 0.  0.
    5000000    2    1    2    0    0  0.19863293509E+03  0.34085258490E+03 -0.25438533596E+02  0.71858674341E+03  0.60007021362E+03 0.  0.
         23    2    4    4    0    0 -0.13394140040E+03  0.22096249348E+03 -0.17172154041E+03  0.32548593831E+03  0.98428076965E+02 0.  0.
         23    2    4    4    0    0  0.33257433549E+03  0.11989009142E+03  0.14628300682E+03  0.39310080510E+03  0.90278470515E+02 0.  0.
          5    1    3    3  502    0 -0.17169020831E+03 -0.24425447507E+03 -0.89082852177E+02  0.31160170213E+03  0.47000000000E+01 0. -1.
         -5    1    3    3    0  502 -0.26942726785E+02 -0.96598109831E+02  0.33418970492E+01  0.10045080201E+03  0.47000000000E+01 0.  1.
         13    1    5    5    0    0 -0.62795004233E+02  0.58543627064E+02 -0.10593990822E+03  0.13635920570E+03  0.00000000000E+00 0.  1.
        -13    1    5    5    0    0 -0.71146396163E+02  0.16241886641E+03 -0.65781632191E+02  0.18912673261E+03  0.00000000000E+00 0. -1.
          1    1    6    6  503    0  0.17868358707E+03  0.21543368481E+02  0.94452611655E+02  0.20325657889E+03  0.00000000000E+00 0. -1.
         -1    1    6    6    0  503  0.15389074842E+03  0.98346722937E+02  0.51830395160E+02  0.18984422621E+03  0.00000000000E+00 0.  1.
<mgrwt>
<rscale>  0 0.51238568E+03</rscale>
<asrwt>0</asrwt>
<pdfrwt beam="1">  1        1 0.78419982E-01 0.51238568E+03</pdfrwt>
<pdfrwt beam="2">  1       -1 0.95524518E-01 0.51238568E+03</pdfrwt>
<totfact> 0.47790343E+01</totfact>
</mgrwt>
</event>
<event>
12    1  0.3203156E-008  0.3560572E+03  0.7818608E-02  0.1060156E+00
         -2   -1    0    0    0  501 -0.00000000000E+00  0.00000000000E+00  0.42872672326E+03  0.42872672326E+03  0.00000000000E+00 0.  1.
          2   -1    0    0  501    0  0.00000000000E+00 -0.00000000000E+00 -0.39655641384E+03  0.39655641384E+03  0.00000000000E+00 0. -1.
         23    2    1    2    0    0 -0.51600154108E+01  0.17019778380E+03  0.58643462971E+02  0.20122389662E+03  0.89766861662E+02 0.  0.
    5000000    2    1    2    0    0  0.51600154108E+01 -0.17019778380E+03 -0.26473153550E+02  0.62405924049E+03  0.59979596231E+03 0.  0.
         23    2    4    4    0    0 -0.13422156426E+03 -0.29239273303E+03 -0.16875913413E+03  0.37463627480E+03  0.91453564187E+02 0.  0.
         23    2    4    4    0    0  0.13938157967E+03  0.12219494923E+03  0.14228598058E+03  0.24942296568E+03  0.87222045208E+02 0.  0.
          5    1    3    3  502    0  0.33829482422E+02  0.13564253762E+03  0.47660973373E+02  0.14777344239E+03  0.47000000000E+01 0. -1.
         -5    1    3    3    0  502 -0.38989497833E+02  0.34555246185E+02  0.10982489598E+02  0.53450454235E+02  0.47000000000E+01 0.  1.
         13    1    5    5    0    0 -0.13532787074E+03 -0.19786558680E+03 -0.11482375203E+03  0.26579864008E+03  0.00000000000E+00 0. -1.
        -13    1    5    5    0    0  0.11063064838E+01 -0.94527146234E+02 -0.53935382108E+02  0.10883763472E+03  0.00000000000E+00 0.  1.
          4    1    6    6  503    0  0.10580458849E+03  0.98721680716E+02  0.14922963924E+03  0.20787031153E+03  0.00000000000E+00 0. -1.
         -4    1    6    6    0  503  0.33576991174E+02  0.23473268516E+02 -0.69436586567E+01  0.41552654147E+02  0.00000000000E+00 0.  1.
<mgrwt>
<rscale>  0 0.35605722E+03</rscale>
<asrwt>0</asrwt>
<pdfrwt beam="1">  1        2 0.61008679E-01 0.35605722E+03</pdfrwt>
<pdfrwt beam="2">  1       -2 0.65957957E-01 0.35605722E+03</pdfrwt>
<totfact> 0.17498961E+02</totfact>
</mgrwt>
</event>
<event>
12    1  0.3203156E-008  0.5805108E+03  0.7818608E-02  0.9946686E-01
         -1   -1    0    0    0  501 -0.00000000000E+00  0.00000000000E+00  0.32384392325E+03  0.32384392325E+03  0.00000000000E+00 0.  1.
          1   -1    0    0  501    0  0.00000000000E+00 -0.00000000000E+00 -0.11175269325E+04  0.11175269325E+04  0.00000000000E+00 0. -1.
         23    2    1    2    0    0 -0.61887493430E+02  0.43930700102E+03 -0.29140119730E+03  0.54190590898E+03  0.10920921854E+03 0.  0.
    5000000    2    1    2    0    0  0.61887493430E+02 -0.43930700102E+03 -0.50228181198E+03  0.89946494680E+03  0.59994122120E+03 0.  0.
         23    2    4    4    0    0  0.20381695121E+03 -0.49988299456E+03 -0.46389866223E+03  0.71751214785E+03  0.90539249228E+02 0.  0.
         23    2    4    4    0    0 -0.14192945778E+03  0.60575993538E+02 -0.38383149750E+02  0.18195279895E+03  0.88431515201E+02 0.  0.
          5    1    3    3  502    0 -0.82389445626E+02  0.35964145162E+03 -0.26865250470E+03  0.45642770814E+03  0.47000000000E+01 0. -1.
         -5    1    3    3    0  502  0.20501952195E+02  0.79665549397E+02 -0.22748692602E+02  0.85478200845E+02  0.47000000000E+01 0.  1.
         11    1    5    5    0    0  0.13042283284E+03 -0.20663604608E+03 -0.22587046174E+03  0.33275521987E+03  0.00000000000E+00 0.  1.
        -11    1    5    5    0    0  0.73394118377E+02 -0.29324694847E+03 -0.23802820049E+03  0.38475692798E+03  0.00000000000E+00 0. -1.
          3    1    6    6  503    0 -0.83762700084E+02  0.62945991873E+02  0.11344587778E+02  0.10539016790E+03  0.00000000000E+00 0. -1.
         -3    1    6    6    0  503 -0.58166757698E+02 -0.23699983348E+01 -0.49727737528E+02  0.76562631047E+02  0.00000000000E+00 0.  1.
<mgrwt>
<rscale>  0 0.58051082E+03</rscale>
<asrwt>0</asrwt>
<pdfrwt beam="1">  1        1 0.17192722E+00 0.58051082E+03</pdfrwt>
<pdfrwt beam="2">  1       -1 0.49822142E-01 0.58051082E+03</pdfrwt>
<totfact> 0.51931160E+01</totfact>
</mgrwt>
</event>
<event>
12    1  0.3203156E-008  0.1023090E+04  0.7818608E-02  0.9283576E-01
          1   -1    0    0  501    0  0.00000000000E+00  0.00000000000E+00  0.71776725659E+03  0.71776725659E+03  0.00000000000E+00 0. -1.
         -1   -1    0    0    0  501 -0.00000000000E+00 -0.00000000000E+00 -0.15982734461E+04  0.15982734461E+04  0.00000000000E+00 0.  1.
         23    2    1    2    0    0  0.12473258770E+03  0.93835222517E+03 -0.11306297176E+03  0.95768907552E+03  0.91225067159E+02 0.  0.
    5000000    2    1    2    0    0 -0.12473258770E+03 -0.93835222517E+03 -0.76744321779E+03  0.13583516272E+04  0.60007244038E+03 0.  0.
         23    2    4    4    0    0  0.21123137969E+03 -0.43142974710E+03 -0.45965340673E+03  0.67098693281E+03  0.90509045048E+02 0.  0.
         23    2    4    4    0    0 -0.33596396739E+03 -0.50692247807E+03 -0.30778981106E+03  0.68736469440E+03  0.88845197773E+02 0.  0.
          5    1    3    3  502    0  0.10217104418E+03  0.54741502080E+03 -0.32243743473E+02  0.55782064883E+03  0.47000000000E+01 0. -1.
         -5    1    3    3    0  502  0.22561543520E+02  0.39093720437E+03 -0.80819228287E+02  0.39986842669E+03  0.47000000000E+01 0.  1.
         11    1    5    5    0    0  0.16386388262E+03 -0.39893458755E+03 -0.40987441600E+03  0.59497665001E+03  0.00000000000E+00 0.  1.
        -11    1    5    5    0    0  0.47367497067E+02 -0.32495159552E+02 -0.49778990729E+02  0.76010282796E+02  0.00000000000E+00 0. -1.
          1    1    6    6  503    0 -0.22361482493E+03 -0.36342706583E+03 -0.17190616435E+03  0.46003755438E+03  0.00000000000E+00 0. -1.
         -1    1    6    6    0  503 -0.11234914246E+03 -0.14349541224E+03 -0.13588364671E+03  0.22732714002E+03  0.00000000000E+00 0.  1.
<mgrwt>
<rscale>  0 0.10230901E+04</rscale>
<asrwt>0</asrwt>
<pdfrwt beam="1">  1        1 0.11042573E+00 0.10230901E+04</pdfrwt>
<pdfrwt beam="2">  1       -1 0.24588822E+00 0.10230901E+04</pdfrwt>
<totfact> 0.19538856E+00</totfact>
</mgrwt>
</event>
<event>
12    1  0.3203156E-008  0.5386108E+03  0.7818608E-02  0.1004165E+00
         -2   -1    0    0    0  501 -0.00000000000E+00  0.00000000000E+00  0.94511053621E+03  0.94511053621E+03  0.00000000000E+00 0.  1.
          2   -1    0    0  501    0  0.00000000000E+00 -0.00000000000E+00 -0.84377858439E+03  0.84377858439E+03  0.00000000000E+00 0. -1.
         23    2    1    2    0    0  0.41118849919E+03 -0.22827049905E+03 -0.58981059861E+03  0.75978744695E+03  0.90647778326E+02 0.  0.
    5000000    2    1    2    0    0 -0.41118849919E+03  0.22827049905E+03  0.69114255042E+03  0.10291016737E+04  0.60015733530E+03 0.  0.
         23    2    4    4    0    0 -0.41723985020E+03  0.27369645626E+03  0.23047472570E+03  0.55727303889E+03  0.91846599974E+02 0.  0.
         23    2    4    4    0    0  0.60513510169E+01 -0.45425957209E+02  0.46066782472E+03  0.47182863476E+03  0.91144277955E+02 0.  0.
          5    1    3    3  502    0  0.21768859730E+03 -0.98213091123E+02 -0.36259204211E+03  0.43419951136E+03  0.47000000000E+01 0. -1.
         -5    1    3    3    0  502  0.19349990188E+03 -0.13005740793E+03 -0.22721855649E+03  0.32558793559E+03  0.47000000000E+01 0.  1.
         13    1    5    5    0    0 -0.10446582288E+03  0.10384114651E+03  0.35765285875E+02  0.15157588044E+03  0.00000000000E+00 0. -1.
        -13    1    5    5    0    0 -0.31277402733E+03  0.16985530974E+03  0.19470943982E+03  0.40569715845E+03  0.00000000000E+00 0.  1.
          2    1    6    6  503    0 -0.36601420273E+02 -0.46629490572E+02  0.25929783026E+03  0.26598747740E+03  0.00000000000E+00 0.  1.
         -2    1    6    6    0  503  0.42652771290E+02  0.12035333626E+01  0.20136999446E+03  0.20584115735E+03  0.00000000000E+00 0. -1.
<mgrwt>
<rscale>  0 0.53861079E+03</rscale>
<asrwt>0</asrwt>
<pdfrwt beam="1">  1        2 0.12981209E+00 0.53861079E+03</pdfrwt>
<pdfrwt beam="2">  1       -2 0.14540162E+00 0.53861079E+03</pdfrwt>
<totfact> 0.10902095E+01</totfact>
</mgrwt>
</event>
<event>
12    1  0.3203156E-008  0.4674079E+03  0.7818608E-02  0.1022654E+00
         -2   -1    0    0    0  501 -0.00000000000E+00  0.00000000000E+00  0.15551515479E+04  0.15551515479E+04  0.00000000000E+00 0.  1.
          2   -1    0    0  501    0  0.00000000000E+00 -0.00000000000E+00 -0.20348844559E+03  0.20348844559E+03  0.00000000000E+00 0. -1.
         23    2    1    2    0    0 -0.13023247433E+02  0.32116802569E+03  0.12751776138E+03  0.35797862724E+03  0.92571120737E+02 0.  0.
    5000000    2    1    2    0    0  0.13023247433E+02 -0.32116802569E+03  0.12241453409E+04  0.14006613663E+04  0.60000161791E+03 0.  0.
         23    2    4    4    0    0  0.23552251360E+03 -0.27387744002E+03  0.10048769595E+04  0.10718968778E+04  0.93303303090E+02 0.  0.
         23    2    4    4    0    0 -0.22249926617E+03 -0.47290585669E+02  0.21926838148E+03  0.32876448848E+03  0.90912830952E+02 0.  0.
          5    1    3    3  502    0 -0.44670243645E+02  0.26842228003E+03  0.11247568440E+03  0.29448059472E+03  0.47000000000E+01 0. -1.
         -5    1    3    3    0  502  0.31646996212E+02  0.52745745658E+02  0.15042076979E+02  0.63498032521E+02  0.47000000000E+01 0.  1.
         11    1    5    5    0    0  0.78725550824E+02 -0.32956638848E+02  0.24786889264E+03  0.26215041548E+03  0.00000000000E+00 0.  1.
        -11    1    5    5    0    0  0.15679696278E+03 -0.24092080117E+03  0.75700806682E+03  0.80974646230E+03  0.00000000000E+00 0. -1.
          2    1    6    6  503    0 -0.18508512124E+03 -0.46105555372E+02  0.12689604085E+03  0.22909567766E+03  0.00000000000E+00 0. -1.
         -2    1    6    6    0  503 -0.37414144934E+02 -0.11850302963E+01  0.92372340622E+02  0.99668810819E+02  0.00000000000E+00 0.  1.
<mgrwt>
<rscale>  0 0.46740791E+03</rscale>
<asrwt>0</asrwt>
<pdfrwt beam="1">  1        2 0.31305916E-01 0.46740791E+03</pdfrwt>
<pdfrwt beam="2">  1       -2 0.23925408E+00 0.46740791E+03</pdfrwt>
<totfact> 0.13444812E+01</totfact>
</mgrwt>
</event>
<event>
12    1  0.3203156E-008  0.6898805E+03  0.7818608E-02  0.9734696E-01
         -2   -1    0    0    0  501 -0.00000000000E+00  0.00000000000E+00  0.81935887622E+03  0.81935887622E+03  0.00000000000E+00 0.  1.
          2   -1    0    0  501    0  0.00000000000E+00 -0.00000000000E+00 -0.10399354423E+04  0.10399354423E+04  0.00000000000E+00 0. -1.
         23    2    1    2    0    0 -0.55433841287E+03  0.15478007999E+03 -0.69082360400E+03  0.90382537975E+03  0.91733941914E+02 0.  0.
    5000000    2    1    2    0    0  0.55433841287E+03 -0.15478007999E+03  0.47024703788E+03  0.95546893881E+03  0.60045038699E+03 0.  0.
         23    2    4    4    0    0  0.84651979032E+02  0.19258366082E+03  0.20445379996E+03  0.30769839087E+03  0.92857522342E+02 0.  0.
         23    2    4    4    0    0  0.46968643384E+03 -0.34736374081E+03  0.26579323792E+03  0.64777054794E+03  0.87713869409E+02 0.  0.
          5    1    3    3  502    0 -0.42174378118E+03  0.81321383014E+02 -0.53917125367E+03  0.68935383881E+03  0.47000000000E+01 0. -1.
         -5    1    3    3    0  502 -0.13259463169E+03  0.73458696971E+02 -0.15165235033E+03  0.21447154095E+03  0.47000000000E+01 0.  1.
         11    1    5    5    0    0  0.95165884281E+01  0.35661267022E+01  0.53353547003E+02  0.54312831751E+02  0.00000000000E+00 0.  1.
        -11    1    5    5    0    0  0.75135390604E+02  0.18901753412E+03  0.15110025296E+03  0.25338555912E+03  0.00000000000E+00 0. -1.
          1    1    6    6  503    0  0.28489444602E+03 -0.22933711038E+03  0.12193608069E+03  0.38552401137E+03  0.00000000000E+00 0. -1.
         -1    1    6    6    0  503  0.18479198782E+03 -0.11802663043E+03  0.14385715723E+03  0.26224653656E+03  0.00000000000E+00 0.  1.
<mgrwt>
<rscale>  0 0.68988054E+03</rscale>
<asrwt>0</asrwt>
<pdfrwt beam="1">  1        2 0.15999007E+00 0.68988054E+03</pdfrwt>
<pdfrwt beam="2">  1       -2 0.12605521E+00 0.68988054E+03</pdfrwt>
<totfact> 0.11432556E+01</totfact>
</mgrwt>
</event>
<event>
12    1  0.3203156E-008  0.4749229E+03  0.7818608E-02  0.1020540E+00
          2   -1    0    0  501    0  0.00000000000E+00  0.00000000000E+00  0.12408533477E+04  0.12408533477E+04  0.00000000000E+00 0. -1.
         -2   -1    0    0    0  501 -0.00000000000E+00 -0.00000000000E+00 -0.19538266781E+03  0.19538266781E+03  0.00000000000E+00 0.  1.
         23    2    1    2    0    0 -0.14709697795E+03 -0.25859946259E+03  0.39231351730E+03  0.50079562854E+03  0.91515915215E+02 0.  0.
    5000000    2    1    2    0    0  0.14709697795E+03  0.25859946259E+03  0.65315716261E+03  0.93544038699E+03  0.59993602623E+03 0.  0.
         23    2    4    4    0    0 -0.11369526907E+03  0.34688446899E+03  0.41830656144E+03  0.56230442095E+03  0.89165203093E+02 0.  0.
         23    2    4    4    0    0  0.26079224702E+03 -0.88285006402E+02  0.23485060117E+03  0.37313596603E+03  0.90932974322E+02 0.  0.
          5    1    3    3  502    0 -0.15140644187E+03 -0.22149013604E+03  0.30824094536E+03  0.40867635287E+03  0.47000000000E+01 0. -1.
         -5    1    3    3    0  502  0.43094639288E+01 -0.37109326552E+02  0.84072571947E+02  0.92119275672E+02  0.47000000000E+01 0.  1.
         13    1    5    5    0    0 -0.12033183129E+02  0.53487370653E+02  0.11901783478E+03  0.13103793844E+03  0.00000000000E+00 0. -1.
        -13    1    5    5    0    0 -0.10166208595E+03  0.29339709834E+03  0.29928872667E+03  0.43126648251E+03  0.00000000000E+00 0.  1.
          1    1    6    6  503    0  0.15492208886E+03 -0.74014017679E+02  0.19322334116E+03  0.25848440572E+03  0.00000000000E+00 0. -1.
         -1    1    6    6    0  503  0.10587015816E+03 -0.14270988722E+02  0.41627260010E+02  0.11465156032E+03  0.00000000000E+00 0.  1.
<mgrwt>
<rscale>  0 0.47492286E+03</rscale>
<asrwt>0</asrwt>
<pdfrwt beam="1">  1        2 0.19090051E+00 0.47492286E+03</pdfrwt>
<pdfrwt beam="2">  1       -2 0.30058873E-01 0.47492286E+03</pdfrwt>
<totfact> 0.18953120E+02</totfact>
</mgrwt>
</event>
<event>
12    1  0.3203156E-008  0.6803511E+03  0.7818608E-02  0.9751437E-01
          1   -1    0    0  501    0  0.00000000000E+00  0.00000000000E+00  0.10091069533E+04  0.10091069533E+04  0.00000000000E+00 0. -1.
         -1   -1    0    0    0  501 -0.00000000000E+00 -0.00000000000E+00 -0.48598401775E+03  0.48598401775E+03  0.00000000000E+00 0.  1.
         23    2    1    2    0    0 -0.10222460892E+03 -0.54023546185E+03  0.36416084083E+03  0.66588427177E+03  0.92111456823E+02 0.  0.
    5000000    2    1    2    0    0  0.10222460892E+03  0.54023546185E+03  0.15896209476E+03  0.82920669934E+03  0.60000881472E+03 0.  0.
         23    2    4    4    0    0  0.27785055887E+03  0.67473788101E+02  0.31349117819E+02  0.30109379679E+03  0.89000349046E+02 0.  0.
         23    2    4    4    0    0 -0.17562594995E+03  0.47276167375E+03  0.12761297694E+03  0.52811290255E+03  0.90940043394E+02 0.  0.
          5    1    3    3  502    0 -0.95842305821E+02 -0.32142716058E+03  0.25413777458E+03  0.42084351678E+03  0.47000000000E+01 0. -1.
         -5    1    3    3    0  502 -0.63823030963E+01 -0.21880830127E+03  0.11002306625E+03  0.24504075499E+03  0.47000000000E+01 0.  1.
         13    1    5    5    0    0  0.17659649535E+03  0.84939763265E+02  0.10449362825E+02  0.19624034941E+03  0.00000000000E+00 0.  1.
        -13    1    5    5    0    0  0.10125406352E+03 -0.17465975164E+02  0.20899754993E+02  0.10485344738E+03  0.00000000000E+00 0. -1.
          1    1    6    6  503    0 -0.14580052610E+03  0.31591507628E+03  0.53253685728E+02  0.35198875533E+03  0.00000000000E+00 0. -1.
         -1    1    6    6    0  503 -0.29825423855E+02  0.15684659747E+03  0.74359291216E+02  0.17612414722E+03  0.00000000000E+00 0.  1.
<mgrwt>
<rscale>  0 0.68035109E+03</rscale>
<asrwt>0</asrwt>
<pdfrwt beam="1">  1        1 0.15524722E+00 0.68035109E+03</pdfrwt>
<pdfrwt beam="2">  1       -1 0.74766772E-01 0.68035109E+03</pdfrwt>
<totfact> 0.27755108E+01</totfact>
</mgrwt>
</event>
<event>
12    1  0.3203156E-008  0.6676111E+03  0.7818608E-02  0.9774283E-01
          2   -1    0    0  501    0  0.00000000000E+00  0.00000000000E+00  0.12858707716E+04  0.12858707716E+04  0.00000000000E+00 0. -1.
         -2   -1    0    0    0  501 -0.00000000000E+00 -0.00000000000E+00 -0.38184730265E+03  0.38184730265E+03  0.00000000000E+00 0.  1.
         23    2    1    2    0    0 -0.14876493359E+03  0.54441474357E+03  0.44791466793E+03  0.72627178842E+03  0.91240026479E+02 0.  0.
    5000000    2    1    2    0    0  0.14876493359E+03 -0.54441474357E+03  0.45610880103E+03  0.94144628583E+03  0.59980617890E+03 0.  0.
         23    2    4    4    0    0  0.63588014692E+02  0.82936927132E+02  0.22127575969E+03  0.26154691619E+03  0.92313910365E+02 0.  0.
         23    2    4    4    0    0  0.85176918899E+02 -0.62735167070E+03  0.23483304133E+03  0.67989936964E+03  0.79318152328E+02 0.  0.
          5    1    3    3  502    0 -0.46654717012E+02  0.96439867225E+02  0.12482876943E+03  0.16456494854E+03  0.47000000000E+01 0. -1.
         -5    1    3    3    0  502 -0.10211021658E+03  0.44797487634E+03  0.32308589850E+03  0.56170683989E+03  0.47000000000E+01 0.  1.
         11    1    5    5    0    0 -0.25272267697E+01  0.67379748383E+02  0.14170978988E+03  0.15693336775E+03  0.00000000000E+00 0.  1.
        -11    1    5    5    0    0  0.66115241461E+02  0.15557178750E+02  0.79565969817E+02  0.10461354844E+03  0.00000000000E+00 0. -1.
          2    1    6    6  503    0  0.80004796489E+02 -0.57409836026E+03  0.23729832168E+03  0.62633871682E+03  0.00000000000E+00 0. -1.
         -2    1    6    6    0  503  0.51721224097E+01 -0.53253310441E+02 -0.24652803492E+01  0.53560652818E+02  0.00000000000E+00 0.  1.
<mgrwt>
<rscale>  0 0.66761115E+03</rscale>
<asrwt>0</asrwt>
<pdfrwt beam="1">  1        2 0.19782627E+00 0.66761115E+03</pdfrwt>
<pdfrwt beam="2">  1       -2 0.58745739E-01 0.66761115E+03</pdfrwt>
<totfact> 0.46898615E+01</totfact>
</mgrwt>
</event>
<event>
12    1  0.3203156E-008  0.8635118E+03  0.7818608E-02  0.9472379E-01
          2   -1    0    0  501    0  0.00000000000E+00  0.00000000000E+00  0.17074762171E+04  0.17074762171E+04  0.00000000000E+00 0. -1.
         -2   -1    0    0    0  501 -0.00000000000E+00 -0.00000000000E+00 -0.55849666876E+03  0.55849666876E+03  0.00000000000E+00 0.  1.
         23    2    1    2    0    0 -0.67173367630E+03 -0.51389485076E+03  0.81210729975E+03  0.11755726712E+04  0.84491357237E+02 0.  0.
    5000000    2    1    2    0    0  0.67173367630E+03  0.51389485076E+03  0.33687224859E+03  0.10904002147E+04  0.60014637111E+03 0.  0.
         23    2    4    4    0    0  0.56860440516E+03  0.42853134338E+03  0.24420748683E+01  0.71766279993E+03  0.89910226566E+02 0.  0.
         23    2    4    4    0    0  0.10312927113E+03  0.85363507382E+02  0.33443017372E+03  0.37273741473E+03  0.95744787267E+02 0.  0.
          5    1    3    3  502    0 -0.49338844953E+03 -0.41893654566E+03  0.59984008219E+03  0.88247957801E+03  0.47000000000E+01 0. -1.
         -5    1    3    3    0  502 -0.17834522677E+03 -0.94958305106E+02  0.21226721756E+03  0.29309309318E+03  0.47000000000E+01 0.  1.
         13    1    5    5    0    0  0.33051444497E+03  0.27446685427E+03  0.40537582799E+02  0.43152653226E+03  0.00000000000E+00 0. -1.
        -13    1    5    5    0    0  0.23808996020E+03  0.15406448911E+03 -0.38095507931E+02  0.28613626767E+03  0.00000000000E+00 0.  1.
          1    1    6    6  503    0  0.17210376916E+02  0.76100539334E+02  0.15074559085E+03  0.16974016119E+03  0.00000000000E+00 0. -1.
         -1    1    6    6    0  503  0.85918894216E+02  0.92629680477E+01  0.18368458288E+03  0.20299725354E+03  0.00000000000E+00 0.  1.
<mgrwt>
<rscale>  0 0.86351178E+03</rscale>
<asrwt>0</asrwt>
<pdfrwt beam="1">  1        2 0.26268865E+00 0.86351178E+03</pdfrwt>
<pdfrwt beam="2">  1       -2 0.85922565E-01 0.86351178E+03</pdfrwt>
<totfact> 0.11574006E+01</totfact>
</mgrwt>
</event>
<event>
12    1  0.3203156E-008  0.7347684E+03  0.7818608E-02  0.9659554E-01
          2   -1    0    0  501    0  0.00000000000E+00  0.00000000000E+00  0.51869232119E+03  0.51869232119E+03  0.00000000000E+00 0. -1.
         -2   -1    0    0    0  501 -0.00000000000E+00 -0.00000000000E+00 -0.10991968479E+04  0.10991968479E+04  0.00000000000E+00 0.  1.
         23    2    1    2    0    0  0.78794441321E+02 -0.62661910317E+03 -0.27319337946E+03  0.69408734537E+03  0.90898602680E+02 0.  0.
    5000000    2    1    2    0    0 -0.78794441321E+02  0.62661910317E+03 -0.30731114721E+03  0.92380182368E+03  0.60009132953E+03 0.  0.
         23    2    4    4    0    0 -0.13561790291E+03  0.70192202827E+03 -0.18118583674E+03  0.74303589164E+03  0.90483586734E+02 0.  0.
         23    2    4    4    0    0  0.56823461587E+02 -0.75302925092E+02 -0.12612531047E+03  0.18076593204E+03  0.88709029594E+02 0.  0.
          5    1    3    3  502    0  0.51559814494E+01 -0.38556401418E+03 -0.17622434993E+03  0.42398502885E+03  0.47000000000E+01 0. -1.
         -5    1    3    3    0  502  0.73638459871E+02 -0.24105508899E+03 -0.96969029531E+02  0.27010231652E+03  0.47000000000E+01 0.  1.
         13    1    5    5    0    0 -0.94551649389E+02  0.36091384659E+03 -0.55038737166E+02  0.37713138514E+03  0.00000000000E+00 0. -1.
        -13    1    5    5    0    0 -0.41066253519E+02  0.34100818167E+03 -0.12614709958E+03  0.36590450650E+03  0.00000000000E+00 0.  1.
          1    1    6    6  503    0  0.38887394348E+02 -0.85986837628E+02 -0.12884866761E+03  0.15971206852E+03  0.00000000000E+00 0. -1.
         -1    1    6    6    0  503  0.17936067239E+02  0.10683912536E+02  0.27233571459E+01  0.21053863523E+02  0.00000000000E+00 0.  1.
<mgrwt>
<rscale>  0 0.73476844E+03</rscale>
<asrwt>0</asrwt>
<pdfrwt beam="1">  1        2 0.79798818E-01 0.73476844E+03</pdfrwt>
<pdfrwt beam="2">  1       -2 0.16910721E+00 0.73476844E+03</pdfrwt>
<totfact> 0.12976334E+01</totfact>
</mgrwt>
</event>
<event>
12    1  0.3203156E-008  0.5848683E+03  0.7818608E-02  0.9937307E-01
          1   -1    0    0  501    0  0.00000000000E+00  0.00000000000E+00  0.12521427876E+04  0.12521427876E+04  0.00000000000E+00 0. -1.
         -1   -1    0    0    0  501 -0.00000000000E+00 -0.00000000000E+00 -0.36544939814E+03  0.36544939814E+03  0.00000000000E+00 0.  1.
         23    2    1    2    0    0  0.81094987141E+02 -0.52923066323E+03  0.44028782865E+03  0.69782741976E+03  0.80300958110E+02 0.  0.
    5000000    2    1    2    0    0 -0.81094987141E+02  0.52923066323E+03  0.44640556076E+03  0.91976476594E+03  0.60002317301E+03 0.  0.
         23    2    4    4    0    0 -0.11473319026E+03  0.53140773394E+03  0.55035177561E+03  0.77813629637E+03  0.83971031798E+02 0.  0.
         23    2    4    4    0    0  0.33638203115E+02 -0.21770707158E+01 -0.10394621485E+03  0.14162846956E+03  0.90097388770E+02 0.  0.
          5    1    3    3  502    0  0.74821328894E+02 -0.41772865541E+03  0.38548790991E+03  0.57333975921E+03  0.47000000000E+01 0. -1.
         -5    1    3    3    0  502  0.62736582472E+01 -0.11150200781E+03  0.54799918746E+02  0.12448766055E+03  0.47000000000E+01 0.  1.
         13    1    5    5    0    0 -0.12155086377E+03  0.41791046987E+03  0.41510276562E+03  0.60144333011E+03  0.00000000000E+00 0.  1.
        -13    1    5    5    0    0  0.68176735171E+01  0.11349726407E+03  0.13524900998E+03  0.17669296626E+03  0.00000000000E+00 0. -1.
          3    1    6    6  503    0 -0.57061953711E+01 -0.33719712733E+02 -0.11071287288E+02  0.35946531052E+02  0.00000000000E+00 0. -1.
         -3    1    6    6    0  503  0.39344398487E+02  0.31542642018E+02 -0.92874927562E+02  0.10568193851E+03  0.00000000000E+00 0.  1.
<mgrwt>
<rscale>  0 0.58486828E+03</rscale>
<asrwt>0</asrwt>
<pdfrwt beam="1">  1        1 0.19263735E+00 0.58486828E+03</pdfrwt>
<pdfrwt beam="2">  1       -1 0.56222985E-01 0.58486828E+03</pdfrwt>
<totfact> 0.32950014E+01</totfact>
</mgrwt>
</event>
<event>
12    1  0.3203156E-008  0.4313218E+03  0.7818608E-02  0.1033443E+00
          4   -1    0    0  501    0  0.00000000000E+00  0.00000000000E+00  0.29422578435E+03  0.29422578435E+03  0.00000000000E+00 0. -1.
         -4   -1    0    0    0  501 -0.00000000000E+00 -0.00000000000E+00 -0.70785538875E+03  0.70785538875E+03  0.00000000000E+00 0.  1.
         23    2    1    2    0    0  0.17849603652E+03  0.14976161113E+03 -0.30490019208E+02  0.25296550818E+03  0.93661794969E+02 0.  0.
    5000000    2    1    2    0    0 -0.17849603652E+03 -0.14976161113E+03 -0.38313958520E+03  0.74911566493E+03  0.60007413082E+03 0.  0.
         23    2    4    4    0    0  0.35964852225E+02  0.19079762569E+03 -0.51688710664E+02  0.21939814764E+03  0.88128427967E+02 0.  0.
         23    2    4    4    0    0 -0.21446088874E+03 -0.34055923681E+03 -0.33145087453E+03  0.52971751728E+03  0.93631721706E+02 0.  0.
          5    1    3    3  502    0  0.13372555966E+03  0.55012353919E+02 -0.38067788069E+01  0.14472548481E+03  0.47000000000E+01 0. -1.
         -5    1    3    3    0  502  0.44770476858E+02  0.94749257207E+02 -0.26683240401E+02  0.10824002336E+03  0.47000000000E+01 0.  1.
         11    1    5    5    0    0 -0.52146112470E+01  0.10797078467E+03  0.94672692286E+01  0.10851042208E+03  0.00000000000E+00 0. -1.
        -11    1    5    5    0    0  0.41179463472E+02  0.82826841018E+02 -0.61155979892E+02  0.11088772557E+03  0.00000000000E+00 0.  1.
          2    1    6    6  503    0 -0.16605616384E+03 -0.18054571209E+03 -0.21250798482E+03  0.32454745002E+03  0.00000000000E+00 0. -1.
         -2    1    6    6    0  503 -0.48404724901E+02 -0.16001352472E+03 -0.11894288972E+03  0.20517006726E+03  0.00000000000E+00 0.  1.
<mgrwt>
<rscale>  0 0.43132179E+03</rscale>
<asrwt>0</asrwt>
<pdfrwt beam="1">  1        4 0.45265505E-01 0.43132179E+03</pdfrwt>
<pdfrwt beam="2">  1       -4 0.10890083E+00 0.43132179E+03</pdfrwt>
<totfact> 0.61704775E+00</totfact>
</mgrwt>
</event>
<event>
12    1  0.3203156E-008  0.3842771E+03  0.7818608E-02  0.1049364E+00
          1   -1    0    0  501    0  0.00000000000E+00  0.00000000000E+00  0.11094940947E+04  0.11094940947E+04  0.00000000000E+00 0. -1.
         -1   -1    0    0    0  501 -0.00000000000E+00 -0.00000000000E+00 -0.18172206954E+03  0.18172206954E+03  0.00000000000E+00 0.  1.
         23    2    1    2    0    0 -0.36754964455E+02  0.21872071559E+03  0.14727969582E+03  0.28205226351E+03  0.93126213879E+02 0.  0.
    5000000    2    1    2    0    0  0.36754964455E+02 -0.21872071559E+03  0.78049232938E+03  0.10091639008E+04  0.60004485126E+03 0.  0.
         23    2    4    4    0    0 -0.90245344632E+02 -0.34208552602E+03  0.70853730531E+03  0.79715447351E+03  0.90903312876E+02 0.  0.
         23    2    4    4    0    0  0.12700030909E+03  0.12336481043E+03  0.71955024072E+02  0.21200942724E+03  0.91774270843E+02 0.  0.
          5    1    3    3  502    0 -0.16038296785E+02  0.13730917866E+03  0.14125087081E+03  0.19769910473E+03  0.47000000000E+01 0. -1.
         -5    1    3    3    0  502 -0.20716667670E+02  0.81411536939E+02  0.60288250100E+01  0.84353158786E+02  0.47000000000E+01 0.  1.
         11    1    5    5    0    0 -0.32659413763E+02 -0.20699970631E+02  0.69167998612E+02  0.79242274850E+02  0.00000000000E+00 0. -1.
        -11    1    5    5    0    0 -0.57585930869E+02 -0.32138555539E+03  0.63936930669E+03  0.71791219866E+03  0.00000000000E+00 0.  1.
          4    1    6    6  503    0  0.11204848635E+03  0.87823173208E+02  0.91040808904E+02  0.16898580394E+03  0.00000000000E+00 0. -1.
         -4    1    6    6    0  503  0.14951822734E+02  0.35541637220E+02 -0.19085784832E+02  0.43023623302E+02  0.00000000000E+00 0.  1.
<mgrwt>
<rscale>  0 0.38427715E+03</rscale>
<asrwt>0</asrwt>
<pdfrwt beam="1">  1        1 0.17069139E+00 0.38427715E+03</pdfrwt>
<pdfrwt beam="2">  1       -1 0.27957242E-01 0.38427715E+03</pdfrwt>
<totfact> 0.15180914E+02</totfact>
</mgrwt>
</event>
<event>
12    1  0.3203156E-008  0.5330356E+03  0.7818608E-02  0.1005499E+00
          1   -1    0    0  501    0  0.00000000000E+00  0.00000000000E+00  0.27852606523E+04  0.27852606523E+04  0.00000000000E+00 0. -1.
         -1   -1    0    0    0  501 -0.00000000000E+00 -0.00000000000E+00 -0.14190619211E+03  0.14190619211E+03  0.00000000000E+00 0.  1.
         23    2    1    2    0    0 -0.29991184133E+03  0.22611068442E+03  0.33209936046E+03  0.50978551659E+03  0.92293735032E+02 0.  0.
    5000000    2    1    2    0    0  0.29991184133E+03 -0.22611068442E+03  0.23112550998E+04  0.24173813278E+04  0.60063232840E+03 0.  0.
         23    2    4    4    0    0  0.22898588378E+03 -0.41709168877E+03  0.16213495217E+04  0.16921820284E+04  0.91135799882E+02 0.  0.
         23    2    4    4    0    0  0.70925957555E+02  0.19098100436E+03  0.68990557808E+03  0.72519929944E+03  0.91869917618E+02 0.  0.
          5    1    3    3  502    0 -0.74681340770E+02  0.14201738517E+02  0.49506236369E+02  0.90840241498E+02  0.47000000000E+01 0. -1.
         -5    1    3    3    0  502 -0.22523050056E+03  0.21190894590E+03  0.28259312409E+03  0.41894527509E+03  0.47000000000E+01 0.  1.
         13    1    5    5    0    0  0.11202243514E+03 -0.21473045696E+03  0.98270912556E+03  0.10121143318E+04  0.00000000000E+00 0.  1.
        -13    1    5    5    0    0  0.11696344863E+03 -0.20236123181E+03  0.63864039612E+03  0.68006769664E+03  0.00000000000E+00 0. -1.
          4    1    6    6  503    0  0.42384149213E+02  0.13993677631E+03  0.33515426175E+03  0.36565980998E+03  0.00000000000E+00 0. -1.
         -4    1    6    6    0  503  0.28541808342E+02  0.51044228046E+02  0.35475131633E+03  0.35953948946E+03  0.00000000000E+00 0.  1.
<mgrwt>
<rscale>  0 0.53303562E+03</rscale>
<asrwt>0</asrwt>
<pdfrwt beam="1">  1        1 0.42850160E+00 0.53303562E+03</pdfrwt>
<pdfrwt beam="2">  1       -1 0.21831724E-01 0.53303562E+03</pdfrwt>
<totfact> 0.16532704E+01</totfact>
</mgrwt>
</event>
<event>
12    1  0.3203156E-008  0.5930843E+03  0.7818608E-02  0.9919859E-01
         -2   -1    0    0    0  501 -0.00000000000E+00  0.00000000000E+00  0.88527924695E+03  0.88527924695E+03  0.00000000000E+00 0.  1.
          2   -1    0    0  501    0  0.00000000000E+00 -0.00000000000E+00 -0.46328668410E+03  0.46328668410E+03  0.00000000000E+00 0. -1.
         23    2    1    2    0    0 -0.18477430351E+03  0.45242863115E+03  0.24852520403E+03  0.55561335420E+03  0.90045615126E+02 0.  0.
    5000000    2    1    2    0    0  0.18477430351E+03 -0.45242863115E+03  0.17346735882E+03  0.79295257686E+03  0.59987469946E+03 0.  0.
         23    2    4    4    0    0  0.17692774808E+03 -0.54146919566E+03 -0.61097390605E+01  0.57665461102E+03  0.89447714415E+02 0.  0.
         23    2    4    4    0    0  0.78465554387E+01  0.89040564513E+02  0.17957709788E+03  0.21629796584E+03  0.80914061713E+02 0.  0.
          5    1    3    3  502    0 -0.12358896683E+03  0.19762889343E+03  0.94071755624E+02  0.25140206334E+03  0.47000000000E+01 0. -1.
         -5    1    3    3    0  502 -0.61185336680E+02  0.25479973771E+03  0.15445344841E+03  0.30421129086E+03  0.47000000000E+01 0.  1.
         11    1    5    5    0    0  0.38261728827E+02 -0.20128345898E+03  0.31804762517E+02  0.20734158693E+03  0.00000000000E+00 0. -1.
        -11    1    5    5    0    0  0.13866601925E+03 -0.34018573668E+03 -0.37914501577E+02  0.36931302409E+03  0.00000000000E+00 0.  1.
          2    1    6    6  503    0  0.40571679014E+02  0.27556959899E+02  0.93393079911E+02  0.10548798298E+03  0.00000000000E+00 0. -1.
         -2    1    6    6    0  503 -0.32725123576E+02  0.61483604614E+02  0.86184017965E+02  0.11080998286E+03  0.00000000000E+00 0.  1.
<mgrwt>
<rscale>  0 0.59308433E+03</rscale>
<asrwt>0</asrwt>
<pdfrwt beam="1">  1        2 0.71274875E-01 0.59308433E+03</pdfrwt>
<pdfrwt beam="2">  1       -2 0.13619681E+00 0.59308433E+03</pdfrwt>
<totfact> 0.26635847E+01</totfact>
</mgrwt>
</event>
<event>
12    1  0.3203156E-008  0.9860507E+03  0.7818608E-02  0.9323978E-01
          2   -1    0    0  501    0  0.00000000000E+00  0.00000000000E+00  0.48163975357E+03  0.48163975357E+03  0.00000000000E+00 0. -1.
         -2   -1    0    0    0  501 -0.00000000000E+00 -0.00000000000E+00 -0.26811056937E+04  0.26811056937E+04  0.00000000000E+00 0.  1.
         23    2    1    2    0    0  0.62849388746E+02  0.93016389074E+03 -0.33718165320E+03  0.99542947924E+03  0.89629635565E+02 0.  0.
    5000000    2    1    2    0    0 -0.62849388746E+02 -0.93016389074E+03 -0.18622842869E+04  0.21673159680E+04  0.60000069215E+03 0.  0.
         23    2    4    4    0    0 -0.14755846055E+03 -0.92304570771E+03 -0.13744088510E+04  0.16646517439E+04  0.90988247384E+02 0.  0.
         23    2    4    4    0    0  0.84709071802E+02 -0.71181830362E+01 -0.48787543592E+03  0.50266422405E+03  0.86154429896E+02 0.  0.
          5    1    3    3  502    0  0.95530402391E+01  0.31973065874E+03 -0.72983555888E+02  0.32812748155E+03  0.47000000000E+01 0. -1.
         -5    1    3    3    0  502  0.53296348506E+02  0.61043323200E+03 -0.26419809732E+03  0.66730199769E+03  0.47000000000E+01 0.  1.
         13    1    5    5    0    0 -0.42385334645E+02 -0.29903905661E+03 -0.37142200012E+03  0.47872244165E+03  0.00000000000E+00 0. -1.
        -13    1    5    5    0    0 -0.10517312590E+03 -0.62400665110E+03 -0.10029868508E+04  0.11859293023E+04  0.00000000000E+00 0.  1.
          3    1    6    6  503    0  0.13572132593E+00  0.16716137551E+02 -0.17689954330E+02  0.24338902176E+02  0.00000000000E+00 0. -1.
         -3    1    6    6    0  503  0.84573350476E+02 -0.23834320587E+02 -0.47018548159E+03  0.47832532187E+03  0.00000000000E+00 0.  1.
<mgrwt>
<rscale>  0 0.98605070E+03</rscale>
<asrwt>0</asrwt>
<pdfrwt beam="1">  1        2 0.74098425E-01 0.98605070E+03</pdfrwt>
<pdfrwt beam="2">  1       -2 0.41247779E+00 0.98605070E+03</pdfrwt>
<totfact> 0.40452368E-01</totfact>
</mgrwt>
</event>
<event>
12    1  0.3203156E-008  0.5896423E+03  0.7818608E-02  0.9927131E-01
         -2   -1    0    0    0  501 -0.00000000000E+00  0.00000000000E+00  0.46452510438E+03  0.46452510438E+03  0.00000000000E+00 0.  1.
          2   -1    0    0  501    0  0.00000000000E+00 -0.00000000000E+00 -0.10835458952E+04  0.10835458952E+04  0.00000000000E+00 0. -1.
         23    2    1    2    0    0 -0.39503982760E+03  0.25582767160E+03  0.11274314379E+03  0.49124010701E+03  0.84270773766E+02 0.  0.
    5000000    2    1    2    0    0  0.39503982760E+03 -0.25582767160E+03 -0.73176393460E+03  0.10568308926E+04  0.59992400896E+03 0.  0.
         23    2    4    4    0    0  0.28330772473E+03 -0.41075481787E+03 -0.66045696729E+03  0.83291963209E+03  0.92568464317E+02 0.  0.
         23    2    4    4    0    0  0.11173210287E+03  0.15492714627E+03 -0.71306967313E+02  0.22391126047E+03  0.92547747211E+02 0.  0.
          5    1    3    3  502    0 -0.59671211932E+02  0.47842868782E+02 -0.11513485590E+02  0.77487056836E+02  0.47000000000E+01 0. -1.
         -5    1    3    3    0  502 -0.33536861567E+03  0.20798480282E+03  0.12425662938E+03  0.41375305017E+03  0.47000000000E+01 0.  1.
         13    1    5    5    0    0  0.20464447884E+03 -0.33766083414E+03 -0.46594802893E+03  0.61073870624E+03  0.00000000000E+00 0. -1.
        -13    1    5    5    0    0  0.78663245890E+02 -0.73093983729E+02 -0.19450893836E+03  0.22218092586E+03  0.00000000000E+00 0.  1.
          2    1    6    6  503    0  0.23700068453E+02  0.98298613873E+02 -0.76562978713E+01  0.10140478111E+03  0.00000000000E+00 0. -1.
         -2    1    6    6    0  503  0.88032034419E+02  0.56628532395E+02 -0.63650669442E+02  0.12250647936E+03  0.00000000000E+00 0.  1.
<mgrwt>
<rscale>  0 0.58964227E+03</rscale>
<asrwt>0</asrwt>
<pdfrwt beam="1">  1        2 0.16669937E+00 0.58964227E+03</pdfrwt>
<pdfrwt beam="2">  1       -2 0.71465401E-01 0.58964227E+03</pdfrwt>
<totfact> 0.40974848E+01</totfact>
</mgrwt>
</event>
<event>
12    1  0.3203156E-008  0.9209426E+03  0.7818608E-02  0.9399774E-01
         -1   -1    0    0    0  501 -0.00000000000E+00  0.00000000000E+00  0.16774581250E+04  0.16774581250E+04  0.00000000000E+00 0.  1.
          1   -1    0    0  501    0  0.00000000000E+00 -0.00000000000E+00 -0.56277944529E+03  0.56277944529E+03  0.00000000000E+00 0. -1.
         23    2    1    2    0    0  0.44749645610E+03  0.68827577461E+03  0.85894436793E+03  0.11917471948E+04  0.92191805043E+02 0.  0.
    5000000    2    1    2    0    0 -0.44749645610E+03 -0.68827577461E+03  0.25573431177E+03  0.10484903755E+04  0.59996283982E+03 0.  0.
         23    2    4    4    0    0  0.13222257979E+03 -0.16944276453E+03  0.44729945222E+02  0.23735688956E+03  0.90243359670E+02 0.  0.
         23    2    4    4    0    0 -0.57971903589E+03 -0.51883301008E+03  0.21100436655E+03  0.81113348594E+03  0.90293058340E+02 0.  0.
          5    1    3    3  502    0  0.16496210054E+03  0.17806256355E+03  0.24377438059E+03  0.34404477874E+03  0.47000000000E+01 0. -1.
         -5    1    3    3    0  502  0.28253435556E+03  0.51021321106E+03  0.61516998734E+03  0.84770241603E+03  0.47000000000E+01 0.  1.
         13    1    5    5    0    0  0.47844505243E+02 -0.13261953809E+03  0.29580115133E+02  0.14405562043E+03  0.00000000000E+00 0. -1.
        -13    1    5    5    0    0  0.84378074551E+02 -0.36823226436E+02  0.15149830089E+02  0.93301269133E+02  0.00000000000E+00 0.  1.
          4    1    6    6  503    0 -0.31384579557E+03 -0.33822951322E+03  0.11182480188E+03  0.47476644082E+03  0.00000000000E+00 0. -1.
         -4    1    6    6    0  503 -0.26587324032E+03 -0.18060349686E+03  0.99179564664E+02  0.33636704512E+03  0.00000000000E+00 0.  1.
<mgrwt>
<rscale>  0 0.92094263E+03</rscale>
<asrwt>0</asrwt>
<pdfrwt beam="1">  1        1 0.86581454E-01 0.92094263E+03</pdfrwt>
<pdfrwt beam="2">  1       -1 0.25807048E+00 0.92094263E+03</pdfrwt>
<totfact> 0.23638634E+00</totfact>
</mgrwt>
</event>
<event>
12    1  0.3203156E-008  0.5419234E+03  0.7818608E-02  0.1003381E+00
         -1   -1    0    0    0  501 -0.00000000000E+00  0.00000000000E+00  0.74395056402E+03  0.74395056402E+03  0.00000000000E+00 0.  1.
          1   -1    0    0  501    0  0.00000000000E+00 -0.00000000000E+00 -0.46936315538E+03  0.46936315538E+03  0.00000000000E+00 0. -1.
         23    2    1    2    0    0 -0.36270340616E+03 -0.14346070082E+03 -0.88741375752E+02  0.41080500635E+03  0.93546715372E+02 0.  0.
    5000000    2    1    2    0    0  0.36270340616E+03  0.14346070082E+03  0.36332878439E+03  0.80250871304E+03  0.59989807086E+03 0.  0.
         23    2    4    4    0    0  0.50013814952E+03  0.17886580212E+03  0.32872219397E+03  0.63112558933E+03  0.90166983575E+02 0.  0.
         23    2    4    4    0    0 -0.13743474336E+03 -0.35405101305E+02  0.34606590420E+02  0.17138312371E+03  0.89625493640E+02 0.  0.
          5    1    3    3  502    0 -0.20878078648E+03 -0.11940914940E+03 -0.23043166083E+02  0.24166306972E+03  0.47000000000E+01 0. -1.
         -5    1    3    3    0  502 -0.15392261968E+03 -0.24051551417E+02 -0.65698209669E+02  0.16914193663E+03  0.47000000000E+01 0.  1.
         11    1    5    5    0    0  0.41549353132E+03  0.17068099172E+03  0.24440535094E+03  0.51137153917E+03  0.00000000000E+00 0. -1.
        -11    1    5    5    0    0  0.84644618195E+02  0.81848104003E+01  0.84316843036E+02  0.11975405016E+03  0.00000000000E+00 0.  1.
          3    1    6    6  503    0 -0.50746337522E+02 -0.42539770694E+02 -0.19397207748E+02  0.69000540078E+02  0.00000000000E+00 0. -1.
         -3    1    6    6    0  503 -0.86688405842E+02  0.71346693891E+01  0.54003798168E+02  0.10238258363E+03  0.00000000000E+00 0.  1.
<mgrwt>
<rscale>  0 0.54192342E+03</rscale>
<asrwt>0</asrwt>
<pdfrwt beam="1">  1        1 0.72209717E-01 0.54192342E+03</pdfrwt>
<pdfrwt beam="2">  1       -1 0.11445393E+00 0.54192342E+03</pdfrwt>
<totfact> 0.35125807E+01</totfact>
</mgrwt>
</event>
<event>
12    1  0.3203156E-008  0.5410610E+03  0.7818608E-02  0.1003584E+00
         -1   -1    0    0    0  501 -0.00000000000E+00  0.00000000000E+00  0.45333742170E+03  0.45333742170E+03  0.00000000000E+00 0.  1.
          1   -1    0    0  501    0  0.00000000000E+00 -0.00000000000E+00 -0.16565776075E+04  0.16565776075E+04  0.00000000000E+00 0. -1.
         23    2    1    2    0    0  0.49373813877E+03  0.67227044792E+02  0.16754631298E+03  0.53246928254E+03  0.84586905743E+02 0.  0.
    5000000    2    1    2    0    0 -0.49373813877E+03 -0.67227044792E+02 -0.13707864988E+04  0.15774457467E+04  0.60081830299E+03 0.  0.
         23    2    4    4    0    0 -0.31808411195E+03  0.80843931744E+02 -0.23194474677E+03  0.41197675873E+03  0.90626930912E+02 0.  0.
         23    2    4    4    0    0 -0.17565402683E+03 -0.14807097654E+03 -0.11388417520E+04  0.11654689879E+04  0.92617895077E+02 0.  0.
          5    1    3    3  502    0  0.37320322353E+03  0.78944155711E+02  0.15040427132E+03  0.41006872669E+03  0.47000000000E+01 0. -1.
         -5    1    3    3    0  502  0.12053491524E+03 -0.11717110918E+02  0.17142041660E+02  0.12240055585E+03  0.47000000000E+01 0.  1.
         11    1    5    5    0    0 -0.16136760337E+03 -0.52566206461E+01 -0.10274396334E+03  0.19137256198E+03  0.00000000000E+00 0. -1.
        -11    1    5    5    0    0 -0.15671650858E+03  0.86100552390E+02 -0.12920078343E+03  0.22060419674E+03  0.00000000000E+00 0.  1.
          4    1    6    6  503    0 -0.23564859216E+02 -0.57541006690E+02 -0.18022887667E+03  0.19065339763E+03  0.00000000000E+00 0. -1.
         -4    1    6    6    0  503 -0.15208916761E+03 -0.90529969847E+02 -0.95861287534E+03  0.97481559031E+03  0.00000000000E+00 0.  1.
<mgrwt>
<rscale>  0 0.54106096E+03</rscale>
<asrwt>0</asrwt>
<pdfrwt beam="1">  1        1 0.25485809E+00 0.54106096E+03</pdfrwt>
<pdfrwt beam="2">  1       -1 0.69744218E-01 0.54106096E+03</pdfrwt>
<totfact> 0.11450459E+01</totfact>
</mgrwt>
</event>
<event>
12    1  0.3203156E-008  0.5364973E+03  0.7818608E-02  0.1004668E+00
          2   -1    0    0  501    0  0.00000000000E+00  0.00000000000E+00  0.18154953334E+04  0.18154953334E+04  0.00000000000E+00 0. -1.
         -2   -1    0    0    0  501 -0.00000000000E+00 -0.00000000000E+00 -0.18566034094E+03  0.18566034094E+03  0.00000000000E+00 0.  1.
         23    2    1    2    0    0 -0.31758080228E+03  0.23990317908E+03  0.37476188754E+03  0.55412769753E+03  0.90553473189E+02 0.  0.
    5000000    2    1    2    0    0  0.31758080228E+03 -0.23990317908E+03  0.12550731049E+04  0.14470279768E+04  0.60022526241E+03 0.  0.
         23    2    4    4    0    0 -0.10015572505E+03  0.70925148118E+02  0.11874970012E+03  0.19367292103E+03  0.91357337764E+02 0.  0.
         23    2    4    4    0    0  0.41773652733E+03 -0.31082832720E+03  0.11363234048E+04  0.12533550558E+04  0.92465995331E+02 0.  0.
          5    1    3    3  502    0 -0.33126079670E+02  0.99840636963E+01  0.73574038195E+01  0.35682489728E+02  0.47000000000E+01 0. -1.
         -5    1    3    3    0  502 -0.28445472261E+03  0.22991911539E+03  0.36740448372E+03  0.51844520780E+03  0.47000000000E+01 0.  1.
         13    1    5    5    0    0  0.82347394497E+01  0.35987823030E+02  0.15806733629E+02  0.40159521514E+02  0.00000000000E+00 0. -1.
        -13    1    5    5    0    0 -0.10839046450E+03  0.34937325088E+02  0.10294296649E+03  0.15351339951E+03  0.00000000000E+00 0.  1.
          3    1    6    6  503    0  0.11456595997E+03 -0.10166420140E+03  0.24514870686E+03  0.28906549000E+03  0.00000000000E+00 0. -1.
         -3    1    6    6    0  503  0.30317056736E+03 -0.20916412581E+03  0.89117469791E+03  0.96428956576E+03  0.00000000000E+00 0.  1.
<mgrwt>
<rscale>  0 0.53649732E+03</rscale>
<asrwt>0</asrwt>
<pdfrwt beam="1">  1        2 0.27930696E+00 0.53649732E+03</pdfrwt>
<pdfrwt beam="2">  1       -2 0.28563131E-01 0.53649732E+03</pdfrwt>
<totfact> 0.99678488E+01</totfact>
</mgrwt>
</event>
<event>
12    1  0.3203156E-008  0.4958890E+03  0.7818608E-02  0.1014858E+00
         -2   -1    0    0    0  501 -0.00000000000E+00  0.00000000000E+00  0.57559624841E+03  0.57559624841E+03  0.00000000000E+00 0.  1.
          2   -1    0    0  501    0  0.00000000000E+00 -0.00000000000E+00 -0.29613717720E+04  0.29613717720E+04  0.00000000000E+00 0. -1.
         23    2    1    2    0    0 -0.28678131216E+01  0.47071523509E+03  0.41496727300E+03  0.63425658603E+03  0.92209123024E+02 0.  0.
    5000000    2    1    2    0    0  0.28678131216E+01 -0.47071523509E+03 -0.28007427966E+04  0.29027114344E+04  0.59999366804E+03 0.  0.
         23    2    4    4    0    0 -0.53936776525E+02 -0.34654158229E+03 -0.63384644547E+03  0.72972515459E+03  0.87961586462E+02 0.  0.
         23    2    4    4    0    0  0.56804589646E+02 -0.12417365280E+03 -0.21668963512E+04  0.21729862798E+04  0.88225382676E+02 0.  0.
          5    1    3    3  502    0  0.19849999707E+02  0.37800301850E+03  0.28964571958E+03  0.47665190375E+03  0.47000000000E+01 0. -1.
         -5    1    3    3    0  502 -0.22717812829E+02  0.92712216593E+02  0.12532155342E+03  0.15760468228E+03  0.47000000000E+01 0.  1.
         13    1    5    5    0    0 -0.50414996162E+01 -0.24829972219E+03 -0.39054894815E+03  0.46282464245E+03  0.00000000000E+00 0. -1.
        -13    1    5    5    0    0 -0.48895276908E+02 -0.98241860097E+02 -0.24329749732E+03  0.26690051214E+03  0.00000000000E+00 0.  1.
          2    1    6    6  503    0 -0.18383326407E+02 -0.52752748442E+02 -0.96926637847E+03  0.97087492067E+03  0.00000000000E+00 0.  1.
         -2    1    6    6    0  503  0.75187916053E+02 -0.71420904358E+02 -0.11976299727E+04  0.12021113591E+04  0.00000000000E+00 0. -1.
<mgrwt>
<rscale>  0 0.49588899E+03</rscale>
<asrwt>0</asrwt>
<pdfrwt beam="1">  1        2 0.45559564E+00 0.49588899E+03</pdfrwt>
<pdfrwt beam="2">  1       -2 0.88553273E-01 0.49588899E+03</pdfrwt>
<totfact> 0.22985593E+00</totfact>
</mgrwt>
</event>
<event>
12    1  0.3203156E-008  0.8300520E+03  0.7818608E-02  0.9517509E-01
          2   -1    0    0  501    0  0.00000000000E+00  0.00000000000E+00  0.30882540293E+04  0.30882540293E+04  0.00000000000E+00 0. -1.
         -2   -1    0    0    0  501 -0.00000000000E+00 -0.00000000000E+00 -0.48370587302E+03  0.48370587302E+03  0.00000000000E+00 0.  1.
         23    2    1    2    0    0  0.42051815092E+02  0.72952978381E+03 -0.65776756710E+02  0.73911316269E+03  0.89328746306E+02 0.  0.
    5000000    2    1    2    0    0 -0.42051815092E+02 -0.72952978381E+03  0.26703249130E+04  0.28328467396E+04  0.60033611308E+03 0.  0.
         23    2    4    4    0    0 -0.16938646380E+03 -0.75474350619E+03  0.23518112043E+04  0.24774613397E+04  0.92028335335E+02 0.  0.
         23    2    4    4    0    0  0.12733464871E+03  0.25213722382E+02  0.31851370867E+03  0.35538539996E+03  0.89431288365E+02 0.  0.
          5    1    3    3  502    0  0.65560617693E+02  0.36604666993E+03 -0.34778088513E+02  0.37352371357E+03  0.47000000000E+01 0. -1.
         -5    1    3    3    0  502 -0.23508802600E+02  0.36348311388E+03 -0.30998668197E+02  0.36558944912E+03  0.47000000000E+01 0.  1.
         11    1    5    5    0    0 -0.13742894698E+03 -0.65642364468E+03  0.19314109657E+04  0.20445358973E+04  0.00000000000E+00 0.  1.
        -11    1    5    5    0    0 -0.31957516824E+02 -0.98319861515E+02  0.42040023856E+03  0.43292544235E+03  0.00000000000E+00 0. -1.
          4    1    6    6  503    0  0.91098727850E+01  0.30217510058E+02  0.29981633357E+02  0.43531437318E+02  0.00000000000E+00 0. -1.
         -4    1    6    6    0  503  0.11822477593E+03 -0.50037876754E+01  0.28853207531E+03  0.31185396264E+03  0.00000000000E+00 0.  1.
<mgrwt>
<rscale>  0 0.83005204E+03</rscale>
<asrwt>0</asrwt>
<pdfrwt beam="1">  1        2 0.47511599E+00 0.83005204E+03</pdfrwt>
<pdfrwt beam="2">  1       -2 0.74416290E-01 0.83005204E+03</pdfrwt>
<totfact> 0.26212641E+00</totfact>
</mgrwt>
</event>
<event>
12    1  0.3203156E-008  0.1054325E+04  0.7818608E-02  0.9250890E-01
         -2   -1    0    0    0  501 -0.00000000000E+00  0.00000000000E+00  0.15840311248E+04  0.15840311248E+04  0.00000000000E+00 0. -1.
          2   -1    0    0  501    0  0.00000000000E+00 -0.00000000000E+00 -0.10321512308E+04  0.10321512308E+04  0.00000000000E+00 0.  1.
         23    2    1    2    0    0  0.68653150706E+02 -0.10028533556E+04 -0.42173263656E+03  0.10935782730E+04  0.87332207294E+02 0.  0.
    5000000    2    1    2    0    0 -0.68653150706E+02  0.10028533556E+04  0.97361253055E+03  0.15226040827E+04  0.59997810381E+03 0.  0.
         23    2    4    4    0    0  0.63578496411E+02  0.93679676194E+03  0.96349851981E+03  0.13486854903E+04  0.94830141572E+02 0.  0.
         23    2    4    4    0    0 -0.13223164712E+03  0.66056593649E+02  0.10114010745E+02  0.17391859236E+03  0.91086231084E+02 0.  0.
          5    1    3    3  502    0  0.84834692474E+02 -0.62404209215E+03 -0.26227730721E+03  0.68222938496E+03  0.47000000000E+01 0. -1.
         -5    1    3    3    0  502 -0.16181541768E+02 -0.37881126343E+03 -0.15945532935E+03  0.41134888799E+03  0.47000000000E+01 0.  1.
         13    1    5    5    0    0  0.83105641381E+02  0.85926599469E+03  0.89365417973E+03  0.12425225914E+04  0.00000000000E+00 0. -1.
        -13    1    5    5    0    0 -0.19527144971E+02  0.77530767242E+02  0.69844340077E+02  0.10616289889E+03  0.00000000000E+00 0.  1.
          1    1    6    6  503    0 -0.91499919098E+02  0.17674097640E+02 -0.31315480071E+02  0.98312095972E+02  0.00000000000E+00 0. -1.
         -1    1    6    6    0  503 -0.40731728018E+02  0.48382496009E+02  0.41429490816E+02  0.75606496392E+02  0.00000000000E+00 0.  1.
<mgrwt>
<rscale>  0 0.10543247E+04</rscale>
<asrwt>0</asrwt>
<pdfrwt beam="1">  1        2 0.15879250E+00 0.10543247E+04</pdfrwt>
<pdfrwt beam="2">  1       -2 0.24369710E+00 0.10543247E+04</pdfrwt>
<totfact> 0.16704661E+00</totfact>
</mgrwt>
</event>
<event>
12    1  0.3203156E-008  0.7383888E+03  0.7818608E-02  0.9653745E-01
         -2   -1    0    0    0  501 -0.00000000000E+00  0.00000000000E+00  0.28715877955E+03  0.28715877955E+03  0.00000000000E+00 0. -1.
          2   -1    0    0  501    0  0.00000000000E+00 -0.00000000000E+00 -0.25485431604E+04  0.25485431604E+04  0.00000000000E+00 0.  1.
         23    2    1    2    0    0 -0.82988170521E+02 -0.71591798404E+03 -0.13223672978E+04  0.15087547635E+04  0.90884925711E+02 0.  0.
    5000000    2    1    2    0    0  0.82988170521E+02  0.71591798404E+03 -0.93901708304E+03  0.13269471765E+04  0.59967502076E+03 0.  0.
         23    2    4    4    0    0  0.14049351169E+03  0.55948032543E+03 -0.29299293097E+03  0.65333233847E+03  0.90783398911E+02 0.  0.
         23    2    4    4    0    0 -0.57505341167E+02  0.15643765862E+03 -0.64602415207E+03  0.67361483799E+03  0.92898544691E+02 0.  0.
          5    1    3    3  502    0 -0.19660378850E+02 -0.28953971172E+03 -0.44640281625E+03  0.53246346308E+03  0.47000000000E+01 0. -1.
         -5    1    3    3    0  502 -0.63327791671E+02 -0.42637827232E+03 -0.87596448153E+03  0.97629130039E+03  0.47000000000E+01 0.  1.
         13    1    5    5    0    0  0.83931295459E+02  0.16822403078E+03 -0.80386890323E+02  0.20446476231E+03  0.00000000000E+00 0. -1.
        -13    1    5    5    0    0  0.56562216229E+02  0.39125629464E+03 -0.21260604065E+03  0.44886757616E+03  0.00000000000E+00 0.  1.
          3    1    6    6  503    0 -0.35699581766E+02  0.39776703422E+02 -0.35999364202E+03  0.36393964962E+03  0.00000000000E+00 0. -1.
         -3    1    6    6    0  503 -0.21805759400E+02  0.11666095520E+03 -0.28603051005E+03  0.30967518837E+03  0.00000000000E+00 0.  1.
<mgrwt>
<rscale>  0 0.73838883E+03</rscale>
<asrwt>0</asrwt>
<pdfrwt beam="1">  1        2 0.39208355E+00 0.73838883E+03</pdfrwt>
<pdfrwt beam="2">  1       -2 0.44178275E-01 0.73838883E+03</pdfrwt>
<totfact> 0.16639352E+01</totfact>
</mgrwt>
</event>
<event>
12    1  0.3203156E-008  0.1249236E+04  0.7818608E-02  0.9070819E-01
         -2   -1    0    0    0  501 -0.00000000000E+00  0.00000000000E+00  0.52918813612E+03  0.52918813612E+03  0.00000000000E+00 0.  1.
          2   -1    0    0  501    0  0.00000000000E+00 -0.00000000000E+00 -0.31441502411E+04  0.31441502411E+04  0.00000000000E+00 0. -1.
         23    2    1    2    0    0 -0.91371331912E+03 -0.77536882609E+03 -0.15467769735E+04  0.19588029132E+04  0.91219522658E+02 0.  0.
    5000000    2    1    2    0    0  0.91371331912E+03  0.77536882609E+03 -0.10681851315E+04  0.17145354640E+04  0.60211588249E+03 0.  0.
         23    2    4    4    0    0  0.94819381904E+03  0.67642952865E+03 -0.81032891865E+03  0.14217517117E+04  0.90091884313E+02 0.  0.
         23    2    4    4    0    0 -0.34480499910E+02  0.98939297440E+02 -0.25785621288E+03  0.29278375227E+03  0.90854882201E+02 0.  0.
          5    1    3    3  502    0 -0.57535668871E+03 -0.44032627781E+03 -0.97409443198E+03  0.12140035431E+04  0.47000000000E+01 0. -1.
         -5    1    3    3    0  502 -0.33835663041E+03 -0.33504254828E+03 -0.57268254147E+03  0.74479937017E+03  0.47000000000E+01 0.  1.
         11    1    5    5    0    0  0.32435481175E+03  0.19379723582E+03 -0.29814416863E+03  0.48130381029E+03  0.00000000000E+00 0. -1.
        -11    1    5    5    0    0  0.62383900729E+03  0.48263229283E+03 -0.51218475002E+03  0.94044790140E+03  0.00000000000E+00 0.  1.
          1    1    6    6  503    0  0.16760818275E+02  0.70702978855E+02 -0.94095228532E+02  0.11888544184E+03  0.00000000000E+00 0. -1.
         -1    1    6    6    0  503 -0.51241318185E+02  0.28236318586E+02 -0.16376098434E+03  0.17389831043E+03  0.00000000000E+00 0.  1.
<mgrwt>
<rscale>  0 0.12492363E+04</rscale>
<asrwt>0</asrwt>
<pdfrwt beam="1">  1        2 0.48371542E+00 0.12492363E+04</pdfrwt>
<pdfrwt beam="2">  1       -2 0.81413560E-01 0.12492363E+04</pdfrwt>
<totfact> 0.18535966E+00</totfact>
</mgrwt>
</event>
<event>
12    1  0.3203156E-008  0.1249890E+04  0.7818608E-02  0.9070275E-01
          2   -1    0    0  501    0  0.00000000000E+00  0.00000000000E+00  0.78476547080E+03  0.78476547080E+03  0.00000000000E+00 0. -1.
         -2   -1    0    0    0  501 -0.00000000000E+00 -0.00000000000E+00 -0.23708543769E+04  0.23708543769E+04  0.00000000000E+00 0.  1.
         23    2    1    2    0    0  0.82859297841E+03 -0.88185073280E+03 -0.21774891920E+03  0.12329559625E+04  0.92405491716E+02 0.  0.
    5000000    2    1    2    0    0 -0.82859297841E+03  0.88185073280E+03 -0.13683399869E+04  0.19226638852E+04  0.60004587894E+03 0.  0.
         23    2    4    4    0    0 -0.83217355606E+03  0.68295878456E+03 -0.90080241220E+03  0.14066200670E+04  0.90495846360E+02 0.  0.
         23    2    4    4    0    0  0.35805776493E+01  0.19889194823E+03 -0.46753757471E+03  0.51604381820E+03  0.90216467076E+02 0.  0.
          5    1    3    3  502    0  0.17562754320E+03 -0.20709423208E+03 -0.12863375008E+02  0.27188345170E+03  0.47000000000E+01 0. -1.
         -5    1    3    3    0  502  0.65296543521E+03 -0.67475650071E+03 -0.20488554419E+03  0.96107251082E+03  0.47000000000E+01 0.  1.
         13    1    5    5    0    0 -0.57928045489E+03  0.51348197341E+03 -0.68254491036E+03  0.10320354340E+04  0.00000000000E+00 0.  1.
        -13    1    5    5    0    0 -0.25289310117E+03  0.16947681115E+03 -0.21825750184E+03  0.37458463296E+03  0.00000000000E+00 0. -1.
          4    1    6    6  503    0  0.30244519112E+02  0.16407493467E+03 -0.41696741432E+03  0.44910704707E+03  0.00000000000E+00 0. -1.
         -4    1    6    6    0  503 -0.26663941462E+02  0.34817013563E+02 -0.50570160386E+02  0.66936771129E+02  0.00000000000E+00 0.  1.
<mgrwt>
<rscale>  0 0.12498902E+04</rscale>
<asrwt>0</asrwt>
<pdfrwt beam="1">  1        2 0.12073315E+00 0.12498902E+04</pdfrwt>
<pdfrwt beam="2">  1       -2 0.36474682E+00 0.12498902E+04</pdfrwt>
<totfact> 0.43462606E-01</totfact>
</mgrwt>
</event>
<event>
12    1  0.3203156E-008  0.7289077E+03  0.7818608E-02  0.9669034E-01
          2   -1    0    0  501    0  0.00000000000E+00  0.00000000000E+00  0.19158707283E+04  0.19158707283E+04  0.00000000000E+00 0. -1.
         -2   -1    0    0    0  501 -0.00000000000E+00 -0.00000000000E+00 -0.60082807706E+03  0.60082807706E+03  0.00000000000E+00 0.  1.
         23    2    1    2    0    0  0.34990112168E+02 -0.62165030794E+03  0.15050482392E+04  0.16312927283E+04  0.90952458912E+02 0.  0.
    5000000    2    1    2    0    0 -0.34990112168E+02  0.62165030794E+03 -0.19000558800E+03  0.88540607701E+03  0.60014030394E+03 0.  0.
         23    2    4    4    0    0 -0.27815656506E+03  0.23120285055E+03  0.16312196855E+02  0.37299422375E+03  0.89625723949E+02 0.  0.
         23    2    4    4    0    0  0.24316645289E+03  0.39044745740E+03 -0.20631778485E+03  0.51241185326E+03  0.91759131520E+02 0.  0.
          5    1    3    3  502    0  0.39797171662E+00 -0.25522485328E+03  0.50934089922E+03  0.56972811562E+03  0.47000000000E+01 0. -1.
         -5    1    3    3    0  502  0.34592140451E+02 -0.36642545467E+03  0.99570733998E+03  0.10615646127E+04  0.47000000000E+01 0.  1.
         13    1    5    5    0    0 -0.24312625994E+03  0.15672850310E+03  0.92401482879E+00  0.28926640966E+03  0.00000000000E+00 0.  1.
        -13    1    5    5    0    0 -0.35030305121E+02  0.74474347451E+02  0.15388182027E+02  0.83727814084E+02  0.00000000000E+00 0. -1.
          2    1    6    6  503    0  0.67191705009E+02  0.15513383632E+03 -0.36230299789E+02  0.17289842977E+03  0.00000000000E+00 0. -1.
         -2    1    6    6    0  503  0.17597474789E+03  0.23531362107E+03 -0.17008748506E+03  0.33951342349E+03  0.00000000000E+00 0.  1.
<mgrwt>
<rscale>  0 0.72890775E+03</rscale>
<asrwt>0</asrwt>
<pdfrwt beam="1">  1        2 0.29474934E+00 0.72890775E+03</pdfrwt>
<pdfrwt beam="2">  1       -2 0.92435089E-01 0.72890775E+03</pdfrwt>
<totfact> 0.76659313E+00</totfact>
</mgrwt>
</event>
<event>
12    1  0.3203156E-008  0.5913782E+03  0.7818608E-02  0.9923457E-01
         -1   -1    0    0    0  501 -0.00000000000E+00  0.00000000000E+00  0.12494380467E+03  0.12494380467E+03  0.00000000000E+00 0.  1.
          1   -1    0    0  501    0  0.00000000000E+00 -0.00000000000E+00 -0.31718994061E+04  0.31718994061E+04  0.00000000000E+00 0. -1.
         23    2    1    2    0    0 -0.28196697059E+03  0.38538400364E+03 -0.13335395365E+04  0.14197654527E+04  0.96850618663E+02 0.  0.
    5000000    2    1    2    0    0  0.28196697059E+03 -0.38538400364E+03 -0.17134160649E+04  0.18770777581E+04  0.59966665384E+03 0.  0.
         23    2    4    4    0    0  0.37311920252E+03 -0.93527927860E+02 -0.12773573682E+04  0.13370128587E+04  0.89421058148E+02 0.  0.
         23    2    4    4    0    0 -0.91152231927E+02 -0.29185607578E+03 -0.43605869672E+03  0.54006489942E+03  0.89633756190E+02 0.  0.
          5    1    3    3  502    0 -0.17978137047E+03  0.25537544741E+03 -0.99670987407E+03  0.10445049657E+04  0.47000000000E+01 0. -1.
         -5    1    3    3    0  502 -0.10218560012E+03  0.13000855623E+03 -0.33682966246E+03  0.37526048697E+03  0.47000000000E+01 0.  1.
         13    1    5    5    0    0  0.19148866671E+03 -0.89858967644E+01 -0.70534430658E+03  0.73093039795E+03  0.00000000000E+00 0.  1.
        -13    1    5    5    0    0  0.18163053581E+03 -0.84542031096E+02 -0.57201306158E+03  0.60608246071E+03  0.00000000000E+00 0. -1.
          4    1    6    6  503    0 -0.86516729286E+02 -0.16772824409E+03 -0.21165547704E+03  0.28357706056E+03  0.00000000000E+00 0.  1.
         -4    1    6    6    0  503 -0.46355026409E+01 -0.12412783169E+03 -0.22440321967E+03  0.25648783886E+03  0.00000000000E+00 0. -1.
<mgrwt>
<rscale>  0 0.59137822E+03</rscale>
<asrwt>0</asrwt>
<pdfrwt beam="1">  1        1 0.48798451E+00 0.59137822E+03</pdfrwt>
<pdfrwt beam="2">  1       -1 0.19222124E-01 0.59137822E+03</pdfrwt>
<totfact> 0.10706979E+01</totfact>
</mgrwt>
</event>
<event>
12    1  0.3203156E-008  0.1126084E+04  0.7818608E-02  0.9180135E-01
         -1   -1    0    0    0  501 -0.00000000000E+00  0.00000000000E+00  0.51204254147E+03  0.51204254147E+03  0.00000000000E+00 0.  1.
          1   -1    0    0  501    0  0.00000000000E+00 -0.00000000000E+00 -0.26420341624E+04  0.26420341624E+04  0.00000000000E+00 0. -1.
         23    2    1    2    0    0 -0.62578351661E+03 -0.86384796194E+03 -0.12552457503E+04  0.16497405702E+04  0.90353441596E+02 0.  0.
    5000000    2    1    2    0    0  0.62578351661E+03  0.86384796194E+03 -0.87474587063E+03  0.15043361336E+04  0.60000712810E+03 0.  0.
         23    2    4    4    0    0  0.66044215705E+03  0.53234028041E+03 -0.75377863323E+03  0.11382837247E+04  0.89093170968E+02 0.  0.
         23    2    4    4    0    0 -0.34658640438E+02  0.33150768153E+03 -0.12096723740E+03  0.36605240891E+03  0.90899555961E+02 0.  0.
          5    1    3    3  502    0 -0.20339176668E+03 -0.23589911499E+03 -0.41513009842E+03  0.51901030030E+03  0.47000000000E+01 0. -1.
         -5    1    3    3    0  502 -0.42239174993E+03 -0.62794884695E+03 -0.84011565187E+03  0.11307302699E+04  0.47000000000E+01 0.  1.
         11    1    5    5    0    0  0.47122876291E+03  0.41476877661E+03 -0.59295861953E+03  0.86353321275E+03  0.00000000000E+00 0. -1.
        -11    1    5    5    0    0  0.18921339414E+03  0.11757150380E+03 -0.16082001371E+03  0.27475051198E+03  0.00000000000E+00 0.  1.
          4    1    6    6  503    0 -0.19336397741E+02  0.17671012396E+03 -0.11228208947E+03  0.21025611003E+03  0.00000000000E+00 0. -1.
         -4    1    6    6    0  503 -0.15322242698E+02  0.15479755757E+03 -0.86851479256E+01  0.15579629888E+03  0.00000000000E+00 0.  1.
<mgrwt>
<rscale>  0 0.11260840E+04</rscale>
<asrwt>0</asrwt>
<pdfrwt beam="1">  1        1 0.40646680E+00 0.11260840E+04</pdfrwt>
<pdfrwt beam="2">  1       -1 0.78775775E-01 0.11260840E+04</pdfrwt>
<totfact> 0.17433657E+00</totfact>
</mgrwt>
</event>
<event>
12    1  0.3203156E-008  0.7035711E+03  0.7818608E-02  0.9711145E-01
         -1   -1    0    0    0  501 -0.00000000000E+00  0.00000000000E+00  0.26391887922E+03  0.26391887922E+03  0.00000000000E+00 0.  1.
          1   -1    0    0  501    0  0.00000000000E+00 -0.00000000000E+00 -0.31419983628E+04  0.31419983628E+04  0.00000000000E+00 0. -1.
         23    2    1    2    0    0  0.56911200467E+03 -0.23497682820E+03 -0.22679982838E+04  0.23518182375E+04  0.90167750437E+02 0.  0.
    5000000    2    1    2    0    0 -0.56911200467E+03  0.23497682820E+03 -0.61008119974E+03  0.10540990045E+04  0.59985252966E+03 0.  0.
         23    2    4    4    0    0 -0.35310761971E+03 -0.11040096449E+03 -0.96578718229E+02  0.39258222635E+03  0.88994334518E+02 0.  0.
         23    2    4    4    0    0 -0.21600438496E+03  0.34537779270E+03 -0.51350248151E+03  0.66151677814E+03  0.89308091621E+02 0.  0.
          5    1    3    3  502    0  0.17949536035E+03 -0.35224643252E+02 -0.74347131195E+03  0.76565726117E+03  0.47000000000E+01 0. -1.
         -5    1    3    3    0  502  0.38961664432E+03 -0.19975218495E+03 -0.15245269719E+04  0.15861609763E+04  0.47000000000E+01 0.  1.
         13    1    5    5    0    0 -0.31708240436E+03 -0.80042209181E+02 -0.10745756658E+03  0.34423122320E+03  0.00000000000E+00 0. -1.
        -13    1    5    5    0    0 -0.36025215344E+02 -0.30358755313E+02  0.10878848352E+02  0.48351003156E+02  0.00000000000E+00 0.  1.
          4    1    6    6  503    0 -0.16973811050E+03  0.31174878341E+03 -0.40261425037E+03  0.53674627592E+03  0.00000000000E+00 0.  1.
         -4    1    6    6    0  503 -0.46266274463E+02  0.33629009289E+02 -0.11088823114E+03  0.12477050222E+03  0.00000000000E+00 0. -1.
<mgrwt>
<rscale>  0 0.70357106E+03</rscale>
<asrwt>0</asrwt>
<pdfrwt beam="1">  1        1 0.48338436E+00 0.70357106E+03</pdfrwt>
<pdfrwt beam="2">  1       -1 0.40602904E-01 0.70357106E+03</pdfrwt>
<totfact> 0.30200524E+00</totfact>
</mgrwt>
</event>
<event>
12    1  0.3203156E-008  0.8483838E+03  0.7818608E-02  0.9492509E-01
          2   -1    0    0  501    0  0.00000000000E+00  0.00000000000E+00  0.11909989838E+04  0.11909989838E+04  0.00000000000E+00 0.  1.
         -2   -1    0    0    0  501 -0.00000000000E+00 -0.00000000000E+00 -0.73201882950E+03  0.73201882950E+03  0.00000000000E+00 0. -1.
         23    2    1    2    0    0 -0.42241008494E+03  0.65800797346E+03  0.50799326190E+03  0.93617115494E+03  0.83393670074E+02 0.  0.
    5000000    2    1    2    0    0  0.42241008494E+03 -0.65800797346E+03 -0.49013107573E+02  0.98684665838E+03  0.60004938916E+03 0.  0.
         23    2    4    4    0    0 -0.96983469383E+02 -0.13061007854E+03 -0.14344579429E+03  0.23509489456E+03  0.90709027114E+02 0.  0.
         23    2    4    4    0    0  0.51939355433E+03 -0.52739789492E+03  0.94432686714E+02  0.75175176381E+03  0.91076771099E+02 0.  0.
          5    1    3    3  502    0 -0.82325486665E+02  0.13886481312E+03  0.14580577922E+03  0.21758294357E+03  0.47000000000E+01 0. -1.
         -5    1    3    3    0  502 -0.34008459828E+03  0.51914316035E+03  0.36218748268E+03  0.71858821138E+03  0.47000000000E+01 0.  1.
         11    1    5    5    0    0 -0.82508109181E+02 -0.68209356576E+02 -0.41748433645E+02  0.11490446517E+03  0.00000000000E+00 0.  1.
        -11    1    5    5    0    0 -0.14475360202E+02 -0.62400721966E+02 -0.10169736064E+03  0.12019042939E+03  0.00000000000E+00 0. -1.
          1    1    6    6  503    0  0.13022574939E+03 -0.91396007972E+02 -0.37400944896E+01  0.15914133462E+03  0.00000000000E+00 0. -1.
         -1    1    6    6    0  503  0.38916780494E+03 -0.43600188695E+03  0.98172781203E+02  0.59261042920E+03  0.00000000000E+00 0.  1.
<mgrwt>
<rscale>  0 0.84838379E+03</rscale>
<asrwt>0</asrwt>
<pdfrwt beam="1">  1        2 0.18323061E+00 0.84838379E+03</pdfrwt>
<pdfrwt beam="2">  1       -2 0.11261828E+00 0.84838379E+03</pdfrwt>
<totfact> 0.11996498E+01</totfact>
</mgrwt>
</event>
<event>
12    1  0.3203156E-008  0.8994096E+03  0.7818608E-02  0.9426320E-01
         -2   -1    0    0    0  501 -0.00000000000E+00  0.00000000000E+00  0.38314894533E+03  0.38314894533E+03  0.00000000000E+00 0.  1.
          2   -1    0    0  501    0  0.00000000000E+00 -0.00000000000E+00 -0.25288382465E+04  0.25288382465E+04  0.00000000000E+00 0. -1.
         23    2    1    2    0    0 -0.17177455358E+03  0.78757941866E+03 -0.15348527924E+04  0.17360140877E+04  0.90465354896E+02 0.  0.
    5000000    2    1    2    0    0  0.17177455358E+03 -0.78757941866E+03 -0.61083650884E+03  0.11759731042E+04  0.60000305274E+03 0.  0.
         23    2    4    4    0    0  0.55004908427E+02 -0.83282412000E+03 -0.45317148000E+03  0.95413854349E+03  0.91621040555E+02 0.  0.
         23    2    4    4    0    0  0.11676964515E+03  0.45244701340E+02 -0.15766502884E+03  0.22183456070E+03  0.93113253494E+02 0.  0.
          5    1    3    3  502    0 -0.12827308249E+03  0.60373146010E+03 -0.10888307979E+04  0.12516070693E+04  0.47000000000E+01 0. -1.
         -5    1    3    3    0  502 -0.43501471084E+02  0.18384795856E+03 -0.44602199449E+03  0.48440701834E+03  0.47000000000E+01 0.  1.
         11    1    5    5    0    0 -0.12366238063E+02 -0.48586074689E+03 -0.27238772151E+03  0.55714330297E+03  0.00000000000E+00 0. -1.
        -11    1    5    5    0    0  0.67371146490E+02 -0.34696337311E+03 -0.18078375850E+03  0.39699524052E+03  0.00000000000E+00 0.  1.
          3    1    6    6  503    0  0.19324380618E+02  0.51994985537E+02 -0.37403632042E+02  0.66902480501E+02  0.00000000000E+00 0. -1.
         -3    1    6    6    0  503  0.97445264533E+02 -0.67502841970E+01 -0.12026139680E+03  0.15493208020E+03  0.00000000000E+00 0.  1.
<mgrwt>
<rscale>  0 0.89940963E+03</rscale>
<asrwt>0</asrwt>
<pdfrwt beam="1">  1        2 0.38905205E+00 0.89940963E+03</pdfrwt>
<pdfrwt beam="2">  1       -2 0.58945990E-01 0.89940963E+03</pdfrwt>
<totfact> 0.92382798E+00</totfact>
</mgrwt>
</event>
<event>
12    1  0.3203156E-008  0.1317846E+04  0.7818608E-02  0.9015531E-01
          2   -1    0    0  501    0  0.00000000000E+00  0.00000000000E+00  0.21438517737E+04  0.21438517737E+04  0.00000000000E+00 0. -1.
         -2   -1    0    0    0  501 -0.00000000000E+00 -0.00000000000E+00 -0.10328773079E+04  0.10328773079E+04  0.00000000000E+00 0.  1.
         23    2    1    2    0    0  0.20706570000E+03 -0.12877705408E+04 -0.82422830030E+02  0.13097666834E+04  0.86406435565E+02 0.  0.
    5000000    2    1    2    0    0 -0.20706570000E+03  0.12877705408E+04  0.11933972958E+04  0.18669623981E+04  0.60010192506E+03 0.  0.
         23    2    4    4    0    0  0.46455825875E+02  0.45625108199E+03  0.11690596497E+03  0.48015744485E+03  0.80999837220E+02 0.  0.
         23    2    4    4    0    0 -0.25352152587E+03  0.83151945882E+03  0.10764913309E+04  0.13868049533E+04  0.93255662250E+02 0.  0.
          5    1    3    3  502    0  0.33109404322E+02 -0.11873423952E+03 -0.28592059822E+02  0.12662404264E+03  0.47000000000E+01 0. -1.
         -5    1    3    3    0  502  0.17395629567E+03 -0.11690363013E+04 -0.53830770208E+02  0.11831426408E+04  0.47000000000E+01 0.  1.
         13    1    5    5    0    0 -0.92652811551E+00  0.17502368974E+03  0.90737044886E+01  0.17526118377E+03  0.00000000000E+00 0. -1.
        -13    1    5    5    0    0  0.47382353991E+02  0.28122739225E+03  0.10783226048E+03  0.30489626108E+03  0.00000000000E+00 0.  1.
          3    1    6    6  503    0 -0.21373169662E+03  0.74346229481E+03  0.91063597187E+03  0.11948536710E+04  0.00000000000E+00 0. -1.
         -3    1    6    6    0  503 -0.39789829251E+02  0.88057164013E+02  0.16585535899E+03  0.19195128224E+03  0.00000000000E+00 0.  1.
<mgrwt>
<rscale>  0 0.13178462E+04</rscale>
<asrwt>0</asrwt>
<pdfrwt beam="1">  1        2 0.32982335E+00 0.13178462E+04</pdfrwt>
<pdfrwt beam="2">  1       -2 0.15890420E+00 0.13178462E+04</pdfrwt>
<totfact> 0.13691542E+00</totfact>
</mgrwt>
</event>
<event>
12    1  0.3203156E-008  0.1066443E+04  0.7818608E-02  0.9238530E-01
          1   -1    0    0  501    0  0.00000000000E+00  0.00000000000E+00  0.11451125613E+04  0.11451125613E+04  0.00000000000E+00 0. -1.
         -1   -1    0    0    0  501 -0.00000000000E+00 -0.00000000000E+00 -0.16764476319E+04  0.16764476319E+04  0.00000000000E+00 0.  1.
         23    2    1    2    0    0 -0.81915181581E+03 -0.60310263850E+03 -0.11095168508E+04  0.15063297851E+04  0.57090185929E+02 0.  0.
    5000000    2    1    2    0    0  0.81915181581E+03  0.60310263850E+03  0.57818178024E+03  0.13152304081E+04  0.60066160640E+03 0.  0.
         23    2    4    4    0    0 -0.28209057556E+02  0.15169729386E+03  0.22510639662E+03  0.28723738010E+03  0.89580147537E+02 0.  0.
         23    2    4    4    0    0  0.84736087337E+03  0.45140534463E+03  0.35307538362E+03  0.10279930280E+04  0.10158840562E+03 0.  0.
          5    1    3    3  502    0 -0.50839017087E+03 -0.38977398662E+03 -0.73384865960E+03  0.97413565364E+03  0.47000000000E+01 0. -1.
         -5    1    3    3    0  502 -0.31076164494E+03 -0.21332865187E+03 -0.37566819124E+03  0.53219413149E+03  0.47000000000E+01 0.  1.
         13    1    5    5    0    0 -0.10928912563E+02  0.40999875010E+02  0.83609299256E+01  0.43247381769E+02  0.00000000000E+00 0.  1.
        -13    1    5    5    0    0 -0.17280144993E+02  0.11069741885E+03  0.21674546670E+03  0.24398999833E+03  0.00000000000E+00 0. -1.
          2    1    6    6  503    0  0.35344611434E+03  0.20916925761E+03  0.10137829574E+03  0.42302895045E+03  0.00000000000E+00 0.  1.
         -2    1    6    6    0  503  0.49391475903E+03  0.24223608702E+03  0.25169708788E+03  0.60496407752E+03  0.00000000000E+00 0. -1.
<mgrwt>
<rscale>  0 0.10664431E+04</rscale>
<asrwt>0</asrwt>
<pdfrwt beam="1">  1        1 0.17617116E+00 0.10664431E+04</pdfrwt>
<pdfrwt beam="2">  1       -1 0.25791502E+00 0.10664431E+04</pdfrwt>
<totfact> 0.72590025E-01</totfact>
</mgrwt>
</event>
<event>
12    1  0.3203156E-008  0.3542929E+03  0.7818608E-02  0.1060867E+00
         -1   -1    0    0    0  501 -0.00000000000E+00  0.00000000000E+00  0.20480269439E+03  0.20480269439E+03  0.00000000000E+00 0.  1.
          1   -1    0    0  501    0  0.00000000000E+00 -0.00000000000E+00 -0.11463549700E+04  0.11463549700E+04  0.00000000000E+00 0. -1.
         23    2    1    2    0    0 -0.16049734381E+03 -0.88124516193E+02  0.15968916213E+02  0.20650463591E+03  0.94147918963E+02 0.  0.
    5000000    2    1    2    0    0  0.16049734381E+03  0.88124516193E+02 -0.95752119179E+03  0.11446530284E+04  0.59988198429E+03 0.  0.
         23    2    4    4    0    0  0.11215788525E+03 -0.18684175103E+03 -0.74034047577E+03  0.77661976724E+03  0.86862026527E+02 0.  0.
         23    2    4    4    0    0  0.48339458556E+02  0.27496626723E+03 -0.21718071603E+03  0.36803326121E+03  0.10167529974E+03 0.  0.
          5    1    3    3  502    0 -0.12623163085E+03 -0.28530691536E+02 -0.16111362341E+02  0.13049939074E+03  0.47000000000E+01 0. -1.
         -5    1    3    3    0  502 -0.34265712956E+02 -0.59593824658E+02  0.32080278555E+02  0.76005245173E+02  0.47000000000E+01 0.  1.
         11    1    5    5    0    0  0.56705579343E+02 -0.42038250273E+02 -0.14287397536E+03  0.15936031516E+03  0.00000000000E+00 0. -1.
        -11    1    5    5    0    0  0.55452305908E+02 -0.14480350076E+03 -0.59746650041E+03  0.61725945207E+03  0.00000000000E+00 0.  1.
          1    1    6    6  503    0  0.33735737904E+02  0.58149352590E+02 -0.10179699977E+03  0.12199211606E+03  0.00000000000E+00 0. -1.
         -1    1    6    6    0  503  0.14603720653E+02  0.21681691464E+03 -0.11538371625E+03  0.24604114515E+03  0.00000000000E+00 0.  1.
<mgrwt>
<rscale>  0 0.35429292E+03</rscale>
<asrwt>0</asrwt>
<pdfrwt beam="1">  1        1 0.17636230E+00 0.35429292E+03</pdfrwt>
<pdfrwt beam="2">  1       -1 0.31508107E-01 0.35429292E+03</pdfrwt>
<totfact> 0.11681316E+02</totfact>
</mgrwt>
</event>
<event>
12    1  0.3203156E-008  0.9188467E+03  0.7818608E-02  0.9402324E-01
          1   -1    0    0  501    0  0.00000000000E+00  0.00000000000E+00  0.14643588306E+04  0.14643588306E+04  0.00000000000E+00 0. -1.
         -1   -1    0    0    0  501 -0.00000000000E+00 -0.00000000000E+00 -0.59345065598E+03  0.59345065598E+03  0.00000000000E+00 0.  1.
         23    2    1    2    0    0 -0.68352272828E+03  0.46817840486E+03  0.29734115913E+03  0.88504823788E+03  0.92218651083E+02 0.  0.
    5000000    2    1    2    0    0  0.68352272828E+03 -0.46817840486E+03  0.57356701550E+03  0.11727612487E+04  0.59999623860E+03 0.  0.
         23    2    4    4    0    0  0.76831224010E+03 -0.42831908043E+03  0.44530845056E+03  0.99001688751E+03  0.89849254157E+02 0.  0.
         23    2    4    4    0    0 -0.84789511816E+02 -0.39859324424E+02  0.12825856494E+03  0.18274436119E+03  0.90372645251E+02 0.  0.
          5    1    3    3  502    0 -0.30337231797E+02  0.25146155487E+02 -0.46914592735E+01  0.39959686673E+02  0.47000000000E+01 0. -1.
         -5    1    3    3    0  502 -0.65318549649E+03  0.44303224937E+03  0.30203261840E+03  0.84508855121E+03  0.47000000000E+01 0.  1.
         13    1    5    5    0    0  0.16366102100E+03 -0.12470527892E+03  0.13148908866E+03  0.24418377674E+03  0.00000000000E+00 0.  1.
        -13    1    5    5    0    0  0.60465121909E+03 -0.30361380152E+03  0.31381936190E+03  0.74583311077E+03  0.00000000000E+00 0. -1.
          2    1    6    6  503    0 -0.53442892466E+02  0.21400078967E+02  0.80562103124E+02  0.99016961147E+02  0.00000000000E+00 0. -1.
         -2    1    6    6    0  503 -0.31346619350E+02 -0.61259403392E+02  0.47696461813E+02  0.83727400044E+02  0.00000000000E+00 0.  1.
<mgrwt>
<rscale>  0 0.91884669E+03</rscale>
<asrwt>0</asrwt>
<pdfrwt beam="1">  1        1 0.22528597E+00 0.91884669E+03</pdfrwt>
<pdfrwt beam="2">  1       -1 0.91300102E-01 0.91884669E+03</pdfrwt>
<totfact> 0.82266674E+00</totfact>
</mgrwt>
</event>
<event>
12    1  0.3694094E-008  0.9022678E+03  0.7818608E-02  0.9422751E-01
          2   -1    0    0  501    0  0.00000000000E+00  0.00000000000E+00  0.60272313570E+03  0.60272313570E+03  0.00000000000E+00 0. -1.
         -2   -1    0    0    0  501 -0.00000000000E+00 -0.00000000000E+00 -0.18623454716E+04  0.18623454716E+04  0.00000000000E+00 0.  1.
         23    2    1    2    0    0  0.41059240691E+03 -0.76513513119E+03 -0.71929668262E+02  0.87622174593E+03  0.92589293436E+02 0.  0.
    5000000    2    1    2    0    0 -0.41059240691E+03  0.76513513119E+03 -0.11876926677E+04  0.15888468614E+04  0.59983546291E+03 0.  0.
         23    2    4    4    0    0 -0.39186173370E+03  0.75179078606E+03 -0.73383409486E+03  0.11253167193E+04  0.95290270157E+02 0.  0.
         23    2    4    4    0    0 -0.18730673210E+02  0.13344345131E+02 -0.45385857283E+03  0.46353014213E+03  0.91343740154E+02 0.  0.
          5    1    3    3  502    0  0.13038415386E+03 -0.32318226058E+03 -0.42821508386E+01  0.34855017995E+03  0.47000000000E+01 0. -1.
         -5    1    3    3    0  502  0.28020825305E+03 -0.44195287062E+03 -0.67647517423E+02  0.52767156597E+03  0.47000000000E+01 0.  1.
         11    1    5    5    0    0 -0.17168802082E+03  0.32754415599E+03 -0.25835960846E+03  0.45112264175E+03  0.00000000000E+00 0. -1.
        -11    1    5    5    0    0 -0.22017371289E+03  0.42424663007E+03 -0.47547448640E+03  0.67419407754E+03  0.00000000000E+00 0.  1.
          3    1    6    6  503    0  0.27955892100E+02 -0.13505878684E+02 -0.80020017467E+02  0.85832067769E+02  0.00000000000E+00 0. -1.
         -3    1    6    6    0  503 -0.46686565310E+02  0.26850223815E+02 -0.37383855537E+03  0.37769807436E+03  0.00000000000E+00 0.  1.
<mgrwt>
<rscale>  0 0.90226782E+03</rscale>
<asrwt>0</asrwt>
<pdfrwt beam="1">  1        2 0.92726637E-01 0.90226782E+03</pdfrwt>
<pdfrwt beam="2">  1       -2 0.28651468E+00 0.90226782E+03</pdfrwt>
<totfact> 0.19262848E+00</totfact>
</mgrwt>
</event>
<event>
12    1  0.3203156E-008  0.6541067E+03  0.7818608E-02  0.9799104E-01
         -1   -1    0    0    0  501 -0.00000000000E+00  0.00000000000E+00  0.59779510529E+03  0.59779510529E+03  0.00000000000E+00 0.  1.
          1   -1    0    0  501    0  0.00000000000E+00 -0.00000000000E+00 -0.10023770359E+04  0.10023770359E+04  0.00000000000E+00 0. -1.
         23    2    1    2    0    0  0.55120555310E+03  0.75616160546E+00 -0.53676834400E+03  0.77477015574E+03  0.91216257106E+02 0.  0.
    5000000    2    1    2    0    0 -0.55120555310E+03 -0.75616160546E+00  0.13218641335E+03  0.82540198549E+03  0.59998921342E+03 0.  0.
         23    2    4    4    0    0  0.31359717346E+02  0.12550148596E+03  0.15501866493E+03  0.22138982286E+03  0.90821871485E+02 0.  0.
         23    2    4    4    0    0 -0.58256527045E+03 -0.12625764757E+03 -0.22832251574E+02  0.60401216263E+03  0.94795005076E+02 0.  0.
          5    1    3    3  502    0  0.20242421822E+03  0.43999355222E+02 -0.19633200157E+03  0.28544675900E+03  0.47000000000E+01 0. -1.
         -5    1    3    3    0  502  0.34878133488E+03 -0.43243193616E+02 -0.34043634243E+03  0.48932339674E+03  0.47000000000E+01 0.  1.
         13    1    5    5    0    0 -0.24025110131E+02  0.59062145717E+02  0.10089969110E+03  0.11935782604E+03  0.00000000000E+00 0. -1.
        -13    1    5    5    0    0  0.55384827477E+02  0.66439340247E+02  0.54118973831E+02  0.10203199682E+03  0.00000000000E+00 0.  1.
          1    1    6    6  503    0 -0.42118171091E+03 -0.62715576278E+02 -0.48891870220E+02  0.42862301862E+03  0.00000000000E+00 0. -1.
         -1    1    6    6    0  503 -0.16138355953E+03 -0.63542071292E+02  0.26059618646E+02  0.17538914401E+03  0.00000000000E+00 0.  1.
<mgrwt>
<rscale>  0 0.65410674E+03</rscale>
<asrwt>0</asrwt>
<pdfrwt beam="1">  1        1 0.15421185E+00 0.65410674E+03</pdfrwt>
<pdfrwt beam="2">  1       -1 0.91968479E-01 0.65410674E+03</pdfrwt>
<totfact> 0.18090979E+01</totfact>
</mgrwt>
</event>
<event>
12    1  0.3203156E-008  0.4538388E+03  0.7818608E-02  0.1026583E+00
          1   -1    0    0  501    0  0.00000000000E+00  0.00000000000E+00  0.14142142867E+04  0.14142142867E+04  0.00000000000E+00 0. -1.
         -1   -1    0    0    0  501 -0.00000000000E+00 -0.00000000000E+00 -0.16734565826E+03  0.16734565826E+03  0.00000000000E+00 0.  1.
         23    2    1    2    0    0 -0.22105096702E+03  0.13366716348E+03  0.61234829994E+03  0.67086187527E+03  0.91404456368E+02 0.  0.
    5000000    2    1    2    0    0  0.22105096702E+03 -0.13366716348E+03  0.63452032851E+03  0.91069806969E+03  0.60002040485E+03 0.  0.
         23    2    4    4    0    0  0.25183622185E+03 -0.33407176201E+03  0.37630700410E+03  0.57006327702E+03  0.91322251740E+02 0.  0.
         23    2    4    4    0    0 -0.30785254827E+02  0.20040459853E+03  0.25821332441E+03  0.34063479267E+03  0.90819634697E+02 0.  0.
          5    1    3    3  502    0 -0.81178128837E+02  0.14228722551E+02  0.26822223143E+03  0.28063784596E+03  0.47000000000E+01 0. -1.
         -5    1    3    3    0  502 -0.13987283818E+03  0.11943844092E+03  0.34412606850E+03  0.39022402931E+03  0.47000000000E+01 0.  1.
         13    1    5    5    0    0  0.19331944835E+03 -0.28195032611E+03  0.25857818974E+03  0.42863863068E+03  0.00000000000E+00 0. -1.
        -13    1    5    5    0    0  0.58516773496E+02 -0.52121435903E+02  0.11772881436E+03  0.14142464634E+03  0.00000000000E+00 0.  1.
          1    1    6    6  503    0  0.26177889667E+02  0.11714285234E+03  0.15815809725E+03  0.19854902036E+03  0.00000000000E+00 0. -1.
         -1    1    6    6    0  503 -0.56963144494E+02  0.83261746196E+02  0.10005522716E+03  0.14208577231E+03  0.00000000000E+00 0.  1.
<mgrwt>
<rscale>  0 0.45383878E+03</rscale>
<asrwt>0</asrwt>
<pdfrwt beam="1">  1        1 0.21757142E+00 0.45383878E+03</pdfrwt>
<pdfrwt beam="2">  1       -1 0.25745487E-01 0.45383878E+03</pdfrwt>
<totfact> 0.10561822E+02</totfact>
</mgrwt>
</event>
<event>
12    1  0.3203156E-008  0.1007218E+04  0.7818608E-02  0.9300663E-01
          2   -1    0    0  501    0  0.00000000000E+00  0.00000000000E+00  0.19886808456E+04  0.19886808456E+04  0.00000000000E+00 0. -1.
         -2   -1    0    0    0  501 -0.00000000000E+00 -0.00000000000E+00 -0.52707675804E+03  0.52707675804E+03  0.00000000000E+00 0.  1.
         23    2    1    2    0    0 -0.92235042209E+03  0.13153674882E+03  0.73481962101E+03  0.11904903895E+04  0.96308227422E+02 0.  0.
    5000000    2    1    2    0    0  0.92235042209E+03 -0.13153674882E+03  0.72678446656E+03  0.13252672141E+04  0.60007108795E+03 0.  0.
         23    2    4    4    0    0  0.15038132786E+03 -0.24208689383E+03  0.86648928760E+02  0.31199512505E+03  0.92802549893E+02 0.  0.
         23    2    4    4    0    0  0.77196909424E+03  0.11055014501E+03  0.64013553780E+03  0.10132720891E+04  0.93750747929E+02 0.  0.
          5    1    3    3  502    0 -0.63483468519E+03  0.73251562223E+02  0.55460904212E+03  0.84616437439E+03  0.47000000000E+01 0. -1.
         -5    1    3    3    0  502 -0.28751573690E+03  0.58285186601E+02  0.18021057889E+03  0.34432601512E+03  0.47000000000E+01 0.  1.
         11    1    5    5    0    0  0.16102964611E+03 -0.23422290979E+03  0.74060081466E+02  0.29372744861E+03  0.00000000000E+00 0. -1.
        -11    1    5    5    0    0 -0.10648318250E+02 -0.78639840383E+01  0.12588847293E+02  0.18267676445E+02  0.00000000000E+00 0.  1.
          3    1    6    6  503    0  0.21983369722E+03 -0.71702461557E+01  0.20236476385E+03  0.29888085337E+03  0.00000000000E+00 0. -1.
         -3    1    6    6    0  503  0.55213539702E+03  0.11772039116E+03  0.43777077395E+03  0.71439123571E+03  0.00000000000E+00 0.  1.
<mgrwt>
<rscale>  0 0.10072184E+04</rscale>
<asrwt>0</asrwt>
<pdfrwt beam="1">  1        2 0.30595090E+00 0.10072184E+04</pdfrwt>
<pdfrwt beam="2">  1       -2 0.81088733E-01 0.10072184E+04</pdfrwt>
<totfact> 0.90990948E+00</totfact>
</mgrwt>
</event>
<event>
12    1  0.3203156E-008  0.5201352E+03  0.7818608E-02  0.1008653E+00
         -1   -1    0    0    0  501 -0.00000000000E+00  0.00000000000E+00  0.24594357993E+03  0.24594357993E+03  0.00000000000E+00 0.  1.
          1   -1    0    0  501    0  0.00000000000E+00 -0.00000000000E+00 -0.16002483591E+04  0.16002483591E+04  0.00000000000E+00 0. -1.
         23    2    1    2    0    0  0.40812662516E+03 -0.23284187764E+03 -0.65664024669E+03  0.81286056843E+03  0.93718770741E+02 0.  0.
    5000000    2    1    2    0    0 -0.40812662516E+03  0.23284187764E+03 -0.69766453244E+03  0.10333313706E+04  0.60021266183E+03 0.  0.
         23    2    4    4    0    0 -0.34289812960E+03  0.27555561002E+03 -0.15336473292E+03  0.47552430151E+03  0.95355117995E+02 0.  0.
         23    2    4    4    0    0 -0.65228495558E+02 -0.42713732379E+02 -0.54429979952E+03  0.55780706905E+03  0.93846869743E+02 0.  0.
          5    1    3    3  502    0  0.32323179950E+03 -0.15432025477E+03 -0.44125894059E+03  0.56835295362E+03  0.47000000000E+01 0. -1.
         -5    1    3    3    0  502  0.84894825657E+02 -0.78521622877E+02 -0.21538130610E+03  0.24450761481E+03  0.47000000000E+01 0.  1.
         11    1    5    5    0    0 -0.24695154051E+03  0.16054452664E+03 -0.65045942893E+02  0.30164645378E+03  0.00000000000E+00 0. -1.
        -11    1    5    5    0    0 -0.95946589093E+02  0.11501108339E+03 -0.88318790027E+02  0.17387784773E+03  0.00000000000E+00 0.  1.
          4    1    6    6  503    0  0.15896656998E+02 -0.37467874506E+02 -0.17751815323E+03  0.18212424344E+03  0.00000000000E+00 0. -1.
         -4    1    6    6    0  503 -0.81125152556E+02 -0.52458578736E+01 -0.36678164629E+03  0.37568282561E+03  0.00000000000E+00 0.  1.
<mgrwt>
<rscale>  0 0.52013525E+03</rscale>
<asrwt>0</asrwt>
<pdfrwt beam="1">  1        1 0.24619206E+00 0.52013525E+03</pdfrwt>
<pdfrwt beam="2">  1       -1 0.37837473E-01 0.52013525E+03</pdfrwt>
<totfact> 0.40040271E+01</totfact>
</mgrwt>
</event>
<event>
12    1  0.3203156E-008  0.5367178E+03  0.7818608E-02  0.1004616E+00
         -2   -1    0    0    0  501 -0.00000000000E+00  0.00000000000E+00  0.42660896772E+03  0.42660896772E+03  0.00000000000E+00 0.  1.
          2   -1    0    0  501    0  0.00000000000E+00 -0.00000000000E+00 -0.82963522437E+03  0.82963522437E+03  0.00000000000E+00 0. -1.
         23    2    1    2    0    0  0.21196083255E+03  0.34457601367E+03  0.25318553982E+02  0.41538585808E+03  0.90798448141E+02 0.  0.
    5000000    2    1    2    0    0 -0.21196083255E+03 -0.34457601367E+03 -0.42834481063E+03  0.84085833401E+03  0.59991952572E+03 0.  0.
         23    2    4    4    0    0  0.16559768720E+03 -0.12543131105E+03 -0.55550437964E+01  0.22639997769E+03  0.89835870284E+02 0.  0.
         23    2    4    4    0    0 -0.37755851975E+03 -0.21914470262E+03 -0.42278976683E+03  0.61445835631E+03  0.90736145952E+02 0.  0.
          5    1    3    3  502    0  0.89079663961E+02  0.22629700759E+03  0.27148377040E+02  0.24475425747E+03  0.47000000000E+01 0. -1.
         -5    1    3    3    0  502  0.12288116859E+03  0.11827900608E+03 -0.18298230578E+01  0.17063160061E+03  0.47000000000E+01 0.  1.
         13    1    5    5    0    0  0.88260218297E+02 -0.24686079170E+02  0.26516724981E+02  0.95406526728E+02  0.00000000000E+00 0. -1.
        -13    1    5    5    0    0  0.77337468905E+02 -0.10074523188E+03 -0.32071768777E+02  0.13099345097E+03  0.00000000000E+00 0.  1.
          3    1    6    6  503    0 -0.29138009105E+03 -0.13746126282E+03 -0.26609623818E+03  0.41785782775E+03  0.00000000000E+00 0. -1.
         -3    1    6    6    0  503 -0.86178428700E+02 -0.81683439797E+02 -0.15669352865E+03  0.19660052856E+03  0.00000000000E+00 0.  1.
<mgrwt>
<rscale>  0 0.53671780E+03</rscale>
<asrwt>0</asrwt>
<pdfrwt beam="1">  1        2 0.12763619E+00 0.53671780E+03</pdfrwt>
<pdfrwt beam="2">  1       -2 0.65632150E-01 0.53671780E+03</pdfrwt>
<totfact> 0.72391249E+01</totfact>
</mgrwt>
</event>
<event>
12    1  0.3203156E-008  0.5801824E+03  0.7818608E-02  0.9947396E-01
         -2   -1    0    0    0  501 -0.00000000000E+00  0.00000000000E+00  0.68531446620E+03  0.68531446620E+03  0.00000000000E+00 0. -1.
          2   -1    0    0  501    0  0.00000000000E+00 -0.00000000000E+00 -0.59110765712E+03  0.59110765712E+03  0.00000000000E+00 0.  1.
         23    2    1    2    0    0 -0.26281132927E+03  0.41169140005E+03 -0.13309347305E+01  0.49688553717E+03  0.91289988415E+02 0.  0.
    5000000    2    1    2    0    0  0.26281132927E+03 -0.41169140005E+03  0.95537743805E+02  0.77953658616E+03  0.59999185410E+03 0.  0.
         23    2    4    4    0    0  0.89041482099E+02  0.76083323783E+02  0.19533042860E+03  0.24448523877E+03  0.88893182784E+02 0.  0.
         23    2    4    4    0    0  0.17376984717E+03 -0.48777472384E+03 -0.99792684796E+02  0.53505134739E+03  0.90560606233E+02 0.  0.
          5    1    3    3  502    0 -0.23338408590E+03  0.31058454613E+03  0.21172344156E+02  0.38910313543E+03  0.47000000000E+01 0. -1.
         -5    1    3    3    0  502 -0.29427243375E+02  0.10110685393E+03 -0.22503278887E+02  0.10778240174E+03  0.47000000000E+01 0.  1.
         11    1    5    5    0    0 -0.12060032515E+02  0.34138805122E+02  0.63902196228E+02  0.73446532132E+02  0.00000000000E+00 0.  1.
        -11    1    5    5    0    0  0.10110151461E+03  0.41944518660E+02  0.13142823237E+03  0.17103870664E+03  0.00000000000E+00 0. -1.
          4    1    6    6  503    0  0.79995108199E+02 -0.30531341092E+03 -0.24673052333E+02  0.31658214689E+03  0.00000000000E+00 0. -1.
         -4    1    6    6    0  503  0.93774738976E+02 -0.18246131292E+03 -0.75119632463E+02  0.21846920049E+03  0.00000000000E+00 0.  1.
<mgrwt>
<rscale>  0 0.58018239E+03</rscale>
<asrwt>0</asrwt>
<pdfrwt beam="1">  1        2 0.90939640E-01 0.58018239E+03</pdfrwt>
<pdfrwt beam="2">  1       -2 0.10543299E+00 0.58018239E+03</pdfrwt>
<totfact> 0.37767584E+01</totfact>
</mgrwt>
</event>
<event>
12    1  0.3203156E-008  0.5759472E+03  0.7818608E-02  0.9956604E-01
         -2   -1    0    0    0  501 -0.00000000000E+00  0.00000000000E+00  0.41301741392E+03  0.41301741392E+03  0.00000000000E+00 0.  1.
          2   -1    0    0  501    0  0.00000000000E+00 -0.00000000000E+00 -0.21447357036E+04  0.21447357036E+04  0.00000000000E+00 0. -1.
         23    2    1    2    0    0  0.41022126082E+03  0.17483927024E+03 -0.17521656185E+04  0.18099092273E+04  0.82684964245E+02 0.  0.
    5000000    2    1    2    0    0 -0.41022126082E+03 -0.17483927024E+03  0.20447328744E+02  0.74784389026E+03  0.60000178141E+03 0.  0.
         23    2    4    4    0    0 -0.26217763068E+03  0.16837458815E+03  0.12722415897E+03  0.34863331822E+03  0.90951041690E+02 0.  0.
         23    2    4    4    0    0 -0.14804363013E+03 -0.34321385839E+03 -0.10677683023E+03  0.39921057203E+03  0.90857692781E+02 0.  0.
          5    1    3    3  502    0  0.54896041582E+02  0.22575590253E+00 -0.28377097896E+03  0.28907038044E+03  0.47000000000E+01 0. -1.
         -5    1    3    3    0  502  0.35532521924E+03  0.17461351434E+03 -0.14683946395E+04  0.15208388469E+04  0.47000000000E+01 0.  1.
         13    1    5    5    0    0 -0.10098002898E+03  0.11572459997E+03  0.44194345024E+02  0.15981955269E+03  0.00000000000E+00 0.  1.
        -13    1    5    5    0    0 -0.16119760170E+03  0.52649988181E+02  0.83029813951E+02  0.18881376553E+03  0.00000000000E+00 0. -1.
          1    1    6    6  503    0 -0.10172547550E+03 -0.16744873070E+03 -0.17508112138E+02  0.19670710147E+03  0.00000000000E+00 0. -1.
         -1    1    6    6    0  503 -0.46318154632E+02 -0.17576512769E+03 -0.89268718093E+02  0.20250347056E+03  0.00000000000E+00 0.  1.
<mgrwt>
<rscale>  0 0.57594715E+03</rscale>
<asrwt>0</asrwt>
<pdfrwt beam="1">  1        2 0.32995934E+00 0.57594715E+03</pdfrwt>
<pdfrwt beam="2">  1       -2 0.63541140E-01 0.57594715E+03</pdfrwt>
<totfact> 0.13605503E+01</totfact>
</mgrwt>
</event>
<event>
12    1  0.3203156E-008  0.8631803E+03  0.7818608E-02  0.9472816E-01
          2   -1    0    0  501    0  0.00000000000E+00  0.00000000000E+00  0.27071748174E+04  0.27071748174E+04  0.00000000000E+00 0. -1.
         -2   -1    0    0    0  501 -0.00000000000E+00 -0.00000000000E+00 -0.33331369714E+03  0.33331369714E+03  0.00000000000E+00 0.  1.
         23    2    1    2    0    0 -0.84938825716E+03  0.72309911162E+02  0.10499061606E+04  0.13553656846E+04  0.89577108098E+02 0.  0.
    5000000    2    1    2    0    0  0.84938825716E+03 -0.72309911162E+02  0.13239549596E+04  0.16851228299E+04  0.60007756338E+03 0.  0.
         23    2    4    4    0    0  0.26381390327E+03 -0.10427453206E+03  0.92152705690E+03  0.96835277460E+03  0.89576927113E+02 0.  0.
         23    2    4    4    0    0  0.58557435389E+03  0.31964620901E+02  0.40242790270E+03  0.71677005529E+03  0.88837122619E+02 0.  0.
          5    1    3    3  502    0 -0.25838472908E+03  0.20311554791E+02  0.38619399963E+03  0.46512699645E+03  0.47000000000E+01 0. -1.
         -5    1    3    3    0  502 -0.59100352808E+03  0.51998356371E+02  0.66371216098E+03  0.89023868816E+03  0.47000000000E+01 0.  1.
         13    1    5    5    0    0  0.90708329638E+02 -0.56685811907E+02  0.22607634261E+03  0.25010356860E+03  0.00000000000E+00 0. -1.
        -13    1    5    5    0    0  0.17310557363E+03 -0.47588720156E+02  0.69545071429E+03  0.71824920600E+03  0.00000000000E+00 0.  1.
          3    1    6    6  503    0  0.30253469397E+03  0.32715777383E+02  0.25830839438E+03  0.39915008425E+03  0.00000000000E+00 0. -1.
         -3    1    6    6    0  503  0.28303965992E+03 -0.75115648190E+00  0.14411950832E+03  0.31761997104E+03  0.00000000000E+00 0.  1.
<mgrwt>
<rscale>  0 0.86318026E+03</rscale>
<asrwt>0</asrwt>
<pdfrwt beam="1">  1        2 0.41648842E+00 0.86318026E+03</pdfrwt>
<pdfrwt beam="2">  1       -2 0.51279032E-01 0.86318026E+03</pdfrwt>
<totfact> 0.97846883E+00</totfact>
</mgrwt>
</event>
<event>
12    1  0.3203156E-008  0.2933418E+03  0.7818608E-02  0.1088617E+00
          2   -1    0    0  501    0  0.00000000000E+00  0.00000000000E+00  0.43024221508E+03  0.43024221508E+03  0.00000000000E+00 0. -1.
         -2   -1    0    0    0  501 -0.00000000000E+00 -0.00000000000E+00 -0.36740810514E+03  0.36740810514E+03  0.00000000000E+00 0.  1.
         23    2    1    2    0    0 -0.34573193295E+02  0.10220186599E+03 -0.90958673658E+02  0.16892801006E+03  0.92858306923E+02 0.  0.
    5000000    2    1    2    0    0  0.34573193295E+02 -0.10220186599E+03  0.15379278360E+03  0.62872231016E+03  0.59999916325E+03 0.  0.
         23    2    4    4    0    0 -0.20003316492E+03 -0.76946033073E+02  0.26620024490E+03  0.35225126861E+03  0.85348853436E+02 0.  0.
         23    2    4    4    0    0  0.23460635822E+03 -0.25255832914E+02 -0.11240746130E+03  0.27647104154E+03  0.90126572353E+02 0.  0.
          5    1    3    3  502    0 -0.10261983042E+02  0.82272447809E+02 -0.12119771181E+02  0.83922838477E+02  0.47000000000E+01 0. -1.
         -5    1    3    3    0  502 -0.24311210252E+02  0.19929418178E+02 -0.78838902476E+02  0.85005171587E+02  0.47000000000E+01 0.  1.
         13    1    5    5    0    0 -0.93657970796E+02 -0.78767368016E+02  0.11960524304E+03  0.17111846166E+03  0.00000000000E+00 0. -1.
        -13    1    5    5    0    0 -0.10637519413E+03  0.18213349424E+01  0.14659500185E+03  0.18113280695E+03  0.00000000000E+00 0.  1.
          2    1    6    6  503    0  0.20426869139E+03 -0.41844648183E+02 -0.66216800713E+02  0.21877234185E+03  0.00000000000E+00 0. -1.
         -2    1    6    6    0  503  0.30337666829E+02  0.16588815269E+02 -0.46190660584E+02  0.57698699689E+02  0.00000000000E+00 0.  1.
<mgrwt>
<rscale>  0 0.29334182E+03</rscale>
<asrwt>0</asrwt>
<pdfrwt beam="1">  1        2 0.66191110E-01 0.29334182E+03</pdfrwt>
<pdfrwt beam="2">  1       -2 0.56524324E-01 0.29334182E+03</pdfrwt>
<totfact> 0.22190147E+02</totfact>
</mgrwt>
</event>
<event>
12    1  0.3203156E-008  0.6258956E+03  0.7818608E-02  0.9853091E-01
         -1   -1    0    0    0  501 -0.00000000000E+00  0.00000000000E+00  0.65831701629E+03  0.65831701629E+03  0.00000000000E+00 0.  1.
          1   -1    0    0  501    0  0.00000000000E+00 -0.00000000000E+00 -0.12014887451E+04  0.12014887451E+04  0.00000000000E+00 0. -1.
         23    2    1    2    0    0 -0.36322395347E+03  0.35335427392E+03 -0.86841505209E+03  0.10098042859E+04  0.93643525871E+02 0.  0.
    5000000    2    1    2    0    0  0.36322395347E+03 -0.35335427392E+03  0.32524332330E+03  0.85000147543E+03  0.59994033504E+03 0.  0.
         23    2    4    4    0    0  0.45381949715E+03 -0.41297520186E+03  0.17440269755E+03  0.64425577327E+03  0.90269303400E+02 0.  0.
         23    2    4    4    0    0 -0.90595543677E+02  0.59620927946E+02  0.15084062576E+03  0.20574570216E+03  0.88409230263E+02 0.  0.
          5    1    3    3  502    0 -0.16007195447E+03  0.11633156228E+03 -0.40855300401E+03  0.45397545096E+03  0.47000000000E+01 0.  1.
         -5    1    3    3    0  502 -0.20315199900E+03  0.23702271164E+03 -0.45986204808E+03  0.55582883498E+03  0.47000000000E+01 0. -1.
         13    1    5    5    0    0  0.10020962862E+03 -0.67576289626E+02  0.24404867066E+01  0.12089036588E+03  0.00000000000E+00 0. -1.
        -13    1    5    5    0    0  0.35360986853E+03 -0.34539891224E+03  0.17196221084E+03  0.52336540739E+03  0.00000000000E+00 0.  1.
          1    1    6    6  503    0 -0.30844564799E+02  0.59166771043E+02  0.12276470061E+03  0.13972568014E+03  0.00000000000E+00 0. -1.
         -1    1    6    6    0  503 -0.59750978878E+02  0.45415690320E+00  0.28075925145E+02  0.66020022025E+02  0.00000000000E+00 0.  1.
<mgrwt>
<rscale>  0 0.62589556E+03</rscale>
<asrwt>0</asrwt>
<pdfrwt beam="1">  1        1 0.18484442E+00 0.62589556E+03</pdfrwt>
<pdfrwt beam="2">  1       -1 0.10127954E+00 0.62589556E+03</pdfrwt>
<totfact> 0.10407383E+01</totfact>
</mgrwt>
</event>
<event>
12    1  0.3203156E-008  0.1910557E+04  0.7818608E-02  0.8649619E-01
          2   -1    0    0  501    0  0.00000000000E+00  0.00000000000E+00  0.24465118522E+04  0.24465118522E+04  0.00000000000E+00 0. -1.
         -2   -1    0    0    0  501 -0.00000000000E+00 -0.00000000000E+00 -0.15937873579E+04  0.15937873579E+04  0.00000000000E+00 0.  1.
         23    2    1    2    0    0 -0.59851115453E+03  0.17719071659E+04 -0.61947720184E+02  0.18736225393E+04  0.93559035361E+02 0.  0.
    5000000    2    1    2    0    0  0.59851115453E+03 -0.17719071659E+04  0.91467221452E+03  0.21666766708E+04  0.59999327442E+03 0.  0.
         23    2    4    4    0    0 -0.21884765648E+02 -0.74096411804E+03  0.24451899151E+03  0.78630232968E+03  0.94736736554E+02 0.  0.
         23    2    4    4    0    0  0.62039592018E+03 -0.10309430478E+04  0.67015322301E+03  0.13803743412E+04  0.92700128212E+02 0.  0.
          5    1    3    3  502    0 -0.50743535914E+03  0.13873479567E+04 -0.39851709593E+02  0.14777805133E+04  0.47000000000E+01 0. -1.
         -5    1    3    3    0  502 -0.91075795386E+02  0.38455920920E+03 -0.22096010591E+02  0.39584202603E+03  0.47000000000E+01 0.  1.
         11    1    5    5    0    0 -0.12038637069E+00 -0.61522437501E+03  0.16897107846E+03  0.63800648230E+03  0.00000000000E+00 0.  1.
        -11    1    5    5    0    0 -0.21764379278E+02 -0.12573974303E+03  0.75547913052E+02  0.14829584737E+03  0.00000000000E+00 0. -1.
          2    1    6    6  503    0  0.25843337717E+03 -0.50597251599E+03  0.28813905071E+03  0.63704011641E+03  0.00000000000E+00 0. -1.
         -2    1    6    6    0  503  0.36196254301E+03 -0.52497053185E+03  0.38201417230E+03  0.74333422476E+03  0.00000000000E+00 0.  1.
<mgrwt>
<rscale>  0 0.19105568E+04</rscale>
<asrwt>0</asrwt>
<pdfrwt beam="1">  1        2 0.37638644E+00 0.19105568E+04</pdfrwt>
<pdfrwt beam="2">  1       -2 0.24519805E+00 0.19105568E+04</pdfrwt>
<totfact> 0.23094949E-01</totfact>
</mgrwt>
</event>
<event>
12    1  0.3203156E-008  0.1652522E+04  0.7818608E-02  0.8788916E-01
          2   -1    0    0  501    0  0.00000000000E+00  0.00000000000E+00  0.39783435898E+04  0.39783435898E+04  0.00000000000E+00 0.  1.
         -2   -1    0    0    0  501 -0.00000000000E+00 -0.00000000000E+00 -0.77996815636E+03  0.77996815636E+03  0.00000000000E+00 0. -1.
         23    2    1    2    0    0  0.11738400798E+04 -0.11246707808E+04  0.22658612142E+04  0.27905019073E+04  0.99944757979E+02 0.  0.
    5000000    2    1    2    0    0 -0.11738400798E+04  0.11246707808E+04  0.93251421926E+03  0.19678098389E+04  0.59992324084E+03 0.  0.
         23    2    4    4    0    0 -0.11521546902E+04  0.10890244296E+04  0.96830489335E+03  0.18604054676E+04  0.10029705403E+03 0.  0.
         23    2    4    4    0    0 -0.21685389569E+02  0.35646351201E+02 -0.35790674093E+02  0.10740437128E+03  0.92270299361E+02 0.  0.
          5    1    3    3  502    0  0.82254267748E+03 -0.77013433676E+03  0.14934062951E+04  0.18708200889E+04  0.47000000000E+01 0. -1.
         -5    1    3    3    0  502  0.35129740227E+03 -0.35453644401E+03  0.77245491906E+03  0.91968181832E+03  0.47000000000E+01 0.  1.
         11    1    5    5    0    0 -0.63133538565E+02  0.93122239360E+02  0.78217103125E+02  0.13702375844E+03  0.00000000000E+00 0.  1.
        -11    1    5    5    0    0 -0.10890211516E+04  0.99590219021E+03  0.89008779023E+03  0.17233817092E+04  0.00000000000E+00 0. -1.
          2    1    6    6  503    0  0.15133638633E+02 -0.19422569405E+02  0.10314504421E+02  0.26695546858E+02  0.00000000000E+00 0. -1.
         -2    1    6    6    0  503 -0.36819028202E+02  0.55068920606E+02 -0.46105178514E+02  0.80708824426E+02  0.00000000000E+00 0.  1.
<mgrwt>
<rscale>  0 0.16525223E+04</rscale>
<asrwt>0</asrwt>
<pdfrwt beam="1">  1        2 0.61205285E+00 0.16525223E+04</pdfrwt>
<pdfrwt beam="2">  1       -2 0.11999510E+00 0.16525223E+04</pdfrwt>
<totfact> 0.17917263E-01</totfact>
</mgrwt>
</event>
<event>
12    1  0.3203156E-008  0.1270113E+04  0.7818608E-02  0.9053607E-01
         -2   -1    0    0    0  501 -0.00000000000E+00  0.00000000000E+00  0.20212847174E+04  0.20212847174E+04  0.00000000000E+00 0.  1.
          2   -1    0    0  501    0  0.00000000000E+00 -0.00000000000E+00 -0.12285482166E+04  0.12285482166E+04  0.00000000000E+00 0. -1.
         23    2    1    2    0    0 -0.46256870010E+03 -0.11634739138E+04  0.12661348400E+04  0.17829086750E+04  0.89579906686E+02 0.  0.
    5000000    2    1    2    0    0  0.46256870010E+03  0.11634739138E+04 -0.47339833925E+03  0.14669242591E+04  0.60009952825E+03 0.  0.
         23    2    4    4    0    0  0.13491804264E+03  0.11301445445E+03 -0.28445922943E+03  0.34678796966E+03  0.91486051122E+02 0.  0.
         23    2    4    4    0    0  0.32765065747E+03  0.10504594594E+04 -0.18893910982E+03  0.11201362894E+04  0.90483647833E+02 0.  0.
          5    1    3    3  502    0 -0.99754283635E+02 -0.17182000657E+03  0.22056074601E+03  0.29688746090E+03  0.47000000000E+01 0. -1.
         -5    1    3    3    0  502 -0.36281441647E+03 -0.99165390727E+03  0.10455740940E+04  0.14860212141E+04  0.47000000000E+01 0.  1.
         13    1    5    5    0    0  0.10883939675E+03  0.64811640988E+02 -0.12414869548E+03  0.17736815295E+03  0.00000000000E+00 0.  1.
        -13    1    5    5    0    0  0.26078645881E+02  0.48202813464E+02 -0.16031053395E+03  0.16941981671E+03  0.00000000000E+00 0. -1.
          2    1    6    6  503    0  0.27775600880E+03  0.75611472139E+03 -0.13444134106E+03  0.81665925974E+03  0.00000000000E+00 0. -1.
         -2    1    6    6    0  503  0.49894648667E+02  0.29434473800E+03 -0.54497768758E+02  0.30347702969E+03  0.00000000000E+00 0.  1.
<mgrwt>
<rscale>  0 0.12701132E+04</rscale>
<asrwt>0</asrwt>
<pdfrwt beam="1">  1        2 0.18900742E+00 0.12701132E+04</pdfrwt>
<pdfrwt beam="2">  1       -2 0.31096688E+00 0.12701132E+04</pdfrwt>
<totfact> 0.48030780E-01</totfact>
</mgrwt>
</event>
<event>
12    1  0.3203156E-008  0.6677833E+03  0.7818608E-02  0.9773971E-01
          2   -1    0    0  501    0  0.00000000000E+00  0.00000000000E+00  0.65951499363E+03  0.65951499363E+03  0.00000000000E+00 0. -1.
         -2   -1    0    0    0  501 -0.00000000000E+00 -0.00000000000E+00 -0.10138439841E+04  0.10138439841E+04  0.00000000000E+00 0.  1.
         23    2    1    2    0    0  0.25544298037E+03  0.55946899218E+03 -0.50810887797E+03  0.80039361869E+03  0.64796940765E+02 0.  0.
    5000000    2    1    2    0    0 -0.25544298037E+03 -0.55946899218E+03  0.15377988753E+03  0.87296535901E+03  0.60013631351E+03 0.  0.
         23    2    4    4    0    0  0.27660409270E+02 -0.37914098249E+03 -0.14269905710E+03  0.41595005378E+03  0.90213322201E+02 0.  0.
         23    2    4    4    0    0 -0.28310338964E+03 -0.18032800969E+03  0.29647894462E+03  0.45701530523E+03  0.91090637851E+02 0.  0.
          5    1    3    3  502    0  0.90232877308E+02  0.22183420824E+03 -0.23658791140E+03  0.33667241929E+03  0.47000000000E+01 0. -1.
         -5    1    3    3    0  502  0.16521010307E+03  0.33763478394E+03 -0.27152096658E+03  0.46372119940E+03  0.47000000000E+01 0.  1.
         11    1    5    5    0    0  0.34031934345E+02 -0.37561246040E+03 -0.12584993933E+03  0.39759414004E+03  0.00000000000E+00 0.  1.
        -11    1    5    5    0    0 -0.63715250748E+01 -0.35285220873E+01 -0.16849117765E+02  0.18355913744E+02  0.00000000000E+00 0. -1.
          3    1    6    6  503    0 -0.69262424191E+02 -0.46344486414E+02  0.26465181351E+02  0.87438553566E+02  0.00000000000E+00 0. -1.
         -3    1    6    6    0  503 -0.21384096545E+03 -0.13398352328E+03  0.27001376327E+03  0.36957675167E+03  0.00000000000E+00 0.  1.
<mgrwt>
<rscale>  0 0.66778325E+03</rscale>
<asrwt>0</asrwt>
<pdfrwt beam="1">  1        2 0.10146385E+00 0.66778325E+03</pdfrwt>
<pdfrwt beam="2">  1       -2 0.15597600E+00 0.66778325E+03</pdfrwt>
<totfact> 0.12212571E+01</totfact>
</mgrwt>
</event>
<event>
12    1  0.3203156E-008  0.1244123E+04  0.7818608E-02  0.9075089E-01
         -1   -1    0    0    0  501 -0.00000000000E+00  0.00000000000E+00  0.10925836761E+04  0.10925836761E+04  0.00000000000E+00 0.  1.
          1   -1    0    0  501    0  0.00000000000E+00 -0.00000000000E+00 -0.16275324033E+04  0.16275324033E+04  0.00000000000E+00 0. -1.
         23    2    1    2    0    0  0.12186353733E+04  0.20918319459E+03  0.14657161306E+02  0.12398981565E+04  0.91119833686E+02 0.  0.
    5000000    2    1    2    0    0 -0.12186353733E+04 -0.20918319459E+03 -0.54960588853E+03  0.14802179229E+04  0.60012389100E+03 0.  0.
         23    2    4    4    0    0 -0.10832801317E+04 -0.18139465777E+03 -0.65547167441E+03  0.12823044904E+04  0.90894578569E+02 0.  0.
         23    2    4    4    0    0 -0.13535524158E+03 -0.27788536820E+02  0.10586578588E+03  0.19791343251E+03  0.94174932686E+02 0.  0.
          5    1    3    3  502    0  0.19782087012E+03  0.30675016305E+02  0.35553952308E+02  0.20337213871E+03  0.47000000000E+01 0. -1.
         -5    1    3    3    0  502  0.10208145032E+04  0.17850817829E+03 -0.20896791003E+02  0.10365260178E+04  0.47000000000E+01 0.  1.
         13    1    5    5    0    0 -0.32677842777E+03 -0.94106548905E+02 -0.18397672020E+03  0.38663628513E+03  0.00000000000E+00 0. -1.
        -13    1    5    5    0    0 -0.75650170396E+03 -0.87288108869E+02 -0.47149495421E+03  0.89566820525E+03  0.00000000000E+00 0.  1.
          4    1    6    6  503    0 -0.66817750650E+02 -0.43584274777E+02  0.12081610143E+02  0.80685600409E+02  0.00000000000E+00 0. -1.
         -4    1    6    6    0  503 -0.68537490933E+02  0.15795737956E+02  0.93784175738E+02  0.11722783210E+03  0.00000000000E+00 0.  1.
<mgrwt>
<rscale>  0 0.12441228E+04</rscale>
<asrwt>0</asrwt>
<pdfrwt beam="1">  1        1 0.25038960E+00 0.12441228E+04</pdfrwt>
<pdfrwt beam="2">  1       -1 0.16808980E+00 0.12441228E+04</pdfrwt>
<totfact> 0.13245479E+00</totfact>
</mgrwt>
</event>
<event>
12    1  0.3203156E-008  0.5827943E+03  0.7818608E-02  0.9941760E-01
          2   -1    0    0  501    0  0.00000000000E+00  0.00000000000E+00  0.47455286688E+03  0.47455286688E+03  0.00000000000E+00 0.  1.
         -2   -1    0    0    0  501 -0.00000000000E+00 -0.00000000000E+00 -0.11969237641E+04  0.11969237641E+04  0.00000000000E+00 0. -1.
         23    2    1    2    0    0  0.48604361610E+02  0.43945199717E+03 -0.80347676104E+03  0.92185977784E+03  0.93648826419E+02 0.  0.
    5000000    2    1    2    0    0 -0.48604361610E+02 -0.43945199717E+03  0.81105863849E+02  0.74961685311E+03  0.59988900934E+03 0.  0.
         23    2    4    4    0    0  0.10743078653E+03 -0.51768714527E+03  0.86105362904E+01  0.53670596207E+03  0.91857466273E+02 0.  0.
         23    2    4    4    0    0 -0.15603514814E+03  0.78235148103E+02  0.72495327559E+02  0.21291089104E+03  0.98019228487E+02 0.  0.
          5    1    3    3  502    0  0.69460702362E+02  0.22307437343E+03 -0.44396073184E+03  0.50170727189E+03  0.47000000000E+01 0. -1.
         -5    1    3    3    0  502 -0.20856340752E+02  0.21637762374E+03 -0.35951602920E+03  0.42015250595E+03  0.47000000000E+01 0.  1.
         11    1    5    5    0    0  0.11583600114E+03 -0.36109895868E+03  0.17631244333E+02  0.37963310958E+03  0.00000000000E+00 0. -1.
        -11    1    5    5    0    0 -0.84052146042E+01 -0.15658818659E+03 -0.90207080427E+01  0.15707285248E+03  0.00000000000E+00 0.  1.
          1    1    6    6  503    0 -0.85024539003E+02  0.21921973428E+02 -0.12465026427E+02  0.88685523258E+02  0.00000000000E+00 0. -1.
         -1    1    6    6    0  503 -0.71010609137E+02  0.56313174675E+02  0.84960353986E+02  0.12422536779E+03  0.00000000000E+00 0.  1.
<mgrwt>
<rscale>  0 0.58279433E+03</rscale>
<asrwt>0</asrwt>
<pdfrwt beam="1">  1        2 0.73008134E-01 0.58279433E+03</pdfrwt>
<pdfrwt beam="2">  1       -2 0.18414212E+00 0.58279433E+03</pdfrwt>
<totfact> 0.11517361E+01</totfact>
</mgrwt>
</event>
<event>
12    1  0.3203156E-008  0.8724284E+03  0.7818608E-02  0.9460719E-01
          1   -1    0    0  501    0  0.00000000000E+00  0.00000000000E+00  0.12798319123E+04  0.12798319123E+04  0.00000000000E+00 0. -1.
         -1   -1    0    0    0  501 -0.00000000000E+00 -0.00000000000E+00 -0.89973442430E+03  0.89973442430E+03  0.00000000000E+00 0.  1.
         23    2    1    2    0    0  0.32044617512E+03 -0.76834565106E+03 -0.36289994693E+03  0.91262207731E+03  0.90232443456E+02 0.  0.
    5000000    2    1    2    0    0 -0.32044617512E+03  0.76834565106E+03  0.74299743492E+03  0.12669442593E+04  0.60005147877E+03 0.  0.
         23    2    4    4    0    0 -0.30984822089E+03  0.29103164255E+03  0.63449641975E+03  0.76906528469E+03  0.90390090643E+02 0.  0.
         23    2    4    4    0    0 -0.10597954233E+02  0.47731400851E+03  0.10850101517E+03  0.49787897460E+03  0.90388183370E+02 0.  0.
          5    1    3    3  502    0  0.23951373848E+03 -0.63092829987E+03 -0.26260835027E+03  0.72417027426E+03  0.47000000000E+01 0. -1.
         -5    1    3    3    0  502  0.80932436640E+02 -0.13741735119E+03 -0.10029159666E+03  0.18845180304E+03  0.47000000000E+01 0.  1.
         13    1    5    5    0    0 -0.10919233742E+03  0.52734905801E+02  0.21048407481E+03  0.24291455821E+03  0.00000000000E+00 0.  1.
        -13    1    5    5    0    0 -0.20065588347E+03  0.23829673675E+03  0.42401234494E+03  0.52615072648E+03  0.00000000000E+00 0. -1.
          3    1    6    6  503    0 -0.12166585722E+02  0.22622205889E+03  0.97221717103E+02  0.24652891922E+03  0.00000000000E+00 0. -1.
         -3    1    6    6    0  503  0.15686314895E+01  0.25109194963E+03  0.11279298070E+02  0.25135005538E+03  0.00000000000E+00 0.  1.
<mgrwt>
<rscale>  0 0.87242840E+03</rscale>
<asrwt>0</asrwt>
<pdfrwt beam="1">  1        1 0.19689722E+00 0.87242840E+03</pdfrwt>
<pdfrwt beam="2">  1       -1 0.13842068E+00 0.87242840E+03</pdfrwt>
<totfact> 0.41215903E+00</totfact>
</mgrwt>
</event>
<event>
12    1  0.3203156E-008  0.3594457E+03  0.7818608E-02  0.1058804E+00
         -2   -1    0    0    0  501 -0.00000000000E+00  0.00000000000E+00  0.66497512732E+03  0.66497512732E+03  0.00000000000E+00 0.  1.
          2   -1    0    0  501    0  0.00000000000E+00 -0.00000000000E+00 -0.28199972516E+04  0.28199972516E+04  0.00000000000E+00 0. -1.
         23    2    1    2    0    0 -0.70759987512E+02 -0.21981572346E+03 -0.26577854667E+04  0.26687773789E+04  0.72271592396E+02 0.  0.
    5000000    2    1    2    0    0  0.70759987512E+02  0.21981572346E+03  0.50276334249E+03  0.81619499993E+03  0.60006447257E+03 0.  0.
         23    2    4    4    0    0  0.21931869728E+03  0.31671501530E+02  0.50573007906E+03  0.55957153120E+03  0.90849384567E+02 0.  0.
         23    2    4    4    0    0 -0.14855870977E+03  0.18814422193E+03 -0.29667365673E+01  0.25662346873E+03  0.91536138684E+02 0.  0.
          5    1    3    3  502    0 -0.20067867473E+02 -0.10120230668E+03 -0.15630881232E+04  0.15664964721E+04  0.47000000000E+01 0. -1.
         -5    1    3    3    0  502 -0.50692120039E+02 -0.11861341678E+03 -0.10946973435E+04  0.11022809069E+04  0.47000000000E+01 0.  1.
         13    1    5    5    0    0  0.22832171989E+03  0.30904789478E+02  0.48881890593E+03  0.54039785027E+03  0.00000000000E+00 0. -1.
        -13    1    5    5    0    0 -0.90030226124E+01  0.76671205245E+00  0.16911173132E+02  0.19173680925E+02  0.00000000000E+00 0.  1.
          1    1    6    6  503    0 -0.15234201428E+03  0.18944008673E+03 -0.15379951036E+02  0.24358197526E+03  0.00000000000E+00 0. -1.
         -1    1    6    6    0  503  0.37833045106E+01 -0.12958648053E+01  0.12413214469E+02  0.13041493475E+02  0.00000000000E+00 0.  1.
<mgrwt>
<rscale>  0 0.35944572E+03</rscale>
<asrwt>0</asrwt>
<pdfrwt beam="1">  1        2 0.43384573E+00 0.35944572E+03</pdfrwt>
<pdfrwt beam="2">  1       -2 0.10230387E+00 0.35944572E+03</pdfrwt>
<totfact> 0.20995795E+00</totfact>
</mgrwt>
</event>
<event>
12    1  0.3203156E-008  0.5070228E+03  0.7818608E-02  0.1011962E+00
          4   -1    0    0  501    0  0.00000000000E+00  0.00000000000E+00  0.17581015213E+04  0.17581015213E+04  0.00000000000E+00 0. -1.
         -4   -1    0    0    0  501 -0.00000000000E+00 -0.00000000000E+00 -0.24548720048E+03  0.24548720048E+03  0.00000000000E+00 0.  1.
         23    2    1    2    0    0  0.37382062742E+03 -0.22073786388E+02  0.11411949077E+04  0.12044844600E+04  0.90707680478E+02 0.  0.
    5000000    2    1    2    0    0 -0.37382062742E+03  0.22073786388E+02  0.37141941309E+03  0.79910426183E+03  0.60032168654E+03 0.  0.
         23    2    4    4    0    0 -0.38593191883E+03 -0.17885269410E+03  0.93148107171E+02  0.44464936929E+03  0.90026438217E+02 0.  0.
         23    2    4    4    0    0  0.12111291417E+02  0.20092648049E+03  0.27827130592E+03  0.35445489255E+03  0.87665370649E+02 0.  0.
          5    1    3    3  502    0  0.24745240719E+03 -0.47782063152E+02  0.66685116148E+03  0.71290138235E+03  0.47000000000E+01 0. -1.
         -5    1    3    3    0  502  0.12636822022E+03  0.25708276764E+02  0.47434374625E+03  0.49158307760E+03  0.47000000000E+01 0.  1.
         11    1    5    5    0    0 -0.28282399303E+03 -0.16334207457E+03  0.95746395025E+02  0.34034896286E+03  0.00000000000E+00 0.  1.
        -11    1    5    5    0    0 -0.10310792580E+03 -0.15510619527E+02 -0.25982878544E+01  0.10430040643E+03  0.00000000000E+00 0. -1.
          1    1    6    6  503    0  0.11038662238E+02  0.53173434038E+02  0.14735443077E+03  0.15704328836E+03  0.00000000000E+00 0. -1.
         -1    1    6    6    0  503  0.10726291785E+01  0.14775304645E+03  0.13091687515E+03  0.19741160419E+03  0.00000000000E+00 0.  1.
<mgrwt>
<rscale>  0 0.50702278E+03</rscale>
<asrwt>0</asrwt>
<pdfrwt beam="1">  1        4 0.27047715E+00 0.50702278E+03</pdfrwt>
<pdfrwt beam="2">  1       -4 0.37767263E-01 0.50702278E+03</pdfrwt>
<totfact> 0.65579656E-01</totfact>
</mgrwt>
</event>
<event>
12    1  0.3203156E-008  0.5791770E+03  0.7818608E-02  0.9949574E-01
         -1   -1    0    0    0  501 -0.00000000000E+00  0.00000000000E+00  0.59178800519E+03  0.59178800519E+03  0.00000000000E+00 0.  1.
          1   -1    0    0  501    0  0.00000000000E+00 -0.00000000000E+00 -0.74901568383E+03  0.74901568383E+03  0.00000000000E+00 0. -1.
         23    2    1    2    0    0  0.11013759444E+03  0.48087996113E+03 -0.24623297804E+03  0.55881473348E+03  0.90925244830E+02 0.  0.
    5000000    2    1    2    0    0 -0.11013759444E+03 -0.48087996113E+03  0.89005299405E+02  0.78198895554E+03  0.60017410518E+03 0.  0.
         23    2    4    4    0    0  0.15446116749E+03 -0.27197323179E+03 -0.14963740664E+03  0.35938980264E+03  0.94562073294E+02 0.  0.
         23    2    4    4    0    0 -0.26459876193E+03 -0.20890672934E+03  0.23864270604E+03  0.42259915289E+03  0.89359814804E+02 0.  0.
          5    1    3    3  502    0  0.37838348799E+02  0.19013470028E+03 -0.48752589996E+02  0.19995461966E+03  0.47000000000E+01 0. -1.
         -5    1    3    3    0  502  0.72299245641E+02  0.29074526085E+03 -0.19748038805E+03  0.35886011382E+03  0.47000000000E+01 0.  1.
         11    1    5    5    0    0  0.14224795190E+03 -0.17141290081E+03 -0.12383198666E+03  0.25485529876E+03  0.00000000000E+00 0.  1.
        -11    1    5    5    0    0  0.12213215582E+02 -0.10056033098E+03 -0.25805419979E+02  0.10453450389E+03  0.00000000000E+00 0. -1.
          1    1    6    6  503    0 -0.49454088504E+02 -0.65980630424E+02  0.99453410020E+02  0.12919029076E+03  0.00000000000E+00 0. -1.
         -1    1    6    6    0  503 -0.21514467342E+03 -0.14292609892E+03  0.13918929602E+03  0.29340886214E+03  0.00000000000E+00 0.  1.
<mgrwt>
<rscale>  0 0.57917704E+03</rscale>
<asrwt>0</asrwt>
<pdfrwt beam="1">  1        1 0.11523318E+00 0.57917704E+03</pdfrwt>
<pdfrwt beam="2">  1       -1 0.91044308E-01 0.57917704E+03</pdfrwt>
<totfact> 0.30235525E+01</totfact>
</mgrwt>
</event>
<event>
12    1  0.3203156E-008  0.4034328E+03  0.7818608E-02  0.1042597E+00
         -1   -1    0    0    0  501 -0.00000000000E+00  0.00000000000E+00  0.26429202109E+03  0.26429202109E+03  0.00000000000E+00 0.  1.
          1   -1    0    0  501    0  0.00000000000E+00 -0.00000000000E+00 -0.90354366867E+03  0.90354366867E+03  0.00000000000E+00 0. -1.
         23    2    1    2    0    0 -0.20127247393E+03 -0.65593703155E+02  0.42674962989E+02  0.23476286646E+03  0.92083159958E+02 0.  0.
    5000000    2    1    2    0    0  0.20127247393E+03  0.65593703155E+02 -0.68192661057E+03  0.93307282330E+03  0.60065618179E+03 0.  0.
         23    2    4    4    0    0 -0.37654555518E+01  0.27937954817E+03 -0.18803190950E+03  0.35014821679E+03  0.95815782298E+02 0.  0.
         23    2    4    4    0    0  0.20503792948E+03 -0.21378584502E+03 -0.49389470106E+03  0.58292460651E+03  0.90134239207E+02 0.  0.
          5    1    3    3  502    0 -0.19285019573E+03 -0.43817303346E+02  0.58354041440E+02  0.20624848659E+03  0.47000000000E+01 0. -1.
         -5    1    3    3    0  502 -0.84222781990E+01 -0.21776399809E+02 -0.15679078451E+02  0.28514379877E+02  0.47000000000E+01 0.  1.
         11    1    5    5    0    0 -0.13773792100E+02  0.64004107687E+02 -0.94885659309E+02  0.11528023027E+03  0.00000000000E+00 0.  1.
        -11    1    5    5    0    0  0.10008336548E+02  0.21537544049E+03 -0.93146250196E+02  0.23486798652E+03  0.00000000000E+00 0. -1.
          4    1    6    6  503    0  0.17493159153E+03 -0.13867490369E+03 -0.40691317753E+03  0.46412296288E+03  0.00000000000E+00 0. -1.
         -4    1    6    6    0  503  0.30106337955E+02 -0.75110941323E+02 -0.86981523535E+02  0.11880164363E+03  0.00000000000E+00 0.  1.
<mgrwt>
<rscale>  0 0.40343279E+03</rscale>
<asrwt>0</asrwt>
<pdfrwt beam="1">  1        1 0.13900672E+00 0.40343279E+03</pdfrwt>
<pdfrwt beam="2">  1       -1 0.40660311E-01 0.40343279E+03</pdfrwt>
<totfact> 0.11266824E+02</totfact>
</mgrwt>
</event>
<event>
12    1  0.3203156E-008  0.3146142E+03  0.7818608E-02  0.1078155E+00
          2   -1    0    0  501    0  0.00000000000E+00  0.00000000000E+00  0.15563787016E+04  0.15563787016E+04  0.00000000000E+00 0. -1.
         -2   -1    0    0    0  501 -0.00000000000E+00 -0.00000000000E+00 -0.15632534676E+03  0.15632534676E+03  0.00000000000E+00 0.  1.
         23    2    1    2    0    0 -0.14817220457E+03  0.10009055369E+03  0.86784247334E+03  0.89104825873E+03  0.94038926589E+02 0.  0.
    5000000    2    1    2    0    0  0.14817220457E+03 -0.10009055369E+03  0.53221088155E+03  0.82165578967E+03  0.59991390475E+03 0.  0.
         23    2    4    4    0    0  0.26106604433E+03  0.45381064374E+02  0.55273436798E+03  0.61961075954E+03  0.90483652053E+02 0.  0.
         23    2    4    4    0    0 -0.11289383976E+03 -0.14547161806E+03 -0.20523486423E+02  0.20204503014E+03  0.80585172267E+02 0.  0.
          5    1    3    3  502    0 -0.11331429367E+03  0.83330283904E+02  0.80423763792E+03  0.81645840900E+03  0.47000000000E+01 0. -1.
         -5    1    3    3    0  502 -0.34857910900E+02  0.16760269785E+02  0.63604835412E+02  0.74589849734E+02  0.47000000000E+01 0.  1.
         13    1    5    5    0    0  0.22161649791E+03  0.33518799816E+02  0.37254545700E+03  0.43477292880E+03  0.00000000000E+00 0. -1.
        -13    1    5    5    0    0  0.39449546420E+02  0.11862264559E+02  0.18018891097E+03  0.18483783074E+03  0.00000000000E+00 0.  1.
          4    1    6    6  503    0 -0.82009356470E+02 -0.10215256623E+03 -0.51181525385E+02  0.14064220518E+03  0.00000000000E+00 0. -1.
         -4    1    6    6    0  503 -0.30884483291E+02 -0.43319051832E+02  0.30658038962E+02  0.61402824958E+02  0.00000000000E+00 0.  1.
<mgrwt>
<rscale>  0 0.31461418E+03</rscale>
<asrwt>0</asrwt>
<pdfrwt beam="1">  1        2 0.23944287E+00 0.31461418E+03</pdfrwt>
<pdfrwt beam="2">  1       -2 0.24050054E-01 0.31461418E+03</pdfrwt>
<totfact> 0.19385331E+02</totfact>
</mgrwt>
</event>
<event>
12    1  0.3203156E-008  0.1605560E+04  0.7818608E-02  0.8817139E-01
         -4   -1    0    0    0  501 -0.00000000000E+00  0.00000000000E+00  0.20248557005E+04  0.20248557005E+04  0.00000000000E+00 0.  1.
          4   -1    0    0  501    0  0.00000000000E+00 -0.00000000000E+00 -0.13761350081E+04  0.13761350081E+04  0.00000000000E+00 0. -1.
         23    2    1    2    0    0  0.15532444314E+04 -0.36804033769E+03  0.70722548337E+02  0.16004139114E+04  0.91110125805E+02 0.  0.
    5000000    2    1    2    0    0 -0.15532444314E+04  0.36804033769E+03  0.57799814398E+03  0.18005767972E+04  0.59997749480E+03 0.  0.
         23    2    4    4    0    0 -0.48697811231E+03  0.37670367959E+02  0.45415690014E+03  0.67330914863E+03  0.92303744145E+02 0.  0.
         23    2    4    4    0    0 -0.10662663191E+04  0.33036996973E+03  0.12384124384E+03  0.11272676486E+04  0.96579074748E+02 0.  0.
          5    1    3    3  502    0  0.11047420015E+04 -0.30175289412E+03  0.62905717707E+02  0.11469476528E+04  0.47000000000E+01 0. -1.
         -5    1    3    3    0  502  0.44850242998E+03 -0.66287443565E+02  0.78168306295E+01  0.45346625863E+03  0.47000000000E+01 0.  1.
         13    1    5    5    0    0 -0.39173853471E+03  0.64527471246E+02  0.38090720807E+03  0.55019376158E+03  0.00000000000E+00 0.  1.
        -13    1    5    5    0    0 -0.95239577604E+02 -0.26857103286E+02  0.73249692075E+02  0.12311538705E+03  0.00000000000E+00 0. -1.
          1    1    6    6  503    0 -0.20034231686E+03  0.52370903060E+02 -0.13440463809E+02  0.20751000333E+03  0.00000000000E+00 0. -1.
         -1    1    6    6    0  503 -0.86592400226E+03  0.27799906667E+03  0.13728170765E+03  0.91975764526E+03  0.00000000000E+00 0.  1.
<mgrwt>
<rscale>  0 0.16055603E+04</rscale>
<asrwt>0</asrwt>
<pdfrwt beam="1">  1        4 0.21171308E+00 0.16055603E+04</pdfrwt>
<pdfrwt beam="2">  1       -4 0.31151626E+00 0.16055603E+04</pdfrwt>
<totfact> 0.52330251E-03</totfact>
</mgrwt>
</event>
<event>
12    1  0.3203156E-008  0.7253238E+03  0.7818608E-02  0.9674879E-01
          1   -1    0    0  501    0  0.00000000000E+00  0.00000000000E+00  0.12490289064E+04  0.12490289064E+04  0.00000000000E+00 0.  1.
         -1   -1    0    0    0  501 -0.00000000000E+00 -0.00000000000E+00 -0.47431237485E+03  0.47431237485E+03  0.00000000000E+00 0. -1.
         23    2    1    2    0    0  0.64487503897E+03  0.16679537248E+02  0.25282367138E+03  0.69939373626E+03  0.95340267797E+02 0.  0.
    5000000    2    1    2    0    0 -0.64487503897E+03 -0.16679537248E+02  0.52189286013E+03  0.10239475449E+04  0.59996199422E+03 0.  0.
         23    2    4    4    0    0 -0.22980475204E+03 -0.23114155199E+03  0.41517832280E+03  0.53584245718E+03  0.92290075733E+02 0.  0.
         23    2    4    4    0    0 -0.41507028693E+03  0.21446201474E+03  0.10671453732E+03  0.48810508776E+03  0.92635227439E+02 0.  0.
          5    1    3    3  502    0  0.16935703703E+03  0.38986429279E+02  0.42683654115E+02  0.17901321736E+03  0.47000000000E+01 0. -1.
         -5    1    3    3    0  502  0.47551800194E+03 -0.22306892031E+02  0.21014001726E+03  0.52038051890E+03  0.47000000000E+01 0.  1.
         11    1    5    5    0    0 -0.13660013879E+03 -0.10493169376E+03  0.15343957352E+03  0.23068151420E+03  0.00000000000E+00 0. -1.
        -11    1    5    5    0    0 -0.93204613251E+02 -0.12620985823E+03  0.26173874928E+03  0.30516094298E+03  0.00000000000E+00 0.  1.
          1    1    6    6  503    0 -0.18598964667E+02 -0.38376148916E+01  0.19427781221E+02  0.27167765052E+02  0.00000000000E+00 0. -1.
         -1    1    6    6    0  503 -0.39647132226E+03  0.21829962964E+03  0.87286756100E+02  0.46093732271E+03  0.00000000000E+00 0.  1.
<mgrwt>
<rscale>  0 0.72532384E+03</rscale>
<asrwt>0</asrwt>
<pdfrwt beam="1">  1        1 0.19215829E+00 0.72532384E+03</pdfrwt>
<pdfrwt beam="2">  1       -1 0.72971135E-01 0.72532384E+03</pdfrwt>
<totfact> 0.19289945E+01</totfact>
</mgrwt>
</event>
<event>
12    1  0.3203156E-008  0.4347158E+03  0.7818608E-02  0.1032381E+00
          1   -1    0    0  501    0  0.00000000000E+00  0.00000000000E+00  0.39198055166E+03  0.39198055166E+03  0.00000000000E+00 0. -1.
         -1   -1    0    0    0  501 -0.00000000000E+00 -0.00000000000E+00 -0.92050216683E+03  0.92050216683E+03  0.00000000000E+00 0.  1.
         23    2    1    2    0    0  0.16769639382E+03  0.32502903328E+03  0.76880267027E+02  0.38494214839E+03  0.92216751053E+02 0.  0.
    5000000    2    1    2    0    0 -0.16769639382E+03 -0.32502903328E+03 -0.60540188219E+03  0.92754057010E+03  0.60004509601E+03 0.  0.
         23    2    4    4    0    0  0.62827296067E+02 -0.17590063712E+03  0.48081603793E+02  0.21313177080E+03  0.90691828912E+02 0.  0.
         23    2    4    4    0    0 -0.23052368989E+03 -0.14912839616E+03 -0.65348348598E+03  0.71440879930E+03  0.89212196050E+02 0.  0.
          5    1    3    3  502    0  0.63358773153E+02  0.45893143933E+02  0.60664111666E+01  0.78609198825E+02  0.47000000000E+01 0. -1.
         -5    1    3    3    0  502  0.10433762067E+03  0.27913588935E+03  0.70813855860E+02  0.30633294957E+03  0.47000000000E+01 0.  1.
         11    1    5    5    0    0  0.50971032523E+01 -0.13893981232E+03  0.29875523674E+02  0.14220688740E+03  0.00000000000E+00 0. -1.
        -11    1    5    5    0    0  0.57730192815E+02 -0.36960824800E+02  0.18206080119E+02  0.70924883402E+02  0.00000000000E+00 0.  1.
          4    1    6    6  503    0 -0.26326317004E+02 -0.54199677836E+02 -0.98330161764E+02  0.11532346143E+03  0.00000000000E+00 0. -1.
         -4    1    6    6    0  503 -0.20419737288E+03 -0.94928718327E+02 -0.55515332422E+03  0.59908533787E+03  0.00000000000E+00 0.  1.
<mgrwt>
<rscale>  0 0.43471583E+03</rscale>
<asrwt>0</asrwt>
<pdfrwt beam="1">  1        1 0.60304701E-01 0.43471583E+03</pdfrwt>
<pdfrwt beam="2">  1       -1 0.14161572E+00 0.43471583E+03</pdfrwt>
<totfact> 0.26726960E+01</totfact>
</mgrwt>
</event>
<event>
12    1  0.3203156E-008  0.1048913E+04  0.7818608E-02  0.9256467E-01
          2   -1    0    0  501    0  0.00000000000E+00  0.00000000000E+00  0.12680834182E+04  0.12680834182E+04  0.00000000000E+00 0. -1.
         -2   -1    0    0    0  501 -0.00000000000E+00 -0.00000000000E+00 -0.12203609031E+04  0.12203609031E+04  0.00000000000E+00 0.  1.
         23    2    1    2    0    0 -0.93299668867E+03 -0.42482105138E+03 -0.54108249855E+03  0.11626339661E+04  0.89396432682E+02 0.  0.
    5000000    2    1    2    0    0  0.93299668867E+03  0.42482105138E+03  0.58880501361E+03  0.13258103552E+04  0.60010499675E+03 0.  0.
         23    2    4    4    0    0  0.78636042570E+03  0.25875134198E+03  0.18067082312E+03  0.85239801787E+03  0.92873346335E+02 0.  0.
         23    2    4    4    0    0  0.14663626298E+03  0.16606970940E+03  0.40813419049E+03  0.47341233733E+03  0.92002074347E+02 0.  0.
          5    1    3    3  502    0 -0.17330488225E+03 -0.46039018178E+02 -0.77521564757E+02  0.19541201706E+03  0.47000000000E+01 0. -1.
         -5    1    3    3    0  502 -0.75969180642E+03 -0.37878203320E+03 -0.46356093379E+03  0.96722194907E+03  0.47000000000E+01 0.  1.
         11    1    5    5    0    0  0.35468395854E+03  0.15661757742E+03  0.57034382341E+02  0.39189628318E+03  0.00000000000E+00 0.  1.
        -11    1    5    5    0    0  0.43167646716E+03  0.10213376455E+03  0.12363644078E+03  0.46050173469E+03  0.00000000000E+00 0. -1.
          4    1    6    6  503    0  0.15771912991E+03  0.16281529366E+03  0.37352883402E+03  0.43693012443E+03  0.00000000000E+00 0. -1.
         -4    1    6    6    0  503 -0.11082866936E+02  0.32544157449E+01  0.34605356477E+02  0.36482212903E+02  0.00000000000E+00 0.  1.
<mgrwt>
<rscale>  0 0.10489130E+04</rscale>
<asrwt>0</asrwt>
<pdfrwt beam="1">  1        2 0.19508976E+00 0.10489130E+04</pdfrwt>
<pdfrwt beam="2">  1       -2 0.18774783E+00 0.10489130E+04</pdfrwt>
<totfact> 0.27321952E+00</totfact>
</mgrwt>
</event>
<event>
12    1  0.3203156E-008  0.3178291E+03  0.7818608E-02  0.1076653E+00
         -2   -1    0    0    0  501 -0.00000000000E+00  0.00000000000E+00  0.18456674991E+03  0.18456674991E+03  0.00000000000E+00 0.  1.
          2   -1    0    0  501    0  0.00000000000E+00 -0.00000000000E+00 -0.83012940427E+03  0.83012940427E+03  0.00000000000E+00 0. -1.
         23    2    1    2    0    0 -0.63608706981E+02  0.97753516109E+02 -0.23724726305E+03  0.27970858503E+03  0.91371829377E+02 0.  0.
    5000000    2    1    2    0    0  0.63608706981E+02 -0.97753516109E+02 -0.40831539131E+03  0.73498756915E+03  0.59990286755E+03 0.  0.
         23    2    4    4    0    0 -0.78968019508E+01  0.18034169517E+03 -0.38191761320E+03  0.43286804372E+03  0.94489118431E+02 0.  0.
         23    2    4    4    0    0  0.71505508932E+02 -0.27809521128E+03 -0.26397778113E+02  0.30211952543E+03  0.90163077882E+02 0.  0.
          5    1    3    3  502    0  0.10949909525E+00  0.68529819529E+02 -0.16598226669E+03  0.17963449281E+03  0.47000000000E+01 0. -1.
         -5    1    3    3    0  502 -0.63718206076E+02  0.29223696581E+02 -0.71264996361E+02  0.10007409222E+03  0.47000000000E+01 0.  1.
         11    1    5    5    0    0 -0.49009477292E+02  0.10778938354E+03 -0.19403744233E+03  0.22731258015E+03  0.00000000000E+00 0. -1.
        -11    1    5    5    0    0  0.41112675341E+02  0.72552311630E+02 -0.18788017088E+03  0.20555546357E+03  0.00000000000E+00 0.  1.
          1    1    6    6  503    0  0.57068620855E+01 -0.15691563833E+03  0.16063366160E+02  0.15783889749E+03  0.00000000000E+00 0. -1.
         -1    1    6    6    0  503  0.65798646846E+02 -0.12117957295E+03 -0.42461144273E+02  0.14428062794E+03  0.00000000000E+00 0.  1.
<mgrwt>
<rscale>  0 0.31782910E+03</rscale>
<asrwt>0</asrwt>
<pdfrwt beam="1">  1        2 0.12771221E+00 0.31782910E+03</pdfrwt>
<pdfrwt beam="2">  1       -2 0.28394886E-01 0.31782910E+03</pdfrwt>
<totfact> 0.38344554E+02</totfact>
</mgrwt>
</event>
<event>
12    1  0.3203156E-008  0.9796031E+03  0.7818608E-02  0.9331203E-01
         -1   -1    0    0    0  501 -0.00000000000E+00  0.00000000000E+00  0.96498363977E+03  0.96498363977E+03  0.00000000000E+00 0.  1.
          1   -1    0    0  501    0  0.00000000000E+00 -0.00000000000E+00 -0.10635440846E+04  0.10635440846E+04  0.00000000000E+00 0. -1.
         23    2    1    2    0    0 -0.49428126860E+03  0.75875459663E+03  0.12577671620E+03  0.91841287825E+03  0.87406648495E+02 0.  0.
    5000000    2    1    2    0    0  0.49428126860E+03 -0.75875459663E+03 -0.22433716098E+03  0.11101148461E+04  0.60166876211E+03 0.  0.
         23    2    4    4    0    0  0.24130274917E+03 -0.14576738868E+02 -0.18530624390E+03  0.31782759595E+03  0.90755047502E+02 0.  0.
         23    2    4    4    0    0  0.25297851943E+03 -0.74417785776E+03 -0.39030917078E+02  0.79228725013E+03  0.91634376527E+02 0.  0.
          5    1    3    3  502    0 -0.12765800301E+03  0.13269277398E+03  0.29068499969E+02  0.18646985196E+03  0.47000000000E+01 0. -1.
         -5    1    3    3    0  502 -0.36662326559E+03  0.62606182264E+03  0.96708216226E+02  0.73194302629E+03  0.47000000000E+01 0.  1.
         13    1    5    5    0    0  0.19921184158E+03  0.24548759608E+02 -0.14610597909E+03  0.24826388492E+03  0.00000000000E+00 0. -1.
        -13    1    5    5    0    0  0.42090907583E+02 -0.39125498476E+02 -0.39200264806E+02  0.69563711036E+02  0.00000000000E+00 0.  1.
          2    1    6    6  503    0  0.93682009587E+02 -0.15628691638E+03 -0.11413017112E+02  0.18257101663E+03  0.00000000000E+00 0.  1.
         -2    1    6    6    0  503  0.15929650985E+03 -0.58789094138E+03 -0.27617899966E+02  0.60971623351E+03  0.00000000000E+00 0. -1.
<mgrwt>
<rscale>  0 0.97960315E+03</rscale>
<asrwt>0</asrwt>
<pdfrwt beam="1">  1        1 0.16362217E+00 0.97960315E+03</pdfrwt>
<pdfrwt beam="2">  1       -1 0.14845902E+00 0.97960315E+03</pdfrwt>
<totfact> 0.48727571E+00</totfact>
</mgrwt>
</event>
<event>
12    1  0.3203156E-008  0.4187762E+03  0.7818608E-02  0.1037465E+00
          2   -1    0    0  501    0  0.00000000000E+00  0.00000000000E+00  0.18664666348E+04  0.18664666348E+04  0.00000000000E+00 0. -1.
         -2   -1    0    0    0  501 -0.00000000000E+00 -0.00000000000E+00 -0.13268248461E+03  0.13268248461E+03  0.00000000000E+00 0.  1.
         23    2    1    2    0    0  0.23224118485E+03 -0.14142321068E+03  0.26903982958E+03  0.39309541769E+03  0.90581924512E+02 0.  0.
    5000000    2    1    2    0    0 -0.23224118485E+03  0.14142321068E+03  0.14647443206E+04  0.16060537017E+04  0.59999672962E+03 0.  0.
         23    2    4    4    0    0  0.72304427984E+01  0.27687464673E+03  0.11055743726E+04  0.11433589418E+04  0.90901745080E+02 0.  0.
         23    2    4    4    0    0 -0.23947162765E+03 -0.13545143606E+03  0.35916994801E+03  0.46269475986E+03  0.96900140705E+02 0.  0.
          5    1    3    3  502    0  0.71550235876E+02 -0.62402236573E+02  0.42059964821E+02  0.10394520683E+03  0.47000000000E+01 0. -1.
         -5    1    3    3    0  502  0.16069094898E+03 -0.79020974106E+02  0.22697986476E+03  0.28915021085E+03  0.47000000000E+01 0.  1.
         11    1    5    5    0    0  0.36833016762E+02  0.18036785890E+03  0.59216152858E+03  0.62011653065E+03  0.00000000000E+00 0. -1.
        -11    1    5    5    0    0 -0.29602573963E+02  0.96506787832E+02  0.51341284399E+03  0.52324241118E+03  0.00000000000E+00 0.  1.
          2    1    6    6  503    0 -0.21148053847E+03 -0.10224441277E+03  0.34428276258E+03  0.41678358737E+03  0.00000000000E+00 0. -1.
         -2    1    6    6    0  503 -0.27991089176E+02 -0.33207023290E+02  0.14887185434E+02  0.45911172488E+02  0.00000000000E+00 0.  1.
<mgrwt>
<rscale>  0 0.41877616E+03</rscale>
<asrwt>0</asrwt>
<pdfrwt beam="1">  1        2 0.28714869E+00 0.41877616E+03</pdfrwt>
<pdfrwt beam="2">  1       -2 0.20412691E-01 0.41877616E+03</pdfrwt>
<totfact> 0.17335553E+02</totfact>
</mgrwt>
</event>
<event>
12    1  0.3203156E-008  0.6159357E+03  0.7818608E-02  0.9872885E-01
         -1   -1    0    0    0  501 -0.00000000000E+00  0.00000000000E+00  0.21384362311E+04  0.21384362311E+04  0.00000000000E+00 0.  1.
          1   -1    0    0  501    0  0.00000000000E+00 -0.00000000000E+00 -0.18577287921E+03  0.18577287921E+03  0.00000000000E+00 0. -1.
         23    2    1    2    0    0 -0.23176259744E+03 -0.42286741205E+03  0.77912904501E+03  0.92073280831E+03  0.90421710828E+02 0.  0.
    5000000    2    1    2    0    0  0.23176259744E+03  0.42286741205E+03  0.11735343069E+04  0.14034763020E+04  0.60002684196E+03 0.  0.
         23    2    4    4    0    0 -0.52777005277E+02  0.45674338286E+03  0.72217890605E+03  0.86105588351E+03  0.92059394462E+02 0.  0.
         23    2    4    4    0    0  0.28453960271E+03 -0.33875970807E+02  0.45135540083E+03  0.54242041849E+03  0.91585182310E+02 0.  0.
          5    1    3    3  502    0 -0.20797021477E+03 -0.39595997238E+03  0.75387018700E+03  0.87657187886E+03  0.47000000000E+01 0. -1.
         -5    1    3    3    0  502 -0.23792382663E+02 -0.26907439672E+02  0.25258858003E+02  0.44160929453E+02  0.47000000000E+01 0.  1.
         11    1    5    5    0    0 -0.24252950839E+02  0.36348478086E+03  0.62475822738E+03  0.72320967514E+03  0.00000000000E+00 0.  1.
        -11    1    5    5    0    0 -0.28524054438E+02  0.93258601997E+02  0.97420678675E+02  0.13784620837E+03  0.00000000000E+00 0. -1.
          3    1    6    6  503    0  0.18282469223E+03 -0.21063345648E+02  0.20445841855E+03  0.27508503692E+03  0.00000000000E+00 0. -1.
         -3    1    6    6    0  503  0.10171491048E+03 -0.12812625159E+02  0.24689698229E+03  0.26733538157E+03  0.00000000000E+00 0.  1.
<mgrwt>
<rscale>  0 0.61593574E+03</rscale>
<asrwt>0</asrwt>
<pdfrwt beam="1">  1        1 0.28580445E-01 0.61593574E+03</pdfrwt>
<pdfrwt beam="2">  1       -1 0.32899017E+00 0.61593574E+03</pdfrwt>
<totfact> 0.37601834E+00</totfact>
</mgrwt>
</event>
<event>
12    1  0.3203156E-008  0.1391428E+04  0.7818608E-02  0.8960047E-01
          2   -1    0    0  501    0  0.00000000000E+00  0.00000000000E+00  0.31621804266E+04  0.31621804266E+04  0.00000000000E+00 0.  1.
         -2   -1    0    0    0  501 -0.00000000000E+00 -0.00000000000E+00 -0.62419466554E+03  0.62419466554E+03  0.00000000000E+00 0. -1.
         23    2    1    2    0    0 -0.12092885870E+04  0.55715213729E+03  0.14019616238E+04  0.19360828939E+04  0.10061404862E+03 0.  0.
    5000000    2    1    2    0    0  0.12092885870E+04 -0.55715213729E+03  0.11360241373E+04  0.18502921983E+04  0.60019412518E+03 0.  0.
         23    2    4    4    0    0  0.51086707066E+03 -0.54330941330E+03  0.51905848347E+03  0.91382650569E+03  0.97400671319E+02 0.  0.
         23    2    4    4    0    0  0.69842151629E+03 -0.13842723996E+02  0.61696565387E+03  0.93646569262E+03  0.91307940428E+02 0.  0.
          5    1    3    3  502    0 -0.98970315658E+03  0.49689260956E+03  0.11698115392E+04  0.16108680054E+04  0.47000000000E+01 0. -1.
         -5    1    3    3    0  502 -0.21958543037E+03  0.60259527732E+02  0.23215008455E+03  0.32521488845E+03  0.47000000000E+01 0.  1.
         11    1    5    5    0    0  0.22688448850E+03 -0.19978354548E+03  0.25700157170E+03  0.39678690002E+03  0.00000000000E+00 0. -1.
        -11    1    5    5    0    0  0.28398258216E+03 -0.34352586781E+03  0.26205691177E+03  0.51703960567E+03  0.00000000000E+00 0.  1.
          1    1    6    6  503    0  0.17960396639E+02  0.58671050967E+01  0.39486669189E+02  0.43774373934E+02  0.00000000000E+00 0. -1.
         -1    1    6    6    0  503  0.68046111965E+03 -0.19709829092E+02  0.57747898468E+03  0.89269131869E+03  0.00000000000E+00 0.  1.
<mgrwt>
<rscale>  0 0.13914278E+04</rscale>
<asrwt>0</asrwt>
<pdfrwt beam="1">  1        2 0.48648929E+00 0.13914278E+04</pdfrwt>
<pdfrwt beam="2">  1       -2 0.96029951E-01 0.13914278E+04</pdfrwt>
<totfact> 0.12104462E+00</totfact>
</mgrwt>
</event>
<event>
12    1  0.3203156E-008  0.8690369E+03  0.7818608E-02  0.9465137E-01
          2   -1    0    0  501    0  0.00000000000E+00  0.00000000000E+00  0.11047785892E+04  0.11047785892E+04  0.00000000000E+00 0. -1.
         -2   -1    0    0    0  501 -0.00000000000E+00 -0.00000000000E+00 -0.13392304537E+04  0.13392304537E+04  0.00000000000E+00 0.  1.
         23    2    1    2    0    0  0.84049020203E+03 -0.19212005620E+03  0.63929394184E+03  0.10777181639E+04  0.97189510398E+02 0.  0.
    5000000    2    1    2    0    0 -0.84049020203E+03  0.19212005620E+03 -0.87374580634E+03  0.13662908791E+04  0.59998761352E+03 0.  0.
         23    2    4    4    0    0 -0.51302251712E+03  0.88949800270E+02 -0.13020937381E+03  0.54316163237E+03  0.83462014153E+02 0.  0.
         23    2    4    4    0    0 -0.32746768491E+03  0.10317025593E+03 -0.74353643254E+03  0.82312924669E+03  0.82559941095E+02 0.  0.
          5    1    3    3  502    0  0.31091851857E+03 -0.66019471877E+02  0.29436129627E+03  0.43324307103E+03  0.47000000000E+01 0. -1.
         -5    1    3    3    0  502  0.52957168346E+03 -0.12610058433E+03  0.34493264556E+03  0.64447509282E+03  0.47000000000E+01 0.  1.
         13    1    5    5    0    0 -0.39398673507E+03  0.87753274814E+02 -0.13019773757E+03  0.42411983627E+03  0.00000000000E+00 0. -1.
        -13    1    5    5    0    0 -0.11903578205E+03  0.11965254558E+01 -0.11636235616E-01  0.11904179609E+03  0.00000000000E+00 0.  1.
          1    1    6    6  503    0 -0.31646049416E+03  0.78438357182E+02 -0.68448917676E+03  0.75817231112E+03  0.00000000000E+00 0. -1.
         -1    1    6    6    0  503 -0.11007190749E+02  0.24731898752E+02 -0.59047255772E+02  0.64956935567E+02  0.00000000000E+00 0.  1.
<mgrwt>
<rscale>  0 0.86903690E+03</rscale>
<asrwt>0</asrwt>
<pdfrwt beam="1">  1        2 0.16996594E+00 0.86903690E+03</pdfrwt>
<pdfrwt beam="2">  1       -2 0.20603545E+00 0.86903690E+03</pdfrwt>
<totfact> 0.26517777E+00</totfact>
</mgrwt>
</event>
<event>
12    1  0.3203156E-008  0.8410234E+03  0.7818608E-02  0.9502465E-01
         -2   -1    0    0    0  501 -0.00000000000E+00  0.00000000000E+00  0.28372999639E+03  0.28372999639E+03  0.00000000000E+00 0.  1.
          2   -1    0    0  501    0  0.00000000000E+00 -0.00000000000E+00 -0.46787595624E+04  0.46787595624E+04  0.00000000000E+00 0. -1.
         23    2    1    2    0    0 -0.65917911040E+03  0.39954641450E+03 -0.44813889872E+03  0.89652249824E+03  0.93646571687E+02 0.  0.
    5000000    2    1    2    0    0  0.65917911040E+03 -0.39954641450E+03 -0.39468906673E+04  0.40659670606E+04  0.59998980074E+03 0.  0.
         23    2    4    4    0    0  0.53731511898E+03 -0.71100871451E+02 -0.30413243218E+04  0.30908667750E+04  0.10020438957E+03 0.  0.
         23    2    4    4    0    0  0.12186399142E+03 -0.32844554305E+03 -0.90556634554E+03  0.97510028555E+03  0.89681957822E+02 0.  0.
          5    1    3    3  502    0 -0.48750152267E+03  0.27005550213E+03 -0.28117019793E+03  0.62423271225E+03  0.47000000000E+01 0. -1.
         -5    1    3    3    0  502 -0.17167758772E+03  0.12949091237E+03 -0.16696870079E+03  0.27228978600E+03  0.47000000000E+01 0.  1.
         11    1    5    5    0    0  0.43902727358E+03 -0.96837474798E+02 -0.24773490893E+04  0.25178127320E+04  0.00000000000E+00 0. -1.
        -11    1    5    5    0    0  0.98287845400E+02  0.25736603347E+02 -0.56397523251E+03  0.57305404299E+03  0.00000000000E+00 0.  1.
          3    1    6    6  503    0  0.12487724477E+03 -0.24534399916E+03 -0.74581447700E+03  0.79500140773E+03  0.00000000000E+00 0. -1.
         -3    1    6    6    0  503 -0.30132533477E+01 -0.83101543890E+02 -0.15975186854E+03  0.18009887783E+03  0.00000000000E+00 0.  1.
<mgrwt>
<rscale>  0 0.84102338E+03</rscale>
<asrwt>0</asrwt>
<pdfrwt beam="1">  1        2 0.71980926E+00 0.84102338E+03</pdfrwt>
<pdfrwt beam="2">  1       -2 0.43650763E-01 0.84102338E+03</pdfrwt>
<totfact> 0.45312835E-01</totfact>
</mgrwt>
</event>
<event>
12    1  0.3203156E-008  0.8556842E+03  0.7818608E-02  0.9482739E-01
          2   -1    0    0  501    0  0.00000000000E+00  0.00000000000E+00  0.11674884760E+04  0.11674884760E+04  0.00000000000E+00 0. -1.
         -2   -1    0    0    0  501 -0.00000000000E+00 -0.00000000000E+00 -0.94686598619E+03  0.94686598619E+03  0.00000000000E+00 0.  1.
         23    2    1    2    0    0  0.71728539480E+03  0.44545133623E+03  0.56810749583E+03  0.10218188763E+04  0.91882853045E+02 0.  0.
    5000000    2    1    2    0    0 -0.71728539480E+03 -0.44545133623E+03 -0.34748500603E+03  0.10925355858E+04  0.59996912117E+03 0.  0.
         23    2    4    4    0    0 -0.44322276060E+03 -0.20674601964E+03  0.10136697740E+03  0.50805363848E+03  0.93020983154E+02 0.  0.
         23    2    4    4    0    0 -0.27406263420E+03 -0.23870531659E+03 -0.44885198343E+03  0.58448194736E+03  0.89780221237E+02 0.  0.
          5    1    3    3  502    0  0.50737124621E+03  0.28244022452E+03  0.42758465452E+03  0.72114408316E+03  0.47000000000E+01 0. -1.
         -5    1    3    3    0  502  0.20991414860E+03  0.16301111171E+03  0.14052284131E+03  0.30067479318E+03  0.47000000000E+01 0.  1.
         11    1    5    5    0    0 -0.12208344566E+03 -0.78167527937E+02  0.69212953521E+02  0.16063923264E+03  0.00000000000E+00 0.  1.
        -11    1    5    5    0    0 -0.32113931494E+03 -0.12857849171E+03  0.32154023882E+02  0.34741440584E+03  0.00000000000E+00 0. -1.
          4    1    6    6  503    0 -0.18919135557E+03 -0.10722418561E+03 -0.24744797790E+03  0.32942510039E+03  0.00000000000E+00 0. -1.
         -4    1    6    6    0  503 -0.84871278632E+02 -0.13148113098E+03 -0.20140400554E+03  0.25505684697E+03  0.00000000000E+00 0.  1.
<mgrwt>
<rscale>  0 0.85568420E+03</rscale>
<asrwt>0</asrwt>
<pdfrwt beam="1">  1        2 0.17961361E+00 0.85568420E+03</pdfrwt>
<pdfrwt beam="2">  1       -2 0.14567169E+00 0.85568420E+03</pdfrwt>
<totfact> 0.64589314E+00</totfact>
</mgrwt>
</event>
<event>
12    1  0.3203156E-008  0.7363633E+03  0.7818608E-02  0.9656990E-01
         -2   -1    0    0    0  501 -0.00000000000E+00  0.00000000000E+00  0.25527852490E+03  0.25527852490E+03  0.00000000000E+00 0.  1.
          2   -1    0    0  501    0  0.00000000000E+00 -0.00000000000E+00 -0.24733323355E+04  0.24733323355E+04  0.00000000000E+00 0. -1.
         23    2    1    2    0    0 -0.58294507803E+03  0.28281597162E+03 -0.61382385177E+03  0.89738674667E+03  0.93345671006E+02 0.  0.
    5000000    2    1    2    0    0  0.58294507803E+03 -0.28281597162E+03 -0.16042299588E+04  0.18312241137E+04  0.60001512988E+03 0.  0.
         23    2    4    4    0    0  0.17162013116E+03  0.13158297026E+03 -0.79451334888E+03  0.82840483305E+03  0.90749977362E+02 0.  0.
         23    2    4    4    0    0  0.41132494687E+03 -0.41439894188E+03 -0.80971660993E+03  0.10028192807E+04  0.95345824858E+02 0.  0.
          5    1    3    3  502    0 -0.26039684162E+03  0.97613330026E+02 -0.21113606386E+03  0.34919250391E+03  0.47000000000E+01 0. -1.
         -5    1    3    3    0  502 -0.32254823641E+03  0.18520264159E+03 -0.40268778791E+03  0.54819424276E+03  0.47000000000E+01 0.  1.
         11    1    5    5    0    0  0.18102485078E+03  0.11580662807E+03 -0.75178200935E+03  0.78189344625E+03  0.00000000000E+00 0. -1.
        -11    1    5    5    0    0 -0.94047196249E+01  0.15776342187E+02 -0.42731339528E+02  0.46511386798E+02  0.00000000000E+00 0.  1.
          2    1    6    6  503    0  0.32264539459E+02 -0.70573210371E+02 -0.79202725990E+02  0.11088124428E+03  0.00000000000E+00 0.  1.
         -2    1    6    6    0  503  0.37906040741E+03 -0.34382573151E+03 -0.73051388394E+03  0.89193803638E+03  0.00000000000E+00 0. -1.
<mgrwt>
<rscale>  0 0.73636325E+03</rscale>
<asrwt>0</asrwt>
<pdfrwt beam="1">  1        2 0.38051266E+00 0.73636325E+03</pdfrwt>
<pdfrwt beam="2">  1       -2 0.39273620E-01 0.73636325E+03</pdfrwt>
<totfact> 0.23139730E+01</totfact>
</mgrwt>
</event>
<event>
12    1  0.3203156E-008  0.8206892E+03  0.7818608E-02  0.9530544E-01
          2   -1    0    0  501    0  0.00000000000E+00  0.00000000000E+00  0.38540527818E+03  0.38540527818E+03  0.00000000000E+00 0. -1.
         -2   -1    0    0    0  501 -0.00000000000E+00 -0.00000000000E+00 -0.21997042072E+04  0.21997042072E+04  0.00000000000E+00 0.  1.
         23    2    1    2    0    0  0.12021879328E+03  0.70626107639E+03 -0.25252474088E+03  0.76513009840E+03  0.91640910322E+02 0.  0.
    5000000    2    1    2    0    0 -0.12021879328E+03 -0.70626107639E+03 -0.15617741881E+04  0.18199793870E+04  0.59994090374E+03 0.  0.
         23    2    4    4    0    0 -0.34612669122E+03 -0.33133694585E+03 -0.82660429350E+03  0.95963407919E+03  0.89638439539E+02 0.  0.
         23    2    4    4    0    0  0.22590789795E+03 -0.37492413054E+03 -0.73516989462E+03  0.86034530777E+03  0.90093244069E+02 0.  0.
          5    1    3    3  502    0  0.99079817713E+02  0.65877599156E+03 -0.25384134174E+03  0.71292365237E+03  0.47000000000E+01 0. -1.
         -5    1    3    3    0  502  0.21138975562E+02  0.47485084830E+02  0.13166008662E+01  0.52206446029E+02  0.47000000000E+01 0.  1.
         11    1    5    5    0    0 -0.76091514513E+02 -0.12100110479E+03 -0.20311826275E+03  0.24837112273E+03  0.00000000000E+00 0.  1.
        -11    1    5    5    0    0 -0.27003517671E+03 -0.21033584106E+03 -0.62348603074E+03  0.71126295646E+03  0.00000000000E+00 0. -1.
          3    1    6    6  503    0  0.17283027768E+03 -0.29152331170E+03 -0.48799366226E+03  0.59413294855E+03  0.00000000000E+00 0. -1.
         -3    1    6    6    0  503  0.53077620267E+02 -0.83400818840E+02 -0.24717623236E+03  0.26621235922E+03  0.00000000000E+00 0.  1.
<mgrwt>
<rscale>  0 0.82068919E+03</rscale>
<asrwt>0</asrwt>
<pdfrwt beam="1">  1        2 0.59293121E-01 0.82068919E+03</pdfrwt>
<pdfrwt beam="2">  1       -2 0.33841603E+00 0.82068919E+03</pdfrwt>
<totfact> 0.15847846E+00</totfact>
</mgrwt>
</event>
<event>
12    1  0.3203156E-008  0.9445652E+03  0.7818608E-02  0.9371526E-01
         -1   -1    0    0    0  501 -0.00000000000E+00  0.00000000000E+00  0.52996155441E+03  0.52996155441E+03  0.00000000000E+00 0.  1.
          1   -1    0    0  501    0  0.00000000000E+00 -0.00000000000E+00 -0.21073924718E+04  0.21073924718E+04  0.00000000000E+00 0. -1.
         23    2    1    2    0    0 -0.91392664136E+03 -0.84377149998E+02 -0.11160781363E+04  0.14477668162E+04  0.89537358275E+02 0.  0.
    5000000    2    1    2    0    0  0.91392664136E+03  0.84377149998E+02 -0.46135278113E+03  0.11895872101E+04  0.59990827002E+03 0.  0.
         23    2    4    4    0    0  0.42756741454E+03 -0.96518426081E+02  0.57711737271E+02  0.45126685573E+03  0.90451257122E+02 0.  0.
         23    2    4    4    0    0  0.48635922682E+03  0.18089557608E+03 -0.51906451840E+03  0.73832035432E+03  0.80127800298E+02 0.  0.
          5    1    3    3  502    0 -0.38480501376E+03  0.79600066222E+01 -0.47724764278E+03  0.61312777042E+03  0.47000000000E+01 0. -1.
         -5    1    3    3    0  502 -0.52912162759E+03 -0.92337156620E+02 -0.63883049351E+03  0.83463904576E+03  0.47000000000E+01 0.  1.
         11    1    5    5    0    0  0.13387756144E+03 -0.70574874931E+02  0.36446372541E+02  0.15566744201E+03  0.00000000000E+00 0. -1.
        -11    1    5    5    0    0  0.29368985310E+03 -0.25943551150E+02  0.21265364730E+02  0.29559941373E+03  0.00000000000E+00 0.  1.
          2    1    6    6  503    0  0.17536507879E+03  0.42139923774E+02 -0.22514418770E+03  0.28847632362E+03  0.00000000000E+00 0. -1.
         -2    1    6    6    0  503  0.31099414802E+03  0.13875565230E+03 -0.29392033070E+03  0.44984403069E+03  0.00000000000E+00 0.  1.
<mgrwt>
<rscale>  0 0.94456521E+03</rscale>
<asrwt>0</asrwt>
<pdfrwt beam="1">  1        1 0.32421422E+00 0.94456521E+03</pdfrwt>
<pdfrwt beam="2">  1       -1 0.81532548E-01 0.94456521E+03</pdfrwt>
<totfact> 0.38510302E+00</totfact>
</mgrwt>
</event>
<event>
12    1  0.3203156E-008  0.5881996E+03  0.7818608E-02  0.9930195E-01
         -2   -1    0    0    0  501 -0.00000000000E+00  0.00000000000E+00  0.40783827069E+03  0.40783827069E+03  0.00000000000E+00 0.  1.
          2   -1    0    0  501    0  0.00000000000E+00 -0.00000000000E+00 -0.11207245309E+04  0.11207245309E+04  0.00000000000E+00 0. -1.
         23    2    1    2    0    0  0.47006905659E+03  0.15906493133E+03 -0.52337325373E+03  0.72711558763E+03  0.92254781464E+02 0.  0.
    5000000    2    1    2    0    0 -0.47006905659E+03 -0.15906493133E+03 -0.18951300648E+03  0.80144721397E+03  0.60011322832E+03 0.  0.
         23    2    4    4    0    0  0.58989778489E+02 -0.81332447173E+02 -0.21899274171E+03  0.25789838513E+03  0.91972795981E+02 0.  0.
         23    2    4    4    0    0 -0.52905883508E+03 -0.77732484156E+02  0.29479735228E+02  0.54354882884E+03  0.92901477232E+02 0.  0.
          5    1    3    3  502    0  0.26236521648E+03  0.13645223847E+03 -0.30844130600E+03  0.42733224715E+03  0.47000000000E+01 0. -1.
         -5    1    3    3    0  502  0.20770384011E+03  0.22612692863E+02 -0.21493194773E+03  0.29978334048E+03  0.47000000000E+01 0.  1.
         13    1    5    5    0    0 -0.21830424928E+02 -0.98104912267E+00 -0.42880614070E+02  0.48127715227E+02  0.00000000000E+00 0.  1.
        -13    1    5    5    0    0  0.80820203417E+02 -0.80351398050E+02 -0.17611212764E+03  0.20977066990E+03  0.00000000000E+00 0. -1.
          1    1    6    6  503    0 -0.44216288586E+03 -0.77688346572E+02  0.56669030722E+02  0.45249848162E+03  0.00000000000E+00 0. -1.
         -1    1    6    6    0  503 -0.86895949218E+02 -0.44137583502E-01 -0.27189295494E+02  0.91050347216E+02  0.00000000000E+00 0.  1.
<mgrwt>
<rscale>  0 0.58819959E+03</rscale>
<asrwt>0</asrwt>
<pdfrwt beam="1">  1        2 0.17241916E+00 0.58819959E+03</pdfrwt>
<pdfrwt beam="2">  1       -2 0.62744350E-01 0.58819959E+03</pdfrwt>
<totfact> 0.51502056E+01</totfact>
</mgrwt>
</event>
<event>
12    1  0.3203156E-008  0.1204332E+04  0.7818608E-02  0.9109073E-01
         -1   -1    0    0    0  501 -0.00000000000E+00  0.00000000000E+00  0.10198942296E+04  0.10198942296E+04  0.00000000000E+00 0.  1.
          1   -1    0    0  501    0  0.00000000000E+00 -0.00000000000E+00 -0.16072117288E+04  0.16072117288E+04  0.00000000000E+00 0. -1.
         23    2    1    2    0    0 -0.79558836786E+03  0.85900985576E+03 -0.58410088448E+03  0.13115061436E+04  0.89530654943E+02 0.  0.
    5000000    2    1    2    0    0  0.79558836786E+03 -0.85900985576E+03 -0.32166147497E+01  0.13155998148E+04  0.59994478309E+03 0.  0.
         23    2    4    4    0    0  0.66978757014E+03 -0.48808799622E+03 -0.21574893412E+03  0.86121575767E+03  0.91102675730E+02 0.  0.
         23    2    4    4    0    0  0.12580079772E+03 -0.37092185954E+03  0.21253231937E+03  0.45438405714E+03  0.88803254537E+02 0.  0.
          5    1    3    3  502    0 -0.39273351719E+03  0.48509468879E+03 -0.29282126251E+03  0.68943662101E+03  0.47000000000E+01 0. -1.
         -5    1    3    3    0  502 -0.40285485067E+03  0.37391516696E+03 -0.29127962197E+03  0.62206952262E+03  0.47000000000E+01 0.  1.
         13    1    5    5    0    0  0.59988897682E+02 -0.78643969793E+02 -0.33581942813E+02  0.10445711423E+03  0.00000000000E+00 0. -1.
        -13    1    5    5    0    0  0.60979867246E+03 -0.40944402643E+03 -0.18216699130E+03  0.75675864344E+03  0.00000000000E+00 0.  1.
          1    1    6    6  503    0  0.30517229882E+02 -0.22556689426E+03  0.12745681614E+03  0.26087729891E+03  0.00000000000E+00 0. -1.
         -1    1    6    6    0  503  0.95283567839E+02 -0.14535496527E+03  0.85075503227E+02  0.19350675823E+03  0.00000000000E+00 0.  1.
<mgrwt>
<rscale>  0 0.12043320E+04</rscale>
<asrwt>0</asrwt>
<pdfrwt beam="1">  1        1 0.24726334E+00 0.12043320E+04</pdfrwt>
<pdfrwt beam="2">  1       -1 0.15690680E+00 0.12043320E+04</pdfrwt>
<totfact> 0.16688354E+00</totfact>
</mgrwt>
</event>
<event>
12    1  0.3203156E-008  0.1162453E+04  0.7818608E-02  0.9146371E-01
          1   -1    0    0  501    0  0.00000000000E+00  0.00000000000E+00  0.20532836892E+04  0.20532836892E+04  0.00000000000E+00 0. -1.
         -1   -1    0    0    0  501 -0.00000000000E+00 -0.00000000000E+00 -0.92044385644E+03  0.92044385644E+03  0.00000000000E+00 0.  1.
         23    2    1    2    0    0 -0.29645061379E+03  0.10458300080E+04  0.13246277641E+04  0.17171789257E+04  0.11145123278E+03 0.  0.
    5000000    2    1    2    0    0  0.29645061379E+03 -0.10458300080E+04 -0.19178793131E+03  0.12565486200E+04  0.60040690504E+03 0.  0.
         23    2    4    4    0    0 -0.12855775230E+03 -0.58249722650E+03 -0.14162602426E+03  0.61946503728E+03  0.88593945129E+02 0.  0.
         23    2    4    4    0    0  0.42500836609E+03 -0.46333278155E+03 -0.50161907053E+02  0.63708358269E+03  0.89721216627E+02 0.  0.
          5    1    3    3  502    0 -0.23841389525E+03  0.95746102523E+03  0.11864993667E+04  0.15431706443E+04  0.47000000000E+01 0. -1.
         -5    1    3    3    0  502 -0.58036718544E+02  0.88368982822E+02  0.13812839739E+03  0.17400828138E+03  0.47000000000E+01 0.  1.
         11    1    5    5    0    0 -0.28081341853E+02 -0.78982550200E+02 -0.50898942199E+02  0.98068890649E+02  0.00000000000E+00 0.  1.
        -11    1    5    5    0    0 -0.10047641045E+03 -0.50351467630E+03 -0.90727082057E+02  0.52139614663E+03  0.00000000000E+00 0. -1.
          2    1    6    6  503    0  0.15995839567E+03 -0.24045180714E+03 -0.23824589891E+02  0.28977814098E+03  0.00000000000E+00 0. -1.
         -2    1    6    6    0  503  0.26504997042E+03 -0.22288097441E+03 -0.26337317161E+02  0.34730544172E+03  0.00000000000E+00 0.  1.
<mgrwt>
<rscale>  0 0.11624534E+04</rscale>
<asrwt>0</asrwt>
<pdfrwt beam="1">  1        1 0.31588980E+00 0.11624534E+04</pdfrwt>
<pdfrwt beam="2">  1       -1 0.14160675E+00 0.11624534E+04</pdfrwt>
<totfact> 0.11024309E+00</totfact>
</mgrwt>
</event>
<event>
12    1  0.3203156E-008  0.1568820E+04  0.7818608E-02  0.8839935E-01
         -2   -1    0    0    0  501 -0.00000000000E+00  0.00000000000E+00  0.14036558820E+04  0.14036558820E+04  0.00000000000E+00 0.  1.
          2   -1    0    0  501    0  0.00000000000E+00 -0.00000000000E+00 -0.21104289516E+04  0.21104289516E+04  0.00000000000E+00 0. -1.
         23    2    1    2    0    0 -0.15467935743E+04  0.10490452656E+03  0.28405715485E+03  0.15787920931E+04  0.91217788333E+02 0.  0.
    5000000    2    1    2    0    0  0.15467935743E+04 -0.10490452656E+03 -0.99083022449E+03  0.19352927404E+04  0.60003177930E+03 0.  0.
         23    2    4    4    0    0  0.14902311614E+04 -0.12166345384E+03 -0.76001002783E+03  0.16797117930E+04  0.90694844030E+02 0.  0.
         23    2    4    4    0    0  0.56562412891E+02  0.16758927278E+02 -0.23082019666E+03  0.25558094741E+03  0.92539123073E+02 0.  0.
          5    1    3    3  502    0 -0.10999185742E+04  0.11077378837E+03  0.22205613040E+03  0.11275738189E+04  0.47000000000E+01 0. -1.
         -5    1    3    3    0  502 -0.44687500008E+03 -0.58692618015E+01  0.62001024457E+02  0.45121827419E+03  0.47000000000E+01 0.  1.
         13    1    5    5    0    0  0.82497530012E+03 -0.59164584104E+02 -0.46997492583E+03  0.95129444692E+03  0.00000000000E+00 0.  1.
        -13    1    5    5    0    0  0.66525586130E+03 -0.62498869739E+02 -0.29003510200E+03  0.72841734610E+03  0.00000000000E+00 0. -1.
          2    1    6    6  503    0 -0.87640672640E+01  0.22701233709E+02 -0.14771916781E+03  0.14971007790E+03  0.00000000000E+00 0. -1.
         -2    1    6    6    0  503  0.65326480155E+02 -0.59423064306E+01 -0.83101028847E+02  0.10587086951E+03  0.00000000000E+00 0.  1.
<mgrwt>
<rscale>  0 0.15688203E+04</rscale>
<asrwt>0</asrwt>
<pdfrwt beam="1">  1        2 0.32468137E+00 0.15688203E+04</pdfrwt>
<pdfrwt beam="2">  1       -2 0.21594706E+00 0.15688203E+04</pdfrwt>
<totfact> 0.56649694E-01</totfact>
</mgrwt>
</event>
<event>
12    1  0.3203156E-008  0.5638583E+03  0.7818608E-02  0.9983362E-01
          1   -1    0    0  501    0  0.00000000000E+00  0.00000000000E+00  0.13289042583E+04  0.13289042583E+04  0.00000000000E+00 0. -1.
         -1   -1    0    0    0  501 -0.00000000000E+00 -0.00000000000E+00 -0.27942030171E+03  0.27942030171E+03  0.00000000000E+00 0.  1.
         23    2    1    2    0    0  0.14070378063E+02  0.42675753668E+03  0.61181503353E+03  0.75158900391E+03  0.90820839573E+02 0.  0.
    5000000    2    1    2    0    0 -0.14070378063E+02 -0.42675753668E+03  0.43766892302E+03  0.85673555606E+03  0.60010145492E+03 0.  0.
         23    2    4    4    0    0 -0.79971924529E+02 -0.53846471310E+03  0.23528830721E+03  0.60001023741E+03  0.91169849850E+02 0.  0.
         23    2    4    4    0    0  0.65901546467E+02  0.11170717642E+03  0.20238061581E+03  0.25672531865E+03  0.90158019541E+02 0.  0.
          5    1    3    3  502    0  0.23588918869E+01  0.38091608875E+03  0.58158755876E+03  0.69524730100E+03  0.47000000000E+01 0. -1.
         -5    1    3    3    0  502  0.11711486176E+02  0.45841447927E+02  0.30227474769E+02  0.56341702915E+02  0.47000000000E+01 0.  1.
         11    1    5    5    0    0 -0.71019604688E+02 -0.19377715215E+03  0.72874449673E+02  0.21886994851E+03  0.00000000000E+00 0. -1.
        -11    1    5    5    0    0 -0.89523198419E+01 -0.34468756096E+03  0.16241385753E+03  0.38114028891E+03  0.00000000000E+00 0.  1.
          4    1    6    6  503    0  0.13439830625E+02 -0.91640746439E+01  0.13004205830E+01  0.16318713338E+02  0.00000000000E+00 0. -1.
         -4    1    6    6    0  503  0.52461715842E+02  0.12087125107E+03  0.20108019523E+03  0.24040660531E+03  0.00000000000E+00 0.  1.
<mgrwt>
<rscale>  0 0.56385829E+03</rscale>
<asrwt>0</asrwt>
<pdfrwt beam="1">  1        1 0.20444681E+00 0.56385829E+03</pdfrwt>
<pdfrwt beam="2">  1       -1 0.42987739E-01 0.56385829E+03</pdfrwt>
<totfact> 0.48340480E+01</totfact>
</mgrwt>
</event>
<event>
12    1  0.3203156E-008  0.5787513E+03  0.7818608E-02  0.9950498E-01
         -2   -1    0    0    0  501 -0.00000000000E+00  0.00000000000E+00  0.17366255142E+03  0.17366255142E+03  0.00000000000E+00 0.  1.
          2   -1    0    0  501    0  0.00000000000E+00 -0.00000000000E+00 -0.28348962188E+04  0.28348962188E+04  0.00000000000E+00 0. -1.
         23    2    1    2    0    0 -0.21175474226E+03  0.46018952292E+03 -0.16515317407E+04  0.17295284133E+04  0.84243539679E+02 0.  0.
    5000000    2    1    2    0    0  0.21175474226E+03 -0.46018952292E+03 -0.10097019267E+04  0.12790303570E+04  0.59983848272E+03 0.  0.
         23    2    4    4    0    0  0.30948880632E+03 -0.37131143350E+03 -0.10036915127E+04  0.11178147836E+04  0.91965950004E+02 0.  0.
         23    2    4    4    0    0 -0.97734064066E+02 -0.88878089414E+02 -0.60104140596E+01  0.16121557337E+03  0.92212113968E+02 0.  0.
          5    1    3    3  502    0 -0.16993769362E+03  0.34595293640E+03 -0.13606918190E+04  0.14142370983E+04  0.47000000000E+01 0. -1.
         -5    1    3    3    0  502 -0.41817048635E+02  0.11423658652E+03 -0.29083992171E+03  0.31529131501E+03  0.47000000000E+01 0.  1.
         13    1    5    5    0    0  0.11756460903E+03 -0.78849211686E+02 -0.26313944544E+03  0.29879926912E+03  0.00000000000E+00 0. -1.
        -13    1    5    5    0    0  0.19192419729E+03 -0.29246222182E+03 -0.74055206722E+03  0.81901551448E+03  0.00000000000E+00 0.  1.
          1    1    6    6  503    0 -0.28034427984E+02  0.16538795538E+02  0.94612715137E+01  0.33896556888E+02  0.00000000000E+00 0. -1.
         -1    1    6    6    0  503 -0.69699636083E+02 -0.10541688495E+03 -0.15471685573E+02  0.12731901648E+03  0.00000000000E+00 0.  1.
<mgrwt>
<rscale>  0 0.57875125E+03</rscale>
<asrwt>0</asrwt>
<pdfrwt beam="1">  1        2 0.43613786E+00 0.57875125E+03</pdfrwt>
<pdfrwt beam="2">  1       -2 0.26717317E-01 0.57875125E+03</pdfrwt>
<totfact> 0.30327402E+01</totfact>
</mgrwt>
</event>
<event>
12    1  0.3203156E-008  0.8233055E+03  0.7818608E-02  0.9526883E-01
         -2   -1    0    0    0  501 -0.00000000000E+00  0.00000000000E+00  0.28428306898E+03  0.28428306898E+03  0.00000000000E+00 0.  1.
          2   -1    0    0  501    0  0.00000000000E+00 -0.00000000000E+00 -0.30673342079E+04  0.30673342079E+04  0.00000000000E+00 0. -1.
         23    2    1    2    0    0 -0.44030593175E+03 -0.67806768597E+03 -0.87833805668E+03  0.11971795935E+04  0.90089605735E+02 0.  0.
    5000000    2    1    2    0    0  0.44030593175E+03  0.67806768597E+03 -0.19047130823E+04  0.21544376834E+04  0.60002058757E+03 0.  0.
         23    2    4    4    0    0  0.40248008281E+03  0.49667767271E+03 -0.18207018390E+04  0.19317797520E+04  0.90215829737E+02 0.  0.
         23    2    4    4    0    0  0.37825848939E+02  0.18139001325E+03 -0.84011243250E+02  0.22265793140E+03  0.90473939152E+02 0.  0.
          5    1    3    3  502    0 -0.34147490643E+03 -0.56783898745E+03 -0.67794572945E+03  0.94798667156E+03  0.47000000000E+01 0. -1.
         -5    1    3    3    0  502 -0.98831025323E+02 -0.11022869852E+03 -0.20039232724E+03  0.24919292197E+03  0.47000000000E+01 0.  1.
         13    1    5    5    0    0  0.30852996207E+03  0.32830094208E+03 -0.11981649463E+04  0.12800669844E+04  0.00000000000E+00 0.  1.
        -13    1    5    5    0    0  0.93950120742E+02  0.16837673064E+03 -0.62253689273E+03  0.65171276758E+03  0.00000000000E+00 0. -1.
          1    1    6    6  503    0  0.14122028766E+02  0.56717922587E+01  0.13465451115E+02  0.20320415784E+02  0.00000000000E+00 0. -1.
         -1    1    6    6    0  503  0.23703820173E+02  0.17571822099E+03 -0.97476694365E+02  0.20233751561E+03  0.00000000000E+00 0.  1.
<mgrwt>
<rscale>  0 0.82330545E+03</rscale>
<asrwt>0</asrwt>
<pdfrwt beam="1">  1        2 0.47189755E+00 0.82330545E+03</pdfrwt>
<pdfrwt beam="2">  1       -2 0.43735858E-01 0.82330545E+03</pdfrwt>
<totfact> 0.82383293E+00</totfact>
</mgrwt>
</event>
<event>
12    1  0.3203156E-008  0.6303864E+03  0.7818608E-02  0.9844295E-01
          2   -1    0    0  501    0  0.00000000000E+00  0.00000000000E+00  0.15077946334E+04  0.15077946334E+04  0.00000000000E+00 0. -1.
         -2   -1    0    0    0  501 -0.00000000000E+00 -0.00000000000E+00 -0.42584021474E+03  0.42584021474E+03  0.00000000000E+00 0.  1.
         23    2    1    2    0    0 -0.47538018138E+03 -0.18119257072E+03  0.10209524856E+04  0.11446808652E+04  0.95567990401E+02 0.  0.
    5000000    2    1    2    0    0  0.47538018138E+03  0.18119257072E+03  0.61001933078E+02  0.78895398295E+03  0.59992506768E+03 0.  0.
         23    2    4    4    0    0  0.19164561757E+03 -0.18348674564E+03 -0.90026695870E+02  0.29436441986E+03  0.90278331591E+02 0.  0.
         23    2    4    4    0    0  0.28373456381E+03  0.36467931636E+03  0.15102862895E+03  0.49458956308E+03  0.91175011189E+02 0.  0.
          5    1    3    3  502    0 -0.34482797441E+03 -0.85862697422E+02  0.67726291800E+03  0.76484369962E+03  0.47000000000E+01 0. -1.
         -5    1    3    3    0  502 -0.13055220697E+03 -0.95329873302E+02  0.34368956762E+03  0.37983716561E+03  0.47000000000E+01 0.  1.
         13    1    5    5    0    0  0.13884165443E+03 -0.17996670118E+03 -0.74946989139E+02  0.23933672873E+03  0.00000000000E+00 0.  1.
        -13    1    5    5    0    0  0.52803963141E+02 -0.35200444549E+01 -0.15079706731E+02  0.55027691133E+02  0.00000000000E+00 0. -1.
          3    1    6    6  503    0  0.89723730388E+02  0.89349361732E+02  0.81747882456E+02  0.15071951606E+03  0.00000000000E+00 0. -1.
         -3    1    6    6    0  503  0.19401083342E+03  0.27532995463E+03  0.69280746493E+02  0.34387004702E+03  0.00000000000E+00 0.  1.
<mgrwt>
<rscale>  0 0.63038638E+03</rscale>
<asrwt>0</asrwt>
<pdfrwt beam="1">  1        2 0.23196840E+00 0.63038638E+03</pdfrwt>
<pdfrwt beam="2">  1       -2 0.65513880E-01 0.63038638E+03</pdfrwt>
<totfact> 0.28030380E+01</totfact>
</mgrwt>
</event>
<event>
12    1  0.3203156E-008  0.6210829E+03  0.7818608E-02  0.9862606E-01
          1   -1    0    0  501    0  0.00000000000E+00  0.00000000000E+00  0.50252875035E+03  0.50252875035E+03  0.00000000000E+00 0. -1.
         -1   -1    0    0    0  501 -0.00000000000E+00 -0.00000000000E+00 -0.79116841762E+03  0.79116841762E+03  0.00000000000E+00 0.  1.
         23    2    1    2    0    0  0.47635131644E+03 -0.72993870404E+02 -0.80939496997E+02  0.49774625805E+03  0.94664953605E+02 0.  0.
    5000000    2    1    2    0    0 -0.47635131644E+03  0.72993870404E+02 -0.20770017027E+03  0.79595090991E+03  0.59846454236E+03 0.  0.
         23    2    4    4    0    0  0.33988330917E+02 -0.16752116006E+03 -0.75351177647E+02  0.20756761419E+03  0.90487395708E+02 0.  0.
         23    2    4    4    0    0 -0.51033964736E+03  0.24051503047E+03 -0.13234899263E+03  0.58838329572E+03  0.10190491297E+03 0.  0.
          5    1    3    3  502    0  0.38315284315E+03 -0.34177792849E+02 -0.33678805717E+02  0.38617428021E+03  0.47000000000E+01 0. -1.
         -5    1    3    3    0  502  0.93198473286E+02 -0.38816077555E+02 -0.47260691280E+02  0.11157197784E+03  0.47000000000E+01 0.  1.
         13    1    5    5    0    0  0.33794262665E+02 -0.22669225021E+02  0.64694252777E+01  0.41204361608E+02  0.00000000000E+00 0. -1.
        -13    1    5    5    0    0  0.19406825182E+00 -0.14485193504E+03 -0.81820602925E+02  0.16636325258E+03  0.00000000000E+00 0.  1.
          2    1    6    6  503    0 -0.30495962690E+03  0.19014835880E+03 -0.10945290427E+03  0.37568166131E+03  0.00000000000E+00 0. -1.
         -2    1    6    6    0  503 -0.20538002046E+03  0.50366671664E+02 -0.22896088360E+02  0.21270163441E+03  0.00000000000E+00 0.  1.
<mgrwt>
<rscale>  0 0.62108292E+03</rscale>
<asrwt>0</asrwt>
<pdfrwt beam="1">  1        1 0.77312115E-01 0.62108292E+03</pdfrwt>
<pdfrwt beam="2">  1       -1 0.12171822E+00 0.62108292E+03</pdfrwt>
<totfact> 0.27336389E+01</totfact>
</mgrwt>
</event>
<event>
12    1  0.3203156E-008  0.5581699E+03  0.7818608E-02  0.9996204E-01
         -2   -1    0    0    0  501 -0.00000000000E+00  0.00000000000E+00  0.32629852071E+03  0.32629852071E+03  0.00000000000E+00 0.  1.
          2   -1    0    0  501    0  0.00000000000E+00 -0.00000000000E+00 -0.17848603432E+04  0.17848603432E+04  0.00000000000E+00 0. -1.
         23    2    1    2    0    0 -0.44189235256E+03 -0.19032318552E+03 -0.12061643081E+04  0.13017675900E+04  0.90965674873E+02 0.  0.
    5000000    2    1    2    0    0  0.44189235256E+03  0.19032318552E+03 -0.25239751439E+03  0.80939127393E+03  0.59993163181E+03 0.  0.
         23    2    4    4    0    0  0.49567570583E+03  0.14514346472E+03  0.69481028675E+01  0.52574935505E+03  0.97995293256E+02 0.  0.
         23    2    4    4    0    0 -0.53783353271E+02  0.45179720797E+02 -0.25934561726E+03  0.28364191888E+03  0.90877569804E+02 0.  0.
          5    1    3    3  502    0 -0.36353268221E+03 -0.16972386120E+03 -0.90685427092E+03  0.99164961493E+03  0.47000000000E+01 0. -1.
         -5    1    3    3    0  502 -0.78359670351E+02 -0.20599324319E+02 -0.29931003714E+03  0.31011797503E+03  0.47000000000E+01 0.  1.
         13    1    5    5    0    0  0.37041900130E+03  0.83711315704E+02 -0.31423851623E+02  0.38105810495E+03  0.00000000000E+00 0. -1.
        -13    1    5    5    0    0  0.12525670454E+03  0.61432149020E+02  0.38371954491E+02  0.14469125010E+03  0.00000000000E+00 0.  1.
          3    1    6    6  503    0 -0.61907316380E+02 -0.66101375633E+01 -0.13292745175E+03  0.14678527573E+03  0.00000000000E+00 0. -1.
         -3    1    6    6    0  503  0.81239631089E+01  0.51789858361E+02 -0.12641816551E+03  0.13685664315E+03  0.00000000000E+00 0.  1.
<mgrwt>
<rscale>  0 0.55816985E+03</rscale>
<asrwt>0</asrwt>
<pdfrwt beam="1">  1        2 0.27459390E+00 0.55816985E+03</pdfrwt>
<pdfrwt beam="2">  1       -2 0.50199773E-01 0.55816985E+03</pdfrwt>
<totfact> 0.34872058E+01</totfact>
</mgrwt>
</event>
<event>
12    1  0.3203156E-008  0.6782916E+03  0.7818608E-02  0.9755094E-01
          1   -1    0    0  501    0  0.00000000000E+00  0.00000000000E+00  0.75596849816E+03  0.75596849816E+03  0.00000000000E+00 0. -1.
         -1   -1    0    0    0  501 -0.00000000000E+00 -0.00000000000E+00 -0.96524814777E+03  0.96524814777E+03  0.00000000000E+00 0.  1.
         23    2    1    2    0    0 -0.39558731821E+03 -0.49858673455E+03 -0.48339647750E+03  0.80460582093E+03  0.92953291564E+02 0.  0.
    5000000    2    1    2    0    0  0.39558731821E+03  0.49858673455E+03  0.27411682789E+03  0.91661082500E+03  0.59996442476E+03 0.  0.
         23    2    4    4    0    0  0.40597829292E+02  0.27739710489E+03 -0.13545996055E+03  0.32432396461E+03  0.90770565510E+02 0.  0.
         23    2    4    4    0    0  0.35498948892E+03  0.22118962966E+03  0.40957678845E+03  0.59228686039E+03  0.90045487660E+02 0.  0.
          5    1    3    3  502    0 -0.24805910120E+03 -0.36625930186E+03 -0.36645634868E+03  0.57444890058E+03  0.47000000000E+01 0. -1.
         -5    1    3    3    0  502 -0.14752821701E+03 -0.13232743268E+03 -0.11694012883E+03  0.23015692035E+03  0.47000000000E+01 0.  1.
         13    1    5    5    0    0  0.60712671351E+02  0.22773584139E+03 -0.84499636126E+02  0.25037937299E+03  0.00000000000E+00 0. -1.
        -13    1    5    5    0    0 -0.20114842059E+02  0.49661263504E+02 -0.50960324428E+02  0.73944591618E+02  0.00000000000E+00 0.  1.
          4    1    6    6  503    0  0.23274853318E+03  0.19022418134E+03  0.26829506428E+03  0.40291358922E+03  0.00000000000E+00 0. -1.
         -4    1    6    6    0  503  0.12224095574E+03  0.30965448315E+02  0.14128172417E+03  0.18937327117E+03  0.00000000000E+00 0.  1.
<mgrwt>
<rscale>  0 0.67829162E+03</rscale>
<asrwt>0</asrwt>
<pdfrwt beam="1">  1        1 0.11630285E+00 0.67829162E+03</pdfrwt>
<pdfrwt beam="2">  1       -1 0.14849971E+00 0.67829162E+03</pdfrwt>
<totfact> 0.90374620E+00</totfact>
</mgrwt>
</event>
<event>
12    1  0.3203156E-008  0.8633877E+03  0.7818608E-02  0.9472542E-01
          2   -1    0    0  501    0  0.00000000000E+00  0.00000000000E+00  0.15786123341E+04  0.15786123341E+04  0.00000000000E+00 0. -1.
         -2   -1    0    0    0  501 -0.00000000000E+00 -0.00000000000E+00 -0.89430293577E+03  0.89430293577E+03  0.00000000000E+00 0.  1.
         23    2    1    2    0    0 -0.52557084107E+03  0.67241606700E+03 -0.41852646535E+03  0.95483170646E+03  0.90394188582E+02 0.  0.
    5000000    2    1    2    0    0  0.52557084107E+03 -0.67241606700E+03  0.11028358637E+04  0.15180835634E+04  0.59996890515E+03 0.  0.
         23    2    4    4    0    0  0.24778648232E+03 -0.28108469150E+03  0.91807829211E+03  0.99574823615E+03  0.90774747237E+02 0.  0.
         23    2    4    4    0    0  0.27778435875E+03 -0.39133137550E+03  0.18475757162E+03  0.52233532730E+03  0.91621168178E+02 0.  0.
          5    1    3    3  502    0 -0.31840933884E+03  0.41026314607E+03 -0.20538995958E+03  0.55848677834E+03  0.47000000000E+01 0. -1.
         -5    1    3    3    0  502 -0.20716150222E+03  0.26215292093E+03 -0.21313650577E+03  0.39634492812E+03  0.47000000000E+01 0.  1.
         11    1    5    5    0    0  0.10277220475E+03 -0.18455391670E+03  0.49168427967E+03  0.53514082736E+03  0.00000000000E+00 0. -1.
        -11    1    5    5    0    0  0.14501427757E+03 -0.96530774802E+02  0.42639401245E+03  0.46060740879E+03  0.00000000000E+00 0.  1.
          2    1    6    6  503    0  0.43281960515E+02 -0.12846152101E+03  0.64381191911E+02  0.15006874544E+03  0.00000000000E+00 0. -1.
         -2    1    6    6    0  503  0.23450239823E+03 -0.26286985449E+03  0.12037637971E+03  0.37226658185E+03  0.00000000000E+00 0.  1.
<mgrwt>
<rscale>  0 0.86338773E+03</rscale>
<asrwt>0</asrwt>
<pdfrwt beam="1">  1        2 0.24286344E+00 0.86338773E+03</pdfrwt>
<pdfrwt beam="2">  1       -2 0.13758507E+00 0.86338773E+03</pdfrwt>
<totfact> 0.43534395E+00</totfact>
</mgrwt>
</event>
<event>
12    1  0.3203156E-008  0.5930869E+03  0.7818608E-02  0.9919853E-01
         -1   -1    0    0    0  501 -0.00000000000E+00  0.00000000000E+00  0.53023888501E+03  0.53023888501E+03  0.00000000000E+00 0.  1.
          1   -1    0    0  501    0  0.00000000000E+00 -0.00000000000E+00 -0.97883792157E+03  0.97883792157E+03  0.00000000000E+00 0. -1.
         23    2    1    2    0    0  0.98962571904E+02  0.54048892703E+03  0.47455451563E+02  0.55613258879E+03  0.71481225131E+02 0.  0.
    5000000    2    1    2    0    0 -0.98962571904E+02 -0.54048892703E+03 -0.49605448812E+03  0.95294421779E+03  0.60009228970E+03 0.  0.
         23    2    4    4    0    0  0.87569331469E+02 -0.30703850104E+03 -0.54386764745E+03  0.63729543582E+03  0.91719276262E+02 0.  0.
         23    2    4    4    0    0 -0.18653190337E+03 -0.23345042600E+03  0.47813159330E+02  0.31564878197E+03  0.89748554204E+02 0.  0.
          5    1    3    3  502    0  0.34112523646E+02  0.12101254826E+03 -0.16364288707E+02  0.12687624305E+03  0.47000000000E+01 0. -1.
         -5    1    3    3    0  502  0.64850048258E+02  0.41947637877E+03  0.63819740270E+02  0.42925634573E+03  0.47000000000E+01 0.  1.
         13    1    5    5    0    0  0.28196845715E+02 -0.19543146065E+03 -0.25938716419E+03  0.32599113311E+03  0.00000000000E+00 0.  1.
        -13    1    5    5    0    0  0.59372485755E+02 -0.11160704039E+03 -0.28448048326E+03  0.31130430271E+03  0.00000000000E+00 0. -1.
          2    1    6    6  503    0 -0.15898310145E+03 -0.13127810447E+03  0.30606050826E+02  0.20843775475E+03  0.00000000000E+00 0. -1.
         -2    1    6    6    0  503 -0.27548801920E+02 -0.10217232153E+03  0.17207108504E+02  0.10721102722E+03  0.00000000000E+00 0.  1.
<mgrwt>
<rscale>  0 0.59308687E+03</rscale>
<asrwt>0</asrwt>
<pdfrwt beam="1">  1        1 0.15059045E+00 0.59308687E+03</pdfrwt>
<pdfrwt beam="2">  1       -1 0.81575212E-01 0.59308687E+03</pdfrwt>
<totfact> 0.24679976E+01</totfact>
</mgrwt>
</event>
<event>
12    1  0.3203156E-008  0.4398457E+03  0.7818608E-02  0.1030794E+00
         -2   -1    0    0    0  501 -0.00000000000E+00  0.00000000000E+00  0.48752346968E+03  0.48752346968E+03  0.00000000000E+00 0. -1.
          2   -1    0    0  501    0  0.00000000000E+00 -0.00000000000E+00 -0.58640178511E+03  0.58640178511E+03  0.00000000000E+00 0.  1.
         23    2    1    2    0    0 -0.32333463718E+03 -0.14807340757E+03  0.14251058973E+02  0.36733121693E+03  0.90874136145E+02 0.  0.
    5000000    2    1    2    0    0  0.32333463718E+03  0.14807340757E+03 -0.11312937440E+03  0.70659403785E+03  0.60000488111E+03 0.  0.
         23    2    4    4    0    0 -0.57835481819E+02  0.24358881912E+02  0.17332940047E+03  0.20563364792E+03  0.91125287415E+02 0.  0.
         23    2    4    4    0    0  0.38117011900E+03  0.12371452565E+03 -0.28645877487E+03  0.50096038993E+03  0.91141313928E+02 0.  0.
          5    1    3    3  502    0 -0.10591469699E+03 -0.15212080664E+02 -0.23647659016E+02  0.10968423868E+03  0.47000000000E+01 0. -1.
         -5    1    3    3    0  502 -0.21741994019E+03 -0.13286132690E+03  0.37898717989E+02  0.25764697825E+03  0.47000000000E+01 0.  1.
         11    1    5    5    0    0  0.18215030826E+02  0.28074650640E+02  0.66507809611E+02  0.74453086543E+02  0.00000000000E+00 0. -1.
        -11    1    5    5    0    0 -0.76050512646E+02 -0.37157687277E+01  0.10682159086E+03  0.13118056138E+03  0.00000000000E+00 0.  1.
          3    1    6    6  503    0  0.35627616165E+03  0.13474684587E+03 -0.28061534046E+03  0.47311138766E+03  0.00000000000E+00 0. -1.
         -3    1    6    6    0  503  0.24893957353E+02 -0.11032320215E+02 -0.58434344105E+01  0.27849002275E+02  0.00000000000E+00 0.  1.
<mgrwt>
<rscale>  0 0.43984571E+03</rscale>
<asrwt>0</asrwt>
<pdfrwt beam="1">  1        2 0.90215660E-01 0.43984571E+03</pdfrwt>
<pdfrwt beam="2">  1       -2 0.75003610E-01 0.43984571E+03</pdfrwt>
<totfact> 0.84358009E+01</totfact>
</mgrwt>
</event>
<event>
12    1  0.3203156E-008  0.1842653E+04  0.7818608E-02  0.8683940E-01
         -1   -1    0    0    0  501 -0.00000000000E+00  0.00000000000E+00  0.20648959556E+04  0.20648959556E+04  0.00000000000E+00 0.  1.
          1   -1    0    0  501    0  0.00000000000E+00 -0.00000000000E+00 -0.17431090396E+04  0.17431090396E+04  0.00000000000E+00 0. -1.
         23    2    1    2    0    0 -0.18080677167E+04  0.26045265579E+03  0.44131658168E+03  0.18814454294E+04  0.90178292890E+02 0.  0.
    5000000    2    1    2    0    0  0.18080677167E+04 -0.26045265579E+03 -0.11952966570E+03  0.19265595658E+04  0.60033321197E+03 0.  0.
         23    2    4    4    0    0  0.70891992839E+03  0.40091396429E+02 -0.28660532758E+03  0.77121499954E+03  0.91952035249E+02 0.  0.
         23    2    4    4    0    0  0.10991477883E+04 -0.30054405222E+03  0.16707566187E+03  0.11553445662E+04  0.91946734867E+02 0.  0.
          5    1    3    3  502    0 -0.55682232650E+03  0.10800040072E+03  0.16897605487E+03  0.59185318025E+03  0.47000000000E+01 0. -1.
         -5    1    3    3    0  502 -0.12512453902E+04  0.15245225506E+03  0.27234052681E+03  0.12895922492E+04  0.47000000000E+01 0. -1.
         11    1    5    5    0    0  0.38251925697E+03  0.62384486622E+02 -0.13269865729E+03  0.40966051771E+03  0.00000000000E+00 0.  1.
        -11    1    5    5    0    0  0.32640067142E+03 -0.22293090194E+02 -0.15390667028E+03  0.36155448183E+03  0.00000000000E+00 0. -1.
          1    1    6    6  503    0  0.16293059324E+03 -0.77518528780E+02  0.15933077723E+02  0.18113355151E+03  0.00000000000E+00 0. -1.
         -1    1    6    6    0  503  0.93621719510E+03 -0.22302552344E+03  0.15114258415E+03  0.97421101474E+03  0.00000000000E+00 0.  1.
<mgrwt>
<rscale>  0 0.18426535E+04</rscale>
<asrwt>0</asrwt>
<pdfrwt beam="1">  1        1 0.26817062E+00 0.18426535E+04</pdfrwt>
<pdfrwt beam="2">  1       -1 0.31767630E+00 0.18426535E+04</pdfrwt>
<totfact> 0.10252885E-01</totfact>
</mgrwt>
</event>
<event>
12    1  0.3203156E-008  0.8446896E+03  0.7818608E-02  0.9497492E-01
          2   -1    0    0  501    0  0.00000000000E+00  0.00000000000E+00  0.32322908698E+04  0.32322908698E+04  0.00000000000E+00 0. -1.
         -2   -1    0    0    0  501 -0.00000000000E+00 -0.00000000000E+00 -0.22643159532E+03  0.22643159532E+03  0.00000000000E+00 0.  1.
         23    2    1    2    0    0  0.55091545182E+03  0.49174148610E+03  0.10939673232E+04  0.13230053788E+04  0.90891166293E+02 0.  0.
    5000000    2    1    2    0    0 -0.55091545182E+03 -0.49174148610E+03  0.19118919513E+04  0.21357170862E+04  0.60053235955E+03 0.  0.
         23    2    4    4    0    0 -0.46783618876E+03 -0.61416001223E+03  0.15902740406E+04  0.17701000063E+04  0.90660288465E+02 0.  0.
         23    2    4    4    0    0 -0.83079263059E+02  0.12241852613E+03  0.32161791066E+03  0.36561707993E+03  0.91374554389E+02 0.  0.
          5    1    3    3  502    0  0.41130237641E+03  0.41439976896E+03  0.83928322435E+03  0.10224065894E+04  0.47000000000E+01 0. -1.
         -5    1    3    3    0  502  0.13961307541E+03  0.77341717137E+02  0.25468409880E+03  0.30059878945E+03  0.47000000000E+01 0.  1.
         13    1    5    5    0    0 -0.18996456171E+03 -0.22838153189E+03  0.71001819480E+03  0.76965608928E+03  0.00000000000E+00 0. -1.
        -13    1    5    5    0    0 -0.27787162704E+03 -0.38577848034E+03  0.88025584583E+03  0.10004439170E+04  0.00000000000E+00 0.  1.
          2    1    6    6  503    0 -0.88197731560E+02  0.51311284786E+02  0.17470673162E+03  0.20232184724E+03  0.00000000000E+00 0.  1.
         -2    1    6    6    0  503  0.51184685011E+01  0.71107241348E+02  0.14691117904E+03  0.16329523269E+03  0.00000000000E+00 0. -1.
<mgrwt>
<rscale>  0 0.84468964E+03</rscale>
<asrwt>0</asrwt>
<pdfrwt beam="1">  1        2 0.49727549E+00 0.84468964E+03</pdfrwt>
<pdfrwt beam="2">  1       -2 0.34835632E-01 0.84468964E+03</pdfrwt>
<totfact> 0.10052194E+01</totfact>
</mgrwt>
</event>
<event>
12    1  0.3203156E-008  0.1087509E+04  0.7818608E-02  0.9217452E-01
          1   -1    0    0  501    0  0.00000000000E+00  0.00000000000E+00  0.12897116063E+04  0.12897116063E+04  0.00000000000E+00 0. -1.
         -1   -1    0    0    0  501 -0.00000000000E+00 -0.00000000000E+00 -0.10643231700E+04  0.10643231700E+04  0.00000000000E+00 0.  1.
         23    2    1    2    0    0  0.55868865053E+03  0.85288030579E+03  0.50060032667E+03  0.11394350675E+04  0.90408858278E+02 0.  0.
    5000000    2    1    2    0    0 -0.55868865053E+03 -0.85288030579E+03 -0.27521189030E+03  0.12145997088E+04  0.59997753616E+03 0.  0.
         23    2    4    4    0    0 -0.34986173147E+03 -0.85762572329E+03 -0.11808947257E+03  0.93821796879E+03  0.91557200794E+02 0.  0.
         23    2    4    4    0    0 -0.20882691906E+03  0.47454174998E+01 -0.15712241773E+03  0.27638174005E+03  0.89823220650E+02 0.  0.
          5    1    3    3  502    0  0.67683370439E+02  0.10119393296E+03  0.93620811898E+02  0.15364959200E+03  0.47000000000E+01 0. -1.
         -5    1    3    3    0  502  0.49100528009E+03  0.75168637284E+03  0.40697951477E+03  0.98578547546E+03  0.47000000000E+01 0.  1.
         13    1    5    5    0    0 -0.18682182957E+03 -0.37206522506E+03 -0.20773695723E+02  0.41685306060E+03  0.00000000000E+00 0.  1.
        -13    1    5    5    0    0 -0.16303990190E+03 -0.48556049824E+03 -0.97315776844E+02  0.52136490818E+03  0.00000000000E+00 0. -1.
          2    1    6    6  503    0  0.80451082727E+01 -0.53940922838E+01 -0.11117449018E+02  0.14745089737E+02  0.00000000000E+00 0.  1.
         -2    1    6    6    0  503 -0.21687202733E+03  0.10139509784E+02 -0.14600496871E+03  0.26163665031E+03  0.00000000000E+00 0. -1.
<mgrwt>
<rscale>  0 0.10875094E+04</rscale>
<asrwt>0</asrwt>
<pdfrwt beam="1">  1        1 0.19841717E+00 0.10875094E+04</pdfrwt>
<pdfrwt beam="2">  1       -1 0.16374203E+00 0.10875094E+04</pdfrwt>
<totfact> 0.25025183E+00</totfact>
</mgrwt>
</event>
<event>
12    1  0.3203156E-008  0.8433424E+03  0.7818608E-02  0.9499316E-01
          2   -1    0    0  501    0  0.00000000000E+00  0.00000000000E+00  0.95156658162E+03  0.95156658162E+03  0.00000000000E+00 0. -1.
         -2   -1    0    0    0  501 -0.00000000000E+00 -0.00000000000E+00 -0.88421942234E+03  0.88421942234E+03  0.00000000000E+00 0.  1.
         23    2    1    2    0    0 -0.80360658403E+02  0.78239412875E+03  0.24891710905E+03  0.82998658659E+03  0.91211833777E+02 0.  0.
    5000000    2    1    2    0    0  0.80360658403E+02 -0.78239412875E+03 -0.18156994976E+03  0.10057994174E+04  0.60005534178E+03 0.  0.
         23    2    4    4    0    0 -0.15003485109E+03 -0.13310728225E+03  0.12008587501E+03  0.24884226556E+03  0.85286872515E+02 0.  0.
         23    2    4    4    0    0  0.23039550949E+03 -0.64928684650E+03 -0.30165582477E+03  0.75695715181E+03  0.85629394653E+02 0.  0.
          5    1    3    3  502    0 -0.42305940769E+02  0.37573929160E+03  0.72365773077E+02  0.38500480905E+03  0.47000000000E+01 0. -1.
         -5    1    3    3    0  502 -0.38054717635E+02  0.40665483715E+03  0.17655133597E+03  0.44498177754E+03  0.47000000000E+01 0.  1.
         11    1    5    5    0    0 -0.91584040688E+02 -0.38426886162E+02  0.24847681602E+02  0.10238002427E+03  0.00000000000E+00 0. -1.
        -11    1    5    5    0    0 -0.58450810398E+02 -0.94680396088E+02  0.95238193405E+02  0.14646224129E+03  0.00000000000E+00 0.  1.
          1    1    6    6  503    0  0.12644583176E+03 -0.31545279978E+03 -0.10448317835E+03  0.35554992872E+03  0.00000000000E+00 0. -1.
         -1    1    6    6    0  503  0.10394967773E+03 -0.33383404672E+03 -0.19717264641E+03  0.40140722309E+03  0.00000000000E+00 0.  1.
<mgrwt>
<rscale>  0 0.84334239E+03</rscale>
<asrwt>0</asrwt>
<pdfrwt beam="1">  1        2 0.14639486E+00 0.84334239E+03</pdfrwt>
<pdfrwt beam="2">  1       -2 0.13603376E+00 0.84334239E+03</pdfrwt>
<totfact> 0.10548302E+01</totfact>
</mgrwt>
</event>
<event>
12    1  0.3203156E-008  0.6792234E+03  0.7818608E-02  0.9753438E-01
         -1   -1    0    0    0  501 -0.00000000000E+00  0.00000000000E+00  0.42895523324E+03  0.42895523324E+03  0.00000000000E+00 0.  1.
          1   -1    0    0  501    0  0.00000000000E+00 -0.00000000000E+00 -0.10969547415E+04  0.10969547415E+04  0.00000000000E+00 0. -1.
         23    2    1    2    0    0  0.21254389509E+03  0.50646193139E+03 -0.23854641641E+03  0.60580635499E+03  0.91751575887E+02 0.  0.
    5000000    2    1    2    0    0 -0.21254389509E+03 -0.50646193139E+03 -0.42945309185E+03  0.92010361974E+03  0.60040163030E+03 0.  0.
         23    2    4    4    0    0 -0.38964448214E+03 -0.21930255095E+03 -0.30557446033E+03  0.54907705387E+03  0.90517561626E+02 0.  0.
         23    2    4    4    0    0  0.17710058705E+03 -0.28715938044E+03 -0.12387863151E+03  0.37102656587E+03  0.92139402676E+02 0.  0.
          5    1    3    3  502    0  0.33450266045E+02  0.22752676289E+02 -0.12253881278E+02  0.42530602901E+02  0.47000000000E+01 0. -1.
         -5    1    3    3    0  502  0.17909362904E+03  0.48370925510E+03 -0.22629253514E+03  0.56327575209E+03  0.47000000000E+01 0.  1.
         13    1    5    5    0    0 -0.80813445707E+02 -0.78813337369E+02 -0.46041184355E+02  0.12191040075E+03  0.00000000000E+00 0. -1.
        -13    1    5    5    0    0 -0.30883103643E+03 -0.14048921358E+03 -0.25953327598E+03  0.42716665312E+03  0.00000000000E+00 0.  1.
          1    1    6    6  503    0  0.52426003072E+01 -0.81720874519E+02 -0.28361403701E+02  0.86661152831E+02  0.00000000000E+00 0. -1.
         -1    1    6    6    0  503  0.17185798674E+03 -0.20543850593E+03 -0.95517227814E+02  0.28436541304E+03  0.00000000000E+00 0.  1.
<mgrwt>
<rscale>  0 0.67922337E+03</rscale>
<asrwt>0</asrwt>
<pdfrwt beam="1">  1        1 0.16876226E+00 0.67922337E+03</pdfrwt>
<pdfrwt beam="2">  1       -1 0.65993115E-01 0.67922337E+03</pdfrwt>
<totfact> 0.30743729E+01</totfact>
</mgrwt>
</event>
<event>
12    1  0.3203156E-008  0.7133371E+03  0.7818608E-02  0.9694692E-01
          2   -1    0    0  501    0  0.00000000000E+00  0.00000000000E+00  0.30699934092E+04  0.30699934092E+04  0.00000000000E+00 0. -1.
         -2   -1    0    0    0  501 -0.00000000000E+00 -0.00000000000E+00 -0.27666205149E+03  0.27666205149E+03  0.00000000000E+00 0.  1.
         23    2    1    2    0    0 -0.19134455610E+03  0.56974927129E+03  0.22676937636E+04  0.23479087994E+04  0.94940788930E+02 0.  0.
    5000000    2    1    2    0    0  0.19134455610E+03 -0.56974927129E+03  0.52563759413E+03  0.99874666134E+03  0.59997753449E+03 0.  0.
         23    2    4    4    0    0  0.38222770706E+03 -0.33983180622E+03  0.21853315082E+03  0.56273331598E+03  0.85605901356E+02 0.  0.
         23    2    4    4    0    0 -0.19088315096E+03 -0.22991746507E+03  0.30710444331E+03  0.43601334536E+03  0.80598264037E+02 0.  0.
          5    1    3    3  502    0 -0.15575316497E+03  0.44529557846E+03  0.19126812560E+04  0.19700047913E+04  0.47000000000E+01 0. -1.
         -5    1    3    3    0  502 -0.35591391136E+02  0.12445369283E+03  0.35501250762E+03  0.37790400812E+03  0.47000000000E+01 0.  1.
         13    1    5    5    0    0  0.74627765274E+02 -0.11381275801E+03  0.70997808073E+02  0.15350353737E+03  0.00000000000E+00 0. -1.
        -13    1    5    5    0    0  0.30759994179E+03 -0.22601904821E+03  0.14753534275E+03  0.40922977861E+03  0.00000000000E+00 0.  1.
          3    1    6    6  503    0 -0.86529375278E+02 -0.16017149192E+03  0.20539085254E+03  0.27445881643E+03  0.00000000000E+00 0. -1.
         -3    1    6    6    0  503 -0.10435377568E+03 -0.69745973150E+02  0.10171359077E+03  0.16155452893E+03  0.00000000000E+00 0.  1.
<mgrwt>
<rscale>  0 0.71333714E+03</rscale>
<asrwt>0</asrwt>
<pdfrwt beam="1">  1        2 0.47230665E+00 0.71333714E+03</pdfrwt>
<pdfrwt beam="2">  1       -2 0.42563395E-01 0.71333714E+03</pdfrwt>
<totfact> 0.88332368E+00</totfact>
</mgrwt>
</event>
<event>
12    1  0.3203156E-008  0.7629583E+03  0.7818608E-02  0.9615237E-01
         -1   -1    0    0    0  501 -0.00000000000E+00  0.00000000000E+00  0.29151976734E+04  0.29151976734E+04  0.00000000000E+00 0.  1.
          1   -1    0    0  501    0  0.00000000000E+00 -0.00000000000E+00 -0.28436372557E+03  0.28436372557E+03  0.00000000000E+00 0. -1.
         23    2    1    2    0    0 -0.37734751375E+03  0.54280149730E+03  0.35841416026E+03  0.75800333888E+03  0.95308655847E+02 0.  0.
    5000000    2    1    2    0    0  0.37734751375E+03 -0.54280149730E+03  0.22724197875E+04  0.24415580601E+04  0.60024116672E+03 0.  0.
         23    2    4    4    0    0  0.48345186525E+02 -0.52634722713E+03  0.15827415196E+04  0.16714899228E+04  0.97103984947E+02 0.  0.
         23    2    4    4    0    0  0.32900232723E+03 -0.16454270165E+02  0.68967826799E+03  0.77006813721E+03  0.93997597229E+02 0.  0.
          5    1    3    3  502    0 -0.84748931784E+02  0.12751570962E+03  0.13030942247E+03  0.20111010224E+03  0.47000000000E+01 0. -1.
         -5    1    3    3    0  502 -0.29259858197E+03  0.41528578768E+03  0.22810473779E+03  0.55689323665E+03  0.47000000000E+01 0.  1.
         11    1    5    5    0    0 -0.95549543853E+01 -0.30714398747E+03  0.81653944800E+03  0.87244793331E+03  0.00000000000E+00 0.  1.
        -11    1    5    5    0    0  0.57900140910E+02 -0.21920323966E+03  0.76620207155E+03  0.79904198954E+03  0.00000000000E+00 0. -1.
          1    1    6    6  503    0  0.76961548112E+02 -0.16190940759E+02  0.89668271467E+02  0.11927122603E+03  0.00000000000E+00 0. -1.
         -1    1    6    6    0  503  0.25204077912E+03 -0.26332940571E+00  0.60000999652E+03  0.65079691118E+03  0.00000000000E+00 0.  1.
<mgrwt>
<rscale>  0 0.76295832E+03</rscale>
<asrwt>0</asrwt>
<pdfrwt beam="1">  1        1 0.43748267E-01 0.76295832E+03</pdfrwt>
<pdfrwt beam="2">  1       -1 0.44849193E+00 0.76295832E+03</pdfrwt>
<totfact> 0.33300694E-01</totfact>
</mgrwt>
</event>
<event>
12    1  0.3203156E-008  0.6354579E+03  0.7818608E-02  0.9834456E-01
         -2   -1    0    0    0  501 -0.00000000000E+00  0.00000000000E+00  0.39744135648E+03  0.39744135648E+03  0.00000000000E+00 0.  1.
          2   -1    0    0  501    0  0.00000000000E+00 -0.00000000000E+00 -0.14630437828E+04  0.14630437828E+04  0.00000000000E+00 0. -1.
         23    2    1    2    0    0 -0.12406189148E+03 -0.49100958875E+03  0.27072407616E+02  0.51495511345E+03  0.89241719251E+02 0.  0.
    5000000    2    1    2    0    0  0.12406189148E+03  0.49100958875E+03 -0.10926748340E+04  0.13455300259E+04  0.60002582325E+03 0.  0.
         23    2    4    4    0    0  0.27800345080E+03  0.35453885980E+02 -0.37662860653E+03  0.47823981190E+03  0.91221235134E+02 0.  0.
         23    2    4    4    0    0 -0.15394155932E+03  0.45555570277E+03 -0.71604622743E+03  0.86729021397E+03  0.90780578396E+02 0.  0.
          5    1    3    3  502    0 -0.52256941375E+02 -0.25767202462E+03 -0.28592248029E+02  0.26450948346E+03  0.47000000000E+01 0. -1.
         -5    1    3    3    0  502 -0.71804950107E+02 -0.23333756413E+03  0.55664655645E+02  0.25044562999E+03  0.47000000000E+01 0.  1.
         13    1    5    5    0    0  0.95829242868E+02  0.14369454698E+02 -0.20642534642E+03  0.22803760362E+03  0.00000000000E+00 0.  1.
        -13    1    5    5    0    0  0.18217420793E+03  0.21084431281E+02 -0.17020326011E+03  0.25020220828E+03  0.00000000000E+00 0. -1.
          1    1    6    6  503    0 -0.67899481392E+02  0.27810102557E+03 -0.35653407326E+03  0.45723852133E+03  0.00000000000E+00 0. -1.
         -1    1    6    6    0  503 -0.86042077924E+02  0.17745467720E+03 -0.35951215418E+03  0.41005169264E+03  0.00000000000E+00 0.  1.
<mgrwt>
<rscale>  0 0.63545789E+03</rscale>
<asrwt>0</asrwt>
<pdfrwt beam="1">  1        2 0.22508365E+00 0.63545789E+03</pdfrwt>
<pdfrwt beam="2">  1       -2 0.61144825E-01 0.63545789E+03</pdfrwt>
<totfact> 0.34357456E+01</totfact>
</mgrwt>
</event>
<event>
12    1  0.3203156E-008  0.3931545E+03  0.7818608E-02  0.1046176E+00
          2   -1    0    0  501    0  0.00000000000E+00  0.00000000000E+00  0.40592347671E+03  0.40592347671E+03  0.00000000000E+00 0.  1.
         -2   -1    0    0    0  501 -0.00000000000E+00 -0.00000000000E+00 -0.47870785704E+03  0.47870785704E+03  0.00000000000E+00 0. -1.
         23    2    1    2    0    0  0.21232051155E+03 -0.39951842953E+02 -0.70966481152E+02  0.24694439439E+03  0.96276389082E+02 0.  0.
    5000000    2    1    2    0    0 -0.21232051155E+03  0.39951842953E+02 -0.18178991799E+01  0.63768693935E+03  0.59997098137E+03 0.  0.
         23    2    4    4    0    0 -0.19890831868E+03 -0.22479829020E+03  0.11486483539E+03  0.33385894964E+03  0.90382948219E+02 0.  0.
         23    2    4    4    0    0 -0.13412192871E+02  0.26475013315E+03 -0.11668273457E+03  0.30382798972E+03  0.91782715510E+02 0.  0.
          5    1    3    3  502    0  0.16100801728E+03 -0.40641562438E+02 -0.93580235604E+02  0.19066900304E+03  0.47000000000E+01 0. -1.
         -5    1    3    3    0  502  0.51312494267E+02  0.68971948415E+00  0.22613754452E+02  0.56275391347E+02  0.47000000000E+01 0.  1.
         11    1    5    5    0    0 -0.72158022665E+02 -0.51481211293E+02 -0.34361071878E+01  0.88706832791E+02  0.00000000000E+00 0. -1.
        -11    1    5    5    0    0 -0.12675029601E+03 -0.17331707890E+03  0.11830094258E+03  0.24515211685E+03  0.00000000000E+00 0.  1.
          4    1    6    6  503    0 -0.14574911311E+02  0.19933047243E+03 -0.12812520157E+03  0.23740499691E+03  0.00000000000E+00 0. -1.
         -4    1    6    6    0  503  0.11627184400E+01  0.65419660720E+02  0.11442466995E+02  0.66422992810E+02  0.00000000000E+00 0.  1.
<mgrwt>
<rscale>  0 0.39315446E+03</rscale>
<asrwt>0</asrwt>
<pdfrwt beam="1">  1        2 0.62449765E-01 0.39315446E+03</pdfrwt>
<pdfrwt beam="2">  1       -2 0.73647363E-01 0.39315446E+03</pdfrwt>
<totfact> 0.13404843E+02</totfact>
</mgrwt>
</event>
<event>
12    1  0.3203156E-008  0.1866777E+04  0.7818608E-02  0.8671573E-01
          2   -1    0    0  501    0  0.00000000000E+00  0.00000000000E+00  0.18868589554E+04  0.18868589554E+04  0.00000000000E+00 0. -1.
         -2   -1    0    0    0  501 -0.00000000000E+00 -0.00000000000E+00 -0.19658963420E+04  0.19658963420E+04  0.00000000000E+00 0.  1.
         23    2    1    2    0    0 -0.18553563272E+03  0.18529907794E+04  0.20734266422E+03  0.18759848840E+04  0.91268859406E+02 0.  0.
    5000000    2    1    2    0    0  0.18553563272E+03 -0.18529907794E+04 -0.28638005077E+03  0.19767704135E+04  0.59800454380E+03 0.  0.
         23    2    4    4    0    0  0.35031892775E+02 -0.94359315732E+03  0.13710777265E+03  0.95845538677E+03  0.90790456755E+02 0.  0.
         23    2    4    4    0    0  0.15050373995E+03 -0.90939762212E+03 -0.42348782342E+03  0.10183150267E+04  0.89264473264E+02 0.  0.
          5    1    3    3  502    0 -0.33283300770E+02  0.65722255362E+03  0.10230070348E+03  0.66598557569E+03  0.47000000000E+01 0. -1.
         -5    1    3    3    0  502 -0.15225233195E+03  0.11957682258E+04  0.10504196074E+03  0.12099993083E+04  0.47000000000E+01 0.  1.
         11    1    5    5    0    0  0.54975640268E+02 -0.35089232310E+03  0.64653517580E+02  0.36100944692E+03  0.00000000000E+00 0.  1.
        -11    1    5    5    0    0 -0.19943747493E+02 -0.59270083423E+03  0.72454255071E+02  0.59744593984E+03  0.00000000000E+00 0. -1.
          3    1    6    6  503    0  0.81438448673E+02 -0.45880184125E+03 -0.16533666109E+03  0.49443661065E+03  0.00000000000E+00 0. -1.
         -3    1    6    6    0  503  0.69065291273E+02 -0.45059578087E+03 -0.25815116233E+03  0.52387841606E+03  0.00000000000E+00 0.  1.
<mgrwt>
<rscale>  0 0.18667768E+04</rscale>
<asrwt>0</asrwt>
<pdfrwt beam="1">  1        2 0.29028599E+00 0.18667768E+04</pdfrwt>
<pdfrwt beam="2">  1       -2 0.30244559E+00 0.18667768E+04</pdfrwt>
<totfact> 0.21412095E-01</totfact>
</mgrwt>
</event>
<event>
12    1  0.3203156E-008  0.1156252E+04  0.7818608E-02  0.9152035E-01
          2   -1    0    0  501    0  0.00000000000E+00  0.00000000000E+00  0.21919349584E+04  0.21919349584E+04  0.00000000000E+00 0. -1.
         -2   -1    0    0    0  501 -0.00000000000E+00 -0.00000000000E+00 -0.61463123164E+03  0.61463123164E+03  0.00000000000E+00 0.  1.
         23    2    1    2    0    0 -0.63983633538E+03  0.87132556768E+03  0.71593623428E+03  0.12997591410E+04  0.90610992696E+02 0.  0.
    5000000    2    1    2    0    0  0.63983633538E+03 -0.87132556768E+03  0.86136749247E+03  0.15068070491E+04  0.59992895002E+03 0.  0.
         23    2    4    4    0    0  0.73990793658E+03 -0.76609922318E+03  0.76888567305E+03  0.13167981403E+04  0.91653640140E+02 0.  0.
         23    2    4    4    0    0 -0.10007160120E+03 -0.10522634450E+03  0.92481819417E+02  0.19000890875E+03  0.80396452265E+02 0.  0.
          5    1    3    3  502    0 -0.39141348104E+03  0.48604961185E+03  0.37083933351E+03  0.72594258699E+03  0.47000000000E+01 0. -1.
         -5    1    3    3    0  502 -0.24842285434E+03  0.38527595583E+03  0.34509690077E+03  0.57381655398E+03  0.47000000000E+01 0.  1.
         13    1    5    5    0    0  0.54795438599E+03 -0.60322926765E+03  0.62338180898E+03  0.10260333514E+04  0.00000000000E+00 0. -1.
        -13    1    5    5    0    0  0.19195355059E+03 -0.16286995553E+03  0.14550386407E+03  0.29076478889E+03  0.00000000000E+00 0.  1.
          1    1    6    6  503    0 -0.87339441316E+02 -0.11696490730E+03  0.92264982353E+02  0.17268987961E+03  0.00000000000E+00 0. -1.
         -1    1    6    6    0  503 -0.12732159887E+02  0.11738562804E+02  0.21683706420E+00  0.17319029142E+02  0.00000000000E+00 0.  1.
<mgrwt>
<rscale>  0 0.11562518E+04</rscale>
<asrwt>0</asrwt>
<pdfrwt beam="1">  1        2 0.33722076E+00 0.11562518E+04</pdfrwt>
<pdfrwt beam="2">  1       -2 0.94558652E-01 0.11562518E+04</pdfrwt>
<totfact> 0.48458253E+00</totfact>
</mgrwt>
</event>
<event>
12    1  0.3203156E-008  0.7059704E+03  0.7818608E-02  0.9707076E-01
         -2   -1    0    0    0  501 -0.00000000000E+00  0.00000000000E+00  0.24261750064E+04  0.24261750064E+04  0.00000000000E+00 0.  1.
          2   -1    0    0  501    0  0.00000000000E+00 -0.00000000000E+00 -0.23099915758E+03  0.23099915758E+03  0.00000000000E+00 0. -1.
         23    2    1    2    0    0  0.39318516475E+03 -0.44222416055E+03  0.12813297848E+04  0.14142632480E+04  0.90430832321E+02 0.  0.
    5000000    2    1    2    0    0 -0.39318516475E+03  0.44222416055E+03  0.91384606402E+03  0.12429109159E+04  0.59962999779E+03 0.  0.
         23    2    4    4    0    0 -0.49542049808E+02  0.46332165816E+03  0.41552875407E+03  0.63047644839E+03  0.87835259960E+02 0.  0.
         23    2    4    4    0    0 -0.34364311494E+03 -0.21097497605E+02  0.49831730995E+03  0.61243446754E+03  0.90664992039E+02 0.  0.
          5    1    3    3  502    0  0.26513958464E+03 -0.35003401861E+03  0.89502769090E+03  0.99695509979E+03  0.47000000000E+01 0. -1.
         -5    1    3    3    0  502  0.12804558011E+03 -0.92190141949E+02  0.38630209385E+03  0.41730814822E+03  0.47000000000E+01 0.  1.
         11    1    5    5    0    0 -0.29398896934E+02  0.30690816870E+03  0.32780656318E+03  0.45001562420E+03  0.00000000000E+00 0.  1.
        -11    1    5    5    0    0 -0.20143152874E+02  0.15641348946E+03  0.87722190884E+02  0.18046082419E+03  0.00000000000E+00 0. -1.
          2    1    6    6  503    0 -0.27328502160E+03 -0.39703956126E+02  0.33871749781E+03  0.43702477101E+03  0.00000000000E+00 0. -1.
         -2    1    6    6    0  503 -0.70358093347E+02  0.18606458521E+02  0.15959981215E+03  0.17540969653E+03  0.00000000000E+00 0.  1.
<mgrwt>
<rscale>  0 0.70597037E+03</rscale>
<asrwt>0</asrwt>
<pdfrwt beam="1">  1        2 0.35538334E-01 0.70597037E+03</pdfrwt>
<pdfrwt beam="2">  1       -2 0.37325767E+00 0.70597037E+03</pdfrwt>
<totfact> 0.17308758E+00</totfact>
</mgrwt>
</event>
<event>
12    1  0.3203156E-008  0.1132339E+04  0.7818608E-02  0.9174233E-01
         -2   -1    0    0    0  501 -0.00000000000E+00  0.00000000000E+00  0.47455686235E+03  0.47455686235E+03  0.00000000000E+00 0.  1.
          2   -1    0    0  501    0  0.00000000000E+00 -0.00000000000E+00 -0.29239624167E+04  0.29239624167E+04  0.00000000000E+00 0. -1.
         23    2    1    2    0    0  0.39503173166E+03  0.10187149225E+04 -0.13244639297E+04  0.17194287364E+04  0.91653239182E+02 0.  0.
    5000000    2    1    2    0    0 -0.39503173166E+03 -0.10187149225E+04 -0.11249416247E+04  0.16790905427E+04  0.60001769079E+03 0.  0.
         23    2    4    4    0    0 -0.27751870608E+03 -0.99253511884E+03 -0.11249601086E+04  0.15284167620E+04  0.91542110640E+02 0.  0.
         23    2    4    4    0    0 -0.11751302558E+03 -0.26179803626E+02  0.18483963499E-01  0.15067378065E+03  0.90597431175E+02 0.  0.
          5    1    3    3  502    0  0.12594736269E+03  0.28596760962E+03 -0.31968691991E+03  0.44705931226E+03  0.47000000000E+01 0. -1.
         -5    1    3    3    0  502  0.26908436896E+03  0.73274731285E+03 -0.10047770098E+04  0.12723694241E+04  0.47000000000E+01 0.  1.
         13    1    5    5    0    0 -0.17781992494E+03 -0.50041728560E+03 -0.61895207582E+03  0.81556057874E+03  0.00000000000E+00 0. -1.
        -13    1    5    5    0    0 -0.99698781133E+02 -0.49211783324E+03 -0.50600803281E+03  0.71285618326E+03  0.00000000000E+00 0.  1.
          3    1    6    6  503    0 -0.75823827285E+02  0.17685529066E+02 -0.29603553402E+02  0.83297065354E+02  0.00000000000E+00 0. -1.
         -3    1    6    6    0  503 -0.41689198294E+02 -0.43865332692E+02  0.29622037366E+02  0.67376715298E+02  0.00000000000E+00 0.  1.
<mgrwt>
<rscale>  0 0.11323393E+04</rscale>
<asrwt>0</asrwt>
<pdfrwt beam="1">  1        2 0.44984037E+00 0.11323393E+04</pdfrwt>
<pdfrwt beam="2">  1       -2 0.73008748E-01 0.11323393E+04</pdfrwt>
<totfact> 0.32965300E+00</totfact>
</mgrwt>
</event>
<event>
12    1  0.3203156E-008  0.6442592E+03  0.7818608E-02  0.9817611E-01
          2   -1    0    0  501    0  0.00000000000E+00  0.00000000000E+00  0.14994193595E+04  0.14994193595E+04  0.00000000000E+00 0. -1.
         -2   -1    0    0    0  501 -0.00000000000E+00 -0.00000000000E+00 -0.49419501703E+03  0.49419501703E+03  0.00000000000E+00 0.  1.
         23    2    1    2    0    0 -0.47168680224E+03 -0.34560496503E+03  0.99246463219E+03  0.11557017642E+04  0.93430671472E+02 0.  0.
    5000000    2    1    2    0    0  0.47168680224E+03  0.34560496503E+03  0.12759710321E+02  0.83791261238E+03  0.60000292042E+03 0.  0.
         23    2    4    4    0    0  0.51607145251E+03  0.28697586922E+03  0.18804975966E+03  0.62622920592E+03  0.90085584999E+02 0.  0.
         23    2    4    4    0    0 -0.44384650270E+02  0.58629095813E+02 -0.17529004934E+03  0.21168340646E+03  0.93144485173E+02 0.  0.
          5    1    3    3  502    0 -0.36371400753E+03 -0.27241218644E+03  0.68919150789E+03  0.82553213332E+03  0.47000000000E+01 0. -1.
         -5    1    3    3    0  502 -0.10797279471E+03 -0.73192778590E+02  0.30327312430E+03  0.33016963088E+03  0.47000000000E+01 0.  1.
         13    1    5    5    0    0  0.42947950451E+03  0.26689011475E+03  0.18095857168E+03  0.53705584702E+03  0.00000000000E+00 0. -1.
        -13    1    5    5    0    0  0.86591947999E+02  0.20085754462E+02  0.70911879797E+01  0.89173358900E+02  0.00000000000E+00 0.  1.
          3    1    6    6  503    0  0.23502008042E+02  0.20244016058E+02 -0.17357266172E+02  0.35544890731E+02  0.00000000000E+00 0. -1.
         -3    1    6    6    0  503 -0.67886658311E+02  0.38385079756E+02 -0.15793278317E+03  0.17613851573E+03  0.00000000000E+00 0.  1.
<mgrwt>
<rscale>  0 0.64425917E+03</rscale>
<asrwt>0</asrwt>
<pdfrwt beam="1">  1        2 0.23067990E+00 0.64425917E+03</pdfrwt>
<pdfrwt beam="2">  1       -2 0.76030003E-01 0.64425917E+03</pdfrwt>
<totfact> 0.20433765E+01</totfact>
</mgrwt>
</event>
<event>
12    1  0.3203156E-008  0.4535551E+03  0.7818608E-02  0.1026667E+00
         -1   -1    0    0    0  501 -0.00000000000E+00  0.00000000000E+00  0.77660664409E+03  0.77660664409E+03  0.00000000000E+00 0.  1.
          1   -1    0    0  501    0  0.00000000000E+00 -0.00000000000E+00 -0.77351591303E+03  0.77351591303E+03  0.00000000000E+00 0. -1.
         23    2    1    2    0    0 -0.38894084306E+03 -0.21621376092E+03  0.48430427335E+03  0.66156753817E+03  0.71397538920E+02 0.  0.
    5000000    2    1    2    0    0  0.38894084306E+03  0.21621376092E+03 -0.48121354228E+03  0.88855501895E+03  0.59995014677E+03 0.  0.
         23    2    4    4    0    0  0.23435851404E+03  0.89537565821E+02  0.85842409815E+02  0.28079626797E+03  0.92394458639E+02 0.  0.
         23    2    4    4    0    0  0.15458232902E+03  0.12667619510E+03 -0.56705595210E+03  0.60775875098E+03  0.88745094111E+02 0.  0.
          5    1    3    3  502    0 -0.29047865806E+03 -0.13120960542E+03  0.36956930488E+03  0.48805468183E+03  0.47000000000E+01 0. -1.
         -5    1    3    3    0  502 -0.98462184996E+02 -0.85004155494E+02  0.11473496847E+03  0.17351285634E+03  0.47000000000E+01 0.  1.
         13    1    5    5    0    0  0.14850678503E+03  0.58225931549E+02  0.62902943995E+01  0.15963737691E+03  0.00000000000E+00 0. -1.
        -13    1    5    5    0    0  0.85851729011E+02  0.31311634272E+02  0.79552115415E+02  0.12115889106E+03  0.00000000000E+00 0.  1.
          3    1    6    6  503    0  0.15526579326E+03  0.10927956166E+03 -0.43594797264E+03  0.47549986751E+03  0.00000000000E+00 0. -1.
         -3    1    6    6    0  503 -0.68346423777E+00  0.17396633439E+02 -0.13110797946E+03  0.13225888347E+03  0.00000000000E+00 0.  1.
<mgrwt>
<rscale>  0 0.45355509E+03</rscale>
<asrwt>0</asrwt>
<pdfrwt beam="1">  1        1 0.11900245E+00 0.45355509E+03</pdfrwt>
<pdfrwt beam="2">  1       -1 0.11947795E+00 0.45355509E+03</pdfrwt>
<totfact> 0.15733121E+01</totfact>
</mgrwt>
</event>
<event>
12    1  0.3203156E-008  0.5467659E+03  0.7818608E-02  0.1002245E+00
         -2   -1    0    0    0  501 -0.00000000000E+00  0.00000000000E+00  0.20983446634E+03  0.20983446634E+03  0.00000000000E+00 0.  1.
          2   -1    0    0  501    0  0.00000000000E+00 -0.00000000000E+00 -0.17308400960E+04  0.17308400960E+04  0.00000000000E+00 0. -1.
         23    2    1    2    0    0  0.18276637911E+02  0.42793761104E+03 -0.78462214418E+03  0.89843082104E+03  0.89896588429E+02 0.  0.
    5000000    2    1    2    0    0 -0.18276637911E+02 -0.42793761104E+03 -0.73638348549E+03  0.10422437413E+04  0.60045544729E+03 0.  0.
         23    2    4    4    0    0 -0.23074666740E+03 -0.35483684545E+03 -0.66120406703E+03  0.79039272995E+03  0.91523974440E+02 0.  0.
         23    2    4    4    0    0  0.21247002949E+03 -0.73100765593E+02 -0.75179418460E+02  0.25185101137E+03  0.85380042221E+02 0.  0.
          5    1    3    3  502    0  0.21979090111E+02  0.14514249108E+03 -0.35353063012E+03  0.38282557327E+03  0.47000000000E+01 0. -1.
         -5    1    3    3    0  502 -0.37024522006E+01  0.28279511996E+03 -0.43109151407E+03  0.51560524777E+03  0.47000000000E+01 0.  1.
         11    1    5    5    0    0 -0.15940318907E+03 -0.26609728370E+03 -0.54879653247E+03  0.63039255637E+03  0.00000000000E+00 0. -1.
        -11    1    5    5    0    0 -0.71343478321E+02 -0.88739561752E+02 -0.11240753456E+03  0.16000017358E+03  0.00000000000E+00 0.  1.
          4    1    6    6  503    0  0.14122383649E+03 -0.51844791460E+01 -0.35396027647E+02  0.14568434916E+03  0.00000000000E+00 0.  1.
         -4    1    6    6    0  503  0.71246192999E+02 -0.67916286447E+02 -0.39783390813E+02  0.10616666222E+03  0.00000000000E+00 0. -1.
<mgrwt>
<rscale>  0 0.54676590E+03</rscale>
<asrwt>0</asrwt>
<pdfrwt beam="1">  1        2 0.26628310E+00 0.54676590E+03</pdfrwt>
<pdfrwt beam="2">  1       -2 0.32282224E-01 0.54676590E+03</pdfrwt>
<totfact> 0.88171890E+01</totfact>
</mgrwt>
</event>
<event>
12    1  0.3203156E-008  0.1001464E+04  0.7818608E-02  0.9306940E-01
          2   -1    0    0  501    0  0.00000000000E+00  0.00000000000E+00  0.18411448981E+04  0.18411448981E+04  0.00000000000E+00 0. -1.
         -2   -1    0    0    0  501 -0.00000000000E+00 -0.00000000000E+00 -0.11068158765E+04  0.11068158765E+04  0.00000000000E+00 0.  1.
         23    2    1    2    0    0 -0.34713545976E+03  0.85160280426E+03 -0.68739345869E+03  0.11515634231E+04  0.88646414633E+02 0.  0.
    5000000    2    1    2    0    0  0.34713545976E+03 -0.85160280426E+03  0.14217224802E+04  0.17963973515E+04  0.60001522478E+03 0.  0.
         23    2    4    4    0    0 -0.80390676440E+02 -0.53386881437E+03  0.84354069590E+03  0.10056268446E+04  0.90806789913E+02 0.  0.
         23    2    4    4    0    0  0.42752613620E+03 -0.31773398989E+03  0.57818178430E+03  0.79077050687E+03  0.85383449080E+02 0.  0.
          5    1    3    3  502    0 -0.28044066470E+02  0.14286509641E+03 -0.12813071326E+03  0.19400122452E+03  0.47000000000E+01 0. -1.
         -5    1    3    3    0  502 -0.31909139329E+03  0.70873770785E+03 -0.55926274543E+03  0.95756219862E+03  0.47000000000E+01 0.  1.
         13    1    5    5    0    0 -0.50596292664E+02 -0.14635981071E+03  0.18837489572E+03  0.24385709003E+03  0.00000000000E+00 0. -1.
        -13    1    5    5    0    0 -0.29794383777E+02 -0.38750900366E+03  0.65516580018E+03  0.76176975455E+03  0.00000000000E+00 0.  1.
          2    1    6    6  503    0  0.15375384033E+03 -0.77181592262E+02  0.14773665327E+03  0.22676719410E+03  0.00000000000E+00 0. -1.
         -2    1    6    6    0  503  0.27377229587E+03 -0.24055239763E+03  0.43044513104E+03  0.56400331278E+03  0.00000000000E+00 0.  1.
<mgrwt>
<rscale>  0 0.10014644E+04</rscale>
<asrwt>0</asrwt>
<pdfrwt beam="1">  1        2 0.28325306E+00 0.10014644E+04</pdfrwt>
<pdfrwt beam="2">  1       -2 0.17027937E+00 0.10014644E+04</pdfrwt>
<totfact> 0.17290165E+00</totfact>
</mgrwt>
</event>
<event>
12    1  0.3203156E-008  0.9238671E+03  0.7818608E-02  0.9396229E-01
          2   -1    0    0  501    0  0.00000000000E+00  0.00000000000E+00  0.14622033078E+04  0.14622033078E+04  0.00000000000E+00 0.  1.
         -2   -1    0    0    0  501 -0.00000000000E+00 -0.00000000000E+00 -0.81295995172E+03  0.81295995172E+03  0.00000000000E+00 0. -1.
         23    2    1    2    0    0 -0.48027426029E+03 -0.71898904999E+03 -0.23471384340E+03  0.90078376676E+03  0.93339097296E+02 0.  0.
    5000000    2    1    2    0    0  0.48027426029E+03  0.71898904999E+03  0.88395719945E+03  0.13743794927E+04  0.59994169756E+03 0.  0.
         23    2    4    4    0    0  0.20281801391E+02 -0.64720400436E+02  0.21370406112E+03  0.24149395467E+03  0.89720804166E+02 0.  0.
         23    2    4    4    0    0  0.45999245889E+03  0.78370945042E+03  0.67025313833E+03  0.11328855381E+04  0.91634098329E+02 0.  0.
          5    1    3    3  502    0 -0.28676570332E+03 -0.47849014675E+03 -0.18718170074E+03  0.58842711377E+03  0.47000000000E+01 0. -1.
         -5    1    3    3    0  502 -0.19350855697E+03 -0.24049890324E+03 -0.47532142660E+02  0.31235665299E+03  0.47000000000E+01 0.  1.
         13    1    5    5    0    0  0.17189807427E+02 -0.52096504819E+02  0.41469181103E+02  0.68769384722E+02  0.00000000000E+00 0. -1.
        -13    1    5    5    0    0  0.30919939639E+01 -0.12623895618E+02  0.17223488002E+03  0.17272456995E+03  0.00000000000E+00 0.  1.
          3    1    6    6  503    0  0.11842952716E+03  0.13084691998E+03  0.12521173917E+03  0.21638957691E+03  0.00000000000E+00 0. -1.
         -3    1    6    6    0  503  0.34156293174E+03  0.65286253045E+03  0.54504139915E+03  0.91649596114E+03  0.00000000000E+00 0.  1.
<mgrwt>
<rscale>  0 0.92386712E+03</rscale>
<asrwt>0</asrwt>
<pdfrwt beam="1">  1        2 0.22495436E+00 0.92386712E+03</pdfrwt>
<pdfrwt beam="2">  1       -2 0.12507076E+00 0.92386712E+03</pdfrwt>
<totfact> 0.63971396E+00</totfact>
</mgrwt>
</event>
<event>
12    1  0.3203156E-008  0.1149177E+04  0.7818608E-02  0.9158543E-01
         -1   -1    0    0    0  501 -0.00000000000E+00  0.00000000000E+00  0.10867042182E+04  0.10867042182E+04  0.00000000000E+00 0.  1.
          1   -1    0    0  501    0  0.00000000000E+00 -0.00000000000E+00 -0.13677213698E+04  0.13677213698E+04  0.00000000000E+00 0. -1.
         23    2    1    2    0    0 -0.90644263992E+03 -0.69678123176E+03 -0.10753567283E+03  0.11516295075E+04  0.86857684016E+02 0.  0.
    5000000    2    1    2    0    0  0.90644263992E+03  0.69678123176E+03 -0.17348147874E+03  0.13027960805E+04  0.60003288199E+03 0.  0.
         23    2    4    4    0    0  0.33526344758E+03  0.31983893482E+03 -0.35343836704E+03  0.58934418102E+03  0.87802966325E+02 0.  0.
         23    2    4    4    0    0  0.57117919233E+03  0.37694229694E+03  0.17995688830E+03  0.71345189946E+03  0.91093173306E+02 0.  0.
          5    1    3    3  502    0 -0.78457631829E+03 -0.57056043346E+03 -0.73928362453E+02  0.97292687301E+03  0.47000000000E+01 0. -1.
         -5    1    3    3    0  502 -0.12186632162E+03 -0.12622079830E+03 -0.33607310379E+02  0.17870263451E+03  0.47000000000E+01 0.  1.
         11    1    5    5    0    0  0.28114952852E+03  0.25360977185E+03 -0.24396872788E+03  0.45042614706E+03  0.00000000000E+00 0. -1.
        -11    1    5    5    0    0  0.54113919060E+02  0.66229162969E+02 -0.10946963916E+03  0.13891803396E+03  0.00000000000E+00 0.  1.
          4    1    6    6  503    0  0.15186172256E+03  0.14203982030E+03  0.78288014866E+02  0.22218529790E+03  0.00000000000E+00 0. -1.
         -4    1    6    6    0  503  0.41931746977E+03  0.23490247664E+03  0.10166887343E+03  0.49126660156E+03  0.00000000000E+00 0.  1.
<mgrwt>
<rscale>  0 0.11491768E+04</rscale>
<asrwt>0</asrwt>
<pdfrwt beam="1">  1        1 0.21041867E+00 0.11491768E+04</pdfrwt>
<pdfrwt beam="2">  1       -1 0.16718526E+00 0.11491768E+04</pdfrwt>
<totfact> 0.20608597E+00</totfact>
</mgrwt>
</event>
<event>
12    1  0.3203156E-008  0.7360300E+03  0.7818608E-02  0.9657526E-01
         -1   -1    0    0    0  501 -0.00000000000E+00  0.00000000000E+00  0.41096470600E+03  0.41096470600E+03  0.00000000000E+00 0.  1.
          1   -1    0    0  501    0  0.00000000000E+00 -0.00000000000E+00 -0.19099437788E+04  0.19099437788E+04  0.00000000000E+00 0. -1.
         23    2    1    2    0    0  0.25873937439E+03  0.66698453467E+03 -0.10774300600E+04  0.12964746779E+04  0.90424680997E+02 0.  0.
    5000000    2    1    2    0    0 -0.25873937439E+03 -0.66698453467E+03 -0.42154901277E+03  0.10244338069E+04  0.59995551594E+03 0.  0.
         23    2    4    4    0    0 -0.39219250680E+02 -0.28186804869E+02  0.11810231336E+03  0.15514507274E+03  0.88256396835E+02 0.  0.
         23    2    4    4    0    0 -0.21952012371E+03 -0.63879772980E+03 -0.53965132613E+03  0.86928873411E+03  0.90486049409E+02 0.  0.
          5    1    3    3  502    0  0.14865102458E+03  0.48553336124E+03 -0.79054100499E+03  0.93958338776E+03  0.47000000000E+01 0. -1.
         -5    1    3    3    0  502  0.11008834981E+03  0.18145117343E+03 -0.28688905501E+03  0.35689129016E+03  0.47000000000E+01 0.  1.
         13    1    5    5    0    0 -0.36684419062E+02  0.65493883601E+01  0.59841845828E+01  0.37741907145E+02  0.00000000000E+00 0. -1.
        -13    1    5    5    0    0 -0.25348316177E+01 -0.34736193229E+02  0.11211812878E+03  0.11740316560E+03  0.00000000000E+00 0.  1.
          2    1    6    6  503    0 -0.19183824763E+03 -0.45177907275E+03 -0.41587176112E+03  0.64331606970E+03  0.00000000000E+00 0. -1.
         -2    1    6    6    0  503 -0.27681876085E+02 -0.18701865705E+03 -0.12377956501E+03  0.22597266442E+03  0.00000000000E+00 0.  1.
<mgrwt>
<rscale>  0 0.73602999E+03</rscale>
<asrwt>0</asrwt>
<pdfrwt beam="1">  1        1 0.29383750E+00 0.73602999E+03</pdfrwt>
<pdfrwt beam="2">  1       -1 0.63225340E-01 0.73602999E+03</pdfrwt>
<totfact> 0.91160143E+00</totfact>
</mgrwt>
</event>
<event>
12    1  0.3203156E-008  0.1440961E+04  0.7818608E-02  0.8924691E-01
         -2   -1    0    0    0  501 -0.00000000000E+00  0.00000000000E+00  0.14478769979E+04  0.14478769979E+04  0.00000000000E+00 0.  1.
          2   -1    0    0  501    0  0.00000000000E+00 -0.00000000000E+00 -0.18377157552E+04  0.18377157552E+04  0.00000000000E+00 0. -1.
         23    2    1    2    0    0  0.13586957182E+04  0.41940906617E+03 -0.86977247507E+03  0.16693264228E+04  0.90490485643E+02 0.  0.
    5000000    2    1    2    0    0 -0.13586957182E+04 -0.41940906617E+03  0.47993371782E+03  0.16162663302E+04  0.60001871406E+03 0.  0.
         23    2    4    4    0    0 -0.12380136137E+03  0.14454342614E+02  0.23518744506E+03  0.28144553263E+03  0.91448064083E+02 0.  0.
         23    2    4    4    0    0 -0.12348943569E+04 -0.43386340878E+03  0.24474627276E+03  0.13348207976E+04  0.92974693384E+02 0.  0.
          5    1    3    3  502    0  0.88477704959E+03  0.24645598111E+03 -0.60170707538E+03  0.10980184300E+04  0.47000000000E+01 0. -1.
         -5    1    3    3    0  502  0.47391866864E+03  0.17295308506E+03 -0.26806539970E+03  0.57130799279E+03  0.47000000000E+01 0.  1.
         13    1    5    5    0    0 -0.47555850844E+01  0.27907101221E+02  0.18420421980E+02  0.33774751427E+02  0.00000000000E+00 0. -1.
        -13    1    5    5    0    0 -0.11904577629E+03 -0.13452758606E+02  0.21676702308E+03  0.24767078120E+03  0.00000000000E+00 0.  1.
          4    1    6    6  503    0 -0.69726629042E+03 -0.20752581108E+03  0.10551512096E+03  0.73510589902E+03  0.00000000000E+00 0. -1.
         -4    1    6    6    0  503 -0.53762806644E+03 -0.22633759770E+03  0.13923115180E+03  0.59971489859E+03  0.00000000000E+00 0.  1.
<mgrwt>
<rscale>  0 0.14409611E+04</rscale>
<asrwt>0</asrwt>
<pdfrwt beam="1">  1        2 0.28272550E+00 0.14409611E+04</pdfrwt>
<pdfrwt beam="2">  1       -2 0.22275031E+00 0.14409611E+04</pdfrwt>
<totfact> 0.73742095E-01</totfact>
</mgrwt>
</event>
<event>
12    1  0.3203156E-008  0.4863729E+03  0.7818608E-02  0.1017398E+00
         -1   -1    0    0    0  501 -0.00000000000E+00  0.00000000000E+00  0.13659279881E+04  0.13659279881E+04  0.00000000000E+00 0.  1.
          1   -1    0    0  501    0  0.00000000000E+00 -0.00000000000E+00 -0.28162145144E+03  0.28162145144E+03  0.00000000000E+00 0. -1.
         23    2    1    2    0    0 -0.26493501829E+03 -0.28212445414E+03  0.77107485376E+03  0.86777403398E+03  0.93223239591E+02 0.  0.
    5000000    2    1    2    0    0  0.26493501829E+03  0.28212445414E+03  0.31323168292E+03  0.77977540558E+03  0.60012567386E+03 0.  0.
         23    2    4    4    0    0  0.21417340970E+03  0.38201542829E+03  0.13288514855E+02  0.44745808146E+03  0.90753033889E+02 0.  0.
         23    2    4    4    0    0  0.50761608584E+02 -0.99890974149E+02  0.29994316806E+03  0.33231732412E+03  0.88960396923E+02 0.  0.
          5    1    3    3  502    0 -0.11259354699E+03 -0.18645311797E+03  0.40620206896E+03  0.46093848055E+03  0.47000000000E+01 0. -1.
         -5    1    3    3    0  502 -0.15234147130E+03 -0.95671336167E+02  0.36487278480E+03  0.40683555342E+03  0.47000000000E+01 0.  1.
         13    1    5    5    0    0  0.10607600083E+03  0.12969610322E+03  0.38136800467E+02  0.17183600523E+03  0.00000000000E+00 0.  1.
        -13    1    5    5    0    0  0.10809740887E+03  0.25231932506E+03 -0.24848285611E+02  0.27562207623E+03  0.00000000000E+00 0. -1.
          3    1    6    6  503    0  0.20574305876E+02  0.70588194275E+01  0.11104395077E+03  0.11315426637E+03  0.00000000000E+00 0. -1.
         -3    1    6    6    0  503  0.30187302708E+02 -0.10694979358E+03  0.18889921729E+03  0.21916305775E+03  0.00000000000E+00 0.  1.
<mgrwt>
<rscale>  0 0.48637290E+03</rscale>
<asrwt>0</asrwt>
<pdfrwt beam="1">  1        1 0.43326378E-01 0.48637290E+03</pdfrwt>
<pdfrwt beam="2">  1       -1 0.21014276E+00 0.48637290E+03</pdfrwt>
<totfact> 0.13057288E+01</totfact>
</mgrwt>
</event>
<event>
12    1  0.3203156E-008  0.8401002E+03  0.7818608E-02  0.9503721E-01
         -2   -1    0    0    0  501 -0.00000000000E+00  0.00000000000E+00  0.72262543507E+03  0.72262543507E+03  0.00000000000E+00 0.  1.
          2   -1    0    0  501    0  0.00000000000E+00 -0.00000000000E+00 -0.11958438019E+04  0.11958438019E+04  0.00000000000E+00 0. -1.
         23    2    1    2    0    0 -0.52234480276E+03  0.59362089344E+03 -0.47322302112E+03  0.92577900122E+03  0.88864353236E+02 0.  0.
    5000000    2    1    2    0    0  0.52234480276E+03 -0.59362089344E+03  0.46543379905E-02  0.99269023570E+03  0.60017001419E+03 0.  0.
         23    2    4    4    0    0  0.44049704043E+03 -0.19677559001E+03  0.20136269568E+03  0.53118410767E+03  0.94081590020E+02 0.  0.
         23    2    4    4    0    0  0.81847762332E+02 -0.39684530343E+03 -0.20135804135E+03  0.46150612803E+03  0.90871306457E+02 0.  0.
          5    1    3    3  502    0 -0.21699727365E+03  0.21327570556E+03 -0.13936234188E+03  0.33469134391E+03  0.47000000000E+01 0. -1.
         -5    1    3    3    0  502 -0.30534752911E+03  0.38034518788E+03 -0.33386067924E+03  0.59108765730E+03  0.47000000000E+01 0.  1.
         13    1    5    5    0    0  0.30108581626E+03 -0.14384516638E+03  0.18401155854E+03  0.38105689119E+03  0.00000000000E+00 0.  1.
        -13    1    5    5    0    0  0.13941122417E+03 -0.52930423625E+02  0.17351137142E+02  0.15012721648E+03  0.00000000000E+00 0. -1.
          3    1    6    6  503    0  0.52529365019E+02 -0.22962084869E+03 -0.16578381633E+03  0.28804399334E+03  0.00000000000E+00 0. -1.
         -3    1    6    6    0  503  0.29318397313E+02 -0.16722445474E+03 -0.35574225014E+02  0.17346213468E+03  0.00000000000E+00 0.  1.
<mgrwt>
<rscale>  0 0.84010017E+03</rscale>
<asrwt>0</asrwt>
<pdfrwt beam="1">  1        2 0.18397597E+00 0.84010017E+03</pdfrwt>
<pdfrwt beam="2">  1       -2 0.11117315E+00 0.84010017E+03</pdfrwt>
<totfact> 0.12308577E+01</totfact>
</mgrwt>
</event>
<event>
12    1  0.3203156E-008  0.1207566E+04  0.7818608E-02  0.9106260E-01
         -2   -1    0    0    0  501 -0.00000000000E+00  0.00000000000E+00  0.12059516563E+04  0.12059516563E+04  0.00000000000E+00 0.  1.
          2   -1    0    0  501    0  0.00000000000E+00 -0.00000000000E+00 -0.36713665171E+04  0.36713665171E+04  0.00000000000E+00 0. -1.
         23    2    1    2    0    0  0.78088042670E+03 -0.89397590644E+03  0.74336808875E+03  0.14036423743E+04  0.92998050581E+02 0.  0.
    5000000    2    1    2    0    0 -0.78088042670E+03  0.89397590644E+03 -0.32087829495E+04  0.34736757991E+04  0.60097285997E+03 0.  0.
         23    2    4    4    0    0 -0.61106346807E+03  0.51821552026E+03 -0.26643532498E+04  0.27833721050E+04  0.80225603934E+02 0.  0.
         23    2    4    4    0    0 -0.16981695863E+03  0.37576038618E+03 -0.54442969964E+03  0.69030369412E+03  0.10040829151E+03 0.  0.
          5    1    3    3  502    0  0.62555126808E+03 -0.75541349120E+03  0.64042353206E+03  0.11713788124E+04  0.47000000000E+01 0. -1.
         -5    1    3    3    0  502  0.15532915862E+03 -0.13856241524E+03  0.10294455670E+03  0.23226356190E+03  0.47000000000E+01 0.  1.
         11    1    5    5    0    0 -0.42926056056E+03  0.40546103554E+03 -0.18991829186E+04  0.19888587276E+04  0.00000000000E+00 0.  1.
        -11    1    5    5    0    0 -0.18180290751E+03  0.11275448472E+03 -0.76517033127E+03  0.79451337740E+03  0.00000000000E+00 0. -1.
          4    1    6    6  503    0 -0.12698298206E+03  0.17372801314E+03 -0.23895764280E+03  0.32156936318E+03  0.00000000000E+00 0. -1.
         -4    1    6    6    0  503 -0.42833976572E+02  0.20203237303E+03 -0.30547205684E+03  0.36873433094E+03  0.00000000000E+00 0.  1.
<mgrwt>
<rscale>  0 0.12075655E+04</rscale>
<asrwt>0</asrwt>
<pdfrwt beam="1">  1        2 0.56482561E+00 0.12075655E+04</pdfrwt>
<pdfrwt beam="2">  1       -2 0.18553103E+00 0.12075655E+04</pdfrwt>
<totfact> 0.10137685E-01</totfact>
</mgrwt>
</event>
<event>
12    1  0.3203156E-008  0.7618697E+03  0.7818608E-02  0.9616910E-01
         -2   -1    0    0    0  501 -0.00000000000E+00  0.00000000000E+00  0.24285869795E+03  0.24285869795E+03  0.00000000000E+00 0.  1.
          2   -1    0    0  501    0  0.00000000000E+00 -0.00000000000E+00 -0.26958176337E+04  0.26958176337E+04  0.00000000000E+00 0. -1.
         23    2    1    2    0    0 -0.47130917765E+02  0.64635623512E+03 -0.15145127940E+04  0.16499145514E+04  0.92039760292E+02 0.  0.
    5000000    2    1    2    0    0  0.47130917765E+02 -0.64635623512E+03 -0.93844614167E+03  0.12887617802E+04  0.60019001932E+03 0.  0.
         23    2    4    4    0    0  0.30451950165E+03 -0.43091371922E+03 -0.59321820726E+03  0.79913043158E+03  0.91010136571E+02 0.  0.
         23    2    4    4    0    0 -0.25738858388E+03 -0.21544251590E+03 -0.34522793441E+03  0.48963134866E+03  0.88837886715E+02 0.  0.
          5    1    3    3  502    0 -0.56659773774E+02  0.41410513126E+03 -0.10588284557E+04  0.11383466863E+04  0.47000000000E+01 0. -1.
         -5    1    3    3    0  502  0.95288560092E+01  0.23225110386E+03 -0.45568433838E+03  0.51156786508E+03  0.47000000000E+01 0.  1.
         11    1    5    5    0    0  0.10777544720E+03 -0.19043963345E+03 -0.18789468499E+03  0.28842193685E+03  0.00000000000E+00 0. -1.
        -11    1    5    5    0    0  0.19674405445E+03 -0.24047408577E+03 -0.40532352227E+03  0.51070849474E+03  0.00000000000E+00 0.  1.
          3    1    6    6  503    0 -0.13080125945E+03 -0.15687713092E+03 -0.23846438137E+03  0.31398194990E+03  0.00000000000E+00 0. -1.
         -3    1    6    6    0  503 -0.12658732443E+03 -0.58565384979E+02 -0.10676355304E+03  0.17564939875E+03  0.00000000000E+00 0.  1.
<mgrwt>
<rscale>  0 0.76186972E+03</rscale>
<asrwt>0</asrwt>
<pdfrwt beam="1">  1        2 0.41474117E+00 0.76186972E+03</pdfrwt>
<pdfrwt beam="2">  1       -2 0.37362877E-01 0.76186972E+03</pdfrwt>
<totfact> 0.18926430E+01</totfact>
</mgrwt>
</event>
<event>
12    1  0.3203156E-008  0.1130758E+04  0.7818608E-02  0.9175721E-01
         -2   -1    0    0    0  501 -0.00000000000E+00  0.00000000000E+00  0.53643979829E+03  0.53643979829E+03  0.00000000000E+00 0.  1.
          2   -1    0    0  501    0  0.00000000000E+00 -0.00000000000E+00 -0.35372669161E+04  0.35372669161E+04  0.00000000000E+00 0. -1.
         23    2    1    2    0    0 -0.61884265596E+03  0.85621309573E+03 -0.25777643904E+04  0.27873176008E+04  0.90570732130E+02 0.  0.
    5000000    2    1    2    0    0  0.61884265596E+03 -0.85621309573E+03 -0.42306272747E+03  0.12863891136E+04  0.59978978153E+03 0.  0.
         23    2    4    4    0    0  0.71263486757E+03 -0.73121629875E+03 -0.41778388689E+03  0.11074009764E+04  0.96269498421E+02 0.  0.
         23    2    4    4    0    0 -0.93792211605E+02 -0.12499679698E+03 -0.52788405728E+01  0.17898813719E+03  0.87107455970E+02 0.  0.
          5    1    3    3  502    0 -0.14860834207E+03  0.14785542280E+03 -0.54058036904E+03  0.57982315474E+03  0.47000000000E+01 0. -1.
         -5    1    3    3    0  502 -0.47023431389E+03  0.70835767293E+03 -0.20371840213E+04  0.22074944461E+04  0.47000000000E+01 0.  1.
         11    1    5    5    0    0  0.21419427386E+03 -0.16286917454E+03 -0.12553546930E+03  0.29692542670E+03  0.00000000000E+00 0. -1.
        -11    1    5    5    0    0  0.49844059371E+03 -0.56834712421E+03 -0.29224841760E+03  0.81047554969E+03  0.00000000000E+00 0.  1.
          4    1    6    6  503    0 -0.13265055306E+02  0.11841226492E+02  0.83219587706E+01  0.19632405224E+02  0.00000000000E+00 0. -1.
         -4    1    6    6    0  503 -0.80527156299E+02 -0.13683802347E+03 -0.13600799343E+02  0.15935573197E+03  0.00000000000E+00 0.  1.
<mgrwt>
<rscale>  0 0.11307585E+04</rscale>
<asrwt>0</asrwt>
<pdfrwt beam="1">  1        2 0.54419489E+00 0.11307585E+04</pdfrwt>
<pdfrwt beam="2">  1       -2 0.82529203E-01 0.11307585E+04</pdfrwt>
<totfact> 0.10001942E+00</totfact>
</mgrwt>
</event>
<event>
12    1  0.3203156E-008  0.1579049E+04  0.7818608E-02  0.8833523E-01
         -1   -1    0    0    0  501 -0.00000000000E+00  0.00000000000E+00  0.18473543529E+04  0.18473543529E+04  0.00000000000E+00 0.  1.
          1   -1    0    0  501    0  0.00000000000E+00 -0.00000000000E+00 -0.16297871847E+04  0.16297871847E+04  0.00000000000E+00 0. -1.
         23    2    1    2    0    0 -0.15069911660E+04  0.28667590657E+03  0.79698793662E+03  0.17308994860E+04  0.87280065311E+02 0.  0.
    5000000    2    1    2    0    0  0.15069911660E+04 -0.28667590657E+03 -0.57942076842E+03  0.17462420516E+04  0.60035608273E+03 0.  0.
         23    2    4    4    0    0  0.10207311867E+04 -0.43852053220E+03 -0.28567361864E+03  0.11514241304E+04  0.99878421056E+02 0.  0.
         23    2    4    4    0    0  0.48625997929E+03  0.15184462563E+03 -0.29374714977E+03  0.59481792120E+03  0.89528842174E+02 0.  0.
          5    1    3    3  502    0 -0.11003199017E+04  0.22806538228E+03  0.62105462521E+03  0.12839192507E+04  0.47000000000E+01 0. -1.
         -5    1    3    3    0  502 -0.40667126423E+03  0.58610524287E+02  0.17593331141E+03  0.44698023533E+03  0.47000000000E+01 0.  1.
         13    1    5    5    0    0  0.29508568379E+03 -0.16469083544E+03 -0.11775953400E+03  0.35786301835E+03  0.00000000000E+00 0. -1.
        -13    1    5    5    0    0  0.72564550286E+03 -0.27382969676E+03 -0.16791408464E+03  0.79356111200E+03  0.00000000000E+00 0.  1.
          2    1    6    6  503    0  0.20440426995E+03  0.51740785761E+02 -0.17112172652E+03  0.27155268324E+03  0.00000000000E+00 0. -1.
         -2    1    6    6    0  503  0.28185570934E+03  0.10010383987E+03 -0.12262542325E+03  0.32326523796E+03  0.00000000000E+00 0.  1.
<mgrwt>
<rscale>  0 0.15790490E+04</rscale>
<asrwt>0</asrwt>
<pdfrwt beam="1">  1        1 0.25073649E+00 0.15790490E+04</pdfrwt>
<pdfrwt beam="2">  1       -1 0.28420836E+00 0.15790490E+04</pdfrwt>
<totfact> 0.20831255E-01</totfact>
</mgrwt>
</event>
<event>
12    1  0.3203156E-008  0.1041676E+04  0.7818608E-02  0.9263981E-01
         -2   -1    0    0    0  501 -0.00000000000E+00  0.00000000000E+00  0.30258799906E+03  0.30258799906E+03  0.00000000000E+00 0. -1.
          2   -1    0    0  501    0  0.00000000000E+00 -0.00000000000E+00 -0.38958741726E+04  0.38958741726E+04  0.00000000000E+00 0.  1.
         23    2    1    2    0    0  0.99379081288E+03  0.72627829146E+02 -0.18455740124E+04  0.20991032324E+04  0.84829024662E+02 0.  0.
    5000000    2    1    2    0    0 -0.99379081288E+03 -0.72627829146E+02 -0.17477121611E+04  0.20993589393E+04  0.59992930966E+03 0.  0.
         23    2    4    4    0    0 -0.75063795337E+03  0.12028531061E+03 -0.15239212271E+04  0.17054281788E+04  0.90683370880E+02 0.  0.
         23    2    4    4    0    0 -0.24315285951E+03 -0.19291313975E+03 -0.22379093409E+03  0.39393076054E+03  0.93596310505E+02 0.  0.
          5    1    3    3  502    0  0.63205321245E+03  0.73441265430E+02 -0.11125865927E+04  0.12817003936E+04  0.47000000000E+01 0. -1.
         -5    1    3    3    0  502  0.36173760043E+03 -0.81343628387E+00 -0.73298741978E+03  0.81740283875E+03  0.47000000000E+01 0.  1.
         11    1    5    5    0    0 -0.44501428653E+03  0.47532864626E+02 -0.97862073723E+03  0.10761020564E+04  0.00000000000E+00 0.  1.
        -11    1    5    5    0    0 -0.30562366683E+03  0.72752445980E+02 -0.54530048983E+03  0.62932612240E+03  0.00000000000E+00 0. -1.
          2    1    6    6  503    0 -0.16760858268E+03 -0.75255711442E+02 -0.11476768995E+03  0.21662798007E+03  0.00000000000E+00 0. -1.
         -2    1    6    6    0  503 -0.75544276828E+02 -0.11765742831E+03 -0.10902324415E+03  0.17730278047E+03  0.00000000000E+00 0.  1.
<mgrwt>
<rscale>  0 0.10416758E+04</rscale>
<asrwt>0</asrwt>
<pdfrwt beam="1">  1        2 0.59936527E+00 0.10416758E+04</pdfrwt>
<pdfrwt beam="2">  1       -2 0.46551999E-01 0.10416758E+04</pdfrwt>
<totfact> 0.18903466E+00</totfact>
</mgrwt>
</event>
<event>
12    1  0.3203156E-008  0.1017466E+04  0.7818608E-02  0.9289593E-01
          1   -1    0    0  501    0  0.00000000000E+00  0.00000000000E+00  0.39225198502E+03  0.39225198502E+03  0.00000000000E+00 0. -1.
         -1   -1    0    0    0  501 -0.00000000000E+00 -0.00000000000E+00 -0.30826584723E+04  0.30826584723E+04  0.00000000000E+00 0.  1.
         23    2    1    2    0    0  0.34366640271E+03 -0.91997068813E+03 -0.16561533151E+04  0.19275801691E+04  0.90933171779E+02 0.  0.
    5000000    2    1    2    0    0 -0.34366640271E+03  0.91997068813E+03 -0.10342531722E+04  0.15473302882E+04  0.60008227217E+03 0.  0.
         23    2    4    4    0    0  0.43969476586E+02  0.40677872094E+03 -0.70379557397E+03  0.81844357087E+03  0.84376691560E+02 0.  0.
         23    2    4    4    0    0 -0.38763587929E+03  0.51319196719E+03 -0.33045759821E+03  0.72888671737E+03  0.91902407131E+02 0.  0.
          5    1    3    3  502    0  0.13820646747E+03 -0.33912943592E+03 -0.70192318377E+03  0.79172472986E+03  0.47000000000E+01 0. -1.
         -5    1    3    3    0  502  0.20545993524E+03 -0.58084125221E+03 -0.95423013131E+03  0.11358554392E+04  0.47000000000E+01 0.  1.
         13    1    5    5    0    0  0.76921298525E+01  0.13671519512E+03 -0.31693592402E+03  0.34525149293E+03  0.00000000000E+00 0. -1.
        -13    1    5    5    0    0  0.36277346733E+02  0.27006352581E+03 -0.38685964996E+03  0.47319207794E+03  0.00000000000E+00 0.  1.
          1    1    6    6  503    0 -0.14414541314E+03  0.19310684069E+03 -0.17456185840E+03  0.29755670797E+03  0.00000000000E+00 0. -1.
         -1    1    6    6    0  503 -0.24349046615E+03  0.32008512651E+03 -0.15589573981E+03  0.43133000940E+03  0.00000000000E+00 0.  1.
<mgrwt>
<rscale>  0 0.10174664E+04</rscale>
<asrwt>0</asrwt>
<pdfrwt beam="1">  1        1 0.60346461E-01 0.10174664E+04</pdfrwt>
<pdfrwt beam="2">  1       -1 0.47425514E+00 0.10174664E+04</pdfrwt>
<totfact> 0.13896709E-01</totfact>
</mgrwt>
</event>
<event>
12    1  0.3203156E-008  0.9637050E+03  0.7818608E-02  0.9349273E-01
         -1   -1    0    0    0  501 -0.00000000000E+00  0.00000000000E+00  0.13192562836E+04  0.13192562836E+04  0.00000000000E+00 0.  1.
          1   -1    0    0  501    0  0.00000000000E+00 -0.00000000000E+00 -0.96098404787E+03  0.96098404787E+03  0.00000000000E+00 0. -1.
         23    2    1    2    0    0 -0.59246221492E+02  0.91730620960E+03 -0.33423843556E+03  0.98234015730E+03  0.91192411467E+02 0.  0.
    5000000    2    1    2    0    0  0.59246221492E+02 -0.91730620960E+03  0.69251067128E+03  0.12979001742E+04  0.60001086268E+03 0.  0.
         23    2    4    4    0    0  0.23081057659E+03 -0.58413921917E+03  0.65185090079E+03  0.90991194129E+03  0.92401268457E+02 0.  0.
         23    2    4    4    0    0 -0.17156435509E+03 -0.33316699043E+03  0.40659770488E+02  0.38798823287E+03  0.91907999969E+02 0.  0.
          5    1    3    3  502    0 -0.25279676491E+02  0.50777888242E+03 -0.23196099206E+03  0.55884384877E+03  0.47000000000E+01 0. -1.
         -5    1    3    3    0  502 -0.33966545001E+02  0.40952732718E+03 -0.10227744349E+03  0.42349630852E+03  0.47000000000E+01 0.  1.
         11    1    5    5    0    0  0.39233226610E+02 -0.19218846375E+03  0.16631615726E+03  0.25717059676E+03  0.00000000000E+00 0. -1.
        -11    1    5    5    0    0  0.19157734998E+03 -0.39195075542E+03  0.48553474353E+03  0.65274134454E+03  0.00000000000E+00 0.  1.
          4    1    6    6  503    0 -0.83623077338E+02 -0.13503206194E+03  0.61269429005E+02  0.17023636434E+03  0.00000000000E+00 0. -1.
         -4    1    6    6    0  503 -0.87941277756E+02 -0.19813492849E+03 -0.20609658517E+02  0.21775186852E+03  0.00000000000E+00 0.  1.
<mgrwt>
<rscale>  0 0.96370497E+03</rscale>
<asrwt>0</asrwt>
<pdfrwt beam="1">  1        1 0.14784370E+00 0.96370497E+03</pdfrwt>
<pdfrwt beam="2">  1       -1 0.20296251E+00 0.96370497E+03</pdfrwt>
<totfact> 0.23538472E+00</totfact>
</mgrwt>
</event>
<event>
12    1  0.3203156E-008  0.1333121E+04  0.7818608E-02  0.9003705E-01
          1   -1    0    0  501    0  0.00000000000E+00  0.00000000000E+00  0.20399943206E+04  0.20399943206E+04  0.00000000000E+00 0. -1.
         -1   -1    0    0    0  501 -0.00000000000E+00 -0.00000000000E+00 -0.11801613839E+04  0.11801613839E+04  0.00000000000E+00 0.  1.
         23    2    1    2    0    0 -0.12027189560E+04 -0.55509739091E+03  0.11270972994E+04  0.17415720891E+04  0.89772038317E+02 0.  0.
    5000000    2    1    2    0    0  0.12027189560E+04  0.55509739091E+03 -0.26726436267E+03  0.14785836153E+04  0.60009438216E+03 0.  0.
         23    2    4    4    0    0  0.37615114456E+03  0.25284531461E+03  0.16933008856E+03  0.49265892079E+03  0.92842321526E+02 0.  0.
         23    2    4    4    0    0  0.82656781143E+03  0.30225207630E+03 -0.43659445123E+03  0.98592469455E+03  0.82837937923E+02 0.  0.
          5    1    3    3  502    0 -0.75186898184E+03 -0.31825733282E+03  0.73923825049E+03  0.11014036393E+04  0.47000000000E+01 0. -1.
         -5    1    3    3    0  502 -0.45084997414E+03 -0.23684005810E+03  0.38785904890E+03  0.64016844980E+03  0.47000000000E+01 0.  1.
         13    1    5    5    0    0  0.11012492773E+03  0.44036467746E+02  0.10608173732E+02  0.11907662889E+03  0.00000000000E+00 0.  1.
        -13    1    5    5    0    0  0.26602621683E+03  0.20880884687E+03  0.15872191483E+03  0.37358229189E+03  0.00000000000E+00 0. -1.
          2    1    6    6  503    0  0.54555525959E+03  0.23919702666E+03 -0.28226436235E+03  0.65918049810E+03  0.00000000000E+00 0. -1.
         -2    1    6    6    0  503  0.28101255184E+03  0.63055049641E+02 -0.15433008889E+03  0.32674419645E+03  0.00000000000E+00 0.  1.
<mgrwt>
<rscale>  0 0.13331205E+04</rscale>
<asrwt>0</asrwt>
<pdfrwt beam="1">  1        1 0.31384528E+00 0.13331205E+04</pdfrwt>
<pdfrwt beam="2">  1       -1 0.18156329E+00 0.13331205E+04</pdfrwt>
<totfact> 0.54796603E-01</totfact>
</mgrwt>
</event>
<event>
12    1  0.3203156E-008  0.8116124E+03  0.7818608E-02  0.9543359E-01
          1   -1    0    0  501    0  0.00000000000E+00  0.00000000000E+00  0.12136980041E+04  0.12136980041E+04  0.00000000000E+00 0. -1.
         -1   -1    0    0    0  501 -0.00000000000E+00 -0.00000000000E+00 -0.75836812342E+03  0.75836812342E+03  0.00000000000E+00 0.  1.
         23    2    1    2    0    0  0.66029653911E+03 -0.44320332445E+03  0.55060005787E+03  0.97129794625E+03  0.88535700691E+02 0.  0.
    5000000    2    1    2    0    0 -0.66029653911E+03  0.44320332445E+03 -0.95270177199E+02  0.10007681813E+04  0.60003319877E+03 0.  0.
         23    2    4    4    0    0 -0.13575754238E+03  0.51976291220E+02  0.21172208664E+03  0.27207816222E+03  0.89825604508E+02 0.  0.
         23    2    4    4    0    0 -0.52453899673E+03  0.39122703323E+03 -0.30699226383E+03  0.72869001906E+03  0.92439943728E+02 0.  0.
          5    1    3    3  502    0  0.40050341038E+03 -0.30685453206E+03  0.38214427386E+03  0.63294472241E+03  0.47000000000E+01 0. -1.
         -5    1    3    3    0  502  0.25979312873E+03 -0.13634879238E+03  0.16845578401E+03  0.33835322384E+03  0.47000000000E+01 0.  1.
         11    1    5    5    0    0 -0.65245124714E+02  0.72281167623E+02  0.12597235148E+03  0.15921848771E+03  0.00000000000E+00 0. -1.
        -11    1    5    5    0    0 -0.70512417662E+02 -0.20304876403E+02  0.85749735159E+02  0.11285967451E+03  0.00000000000E+00 0.  1.
          2    1    6    6  503    0 -0.26482866788E+03  0.20476263379E+03 -0.10640896370E+03  0.35126176433E+03  0.00000000000E+00 0. -1.
         -2    1    6    6    0  503 -0.25971032886E+03  0.18646439944E+03 -0.20058330013E+03  0.37742825472E+03  0.00000000000E+00 0.  1.
<mgrwt>
<rscale>  0 0.81161242E+03</rscale>
<asrwt>0</asrwt>
<pdfrwt beam="1">  1        1 0.18672277E+00 0.81161242E+03</pdfrwt>
<pdfrwt beam="2">  1       -1 0.11667202E+00 0.81161242E+03</pdfrwt>
<totfact> 0.71111330E+00</totfact>
</mgrwt>
</event>
<event>
12    1  0.3203156E-008  0.3834909E+03  0.7818608E-02  0.1049651E+00
          2   -1    0    0  501    0  0.00000000000E+00  0.00000000000E+00  0.15614629013E+04  0.15614629013E+04  0.00000000000E+00 0.  1.
         -2   -1    0    0    0  501 -0.00000000000E+00 -0.00000000000E+00 -0.16916102304E+03  0.16916102304E+03  0.00000000000E+00 0. -1.
         23    2    1    2    0    0  0.16196434913E+03  0.40340567300E+02 -0.16980550788E+02  0.18986397506E+03  0.88882946409E+02 0.  0.
    5000000    2    1    2    0    0 -0.16196434913E+03 -0.40340567300E+02  0.14092824291E+04  0.15407599493E+04  0.60000370391E+03 0.  0.
         23    2    4    4    0    0 -0.31378238000E+02  0.25815364760E+03  0.50920368853E+03  0.57905749600E+03  0.91603971928E+02 0.  0.
         23    2    4    4    0    0 -0.13058611113E+03 -0.29849421490E+03  0.90007874053E+03  0.96170245328E+03  0.92619332507E+02 0.  0.
          5    1    3    3  502    0  0.76338780132E+02  0.13492768503E+02  0.35942781408E+02  0.85578254769E+02  0.47000000000E+01 0. -1.
         -5    1    3    3    0  502  0.85625568996E+02  0.26847798797E+02 -0.52923332196E+02  0.10428572029E+03  0.47000000000E+01 0.  1.
         13    1    5    5    0    0  0.94644529833E+01  0.45304150038E+02  0.36179591256E+02  0.58745252611E+02  0.00000000000E+00 0.  1.
        -13    1    5    5    0    0 -0.40842690983E+02  0.21284949756E+03  0.47302409727E+03  0.52031224339E+03  0.00000000000E+00 0. -1.
          4    1    6    6  503    0 -0.72184945443E+02 -0.25098316930E+03  0.74184634699E+03  0.78647264425E+03  0.00000000000E+00 0. -1.
         -4    1    6    6    0  503 -0.58401165685E+02 -0.47511045598E+02  0.15823239354E+03  0.17522980903E+03  0.00000000000E+00 0.  1.
<mgrwt>
<rscale>  0 0.38349085E+03</rscale>
<asrwt>0</asrwt>
<pdfrwt beam="1">  1        2 0.24022505E+00 0.38349085E+03</pdfrwt>
<pdfrwt beam="2">  1       -2 0.26024774E-01 0.38349085E+03</pdfrwt>
<totfact> 0.16544036E+02</totfact>
</mgrwt>
</event>
<event>
12    1  0.3203156E-008  0.4510135E+03  0.7818608E-02  0.1027420E+00
          1   -1    0    0  501    0  0.00000000000E+00  0.00000000000E+00  0.83140305660E+03  0.83140305660E+03  0.00000000000E+00 0. -1.
         -1   -1    0    0    0  501 -0.00000000000E+00 -0.00000000000E+00 -0.37206453643E+03  0.37206453643E+03  0.00000000000E+00 0.  1.
         23    2    1    2    0    0  0.37801085072E+03 -0.38334158321E+02  0.83191495530E+02  0.39961331631E+03  0.91696601271E+02 0.  0.
    5000000    2    1    2    0    0 -0.37801085072E+03  0.38334158321E+02  0.37614702464E+03  0.80385427673E+03  0.60027777163E+03 0.  0.
         23    2    4    4    0    0 -0.43381391920E+03  0.69707764303E+02  0.47624344780E+03  0.65441668085E+03  0.91649777399E+02 0.  0.
         23    2    4    4    0    0  0.55803068478E+02 -0.31373605982E+02 -0.10009642317E+03  0.14943759588E+03  0.90631206147E+02 0.  0.
          5    1    3    3  502    0  0.34385174632E+03 -0.22198477699E+02  0.98776840935E+02  0.35847698693E+03  0.47000000000E+01 0. -1.
         -5    1    3    3    0  502  0.34159104407E+02 -0.16135680622E+02 -0.15585345405E+02  0.41136329374E+02  0.47000000000E+01 0.  1.
         11    1    5    5    0    0 -0.12380736408E+03 -0.29409888162E+01  0.18675064506E+03  0.22408194092E+03  0.00000000000E+00 0. -1.
        -11    1    5    5    0    0 -0.31000655512E+03  0.72648753119E+02  0.28949280274E+03  0.43033473992E+03  0.00000000000E+00 0.  1.
          3    1    6    6  503    0  0.40465736929E+02 -0.42100073095E+02 -0.12309338727E+02  0.59677565632E+02  0.00000000000E+00 0. -1.
         -3    1    6    6    0  503  0.15337331549E+02  0.10726467113E+02 -0.87787084440E+02  0.89760030249E+02  0.00000000000E+00 0.  1.
<mgrwt>
<rscale>  0 0.45101354E+03</rscale>
<asrwt>0</asrwt>
<pdfrwt beam="1">  1        1 0.12790816E+00 0.45101354E+03</pdfrwt>
<pdfrwt beam="2">  1       -1 0.57240698E-01 0.45101354E+03</pdfrwt>
<totfact> 0.67776625E+01</totfact>
</mgrwt>
</event>
<event>
12    1  0.3203156E-008  0.9270648E+03  0.7818608E-02  0.9392367E-01
         -1   -1    0    0    0  501 -0.00000000000E+00  0.00000000000E+00  0.48720754446E+03  0.48720754446E+03  0.00000000000E+00 0.  1.
          1   -1    0    0  501    0  0.00000000000E+00 -0.00000000000E+00 -0.19462359615E+04  0.19462359615E+04  0.00000000000E+00 0. -1.
         23    2    1    2    0    0  0.74344097348E+03  0.46851725031E+03 -0.64523905168E+03  0.10938935690E+04  0.89759743304E+02 0.  0.
    5000000    2    1    2    0    0 -0.74344097348E+03 -0.46851725031E+03 -0.81378936536E+03  0.13395499370E+04  0.59994000338E+03 0.  0.
         23    2    4    4    0    0 -0.77494283273E+03 -0.45097320342E+03 -0.54328106547E+03  0.10523463083E+04  0.91461533989E+02 0.  0.
         23    2    4    4    0    0  0.31501859258E+02 -0.17544046887E+02 -0.27050829989E+03  0.28720362874E+03  0.89504320194E+02 0.  0.
          5    1    3    3  502    0  0.48367017769E+03  0.30126390750E+03 -0.47005306500E+03  0.73869395331E+03  0.47000000000E+01 0. -1.
         -5    1    3    3    0  502  0.25977079579E+03  0.16725334281E+03 -0.17518598667E+03  0.35519961564E+03  0.47000000000E+01 0.  1.
         11    1    5    5    0    0 -0.26155556365E+03 -0.12195979016E+03 -0.21459313576E+03  0.35963275324E+03  0.00000000000E+00 0.  1.
        -11    1    5    5    0    0 -0.51338726909E+03 -0.32901341326E+03 -0.32868792971E+03  0.69271355501E+03  0.00000000000E+00 0. -1.
          3    1    6    6  503    0  0.37418390551E+02 -0.39374223077E+02 -0.88818395708E+02  0.10411134814E+03  0.00000000000E+00 0. -1.
         -3    1    6    6    0  503 -0.59165312936E+01  0.21830176190E+02 -0.18168990418E+03  0.18309228060E+03  0.00000000000E+00 0.  1.
<mgrwt>
<rscale>  0 0.92706483E+03</rscale>
<asrwt>0</asrwt>
<pdfrwt beam="1">  1        1 0.29942091E+00 0.92706483E+03</pdfrwt>
<pdfrwt beam="2">  1       -1 0.74955008E-01 0.92706483E+03</pdfrwt>
<totfact> 0.59201772E+00</totfact>
</mgrwt>
</event>
<event>
12    1  0.3203156E-008  0.1247404E+04  0.7818608E-02  0.9072347E-01
         -2   -1    0    0    0  501 -0.00000000000E+00  0.00000000000E+00  0.87786778430E+03  0.87786778430E+03  0.00000000000E+00 0.  1.
          2   -1    0    0  501    0  0.00000000000E+00 -0.00000000000E+00 -0.17953414365E+04  0.17953414365E+04  0.00000000000E+00 0. -1.
         23    2    1    2    0    0  0.21657292545E+02 -0.11814250005E+04 -0.41194116262E+03  0.12548078455E+04  0.92806991901E+02 0.  0.
    5000000    2    1    2    0    0 -0.21657292545E+02  0.11814250005E+04 -0.50553248963E+03  0.14184013753E+04  0.60005440865E+03 0.  0.
         23    2    4    4    0    0 -0.29081003588E+03  0.68118988090E+03 -0.33991914589E+03  0.81979312492E+03  0.89025901386E+02 0.  0.
         23    2    4    4    0    0  0.26915274333E+03  0.50023511957E+03 -0.16561334374E+03  0.59860825038E+03  0.90695555078E+02 0.  0.
          5    1    3    3  502    0  0.20206836967E+02 -0.84439158990E+03 -0.25008318377E+03  0.88089111821E+03  0.47000000000E+01 0. -1.
         -5    1    3    3    0  502  0.14504555787E+01 -0.33703341057E+03 -0.16185797886E+03  0.37391672733E+03  0.47000000000E+01 0.  1.
         11    1    5    5    0    0 -0.64440775386E+02  0.89064691700E+02 -0.28805373825E+02  0.11364366415E+03  0.00000000000E+00 0. -1.
        -11    1    5    5    0    0 -0.22636926049E+03  0.59212518920E+03 -0.31111377206E+03  0.70614946077E+03  0.00000000000E+00 0.  1.
          3    1    6    6  503    0  0.11444024322E+03  0.17524027193E+03 -0.19724657314E+02  0.21022555573E+03  0.00000000000E+00 0. -1.
         -3    1    6    6    0  503  0.15471250011E+03  0.32499484764E+03 -0.14588868642E+03  0.38838269465E+03  0.00000000000E+00 0.  1.
<mgrwt>
<rscale>  0 0.12474040E+04</rscale>
<asrwt>0</asrwt>
<pdfrwt beam="1">  1        2 0.27620638E+00 0.12474040E+04</pdfrwt>
<pdfrwt beam="2">  1       -2 0.13505658E+00 0.12474040E+04</pdfrwt>
<totfact> 0.33151292E+00</totfact>
</mgrwt>
</event>
<event>
12    1  0.3203156E-008  0.7123171E+03  0.7818608E-02  0.9696397E-01
          1   -1    0    0  501    0  0.00000000000E+00  0.00000000000E+00  0.10466359530E+04  0.10466359530E+04  0.00000000000E+00 0. -1.
         -1   -1    0    0    0  501 -0.00000000000E+00 -0.00000000000E+00 -0.57005858759E+03  0.57005858759E+03  0.00000000000E+00 0.  1.
         23    2    1    2    0    0  0.24701367436E+03 -0.54778112742E+03 -0.62260706498E+02  0.61087651522E+03  0.90630030312E+02 0.  0.
    5000000    2    1    2    0    0 -0.24701367436E+03  0.54778112742E+03  0.53883807190E+03  0.10058180254E+04  0.60020289363E+03 0.  0.
         23    2    4    4    0    0 -0.37890093313E+03  0.16618678165E+03  0.18846558308E+03  0.46360950226E+03  0.90722274340E+02 0.  0.
         23    2    4    4    0    0  0.13188725877E+03  0.38159434577E+03  0.35037248882E+03  0.54220852309E+03  0.90668119215E+02 0.  0.
          5    1    3    3  502    0  0.31601953244E+02 -0.15167199751E+03  0.43722479713E+01  0.15506219665E+03  0.47000000000E+01 0. -1.
         -5    1    3    3    0  502  0.21541172111E+03 -0.39610912992E+03 -0.66632954470E+02  0.45581431857E+03  0.47000000000E+01 0.  1.
         11    1    5    5    0    0 -0.21254846989E+03  0.97453181465E+02  0.56869803753E+02  0.24064112120E+03  0.00000000000E+00 0.  1.
        -11    1    5    5    0    0 -0.16635246323E+03  0.68733600184E+02  0.13159577932E+03  0.22296838106E+03  0.00000000000E+00 0. -1.
          3    1    6    6  503    0  0.54552900739E+02  0.11446357545E+03  0.16456136657E+03  0.20774593246E+03  0.00000000000E+00 0. -1.
         -3    1    6    6    0  503  0.77334358030E+02  0.26713077032E+03  0.18581112225E+03  0.33446259063E+03  0.00000000000E+00 0.  1.
<mgrwt>
<rscale>  0 0.71231714E+03</rscale>
<asrwt>0</asrwt>
<pdfrwt beam="1">  1        1 0.16102092E+00 0.71231714E+03</pdfrwt>
<pdfrwt beam="2">  1       -1 0.87701322E-01 0.71231714E+03</pdfrwt>
<totfact> 0.18424575E+01</totfact>
</mgrwt>
</event>
<event>
12    1  0.3203156E-008  0.6457107E+03  0.7818608E-02  0.9814861E-01
          2   -1    0    0  501    0  0.00000000000E+00  0.00000000000E+00  0.24331702472E+04  0.24331702472E+04  0.00000000000E+00 0.  1.
         -2   -1    0    0    0  501 -0.00000000000E+00 -0.00000000000E+00 -0.31303976903E+03  0.31303976903E+03  0.00000000000E+00 0. -1.
         23    2    1    2    0    0 -0.11484824502E+03 -0.53851027996E+03  0.98249731058E+02  0.56644145370E+03  0.89551492516E+02 0.  0.
    5000000    2    1    2    0    0  0.11484824502E+03  0.53851027996E+03  0.20218807471E+04  0.21797685625E+04  0.60017146686E+03 0.  0.
         23    2    4    4    0    0  0.10401307517E+03  0.62603458822E+03  0.18870925770E+04  0.19929381973E+04  0.89141677282E+02 0.  0.
         23    2    4    4    0    0  0.10835169850E+02 -0.87524308260E+02  0.13478817011E+03  0.18683036523E+03  0.94656373940E+02 0.  0.
          5    1    3    3  502    0 -0.61426125728E+02 -0.12493382251E+03  0.66172281185E+01  0.13945431738E+03  0.47000000000E+01 0. -1.
         -5    1    3    3    0  502 -0.53422119296E+02 -0.41357645745E+03  0.91632502940E+02  0.42698713632E+03  0.47000000000E+01 0.  1.
         13    1    5    5    0    0  0.87438813863E+02  0.61051337287E+03  0.18409303923E+04  0.19414934545E+04  0.00000000000E+00 0. -1.
        -13    1    5    5    0    0  0.16574261312E+02  0.15521215350E+02  0.46162184692E+02  0.51444742778E+02  0.00000000000E+00 0.  1.
          1    1    6    6  503    0 -0.97796127211E+01 -0.58424698457E+01  0.91331370486E+02  0.92039092313E+02  0.00000000000E+00 0. -1.
         -1    1    6    6    0  503  0.20614782571E+02 -0.81681838415E+02  0.43456799622E+02  0.94791272914E+02  0.00000000000E+00 0.  1.
<mgrwt>
<rscale>  0 0.64571072E+03</rscale>
<asrwt>0</asrwt>
<pdfrwt beam="1">  1        2 0.37433387E+00 0.64571072E+03</pdfrwt>
<pdfrwt beam="2">  1       -2 0.48159966E-01 0.64571072E+03</pdfrwt>
<totfact> 0.16527217E+01</totfact>
</mgrwt>
</event>
<event>
12    1  0.3203156E-008  0.3810315E+03  0.7818608E-02  0.1050553E+00
         -2   -1    0    0    0  501 -0.00000000000E+00  0.00000000000E+00  0.66339679128E+02  0.66339679128E+02  0.00000000000E+00 0. -1.
          2   -1    0    0  501    0  0.00000000000E+00 -0.00000000000E+00 -0.31153475693E+04  0.31153475693E+04  0.00000000000E+00 0.  1.
         23    2    1    2    0    0  0.33152748721E+02  0.18834656144E+03 -0.14114079687E+04  0.14272087567E+04  0.90988181789E+02 0.  0.
    5000000    2    1    2    0    0 -0.33152748721E+02 -0.18834656144E+03 -0.16375999215E+04  0.17544784918E+04  0.59990644528E+03 0.  0.
         23    2    4    4    0    0 -0.25747829618E+03 -0.17977461475E+03 -0.12881897928E+04  0.13290449681E+04  0.91178944585E+02 0.  0.
         23    2    4    4    0    0  0.22432554746E+03 -0.85719466936E+01 -0.34941012878E+03  0.42543352367E+03  0.92254080968E+02 0.  0.
          5    1    3    3  502    0  0.37292254605E+02  0.11047886677E+03 -0.10991395350E+04  0.11053171941E+04  0.47000000000E+01 0. -1.
         -5    1    3    3    0  502 -0.41395058844E+01  0.77867694673E+02 -0.31226843364E+03  0.32189156254E+03  0.47000000000E+01 0.  1.
         13    1    5    5    0    0 -0.18553965963E+03 -0.17326519511E+03 -0.95981530823E+03  0.99281983212E+03  0.00000000000E+00 0. -1.
        -13    1    5    5    0    0 -0.71938636548E+02 -0.65094196343E+01 -0.32837448453E+03  0.33622513598E+03  0.00000000000E+00 0.  1.
          4    1    6    6  503    0  0.22434704959E+03 -0.24087202128E+02 -0.33701583621E+03  0.40557547488E+03  0.00000000000E+00 0. -1.
         -4    1    6    6    0  503 -0.21502128550E-01  0.15515255435E+02 -0.12394292567E+02  0.19858048791E+02  0.00000000000E+00 0.  1.
<mgrwt>
<rscale>  0 0.38103149E+03</rscale>
<asrwt>0</asrwt>
<pdfrwt beam="1">  1        2 0.47928424E+00 0.38103149E+03</pdfrwt>
<pdfrwt beam="2">  1       -2 0.10206105E-01 0.38103149E+03</pdfrwt>
<totfact> 0.11060606E+02</totfact>
</mgrwt>
</event>
<event>
12    1  0.3203156E-008  0.1390566E+04  0.7818608E-02  0.8960676E-01
         -2   -1    0    0    0  501 -0.00000000000E+00  0.00000000000E+00  0.90131074709E+03  0.90131074709E+03  0.00000000000E+00 0.  1.
          2   -1    0    0  501    0  0.00000000000E+00 -0.00000000000E+00 -0.22189872268E+04  0.22189872268E+04  0.00000000000E+00 0. -1.
         23    2    1    2    0    0  0.11970236086E+04 -0.59706186796E+03 -0.82220196112E+03  0.15727308035E+04  0.90098399105E+02 0.  0.
    5000000    2    1    2    0    0 -0.11970236086E+04  0.59706186796E+03 -0.49547451858E+03  0.15475671704E+04  0.60010062038E+03 0.  0.
         23    2    4    4    0    0 -0.44771453741E+03 -0.39417378971E+02 -0.41454041074E+02  0.46087069476E+03  0.93173617505E+02 0.  0.
         23    2    4    4    0    0 -0.74930907122E+03  0.63647924693E+03 -0.45402047750E+03  0.10866964756E+04  0.90579910584E+02 0.  0.
          5    1    3    3  502    0  0.65496109709E+03 -0.35259251207E+03 -0.50136314677E+03  0.89704103207E+03  0.47000000000E+01 0. -1.
         -5    1    3    3    0  502  0.54206251154E+03 -0.24446935589E+03 -0.32083881435E+03  0.67568977140E+03  0.47000000000E+01 0.  1.
         13    1    5    5    0    0 -0.74616589273E+01 -0.16454391070E+02  0.77871439981E-01  0.18067357399E+02  0.00000000000E+00 0.  1.
        -13    1    5    5    0    0 -0.44025287848E+03 -0.22962987901E+02 -0.41531912514E+02  0.44280333736E+03  0.00000000000E+00 0. -1.
          1    1    6    6  503    0 -0.40153402097E+03  0.31933497569E+03 -0.28306109757E+03  0.58594196099E+03  0.00000000000E+00 0. -1.
         -1    1    6    6    0  503 -0.34777505026E+03  0.31714427124E+03 -0.17095937993E+03  0.50075451465E+03  0.00000000000E+00 0.  1.
<mgrwt>
<rscale>  0 0.13905663E+04</rscale>
<asrwt>0</asrwt>
<pdfrwt beam="1">  1        2 0.34138265E+00 0.13905663E+04</pdfrwt>
<pdfrwt beam="2">  1       -2 0.13866319E+00 0.13905663E+04</pdfrwt>
<totfact> 0.17736774E+00</totfact>
</mgrwt>
</event>
<event>
12    1  0.3203156E-008  0.1390702E+04  0.7818608E-02  0.8960577E-01
         -2   -1    0    0    0  501 -0.00000000000E+00  0.00000000000E+00  0.17879396185E+04  0.17879396185E+04  0.00000000000E+00 0.  1.
          2   -1    0    0  501    0  0.00000000000E+00 -0.00000000000E+00 -0.16656994857E+04  0.16656994857E+04  0.00000000000E+00 0. -1.
         23    2    1    2    0    0 -0.95617901602E+03  0.93098122258E+03 -0.94891138955E+03  0.16402505867E+04  0.94788260788E+02 0.  0.
    5000000    2    1    2    0    0  0.95617901602E+03 -0.93098122258E+03  0.10711515223E+04  0.18133885175E+04  0.60000665331E+03 0.  0.
         23    2    4    4    0    0  0.72795983657E+03 -0.96340245671E+03  0.93475587559E+03  0.15297318505E+04  0.90780890811E+02 0.  0.
         23    2    4    4    0    0  0.22821917945E+03  0.32421234130E+02  0.13639564674E+03  0.28365666699E+03  0.93392729860E+02 0.  0.
          5    1    3    3  502    0 -0.31873990843E+03  0.36906190910E+03 -0.36692377820E+03  0.61029252903E+03  0.47000000000E+01 0. -1.
         -5    1    3    3    0  502 -0.63743910758E+03  0.56191931348E+03 -0.58198761135E+03  0.10299580576E+04  0.47000000000E+01 0.  1.
         13    1    5    5    0    0  0.37806896413E+03 -0.53067083481E+03  0.55628250435E+03  0.85673677474E+03  0.00000000000E+00 0.  1.
        -13    1    5    5    0    0  0.34989087244E+03 -0.43273162190E+03  0.37847337123E+03  0.67299507572E+03  0.00000000000E+00 0. -1.
          3    1    6    6  503    0  0.77896049259E+02  0.35368469949E+02  0.79658286146E+01  0.85919599523E+02  0.00000000000E+00 0. -1.
         -3    1    6    6    0  503  0.15032313019E+03 -0.29472358190E+01  0.12842981812E+03  0.19773706747E+03  0.00000000000E+00 0.  1.
<mgrwt>
<rscale>  0 0.13907015E+04</rscale>
<asrwt>0</asrwt>
<pdfrwt beam="1">  1        2 0.25626146E+00 0.13907015E+04</pdfrwt>
<pdfrwt beam="2">  1       -2 0.27506763E+00 0.13907015E+04</pdfrwt>
<totfact> 0.43970719E-01</totfact>
</mgrwt>
</event>
<event>
12    1  0.3203156E-008  0.1049671E+04  0.7818608E-02  0.9255683E-01
         -2   -1    0    0    0  501 -0.00000000000E+00  0.00000000000E+00  0.44787047193E+03  0.44787047193E+03  0.00000000000E+00 0.  1.
          2   -1    0    0  501    0  0.00000000000E+00 -0.00000000000E+00 -0.28239708349E+04  0.28239708349E+04  0.00000000000E+00 0. -1.
         23    2    1    2    0    0 -0.84078147793E+03 -0.58938147554E+03 -0.13670863057E+04  0.17122287589E+04  0.92294844907E+02 0.  0.
    5000000    2    1    2    0    0  0.84078147793E+03  0.58938147554E+03 -0.10090140574E+04  0.15596125480E+04  0.59999826205E+03 0.  0.
         23    2    4    4    0    0  0.48427314286E+03  0.50306298766E+03 -0.94233152855E+03  0.11762795868E+04  0.89733551241E+02 0.  0.
         23    2    4    4    0    0  0.35650833507E+03  0.86318487880E+02 -0.66682528808E+02  0.38333296114E+03  0.89154501415E+02 0.  0.
          5    1    3    3  502    0 -0.10339156818E+03 -0.11190481697E+03 -0.20301855968E+03  0.25387227104E+03  0.47000000000E+01 0. -1.
         -5    1    3    3    0  502 -0.73738990976E+03 -0.47747665858E+03 -0.11640677460E+04  0.14583564879E+04  0.47000000000E+01 0.  1.
         11    1    5    5    0    0  0.33946708314E+03  0.37311749597E+03 -0.61409583673E+03  0.79471269212E+03  0.00000000000E+00 0. -1.
        -11    1    5    5    0    0  0.14480605972E+03  0.12994549169E+03 -0.32823569182E+03  0.38156689469E+03  0.00000000000E+00 0.  1.
          2    1    6    6  503    0  0.25155679926E+03  0.81236131824E+02 -0.82837502089E+02  0.27702379703E+03  0.00000000000E+00 0. -1.
         -2    1    6    6    0  503  0.10495153581E+03  0.50823560555E+01  0.16154973281E+02  0.10630916411E+03  0.00000000000E+00 0.  1.
<mgrwt>
<rscale>  0 0.10496713E+04</rscale>
<asrwt>0</asrwt>
<pdfrwt beam="1">  1        2 0.43445706E+00 0.10496713E+04</pdfrwt>
<pdfrwt beam="2">  1       -2 0.68903148E-01 0.10496713E+04</pdfrwt>
<totfact> 0.43500721E+00</totfact>
</mgrwt>
</event>
<event>
12    1  0.3203156E-008  0.3920662E+03  0.7818608E-02  0.1046562E+00
          2   -1    0    0  501    0  0.00000000000E+00  0.00000000000E+00  0.24239616091E+04  0.24239616091E+04  0.00000000000E+00 0. -1.
         -2   -1    0    0    0  501 -0.00000000000E+00 -0.00000000000E+00 -0.18030735050E+03  0.18030735050E+03  0.00000000000E+00 0.  1.
         23    2    1    2    0    0 -0.86782567083E+02  0.26319943416E+03  0.34303164658E+02  0.29820155201E+03  0.10460546078E+03 0.  0.
    5000000    2    1    2    0    0  0.86782567083E+02 -0.26319943416E+03  0.22093510940E+04  0.23060674076E+04  0.59992455857E+03 0.  0.
         23    2    4    4    0    0 -0.19786725758E+01 -0.36079975974E+03  0.74818874765E+03  0.83629131932E+03  0.97038069280E+02 0.  0.
         23    2    4    4    0    0  0.88761239659E+02  0.97600325580E+02  0.14611623463E+04  0.14697760883E+04  0.88554876863E+02 0.  0.
          5    1    3    3  502    0 -0.72586415070E+02  0.89316151503E+02 -0.16663030513E+02  0.11638689427E+03  0.47000000000E+01 0. -1.
         -5    1    3    3    0  502 -0.14196152013E+02  0.17388328266E+03  0.50966195171E+02  0.18181465774E+03  0.47000000000E+01 0.  1.
         11    1    5    5    0    0  0.77643568027E+01 -0.30831578512E+03  0.54506535538E+03  0.62627082818E+03  0.00000000000E+00 0.  1.
        -11    1    5    5    0    0 -0.97430293785E+01 -0.52483974622E+02  0.20312339227E+03  0.21002049115E+03  0.00000000000E+00 0. -1.
          2    1    6    6  503    0  0.65674279245E+02  0.62832810261E+02  0.13040970148E+04  0.13072605314E+04  0.00000000000E+00 0. -1.
         -2    1    6    6    0  503  0.23086960414E+02  0.34767515319E+02  0.15706533154E+03  0.16251555690E+03  0.00000000000E+00 0.  1.
<mgrwt>
<rscale>  0 0.39206619E+03</rscale>
<asrwt>0</asrwt>
<pdfrwt beam="1">  1        2 0.37291715E+00 0.39206619E+03</pdfrwt>
<pdfrwt beam="2">  1       -2 0.27739594E-01 0.39206619E+03</pdfrwt>
<totfact> 0.50634252E+01</totfact>
</mgrwt>
</event>
<event>
12    1  0.3203156E-008  0.3474211E+03  0.7818608E-02  0.1063679E+00
         -1   -1    0    0    0  501 -0.00000000000E+00  0.00000000000E+00  0.73704615159E+02  0.73704615159E+02  0.00000000000E+00 0.  1.
          1   -1    0    0  501    0  0.00000000000E+00 -0.00000000000E+00 -0.24597187572E+04  0.24597187572E+04  0.00000000000E+00 0. -1.
         23    2    1    2    0    0 -0.18109162159E+03  0.77157156380E+02 -0.71597992657E+03  0.74800402808E+03  0.90196278107E+02 0.  0.
    5000000    2    1    2    0    0  0.18109162159E+03 -0.77157156380E+02 -0.16700342155E+04  0.17854193443E+04  0.59996712567E+03 0.  0.
         23    2    4    4    0    0  0.29514762187E+03  0.43972402796E+02 -0.43361491505E+03  0.53442538181E+03  0.92427827325E+02 0.  0.
         23    2    4    4    0    0 -0.11405600028E+03 -0.12112955918E+03 -0.12364193004E+04  0.12509939625E+04  0.92585454393E+02 0.  0.
          5    1    3    3  502    0 -0.33579613422E+02  0.58144012254E+02 -0.24479941763E+03  0.25388414970E+03  0.47000000000E+01 0. -1.
         -5    1    3    3    0  502 -0.14751200817E+03  0.19013144126E+02 -0.47118050894E+03  0.49411987838E+03  0.47000000000E+01 0.  1.
         11    1    5    5    0    0  0.17756540156E+03  0.71578156629E+02 -0.25742455140E+03  0.32081194491E+03  0.00000000000E+00 0. -1.
        -11    1    5    5    0    0  0.11758222032E+03 -0.27605753833E+02 -0.17619036365E+03  0.21361343689E+03  0.00000000000E+00 0.  1.
          1    1    6    6  503    0 -0.44923336068E+02 -0.43210800865E+02 -0.20341335806E+03  0.21274932120E+03  0.00000000000E+00 0. -1.
         -1    1    6    6    0  503 -0.69132664211E+02 -0.77918758311E+02 -0.10330059424E+04  0.10382446413E+04  0.00000000000E+00 0.  1.
<mgrwt>
<rscale>  0 0.34742109E+03</rscale>
<asrwt>0</asrwt>
<pdfrwt beam="1">  1        1 0.37841832E+00 0.34742109E+03</pdfrwt>
<pdfrwt beam="2">  1       -1 0.11339170E-01 0.34742109E+03</pdfrwt>
<totfact> 0.82942538E+01</totfact>
</mgrwt>
</event>
<event>
12    1  0.3203156E-008  0.4950146E+03  0.7818608E-02  0.1015088E+00
          2   -1    0    0  501    0  0.00000000000E+00  0.00000000000E+00  0.26180109665E+04  0.26180109665E+04  0.00000000000E+00 0. -1.
         -2   -1    0    0    0  501 -0.00000000000E+00 -0.00000000000E+00 -0.15044776340E+04  0.15044776340E+04  0.00000000000E+00 0.  1.
         23    2    1    2    0    0  0.40958024956E+03 -0.25550559168E+03 -0.14057287144E+04  0.14881530491E+04  0.74075576273E+02 0.  0.
    5000000    2    1    2    0    0 -0.40958024956E+03  0.25550559168E+03  0.25192620469E+04  0.26343355514E+04  0.60000287359E+03 0.  0.
         23    2    4    4    0    0 -0.19929292347E+03  0.18404747469E+03  0.22688990882E+04  0.22868418577E+04  0.90285477528E+02 0.  0.
         23    2    4    4    0    0 -0.21028732609E+03  0.71458116999E+02  0.25036295864E+03  0.34749369365E+03  0.93505262265E+02 0.  0.
          5    1    3    3  502    0  0.17464612603E+03 -0.10600420068E+03 -0.70771491161E+03  0.73662788843E+03  0.47000000000E+01 0. -1.
         -5    1    3    3    0  502  0.23493412353E+03 -0.14950139101E+03 -0.69801380276E+03  0.75152516069E+03  0.47000000000E+01 0.  1.
         11    1    5    5    0    0 -0.17166807888E+03  0.15920162886E+03  0.16143486646E+04  0.16312377812E+04  0.00000000000E+00 0. -1.
        -11    1    5    5    0    0 -0.27624844599E+02  0.24845845828E+02  0.65455042361E+03  0.65560407651E+03  0.00000000000E+00 0.  1.
          1    1    6    6  503    0 -0.72255399140E+02  0.65820157682E+02  0.13965546870E+03  0.17046051097E+03  0.00000000000E+00 0. -1.
         -1    1    6    6    0  503 -0.13803192695E+03  0.56379593164E+01  0.11070748994E+03  0.17703318269E+03  0.00000000000E+00 0.  1.
<mgrwt>
<rscale>  0 0.49501459E+03</rscale>
<asrwt>0</asrwt>
<pdfrwt beam="1">  1        2 0.40277092E+00 0.49501459E+03</pdfrwt>
<pdfrwt beam="2">  1       -2 0.23145810E+00 0.49501459E+03</pdfrwt>
<totfact> 0.28785597E-01</totfact>
</mgrwt>
</event>
<event>
12    1  0.3203156E-008  0.7248326E+03  0.7818608E-02  0.9675683E-01
          2   -1    0    0  501    0  0.00000000000E+00  0.00000000000E+00  0.88888653022E+03  0.88888653022E+03  0.00000000000E+00 0.  1.
         -2   -1    0    0    0  501 -0.00000000000E+00 -0.00000000000E+00 -0.72321354244E+03  0.72321354244E+03  0.00000000000E+00 0. -1.
         23    2    1    2    0    0  0.68364943654E+03  0.14109769089E+02  0.12655055881E+03  0.70160463714E+03  0.93050444656E+02 0.  0.
    5000000    2    1    2    0    0 -0.68364943654E+03 -0.14109769089E+02  0.39122428969E+02  0.91049543553E+03  0.59991310704E+03 0.  0.
         23    2    4    4    0    0 -0.45107136461E+03  0.14187642015E+03 -0.20807197007E+03  0.52577801542E+03  0.97746008638E+02 0.  0.
         23    2    4    4    0    0 -0.23257807193E+03 -0.15598618924E+03  0.24719439904E+03  0.38471742011E+03  0.92076987570E+02 0.  0.
          5    1    3    3  502    0  0.26068674043E+03 -0.74496117684E+00  0.32109136534E+01  0.26074994069E+03  0.47000000000E+01 0. -1.
         -5    1    3    3    0  502  0.42296269611E+03  0.14854730266E+02  0.12333964515E+03  0.44085469644E+03  0.47000000000E+01 0.  1.
         11    1    5    5    0    0 -0.38875530351E+03  0.11156571129E+03 -0.13829585079E+03  0.42743810814E+03  0.00000000000E+00 0.  1.
        -11    1    5    5    0    0 -0.62316061098E+02  0.30310708857E+02 -0.69776119277E+02  0.98339907278E+02  0.00000000000E+00 0. -1.
          4    1    6    6  503    0 -0.22855185765E+03 -0.12462231146E+03  0.20171800394E+03  0.32932783858E+03  0.00000000000E+00 0.  1.
         -4    1    6    6    0  503 -0.40262142833E+01 -0.31363877775E+02  0.45476395102E+02  0.55389581529E+02  0.00000000000E+00 0. -1.
<mgrwt>
<rscale>  0 0.72483263E+03</rscale>
<asrwt>0</asrwt>
<pdfrwt beam="1">  1        2 0.13675177E+00 0.72483263E+03</pdfrwt>
<pdfrwt beam="2">  1       -2 0.11126362E+00 0.72483263E+03</pdfrwt>
<totfact> 0.19410907E+01</totfact>
</mgrwt>
</event>
<event>
12    1  0.3203156E-008  0.1042788E+04  0.7818608E-02  0.9262821E-01
         -1   -1    0    0    0  501 -0.00000000000E+00  0.00000000000E+00  0.47836557285E+03  0.47836557285E+03  0.00000000000E+00 0. -1.
          1   -1    0    0  501    0  0.00000000000E+00 -0.00000000000E+00 -0.26263966536E+04  0.26263966536E+04  0.00000000000E+00 0.  1.
         23    2    1    2    0    0  0.99182502102E+03 -0.26487370962E+03 -0.12104538353E+04  0.15904298613E+04  0.10194950755E+03 0.  0.
    5000000    2    1    2    0    0 -0.99182502102E+03  0.26487370962E+03 -0.93757724546E+03  0.15143323651E+04  0.60023034448E+03 0.  0.
         23    2    4    4    0    0 -0.85468487148E+03  0.19485858429E+03 -0.99221278220E+03  0.13270316008E+04  0.89836334596E+02 0.  0.
         23    2    4    4    0    0 -0.13714014954E+03  0.70015125323E+02  0.54635536743E+02  0.18730076428E+03  0.91580543979E+02 0.  0.
          5    1    3    3  502    0  0.38332076520E+03 -0.15279442687E+03 -0.46907525381E+03  0.62476766054E+03  0.47000000000E+01 0. -1.
         -5    1    3    3    0  502  0.60850425582E+03 -0.11207928274E+03 -0.74137858146E+03  0.96566220078E+03  0.47000000000E+01 0.  1.
         11    1    5    5    0    0 -0.45358276393E+03  0.93296857388E+02 -0.45784985423E+03  0.65120512617E+03  0.00000000000E+00 0.  1.
        -11    1    5    5    0    0 -0.40110210755E+03  0.10156172690E+03 -0.53436292797E+03  0.67582647465E+03  0.00000000000E+00 0. -1.
          1    1    6    6  503    0 -0.47201252010E+01  0.41600962086E+02  0.17416353241E+01  0.41904091948E+02  0.00000000000E+00 0. -1.
         -1    1    6    6    0  503 -0.13242002434E+03  0.28414163237E+02  0.52893901419E+02  0.14539667233E+03  0.00000000000E+00 0.  1.
<mgrwt>
<rscale>  0 0.10427883E+04</rscale>
<asrwt>0</asrwt>
<pdfrwt beam="1">  1        1 0.40406103E+00 0.10427883E+04</pdfrwt>
<pdfrwt beam="2">  1       -1 0.73594702E-01 0.10427883E+04</pdfrwt>
<totfact> 0.20867713E+00</totfact>
</mgrwt>
</event>
<event>
12    1  0.3203156E-008  0.4958342E+03  0.7818608E-02  0.1014872E+00
          1   -1    0    0  501    0  0.00000000000E+00  0.00000000000E+00  0.17136110375E+04  0.17136110375E+04  0.00000000000E+00 0. -1.
         -1   -1    0    0    0  501 -0.00000000000E+00 -0.00000000000E+00 -0.23209698080E+03  0.23209698080E+03  0.00000000000E+00 0.  1.
         23    2    1    2    0    0  0.29104715675E+03 -0.14320738686E+03  0.25793189931E+02  0.33836535978E+03  0.92784831438E+02 0.  0.
    5000000    2    1    2    0    0 -0.29104715675E+03  0.14320738686E+03  0.14557208668E+04  0.16073426585E+04  0.59934161949E+03 0.  0.
         23    2    4    4    0    0 -0.75119183663E+02  0.33370604478E+03  0.56296727632E+03  0.66499263072E+03  0.90996860521E+02 0.  0.
         23    2    4    4    0    0 -0.21592797309E+03 -0.19049865792E+03  0.89275359043E+03  0.94235002779E+03  0.89999852285E+02 0.  0.
          5    1    3    3  502    0  0.25494764295E+03 -0.86253894598E+02  0.28692816762E+02  0.27070907394E+03  0.47000000000E+01 0. -1.
         -5    1    3    3    0  502  0.36099513804E+02 -0.56953492263E+02 -0.28996268305E+01  0.67656285840E+02  0.47000000000E+01 0.  1.
         11    1    5    5    0    0  0.11077243335E+02  0.14866304657E+03  0.25907685371E+03  0.29890503988E+03  0.00000000000E+00 0. -1.
        -11    1    5    5    0    0 -0.86196426998E+02  0.18504299821E+03  0.30389042261E+03  0.36608759084E+03  0.00000000000E+00 0.  1.
          2    1    6    6  503    0 -0.77370393750E+02 -0.12825433212E+03  0.44606375132E+03  0.47054035085E+03  0.00000000000E+00 0. -1.
         -2    1    6    6    0  503 -0.13855757934E+03 -0.62244325802E+02  0.44668983911E+03  0.47180967694E+03  0.00000000000E+00 0.  1.
<mgrwt>
<rscale>  0 0.49583424E+03</rscale>
<asrwt>0</asrwt>
<pdfrwt beam="1">  1        1 0.26363246E+00 0.49583424E+03</pdfrwt>
<pdfrwt beam="2">  1       -1 0.35707229E-01 0.49583424E+03</pdfrwt>
<totfact> 0.37453221E+01</totfact>
</mgrwt>
</event>
<event>
12    1  0.3203156E-008  0.4808764E+03  0.7818608E-02  0.1018895E+00
          1   -1    0    0  501    0  0.00000000000E+00  0.00000000000E+00  0.48032320373E+03  0.48032320373E+03  0.00000000000E+00 0. -1.
         -1   -1    0    0    0  501 -0.00000000000E+00 -0.00000000000E+00 -0.90978869783E+03  0.90978869783E+03  0.00000000000E+00 0.  1.
         23    2    1    2    0    0  0.19047652703E+03 -0.25842600846E+03  0.25867391892E+03  0.42230487241E+03  0.91454358756E+02 0.  0.
    5000000    2    1    2    0    0 -0.19047652703E+03  0.25842600846E+03 -0.68813941302E+03  0.96780702914E+03  0.60004106919E+03 0.  0.
         23    2    4    4    0    0  0.18950333935E+03  0.36441330186E+02 -0.32793065841E+03  0.39171773375E+03  0.93084800275E+02 0.  0.
         23    2    4    4    0    0 -0.37997986639E+03  0.22198467827E+03 -0.36020875462E+03  0.57608929539E+03  0.92014309290E+02 0.  0.
          5    1    3    3  502    0  0.43607195950E+02 -0.79809021208E+02  0.27112893475E+02  0.95017190010E+02  0.47000000000E+01 0. -1.
         -5    1    3    3    0  502  0.14686933108E+03 -0.17861698725E+03  0.23156102544E+03  0.32728768240E+03  0.47000000000E+01 0.  1.
         13    1    5    5    0    0  0.66364417213E+02  0.25931870435E+02 -0.48540768380E+02  0.86214290992E+02  0.00000000000E+00 0. -1.
        -13    1    5    5    0    0  0.12313892214E+03  0.10509459751E+02 -0.27938989003E+03  0.30550344276E+03  0.00000000000E+00 0.  1.
          1    1    6    6  503    0 -0.46532989990E+02  0.51752409868E+01 -0.14236172619E+02  0.48936396348E+02  0.00000000000E+00 0. -1.
         -1    1    6    6    0  503 -0.33344687640E+03  0.21680943728E+03 -0.34597258200E+03  0.52715289904E+03  0.00000000000E+00 0.  1.
<mgrwt>
<rscale>  0 0.48087640E+03</rscale>
<asrwt>0</asrwt>
<pdfrwt beam="1">  1        1 0.73895878E-01 0.48087640E+03</pdfrwt>
<pdfrwt beam="2">  1       -1 0.13996749E+00 0.48087640E+03</pdfrwt>
<totfact> 0.20886414E+01</totfact>
</mgrwt>
</event>
<event>
12    1  0.3203156E-008  0.1190751E+04  0.7818608E-02  0.9120991E-01
          2   -1    0    0  501    0  0.00000000000E+00  0.00000000000E+00  0.15004686843E+04  0.15004686843E+04  0.00000000000E+00 0. -1.
         -2   -1    0    0    0  501 -0.00000000000E+00 -0.00000000000E+00 -0.19440588800E+04  0.19440588800E+04  0.00000000000E+00 0.  1.
         23    2    1    2    0    0 -0.44470805437E+03  0.10305891957E+04  0.10097931342E+04  0.15125968274E+04  0.91584084225E+02 0.  0.
    5000000    2    1    2    0    0  0.44470805437E+03 -0.10305891957E+04 -0.14533833299E+04  0.19319307369E+04  0.60012825680E+03 0.  0.
         23    2    4    4    0    0 -0.13327874703E+03 -0.24975615036E+03 -0.32402213882E+03  0.43943038384E+03  0.89260051170E+02 0.  0.
         23    2    4    4    0    0  0.57798680140E+03 -0.78083304529E+03 -0.11293611911E+04  0.14925003530E+04  0.91277689933E+02 0.  0.
          5    1    3    3  502    0 -0.58945339848E+02  0.99913464433E+02  0.13761423305E+03  0.18004727324E+03  0.47000000000E+01 0. -1.
         -5    1    3    3    0  502 -0.38576271452E+03  0.93067573122E+03  0.87217890114E+03  0.13325495541E+04  0.47000000000E+01 0.  1.
         11    1    5    5    0    0 -0.11517109939E+03 -0.21650340578E+03 -0.22268329340E+03  0.33124908454E+03  0.00000000000E+00 0. -1.
        -11    1    5    5    0    0 -0.18107647647E+02 -0.33252744580E+02 -0.10133884542E+03  0.10818129929E+03  0.00000000000E+00 0.  1.
          3    1    6    6  503    0  0.55072038342E+03 -0.70733590374E+03 -0.10200152069E+04  0.13579573055E+04  0.00000000000E+00 0. -1.
         -3    1    6    6    0  503  0.27266417983E+02 -0.73497141545E+02 -0.10934598420E+03  0.13454304748E+03  0.00000000000E+00 0.  1.
<mgrwt>
<rscale>  0 0.11907508E+04</rscale>
<asrwt>0</asrwt>
<pdfrwt beam="1">  1        2 0.23084134E+00 0.11907508E+04</pdfrwt>
<pdfrwt beam="2">  1       -2 0.29908598E+00 0.11907508E+04</pdfrwt>
<totfact> 0.39895607E-01</totfact>
</mgrwt>
</event>
<event>
12    1  0.3203156E-008  0.2236803E+04  0.7818608E-02  0.8503264E-01
         -2   -1    0    0    0  501 -0.00000000000E+00  0.00000000000E+00  0.20237842466E+04  0.20237842466E+04  0.00000000000E+00 0.  1.
          2   -1    0    0  501    0  0.00000000000E+00 -0.00000000000E+00 -0.28644616156E+04  0.28644616156E+04  0.00000000000E+00 0. -1.
         23    2    1    2    0    0  0.19937596688E+04  0.10095453539E+04 -0.12121801835E+04  0.25446903220E+04  0.10866737967E+03 0.  0.
    5000000    2    1    2    0    0 -0.19937596688E+04 -0.10095453539E+04  0.37150281449E+03  0.23435555401E+04  0.59998232480E+03 0.  0.
         23    2    4    4    0    0 -0.82590117488E+03 -0.41680041666E+03  0.44143125274E+03  0.10290161362E+04  0.90428533384E+02 0.  0.
         23    2    4    4    0    0 -0.11678584939E+04 -0.59274493722E+03 -0.69928438246E+02  0.13145394040E+04  0.88790965997E+02 0.  0.
          5    1    3    3  502    0  0.17615245643E+04  0.86300204512E+03 -0.10353574542E+04  0.22180460925E+04  0.47000000000E+01 0. -1.
         -5    1    3    3    0  502  0.23223510455E+03  0.14654330876E+03 -0.17682272924E+03  0.32664422956E+03  0.47000000000E+01 0.  1.
         13    1    5    5    0    0 -0.57127114538E+02 -0.35395276341E+02  0.59187186730E+02  0.89551414705E+02  0.00000000000E+00 0. -1.
        -13    1    5    5    0    0 -0.76877406035E+03 -0.38140514032E+03  0.38224406601E+03  0.93946472149E+03  0.00000000000E+00 0.  1.
          1    1    6    6  503    0 -0.48523194513E+03 -0.28964941215E+03 -0.91829756021E+01  0.56518240381E+03  0.00000000000E+00 0. -1.
         -1    1    6    6    0  503 -0.68262654879E+03 -0.30309552507E+03 -0.60745462644E+02  0.74935700014E+03  0.00000000000E+00 0.  1.
<mgrwt>
<rscale>  0 0.22368028E+04</rscale>
<asrwt>0</asrwt>
<pdfrwt beam="1">  1        2 0.44068640E+00 0.22368028E+04</pdfrwt>
<pdfrwt beam="2">  1       -2 0.31135142E+00 0.22368028E+04</pdfrwt>
<totfact> 0.49391322E-02</totfact>
</mgrwt>
</event>
<event>
12    1  0.3203156E-008  0.6481315E+03  0.7818608E-02  0.9810292E-01
          3   -1    0    0  501    0  0.00000000000E+00  0.00000000000E+00  0.68770113077E+03  0.68770113077E+03  0.00000000000E+00 0. -1.
         -3   -1    0    0    0  501 -0.00000000000E+00 -0.00000000000E+00 -0.62422351148E+03  0.62422351148E+03  0.00000000000E+00 0.  1.
         23    2    1    2    0    0 -0.24014770067E+03  0.45281833250E+03  0.83558523168E+01  0.52086504383E+03  0.92277913044E+02 0.  0.
    5000000    2    1    2    0    0  0.24014770067E+03 -0.45281833250E+03  0.55121766967E+02  0.79105959842E+03  0.60001793196E+03 0.  0.
         23    2    4    4    0    0  0.56873570643E+02 -0.55112465062E+03  0.52205376434E+02  0.56397164396E+03  0.91463819667E+02 0.  0.
         23    2    4    4    0    0  0.18327413003E+03  0.98306318121E+02  0.29163905332E+01  0.22708795446E+03  0.91142168089E+02 0.  0.
          5    1    3    3  502    0 -0.86667487911E+02  0.10697137444E+03 -0.28501754289E+02  0.14067184654E+03  0.47000000000E+01 0. -1.
         -5    1    3    3    0  502 -0.15348021276E+03  0.34584695805E+03  0.36857606606E+02  0.38019319730E+03  0.47000000000E+01 0.  1.
         11    1    5    5    0    0  0.72267667881E+02 -0.39260841583E+03  0.63877737443E+02  0.40428251179E+03  0.00000000000E+00 0.  1.
        -11    1    5    5    0    0 -0.15394097238E+02 -0.15851623479E+03 -0.11672361008E+02  0.15968913217E+03  0.00000000000E+00 0. -1.
          1    1    6    6  503    0  0.84692771206E+02  0.88623297913E+02  0.26152964277E+02  0.12534325657E+03  0.00000000000E+00 0. -1.
         -1    1    6    6    0  503  0.98581358825E+02  0.96830202080E+01 -0.23236573744E+02  0.10174469788E+03  0.00000000000E+00 0.  1.
<mgrwt>
<rscale>  0 0.64813151E+03</rscale>
<asrwt>0</asrwt>
<pdfrwt beam="1">  1        3 0.10580017E+00 0.64813151E+03</pdfrwt>
<pdfrwt beam="2">  1       -3 0.96034387E-01 0.64813151E+03</pdfrwt>
<totfact> 0.19176837E+00</totfact>
</mgrwt>
</event>
<event>
12    1  0.3203156E-008  0.8891183E+03  0.7818608E-02  0.9439287E-01
         -2   -1    0    0    0  501 -0.00000000000E+00  0.00000000000E+00  0.81392044548E+03  0.81392044548E+03  0.00000000000E+00 0.  1.
          2   -1    0    0  501    0  0.00000000000E+00 -0.00000000000E+00 -0.11758402226E+04  0.11758402226E+04  0.00000000000E+00 0. -1.
         23    2    1    2    0    0  0.81602966937E+03  0.71808411448E+02 -0.50137230416E+03  0.96507998058E+03  0.94574374410E+02 0.  0.
    5000000    2    1    2    0    0 -0.81602966937E+03 -0.71808411448E+02  0.13945252700E+03  0.10246806875E+04  0.59955202851E+03 0.  0.
         23    2    4    4    0    0 -0.13817288275E+02  0.12449326047E+03 -0.64851149232E+02  0.16851670267E+03  0.92210184709E+02 0.  0.
         23    2    4    4    0    0 -0.80221238109E+03 -0.19630167192E+03  0.20430367623E+03  0.85616398487E+03  0.95904776121E+02 0.  0.
          5    1    3    3  502    0  0.69314704769E+03  0.87603940976E+02 -0.44885050512E+03  0.83043130127E+03  0.47000000000E+01 0. -1.
         -5    1    3    3    0  502  0.12288262168E+03 -0.15795529528E+02 -0.52521799042E+02  0.13464867931E+03  0.47000000000E+01 0.  1.
         11    1    5    5    0    0  0.31272716704E+01  0.62920077291E+02 -0.81028986792E+02  0.10263728686E+03  0.00000000000E+00 0.  1.
        -11    1    5    5    0    0 -0.16944559945E+02  0.61573183183E+02  0.16177837560E+02  0.65879415808E+02  0.00000000000E+00 0. -1.
          2    1    6    6  503    0 -0.45093342121E+03 -0.75270148432E+02  0.14701096385E+03  0.48022783041E+03  0.00000000000E+00 0. -1.
         -2    1    6    6    0  503 -0.35127895988E+03 -0.12103152349E+03  0.57292712380E+02  0.37593615445E+03  0.00000000000E+00 0.  1.
<mgrwt>
<rscale>  0 0.88911834E+03</rscale>
<asrwt>0</asrwt>
<pdfrwt beam="1">  1        2 0.18089849E+00 0.88911834E+03</pdfrwt>
<pdfrwt beam="2">  1       -2 0.12521853E+00 0.88911834E+03</pdfrwt>
<totfact> 0.93805199E+00</totfact>
</mgrwt>
</event>
<event>
12    1  0.3203156E-008  0.8622304E+03  0.7818608E-02  0.9474067E-01
          2   -1    0    0  501    0  0.00000000000E+00  0.00000000000E+00  0.16341504127E+04  0.16341504127E+04  0.00000000000E+00 0. -1.
         -2   -1    0    0    0  501 -0.00000000000E+00 -0.00000000000E+00 -0.59136555358E+03  0.59136555358E+03  0.00000000000E+00 0.  1.
         23    2    1    2    0    0  0.64679153244E+03 -0.42144120951E+03  0.97222816131E+03  0.12452593245E+04  0.97422831149E+02 0.  0.
    5000000    2    1    2    0    0 -0.64679153244E+03  0.42144120951E+03  0.70556697789E+02  0.98025664179E+03  0.59997738013E+03 0.  0.
         23    2    4    4    0    0 -0.61598060867E+03  0.11241839507E+03  0.14478626269E+03  0.64865387693E+03  0.87856612680E+02 0.  0.
         23    2    4    4    0    0 -0.30810923767E+02  0.30902281444E+03 -0.74229564898E+02  0.33160276486E+03  0.89475988328E+02 0.  0.
          5    1    3    3  502    0  0.42661960937E+03 -0.23016842826E+03  0.64563019786E+03  0.80736747448E+03  0.47000000000E+01 0. -1.
         -5    1    3    3    0  502  0.22017192307E+03 -0.19127278125E+03  0.32659796345E+03  0.43789184999E+03  0.47000000000E+01 0.  1.
         13    1    5    5    0    0 -0.42551206606E+03  0.10913358113E+03  0.12729233527E+03  0.45735543674E+03  0.00000000000E+00 0. -1.
        -13    1    5    5    0    0 -0.19046854260E+03  0.32848139425E+01  0.17493927419E+02  0.19129844019E+03  0.00000000000E+00 0.  1.
          3    1    6    6  503    0 -0.52107397668E+02  0.25239477501E+03 -0.82362254124E+02  0.27055839342E+03  0.00000000000E+00 0. -1.
         -3    1    6    6    0  503  0.21296473901E+02  0.56628039430E+02  0.81326892257E+01  0.61044371439E+02  0.00000000000E+00 0.  1.
<mgrwt>
<rscale>  0 0.86223039E+03</rscale>
<asrwt>0</asrwt>
<pdfrwt beam="1">  1        2 0.25140775E+00 0.86223039E+03</pdfrwt>
<pdfrwt beam="2">  1       -2 0.90979316E-01 0.86223039E+03</pdfrwt>
<totfact> 0.11136746E+01</totfact>
</mgrwt>
</event>
<event>
12    1  0.3203156E-008  0.1151951E+04  0.7818608E-02  0.9155985E-01
         -1   -1    0    0    0  501 -0.00000000000E+00  0.00000000000E+00  0.79583637026E+03  0.79583637026E+03  0.00000000000E+00 0.  1.
          1   -1    0    0  501    0  0.00000000000E+00 -0.00000000000E+00 -0.19904856917E+04  0.19904856917E+04  0.00000000000E+00 0. -1.
         23    2    1    2    0    0  0.10792270012E+04  0.57207544858E+02 -0.11022814646E+04  0.15467358695E+04  0.96766727161E+02 0.  0.
    5000000    2    1    2    0    0 -0.10792270012E+04 -0.57207544858E+02 -0.92367856821E+02  0.12395861925E+04  0.60003206943E+03 0.  0.
         23    2    4    4    0    0 -0.14045765982E+03 -0.21617349498E+03  0.34212465444E+02  0.27512997478E+03  0.89814676399E+02 0.  0.
         23    2    4    4    0    0 -0.93876934135E+03  0.15896595012E+03 -0.12658032226E+03  0.96445621769E+03  0.87150262765E+02 0.  0.
          5    1    3    3  502    0  0.79537707276E+03  0.36943555108E+02 -0.87000158651E+03  0.11793703255E+04  0.47000000000E+01 0. -1.
         -5    1    3    3    0  502  0.28384992840E+03  0.20263989749E+02 -0.23227987810E+03  0.36736554398E+03  0.47000000000E+01 0.  1.
         13    1    5    5    0    0  0.87809315428E+01 -0.74809174902E+01  0.13462762717E+02  0.17728927357E+02  0.00000000000E+00 0. -1.
        -13    1    5    5    0    0 -0.14923859136E+03 -0.20869257749E+03  0.20749702727E+02  0.25740104742E+03  0.00000000000E+00 0.  1.
          1    1    6    6  503    0 -0.51845848752E+03  0.12466337927E+03 -0.46979854839E+02  0.53530110048E+03  0.00000000000E+00 0. -1.
         -1    1    6    6    0  503 -0.42031085382E+03  0.34302570848E+02 -0.79600467426E+02  0.42915511721E+03  0.00000000000E+00 0.  1.
<mgrwt>
<rscale>  0 0.11519512E+04</rscale>
<asrwt>0</asrwt>
<pdfrwt beam="1">  1        1 0.30622857E+00 0.11519512E+04</pdfrwt>
<pdfrwt beam="2">  1       -1 0.12243636E+00 0.11519512E+04</pdfrwt>
<totfact> 0.17646829E+00</totfact>
</mgrwt>
</event>
<event>
12    1  0.3203156E-008  0.6415586E+03  0.7818608E-02  0.9822749E-01
         -1   -1    0    0    0  501 -0.00000000000E+00  0.00000000000E+00  0.47390679466E+03  0.47390679466E+03  0.00000000000E+00 0.  1.
          1   -1    0    0  501    0  0.00000000000E+00 -0.00000000000E+00 -0.88309609782E+03  0.88309609782E+03  0.00000000000E+00 0. -1.
         23    2    1    2    0    0 -0.47019450957E+03 -0.17558104664E+03 -0.19235071815E+03  0.54518321486E+03  0.91183102726E+02 0.  0.
    5000000    2    1    2    0    0  0.47019450957E+03  0.17558104664E+03 -0.21683858501E+03  0.81181967762E+03  0.60010052179E+03 0.  0.
         23    2    4    4    0    0  0.25643755549E+03  0.38322437347E+03 -0.13818456362E+03  0.48985897095E+03  0.90805823086E+02 0.  0.
         23    2    4    4    0    0  0.21375695408E+03 -0.20764332682E+03 -0.78654021389E+02  0.32196070667E+03  0.93083054149E+02 0.  0.
          5    1    3    3  502    0 -0.17320436357E+03 -0.11123603416E+03 -0.86961171723E+02  0.22351183915E+03  0.47000000000E+01 0. -1.
         -5    1    3    3    0  502 -0.29699014600E+03 -0.64345012488E+02 -0.10538954642E+03  0.32167137570E+03  0.47000000000E+01 0.  1.
         11    1    5    5    0    0  0.73430237878E+02  0.78945284289E+02 -0.69293545737E+02  0.12816377502E+03  0.00000000000E+00 0. -1.
        -11    1    5    5    0    0  0.18300731761E+03  0.30427908918E+03 -0.68891017888E+02  0.36169519593E+03  0.00000000000E+00 0.  1.
          1    1    6    6  503    0  0.17849585524E+03 -0.11772066612E+03 -0.69992434844E+02  0.22498414723E+03  0.00000000000E+00 0. -1.
         -1    1    6    6    0  503  0.35261098835E+02 -0.89922660709E+02 -0.86615865453E+01  0.96976559443E+02  0.00000000000E+00 0.  1.
<mgrwt>
<rscale>  0 0.64155856E+03</rscale>
<asrwt>0</asrwt>
<pdfrwt beam="1">  1        1 0.13586094E+00 0.64155856E+03</pdfrwt>
<pdfrwt beam="2">  1       -1 0.72908739E-01 0.64155856E+03</pdfrwt>
<totfact> 0.36975758E+01</totfact>
</mgrwt>
</event>
<event>
12    1  0.3203156E-008  0.9617959E+03  0.7818608E-02  0.9351468E-01
          2   -1    0    0  501    0  0.00000000000E+00  0.00000000000E+00  0.35170956424E+04  0.35170956424E+04  0.00000000000E+00 0. -1.
         -2   -1    0    0    0  501 -0.00000000000E+00 -0.00000000000E+00 -0.27626238639E+03  0.27626238639E+03  0.00000000000E+00 0.  1.
         23    2    1    2    0    0 -0.78827202440E+03 -0.38005766428E+03  0.18051906602E+04  0.20081618989E+04  0.90467010534E+02 0.  0.
    5000000    2    1    2    0    0  0.78827202440E+03  0.38005766428E+03  0.14356425959E+04  0.17851961299E+04  0.60003245462E+03 0.  0.
         23    2    4    4    0    0  0.61290739228E+03 -0.16117762798E+01  0.70882861398E+03  0.94081742378E+03  0.83912761581E+02 0.  0.
         23    2    4    4    0    0  0.17536463212E+03  0.38166944056E+03  0.72681398188E+03  0.84437870614E+03  0.91063269616E+02 0.  0.
          5    1    3    3  502    0 -0.71399556117E+03 -0.33844081099E+03  0.15625832531E+04  0.17510055274E+04  0.47000000000E+01 0. -1.
         -5    1    3    3    0  502 -0.74276463233E+02 -0.41616853287E+02  0.24260740705E+03  0.25715637154E+03  0.47000000000E+01 0.  1.
         13    1    5    5    0    0  0.56139299624E+03 -0.25100731443E+02  0.64756069701E+03  0.85739547425E+03  0.00000000000E+00 0. -1.
        -13    1    5    5    0    0  0.51514396036E+02  0.23488955163E+02  0.61267916973E+02  0.83421949533E+02  0.00000000000E+00 0.  1.
          2    1    6    6  503    0  0.16590026370E+02  0.13646124310E+03  0.22077154875E+03  0.26007109909E+03  0.00000000000E+00 0. -1.
         -2    1    6    6    0  503  0.15877460575E+03  0.24520819746E+03  0.50604243313E+03  0.58430760706E+03  0.00000000000E+00 0.  1.
<mgrwt>
<rscale>  0 0.96179590E+03</rscale>
<asrwt>0</asrwt>
<pdfrwt beam="1">  1        2 0.54109161E+00 0.96179590E+03</pdfrwt>
<pdfrwt beam="2">  1       -2 0.42501908E-01 0.96179590E+03</pdfrwt>
<totfact> 0.43322751E+00</totfact>
</mgrwt>
</event>
<event>
12    1  0.3785765E-008  0.1008275E+04  0.7818608E-02  0.9299516E-01
         -2   -1    0    0    0  501 -0.00000000000E+00  0.00000000000E+00  0.88133710307E+03  0.88133710307E+03  0.00000000000E+00 0.  1.
          2   -1    0    0  501    0  0.00000000000E+00 -0.00000000000E+00 -0.13058404550E+04  0.13058404550E+04  0.00000000000E+00 0. -1.
         23    2    1    2    0    0 -0.31538848595E+03 -0.93485578612E+03 -0.20652677953E+03  0.10120349107E+04  0.90200398159E+02 0.  0.
    5000000    2    1    2    0    0  0.31538848595E+03  0.93485578612E+03 -0.21797657242E+03  0.11751426474E+04  0.60001768120E+03 0.  0.
         23    2    4    4    0    0  0.34477563807E+03  0.71652773737E+03  0.70883005420E+02  0.80243192390E+03  0.81180989155E+02 0.  0.
         23    2    4    4    0    0 -0.29387152117E+02  0.21832804875E+03 -0.28885957784E+03  0.37271072353E+03  0.83322782847E+02 0.  0.
          5    1    3    3  502    0 -0.11862159523E+03 -0.48862008324E+03 -0.94972762119E+02  0.51172510603E+03  0.47000000000E+01 0. -1.
         -5    1    3    3    0  502 -0.19676689073E+03 -0.44623570288E+03 -0.11155401741E+03  0.50030980463E+03  0.47000000000E+01 0.  1.
         13    1    5    5    0    0  0.13440681248E+03  0.24853879536E+03 -0.11375654035E+02  0.28278283107E+03  0.00000000000E+00 0.  1.
        -13    1    5    5    0    0  0.21036882559E+03  0.46798894201E+03  0.82258659455E+02  0.51964909283E+03  0.00000000000E+00 0. -1.
          2    1    6    6  503    0  0.18522686461E+02  0.11464569121E+03 -0.18444335464E+03  0.21795888488E+03  0.00000000000E+00 0. -1.
         -2    1    6    6    0  503 -0.47909838578E+02  0.10368235754E+03 -0.10441622320E+03  0.15475183865E+03  0.00000000000E+00 0.  1.
<mgrwt>
<rscale>  0 0.10082746E+04</rscale>
<asrwt>0</asrwt>
<pdfrwt beam="1">  1        2 0.20089853E+00 0.10082746E+04</pdfrwt>
<pdfrwt beam="2">  1       -2 0.13559032E+00 0.10082746E+04</pdfrwt>
<totfact> 0.63434591E+00</totfact>
</mgrwt>
</event>
<event>
12    1  0.3203156E-008  0.6471575E+03  0.7818608E-02  0.9812128E-01
         -1   -1    0    0    0  501 -0.00000000000E+00  0.00000000000E+00  0.41602873744E+03  0.41602873744E+03  0.00000000000E+00 0.  1.
          1   -1    0    0  501    0  0.00000000000E+00 -0.00000000000E+00 -0.23607773556E+04  0.23607773556E+04  0.00000000000E+00 0. -1.
         23    2    1    2    0    0  0.31356510099E+03  0.44691525362E+03  0.10733018184E+03  0.57019924006E+03  0.12470400536E+03 0.  0.
    5000000    2    1    2    0    0 -0.31356510099E+03 -0.44691525362E+03 -0.20520788000E+04  0.22066068530E+04  0.60002507090E+03 0.  0.
         23    2    4    4    0    0  0.38329523949E+02  0.80797763645E+02 -0.68412741829E+03  0.69593511186E+03  0.91092943987E+02 0.  0.
         23    2    4    4    0    0 -0.35189462494E+03 -0.52771301726E+03 -0.13679513817E+04  0.15106717411E+04  0.92343224110E+02 0.  0.
          5    1    3    3  502    0  0.16647825351E+03  0.33632192630E+03  0.59345201835E+02  0.37996235338E+03  0.47000000000E+01 0. -1.
         -5    1    3    3    0  502  0.14708684748E+03  0.11059332732E+03  0.47984980007E+02  0.19023688668E+03  0.47000000000E+01 0.  1.
         11    1    5    5    0    0 -0.48031727682E+01  0.17105162597E+02 -0.43127318981E+03  0.43163899419E+03  0.00000000000E+00 0.  1.
        -11    1    5    5    0    0  0.43132696717E+02  0.63692601048E+02 -0.25285422848E+03  0.26429611767E+03  0.00000000000E+00 0. -1.
          1    1    6    6  503    0 -0.27412736286E+03 -0.33788448715E+03 -0.89553055188E+03  0.99563382178E+03  0.00000000000E+00 0. -1.
         -1    1    6    6    0  503 -0.77767262074E+02 -0.18982853011E+03 -0.47242082983E+03  0.51503791934E+03  0.00000000000E+00 0.  1.
<mgrwt>
<rscale>  0 0.64715749E+03</rscale>
<asrwt>0</asrwt>
<pdfrwt beam="1">  1        1 0.36319652E+00 0.64715749E+03</pdfrwt>
<pdfrwt beam="2">  1       -1 0.64004420E-01 0.64715749E+03</pdfrwt>
<totfact> 0.45144349E+00</totfact>
</mgrwt>
</event>
<event>
12    1  0.3203156E-008  0.7327835E+03  0.7818608E-02  0.9662754E-01
         -1   -1    0    0    0  501 -0.00000000000E+00  0.00000000000E+00  0.38745680966E+03  0.38745680966E+03  0.00000000000E+00 0.  1.
          1   -1    0    0  501    0  0.00000000000E+00 -0.00000000000E+00 -0.18157175569E+04  0.18157175569E+04  0.00000000000E+00 0. -1.
         23    2    1    2    0    0 -0.55817380547E+03  0.37535148041E+03 -0.99344284007E+03  0.12022786637E+04  0.78093390744E+02 0.  0.
    5000000    2    1    2    0    0  0.55817380547E+03 -0.37535148041E+03 -0.43481790720E+03  0.10008957029E+04  0.60023234227E+03 0.  0.
         23    2    4    4    0    0  0.39830647802E+03 -0.43939532649E+03 -0.51500753689E+03  0.79052096300E+03  0.89299084629E+02 0.  0.
         23    2    4    4    0    0  0.15986732745E+03  0.64043846080E+02  0.80189629695E+02  0.21037473990E+03  0.90376865789E+02 0.  0.
          5    1    3    3  502    0 -0.11256113743E+03  0.52926858482E+02 -0.22702706369E+03  0.25891048580E+03  0.47000000000E+01 0. -1.
         -5    1    3    3    0  502 -0.44561266804E+03  0.32242462193E+03 -0.76641577638E+03  0.94336817788E+03  0.47000000000E+01 0.  1.
         13    1    5    5    0    0  0.27189860021E+03 -0.35608830717E+03 -0.39611221324E+03  0.59802392659E+03  0.00000000000E+00 0.  1.
        -13    1    5    5    0    0  0.12640787781E+03 -0.83307019326E+02 -0.11889532365E+03  0.19249703641E+03  0.00000000000E+00 0. -1.
          3    1    6    6  503    0  0.30372412726E+02  0.53738685063E+02  0.43078536907E+02  0.75273435349E+02  0.00000000000E+00 0. -1.
         -3    1    6    6    0  503  0.12949491473E+03  0.10305161016E+02  0.37111092787E+02  0.13510130455E+03  0.00000000000E+00 0.  1.
<mgrwt>
<rscale>  0 0.73278351E+03</rscale>
<asrwt>0</asrwt>
<pdfrwt beam="1">  1        1 0.27934116E+00 0.73278351E+03</pdfrwt>
<pdfrwt beam="2">  1       -1 0.59608740E-01 0.73278351E+03</pdfrwt>
<totfact> 0.11849554E+01</totfact>
</mgrwt>
</event>
<event>
12    1  0.3203156E-008  0.7154971E+03  0.7818608E-02  0.9691091E-01
         -2   -1    0    0    0  501 -0.00000000000E+00  0.00000000000E+00  0.40946167473E+03  0.40946167473E+03  0.00000000000E+00 0.  1.
          2   -1    0    0  501    0  0.00000000000E+00 -0.00000000000E+00 -0.16209153540E+04  0.16209153540E+04  0.00000000000E+00 0. -1.
         23    2    1    2    0    0 -0.39722980826E+03  0.57330788372E+03 -0.43744211527E+03  0.82831578696E+03  0.90983452391E+02 0.  0.
    5000000    2    1    2    0    0  0.39722980826E+03 -0.57330788372E+03 -0.77401156399E+03  0.12020612418E+04  0.59948634484E+03 0.  0.
         23    2    4    4    0    0  0.13043932898E+03 -0.34758989109E+03 -0.74813262331E+03  0.84016616594E+03  0.91343381826E+02 0.  0.
         23    2    4    4    0    0  0.26679047928E+03 -0.22571799263E+03 -0.25878940684E+02  0.36189507582E+03  0.90402180831E+02 0.  0.
          5    1    3    3  502    0 -0.15458108507E+03  0.18326452426E+03 -0.19379381499E+03  0.30831693181E+03  0.47000000000E+01 0. -1.
         -5    1    3    3    0  502 -0.24264872319E+03  0.39004335946E+03 -0.24364830028E+03  0.51999885515E+03  0.47000000000E+01 0.  1.
         11    1    5    5    0    0  0.94012421246E+02 -0.12350151424E+03 -0.31268473293E+03  0.34908838649E+03  0.00000000000E+00 0.  1.
        -11    1    5    5    0    0  0.36426907734E+02 -0.22408837685E+03 -0.43544789038E+03  0.49107777946E+03  0.00000000000E+00 0. -1.
          2    1    6    6  503    0  0.84258604961E+02 -0.66144760843E+02 -0.50066589318E+02  0.11824256959E+03  0.00000000000E+00 0. -1.
         -2    1    6    6    0  503  0.18253187432E+03 -0.15957323179E+03  0.24187648634E+02  0.24365250623E+03  0.00000000000E+00 0.  1.
<mgrwt>
<rscale>  0 0.71549714E+03</rscale>
<asrwt>0</asrwt>
<pdfrwt beam="1">  1        2 0.24937159E+00 0.71549714E+03</pdfrwt>
<pdfrwt beam="2">  1       -2 0.62994105E-01 0.71549714E+03</pdfrwt>
<totfact> 0.26110276E+01</totfact>
</mgrwt>
</event>
<event>
12    1  0.3203156E-008  0.3950013E+03  0.7818608E-02  0.1045524E+00
         -2   -1    0    0    0  501 -0.00000000000E+00  0.00000000000E+00  0.20528940747E+03  0.20528940747E+03  0.00000000000E+00 0.  1.
          2   -1    0    0  501    0  0.00000000000E+00 -0.00000000000E+00 -0.14638150165E+04  0.14638150165E+04  0.00000000000E+00 0. -1.
         23    2    1    2    0    0 -0.86098650690E+02  0.35669366132E+03 -0.57453479082E+03  0.68811708182E+03  0.93656536084E+02 0.  0.
    5000000    2    1    2    0    0  0.86098650690E+02 -0.35669366132E+03 -0.68399081818E+03  0.98098734213E+03  0.59987447052E+03 0.  0.
         23    2    4    4    0    0  0.12580737792E+03 -0.29511839162E+03 -0.76808381310E+03  0.83724768361E+03  0.90047644894E+02 0.  0.
         23    2    4    4    0    0 -0.39708727226E+02 -0.61575269709E+02  0.84092994919E+02  0.14373965852E+03  0.90670616961E+02 0.  0.
          5    1    3    3  502    0  0.15563495462E+02  0.21560904396E+02 -0.27320171895E+02  0.38413237064E+02  0.47000000000E+01 0. -1.
         -5    1    3    3    0  502 -0.10166214615E+03  0.33513275693E+03 -0.54721461892E+03  0.64970384475E+03  0.47000000000E+01 0.  1.
         13    1    5    5    0    0  0.12779082782E+03 -0.26828729017E+03 -0.63002436988E+03  0.69659118024E+03  0.00000000000E+00 0. -1.
        -13    1    5    5    0    0 -0.19834499008E+01 -0.26831101448E+02 -0.13805944322E+03  0.14065650337E+03  0.00000000000E+00 0.  1.
          2    1    6    6  503    0 -0.11048951650E+02  0.78637732561E+01  0.64768271889E+02  0.66172859284E+02  0.00000000000E+00 0. -1.
         -2    1    6    6    0  503 -0.28659775575E+02 -0.69439042965E+02  0.19324723030E+02  0.77566799238E+02  0.00000000000E+00 0.  1.
<mgrwt>
<rscale>  0 0.39500125E+03</rscale>
<asrwt>0</asrwt>
<pdfrwt beam="1">  1        2 0.22520231E+00 0.39500125E+03</pdfrwt>
<pdfrwt beam="2">  1       -2 0.31582985E-01 0.39500125E+03</pdfrwt>
<totfact> 0.13112697E+02</totfact>
</mgrwt>
</event>
<event>
12    1  0.3203156E-008  0.8913221E+03  0.7818608E-02  0.9436495E-01
         -1   -1    0    0    0  501 -0.00000000000E+00  0.00000000000E+00  0.16789588605E+03  0.16789588605E+03  0.00000000000E+00 0.  1.
          1   -1    0    0  501    0  0.00000000000E+00 -0.00000000000E+00 -0.49098865223E+04  0.49098865223E+04  0.00000000000E+00 0. -1.
         23    2    1    2    0    0 -0.20536123663E+03  0.76597314788E+03 -0.25216197319E+04  0.26449070119E+04  0.89882858655E+02 0.  0.
    5000000    2    1    2    0    0  0.20536123663E+03 -0.76597314788E+03 -0.22203709043E+04  0.24328753965E+04  0.59995636605E+03 0.  0.
         23    2    4    4    0    0 -0.17851703194E+03 -0.11937021837E+03 -0.61165966428E+03  0.65437363732E+03  0.89217333444E+02 0.  0.
         23    2    4    4    0    0  0.38387826857E+03 -0.64660292951E+03 -0.16087112401E+04  0.17785017592E+04  0.98279091882E+02 0.  0.
          5    1    3    3  502    0 -0.87489034945E+02  0.49163432974E+03 -0.15581276207E+04  0.16361975485E+04  0.47000000000E+01 0. -1.
         -5    1    3    3    0  502 -0.11787220169E+03  0.27433881814E+03 -0.96349211126E+03  0.10087094634E+04  0.47000000000E+01 0.  1.
         11    1    5    5    0    0 -0.52094216958E+02  0.10006319741E+01 -0.86701807528E+02  0.10115340891E+03  0.00000000000E+00 0.  1.
        -11    1    5    5    0    0 -0.12642281498E+03 -0.12037085034E+03 -0.52495785675E+03  0.55322022841E+03  0.00000000000E+00 0. -1.
          2    1    6    6  503    0  0.19987574412E+03 -0.24474426278E+03 -0.69901037690E+03  0.76711509845E+03  0.00000000000E+00 0. -1.
         -2    1    6    6    0  503  0.18400252444E+03 -0.40185866673E+03 -0.90970086317E+03  0.10113866607E+04  0.00000000000E+00 0.  1.
<mgrwt>
<rscale>  0 0.89132213E+03</rscale>
<asrwt>0</asrwt>
<pdfrwt beam="1">  1        1 0.75536708E+00 0.89132213E+03</pdfrwt>
<pdfrwt beam="2">  1       -1 0.25830139E-01 0.89132213E+03</pdfrwt>
<totfact> 0.16571512E-01</totfact>
</mgrwt>
</event>
<event>
12    1  0.3203156E-008  0.9937144E+03  0.7818608E-02  0.9315466E-01
         -2   -1    0    0    0  501 -0.00000000000E+00  0.00000000000E+00  0.19942557574E+04  0.19942557574E+04  0.00000000000E+00 0.  1.
          2   -1    0    0  501    0  0.00000000000E+00 -0.00000000000E+00 -0.65670095240E+03  0.65670095240E+03  0.00000000000E+00 0. -1.
         23    2    1    2    0    0 -0.87151678666E+03 -0.28242950782E+03 -0.11780831116E+01  0.92065211378E+03  0.91054875851E+02 0.  0.
    5000000    2    1    2    0    0  0.87151678666E+03  0.28242950782E+03  0.13387328881E+04  0.17303045960E+04  0.60203015948E+03 0.  0.
         23    2    4    4    0    0  0.48214905504E+03 -0.12801102799E+03  0.77477923407E+03  0.92610432095E+03  0.92367836245E+02 0.  0.
         23    2    4    4    0    0  0.38936773162E+03  0.41044053581E+03  0.56395365402E+03  0.80420027503E+03  0.92874617756E+02 0.  0.
          5    1    3    3  502    0 -0.31991232516E+03 -0.59125612853E+02 -0.90867408039E+01  0.32549100256E+03  0.47000000000E+01 0. -1.
         -5    1    3    3    0  502 -0.55160446150E+03 -0.22330389497E+03  0.79086576923E+01  0.59516111123E+03  0.47000000000E+01 0.  1.
         11    1    5    5    0    0  0.30878082302E+03 -0.58673843176E+02  0.55404971050E+03  0.63699238476E+03  0.00000000000E+00 0.  1.
        -11    1    5    5    0    0  0.17336823202E+03 -0.69337184814E+02  0.22072952357E+03  0.28911193619E+03  0.00000000000E+00 0. -1.
          1    1    6    6  503    0  0.71470473948E+02  0.83647138937E+02  0.16536633898E+03  0.19862250267E+03  0.00000000000E+00 0. -1.
         -1    1    6    6    0  503  0.31789725767E+03  0.32679339687E+03  0.39858731504E+03  0.60557777236E+03  0.00000000000E+00 0.  1.
<mgrwt>
<rscale>  0 0.99371443E+03</rscale>
<asrwt>0</asrwt>
<pdfrwt beam="1">  1        2 0.10103092E+00 0.99371443E+03</pdfrwt>
<pdfrwt beam="2">  1       -2 0.30680858E+00 0.99371443E+03</pdfrwt>
<totfact> 0.12911445E+00</totfact>
</mgrwt>
</event>
<event>
12    1  0.3203156E-008  0.3993500E+03  0.7818608E-02  0.1044005E+00
          1   -1    0    0  501    0  0.00000000000E+00  0.00000000000E+00  0.55222011750E+03  0.55222011750E+03  0.00000000000E+00 0. -1.
         -1   -1    0    0    0  501 -0.00000000000E+00 -0.00000000000E+00 -0.60095574803E+03  0.60095574803E+03  0.00000000000E+00 0.  1.
         23    2    1    2    0    0  0.31504326406E+03  0.74015778708E+02  0.23968370605E+03  0.41307247868E+03  0.91923881400E+02 0.  0.
    5000000    2    1    2    0    0 -0.31504326406E+03 -0.74015778708E+02 -0.28841933658E+03  0.74010338685E+03  0.59986391439E+03 0.  0.
         23    2    4    4    0    0 -0.76805025946E+02  0.10355487760E+03  0.14030679783E+03  0.21094958700E+03  0.90504729449E+02 0.  0.
         23    2    4    4    0    0 -0.23823823812E+03 -0.17757065630E+03 -0.42872613441E+03  0.52915379985E+03  0.88931712499E+02 0.  0.
          5    1    3    3  502    0  0.41352651083E+02 -0.20989503384E+02  0.30510127574E+02  0.55709594223E+02  0.47000000000E+01 0. -1.
         -5    1    3    3    0  502  0.27369061298E+03  0.95005282091E+02  0.20917357847E+03  0.35736288446E+03  0.47000000000E+01 0.  1.
         11    1    5    5    0    0  0.10220282386E+02  0.57457335571E+02  0.42867395451E+02  0.72411416059E+02  0.00000000000E+00 0. -1.
        -11    1    5    5    0    0 -0.87025308332E+02  0.46097542026E+02  0.97439402378E+02  0.13853817094E+03  0.00000000000E+00 0.  1.
          2    1    6    6  503    0 -0.41717829765E+01 -0.26697030036E+02 -0.69924416381E+02  0.74963719172E+02  0.00000000000E+00 0. -1.
         -2    1    6    6    0  503 -0.23406645514E+03 -0.15087362627E+03 -0.35880171803E+03  0.45419008068E+03  0.00000000000E+00 0.  1.
<mgrwt>
<rscale>  0 0.39934999E+03</rscale>
<asrwt>0</asrwt>
<pdfrwt beam="1">  1        1 0.84956942E-01 0.39934999E+03</pdfrwt>
<pdfrwt beam="2">  1       -1 0.92454730E-01 0.39934999E+03</pdfrwt>
<totfact> 0.46774503E+01</totfact>
</mgrwt>
</event>
<event>
12    1  0.3203156E-008  0.8471519E+03  0.7818608E-02  0.9494168E-01
          1   -1    0    0  501    0  0.00000000000E+00  0.00000000000E+00  0.28310719582E+04  0.28310719582E+04  0.00000000000E+00 0. -1.
         -1   -1    0    0    0  501 -0.00000000000E+00 -0.00000000000E+00 -0.31573198558E+03  0.31573198558E+03  0.00000000000E+00 0.  1.
         23    2    1    2    0    0 -0.27750595058E+03 -0.78970647296E+03  0.91301429716E+03  0.12420405417E+04  0.91780903677E+02 0.  0.
    5000000    2    1    2    0    0  0.27750595058E+03  0.78970647296E+03  0.16023256754E+04  0.19047634021E+04  0.60002515096E+03 0.  0.
         23    2    4    4    0    0  0.86528352255E+02  0.36376857489E+03  0.22251187606E+03  0.44539788783E+03  0.95147315647E+02 0.  0.
         23    2    4    4    0    0  0.19097759832E+03  0.42593789807E+03  0.13798137994E+04  0.14593655143E+04  0.89252715501E+02 0.  0.
          5    1    3    3  502    0 -0.11244463009E+03 -0.45450847472E+03  0.51992914868E+03  0.69969290268E+03  0.47000000000E+01 0. -1.
         -5    1    3    3    0  502 -0.16506132049E+03 -0.33519799824E+03  0.39308514848E+03  0.54234763897E+03  0.47000000000E+01 0.  1.
         11    1    5    5    0    0  0.68519916196E+01  0.22854795496E+03  0.12429335296E+03  0.26024979365E+03  0.00000000000E+00 0.  1.
        -11    1    5    5    0    0  0.79676360635E+02  0.13522061993E+03  0.98218523103E+02  0.18514809418E+03  0.00000000000E+00 0. -1.
          1    1    6    6  503    0  0.75422192013E+02  0.16418039381E+03  0.40601884521E+03  0.44440410824E+03  0.00000000000E+00 0. -1.
         -1    1    6    6    0  503  0.11555540631E+03  0.26175750426E+03  0.97379495416E+03  0.10149614060E+04  0.00000000000E+00 0.  1.
<mgrwt>
<rscale>  0 0.84715187E+03</rscale>
<asrwt>0</asrwt>
<pdfrwt beam="1">  1        1 0.43554951E+00 0.84715187E+03</pdfrwt>
<pdfrwt beam="2">  1       -1 0.48574154E-01 0.84715187E+03</pdfrwt>
<totfact> 0.35216716E+00</totfact>
</mgrwt>
</event>
<event>
12    1  0.3203156E-008  0.1531550E+04  0.7818608E-02  0.8863739E-01
          2   -1    0    0  501    0  0.00000000000E+00  0.00000000000E+00  0.31674378624E+04  0.31674378624E+04  0.00000000000E+00 0. -1.
         -2   -1    0    0    0  501 -0.00000000000E+00 -0.00000000000E+00 -0.10160907488E+04  0.10160907488E+04  0.00000000000E+00 0.  1.
         23    2    1    2    0    0 -0.83898557153E+03  0.12450142220E+04  0.14889031577E+02  0.15042496642E+04  0.92672362848E+02 0.  0.
    5000000    2    1    2    0    0  0.83898557153E+03 -0.12450142220E+04  0.21364580820E+04  0.26792789470E+04  0.60010443886E+03 0.  0.
         23    2    4    4    0    0  0.74516894360E+03 -0.12269450279E+04  0.20808433106E+04  0.25295357366E+04  0.89282157284E+02 0.  0.
         23    2    4    4    0    0  0.93816627927E+02 -0.18069194104E+02  0.55614771426E+02  0.14974321041E+03  0.10100480588E+03 0.  0.
          5    1    3    3  502    0 -0.34385696730E+03  0.58767762769E+03 -0.85678132247E+01  0.68095382036E+03  0.47000000000E+01 0. -1.
         -5    1    3    3    0  502 -0.49512860423E+03  0.65733659434E+03  0.23456844802E+02  0.82329584388E+03  0.47000000000E+01 0.  1.
         11    1    5    5    0    0  0.24631024623E+03 -0.33485553733E+03  0.57193424643E+03  0.70704013360E+03  0.00000000000E+00 0. -1.
        -11    1    5    5    0    0  0.49885869738E+03 -0.89208949059E+03  0.15089090642E+04  0.18224956030E+04  0.00000000000E+00 0.  1.
          1    1    6    6  503    0  0.91060618590E+02 -0.39921168035E+02  0.11058101166E+02  0.10004007955E+03  0.00000000000E+00 0. -1.
         -1    1    6    6    0  503  0.27560093367E+01  0.21851973931E+02  0.44556670260E+02  0.49703130855E+02  0.00000000000E+00 0.  1.
<mgrwt>
<rscale>  0 0.15315499E+04</rscale>
<asrwt>0</asrwt>
<pdfrwt beam="1">  1        2 0.48729813E+00 0.15315499E+04</pdfrwt>
<pdfrwt beam="2">  1       -2 0.15632166E+00 0.15315499E+04</pdfrwt>
<totfact> 0.34518422E-01</totfact>
</mgrwt>
</event>
<event>
12    1  0.3203156E-008  0.5414935E+03  0.7818608E-02  0.1003482E+00
          1   -1    0    0  501    0  0.00000000000E+00  0.00000000000E+00  0.28214914224E+03  0.28214914224E+03  0.00000000000E+00 0. -1.
         -1   -1    0    0    0  501 -0.00000000000E+00 -0.00000000000E+00 -0.20994881038E+04  0.20994881038E+04  0.00000000000E+00 0.  1.
         23    2    1    2    0    0 -0.34706550713E+03  0.35984934752E+03 -0.14143741096E+04  0.15028482461E+04  0.90292357795E+02 0.  0.
    5000000    2    1    2    0    0  0.34706550713E+03 -0.35984934752E+03 -0.40296485199E+03  0.87878899993E+03  0.59995284424E+03 0.  0.
         23    2    4    4    0    0  0.81250439103E+02  0.15153655122E+01  0.12907596007E+03  0.17698531383E+03  0.89773423994E+02 0.  0.
         23    2    4    4    0    0  0.26581506803E+03 -0.36136471303E+03 -0.53204081206E+03  0.70180368611E+03  0.90658049428E+02 0.  0.
          5    1    3    3  502    0 -0.25172613437E+03  0.31096093571E+03 -0.11461043325E+04  0.12139357402E+04  0.47000000000E+01 0. -1.
         -5    1    3    3    0  502 -0.95339372756E+02  0.48888411809E+02 -0.26826977706E+03  0.28891250594E+03  0.47000000000E+01 0.  1.
         13    1    5    5    0    0  0.56586739911E+02 -0.42301412061E+02  0.70895808973E+02  0.10008838257E+03  0.00000000000E+00 0. -1.
        -13    1    5    5    0    0  0.24663699191E+02  0.43816777573E+02  0.58180151094E+02  0.76896931252E+02  0.00000000000E+00 0.  1.
          1    1    6    6  503    0  0.18459438022E+02 -0.70527372087E+02 -0.58207192094E+02  0.93289540020E+02  0.00000000000E+00 0. -1.
         -1    1    6    6    0  503  0.24735563000E+03 -0.29083734095E+03 -0.47383361996E+03  0.60851414609E+03  0.00000000000E+00 0.  1.
<mgrwt>
<rscale>  0 0.54149346E+03</rscale>
<asrwt>0</asrwt>
<pdfrwt beam="1">  1        1 0.43407561E-01 0.54149346E+03</pdfrwt>
<pdfrwt beam="2">  1       -1 0.32299816E+00 0.54149346E+03</pdfrwt>
<totfact> 0.24343261E+00</totfact>
</mgrwt>
</event>
<event>
12    1  0.3203156E-008  0.5390459E+03  0.7818608E-02  0.1004062E+00
          1   -1    0    0  501    0  0.00000000000E+00  0.00000000000E+00  0.15238597185E+04  0.15238597185E+04  0.00000000000E+00 0. -1.
         -1   -1    0    0    0  501 -0.00000000000E+00 -0.00000000000E+00 -0.28789594770E+03  0.28789594770E+03  0.00000000000E+00 0.  1.
         23    2    1    2    0    0 -0.38510581124E+03 -0.34918995618E+03  0.43813208630E+03  0.68624677562E+03  0.93460155440E+02 0.  0.
    5000000    2    1    2    0    0  0.38510581124E+03  0.34918995618E+03  0.79783168446E+03  0.11255088905E+04  0.59999562884E+03 0.  0.
         23    2    4    4    0    0  0.36778005843E+03  0.28061783525E+03  0.86907006416E+03  0.98904829135E+03  0.94473305027E+02 0.  0.
         23    2    4    4    0    0  0.17325752817E+02  0.68572120928E+02 -0.71238379699E+02  0.13646059920E+03  0.92435225495E+02 0.  0.
          5    1    3    3  502    0 -0.73579648553E+02 -0.24144952718E+02  0.73433667388E+02  0.10682479548E+03  0.47000000000E+01 0.  1.
         -5    1    3    3    0  502 -0.31152616269E+03 -0.32504500346E+03  0.36469841891E+03  0.57942198014E+03  0.47000000000E+01 0.  1.
         13    1    5    5    0    0  0.30246729567E+03  0.24867606201E+03  0.65671640593E+03  0.76459315102E+03  0.00000000000E+00 0. -1.
        -13    1    5    5    0    0  0.65312762755E+02  0.31941773237E+02  0.21235365822E+03  0.22445514032E+03  0.00000000000E+00 0.  1.
          2    1    6    6  503    0  0.32460110760E+02  0.60915972319E+02 -0.62632826537E+01  0.69308319730E+02  0.00000000000E+00 0. -1.
         -2    1    6    6    0  503 -0.15134357943E+02  0.76561486090E+01 -0.64975097046E+02  0.67152279470E+02  0.00000000000E+00 0.  1.
<mgrwt>
<rscale>  0 0.53904588E+03</rscale>
<asrwt>0</asrwt>
<pdfrwt beam="1">  1        1 0.23443995E+00 0.53904588E+03</pdfrwt>
<pdfrwt beam="2">  1       -1 0.44291685E-01 0.53904588E+03</pdfrwt>
<totfact> 0.33763765E+01</totfact>
</mgrwt>
</event>
<event>
12    1  0.3203156E-008  0.8362152E+03  0.7818608E-02  0.9509027E-01
          1   -1    0    0  501    0  0.00000000000E+00  0.00000000000E+00  0.70689099060E+03  0.70689099060E+03  0.00000000000E+00 0.  1.
         -1   -1    0    0    0  501 -0.00000000000E+00 -0.00000000000E+00 -0.13401452892E+04  0.13401452892E+04  0.00000000000E+00 0. -1.
         23    2    1    2    0    0 -0.44003689616E+02 -0.79940222011E+03  0.92393599112E+02  0.81123482944E+03  0.92656015059E+02 0.  0.
    5000000    2    1    2    0    0  0.44003689616E+02  0.79940222011E+03 -0.72564789767E+03  0.12358014503E+04  0.59971669896E+03 0.  0.
         23    2    4    4    0    0 -0.12985920225E+03  0.29163474630E+03 -0.38996708806E+01  0.33183550519E+03  0.90472965112E+02 0.  0.
         23    2    4    4    0    0  0.17386289187E+03  0.50776747381E+03 -0.72174822679E+03  0.90396594513E+03  0.90431269199E+02 0.  0.
          5    1    3    3  502    0  0.19795797674E+01 -0.38695944168E+03  0.84623460975E+02  0.39613728478E+03  0.47000000000E+01 0. -1.
         -5    1    3    3    0  502 -0.45983269383E+02 -0.41244277843E+03  0.77701381367E+01  0.41509754466E+03  0.47000000000E+01 0.  1.
         13    1    5    5    0    0 -0.16872257771E+02  0.14790866340E+03 -0.62708772939E+01  0.14899989830E+03  0.00000000000E+00 0. -1.
        -13    1    5    5    0    0 -0.11298694448E+03  0.14372608289E+03  0.23712064134E+01  0.18283560689E+03  0.00000000000E+00 0.  1.
          1    1    6    6  503    0  0.97677717980E+02  0.35235104344E+03 -0.42702900130E+03  0.56217965309E+03  0.00000000000E+00 0. -1.
         -1    1    6    6    0  503  0.76185173887E+02  0.15541643038E+03 -0.29471922549E+03  0.34178629204E+03  0.00000000000E+00 0.  1.
<mgrwt>
<rscale>  0 0.83621525E+03</rscale>
<asrwt>0</asrwt>
<pdfrwt beam="1">  1        1 0.10875246E+00 0.83621525E+03</pdfrwt>
<pdfrwt beam="2">  1       -1 0.20617620E+00 0.83621525E+03</pdfrwt>
<totfact> 0.37568067E+00</totfact>
</mgrwt>
</event>
<event>
12    1  0.3203156E-008  0.2825942E+03  0.7818608E-02  0.1094280E+00
          2   -1    0    0  501    0  0.00000000000E+00  0.00000000000E+00  0.94712273237E+02  0.94712273237E+02  0.00000000000E+00 0. -1.
         -2   -1    0    0    0  501 -0.00000000000E+00 -0.00000000000E+00 -0.22319690276E+04  0.22319690276E+04  0.00000000000E+00 0.  1.
         23    2    1    2    0    0 -0.21548847368E+03 -0.68502586671E+02 -0.33878071143E+03  0.41731566671E+03  0.90841117225E+02 0.  0.
    5000000    2    1    2    0    0  0.21548847368E+03  0.68502586671E+02 -0.17984760429E+04  0.19093656341E+04  0.60002763359E+03 0.  0.
         23    2    4    4    0    0 -0.48017538596E+02  0.43578633004E+02 -0.14837200989E+04  0.14879521163E+04  0.91495285757E+02 0.  0.
         23    2    4    4    0    0  0.26350601228E+03  0.24923953668E+02 -0.31475594402E+03  0.42141351779E+03  0.91986013630E+02 0.  0.
          5    1    3    3  502    0 -0.13909881979E+03 -0.29100712553E+02 -0.13486177476E+03  0.19597224658E+03  0.47000000000E+01 0. -1.
         -5    1    3    3    0  502 -0.76389653896E+02 -0.39401874118E+02 -0.20391893666E+03  0.22134342013E+03  0.47000000000E+01 0.  1.
         13    1    5    5    0    0 -0.33072214995E+02  0.27809241160E+02 -0.22883203797E+03  0.23287599039E+03  0.00000000000E+00 0.  1.
        -13    1    5    5    0    0 -0.14945323601E+02  0.15769391843E+02 -0.12548880609E+04  0.12550761259E+04  0.00000000000E+00 0. -1.
          3    1    6    6  503    0  0.11802310174E+03 -0.20034045468E+02 -0.18997113563E+03  0.22454364363E+03  0.00000000000E+00 0. -1.
         -3    1    6    6    0  503  0.14548291054E+03  0.44957999136E+02 -0.12478480839E+03  0.19686987416E+03  0.00000000000E+00 0.  1.
<mgrwt>
<rscale>  0 0.28259419E+03</rscale>
<asrwt>0</asrwt>
<pdfrwt beam="1">  1        2 0.14571118E-01 0.28259419E+03</pdfrwt>
<pdfrwt beam="2">  1       -2 0.34337987E+00 0.28259419E+03</pdfrwt>
<totfact> 0.81429391E+00</totfact>
</mgrwt>
</event>
<event>
12    1  0.3203156E-008  0.4369857E+03  0.7818608E-02  0.1031676E+00
         -2   -1    0    0    0  501 -0.00000000000E+00  0.00000000000E+00  0.25386025937E+03  0.25386025937E+03  0.00000000000E+00 0.  1.
          2   -1    0    0  501    0  0.00000000000E+00 -0.00000000000E+00 -0.10746668429E+04  0.10746668429E+04  0.00000000000E+00 0. -1.
         23    2    1    2    0    0  0.15117534988E+03  0.30393512215E+03 -0.22222808228E+03  0.41563052828E+03  0.90182429526E+02 0.  0.
    5000000    2    1    2    0    0 -0.15117534988E+03 -0.30393512215E+03 -0.59857850121E+03  0.91289657395E+03  0.59987781067E+03 0.  0.
         23    2    4    4    0    0 -0.23475955592E+03 -0.35823965919E+03 -0.63800901147E+03  0.77369704103E+03  0.90021719979E+02 0.  0.
         23    2    4    4    0    0  0.83584206045E+02  0.54304537047E+02  0.39430510258E+02  0.13919953292E+03  0.88805644984E+02 0.  0.
          5    1    3    3  502    0  0.99029725650E+02  0.18574889497E+03 -0.84867118851E+02  0.22701113718E+03  0.47000000000E+01 0. -1.
         -5    1    3    3    0  502  0.52145624230E+02  0.11818622718E+03 -0.13736096343E+03  0.18861939109E+03  0.47000000000E+01 0.  1.
         13    1    5    5    0    0 -0.85258872567E+02 -0.19653011193E+03 -0.36143277612E+03  0.42015093943E+03  0.00000000000E+00 0.  1.
        -13    1    5    5    0    0 -0.14950068336E+03 -0.16170954726E+03 -0.27657623535E+03  0.35354610161E+03  0.00000000000E+00 0. -1.
          1    1    6    6  503    0  0.47268908731E+02  0.29376064102E+02  0.67104306243E+02  0.87179646656E+02  0.00000000000E+00 0. -1.
         -1    1    6    6    0  503  0.36315297314E+02  0.24928472945E+02 -0.27673795985E+02  0.52019886261E+02  0.00000000000E+00 0.  1.
<mgrwt>
<rscale>  0 0.43698574E+03</rscale>
<asrwt>0</asrwt>
<pdfrwt beam="1">  1        2 0.16533336E+00 0.43698574E+03</pdfrwt>
<pdfrwt beam="2">  1       -2 0.39055425E-01 0.43698574E+03</pdfrwt>
<totfact> 0.14570160E+02</totfact>
</mgrwt>
</event>
<event>
12    1  0.3203156E-008  0.1559155E+04  0.7818608E-02  0.8846041E-01
          2   -1    0    0  501    0  0.00000000000E+00  0.00000000000E+00  0.12544720265E+04  0.12544720265E+04  0.00000000000E+00 0. -1.
         -2   -1    0    0    0  501 -0.00000000000E+00 -0.00000000000E+00 -0.20220425894E+04  0.20220425894E+04  0.00000000000E+00 0.  1.
         23    2    1    2    0    0  0.42721368708E+02  0.15042518552E+04 -0.60752811433E+02  0.15089618257E+04  0.93145736489E+02 0.  0.
    5000000    2    1    2    0    0 -0.42721368708E+02 -0.15042518552E+04 -0.70681775149E+03  0.17675527902E+04  0.60004397613E+03 0.  0.
         23    2    4    4    0    0 -0.27346118572E+03 -0.47254738340E+03 -0.18015796425E+03  0.58292845803E+03  0.96263416957E+02 0.  0.
         23    2    4    4    0    0  0.23073981701E+03 -0.10317044718E+04 -0.52665978724E+03  0.11846243322E+04  0.91155343876E+02 0.  0.
          5    1    3    3  502    0 -0.80625872295E+01  0.63268152215E+03 -0.63184122945E+02  0.63589719073E+03  0.47000000000E+01 0. -1.
         -5    1    3    3    0  502  0.50783955937E+02  0.87157033301E+03  0.24313115120E+01  0.87306463497E+03  0.47000000000E+01 0.  1.
         13    1    5    5    0    0 -0.16701766963E+03 -0.37125822539E+03 -0.14159054869E+03  0.43101676924E+03  0.00000000000E+00 0.  1.
        -13    1    5    5    0    0 -0.10644351609E+03 -0.10128915801E+03 -0.38567415560E+02  0.15191168879E+03  0.00000000000E+00 0. -1.
          2    1    6    6  503    0  0.47347397195E+02 -0.13127837364E+03 -0.42031931082E+02  0.14574796959E+03  0.00000000000E+00 0. -1.
         -2    1    6    6    0  503  0.18339241981E+03 -0.90042609811E+03 -0.48462785616E+03  0.10388763626E+04  0.00000000000E+00 0.  1.
<mgrwt>
<rscale>  0 0.15591553E+04</rscale>
<asrwt>0</asrwt>
<pdfrwt beam="1">  1        2 0.19299570E+00 0.15591553E+04</pdfrwt>
<pdfrwt beam="2">  1       -2 0.31108347E+00 0.15591553E+04</pdfrwt>
<totfact> 0.44833600E-01</totfact>
</mgrwt>
</event>
<event>
12    1  0.3203156E-008  0.5221554E+03  0.7818608E-02  0.1008153E+00
          2   -1    0    0  501    0  0.00000000000E+00  0.00000000000E+00  0.31232276525E+04  0.31232276525E+04  0.00000000000E+00 0. -1.
         -2   -1    0    0    0  501 -0.00000000000E+00 -0.00000000000E+00 -0.17857566985E+03  0.17857566985E+03  0.00000000000E+00 0.  1.
         23    2    1    2    0    0 -0.49589431728E+03 -0.11215629458E+03  0.20344957718E+04  0.20990199713E+04  0.90672964626E+02 0.  0.
    5000000    2    1    2    0    0  0.49589431728E+03  0.11215629458E+03  0.91015621089E+03  0.12027833510E+04  0.59984435722E+03 0.  0.
         23    2    4    4    0    0  0.32696992444E+03  0.95593952342E+02  0.94342109676E+03  0.10070753922E+04  0.90055230769E+02 0.  0.
         23    2    4    4    0    0  0.16892439284E+03  0.16562342234E+02 -0.33264885869E+02  0.19570795878E+03  0.91571233585E+02 0.  0.
          5    1    3    3  502    0 -0.37961521786E+03 -0.10744051071E+03  0.16870119436E+04  0.17325364541E+04  0.47000000000E+01 0. -1.
         -5    1    3    3    0  502 -0.11627909943E+03 -0.47157838672E+01  0.34748382819E+03  0.36648351728E+03  0.47000000000E+01 0.  1.
         13    1    5    5    0    0  0.17547868491E+03  0.35111476630E+02  0.61293904577E+03  0.63852944997E+03  0.00000000000E+00 0. -1.
        -13    1    5    5    0    0  0.15149123953E+03  0.60482475713E+02  0.33048205100E+03  0.36854594226E+03  0.00000000000E+00 0.  1.
          2    1    6    6  503    0  0.65058663151E+02 -0.36476640971E+02 -0.57544709229E+00  0.74588914236E+02  0.00000000000E+00 0. -1.
         -2    1    6    6    0  503  0.10386572969E+03  0.53038983205E+02 -0.32689438777E+02  0.12111904454E+03  0.00000000000E+00 0.  1.
<mgrwt>
<rscale>  0 0.52215537E+03</rscale>
<asrwt>0</asrwt>
<pdfrwt beam="1">  1        2 0.48049652E+00 0.52215537E+03</pdfrwt>
<pdfrwt beam="2">  1       -2 0.27473182E-01 0.52215537E+03</pdfrwt>
<totfact> 0.19547899E+01</totfact>
</mgrwt>
</event>
<event>
12    1  0.3203156E-008  0.9452881E+03  0.7818608E-02  0.9370675E-01
          1   -1    0    0  501    0  0.00000000000E+00  0.00000000000E+00  0.22953122792E+04  0.22953122792E+04  0.00000000000E+00 0. -1.
         -1   -1    0    0    0  501 -0.00000000000E+00 -0.00000000000E+00 -0.41033778269E+03  0.41033778269E+03  0.00000000000E+00 0.  1.
         23    2    1    2    0    0 -0.72170110403E+03  0.45853872788E+03  0.11151402968E+04  0.14081037750E+04  0.90045051169E+02 0.  0.
    5000000    2    1    2    0    0  0.72170110403E+03 -0.45853872788E+03  0.76983419977E+03  0.12975462869E+04  0.59989284291E+03 0.  0.
         23    2    4    4    0    0  0.27896637172E+03 -0.50806047620E+03  0.39803660388E+03  0.70955752303E+03  0.95347031586E+02 0.  0.
         23    2    4    4    0    0  0.44273473231E+03  0.49521748327E+02  0.37179759589E+03  0.58798876386E+03  0.95030981090E+02 0.  0.
          5    1    3    3  502    0 -0.69578624312E+03  0.43698308135E+03  0.10383499571E+04  0.13241092979E+04  0.47000000000E+01 0. -1.
         -5    1    3    3    0  502 -0.25914860909E+02  0.21555646531E+02  0.76790339663E+02  0.83994477074E+02  0.47000000000E+01 0.  1.
         13    1    5    5    0    0  0.21726910664E+03 -0.43776531606E+03  0.29704821706E+03  0.57191081464E+03  0.00000000000E+00 0. -1.
        -13    1    5    5    0    0  0.61697265079E+02 -0.70295160140E+02  0.10098838682E+03  0.13764670839E+03  0.00000000000E+00 0.  1.
          1    1    6    6  503    0  0.33855515061E+03  0.71879121576E+02  0.25503965381E+03  0.42992025207E+03  0.00000000000E+00 0. -1.
         -1    1    6    6    0  503  0.10417958170E+03 -0.22357373250E+02  0.11675794208E+03  0.15806851180E+03  0.00000000000E+00 0.  1.
<mgrwt>
<rscale>  0 0.94528807E+03</rscale>
<asrwt>0</asrwt>
<pdfrwt beam="1">  1        1 0.35312496E+00 0.94528807E+03</pdfrwt>
<pdfrwt beam="2">  1       -1 0.63128891E-01 0.94528807E+03</pdfrwt>
<totfact> 0.48821628E+00</totfact>
</mgrwt>
</event>
<event>
12    1  0.3203156E-008  0.4825983E+03  0.7818608E-02  0.1018424E+00
         -1   -1    0    0    0  501 -0.00000000000E+00  0.00000000000E+00  0.50487943912E+03  0.50487943912E+03  0.00000000000E+00 0.  1.
          1   -1    0    0  501    0  0.00000000000E+00 -0.00000000000E+00 -0.58643074364E+03  0.58643074364E+03  0.00000000000E+00 0. -1.
         23    2    1    2    0    0  0.18711863992E+03 -0.32199773885E+03 -0.22127612689E+02  0.38313718337E+03  0.87226949984E+02 0.  0.
    5000000    2    1    2    0    0 -0.18711863992E+03  0.32199773885E+03 -0.59423691831E+02  0.70817299940E+03  0.59940127853E+03 0.  0.
         23    2    4    4    0    0 -0.10969400444E+03  0.42192403883E+03 -0.20900701329E+03  0.49194595218E+03  0.90962734683E+02 0.  0.
         23    2    4    4    0    0 -0.77424635480E+02 -0.99926299982E+02  0.14958332146E+03  0.21622704723E+03  0.91646747268E+02 0.  0.
          5    1    3    3  502    0  0.14667227036E+03 -0.20726219518E+03  0.18918868707E+02  0.25465738952E+03  0.47000000000E+01 0. -1.
         -5    1    3    3    0  502  0.40446369560E+02 -0.11473554367E+03 -0.41046481395E+02  0.12847979384E+03  0.47000000000E+01 0.  1.
         13    1    5    5    0    0 -0.36830084602E+02  0.20922203744E+03 -0.14822579972E+03  0.25903900052E+03  0.00000000000E+00 0. -1.
        -13    1    5    5    0    0 -0.72863919840E+02  0.21270200139E+03 -0.60781213571E+02  0.23290695166E+03  0.00000000000E+00 0.  1.
          2    1    6    6  503    0 -0.11574280877E+02 -0.83572873622E+02  0.58578464159E+02  0.10271234418E+03  0.00000000000E+00 0. -1.
         -2    1    6    6    0  503 -0.65850354603E+02 -0.16353426360E+02  0.91004857305E+02  0.11351470305E+03  0.00000000000E+00 0.  1.
<mgrwt>
<rscale>  0 0.48259828E+03</rscale>
<asrwt>0</asrwt>
<pdfrwt beam="1">  1        1 0.90220114E-01 0.48259828E+03</pdfrwt>
<pdfrwt beam="2">  1       -1 0.77673760E-01 0.48259828E+03</pdfrwt>
<totfact> 0.61663963E+01</totfact>
</mgrwt>
</event>
<event>
12    1  0.3203156E-008  0.7973756E+03  0.7818608E-02  0.9563824E-01
         -1   -1    0    0    0  501 -0.00000000000E+00  0.00000000000E+00  0.12991833417E+04  0.12991833417E+04  0.00000000000E+00 0.  1.
          1   -1    0    0  501    0  0.00000000000E+00 -0.00000000000E+00 -0.66176924174E+03  0.66176924174E+03  0.00000000000E+00 0. -1.
         23    2    1    2    0    0 -0.56219659311E+03  0.43339482932E+03 -0.16380952134E+03  0.73409712405E+03  0.90382193344E+02 0.  0.
    5000000    2    1    2    0    0  0.56219659311E+03 -0.43339482932E+03  0.80122362126E+03  0.12268554593E+04  0.59943218088E+03 0.  0.
         23    2    4    4    0    0  0.26289848760E+03  0.85303964312E+02  0.42047064689E+03  0.51162136388E+03  0.92566051955E+02 0.  0.
         23    2    4    4    0    0  0.29929810551E+03 -0.51869879363E+03  0.38075297436E+03  0.71523409546E+03  0.89214288886E+02 0.  0.
          5    1    3    3  502    0 -0.48628400391E+03  0.33944731567E+03 -0.11709167215E+03  0.60450737156E+03  0.47000000000E+01 0. -1.
         -5    1    3    3    0  502 -0.75912589197E+02  0.93947513650E+02 -0.46717849182E+02  0.12958975250E+03  0.47000000000E+01 0.  1.
         13    1    5    5    0    0  0.43382573723E+02  0.84441562625E+01  0.14242241082E+03  0.14912241475E+03  0.00000000000E+00 0. -1.
        -13    1    5    5    0    0  0.21951591387E+03  0.76859808049E+02  0.27804823607E+03  0.36249894913E+03  0.00000000000E+00 0.  1.
          4    1    6    6  503    0  0.10188582286E+03 -0.25523251417E+03  0.19774882390E+03  0.33856898048E+03  0.00000000000E+00 0.  1.
         -4    1    6    6    0  503  0.19741228265E+03 -0.26346627947E+03  0.18300415047E+03  0.37666511498E+03  0.00000000000E+00 0. -1.
<mgrwt>
<rscale>  0 0.79737562E+03</rscale>
<asrwt>0</asrwt>
<pdfrwt beam="1">  1        1 0.10181065E+00 0.79737562E+03</pdfrwt>
<pdfrwt beam="2">  1       -1 0.19987436E+00 0.79737562E+03</pdfrwt>
<totfact> 0.46046772E+00</totfact>
</mgrwt>
</event>
<event>
12    1  0.3203156E-008  0.5512191E+03  0.7818608E-02  0.1001212E+00
         -1   -1    0    0    0  501 -0.00000000000E+00  0.00000000000E+00  0.29979320436E+03  0.29979320436E+03  0.00000000000E+00 0.  1.
          1   -1    0    0  501    0  0.00000000000E+00 -0.00000000000E+00 -0.13936358948E+04  0.13936358948E+04  0.00000000000E+00 0. -1.
         23    2    1    2    0    0  0.42293942015E+03 -0.27363912254E+03 -0.42959611006E+03  0.66633161195E+03  0.75424643158E+02 0.  0.
    5000000    2    1    2    0    0 -0.42293942015E+03  0.27363912254E+03 -0.66424658042E+03  0.10270974873E+04  0.59995800372E+03 0.  0.
         23    2    4    4    0    0 -0.22109595466E+03 -0.76524061582E+01 -0.62212397850E+03  0.66697326878E+03  0.94197219444E+02 0.  0.
         23    2    4    4    0    0 -0.20184346549E+03  0.28129152870E+03 -0.42122601913E+02  0.36012421847E+03  0.89718618249E+02 0.  0.
          5    1    3    3  502    0  0.11557003736E+03 -0.46627222087E+02 -0.13525063973E+03  0.18397107632E+03  0.47000000000E+01 0. -1.
         -5    1    3    3    0  502  0.30736938280E+03 -0.22701190045E+03 -0.29434547033E+03  0.48236053563E+03  0.47000000000E+01 0.  1.
         11    1    5    5    0    0 -0.26148348706E+02  0.29962726040E+02 -0.74173357836E+02  0.84161678360E+02  0.00000000000E+00 0.  1.
        -11    1    5    5    0    0 -0.19494760596E+03 -0.37615132198E+02 -0.54795062067E+03  0.58281159042E+03  0.00000000000E+00 0. -1.
          1    1    6    6  503    0 -0.18511626570E+03  0.19305395306E+03 -0.24333088912E+02  0.26857021397E+03  0.00000000000E+00 0. -1.
         -1    1    6    6    0  503 -0.16727199798E+02  0.88237575639E+02 -0.17789513001E+02  0.91554004503E+02  0.00000000000E+00 0.  1.
<mgrwt>
<rscale>  0 0.55121910E+03</rscale>
<asrwt>0</asrwt>
<pdfrwt beam="1">  1        1 0.21440552E+00 0.55121910E+03</pdfrwt>
<pdfrwt beam="2">  1       -1 0.46122031E-01 0.55121910E+03</pdfrwt>
<totfact> 0.38366527E+01</totfact>
</mgrwt>
</event>
<event>
12    1  0.3203156E-008  0.6152941E+03  0.7818608E-02  0.9874174E-01
          2   -1    0    0  501    0  0.00000000000E+00  0.00000000000E+00  0.82250685733E+03  0.82250685733E+03  0.00000000000E+00 0. -1.
         -2   -1    0    0    0  501 -0.00000000000E+00 -0.00000000000E+00 -0.66337534300E+03  0.66337534300E+03  0.00000000000E+00 0.  1.
         23    2    1    2    0    0  0.15861353668E+03 -0.56189736583E+03  0.25477901196E+03  0.64346582417E+03  0.90824105779E+02 0.  0.
    5000000    2    1    2    0    0 -0.15861353668E+03  0.56189736583E+03 -0.95647497633E+02  0.84241637616E+03  0.59969159014E+03 0.  0.
         23    2    4    4    0    0 -0.84814230813E+02  0.53230342375E+02  0.19888542327E+03  0.24325110602E+03  0.97922244115E+02 0.  0.
         23    2    4    4    0    0 -0.73799305864E+02  0.50866702346E+03 -0.29453292090E+03  0.59916527014E+03  0.89782521410E+02 0.  0.
          5    1    3    3  502    0  0.51767621159E+02 -0.20976246911E+03  0.14188279656E+03  0.25852078835E+03  0.47000000000E+01 0. -1.
         -5    1    3    3    0  502  0.10684591552E+03 -0.35213489672E+03  0.11289621540E+03  0.38494503582E+03  0.47000000000E+01 0.  1.
         11    1    5    5    0    0 -0.75106483250E+02 -0.31961107445E+01  0.72211657841E+02  0.10423877627E+03  0.00000000000E+00 0.  1.
        -11    1    5    5    0    0 -0.97077475631E+01  0.56426453120E+02  0.12667376543E+03  0.13901232975E+03  0.00000000000E+00 0. -1.
          1    1    6    6  503    0 -0.42293832606E+02  0.31343289623E+03 -0.13014784941E+03  0.34200498743E+03  0.00000000000E+00 0. -1.
         -1    1    6    6    0  503 -0.31505473258E+02  0.19523412722E+03 -0.16438507149E+03  0.25716028272E+03  0.00000000000E+00 0.  1.
<mgrwt>
<rscale>  0 0.61529410E+03</rscale>
<asrwt>0</asrwt>
<pdfrwt beam="1">  1        2 0.12653952E+00 0.61529410E+03</pdfrwt>
<pdfrwt beam="2">  1       -2 0.10205775E+00 0.61529410E+03</pdfrwt>
<totfact> 0.26859238E+01</totfact>
</mgrwt>
</event>
<event>
12    1  0.3203156E-008  0.4779697E+03  0.7818608E-02  0.1019695E+00
          1   -1    0    0  501    0  0.00000000000E+00  0.00000000000E+00  0.23017901458E+04  0.23017901458E+04  0.00000000000E+00 0. -1.
         -1   -1    0    0    0  501 -0.00000000000E+00 -0.00000000000E+00 -0.16807893061E+03  0.16807893061E+03  0.00000000000E+00 0.  1.
         23    2    1    2    0    0  0.27896266599E+03 -0.34858059123E+03  0.11295112629E+04  0.12178001457E+04  0.88954505490E+02 0.  0.
    5000000    2    1    2    0    0 -0.27896266599E+03  0.34858059123E+03  0.10041999522E+04  0.12520689307E+04  0.59994205193E+03 0.  0.
         23    2    4    4    0    0  0.38993852747E+02  0.76832126860E+02  0.73498434114E+03  0.74575375088E+03  0.92319981391E+02 0.  0.
         23    2    4    4    0    0 -0.31795651873E+03  0.27174846437E+03  0.26921561109E+03  0.50631517986E+03  0.94522168876E+02 0.  0.
          5    1    3    3  502    0  0.21894812024E+03 -0.25850344758E+03  0.74696089773E+03  0.82020423341E+03  0.47000000000E+01 0. -1.
         -5    1    3    3    0  502  0.60014545746E+02 -0.90077143653E+02  0.38255036521E+03  0.39759591224E+03  0.47000000000E+01 0.  1.
         11    1    5    5    0    0  0.48301628760E+01 -0.15179391628E+01  0.40014475872E+03  0.40017678911E+03  0.00000000000E+00 0.  1.
        -11    1    5    5    0    0  0.34163689871E+02  0.78350066022E+02  0.33483958242E+03  0.34557696177E+03  0.00000000000E+00 0. -1.
          1    1    6    6  503    0 -0.81666632296E+02  0.69673231836E+02  0.12139293444E+03  0.16204950663E+03  0.00000000000E+00 0. -1.
         -1    1    6    6    0  503 -0.23628988644E+03  0.20207523253E+03  0.14782267665E+03  0.34426567324E+03  0.00000000000E+00 0.  1.
<mgrwt>
<rscale>  0 0.47796973E+03</rscale>
<asrwt>0</asrwt>
<pdfrwt beam="1">  1        1 0.35412154E+00 0.47796973E+03</pdfrwt>
<pdfrwt beam="2">  1       -1 0.25858299E-01 0.47796973E+03</pdfrwt>
<totfact> 0.26808181E+01</totfact>
</mgrwt>
</event>
<event>
12    1  0.3203156E-008  0.1038776E+04  0.7818608E-02  0.9267010E-01
         -3   -1    0    0    0  501 -0.00000000000E+00  0.00000000000E+00  0.62082308128E+03  0.62082308128E+03  0.00000000000E+00 0. -1.
          3   -1    0    0  501    0  0.00000000000E+00 -0.00000000000E+00 -0.20485159653E+04  0.20485159653E+04  0.00000000000E+00 0.  1.
         23    2    1    2    0    0  0.84042367792E+03  0.55993138677E+03 -0.98692687416E+03  0.14147491880E+04  0.87495678309E+02 0.  0.
    5000000    2    1    2    0    0 -0.84042367792E+03 -0.55993138677E+03 -0.44076600983E+03  0.12545898585E+04  0.59990492700E+03 0.  0.
         23    2    4    4    0    0 -0.71508349290E+03 -0.31335554359E+03 -0.78233792017E+02  0.78926693367E+03  0.85356123680E+02 0.  0.
         23    2    4    4    0    0 -0.12534018502E+03 -0.24657584318E+03 -0.36253221781E+03  0.46532292487E+03  0.92660709250E+02 0.  0.
          5    1    3    3  502    0  0.53672599089E+03  0.31657063954E+03 -0.57234598212E+03  0.84610505988E+03  0.47000000000E+01 0. -1.
         -5    1    3    3    0  502  0.30369768703E+03  0.24336074723E+03 -0.41458089205E+03  0.56864412813E+03  0.47000000000E+01 0.  1.
         11    1    5    5    0    0 -0.78401880658E+02 -0.21839666012E+02 -0.32146505108E+02  0.87505563782E+02  0.00000000000E+00 0.  1.
        -11    1    5    5    0    0 -0.63668161225E+03 -0.29151587758E+03 -0.46087286909E+02  0.70176136989E+03  0.00000000000E+00 0. -1.
          1    1    6    6  503    0 -0.32015263691E+02 -0.13182458812E+03 -0.22841241384E+03  0.26565942471E+03  0.00000000000E+00 0. -1.
         -1    1    6    6    0  503 -0.93324921324E+02 -0.11475125506E+03 -0.13411980398E+03  0.19966350016E+03  0.00000000000E+00 0.  1.
<mgrwt>
<rscale>  0 0.10387755E+04</rscale>
<asrwt>0</asrwt>
<pdfrwt beam="1">  1        3 0.31515630E+00 0.10387755E+04</pdfrwt>
<pdfrwt beam="2">  1       -3 0.95511243E-01 0.10387755E+04</pdfrwt>
<totfact> 0.79479512E-02</totfact>
</mgrwt>
</event>
<event>
12    1  0.3203156E-008  0.1192362E+04  0.7818608E-02  0.9119568E-01
          2   -1    0    0  501    0  0.00000000000E+00  0.00000000000E+00  0.10828847107E+04  0.10828847107E+04  0.00000000000E+00 0. -1.
         -2   -1    0    0    0  501 -0.00000000000E+00 -0.00000000000E+00 -0.16990043354E+04  0.16990043354E+04  0.00000000000E+00 0.  1.
         23    2    1    2    0    0  0.10510562539E+04 -0.52563944524E+03 -0.83431212617E+03  0.14444576399E+04  0.96773314803E+02 0.  0.
    5000000    2    1    2    0    0 -0.10510562539E+04  0.52563944524E+03  0.21819250147E+03  0.13374314062E+04  0.60008226375E+03 0.  0.
         23    2    4    4    0    0 -0.33222673089E+03  0.31664630742E+03  0.33335400886E+03  0.57470164276E+03  0.92290835174E+02 0.  0.
         23    2    4    4    0    0 -0.71882952299E+03  0.20899313782E+03 -0.11516150739E+03  0.76272976339E+03  0.90002802164E+02 0.  0.
          5    1    3    3  502    0  0.14077563029E+03 -0.95985321374E+02 -0.15224086232E+03  0.22853955930E+03  0.47000000000E+01 0. -1.
         -5    1    3    3    0  502  0.91028062359E+03 -0.42965412386E+03 -0.68207126385E+03  0.12159180806E+04  0.47000000000E+01 0.  1.
         11    1    5    5    0    0 -0.27915374214E+03  0.26242093888E+03  0.31655236094E+03  0.49698788530E+03  0.00000000000E+00 0. -1.
        -11    1    5    5    0    0 -0.53072988745E+02  0.54225368533E+02  0.16801647922E+02  0.77713757468E+02  0.00000000000E+00 0.  1.
          1    1    6    6  503    0 -0.13102247332E+03  0.33867722277E+02 -0.56296127190E+02  0.14657136508E+03  0.00000000000E+00 0. -1.
         -1    1    6    6    0  503 -0.58780704968E+03  0.17512541554E+03 -0.58865380199E+02  0.61615839831E+03  0.00000000000E+00 0.  1.
<mgrwt>
<rscale>  0 0.11923621E+04</rscale>
<asrwt>0</asrwt>
<pdfrwt beam="1">  1        2 0.16659765E+00 0.11923621E+04</pdfrwt>
<pdfrwt beam="2">  1       -2 0.26138528E+00 0.11923621E+04</pdfrwt>
<totfact> 0.11910530E+00</totfact>
</mgrwt>
</event>
<event>
12    1  0.3203156E-008  0.6095050E+03  0.7818608E-02  0.9885880E-01
          1   -1    0    0  501    0  0.00000000000E+00  0.00000000000E+00  0.18331488756E+04  0.18331488756E+04  0.00000000000E+00 0. -1.
         -1   -1    0    0    0  501 -0.00000000000E+00 -0.00000000000E+00 -0.44560201045E+03  0.44560201045E+03  0.00000000000E+00 0.  1.
         23    2    1    2    0    0  0.42616347126E+03  0.18824444101E+03 -0.20301880827E+03  0.51616055494E+03  0.90298439382E+02 0.  0.
    5000000    2    1    2    0    0 -0.42616347126E+03 -0.18824444101E+03  0.15905656734E+04  0.17625903311E+04  0.59981183722E+03 0.  0.
         23    2    4    4    0    0 -0.44968818818E+03  0.85024079783E+02  0.91435077269E+03  0.10268501230E+04  0.94526604049E+02 0.  0.
         23    2    4    4    0    0  0.23524716920E+02 -0.27326852079E+03  0.67621490075E+03  0.73574020812E+03  0.93904020646E+02 0.  0.
          5    1    3    3  502    0  0.14155404151E+03  0.30149500222E+02 -0.94651312362E+02  0.17299566458E+03  0.47000000000E+01 0. -1.
         -5    1    3    3    0  502  0.28460942976E+03  0.15809494078E+03 -0.10836749591E+03  0.34316489036E+03  0.47000000000E+01 0.  1.
         11    1    5    5    0    0 -0.32788743601E+03  0.75911138416E+02  0.75026270219E+03  0.82229361783E+03  0.00000000000E+00 0.  1.
        -11    1    5    5    0    0 -0.12180075218E+03  0.91129413664E+01  0.16408807050E+03  0.20455650518E+03  0.00000000000E+00 0. -1.
          4    1    6    6  503    0 -0.36285233992E+02 -0.87025989527E+02  0.21700160763E+03  0.23660058912E+03  0.00000000000E+00 0. -1.
         -4    1    6    6    0  503  0.59809950912E+02 -0.18624253126E+03  0.45921329312E+03  0.49913961900E+03  0.00000000000E+00 0.  1.
<mgrwt>
<rscale>  0 0.60950495E+03</rscale>
<asrwt>0</asrwt>
<pdfrwt beam="1">  1        1 0.28202290E+00 0.60950495E+03</pdfrwt>
<pdfrwt beam="2">  1       -1 0.68554156E-01 0.60950495E+03</pdfrwt>
<totfact> 0.89157558E+00</totfact>
</mgrwt>
</event>
<event>
12    1  0.3203156E-008  0.1345285E+04  0.7818608E-02  0.8994405E-01
         -2   -1    0    0    0  501 -0.00000000000E+00  0.00000000000E+00  0.12907416729E+04  0.12907416729E+04  0.00000000000E+00 0.  1.
          2   -1    0    0  501    0  0.00000000000E+00 -0.00000000000E+00 -0.14167324311E+04  0.14167324311E+04  0.00000000000E+00 0. -1.
         23    2    1    2    0    0  0.11035338969E+04  0.64865514060E+03  0.40702001698E+02  0.12840149242E+04  0.92179822031E+02 0.  0.
    5000000    2    1    2    0    0 -0.11035338969E+04 -0.64865514060E+03 -0.16669275986E+03  0.14234591798E+04  0.59992416807E+03 0.  0.
         23    2    4    4    0    0 -0.99179861672E+00 -0.19429907088E+03 -0.58135722500E+02  0.22273543642E+03  0.92077140464E+02 0.  0.
         23    2    4    4    0    0 -0.11025420983E+04 -0.45435606972E+03 -0.10855703736E+03  0.12007237434E+04  0.88962694860E+02 0.  0.
          5    1    3    3  502    0  0.42414481692E+03  0.19948492298E+03  0.47597301561E+01  0.46876199211E+03  0.47000000000E+01 0.  1.
         -5    1    3    3    0  502  0.67938907995E+03  0.44917021763E+03  0.35942271542E+02  0.81525293207E+03  0.47000000000E+01 0. -1.
         13    1    5    5    0    0  0.39954673153E+02 -0.45838205379E+02 -0.20845270838E+02  0.64280963710E+02  0.00000000000E+00 0.  1.
        -13    1    5    5    0    0 -0.40946471770E+02 -0.14846086550E+03 -0.37290451662E+02  0.15845447271E+03  0.00000000000E+00 0. -1.
          1    1    6    6  503    0 -0.47630975737E+03 -0.18941687189E+03 -0.90463906362E+02  0.52051268445E+03  0.00000000000E+00 0. -1.
         -1    1    6    6    0  503 -0.62623234089E+03 -0.26493919784E+03 -0.18093130995E+02  0.68021105895E+03  0.00000000000E+00 0.  1.
<mgrwt>
<rscale>  0 0.13452855E+04</rscale>
<asrwt>0</asrwt>
<pdfrwt beam="1">  1        2 0.21795884E+00 0.13452855E+04</pdfrwt>
<pdfrwt beam="2">  1       -2 0.19857564E+00 0.13452855E+04</pdfrwt>
<totfact> 0.18396428E+00</totfact>
</mgrwt>
</event>
<event>
12    1  0.3203156E-008  0.4916011E+03  0.7818608E-02  0.1015995E+00
         -1   -1    0    0    0  501 -0.00000000000E+00  0.00000000000E+00  0.35981562825E+03  0.35981562825E+03  0.00000000000E+00 0.  1.
          1   -1    0    0  501    0  0.00000000000E+00 -0.00000000000E+00 -0.70615141432E+03  0.70615141432E+03  0.00000000000E+00 0. -1.
         23    2    1    2    0    0 -0.31055300782E+03  0.30421184605E+02 -0.16951774906E+03  0.36693920488E+03  0.92409381005E+02 0.  0.
    5000000    2    1    2    0    0  0.31055300782E+03 -0.30421184605E+02 -0.17681803700E+03  0.69902783769E+03  0.60000556707E+03 0.  0.
         23    2    4    4    0    0  0.26827608944E+03  0.24972558338E+03 -0.92005029677E+02  0.38937972325E+03  0.93897370750E+02 0.  0.
         23    2    4    4    0    0  0.42276918371E+02 -0.28014676798E+03 -0.84813007326E+02  0.30964811443E+03  0.91755975942E+02 0.  0.
          5    1    3    3  502    0 -0.29486152040E+03  0.49494966700E+01 -0.15748541194E+03  0.33435244684E+03  0.47000000000E+01 0. -1.
         -5    1    3    3    0  502 -0.15691487416E+02  0.25471687935E+02 -0.12032337117E+02  0.32586758048E+02  0.47000000000E+01 0.  1.
         13    1    5    5    0    0  0.92671314205E+02  0.13835910082E+03 -0.13354982781E+02  0.16706157194E+03  0.00000000000E+00 0.  1.
        -13    1    5    5    0    0  0.17560477524E+03  0.11136648256E+03 -0.78650046896E+02  0.22231815131E+03  0.00000000000E+00 0. -1.
          1    1    6    6  503    0  0.28389449025E+02 -0.15344770868E+03  0.89308024777E+00  0.15605434216E+03  0.00000000000E+00 0. -1.
         -1    1    6    6    0  503  0.13887469346E+02 -0.12669905931E+03 -0.85706087574E+02  0.15359377227E+03  0.00000000000E+00 0.  1.
<mgrwt>
<rscale>  0 0.49160113E+03</rscale>
<asrwt>0</asrwt>
<pdfrwt beam="1">  1        1 0.10863868E+00 0.49160113E+03</pdfrwt>
<pdfrwt beam="2">  1       -1 0.55356251E-01 0.49160113E+03</pdfrwt>
<totfact> 0.92552638E+01</totfact>
</mgrwt>
</event>
<event>
12    1  0.3203156E-008  0.1022902E+04  0.7818608E-02  0.9283776E-01
         -1   -1    0    0    0  501 -0.00000000000E+00  0.00000000000E+00  0.10842431153E+04  0.10842431153E+04  0.00000000000E+00 0.  1.
          1   -1    0    0  501    0  0.00000000000E+00 -0.00000000000E+00 -0.11626466857E+04  0.11626466857E+04  0.00000000000E+00 0. -1.
         23    2    1    2    0    0 -0.60431447093E+03 -0.81789985672E+03 -0.25656074992E+03  0.10528543997E+04  0.92319083792E+02 0.  0.
    5000000    2    1    2    0    0  0.60431447093E+03  0.81789985672E+03  0.17815717950E+03  0.11940354013E+04  0.59985365171E+03 0.  0.
         23    2    4    4    0    0  0.45664393641E+03  0.50958447868E+03 -0.15505460526E+03  0.70841203050E+03  0.98008411769E+02 0.  0.
         23    2    4    4    0    0  0.14767053452E+03  0.30831537804E+03  0.33321178476E+03  0.48562337076E+03  0.89078648541E+02 0.  0.
          5    1    3    3  502    0 -0.35026272827E+03 -0.49135824922E+03 -0.10672870592E+03  0.61280503797E+03  0.47000000000E+01 0.  1.
         -5    1    3    3    0  502 -0.25405174266E+03 -0.32654160750E+03 -0.14983204400E+03  0.44004936176E+03  0.47000000000E+01 0. -1.
         13    1    5    5    0    0  0.46338396315E+02  0.34423805704E+02 -0.39819436557E+02  0.70127262173E+02  0.00000000000E+00 0.  1.
        -13    1    5    5    0    0  0.41030554009E+03  0.47516067298E+03 -0.11523516871E+03  0.63828476833E+03  0.00000000000E+00 0. -1.
          2    1    6    6  503    0  0.30209248858E+02  0.39481235981E+02  0.13097987290E+02  0.51409376403E+02  0.00000000000E+00 0. -1.
         -2    1    6    6    0  503  0.11746128566E+03  0.26883414206E+03  0.32011379747E+03  0.43421399436E+03  0.00000000000E+00 0.  1.
<mgrwt>
<rscale>  0 0.10229025E+04</rscale>
<asrwt>0</asrwt>
<pdfrwt beam="1">  1        1 0.17886872E+00 0.10229025E+04</pdfrwt>
<pdfrwt beam="2">  1       -1 0.16680663E+00 0.10229025E+04</pdfrwt>
<totfact> 0.29596575E+00</totfact>
</mgrwt>
</event>
<event>
12    1  0.3203156E-008  0.6533761E+03  0.7818608E-02  0.9800465E-01
          1   -1    0    0  501    0  0.00000000000E+00  0.00000000000E+00  0.22166867863E+04  0.22166867863E+04  0.00000000000E+00 0. -1.
         -1   -1    0    0    0  501 -0.00000000000E+00 -0.00000000000E+00 -0.34734389276E+03  0.34734389276E+03  0.00000000000E+00 0.  1.
         23    2    1    2    0    0  0.42467575055E+03 -0.48055095040E+03  0.20035475342E+03  0.67807875434E+03  0.91488036596E+02 0.  0.
    5000000    2    1    2    0    0 -0.42467575055E+03  0.48055095040E+03  0.16689881401E+04  0.18859519247E+04  0.60001211777E+03 0.  0.
         23    2    4    4    0    0 -0.10108816287E+03  0.62297146751E+02  0.19713194304E+02  0.15154121595E+03  0.92067252254E+02 0.  0.
         23    2    4    4    0    0 -0.32358758768E+03  0.41825380364E+03  0.16492749458E+04  0.17344107088E+04  0.91801354165E+02 0.  0.
          5    1    3    3  502    0  0.16803732318E+03 -0.24856165148E+03  0.11794184333E+03  0.32241557806E+03  0.47000000000E+01 0. -1.
         -5    1    3    3    0  502  0.25663842736E+03 -0.23198929892E+03  0.82412910093E+02  0.35566317628E+03  0.47000000000E+01 0.  1.
         11    1    5    5    0    0 -0.39564062609E+02  0.57338063263E+02 -0.26396235422E+02  0.74496508598E+02  0.00000000000E+00 0.  1.
        -11    1    5    5    0    0 -0.61524100257E+02  0.49590834881E+01  0.46109429727E+02  0.77044707354E+02  0.00000000000E+00 0. -1.
          2    1    6    6  503    0 -0.29904269526E+03  0.37565969237E+03  0.13920928111E+04  0.14725722844E+04  0.00000000000E+00 0. -1.
         -2    1    6    6    0  503 -0.24544892420E+02  0.42594111276E+02  0.25718213473E+03  0.26183842438E+03  0.00000000000E+00 0.  1.
<mgrwt>
<rscale>  0 0.65337611E+03</rscale>
<asrwt>0</asrwt>
<pdfrwt beam="1">  1        1 0.34102873E+00 0.65337611E+03</pdfrwt>
<pdfrwt beam="2">  1       -1 0.53437523E-01 0.65337611E+03</pdfrwt>
<totfact> 0.80162794E+00</totfact>
</mgrwt>
</event>
<event>
12    1  0.3203156E-008  0.8333367E+03  0.7818608E-02  0.9512979E-01
         -2   -1    0    0    0  501 -0.00000000000E+00  0.00000000000E+00  0.30440714901E+03  0.30440714901E+03  0.00000000000E+00 0.  1.
          2   -1    0    0  501    0  0.00000000000E+00 -0.00000000000E+00 -0.35372627839E+04  0.35372627839E+04  0.00000000000E+00 0. -1.
         23    2    1    2    0    0 -0.36524351755E+03 -0.69305462006E+03 -0.49126403333E+03  0.92789555679E+03  0.76956353598E+02 0.  0.
    5000000    2    1    2    0    0  0.36524351755E+03  0.69305462006E+03 -0.27415916016E+04  0.29137743761E+04  0.60002422588E+03 0.  0.
         23    2    4    4    0    0  0.95772205813E+02  0.54537672653E+03 -0.23021220653E+04  0.23695049957E+04  0.90442422828E+02 0.  0.
         23    2    4    4    0    0  0.26947131174E+03  0.14767789353E+03 -0.43946953621E+03  0.54426938037E+03  0.93124309720E+02 0.  0.
          5    1    3    3  502    0 -0.41088392146E+01 -0.18518094761E+02 -0.25551630360E+02  0.32167968654E+02  0.47000000000E+01 0. -1.
         -5    1    3    3    0  502 -0.36113467834E+03 -0.67453652530E+03 -0.46571240297E+03  0.89572758813E+03  0.47000000000E+01 0.  1.
         13    1    5    5    0    0  0.48066214298E+02  0.81683489854E+02 -0.36935657768E+03  0.38132248156E+03  0.00000000000E+00 0. -1.
        -13    1    5    5    0    0  0.47705991515E+02  0.46369323668E+03 -0.19327654877E+04  0.19881825142E+04  0.00000000000E+00 0.  1.
          1    1    6    6  503    0  0.23300041010E+03  0.15992168558E+03 -0.38829491667E+03  0.48024689373E+03  0.00000000000E+00 0. -1.
         -1    1    6    6    0  503  0.36470901639E+02 -0.12243792050E+02 -0.51174619540E+02  0.64022486637E+02  0.00000000000E+00 0.  1.
<mgrwt>
<rscale>  0 0.83333667E+03</rscale>
<asrwt>0</asrwt>
<pdfrwt beam="1">  1        2 0.54419428E+00 0.83333667E+03</pdfrwt>
<pdfrwt beam="2">  1       -2 0.46831869E-01 0.83333667E+03</pdfrwt>
<totfact> 0.35353753E+00</totfact>
</mgrwt>
</event>
<event>
12    1  0.3203156E-008  0.9934884E+03  0.7818608E-02  0.9315716E-01
         -2   -1    0    0    0  501 -0.00000000000E+00  0.00000000000E+00  0.52314273504E+03  0.52314273504E+03  0.00000000000E+00 0.  1.
          2   -1    0    0  501    0  0.00000000000E+00 -0.00000000000E+00 -0.29713600793E+04  0.29713600793E+04  0.00000000000E+00 0. -1.
         23    2    1    2    0    0  0.23571942783E+03  0.87691713835E+03 -0.11473391195E+03  0.91989753464E+03  0.92197003708E+02 0.  0.
    5000000    2    1    2    0    0 -0.23571942783E+03 -0.87691713835E+03 -0.23334834323E+04  0.25746052797E+04  0.59908271652E+03 0.  0.
         23    2    4    4    0    0 -0.33188553316E+03 -0.88556487043E+03 -0.19565577816E+04  0.21749365012E+04  0.88641327353E+02 0.  0.
         23    2    4    4    0    0  0.96166105334E+02  0.86477320787E+01 -0.37692565074E+03  0.39966877848E+03  0.91320770992E+02 0.  0.
          5    1    3    3  502    0  0.67619705805E+02  0.29970602718E+03 -0.80851860633E+02  0.31773454440E+03  0.47000000000E+01 0. -1.
         -5    1    3    3    0  502  0.16809972202E+03  0.57721111118E+03 -0.33882051317E+02  0.60216299024E+03  0.47000000000E+01 0.  1.
         13    1    5    5    0    0 -0.74264114048E+02 -0.28126426788E+03 -0.53651596422E+03  0.61030658434E+03  0.00000000000E+00 0.  1.
        -13    1    5    5    0    0 -0.25762141911E+03 -0.60430060255E+03 -0.14200418173E+04  0.15646299169E+04  0.00000000000E+00 0. -1.
          1    1    6    6  503    0  0.10095224259E+03  0.32720086179E+02 -0.33100361910E+03  0.34759941770E+03  0.00000000000E+00 0. -1.
         -1    1    6    6    0  503 -0.47861372607E+01 -0.24072354101E+02 -0.45922031639E+02  0.52069360777E+02  0.00000000000E+00 0.  1.
<mgrwt>
<rscale>  0 0.99348844E+03</rscale>
<asrwt>0</asrwt>
<pdfrwt beam="1">  1        2 0.45713232E+00 0.99348844E+03</pdfrwt>
<pdfrwt beam="2">  1       -2 0.80483497E-01 0.99348844E+03</pdfrwt>
<totfact> 0.25275584E+00</totfact>
</mgrwt>
</event>
<event>
12    1  0.3203156E-008  0.7558904E+03  0.7818608E-02  0.9626154E-01
         -2   -1    0    0    0  501 -0.00000000000E+00  0.00000000000E+00  0.98659322409E+03  0.98659322409E+03  0.00000000000E+00 0.  1.
          2   -1    0    0  501    0  0.00000000000E+00 -0.00000000000E+00 -0.64673502303E+03  0.64673502303E+03  0.00000000000E+00 0. -1.
         23    2    1    2    0    0 -0.42120481430E+03 -0.53616227234E+03  0.11843207045E+03  0.69833950472E+03  0.93639898859E+02 0.  0.
    5000000    2    1    2    0    0  0.42120481430E+03  0.53616227234E+03  0.22142613061E+03  0.93498874240E+03  0.60024240039E+03 0.  0.
         23    2    4    4    0    0  0.24674055153E+03 -0.11911011499E+02 -0.85124490401E+02  0.27686019238E+03  0.91556623431E+02 0.  0.
         23    2    4    4    0    0  0.17446426278E+03  0.54807328384E+03  0.30655062102E+03  0.65812855002E+03  0.91311563682E+02 0.  0.
          5    1    3    3  502    0 -0.98800462352E+02 -0.18928863314E+03  0.54808584339E+02  0.22049441924E+03  0.47000000000E+01 0. -1.
         -5    1    3    3    0  502 -0.32240435195E+03 -0.34687363920E+03  0.63623486115E+02  0.47784508548E+03  0.47000000000E+01 0.  1.
         13    1    5    5    0    0  0.12371898611E+03 -0.14222685971E+01 -0.90472563861E+02  0.15327653174E+03  0.00000000000E+00 0.  1.
        -13    1    5    5    0    0  0.12302156542E+03 -0.10488742901E+02  0.53480734603E+01  0.12358366064E+03  0.00000000000E+00 0. -1.
          3    1    6    6  503    0  0.16673663257E+03  0.54336580662E+03  0.31116143549E+03  0.64797294957E+03  0.00000000000E+00 0. -1.
         -3    1    6    6    0  503  0.77276302009E+01  0.47074772244E+01 -0.46108144747E+01  0.10155600448E+02  0.00000000000E+00 0.  1.
<mgrwt>
<rscale>  0 0.75589035E+03</rscale>
<asrwt>0</asrwt>
<pdfrwt beam="1">  1        2 0.99497696E-01 0.75589035E+03</pdfrwt>
<pdfrwt beam="2">  1       -2 0.15178357E+00 0.75589035E+03</pdfrwt>
<totfact> 0.13324724E+01</totfact>
</mgrwt>
</event>
<event>
12    1  0.3203156E-008  0.8882797E+03  0.7818608E-02  0.9440352E-01
          2   -1    0    0  501    0  0.00000000000E+00  0.00000000000E+00  0.20179385772E+04  0.20179385772E+04  0.00000000000E+00 0.  1.
         -2   -1    0    0    0  501 -0.00000000000E+00 -0.00000000000E+00 -0.53532290290E+03  0.53532290290E+03  0.00000000000E+00 0. -1.
         23    2    1    2    0    0  0.86713925598E+03  0.84158401642E+02  0.11486166185E+04  0.14439722121E+04  0.81990774172E+02 0.  0.
    5000000    2    1    2    0    0 -0.86713925598E+03 -0.84158401642E+02  0.33399905580E+03  0.11092892681E+04  0.59996181973E+03 0.  0.
         23    2    4    4    0    0 -0.88079035911E+02 -0.29289788908E+02 -0.14127943129E+03  0.19098770005E+03  0.88885406914E+02 0.  0.
         23    2    4    4    0    0 -0.77906022007E+03 -0.54868612734E+02  0.47527848709E+03  0.91830156801E+03  0.86271306722E+02 0.  0.
          5    1    3    3  502    0  0.39491594666E+03  0.63081298999E+02  0.57989326350E+03  0.70444030425E+03  0.47000000000E+01 0. -1.
         -5    1    3    3    0  502  0.47222330932E+03  0.21077102643E+02  0.56872335501E+03  0.73953190780E+03  0.47000000000E+01 0.  1.
         11    1    5    5    0    0 -0.21571322012E+02  0.24479736235E+02 -0.96698813601E+01  0.34030663011E+02  0.00000000000E+00 0.  1.
        -11    1    5    5    0    0 -0.66507713899E+02 -0.53769525143E+02 -0.13160954993E+03  0.15695703704E+03  0.00000000000E+00 0. -1.
          4    1    6    6  503    0 -0.51657874370E+02 -0.25836935005E+02  0.34767210948E+02  0.67415444462E+02  0.00000000000E+00 0. -1.
         -4    1    6    6    0  503 -0.72740234570E+03 -0.29031677729E+02  0.44051127614E+03  0.85088612355E+03  0.00000000000E+00 0.  1.
<mgrwt>
<rscale>  0 0.88827971E+03</rscale>
<asrwt>0</asrwt>
<pdfrwt beam="1">  1        2 0.31045208E+00 0.88827971E+03</pdfrwt>
<pdfrwt beam="2">  1       -2 0.82357371E-01 0.88827971E+03</pdfrwt>
<totfact> 0.85868847E+00</totfact>
</mgrwt>
</event>
<event>
12    1  0.3203156E-008  0.1226696E+04  0.7818608E-02  0.9089805E-01
         -1   -1    0    0    0  501 -0.00000000000E+00  0.00000000000E+00  0.10103099401E+04  0.10103099401E+04  0.00000000000E+00 0.  1.
          1   -1    0    0  501    0  0.00000000000E+00 -0.00000000000E+00 -0.21230279917E+04  0.21230279917E+04  0.00000000000E+00 0. -1.
         23    2    1    2    0    0 -0.94488213971E+03 -0.74297786604E+03 -0.13044751051E+04  0.17762788585E+04  0.93235808468E+02 0.  0.
    5000000    2    1    2    0    0  0.94488213971E+03  0.74297786604E+03  0.19175705347E+03  0.13570590733E+04  0.60001682759E+03 0.  0.
         23    2    4    4    0    0  0.41085062237E+03  0.50659130784E+03  0.34894302009E+03  0.74561720544E+03  0.93545703792E+02 0.  0.
         23    2    4    4    0    0  0.53403151734E+03  0.23638655821E+03 -0.15718596661E+03  0.61144186782E+03  0.89919203841E+02 0.  0.
          5    1    3    3  502    0 -0.86202248679E+03 -0.64312860284E+03 -0.11754006388E+04  0.15931998993E+04  0.47000000000E+01 0. -1.
         -5    1    3    3    0  502 -0.82859652912E+02 -0.99849263199E+02 -0.12907446632E+03  0.18307895919E+03  0.47000000000E+01 0.  1.
         13    1    5    5    0    0  0.17727269355E+02  0.65742529135E+02  0.41193012053E+02  0.79581407740E+02  0.00000000000E+00 0.  1.
        -13    1    5    5    0    0  0.39312335302E+03  0.44084877870E+03  0.30775000803E+03  0.66603579770E+03  0.00000000000E+00 0. -1.
          1    1    6    6  503    0  0.39094160026E+03  0.21002144514E+03 -0.98693056575E+02  0.45462584798E+03  0.00000000000E+00 0. -1.
         -1    1    6    6    0  503  0.14308991707E+03  0.26365113063E+02 -0.58492910038E+02  0.15681601984E+03  0.00000000000E+00 0.  1.
<mgrwt>
<rscale>  0 0.12266958E+04</rscale>
<asrwt>0</asrwt>
<pdfrwt beam="1">  1        1 0.32661969E+00 0.12266958E+04</pdfrwt>
<pdfrwt beam="2">  1       -1 0.15543230E+00 0.12266958E+04</pdfrwt>
<totfact> 0.76285998E-01</totfact>
</mgrwt>
</event>
<event>
12    1  0.3203156E-008  0.1549162E+04  0.7818608E-02  0.8852403E-01
          1   -1    0    0  501    0  0.00000000000E+00  0.00000000000E+00  0.10082352584E+04  0.10082352584E+04  0.00000000000E+00 0. -1.
         -1   -1    0    0    0  501 -0.00000000000E+00 -0.00000000000E+00 -0.29371359533E+04  0.29371359533E+04  0.00000000000E+00 0.  1.
         23    2    1    2    0    0  0.10097728589E+04  0.11542319840E+04 -0.18606886569E+03  0.15474936176E+04  0.90676205608E+02 0.  0.
    5000000    2    1    2    0    0 -0.10097728589E+04 -0.11542319840E+04 -0.17428318292E+04  0.23978775940E+04  0.60038443648E+03 0.  0.
         23    2    4    4    0    0 -0.69563345125E+03 -0.98907966373E+03 -0.10089910476E+04  0.15775463087E+04  0.91678471881E+02 0.  0.
         23    2    4    4    0    0 -0.31413940767E+03 -0.16515232027E+03 -0.73384078162E+03  0.82033128536E+03  0.91990589882E+02 0.  0.
          5    1    3    3  502    0  0.51336373176E+03  0.56309166025E+03 -0.13504540838E+03  0.77386942778E+03  0.47000000000E+01 0. -1.
         -5    1    3    3    0  502  0.49640912716E+03  0.59114032375E+03 -0.51023457300E+02  0.77362418983E+03  0.47000000000E+01 0.  1.
         13    1    5    5    0    0 -0.50255461050E+03 -0.70147575972E+03 -0.66572474462E+03  0.10898710078E+04  0.00000000000E+00 0.  1.
        -13    1    5    5    0    0 -0.19307884075E+03 -0.28760390401E+03 -0.34326630298E+03  0.48767530090E+03  0.00000000000E+00 0. -1.
          1    1    6    6  503    0 -0.18734970241E+03 -0.10438095613E+03 -0.33838472113E+03  0.40062390654E+03  0.00000000000E+00 0. -1.
         -1    1    6    6    0  503 -0.12678970527E+03 -0.60771364147E+02 -0.39545606048E+03  0.41970737882E+03  0.00000000000E+00 0.  1.
<mgrwt>
<rscale>  0 0.15491621E+04</rscale>
<asrwt>0</asrwt>
<pdfrwt beam="1">  1        1 0.15511312E+00 0.15491621E+04</pdfrwt>
<pdfrwt beam="2">  1       -1 0.45186707E+00 0.15491621E+04</pdfrwt>
<totfact> 0.44259757E-02</totfact>
</mgrwt>
</event>
<event>
12    1  0.3203156E-008  0.5476044E+03  0.7818608E-02  0.1002050E+00
          2   -1    0    0  501    0  0.00000000000E+00  0.00000000000E+00  0.18374714877E+04  0.18374714877E+04  0.00000000000E+00 0.  1.
         -2   -1    0    0    0  501 -0.00000000000E+00 -0.00000000000E+00 -0.19798228812E+03  0.19798228812E+03  0.00000000000E+00 0. -1.
         23    2    1    2    0    0  0.39284131928E+03  0.26866929227E+02  0.26291895814E+03  0.48263327359E+03  0.93607500835E+02 0.  0.
    5000000    2    1    2    0    0 -0.39284131928E+03 -0.26866929227E+02  0.13765702414E+04  0.15528205022E+04  0.60104887363E+03 0.  0.
         23    2    4    4    0    0 -0.21653546632E+02  0.23542390327E+03  0.55489682063E+03  0.60944496658E+03  0.87289148403E+02 0.  0.
         23    2    4    4    0    0 -0.37118777264E+03 -0.26229083249E+03  0.82167342081E+03  0.94337553565E+03  0.90737794877E+02 0.  0.
          5    1    3    3  502    0  0.36202867293E+03  0.20150247872E+02  0.20509584975E+03  0.41660195642E+03  0.47000000000E+01 0. -1.
         -5    1    3    3    0  502  0.30812646348E+02  0.67166813548E+01  0.57823108386E+02  0.66031317167E+02  0.47000000000E+01 0.  1.
         11    1    5    5    0    0  0.68707277359E+01  0.97817672551E+02  0.32991379452E+03  0.34417817446E+03  0.00000000000E+00 0. -1.
        -11    1    5    5    0    0 -0.28524274368E+02  0.13760623072E+03  0.22498302611E+03  0.26526679212E+03  0.00000000000E+00 0.  1.
          3    1    6    6  503    0 -0.27502334530E+03 -0.14653502663E+03  0.51937592854E+03  0.60569110084E+03  0.00000000000E+00 0. -1.
         -3    1    6    6    0  503 -0.96164427344E+02 -0.11575580587E+03  0.30229749227E+03  0.33768443481E+03  0.00000000000E+00 0.  1.
<mgrwt>
<rscale>  0 0.54760438E+03</rscale>
<asrwt>0</asrwt>
<pdfrwt beam="1">  1        2 0.28268791E+00 0.54760438E+03</pdfrwt>
<pdfrwt beam="2">  1       -2 0.30458815E-01 0.54760438E+03</pdfrwt>
<totfact> 0.86036785E+01</totfact>
</mgrwt>
</event>
<event>
12    1  0.3203156E-008  0.8195801E+03  0.7818608E-02  0.9532100E-01
          2   -1    0    0  501    0  0.00000000000E+00  0.00000000000E+00  0.97140786665E+03  0.97140786665E+03  0.00000000000E+00 0. -1.
         -2   -1    0    0    0  501 -0.00000000000E+00 -0.00000000000E+00 -0.10418045296E+04  0.10418045296E+04  0.00000000000E+00 0.  1.
         23    2    1    2    0    0 -0.42777451295E+03  0.64366167988E+03  0.45605951831E+03  0.90200684725E+03  0.91294447591E+02 0.  0.
    5000000    2    1    2    0    0  0.42777451295E+03 -0.64366167988E+03 -0.52645618126E+03  0.11112055490E+04  0.60027516129E+03 0.  0.
         23    2    4    4    0    0  0.37034425306E+02 -0.38161155562E+03  0.73480495768E+01  0.39393067411E+03  0.90157939898E+02 0.  0.
         23    2    4    4    0    0  0.39074008764E+03 -0.26205012426E+03 -0.53380423084E+03  0.71727487489E+03  0.90488704116E+02 0.  0.
          5    1    3    3  502    0 -0.85755691238E+02  0.98070694402E+02  0.44368616195E+02  0.13770462513E+03  0.47000000000E+01 0. -1.
         -5    1    3    3    0  502 -0.34201882171E+03  0.54559098548E+03  0.41169090212E+03  0.76430222211E+03  0.47000000000E+01 0.  1.
         11    1    5    5    0    0  0.67120495541E+02 -0.26703458434E+03  0.19835468147E+01  0.27534807901E+03  0.00000000000E+00 0. -1.
        -11    1    5    5    0    0 -0.30086070234E+02 -0.11457697129E+03  0.53645027621E+01  0.11858259510E+03  0.00000000000E+00 0.  1.
          4    1    6    6  503    0  0.91008450328E+02 -0.73105818183E+02 -0.19362251775E+03  0.22608997781E+03  0.00000000000E+00 0.  1.
         -4    1    6    6    0  503  0.29973163731E+03 -0.18894430607E+03 -0.34018171308E+03  0.49118489708E+03  0.00000000000E+00 0. -1.
<mgrwt>
<rscale>  0 0.81958014E+03</rscale>
<asrwt>0</asrwt>
<pdfrwt beam="1">  1        2 0.14944736E+00 0.81958014E+03</pdfrwt>
<pdfrwt beam="2">  1       -2 0.16027762E+00 0.81958014E+03</pdfrwt>
<totfact> 0.66577091E+00</totfact>
</mgrwt>
</event>
<event>
12    1  0.3203156E-008  0.1413677E+04  0.7818608E-02  0.8943978E-01
         -2   -1    0    0    0  501 -0.00000000000E+00  0.00000000000E+00  0.62790541179E+03  0.62790541179E+03  0.00000000000E+00 0.  1.
          2   -1    0    0  501    0  0.00000000000E+00 -0.00000000000E+00 -0.33263096574E+04  0.33263096574E+04  0.00000000000E+00 0. -1.
         23    2    1    2    0    0  0.10661809490E+04  0.87813766568E+03 -0.12952784968E+04  0.18957973666E+04  0.91835151415E+02 0.  0.
    5000000    2    1    2    0    0 -0.10661809490E+04 -0.87813766568E+03 -0.14031257488E+04  0.20584177026E+04  0.60037821039E+03 0.  0.
         23    2    4    4    0    0 -0.94482436628E+03 -0.55431215791E+03 -0.80837142783E+03  0.13645410887E+04  0.92482245825E+02 0.  0.
         23    2    4    4    0    0 -0.12135658271E+03 -0.32382550777E+03 -0.59475432092E+03  0.69387661389E+03  0.90231221889E+02 0.  0.
          5    1    3    3  502    0  0.85473411172E+03  0.72551330585E+03 -0.10926538614E+04  0.15655205235E+04  0.47000000000E+01 0. -1.
         -5    1    3    3    0  502  0.21144683727E+03  0.15262435983E+03 -0.20262463540E+03  0.33027684308E+03  0.47000000000E+01 0.  1.
         13    1    5    5    0    0 -0.87526503433E+02 -0.53917225059E+02 -0.11175701359E+03  0.15184724577E+03  0.00000000000E+00 0. -1.
        -13    1    5    5    0    0 -0.85729786285E+03 -0.50039493285E+03 -0.69661441424E+03  0.12126938429E+04  0.00000000000E+00 0.  1.
          4    1    6    6  503    0 -0.37295710217E+02 -0.17580514834E+03 -0.23464704412E+03  0.29556328509E+03  0.00000000000E+00 0.  1.
         -4    1    6    6    0  503 -0.84060872491E+02 -0.14802035943E+03 -0.36010727681E+03  0.39831332880E+03  0.00000000000E+00 0. -1.
<mgrwt>
<rscale>  0 0.14136769E+04</rscale>
<asrwt>0</asrwt>
<pdfrwt beam="1">  1        2 0.51173994E+00 0.14136769E+04</pdfrwt>
<pdfrwt beam="2">  1       -2 0.96600835E-01 0.14136769E+04</pdfrwt>
<totfact> 0.92993678E-01</totfact>
</mgrwt>
</event>
<event>
12    1  0.3203156E-008  0.1614569E+04  0.7818608E-02  0.8811647E-01
         -1   -1    0    0    0  501 -0.00000000000E+00  0.00000000000E+00  0.16809468992E+04  0.16809468992E+04  0.00000000000E+00 0.  1.
          1   -1    0    0  501    0  0.00000000000E+00 -0.00000000000E+00 -0.20562263614E+04  0.20562263614E+04  0.00000000000E+00 0. -1.
         23    2    1    2    0    0  0.13432152527E+04  0.79319413981E+03 -0.11044148144E+04  0.19135239264E+04  0.91965081040E+02 0.  0.
    5000000    2    1    2    0    0 -0.13432152527E+04 -0.79319413981E+03  0.72913535223E+03  0.18236493341E+04  0.60056171507E+03 0.  0.
         23    2    4    4    0    0 -0.94039446644E+03 -0.23224812843E+03  0.46741370393E+03  0.10793244081E+04  0.90469119267E+02 0.  0.
         23    2    4    4    0    0 -0.40282078623E+03 -0.56094601138E+03  0.26172164830E+03  0.74432492608E+03  0.92716562144E+02 0.  0.
          5    1    3    3  502    0  0.55704656788E+03  0.29938973315E+03 -0.40243395705E+03  0.74960674416E+03  0.47000000000E+01 0. -1.
         -5    1    3    3    0  502  0.78616868478E+03  0.49380440666E+03 -0.70198085737E+03  0.11639171822E+04  0.47000000000E+01 0.  1.
         13    1    5    5    0    0 -0.29535256139E+03 -0.30255335350E+02  0.14701404228E+03  0.33130295722E+03  0.00000000000E+00 0.  1.
        -13    1    5    5    0    0 -0.64504190505E+03 -0.20199279308E+03  0.32039966165E+03  0.74802145084E+03  0.00000000000E+00 0. -1.
          3    1    6    6  503    0 -0.39521740751E+03 -0.51630505882E+03  0.23296089719E+03  0.69067973228E+03  0.00000000000E+00 0. -1.
         -3    1    6    6    0  503 -0.76033787147E+01 -0.44640952561E+02  0.28760751111E+02  0.53645193801E+02  0.00000000000E+00 0.  1.
<mgrwt>
<rscale>  0 0.16145692E+04</rscale>
<asrwt>0</asrwt>
<pdfrwt beam="1">  1        1 0.31634252E+00 0.16145692E+04</pdfrwt>
<pdfrwt beam="2">  1       -1 0.25860721E+00 0.16145692E+04</pdfrwt>
<totfact> 0.15558096E-01</totfact>
</mgrwt>
</event>
<event>
12    1  0.3203156E-008  0.6993497E+03  0.7818608E-02  0.9718345E-01
          1   -1    0    0  501    0  0.00000000000E+00  0.00000000000E+00  0.73774556623E+03  0.73774556623E+03  0.00000000000E+00 0. -1.
         -1   -1    0    0    0  501 -0.00000000000E+00 -0.00000000000E+00 -0.76354464425E+03  0.76354464425E+03  0.00000000000E+00 0.  1.
         23    2    1    2    0    0 -0.53443977299E+03  0.22143693212E+03  0.22814354857E+03  0.63002975876E+03  0.10113274599E+03 0.  0.
    5000000    2    1    2    0    0  0.53443977299E+03 -0.22143693212E+03 -0.25394262659E+03  0.87126045172E+03  0.59995644115E+03 0.  0.
         23    2    4    4    0    0  0.16901973557E+03 -0.37792253072E+03 -0.10304590114E+03  0.43655311614E+03  0.92558388224E+02 0.  0.
         23    2    4    4    0    0  0.36542003742E+03  0.15648559860E+03 -0.15089672545E+03  0.43470733558E+03  0.90449430839E+02 0.  0.
          5    1    3    3  502    0 -0.28151557214E+03  0.11956640572E+03  0.66573669130E+02  0.31305157108E+03  0.47000000000E+01 0. -1.
         -5    1    3    3    0  502 -0.25292420084E+03  0.10187052640E+03  0.16156987943E+03  0.31697818767E+03  0.47000000000E+01 0.  1.
         13    1    5    5    0    0  0.14627822705E+03 -0.33794378693E+03 -0.59131277789E+02  0.37296089720E+03  0.00000000000E+00 0. -1.
        -13    1    5    5    0    0  0.22741508523E+02 -0.39978743793E+02 -0.43914623347E+02  0.63592218933E+02  0.00000000000E+00 0.  1.
          1    1    6    6  503    0  0.31149085294E+03  0.98546545397E+02 -0.10477803547E+03  0.34309825093E+03  0.00000000000E+00 0. -1.
         -1    1    6    6    0  503  0.53929184478E+02  0.57939053206E+02 -0.46118689978E+02  0.91609084649E+02  0.00000000000E+00 0.  1.
<mgrwt>
<rscale>  0 0.69934970E+03</rscale>
<asrwt>0</asrwt>
<pdfrwt beam="1">  1        1 0.11349932E+00 0.69934970E+03</pdfrwt>
<pdfrwt beam="2">  1       -1 0.11746841E+00 0.69934970E+03</pdfrwt>
<totfact> 0.16951068E+01</totfact>
</mgrwt>
</event>
<event>
12    1  0.3203156E-008  0.7867839E+03  0.7818608E-02  0.9579346E-01
         -2   -1    0    0    0  501 -0.00000000000E+00  0.00000000000E+00  0.45522623754E+03  0.45522623754E+03  0.00000000000E+00 0.  1.
          2   -1    0    0  501    0  0.00000000000E+00 -0.00000000000E+00 -0.16256299543E+04  0.16256299543E+04  0.00000000000E+00 0. -1.
         23    2    1    2    0    0  0.67893369348E+03  0.30417223923E+03 -0.65310124516E+03  0.99405643359E+03  0.90195595722E+02 0.  0.
    5000000    2    1    2    0    0 -0.67893369348E+03 -0.30417223923E+03 -0.51730247156E+03  0.10867997582E+04  0.60005012797E+03 0.  0.
         23    2    4    4    0    0 -0.70707892996E+03 -0.30304650200E+03 -0.26875544840E+03  0.81994983154E+03  0.91051851318E+02 0.  0.
         23    2    4    4    0    0  0.28145236487E+02 -0.11257372273E+01 -0.24854702317E+03  0.26684992666E+03  0.92950734307E+02 0.  0.
          5    1    3    3  502    0  0.43113221689E+03  0.15235255276E+03 -0.42937246562E+03  0.62727114792E+03  0.47000000000E+01 0. -1.
         -5    1    3    3    0  502  0.24780147658E+03  0.15181968647E+03 -0.22372877954E+03  0.36678528568E+03  0.47000000000E+01 0.  1.
         13    1    5    5    0    0 -0.40110823309E+02 -0.28855204648E+02 -0.39489790316E+02  0.63253019856E+02  0.00000000000E+00 0. -1.
        -13    1    5    5    0    0 -0.66696810666E+03 -0.27419129736E+03 -0.22926565808E+03  0.75669681169E+03  0.00000000000E+00 0.  1.
          3    1    6    6  503    0 -0.70086734338E+01 -0.15580781251E+02 -0.17848861261E+01  0.17177545406E+02  0.00000000000E+00 0. -1.
         -3    1    6    6    0  503  0.35153909921E+02  0.14455044024E+02 -0.24676213704E+03  0.24967238125E+03  0.00000000000E+00 0.  1.
<mgrwt>
<rscale>  0 0.78678394E+03</rscale>
<asrwt>0</asrwt>
<pdfrwt beam="1">  1        2 0.25009692E+00 0.78678394E+03</pdfrwt>
<pdfrwt beam="2">  1       -2 0.70034806E-01 0.78678394E+03</pdfrwt>
<totfact> 0.20468976E+01</totfact>
</mgrwt>
</event>
<event>
12    1  0.3203156E-008  0.8629023E+03  0.7818608E-02  0.9473182E-01
          2   -1    0    0  501    0  0.00000000000E+00  0.00000000000E+00  0.22293482275E+04  0.22293482275E+04  0.00000000000E+00 0.  1.
         -2   -1    0    0    0  501 -0.00000000000E+00 -0.00000000000E+00 -0.57039600449E+03  0.57039600449E+03  0.00000000000E+00 0. -1.
         23    2    1    2    0    0  0.12270733371E+03  0.77850783087E+03  0.16252663067E+04  0.18085957652E+04  0.91632645958E+02 0.  0.
    5000000    2    1    2    0    0 -0.12270733371E+03 -0.77850783087E+03  0.33685916294E+02  0.99114846676E+03  0.60009083457E+03 0.  0.
         23    2    4    4    0    0 -0.94875734385E+02  0.46503556098E+02  0.76279972289E+02  0.15895613025E+03  0.91018852257E+02 0.  0.
         23    2    4    4    0    0 -0.27831599321E+02 -0.82501138697E+03 -0.42594055996E+02  0.83219233652E+03  0.96495827872E+02 0.  0.
          5    1    3    3  502    0  0.83589931512E+02  0.60324010212E+03  0.11665558236E+04  0.13159637066E+04  0.47000000000E+01 0. -1.
         -5    1    3    3    0  502  0.39117402194E+02  0.17526772876E+03  0.45871048312E+03  0.49263205866E+03  0.47000000000E+01 0.  1.
         13    1    5    5    0    0 -0.17239041795E+02  0.16036433898E+02  0.71658429771E+02  0.75427331462E+02  0.00000000000E+00 0. -1.
        -13    1    5    5    0    0 -0.77636692590E+02  0.30467122199E+02  0.46215425183E+01  0.83528798786E+02  0.00000000000E+00 0.  1.
          3    1    6    6  503    0  0.30480263731E+02 -0.40653204287E+03 -0.14963147033E+01  0.40767583607E+03  0.00000000000E+00 0. -1.
         -3    1    6    6    0  503 -0.58311863053E+02 -0.41847934410E+03 -0.41097741292E+02  0.42451650045E+03  0.00000000000E+00 0.  1.
<mgrwt>
<rscale>  0 0.86290233E+03</rscale>
<asrwt>0</asrwt>
<pdfrwt beam="1">  1        2 0.34297665E+00 0.86290233E+03</pdfrwt>
<pdfrwt beam="2">  1       -2 0.87753233E-01 0.86290233E+03</pdfrwt>
<totfact> 0.56993218E+00</totfact>
</mgrwt>
</event>
<event>
12    1  0.3203156E-008  0.3700820E+03  0.7818608E-02  0.1054662E+00
          2   -1    0    0  501    0  0.00000000000E+00  0.00000000000E+00  0.20770799580E+04  0.20770799580E+04  0.00000000000E+00 0. -1.
         -2   -1    0    0    0  501 -0.00000000000E+00 -0.00000000000E+00 -0.13211878293E+03  0.13211878293E+03  0.00000000000E+00 0.  1.
         23    2    1    2    0    0 -0.32208197171E+03 -0.59299951254E+02  0.87367531786E+03  0.93839829451E+03  0.10014747821E+03 0.  0.
    5000000    2    1    2    0    0  0.32208197171E+03  0.59299951254E+02  0.10712858572E+04  0.12708004464E+04  0.60002258796E+03 0.  0.
         23    2    4    4    0    0  0.74635726672E+01 -0.18462024226E+02  0.87718917186E+03  0.88221888815E+03  0.91938958689E+02 0.  0.
         23    2    4    4    0    0  0.31461839905E+03  0.77761975480E+02  0.19409668537E+03  0.38858155829E+03  0.91051866127E+02 0.  0.
          5    1    3    3  502    0 -0.18143129000E+03  0.16511578080E+02  0.48723900489E+03  0.52020561616E+03  0.47000000000E+01 0. -1.
         -5    1    3    3    0  502 -0.14065068171E+03 -0.75811529335E+02  0.38643631297E+03  0.41819267835E+03  0.47000000000E+01 0.  1.
         11    1    5    5    0    0 -0.89411956236E+01 -0.42766410644E+02  0.21571684010E+03  0.22009694674E+03  0.00000000000E+00 0.  1.
        -11    1    5    5    0    0  0.16404768291E+02  0.24304386417E+02  0.66147233176E+03  0.66212194141E+03  0.00000000000E+00 0. -1.
          3    1    6    6  503    0  0.30585250138E+03  0.79730859621E+02  0.20322780340E+03  0.37577160970E+03  0.00000000000E+00 0. -1.
         -3    1    6    6    0  503  0.87658976614E+01 -0.19688841407E+01 -0.91311180302E+01  0.12809948597E+02  0.00000000000E+00 0.  1.
<mgrwt>
<rscale>  0 0.37008198E+03</rscale>
<asrwt>0</asrwt>
<pdfrwt beam="1">  1        2 0.31955074E+00 0.37008198E+03</pdfrwt>
<pdfrwt beam="2">  1       -2 0.20325968E-01 0.37008198E+03</pdfrwt>
<totfact> 0.13601519E+02</totfact>
</mgrwt>
</event>
<event>
12    1  0.3203156E-008  0.5706141E+03  0.7818608E-02  0.9968321E-01
         -2   -1    0    0    0  501 -0.00000000000E+00  0.00000000000E+00  0.11690161338E+03  0.11690161338E+03  0.00000000000E+00 0.  1.
          2   -1    0    0  501    0  0.00000000000E+00 -0.00000000000E+00 -0.31430294118E+04  0.31430294118E+04  0.00000000000E+00 0. -1.
         23    2    1    2    0    0  0.36050322405E+03 -0.23695586337E+03 -0.78622578958E+03  0.90126439001E+03  0.89531294872E+02 0.  0.
    5000000    2    1    2    0    0 -0.36050322405E+03  0.23695586337E+03 -0.22399020088E+04  0.23586666351E+04  0.60003052501E+03 0.  0.
         23    2    4    4    0    0  0.13429992429E+03 -0.27179103204E+02 -0.38991864087E+03  0.42340128873E+03  0.91961576136E+02 0.  0.
         23    2    4    4    0    0 -0.49480314834E+03  0.26413496657E+03 -0.18499833679E+04  0.19352653464E+04  0.90642502190E+02 0.  0.
          5    1    3    3  502    0  0.15547418914E+03 -0.14318871757E+03 -0.32257389558E+03  0.38568282362E+03  0.47000000000E+01 0. -1.
         -5    1    3    3    0  502  0.20502903491E+03 -0.93767145803E+02 -0.46365189400E+03  0.51558156639E+03  0.47000000000E+01 0.  1.
         11    1    5    5    0    0  0.37159623579E+02  0.10735961172E+02 -0.30784773805E+02  0.49434813492E+02  0.00000000000E+00 0.  1.
        -11    1    5    5    0    0  0.97140300711E+02 -0.37915064376E+02 -0.35913386707E+03  0.37396647524E+03  0.00000000000E+00 0. -1.
          1    1    6    6  503    0 -0.13434347926E+03  0.83318610133E+02 -0.66540473827E+03  0.68392516179E+03  0.00000000000E+00 0. -1.
         -1    1    6    6    0  503 -0.36045966908E+03  0.18081635644E+03 -0.11845786297E+04  0.12513401846E+04  0.00000000000E+00 0.  1.
<mgrwt>
<rscale>  0 0.57061408E+03</rscale>
<asrwt>0</asrwt>
<pdfrwt beam="1">  1        2 0.48354299E+00 0.57061408E+03</pdfrwt>
<pdfrwt beam="2">  1       -2 0.17984863E-01 0.57061408E+03</pdfrwt>
<totfact> 0.39722548E+01</totfact>
</mgrwt>
</event>
<event>
12    1  0.3203156E-008  0.3920460E+03  0.7818608E-02  0.1046569E+00
          1   -1    0    0  501    0  0.00000000000E+00  0.00000000000E+00  0.15250184912E+04  0.15250184912E+04  0.00000000000E+00 0. -1.
         -1   -1    0    0    0  501 -0.00000000000E+00 -0.00000000000E+00 -0.16936759753E+03  0.16936759753E+03  0.00000000000E+00 0.  1.
         23    2    1    2    0    0  0.15923761506E+03  0.27894404698E+03  0.49477829152E+03  0.59696469021E+03  0.91623600677E+02 0.  0.
    5000000    2    1    2    0    0 -0.15923761506E+03 -0.27894404698E+03  0.86087260210E+03  0.10974213985E+04  0.60005473866E+03 0.  0.
         23    2    4    4    0    0 -0.22978524305E+03 -0.92473411422E+02  0.83513966528E+03  0.87581316251E+03  0.90762576847E+02 0.  0.
         23    2    4    4    0    0  0.70547627985E+02 -0.18647063556E+03  0.25732936814E+02  0.22160823596E+03  0.93272506494E+02 0.  0.
          5    1    3    3  502    0  0.85767872593E+01  0.12866251064E+02  0.80137992884E+02  0.81751388977E+02  0.47000000000E+01 0. -1.
         -5    1    3    3    0  502  0.15066082781E+03  0.26607779592E+03  0.41464029864E+03  0.51521330124E+03  0.47000000000E+01 0.  1.
         11    1    5    5    0    0 -0.82068994283E+02 -0.79684220363E+02  0.32380990764E+03  0.34342066199E+03  0.00000000000E+00 0.  1.
        -11    1    5    5    0    0 -0.14771624877E+03 -0.12789191060E+02  0.51132975765E+03  0.53239250052E+03  0.00000000000E+00 0. -1.
          2    1    6    6  503    0  0.11258731040E+02 -0.36623417986E+02 -0.32517338269E+02  0.50253468116E+02  0.00000000000E+00 0. -1.
         -2    1    6    6    0  503  0.59288896945E+02 -0.14984721757E+03  0.58250275082E+02  0.17135476784E+03  0.00000000000E+00 0.  1.
<mgrwt>
<rscale>  0 0.39204598E+03</rscale>
<asrwt>0</asrwt>
<pdfrwt beam="1">  1        1 0.23461822E+00 0.39204598E+03</pdfrwt>
<pdfrwt beam="2">  1       -1 0.26056555E-01 0.39204598E+03</pdfrwt>
<totfact> 0.87992234E+01</totfact>
</mgrwt>
</event>
<event>
12    1  0.3203156E-008  0.9536463E+03  0.7818608E-02  0.9360899E-01
          1   -1    0    0  501    0  0.00000000000E+00  0.00000000000E+00  0.22661627659E+04  0.22661627659E+04  0.00000000000E+00 0. -1.
         -1   -1    0    0    0  501 -0.00000000000E+00 -0.00000000000E+00 -0.10991742221E+04  0.10991742221E+04  0.00000000000E+00 0.  1.
         23    2    1    2    0    0  0.39657934690E+03 -0.77864096550E+03 -0.76292174192E+03  0.11635165343E+04  0.90356016698E+02 0.  0.
    5000000    2    1    2    0    0 -0.39657934690E+03  0.77864096550E+03  0.19299102857E+04  0.22018204538E+04  0.59991888473E+03 0.  0.
         23    2    4    4    0    0 -0.20310872701E+03  0.79668015077E+03  0.13500857238E+04  0.15834389455E+04  0.92709303812E+02 0.  0.
         23    2    4    4    0    0 -0.19347061989E+03 -0.18039185272E+02  0.57982456194E+03  0.61838150827E+03  0.91885114000E+02 0.  0.
          5    1    3    3  502    0  0.13732173925E+03 -0.24402238496E+03 -0.19235799742E+03  0.33974677865E+03  0.47000000000E+01 0. -1.
         -5    1    3    3    0  502  0.25925760765E+03 -0.53461858053E+03 -0.57056374451E+03  0.82376975565E+03  0.47000000000E+01 0.  1.
         13    1    5    5    0    0 -0.11401461472E+03  0.28599828655E+03  0.46420120723E+03  0.55702523558E+03  0.00000000000E+00 0. -1.
        -13    1    5    5    0    0 -0.89094112289E+02  0.51068186422E+03  0.88588451653E+03  0.10264137099E+04  0.00000000000E+00 0.  1.
          2    1    6    6  503    0 -0.14179741926E+03  0.19193544806E+02  0.31452857364E+03  0.34554757112E+03  0.00000000000E+00 0. -1.
         -2    1    6    6    0  503 -0.51673200632E+02 -0.37232730079E+02  0.26529598830E+03  0.27283393715E+03  0.00000000000E+00 0.  1.
<mgrwt>
<rscale>  0 0.95364635E+03</rscale>
<asrwt>0</asrwt>
<pdfrwt beam="1">  1        1 0.34864043E+00 0.95364635E+03</pdfrwt>
<pdfrwt beam="2">  1       -1 0.16910373E+00 0.95364635E+03</pdfrwt>
<totfact> 0.50204131E-01</totfact>
</mgrwt>
</event>
<event>
12    1  0.3203156E-008  0.6989196E+03  0.7818608E-02  0.9719082E-01
          1   -1    0    0  501    0  0.00000000000E+00  0.00000000000E+00  0.61152968929E+03  0.61152968929E+03  0.00000000000E+00 0. -1.
         -1   -1    0    0    0  501 -0.00000000000E+00 -0.00000000000E+00 -0.95068341560E+03  0.95068341560E+03  0.00000000000E+00 0.  1.
         23    2    1    2    0    0 -0.55288487207E+03  0.26875311099E+03  0.40468593881E+02  0.62306905219E+03  0.93098981094E+02 0.  0.
    5000000    2    1    2    0    0  0.55288487207E+03 -0.26875311099E+03 -0.37962232019E+03  0.93914405270E+03  0.59997377385E+03 0.  0.
         23    2    4    4    0    0 -0.69643941195E+02 -0.32254962467E+02  0.62407017531E+02  0.13465172521E+03  0.91355296048E+02 0.  0.
         23    2    4    4    0    0  0.62252881326E+03 -0.23649814853E+03 -0.44202933772E+03  0.80449232749E+03  0.91348081475E+02 0.  0.
          5    1    3    3  502    0 -0.24728186139E+03  0.11838494295E+03 -0.28015481294E+02  0.27562705035E+03  0.47000000000E+01 0. -1.
         -5    1    3    3    0  502 -0.30560301068E+03  0.15036816804E+03  0.68484075175E+02  0.34744200185E+03  0.47000000000E+01 0.  1.
         13    1    5    5    0    0 -0.33665095744E+02  0.26631024247E+02  0.47557567688E+02  0.64064595279E+02  0.00000000000E+00 0.  1.
        -13    1    5    5    0    0 -0.35978845451E+02 -0.58885986714E+02  0.14849449843E+02  0.70587129931E+02  0.00000000000E+00 0. -1.
          3    1    6    6  503    0  0.24259069244E+03 -0.13584795656E+03 -0.16067347397E+03  0.32112439427E+03  0.00000000000E+00 0. -1.
         -3    1    6    6    0  503  0.37993812082E+03 -0.10065019197E+03 -0.28135586375E+03  0.48336793322E+03  0.00000000000E+00 0.  1.
<mgrwt>
<rscale>  0 0.69891957E+03</rscale>
<asrwt>0</asrwt>
<pdfrwt beam="1">  1        1 0.94081491E-01 0.69891957E+03</pdfrwt>
<pdfrwt beam="2">  1       -1 0.14625899E+00 0.69891957E+03</pdfrwt>
<totfact> 0.12881924E+01</totfact>
</mgrwt>
</event>
<event>
12    1  0.3203156E-008  0.7768627E+03  0.7818608E-02  0.9594125E-01
          2   -1    0    0  501    0  0.00000000000E+00  0.00000000000E+00  0.59920124105E+03  0.59920124105E+03  0.00000000000E+00 0. -1.
         -2   -1    0    0    0  501 -0.00000000000E+00 -0.00000000000E+00 -0.14715438988E+04  0.14715438988E+04  0.00000000000E+00 0.  1.
         23    2    1    2    0    0 -0.43270461287E+03  0.59570437960E+03  0.54261512646E+02  0.74375412630E+03  0.90160405710E+02 0.  0.
    5000000    2    1    2    0    0  0.43270461287E+03 -0.59570437960E+03 -0.92660417039E+03  0.13269910135E+04  0.60017736676E+03 0.  0.
         23    2    4    4    0    0  0.42172480284E+02 -0.30329898726E+03 -0.56409187277E+02  0.32505813647E+03  0.93338105345E+02 0.  0.
         23    2    4    4    0    0  0.39053213259E+03 -0.29240539234E+03 -0.87019498311E+03  0.10019328771E+04  0.92811214207E+02 0.  0.
          5    1    3    3  502    0 -0.24259869929E+03  0.39864573898E+03  0.13448948775E+02  0.46687848347E+03  0.47000000000E+01 0. -1.
         -5    1    3    3    0  502 -0.19010591359E+03  0.19705864061E+03  0.40812563872E+02  0.27687564283E+03  0.47000000000E+01 0.  1.
         11    1    5    5    0    0  0.54004416560E+02 -0.80107449863E+02 -0.18222307875E+02  0.98314459953E+02  0.00000000000E+00 0.  1.
        -11    1    5    5    0    0 -0.11831936276E+02 -0.22319153739E+03 -0.38186879402E+02  0.22674367651E+03  0.00000000000E+00 0. -1.
          1    1    6    6  503    0  0.16717852014E+03 -0.81930474649E+02 -0.38804467239E+03  0.43039508366E+03  0.00000000000E+00 0. -1.
         -1    1    6    6    0  503  0.22335361245E+03 -0.21047491769E+03 -0.48215031073E+03  0.57153779342E+03  0.00000000000E+00 0.  1.
<mgrwt>
<rscale>  0 0.77686270E+03</rscale>
<asrwt>0</asrwt>
<pdfrwt beam="1">  1        2 0.92184807E-01 0.77686270E+03</pdfrwt>
<pdfrwt beam="2">  1       -2 0.22639137E+00 0.77686270E+03</pdfrwt>
<totfact> 0.45699341E+00</totfact>
</mgrwt>
</event>
<event>
12    1  0.3203156E-008  0.1630224E+04  0.7818608E-02  0.8802192E-01
         -2   -1    0    0    0  501 -0.00000000000E+00  0.00000000000E+00  0.77433206489E+03  0.77433206489E+03  0.00000000000E+00 0.  1.
          2   -1    0    0  501    0  0.00000000000E+00 -0.00000000000E+00 -0.34792848606E+04  0.34792848606E+04  0.00000000000E+00 0. -1.
         23    2    1    2    0    0  0.98064070633E+03  0.12326065022E+04 -0.15401096324E+04  0.22047490655E+04  0.89475013380E+02 0.  0.
    5000000    2    1    2    0    0 -0.98064070633E+03 -0.12326065022E+04 -0.11648431634E+04  0.20488678600E+04  0.60002077341E+03 0.  0.
         23    2    4    4    0    0  0.31915763752E+02 -0.26502708961E+03 -0.18221102840E+03  0.33537412568E+03  0.89537540170E+02 0.  0.
         23    2    4    4    0    0 -0.10125564701E+04 -0.96757941255E+03 -0.98263213499E+03  0.17134937344E+04  0.94943879685E+02 0.  0.
          5    1    3    3  502    0  0.18909249197E+03  0.19592278150E+03 -0.29614242024E+03  0.40232341455E+03  0.47000000000E+01 0. -1.
         -5    1    3    3    0  502  0.79154821436E+03  0.10366837207E+04 -0.12439672121E+04  0.18024256509E+04  0.47000000000E+01 0.  1.
         13    1    5    5    0    0  0.53318327192E+02 -0.93732626148E+02 -0.55841268453E+02  0.12143680036E+03  0.00000000000E+00 0. -1.
        -13    1    5    5    0    0 -0.21402563440E+02 -0.17129446346E+03 -0.12636975995E+03  0.21393732532E+03  0.00000000000E+00 0.  1.
          3    1    6    6  503    0 -0.97335529670E+03 -0.90265132258E+03 -0.93874869888E+03  0.16258687104E+04  0.00000000000E+00 0. -1.
         -3    1    6    6    0  503 -0.39201173384E+02 -0.64928089977E+02 -0.43883436115E+02  0.87625023983E+02  0.00000000000E+00 0.  1.
<mgrwt>
<rscale>  0 0.16302244E+04</rscale>
<asrwt>0</asrwt>
<pdfrwt beam="1">  1        2 0.53527459E+00 0.16302244E+04</pdfrwt>
<pdfrwt beam="2">  1       -2 0.11912801E+00 0.16302244E+04</pdfrwt>
<totfact> 0.42894859E-01</totfact>
</mgrwt>
</event>
<event>
12    1  0.3203156E-008  0.1256690E+04  0.7818608E-02  0.9064633E-01
          2   -1    0    0  501    0  0.00000000000E+00  0.00000000000E+00  0.26833939309E+04  0.26833939309E+04  0.00000000000E+00 0.  1.
         -2   -1    0    0    0  501 -0.00000000000E+00 -0.00000000000E+00 -0.64898581332E+03  0.64898581332E+03  0.00000000000E+00 0. -1.
         23    2    1    2    0    0 -0.10863017334E+04 -0.60980303428E+03  0.10854457937E+04  0.16548790895E+04  0.92309442642E+02 0.  0.
    5000000    2    1    2    0    0  0.10863017334E+04  0.60980303428E+03  0.94896232396E+03  0.16775006548E+04  0.60130504568E+03 0.  0.
         23    2    4    4    0    0  0.64184549817E+03  0.26061195685E+03  0.84344329662E+03  0.10952763494E+04  0.91375332369E+02 0.  0.
         23    2    4    4    0    0  0.44445623522E+03  0.34919107743E+03  0.10551902733E+03  0.58222430539E+03  0.91515698532E+02 0.  0.
          5    1    3    3  502    0 -0.69569645524E+03 -0.43300608968E+03  0.74275371809E+03  0.11059805637E+04  0.47000000000E+01 0. -1.
         -5    1    3    3    0  502 -0.39060527815E+03 -0.17679694460E+03  0.34269207559E+03  0.54889852578E+03  0.47000000000E+01 0.  1.
         13    1    5    5    0    0  0.19536820908E+03  0.85392806426E+02  0.19666900774E+03  0.29006786639E+03  0.00000000000E+00 0.  1.
        -13    1    5    5    0    0  0.44647728909E+03  0.17521915042E+03  0.64677428888E+03  0.80520848301E+03  0.00000000000E+00 0. -1.
          3    1    6    6  503    0  0.34122689637E+03  0.31262611820E+03  0.92493821580E+02  0.47193854644E+03  0.00000000000E+00 0. -1.
         -3    1    6    6    0  503  0.10322933885E+03  0.36564959234E+02  0.13025205754E+02  0.11028575895E+03  0.00000000000E+00 0.  1.
<mgrwt>
<rscale>  0 0.12566901E+04</rscale>
<asrwt>0</asrwt>
<pdfrwt beam="1">  1        2 0.41282983E+00 0.12566901E+04</pdfrwt>
<pdfrwt beam="2">  1       -2 0.99843973E-01 0.12566901E+04</pdfrwt>
<totfact> 0.22052097E+00</totfact>
</mgrwt>
</event>
<event>
12    1  0.3203156E-008  0.8220101E+03  0.7818608E-02  0.9528694E-01
          2   -1    0    0  501    0  0.00000000000E+00  0.00000000000E+00  0.11957420704E+04  0.11957420704E+04  0.00000000000E+00 0. -1.
         -2   -1    0    0    0  501 -0.00000000000E+00 -0.00000000000E+00 -0.64108184494E+03  0.64108184494E+03  0.00000000000E+00 0.  1.
         23    2    1    2    0    0  0.64082103263E+03 -0.34911264960E+03  0.50281329620E+03  0.89059172866E+03  0.88324279508E+02 0.  0.
    5000000    2    1    2    0    0 -0.64082103263E+03  0.34911264960E+03  0.51846929306E+02  0.94623218673E+03  0.60011333025E+03 0.  0.
         23    2    4    4    0    0 -0.52932722944E+03  0.54822719757E+01  0.15436106740E+03  0.55876042782E+03  0.90379784431E+02 0.  0.
         23    2    4    4    0    0 -0.11149380319E+03  0.34363037762E+03 -0.10251413810E+03  0.38747175891E+03  0.95459472381E+02 0.  0.
          5    1    3    3  502    0  0.29482403041E+03 -0.20519398473E+03  0.22202241700E+03  0.42230536810E+03  0.47000000000E+01 0. -1.
         -5    1    3    3    0  502  0.34599700222E+03 -0.14391866487E+03  0.28079087920E+03  0.46828636056E+03  0.47000000000E+01 0.  1.
         11    1    5    5    0    0 -0.73364017053E+02  0.31111794259E+02  0.32808076178E+02  0.86177680420E+02  0.00000000000E+00 0. -1.
        -11    1    5    5    0    0 -0.45596321239E+03 -0.25629522283E+02  0.12155299123E+03  0.47258274740E+03  0.00000000000E+00 0.  1.
          1    1    6    6  503    0 -0.10177137882E+03  0.15910067867E+03 -0.50217442260E+02  0.19542832703E+03  0.00000000000E+00 0. -1.
         -1    1    6    6    0  503 -0.97224243734E+01  0.18452969895E+03 -0.52296695839E+02  0.19204343188E+03  0.00000000000E+00 0.  1.
<mgrwt>
<rscale>  0 0.82201007E+03</rscale>
<asrwt>0</asrwt>
<pdfrwt beam="1">  1        2 0.18396032E+00 0.82201007E+03</pdfrwt>
<pdfrwt beam="2">  1       -2 0.98627977E-01 0.82201007E+03</pdfrwt>
<totfact> 0.16441819E+01</totfact>
</mgrwt>
</event>
<event>
12    1  0.3203156E-008  0.1326222E+04  0.7818608E-02  0.9009026E-01
          1   -1    0    0  501    0  0.00000000000E+00  0.00000000000E+00  0.19866091986E+04  0.19866091986E+04  0.00000000000E+00 0. -1.
         -1   -1    0    0    0  501 -0.00000000000E+00 -0.00000000000E+00 -0.10962492680E+04  0.10962492680E+04  0.00000000000E+00 0.  1.
         23    2    1    2    0    0 -0.11216926160E+04  0.60340573891E+03  0.10666345596E+04  0.16639175951E+04  0.92842171943E+02 0.  0.
    5000000    2    1    2    0    0  0.11216926160E+04 -0.60340573891E+03 -0.17627462904E+03  0.14189408716E+04  0.60002303413E+03 0.  0.
         23    2    4    4    0    0 -0.37208086788E+02 -0.21088206399E+02  0.24819906060E+02  0.10327805025E+03  0.90670688507E+02 0.  0.
         23    2    4    4    0    0  0.11589007028E+04 -0.58231753251E+03 -0.20109453510E+03  0.13156628213E+04  0.91570189657E+02 0.  0.
          5    1    3    3  502    0 -0.70421011693E+03  0.41959620138E+03  0.65133131462E+03  0.10470088024E+04  0.47000000000E+01 0. -1.
         -5    1    3    3    0  502 -0.41748249911E+03  0.18380953754E+03  0.41530324496E+03  0.61690879263E+03  0.47000000000E+01 0.  1.
         11    1    5    5    0    0 -0.48013704677E+02  0.54376923529E+01 -0.18166962005E+02  0.51622890692E+02  0.00000000000E+00 0.  1.
        -11    1    5    5    0    0  0.10805617889E+02 -0.26525898752E+02  0.42986868065E+02  0.51655159555E+02  0.00000000000E+00 0. -1.
          4    1    6    6  503    0  0.36430921647E+03 -0.22605061214E+03 -0.46729397614E+02  0.43128148703E+03  0.00000000000E+00 0. -1.
         -4    1    6    6    0  503  0.79459148636E+03 -0.35626692037E+03 -0.15436513748E+03  0.88438133427E+03  0.00000000000E+00 0.  1.
<mgrwt>
<rscale>  0 0.13262215E+04</rscale>
<asrwt>0</asrwt>
<pdfrwt beam="1">  1        1 0.30563218E+00 0.13262215E+04</pdfrwt>
<pdfrwt beam="2">  1       -1 0.16865373E+00 0.13262215E+04</pdfrwt>
<totfact> 0.74048849E-01</totfact>
</mgrwt>
</event>
<event>
12    1  0.3203156E-008  0.1162232E+04  0.7818608E-02  0.9146573E-01
          2   -1    0    0  501    0  0.00000000000E+00  0.00000000000E+00  0.10121219245E+04  0.10121219245E+04  0.00000000000E+00 0. -1.
         -2   -1    0    0    0  501 -0.00000000000E+00 -0.00000000000E+00 -0.21729951955E+04  0.21729951955E+04  0.00000000000E+00 0.  1.
         23    2    1    2    0    0  0.97990678778E+03  0.50027831529E+03 -0.15229477768E+04  0.18811672696E+04  0.94470418362E+02 0.  0.
    5000000    2    1    2    0    0 -0.97990678778E+03 -0.50027831529E+03  0.36207450582E+03  0.13039498504E+04  0.59890864005E+03 0.  0.
         23    2    4    4    0    0 -0.77687948834E+03 -0.61353056778E+03  0.22900399191E+03  0.10200379630E+04  0.89850546525E+02 0.  0.
         23    2    4    4    0    0 -0.20302729944E+03  0.11325225248E+03  0.13307051392E+03  0.28391188738E+03  0.94085286372E+02 0.  0.
          5    1    3    3  502    0  0.43395749341E+03  0.22775301151E+03 -0.75798773407E+03  0.90263948249E+03  0.47000000000E+01 0. -1.
         -5    1    3    3    0  502  0.54594929437E+03  0.27252530378E+03 -0.76496004271E+03  0.97852778712E+03  0.47000000000E+01 0.  1.
         13    1    5    5    0    0 -0.63700105095E+03 -0.51702399541E+03  0.22214316304E+03  0.84995984354E+03  0.00000000000E+00 0.  1.
        -13    1    5    5    0    0 -0.13987843740E+03 -0.96506572365E+02  0.68608288648E+01  0.17007811949E+03  0.00000000000E+00 0. -1.
          1    1    6    6  503    0 -0.55180676884E+02  0.18583529212E+02 -0.79005113208E+01  0.58759448078E+02  0.00000000000E+00 0. -1.
         -1    1    6    6    0  503 -0.14784662255E+03  0.94668723272E+02  0.14097102524E+03  0.22515243930E+03  0.00000000000E+00 0.  1.
<mgrwt>
<rscale>  0 0.11622316E+04</rscale>
<asrwt>0</asrwt>
<pdfrwt beam="1">  1        2 0.15571107E+00 0.11622316E+04</pdfrwt>
<pdfrwt beam="2">  1       -2 0.33430695E+00 0.11622316E+04</pdfrwt>
<totfact> 0.47611758E-01</totfact>
</mgrwt>
</event>
<event>
12    1  0.3203156E-008  0.5785373E+03  0.7818608E-02  0.9950963E-01
         -2   -1    0    0    0  501 -0.00000000000E+00  0.00000000000E+00  0.43359660689E+03  0.43359660689E+03  0.00000000000E+00 0.  1.
          2   -1    0    0  501    0  0.00000000000E+00 -0.00000000000E+00 -0.23030295046E+04  0.23030295046E+04  0.00000000000E+00 0. -1.
         23    2    1    2    0    0 -0.15368076478E+03  0.50024271467E+03 -0.18664828840E+04  0.19404801077E+04  0.88567155712E+02 0.  0.
    5000000    2    1    2    0    0  0.15368076478E+03 -0.50024271467E+03 -0.29500137158E+01  0.79614600381E+03  0.59998267121E+03 0.  0.
         23    2    4    4    0    0  0.18166442384E+03 -0.92236028290E+02 -0.22969510676E+03  0.32001267709E+03  0.90215428966E+02 0.  0.
         23    2    4    4    0    0 -0.27983659061E+02 -0.40800668638E+03  0.22674509305E+03  0.47613332672E+03  0.89649686480E+02 0.  0.
          5    1    3    3  502    0 -0.55129481869E+02  0.12563451564E+03 -0.36919195809E+03  0.39388841467E+03  0.47000000000E+01 0. -1.
         -5    1    3    3    0  502 -0.98551282906E+02  0.37460819903E+03 -0.14972909259E+04  0.15465916930E+04  0.47000000000E+01 0.  1.
         13    1    5    5    0    0 -0.59717187332E+00 -0.26507332619E+02 -0.45598182781E+02  0.52746464998E+02  0.00000000000E+00 0. -1.
        -13    1    5    5    0    0  0.18226159571E+03 -0.65728695671E+02 -0.18409692398E+03  0.26726621209E+03  0.00000000000E+00 0.  1.
          2    1    6    6  503    0 -0.41937077735E+02 -0.24675798553E+03  0.17788131288E+03  0.30706674093E+03  0.00000000000E+00 0. -1.
         -2    1    6    6    0  503  0.13953418674E+02 -0.16124870085E+03  0.48863780164E+02  0.16906658579E+03  0.00000000000E+00 0.  1.
<mgrwt>
<rscale>  0 0.57853728E+03</rscale>
<asrwt>0</asrwt>
<pdfrwt beam="1">  1        2 0.35431223E+00 0.57853728E+03</pdfrwt>
<pdfrwt beam="2">  1       -2 0.66707171E-01 0.57853728E+03</pdfrwt>
<totfact> 0.10036790E+01</totfact>
</mgrwt>
</event>
<event>
12    1  0.3203156E-008  0.1881928E+04  0.7818608E-02  0.8663904E-01
         -1   -1    0    0    0  501 -0.00000000000E+00  0.00000000000E+00  0.17153029902E+04  0.17153029902E+04  0.00000000000E+00 0.  1.
          1   -1    0    0  501    0  0.00000000000E+00 -0.00000000000E+00 -0.21686661214E+04  0.21686661214E+04  0.00000000000E+00 0. -1.
         23    2    1    2    0    0  0.15720699917E+04  0.10257587385E+04 -0.96741905236E+02  0.18813902187E+04  0.81762524768E+02 0.  0.
    5000000    2    1    2    0    0 -0.15720699917E+04 -0.10257587385E+04 -0.35662122598E+03  0.20025788929E+04  0.59963194965E+03 0.  0.
         23    2    4    4    0    0 -0.52733201180E+03 -0.37984943338E+03 -0.40206388252E+03  0.76976403010E+03  0.92285717717E+02 0.  0.
         23    2    4    4    0    0 -0.10447379799E+04 -0.64590930516E+03  0.45442656540E+02  0.12328148628E+04  0.95347647200E+02 0.  0.
          5    1    3    3  502    0  0.70328047689E+03  0.50314084769E+03 -0.60825938857E+02  0.86687716929E+03  0.47000000000E+01 0. -1.
         -5    1    3    3    0  502  0.86878951478E+03  0.52261789084E+03 -0.35915966379E+02  0.10145130494E+04  0.47000000000E+01 0.  1.
         13    1    5    5    0    0 -0.97436423656E+02 -0.11735720341E+03 -0.10119196643E+03  0.18304749088E+03  0.00000000000E+00 0.  1.
        -13    1    5    5    0    0 -0.42989558814E+03 -0.26249222997E+03 -0.30087191609E+03  0.58671653922E+03  0.00000000000E+00 0. -1.
          1    1    6    6  503    0 -0.83451947924E+03 -0.49573211451E+03  0.92269094244E+00  0.97065644898E+03  0.00000000000E+00 0. -1.
         -1    1    6    6    0  503 -0.21021850063E+03 -0.15017719065E+03  0.44519965597E+02  0.26215841382E+03  0.00000000000E+00 0.  1.
<mgrwt>
<rscale>  0 0.18819284E+04</rscale>
<asrwt>0</asrwt>
<pdfrwt beam="1">  1        1 0.33364094E+00 0.18819284E+04</pdfrwt>
<pdfrwt beam="2">  1       -1 0.26389277E+00 0.18819284E+04</pdfrwt>
<totfact> 0.11701033E-01</totfact>
</mgrwt>
</event>
<event>
12    1  0.3203156E-008  0.9522002E+03  0.7818608E-02  0.9362583E-01
          2   -1    0    0  501    0  0.00000000000E+00  0.00000000000E+00  0.20230154850E+04  0.20230154850E+04  0.00000000000E+00 0. -1.
         -2   -1    0    0    0  501 -0.00000000000E+00 -0.00000000000E+00 -0.46393950980E+03  0.46393950980E+03  0.00000000000E+00 0.  1.
         23    2    1    2    0    0 -0.79276300684E+03  0.36125991472E+03  0.62754596976E+03  0.10773932948E+04  0.89333400852E+02 0.  0.
    5000000    2    1    2    0    0  0.79276300684E+03 -0.36125991472E+03  0.93153000548E+03  0.14095617001E+04  0.60011175972E+03 0.  0.
         23    2    4    4    0    0  0.79692829047E+03 -0.16970706230E+03  0.59974409537E+03  0.10159271023E+04  0.92302275448E+02 0.  0.
         23    2    4    4    0    0 -0.41652836351E+01 -0.19155285243E+03  0.33178591011E+03  0.39363459778E+03  0.90313130619E+02 0.  0.
          5    1    3    3  502    0 -0.48346409729E+02  0.44341667374E+02  0.60722765366E+02  0.89514820185E+02  0.47000000000E+01 0. -1.
         -5    1    3    3    0  502 -0.74441659711E+03  0.31691824735E+03  0.56682320439E+03  0.98787847461E+03  0.47000000000E+01 0.  1.
         11    1    5    5    0    0  0.52780467034E+03 -0.77551206930E+02  0.35631296256E+03  0.64152231997E+03  0.00000000000E+00 0. -1.
        -11    1    5    5    0    0  0.26912362013E+03 -0.92155855367E+02  0.24343113281E+03  0.37440478230E+03  0.00000000000E+00 0.  1.
          3    1    6    6  503    0  0.38634661119E+02 -0.13659471012E+03  0.21431466217E+03  0.25706327294E+03  0.00000000000E+00 0. -1.
         -3    1    6    6    0  503 -0.42799944754E+02 -0.54958142304E+02  0.11747124794E+03  0.13657132484E+03  0.00000000000E+00 0.  1.
<mgrwt>
<rscale>  0 0.95220021E+03</rscale>
<asrwt>0</asrwt>
<pdfrwt beam="1">  1        2 0.31123315E+00 0.95220021E+03</pdfrwt>
<pdfrwt beam="2">  1       -2 0.71375310E-01 0.95220021E+03</pdfrwt>
<totfact> 0.11654944E+01</totfact>
</mgrwt>
</event>
<event>
12    1  0.3203156E-008  0.1121105E+04  0.7818608E-02  0.9184862E-01
          2   -1    0    0  501    0  0.00000000000E+00  0.00000000000E+00  0.27885788565E+04  0.27885788565E+04  0.00000000000E+00 0. -1.
         -2   -1    0    0    0  501 -0.00000000000E+00 -0.00000000000E+00 -0.45683599506E+03  0.45683599506E+03  0.00000000000E+00 0.  1.
         23    2    1    2    0    0  0.92355904713E+03  0.48755647185E+03  0.11883905524E+04  0.15846398795E+04  0.90215385444E+02 0.  0.
    5000000    2    1    2    0    0 -0.92355904713E+03 -0.48755647185E+03  0.11433523091E+04  0.16607749721E+04  0.60020528041E+03 0.  0.
         23    2    4    4    0    0 -0.97741916474E+03 -0.38042789951E+03  0.10273335953E+04  0.14710286801E+04  0.91855601370E+02 0.  0.
         23    2    4    4    0    0  0.53860117603E+02 -0.10712857234E+03  0.11601871379E+03  0.18974629199E+03  0.90365203998E+02 0.  0.
          5    1    3    3  502    0  0.58451426269E+03  0.30410858028E+03  0.68342894041E+03  0.94933458721E+03  0.47000000000E+01 0. -1.
         -5    1    3    3    0  502  0.33904478445E+03  0.18344789157E+03  0.50496161200E+03  0.63530529226E+03  0.47000000000E+01 0.  1.
         13    1    5    5    0    0 -0.53821119325E+03 -0.20874637833E+03  0.50120354130E+03  0.76449416533E+03  0.00000000000E+00 0.  1.
        -13    1    5    5    0    0 -0.43920797148E+03 -0.17168152118E+03  0.52613005398E+03  0.70653451482E+03  0.00000000000E+00 0. -1.
          1    1    6    6  503    0  0.66514287524E+02 -0.33961931790E+02  0.46161907130E+02  0.87797977913E+02  0.00000000000E+00 0. -1.
         -1    1    6    6    0  503 -0.12654169921E+02 -0.73166640553E+02  0.69856806660E+02  0.10194831408E+03  0.00000000000E+00 0.  1.
<mgrwt>
<rscale>  0 0.11211055E+04</rscale>
<asrwt>0</asrwt>
<pdfrwt beam="1">  1        2 0.42901212E+00 0.11211055E+04</pdfrwt>
<pdfrwt beam="2">  1       -2 0.70282462E-01 0.11211055E+04</pdfrwt>
<totfact> 0.43336146E+00</totfact>
</mgrwt>
</event>
<event>
12    1  0.3203156E-008  0.7489496E+03  0.7818608E-02  0.9637000E-01
          2   -1    0    0  501    0  0.00000000000E+00  0.00000000000E+00  0.73223950368E+03  0.73223950368E+03  0.00000000000E+00 0. -1.
         -2   -1    0    0    0  501 -0.00000000000E+00 -0.00000000000E+00 -0.90880897227E+03  0.90880897227E+03  0.00000000000E+00 0.  1.
         23    2    1    2    0    0 -0.21973609140E+03  0.59648226726E+03  0.22352882484E+03  0.67986816860E+03  0.90446371551E+02 0.  0.
    5000000    2    1    2    0    0  0.21973609140E+03 -0.59648226726E+03 -0.40009829343E+03  0.96118030735E+03  0.59976153078E+03 0.  0.
         23    2    4    4    0    0 -0.19138323519E+03 -0.21155299342E+03 -0.98247402579E+02  0.31562133774E+03  0.92639435384E+02 0.  0.
         23    2    4    4    0    0  0.41111932659E+03 -0.38492927384E+03 -0.30185089085E+03  0.64555896961E+03  0.91884581819E+02 0.  0.
          5    1    3    3  502    0 -0.11811891225E+03  0.32939022604E+03  0.75545006729E+02  0.35802113972E+03  0.47000000000E+01 0. -1.
         -5    1    3    3    0  502 -0.10161717915E+03  0.26709204122E+03  0.14798381811E+03  0.32184702889E+03  0.47000000000E+01 0.  1.
         11    1    5    5    0    0 -0.91341731970E+02 -0.38664304952E+02 -0.20544516376E+02  0.10129322598E+03  0.00000000000E+00 0.  1.
        -11    1    5    5    0    0 -0.10004150322E+03 -0.17288868846E+03 -0.77702886203E+02  0.21432811176E+03  0.00000000000E+00 0. -1.
          4    1    6    6  503    0  0.27024968266E+03 -0.25270726526E+03 -0.24648990800E+03  0.44458196953E+03  0.00000000000E+00 0. -1.
         -4    1    6    6    0  503  0.14086964393E+03 -0.13222200859E+03 -0.55360982854E+02  0.20097700007E+03  0.00000000000E+00 0.  1.
<mgrwt>
<rscale>  0 0.74894958E+03</rscale>
<asrwt>0</asrwt>
<pdfrwt beam="1">  1        2 0.11265223E+00 0.74894958E+03</pdfrwt>
<pdfrwt beam="2">  1       -2 0.13981677E+00 0.74894958E+03</pdfrwt>
<totfact> 0.14149085E+01</totfact>
</mgrwt>
</event>
<event>
12    1  0.3203156E-008  0.9907218E+03  0.7818608E-02  0.9318780E-01
          2   -1    0    0  501    0  0.00000000000E+00  0.00000000000E+00  0.85811514283E+03  0.85811514283E+03  0.00000000000E+00 0. -1.
         -2   -1    0    0    0  501 -0.00000000000E+00 -0.00000000000E+00 -0.15185902046E+04  0.15185902046E+04  0.00000000000E+00 0.  1.
         23    2    1    2    0    0  0.19134998040E+02 -0.96535039785E+03 -0.76515637324E+03  0.12352604848E+04  0.90203387033E+02 0.  0.
    5000000    2    1    2    0    0 -0.19134998040E+02  0.96535039785E+03  0.10468131145E+03  0.11414448626E+04  0.59972548614E+03 0.  0.
         23    2    4    4    0    0 -0.15158896516E+03  0.34697826171E+03  0.28031410245E+03  0.47951034325E+03  0.89336693440E+02 0.  0.
         23    2    4    4    0    0  0.13245396712E+03  0.61837213614E+03 -0.17563279100E+03  0.66193451940E+03  0.85920186984E+02 0.  0.
          5    1    3    3  502    0 -0.26195419202E+02 -0.68239812595E+03 -0.52665550597E+03  0.86240449573E+03  0.47000000000E+01 0. -1.
         -5    1    3    3    0  502  0.45330417241E+02 -0.28295227190E+03 -0.23850086727E+03  0.37285598907E+03  0.47000000000E+01 0.  1.
         11    1    5    5    0    0 -0.73294264587E+02  0.14057872269E+03  0.17096900255E+03  0.23316266066E+03  0.00000000000E+00 0.  1.
        -11    1    5    5    0    0 -0.78294700577E+02  0.20639953901E+03  0.10934509991E+03  0.24634768259E+03  0.00000000000E+00 0. -1.
          2    1    6    6  503    0  0.29527526074E+02  0.17524361895E+03 -0.10705298924E+02  0.17803596324E+03  0.00000000000E+00 0. -1.
         -2    1    6    6    0  503  0.10292644105E+03  0.44312851719E+03 -0.16492749208E+03  0.48389855616E+03  0.00000000000E+00 0.  1.
<mgrwt>
<rscale>  0 0.99072180E+03</rscale>
<asrwt>0</asrwt>
<pdfrwt beam="1">  1        2 0.13201772E+00 0.99072180E+03</pdfrwt>
<pdfrwt beam="2">  1       -2 0.23362926E+00 0.99072180E+03</pdfrwt>
<totfact> 0.25331023E+00</totfact>
</mgrwt>
</event>
<event>
12    1  0.3203156E-008  0.3795315E+03  0.7818608E-02  0.1051107E+00
          2   -1    0    0  501    0  0.00000000000E+00  0.00000000000E+00  0.11531515089E+03  0.11531515089E+03  0.00000000000E+00 0. -1.
         -2   -1    0    0    0  501 -0.00000000000E+00 -0.00000000000E+00 -0.20718442944E+04  0.20718442944E+04  0.00000000000E+00 0.  1.
         23    2    1    2    0    0  0.12775478256E+03 -0.26891079640E+03 -0.58539903607E+03  0.66120317176E+03  0.76572201406E+02 0.  0.
    5000000    2    1    2    0    0 -0.12775478256E+03  0.26891079640E+03 -0.13711301074E+04  0.15259562735E+04  0.59992539226E+03 0.  0.
         23    2    4    4    0    0 -0.17399164606E+03  0.30668664757E+03 -0.37161988111E+03  0.52060617433E+03  0.92734351902E+02 0.  0.
         23    2    4    4    0    0  0.46236863507E+02 -0.37775851165E+02 -0.99951022630E+03  0.10053500992E+04  0.90240051661E+02 0.  0.
          5    1    3    3  502    0  0.97430676364E+02 -0.19039826331E+03 -0.33974572743E+03  0.40148908413E+03  0.47000000000E+01 0. -1.
         -5    1    3    3    0  502  0.30324106191E+02 -0.78512533095E+02 -0.24565330864E+03  0.25971408763E+03  0.47000000000E+01 0.  1.
         13    1    5    5    0    0 -0.72851400421E+02  0.15781994093E+03 -0.11989625027E+03  0.21116242831E+03  0.00000000000E+00 0. -1.
        -13    1    5    5    0    0 -0.10114024564E+03  0.14886670663E+03 -0.25172363084E+03  0.30944374603E+03  0.00000000000E+00 0.  1.
          3    1    6    6  503    0 -0.26744241148E+02 -0.58301129569E+01 -0.32523487900E+03  0.32638469813E+03  0.00000000000E+00 0. -1.
         -3    1    6    6    0  503  0.72981104654E+02 -0.31945738209E+02 -0.67427534730E+03  0.67896540104E+03  0.00000000000E+00 0.  1.
<mgrwt>
<rscale>  0 0.37953148E+03</rscale>
<asrwt>0</asrwt>
<pdfrwt beam="1">  1        2 0.17740793E-01 0.37953148E+03</pdfrwt>
<pdfrwt beam="2">  1       -2 0.31874526E+00 0.37953148E+03</pdfrwt>
<totfact> 0.88294824E+00</totfact>
</mgrwt>
</event>
<event>
12    1  0.3203156E-008  0.5477886E+03  0.7818608E-02  0.1002007E+00
         -2   -1    0    0    0  501 -0.00000000000E+00  0.00000000000E+00  0.21112855571E+03  0.21112855571E+03  0.00000000000E+00 0. -1.
          2   -1    0    0  501    0  0.00000000000E+00 -0.00000000000E+00 -0.22376268776E+04  0.22376268776E+04  0.00000000000E+00 0.  1.
         23    2    1    2    0    0  0.43709249437E+03 -0.83111973451E+02 -0.14068416204E+04  0.14782783278E+04  0.90255308338E+02 0.  0.
    5000000    2    1    2    0    0 -0.43709249437E+03  0.83111973451E+02 -0.61965670149E+03  0.97047710555E+03  0.59991160677E+03 0.  0.
         23    2    4    4    0    0  0.83010905856E+02 -0.49425272990E+02 -0.32604356646E+03  0.35206100667E+03  0.91153042101E+02 0.  0.
         23    2    4    4    0    0 -0.52010340022E+03  0.13253724644E+03 -0.29361313503E+03  0.61841609888E+03  0.90311293217E+02 0.  0.
          5    1    3    3  502    0  0.10848285252E+03 -0.60919501277E+02 -0.39903146226E+03  0.41800468036E+03  0.47000000000E+01 0. -1.
         -5    1    3    3    0  502  0.32860964184E+03 -0.22192472174E+02 -0.10078101581E+04  0.10602736474E+04  0.47000000000E+01 0.  1.
         13    1    5    5    0    0  0.15016823935E+02 -0.29588097691E+02 -0.21846489844E+02  0.39726938525E+02  0.00000000000E+00 0. -1.
        -13    1    5    5    0    0  0.67994081921E+02 -0.19837175298E+02 -0.30419707662E+03  0.31233406814E+03  0.00000000000E+00 0.  1.
          1    1    6    6  503    0 -0.43977865667E+03  0.99996082505E+02 -0.20822311953E+03  0.49675079354E+03  0.00000000000E+00 0. -1.
         -1    1    6    6    0  503 -0.80324743551E+02  0.32541163936E+02 -0.85390015500E+02  0.12166530534E+03  0.00000000000E+00 0.  1.
<mgrwt>
<rscale>  0 0.54778862E+03</rscale>
<asrwt>0</asrwt>
<pdfrwt beam="1">  1        2 0.34425028E+00 0.54778862E+03</pdfrwt>
<pdfrwt beam="2">  1       -2 0.32481317E-01 0.54778862E+03</pdfrwt>
<totfact> 0.46344336E+01</totfact>
</mgrwt>
</event>
<event>
12    1  0.3203156E-008  0.3685707E+03  0.7818608E-02  0.1055241E+00
         -1   -1    0    0    0  501 -0.00000000000E+00  0.00000000000E+00  0.15560614880E+03  0.15560614880E+03  0.00000000000E+00 0.  1.
          1   -1    0    0  501    0  0.00000000000E+00 -0.00000000000E+00 -0.18320953947E+04  0.18320953947E+04  0.00000000000E+00 0. -1.
         23    2    1    2    0    0 -0.95874465620E+02 -0.29806533084E+03 -0.25673443845E+03  0.41489123789E+03  0.90483770855E+02 0.  0.
    5000000    2    1    2    0    0  0.95874465620E+02  0.29806533084E+03 -0.14197548074E+04  0.15728103056E+04  0.59999474124E+03 0.  0.
         23    2    4    4    0    0 -0.12002024923E+02 -0.72126518641E+01  0.21067887871E+02  0.92652450109E+02  0.89132203287E+02 0.  0.
         23    2    4    4    0    0  0.10787649054E+03  0.30527798270E+03 -0.14408226953E+04  0.14801578555E+04  0.10032573892E+03 0.  0.
          5    1    3    3  502    0 -0.10933700975E+03 -0.24162513905E+03 -0.22890859600E+03  0.35036912655E+03  0.47000000000E+01 0. -1.
         -5    1    3    3    0  502  0.13462544125E+02 -0.56440191789E+02 -0.27825842455E+02  0.64522111341E+02  0.47000000000E+01 0.  1.
         13    1    5    5    0    0  0.10977217277E+02 -0.42791360273E+02 -0.23795592606E+01  0.44240955182E+02  0.00000000000E+00 0.  1.
        -13    1    5    5    0    0 -0.22979242200E+02  0.35578708409E+02  0.23447447131E+02  0.48411494927E+02  0.00000000000E+00 0. -1.
          4    1    6    6  503    0  0.11268927631E+03  0.29000410684E+03 -0.12304418122E+04  0.12691683530E+04  0.00000000000E+00 0. -1.
         -4    1    6    6    0  503 -0.48127857664E+01  0.15273875861E+02 -0.21038088309E+03  0.21098950249E+03  0.00000000000E+00 0.  1.
<mgrwt>
<rscale>  0 0.36857074E+03</rscale>
<asrwt>0</asrwt>
<pdfrwt beam="1">  1        1 0.28186086E+00 0.36857074E+03</pdfrwt>
<pdfrwt beam="2">  1       -1 0.23939405E-01 0.36857074E+03</pdfrwt>
<totfact> 0.63866044E+01</totfact>
</mgrwt>
</event>
<event>
12    1  0.3203156E-008  0.7656529E+03  0.7818608E-02  0.9611108E-01
          1   -1    0    0  501    0  0.00000000000E+00  0.00000000000E+00  0.40653123917E+04  0.40653123917E+04  0.00000000000E+00 0.  1.
         -1   -1    0    0    0  501 -0.00000000000E+00 -0.00000000000E+00 -0.23088126545E+03  0.23088126545E+03  0.00000000000E+00 0. -1.
         23    2    1    2    0    0 -0.17835547651E+03 -0.68425648961E+03  0.60083597372E+03  0.93223259623E+03  0.89644445384E+02 0.  0.
    5000000    2    1    2    0    0  0.17835547651E+03  0.68425648961E+03  0.32335951525E+04  0.33639610609E+04  0.60006565421E+03 0.  0.
         23    2    4    4    0    0  0.14094235688E+03  0.27902093150E+02  0.14747917682E+04  0.14841449847E+04  0.83858817702E+02 0.  0.
         23    2    4    4    0    0  0.37413119626E+02  0.65635439646E+03  0.17588033843E+04  0.18798160762E+04  0.90101611528E+02 0.  0.
          5    1    3    3  502    0 -0.27789262981E+02 -0.27148136837E+03  0.21447218325E+03  0.34712358591E+03  0.47000000000E+01 0. -1.
         -5    1    3    3    0  502 -0.15056621353E+03 -0.41277512124E+03  0.38636379047E+03  0.58510901032E+03  0.47000000000E+01 0.  1.
         11    1    5    5    0    0  0.54289614502E+02 -0.19297080228E+02  0.32004221602E+03  0.32518726848E+03  0.00000000000E+00 0. -1.
        -11    1    5    5    0    0  0.86652742379E+02  0.47199173378E+02  0.11547495522E+04  0.11589577163E+04  0.00000000000E+00 0.  1.
          1    1    6    6  503    0  0.39264826748E+02  0.11894067396E+03  0.29568029722E+03  0.32111594278E+03  0.00000000000E+00 0. -1.
         -1    1    6    6    0  503 -0.18517071218E+01  0.53741372250E+03  0.14631230871E+04  0.15587001334E+04  0.00000000000E+00 0.  1.
<mgrwt>
<rscale>  0 0.76565292E+03</rscale>
<asrwt>0</asrwt>
<pdfrwt beam="1">  1        1 0.62543262E+00 0.76565292E+03</pdfrwt>
<pdfrwt beam="2">  1       -1 0.35520198E-01 0.76565292E+03</pdfrwt>
<totfact> 0.70182988E-01</totfact>
</mgrwt>
</event>
<event>
12    1  0.3203156E-008  0.1418258E+04  0.7818608E-02  0.8940708E-01
         -2   -1    0    0    0  501 -0.00000000000E+00  0.00000000000E+00  0.21761580397E+04  0.21761580397E+04  0.00000000000E+00 0.  1.
          2   -1    0    0  501    0  0.00000000000E+00 -0.00000000000E+00 -0.14356931733E+04  0.14356931733E+04  0.00000000000E+00 0. -1.
         23    2    1    2    0    0 -0.12779091492E+04 -0.48591003479E+03  0.14184406104E+04  0.19720554214E+04  0.88704364054E+02 0.  0.
    5000000    2    1    2    0    0  0.12779091492E+04  0.48591003479E+03 -0.67797574393E+03  0.16397957916E+04  0.60009896946E+03 0.  0.
         23    2    4    4    0    0  0.12965344163E+04  0.43021086955E+03 -0.54845262862E+03  0.14748770558E+04  0.91537746579E+02 0.  0.
         23    2    4    4    0    0 -0.18625267051E+02  0.55699165236E+02 -0.12952311531E+03  0.16491873577E+03  0.83502421677E+02 0.  0.
          5    1    3    3  502    0 -0.12204329797E+04 -0.45219903820E+03  0.13261472336E+04  0.18581251850E+04  0.47000000000E+01 0. -1.
         -5    1    3    3    0  502 -0.57476169561E+02 -0.33710996591E+02  0.92293376792E+02  0.11393023637E+03  0.47000000000E+01 0.  1.
         13    1    5    5    0    0  0.11786416442E+04  0.38501907493E+03 -0.52480717608E+03  0.13464242962E+04  0.00000000000E+00 0. -1.
        -13    1    5    5    0    0  0.11789277213E+03  0.45191794628E+02 -0.23645452539E+02  0.12845275960E+03  0.00000000000E+00 0.  1.
          3    1    6    6  503    0  0.31675386262E+02  0.36079444456E+02 -0.64337061284E+02  0.80276483865E+02  0.00000000000E+00 0. -1.
         -3    1    6    6    0  503 -0.50300653313E+02  0.19619720780E+02 -0.65186054030E+02  0.84642251903E+02  0.00000000000E+00 0.  1.
<mgrwt>
<rscale>  0 0.14182579E+04</rscale>
<asrwt>0</asrwt>
<pdfrwt beam="1">  1        2 0.22087587E+00 0.14182579E+04</pdfrwt>
<pdfrwt beam="2">  1       -2 0.33479355E+00 0.14182579E+04</pdfrwt>
<totfact> 0.25458905E-01</totfact>
</mgrwt>
</event>
<event>
12    1  0.3203156E-008  0.3165507E+03  0.7818608E-02  0.1077248E+00
          2   -1    0    0  501    0  0.00000000000E+00  0.00000000000E+00  0.44315745162E+03  0.44315745162E+03  0.00000000000E+00 0. -1.
         -2   -1    0    0    0  501 -0.00000000000E+00 -0.00000000000E+00 -0.30621879002E+03  0.30621879002E+03  0.00000000000E+00 0.  1.
         23    2    1    2    0    0  0.44979483900E+02 -0.10220375209E+02  0.10545626278E+03  0.14695107922E+03  0.91356369694E+02 0.  0.
    5000000    2    1    2    0    0 -0.44979483900E+02  0.10220375209E+02  0.31482398812E+02  0.60242516242E+03  0.59983108025E+03 0.  0.
         23    2    4    4    0    0 -0.14347501836E+03 -0.22952464212E+03 -0.97878574915E+02  0.30202438884E+03  0.91497944199E+02 0.  0.
         23    2    4    4    0    0  0.98495534458E+02  0.23974501733E+03  0.12936097373E+03  0.30040077358E+03  0.79544450491E+02 0.  0.
          5    1    3    3  502    0 -0.20770962470E+02  0.12970252498E+00  0.66184006258E+02  0.69525983553E+02  0.47000000000E+01 0. -1.
         -5    1    3    3    0  502  0.65750446370E+02 -0.10350077734E+02  0.39272256523E+02  0.77425095669E+02  0.47000000000E+01 0.  1.
         13    1    5    5    0    0 -0.13558689483E+03 -0.13662706028E+03 -0.64953074817E+02  0.20314935781E+03  0.00000000000E+00 0. -1.
        -13    1    5    5    0    0 -0.78881235292E+01 -0.92897581835E+02 -0.32925500098E+02  0.98875031026E+02  0.00000000000E+00 0.  1.
          1    1    6    6  503    0  0.13513533888E+02  0.42253336319E+02 -0.82646780116E+01  0.45124992309E+02  0.00000000000E+00 0. -1.
         -1    1    6    6    0  503  0.84982000570E+02  0.19749168101E+03  0.13762565174E+03  0.25527578127E+03  0.00000000000E+00 0.  1.
<mgrwt>
<rscale>  0 0.31655069E+03</rscale>
<asrwt>0</asrwt>
<pdfrwt beam="1">  1        2 0.68178069E-01 0.31655069E+03</pdfrwt>
<pdfrwt beam="2">  1       -2 0.47110583E-01 0.31655069E+03</pdfrwt>
<totfact> 0.30981586E+02</totfact>
</mgrwt>
</event>
<event>
12    1  0.3203156E-008  0.7713356E+03  0.7818608E-02  0.9602460E-01
          1   -1    0    0  501    0  0.00000000000E+00  0.00000000000E+00  0.28254735555E+04  0.28254735555E+04  0.00000000000E+00 0.  1.
         -1   -1    0    0    0  501 -0.00000000000E+00 -0.00000000000E+00 -0.22610259846E+03  0.22610259846E+03  0.00000000000E+00 0. -1.
         23    2    1    2    0    0  0.63282040414E+03  0.18166908416E+03  0.77291555174E+03  0.10194488491E+04  0.91717968216E+02 0.  0.
    5000000    2    1    2    0    0 -0.63282040414E+03 -0.18166908416E+03  0.18264554053E+04  0.20321273049E+04  0.60011391899E+03 0.  0.
         23    2    4    4    0    0 -0.50299829852E+03  0.13667151978E+03  0.96891657555E+03  0.11041136865E+04  0.92635358846E+02 0.  0.
         23    2    4    4    0    0 -0.12982210562E+03 -0.31834060395E+03  0.85753882972E+03  0.92801361838E+03  0.87418031294E+02 0.  0.
          5    1    3    3  502    0  0.30275403099E+03  0.11178352382E+03  0.43756374558E+03  0.54372757970E+03  0.47000000000E+01 0. -1.
         -5    1    3    3    0  502  0.33006637315E+03  0.69885560343E+02  0.33535180615E+03  0.47572126936E+03  0.47000000000E+01 0.  1.
         11    1    5    5    0    0 -0.42485564791E+03  0.78726609150E+02  0.78608547685E+03  0.89701202749E+03  0.00000000000E+00 0. -1.
        -11    1    5    5    0    0 -0.78142650613E+02  0.57944910634E+02  0.18283109871E+03  0.20710165902E+03  0.00000000000E+00 0.  1.
          4    1    6    6  503    0  0.36823127796E+01 -0.78803615237E+02  0.15680954399E+03  0.17553575786E+03  0.00000000000E+00 0. -1.
         -4    1    6    6    0  503 -0.13350441840E+03 -0.23953698871E+03  0.70072928573E+03  0.75247786052E+03  0.00000000000E+00 0.  1.
<mgrwt>
<rscale>  0 0.77133558E+03</rscale>
<asrwt>0</asrwt>
<pdfrwt beam="1">  1        1 0.43468821E+00 0.77133558E+03</pdfrwt>
<pdfrwt beam="2">  1       -1 0.34785017E-01 0.77133558E+03</pdfrwt>
<totfact> 0.66358389E+00</totfact>
</mgrwt>
</event>
<event>
12    1  0.3203156E-008  0.9335097E+03  0.7818608E-02  0.9384636E-01
         -1   -1    0    0    0  501 -0.00000000000E+00  0.00000000000E+00  0.89866165856E+03  0.89866165856E+03  0.00000000000E+00 0.  1.
          1   -1    0    0  501    0  0.00000000000E+00 -0.00000000000E+00 -0.14637372504E+04  0.14637372504E+04  0.00000000000E+00 0. -1.
         23    2    1    2    0    0 -0.89497705990E+03  0.73391506694E+02  0.32842780314E+03  0.96062672576E+03  0.92566912919E+02 0.  0.
    5000000    2    1    2    0    0  0.89497705990E+03 -0.73391506694E+02 -0.89350339501E+03  0.14017721832E+04  0.60020553626E+03 0.  0.
         23    2    4    4    0    0  0.45781387329E+03 -0.21036948208E+03 -0.16693124274E+03  0.53806952391E+03  0.88339748652E+02 0.  0.
         23    2    4    4    0    0  0.43716318661E+03  0.13697797539E+03 -0.72657215227E+03  0.86370265931E+03  0.90557019458E+02 0.  0.
          5    1    3    3  502    0 -0.18708282146E+03  0.41893803814E+01  0.31350533964E+02  0.18979588767E+03  0.47000000000E+01 0. -1.
         -5    1    3    3    0  502 -0.70789423844E+03  0.69202126313E+02  0.29707726917E+03  0.77083083810E+03  0.47000000000E+01 0.  1.
         11    1    5    5    0    0  0.34125812522E+03 -0.11593233851E+03 -0.13376160923E+03  0.38443410781E+03  0.00000000000E+00 0. -1.
        -11    1    5    5    0    0  0.11655574807E+03 -0.94437143577E+02 -0.33169633508E+02  0.15363541611E+03  0.00000000000E+00 0.  1.
          1    1    6    6  503    0  0.39346594782E+03  0.12354559742E+03 -0.59128260207E+03  0.72089810809E+03  0.00000000000E+00 0. -1.
         -1    1    6    6    0  503  0.43697238790E+02  0.13432377969E+02 -0.13528955019E+03  0.14280455121E+03  0.00000000000E+00 0.  1.
<mgrwt>
<rscale>  0 0.93350968E+03</rscale>
<asrwt>0</asrwt>
<pdfrwt beam="1">  1        1 0.22519034E+00 0.93350968E+03</pdfrwt>
<pdfrwt beam="2">  1       -1 0.13825564E+00 0.93350968E+03</pdfrwt>
<totfact> 0.30454116E+00</totfact>
</mgrwt>
</event>
<event>
12    1  0.3203156E-008  0.4030640E+03  0.7818608E-02  0.1042724E+00
          2   -1    0    0  501    0  0.00000000000E+00  0.00000000000E+00  0.33612364344E+03  0.33612364344E+03  0.00000000000E+00 0. -1.
         -2   -1    0    0    0  501 -0.00000000000E+00 -0.00000000000E+00 -0.10188799954E+04  0.10188799954E+04  0.00000000000E+00 0.  1.
         23    2    1    2    0    0  0.37440589304E+03 -0.70742795950E+02 -0.47265078893E+03  0.61391879772E+03  0.91176784280E+02 0.  0.
    5000000    2    1    2    0    0 -0.37440589304E+03  0.70742795950E+02 -0.21010556302E+03  0.74108484112E+03  0.59989838990E+03 0.  0.
         23    2    4    4    0    0 -0.40854244269E+01  0.72308987151E+01 -0.32563599631E+03  0.33830120155E+03  0.91323185931E+02 0.  0.
         23    2    4    4    0    0 -0.37032046861E+03  0.63511897235E+02  0.11553043329E+03  0.40278363957E+03  0.87842863833E+02 0.  0.
          5    1    3    3  502    0  0.24426950940E+03 -0.79610459643E+02 -0.26879299249E+03  0.37185639879E+03  0.47000000000E+01 0. -1.
         -5    1    3    3    0  502  0.13013638364E+03  0.88676636935E+01 -0.20385779644E+03  0.24206239893E+03  0.47000000000E+01 0.  1.
         13    1    5    5    0    0  0.84673966075E+01  0.16782046399E+02 -0.82574454003E+01  0.20530934981E+02  0.00000000000E+00 0. -1.
        -13    1    5    5    0    0 -0.12552821034E+02 -0.95511476840E+01 -0.31737855091E+03  0.31777026657E+03  0.00000000000E+00 0.  1.
          3    1    6    6  503    0 -0.20501984676E+03  0.75168437456E+02  0.46455173909E+02  0.22325213266E+03  0.00000000000E+00 0. -1.
         -3    1    6    6    0  503 -0.16530062185E+03 -0.11656540221E+02  0.69075259380E+02  0.17953150691E+03  0.00000000000E+00 0.  1.
<mgrwt>
<rscale>  0 0.40306398E+03</rscale>
<asrwt>0</asrwt>
<pdfrwt beam="1">  1        2 0.51711331E-01 0.40306398E+03</pdfrwt>
<pdfrwt beam="2">  1       -2 0.15675077E+00 0.40306398E+03</pdfrwt>
<totfact> 0.26999351E+01</totfact>
</mgrwt>
</event>
<event>
12    1  0.3203156E-008  0.6385632E+03  0.7818608E-02  0.9828479E-01
          2   -1    0    0  501    0  0.00000000000E+00  0.00000000000E+00  0.98835610616E+03  0.98835610616E+03  0.00000000000E+00 0. -1.
         -2   -1    0    0    0  501 -0.00000000000E+00 -0.00000000000E+00 -0.64811598730E+03  0.64811598730E+03  0.00000000000E+00 0.  1.
         23    2    1    2    0    0 -0.43265221637E+03 -0.31841554104E+03  0.58027768124E+03  0.79611022339E+03  0.92156949486E+02 0.  0.
    5000000    2    1    2    0    0  0.43265221637E+03  0.31841554104E+03 -0.24003756238E+03  0.84036187006E+03  0.60001137006E+03 0.  0.
         23    2    4    4    0    0 -0.65468911764E+02  0.20443557312E+03 -0.22105750382E+03  0.32066979825E+03  0.88784106412E+02 0.  0.
         23    2    4    4    0    0  0.49812112814E+03  0.11397996791E+03 -0.18980058557E+02  0.51969207181E+03  0.92755137305E+02 0.  0.
          5    1    3    3  502    0 -0.20776333867E+03 -0.13299922159E+03  0.20412218048E+03  0.32022234838E+03  0.47000000000E+01 0. -1.
         -5    1    3    3    0  502 -0.22488887771E+03 -0.18541631944E+03  0.37615550076E+03  0.47588787501E+03  0.47000000000E+01 0.  1.
         11    1    5    5    0    0  0.25829212047E+00 -0.26295391710E+01 -0.33666839701E+02  0.33770361066E+02  0.00000000000E+00 0. -1.
        -11    1    5    5    0    0 -0.65727203884E+02  0.20706511229E+03 -0.18739066412E+03  0.28689943719E+03  0.00000000000E+00 0.  1.
          2    1    6    6  503    0  0.35988341627E+03  0.39694053056E+02 -0.45211155094E+01  0.36209409224E+03  0.00000000000E+00 0. -1.
         -2    1    6    6    0  503  0.13823771187E+03  0.74285914857E+02 -0.14458943048E+02  0.15759797957E+03  0.00000000000E+00 0.  1.
<mgrwt>
<rscale>  0 0.63856320E+03</rscale>
<asrwt>0</asrwt>
<pdfrwt beam="1">  1        2 0.15205479E+00 0.63856320E+03</pdfrwt>
<pdfrwt beam="2">  1       -2 0.99710152E-01 0.63856320E+03</pdfrwt>
<totfact> 0.21933113E+01</totfact>
</mgrwt>
</event>
<event>
12    1  0.3203156E-008  0.7111043E+03  0.7818608E-02  0.9698429E-01
          1   -1    0    0  501    0  0.00000000000E+00  0.00000000000E+00  0.46952727856E+03  0.46952727856E+03  0.00000000000E+00 0. -1.
         -1   -1    0    0    0  501 -0.00000000000E+00 -0.00000000000E+00 -0.16607697739E+04  0.16607697739E+04  0.00000000000E+00 0.  1.
         23    2    1    2    0    0 -0.52413036028E+03 -0.30128173089E+03 -0.11195420248E+04  0.12754936874E+04  0.89590654824E+02 0.  0.
    5000000    2    1    2    0    0  0.52413036028E+03  0.30128173089E+03 -0.71700470576E+02  0.85480336508E+03  0.60005376388E+03 0.  0.
         23    2    4    4    0    0  0.23209345271E+03 -0.14312735112E+03 -0.12196276037E+03  0.31289366463E+03  0.93138182394E+02 0.  0.
         23    2    4    4    0    0  0.29203690757E+03  0.44440908201E+03  0.50262289797E+02  0.54190970045E+03  0.91404803555E+02 0.  0.
          5    1    3    3  502    0 -0.33695204842E+03 -0.23984545027E+03 -0.73454663921E+03  0.84299666555E+03  0.47000000000E+01 0. -1.
         -5    1    3    3    0  502 -0.18717831186E+03 -0.61436280620E+02 -0.38499538559E+03  0.43249702187E+03  0.47000000000E+01 0.  1.
         13    1    5    5    0    0  0.15011168619E+03 -0.77655104910E+02 -0.26552799133E+02  0.17108151505E+03  0.00000000000E+00 0. -1.
        -13    1    5    5    0    0  0.81981766516E+02 -0.65472246211E+02 -0.95409961240E+02  0.14181214958E+03  0.00000000000E+00 0.  1.
          2    1    6    6  503    0  0.14569040995E+03  0.15161054846E+03  0.42299526675E+02  0.21447774689E+03  0.00000000000E+00 0. -1.
         -2    1    6    6    0  503  0.14634649762E+03  0.29279853355E+03  0.79627631220E+01  0.32743195356E+03  0.00000000000E+00 0.  1.
<mgrwt>
<rscale>  0 0.71110431E+03</rscale>
<asrwt>0</asrwt>
<pdfrwt beam="1">  1        1 0.72234967E-01 0.71110431E+03</pdfrwt>
<pdfrwt beam="2">  1       -1 0.25550304E+00 0.71110431E+03</pdfrwt>
<totfact> 0.32557132E+00</totfact>
</mgrwt>
</event>
<event>
12    1  0.3203156E-008  0.7736843E+03  0.7818608E-02  0.9598909E-01
         -2   -1    0    0    0  501 -0.00000000000E+00  0.00000000000E+00  0.40114714469E+03  0.40114714469E+03  0.00000000000E+00 0.  1.
          2   -1    0    0  501    0  0.00000000000E+00 -0.00000000000E+00 -0.29641030640E+04  0.29641030640E+04  0.00000000000E+00 0. -1.
         23    2    1    2    0    0  0.68921470646E+03 -0.21052899236E+03 -0.22690527394E+04  0.23824763326E+04  0.90850277497E+02 0.  0.
    5000000    2    1    2    0    0 -0.68921470646E+03  0.21052899236E+03 -0.29390317993E+03  0.98277387612E+03  0.60010502762E+03 0.  0.
         23    2    4    4    0    0 -0.23107547712E+03  0.26617239754E+03 -0.35504045294E+03  0.50779113399E+03  0.86916576078E+02 0.  0.
         23    2    4    4    0    0 -0.45813922934E+03 -0.55643405186E+02  0.61137273005E+02  0.47498274213E+03  0.94250183915E+02 0.  0.
          5    1    3    3  502    0  0.23345046544E+03 -0.68112585480E+02 -0.91122791992E+03  0.94313140980E+03  0.47000000000E+01 0. -1.
         -5    1    3    3    0  502  0.45576424102E+03 -0.14241640688E+03 -0.13578248195E+04  0.14393449228E+04  0.47000000000E+01 0.  1.
         13    1    5    5    0    0 -0.11536390379E+03  0.92853021152E+02 -0.19592580799E+03  0.24559608317E+03  0.00000000000E+00 0.  1.
        -13    1    5    5    0    0 -0.11571157334E+03  0.17331937639E+03 -0.15911464495E+03  0.26219505082E+03  0.00000000000E+00 0. -1.
          3    1    6    6  503    0 -0.20083132950E+03 -0.69331864904E+02  0.42229242863E+02  0.21661818795E+03  0.00000000000E+00 0. -1.
         -3    1    6    6    0  503 -0.25730789984E+03  0.13688459718E+02  0.18908030142E+02  0.25836455418E+03  0.00000000000E+00 0.  1.
<mgrwt>
<rscale>  0 0.77368434E+03</rscale>
<asrwt>0</asrwt>
<pdfrwt beam="1">  1        2 0.45601586E+00 0.77368434E+03</pdfrwt>
<pdfrwt beam="2">  1       -2 0.61714945E-01 0.77368434E+03</pdfrwt>
<totfact> 0.47419044E+00</totfact>
</mgrwt>
</event>
<event>
12    1  0.4581058E-008  0.7642336E+03  0.7818608E-02  0.9613281E-01
          1   -1    0    0  501    0  0.00000000000E+00  0.00000000000E+00  0.15001493756E+04  0.15001493756E+04  0.00000000000E+00 0. -1.
         -1   -1    0    0    0  501 -0.00000000000E+00 -0.00000000000E+00 -0.58545739300E+03  0.58545739300E+03  0.00000000000E+00 0.  1.
         23    2    1    2    0    0 -0.14683328421E+03  0.64209875624E+03 -0.16547208092E+03  0.68539874924E+03  0.92410009085E+02 0.  0.
    5000000    2    1    2    0    0  0.14683328421E+03 -0.64209875624E+03  0.10801640635E+04  0.14002080193E+04  0.59998105572E+03 0.  0.
         23    2    4    4    0    0 -0.65182313112E+02 -0.64462355892E+03  0.71496947198E+03  0.96921142895E+03  0.91657959199E+02 0.  0.
         23    2    4    4    0    0  0.21201559733E+03  0.25248026867E+01  0.36519459150E+03  0.43099659037E+03  0.86220549244E+02 0.  0.
          5    1    3    3  502    0 -0.11969282611E+03  0.32287119300E+03 -0.96591587430E+02  0.35766493350E+03  0.47000000000E+01 0. -1.
         -5    1    3    3    0  502 -0.27140458102E+02  0.31922756323E+03 -0.68880493487E+02  0.32773381574E+03  0.47000000000E+01 0.  1.
         11    1    5    5    0    0 -0.38141605598E+02 -0.43968467857E+03  0.54710117887E+03  0.70292040699E+03  0.00000000000E+00 0. -1.
        -11    1    5    5    0    0 -0.27040707514E+02 -0.20493888036E+03  0.16786829311E+03  0.26629102196E+03  0.00000000000E+00 0.  1.
          3    1    6    6  503    0  0.74690598726E+02  0.19667087940E+02  0.66974842225E+02  0.10223066750E+03  0.00000000000E+00 0. -1.
         -3    1    6    6    0  503  0.13732499860E+03 -0.17142285253E+02  0.29821974928E+03  0.32876592287E+03  0.00000000000E+00 0.  1.
<mgrwt>
<rscale>  0 0.76423362E+03</rscale>
<asrwt>0</asrwt>
<pdfrwt beam="1">  1        1 0.23079221E+00 0.76423362E+03</pdfrwt>
<pdfrwt beam="2">  1       -1 0.90070369E-01 0.76423362E+03</pdfrwt>
<totfact> 0.81799168E+00</totfact>
</mgrwt>
</event>
<event>
12    1  0.3203156E-008  0.1757456E+04  0.7818608E-02  0.8729257E-01
          2   -1    0    0  501    0  0.00000000000E+00  0.00000000000E+00  0.31434835802E+04  0.31434835802E+04  0.00000000000E+00 0. -1.
         -2   -1    0    0    0  501 -0.00000000000E+00 -0.00000000000E+00 -0.12652933396E+04  0.12652933396E+04  0.00000000000E+00 0.  1.
         23    2    1    2    0    0 -0.14951890970E+04 -0.84519316141E+03 -0.97767588467E+02  0.17228212465E+04  0.92804257818E+02 0.  0.
    5000000    2    1    2    0    0  0.14951890970E+04  0.84519316141E+03  0.19759578291E+04  0.26859556733E+04  0.60000551705E+03 0.  0.
         23    2    4    4    0    0  0.89357768449E+03  0.77824505100E+03  0.14792464778E+04  0.18975449297E+04  0.91434022329E+02 0.  0.
         23    2    4    4    0    0  0.60161141250E+03  0.66948110414E+02  0.49671135133E+03  0.78841074361E+03  0.91929282366E+02 0.  0.
          5    1    3    3  502    0 -0.57746295408E+03 -0.31851595215E+03 -0.82004423192E+02  0.66457707645E+03  0.47000000000E+01 0. -1.
         -5    1    3    3    0  502 -0.91772614291E+03 -0.52667720926E+03 -0.15763165275E+02  0.10582441701E+04  0.47000000000E+01 0.  1.
         13    1    5    5    0    0  0.13415488283E+03  0.13645595967E+03  0.19280672675E+03  0.27164718919E+03  0.00000000000E+00 0. -1.
        -13    1    5    5    0    0  0.75942280165E+03  0.64178909133E+03  0.12864397510E+04  0.16258977405E+04  0.00000000000E+00 0.  1.
          3    1    6    6  503    0  0.24755393813E+03 -0.15737479306E+02  0.18401559057E+03  0.30885653321E+03  0.00000000000E+00 0. -1.
         -3    1    6    6    0  503  0.35405747438E+03  0.82685589720E+02  0.31269576076E+03  0.47955421040E+03  0.00000000000E+00 0.  1.
<mgrwt>
<rscale>  0 0.17574563E+04</rscale>
<asrwt>0</asrwt>
<pdfrwt beam="1">  1        2 0.48361286E+00 0.17574563E+04</pdfrwt>
<pdfrwt beam="2">  1       -2 0.19466051E+00 0.17574563E+04</pdfrwt>
<totfact> 0.18655772E-01</totfact>
</mgrwt>
</event>
<event>
12    1  0.3203156E-008  0.1896084E+04  0.7818608E-02  0.8656808E-01
         -2   -1    0    0    0  501 -0.00000000000E+00  0.00000000000E+00  0.15204665154E+04  0.15204665154E+04  0.00000000000E+00 0.  1.
          2   -1    0    0  501    0  0.00000000000E+00 -0.00000000000E+00 -0.24867763563E+04  0.24867763563E+04  0.00000000000E+00 0. -1.
         23    2    1    2    0    0 -0.18911588183E+04 -0.86725696086E+02 -0.34588601513E+03  0.19266072315E+04  0.90417180356E+02 0.  0.
    5000000    2    1    2    0    0  0.18911588183E+04  0.86725696086E+02 -0.62042382576E+03  0.20806356402E+04  0.60009659326E+03 0.  0.
         23    2    4    4    0    0  0.13455540587E+04  0.24695163387E+02 -0.69791292790E+03  0.15186621482E+04  0.90148153437E+02 0.  0.
         23    2    4    4    0    0  0.54560475966E+03  0.62030532698E+02  0.77489102144E+02  0.56197349200E+03  0.90979690118E+02 0.  0.
          5    1    3    3  502    0 -0.75470373516E+03 -0.69299658126E+02 -0.11076562315E+03  0.76594470019E+03  0.47000000000E+01 0. -1.
         -5    1    3    3    0  502 -0.11364550832E+04 -0.17426037960E+02 -0.23512039197E+03  0.11606625313E+04  0.47000000000E+01 0.  1.
         11    1    5    5    0    0  0.42939717126E+03  0.39914402286E+02 -0.19290783660E+03  0.47242832643E+03  0.00000000000E+00 0. -1.
        -11    1    5    5    0    0  0.91615688743E+03 -0.15219238899E+02 -0.50500509130E+03  0.10462338218E+04  0.00000000000E+00 0.  1.
          2    1    6    6  503    0  0.36370328955E+03  0.25387780768E+02  0.10639793633E+02  0.36474350913E+03  0.00000000000E+00 0. -1.
         -2    1    6    6    0  503  0.18190147011E+03  0.36642751930E+02  0.66849308511E+02  0.19722998287E+03  0.00000000000E+00 0.  1.
<mgrwt>
<rscale>  0 0.18960835E+04</rscale>
<asrwt>0</asrwt>
<pdfrwt beam="1">  1        2 0.38258098E+00 0.18960835E+04</pdfrwt>
<pdfrwt beam="2">  1       -2 0.23391793E+00 0.18960835E+04</pdfrwt>
<totfact> 0.25771178E-01</totfact>
</mgrwt>
</event>
<event>
12    1  0.3203156E-008  0.6202760E+03  0.7818608E-02  0.9864210E-01
          1   -1    0    0  501    0  0.00000000000E+00  0.00000000000E+00  0.12421826815E+04  0.12421826815E+04  0.00000000000E+00 0. -1.
         -1   -1    0    0    0  501 -0.00000000000E+00 -0.00000000000E+00 -0.43160172096E+03  0.43160172096E+03  0.00000000000E+00 0.  1.
         23    2    1    2    0    0  0.31425414621E+03  0.50345101736E+03  0.20197274073E+03  0.63335210119E+03  0.90129355857E+02 0.  0.
    5000000    2    1    2    0    0 -0.31425414621E+03 -0.50345101736E+03  0.60860821978E+03  0.10404323012E+04  0.59989733537E+03 0.  0.
         23    2    4    4    0    0 -0.13375768417E+03 -0.71998569621E+02  0.52804931517E+03  0.55699022876E+03  0.91253074349E+02 0.  0.
         23    2    4    4    0    0 -0.18049646204E+03 -0.43145244774E+03  0.80558904603E+02  0.48344207248E+03  0.92175446076E+02 0.  0.
          5    1    3    3  502    0  0.18570272217E+03  0.36476263846E+03  0.11522552064E+03  0.42524850857E+03  0.47000000000E+01 0. -1.
         -5    1    3    3    0  502  0.12855142405E+03  0.13868837890E+03  0.86747220087E+02  0.20810359262E+03  0.47000000000E+01 0.  1.
         11    1    5    5    0    0 -0.13780254779E+03 -0.55768989061E+02  0.38071775492E+03  0.40871228417E+03  0.00000000000E+00 0. -1.
        -11    1    5    5    0    0  0.40448636119E+01 -0.16229580561E+02  0.14733156025E+03  0.14827794460E+03  0.00000000000E+00 0.  1.
          2    1    6    6  503    0 -0.13840507263E+03 -0.21177657305E+03  0.40652546842E+02  0.25623799598E+03  0.00000000000E+00 0. -1.
         -2    1    6    6    0  503 -0.42091389409E+02 -0.21967587469E+03  0.39906357761E+02  0.22720407649E+03  0.00000000000E+00 0.  1.
<mgrwt>
<rscale>  0 0.62027600E+03</rscale>
<asrwt>0</asrwt>
<pdfrwt beam="1">  1        1 0.19110503E+00 0.62027600E+03</pdfrwt>
<pdfrwt beam="2">  1       -1 0.66400265E-01 0.62027600E+03</pdfrwt>
<totfact> 0.23999693E+01</totfact>
</mgrwt>
</event>
<event>
12    1  0.3203156E-008  0.8023666E+03  0.7818608E-02  0.9556598E-01
         -1   -1    0    0    0  501 -0.00000000000E+00  0.00000000000E+00  0.66520492037E+03  0.66520492037E+03  0.00000000000E+00 0.  1.
          1   -1    0    0  501    0  0.00000000000E+00 -0.00000000000E+00 -0.10200654630E+04  0.10200654630E+04  0.00000000000E+00 0. -1.
         23    2    1    2    0    0 -0.68889724102E+03 -0.15339526243E+03 -0.64054590175E+02  0.71439867448E+03  0.90293744869E+02 0.  0.
    5000000    2    1    2    0    0  0.68889724102E+03  0.15339526243E+03 -0.29080595243E+03  0.97087170886E+03  0.59992854397E+03 0.  0.
         23    2    4    4    0    0  0.62588507599E+03  0.31781140580E+03 -0.30793284947E+03  0.77196817530E+03  0.91520521630E+02 0.  0.
         23    2    4    4    0    0  0.63012165026E+02 -0.16441614337E+03  0.17126897041E+02  0.19890353356E+03  0.90918006577E+02 0.  0.
          5    1    3    3  502    0 -0.53770964856E+02 -0.90484388752E+01  0.18671351838E+02  0.57826467012E+02  0.47000000000E+01 0.  1.
         -5    1    3    3    0  502 -0.63512627616E+03 -0.14434682356E+03 -0.82725942012E+02  0.65657220747E+03  0.47000000000E+01 0. -1.
         13    1    5    5    0    0  0.65485266518E+02  0.55505129135E+02 -0.63097123181E+02  0.10653819242E+03  0.00000000000E+00 0. -1.
        -13    1    5    5    0    0  0.56039980948E+03  0.26230627666E+03 -0.24483572629E+03  0.66542998287E+03  0.00000000000E+00 0.  1.
          1    1    6    6  503    0  0.23522377758E+02 -0.15030508261E+03 -0.34894032848E+01  0.15217455783E+03  0.00000000000E+00 0. -1.
         -1    1    6    6    0  503  0.39489787268E+02 -0.14111060754E+02  0.20616300326E+02  0.46728975734E+02  0.00000000000E+00 0.  1.
<mgrwt>
<rscale>  0 0.80236660E+03</rscale>
<asrwt>0</asrwt>
<pdfrwt beam="1">  1        1 0.15693315E+00 0.80236660E+03</pdfrwt>
<pdfrwt beam="2">  1       -1 0.10233922E+00 0.80236660E+03</pdfrwt>
<totfact> 0.13512165E+01</totfact>
</mgrwt>
</event>
<event>
12    1  0.3645233E-008  0.1171680E+04  0.7818608E-02  0.9138013E-01
          2   -1    0    0  501    0  0.00000000000E+00  0.00000000000E+00  0.14376197575E+04  0.14376197575E+04  0.00000000000E+00 0. -1.
         -2   -1    0    0    0  501 -0.00000000000E+00 -0.00000000000E+00 -0.10820495848E+04  0.10820495848E+04  0.00000000000E+00 0.  1.
         23    2    1    2    0    0 -0.97386530499E+03 -0.63319063460E+03  0.20554649700E+01  0.11652514203E+04  0.91992584849E+02 0.  0.
    5000000    2    1    2    0    0  0.97386530499E+03  0.63319063460E+03  0.35351470775E+03  0.13544179219E+04  0.60010936220E+03 0.  0.
         23    2    4    4    0    0  0.81697737080E+03  0.46113785965E+03  0.49769621452E+03  0.10662610164E+04  0.95450946113E+02 0.  0.
         23    2    4    4    0    0  0.15688793419E+03  0.17205277495E+03 -0.14418150677E+03  0.28815690553E+03  0.89610903621E+02 0.  0.
          5    1    3    3  502    0 -0.73186060019E+03 -0.43655551879E+03 -0.21987715415E+02  0.85247064977E+03  0.47000000000E+01 0. -1.
         -5    1    3    3    0  502 -0.24200470480E+03 -0.19663511581E+03  0.24043180385E+02  0.31278077057E+03  0.47000000000E+01 0.  1.
         13    1    5    5    0    0  0.54132351693E+03  0.34371157143E+03  0.30539228553E+03  0.71023463896E+03  0.00000000000E+00 0. -1.
        -13    1    5    5    0    0  0.27565385387E+03  0.11742628822E+03  0.19230392899E+03  0.35602637743E+03  0.00000000000E+00 0.  1.
          3    1    6    6  503    0  0.10870184152E+03  0.15057811955E+03 -0.72975343566E+02  0.19953761852E+03  0.00000000000E+00 0. -1.
         -3    1    6    6    0  503  0.48186092669E+02  0.21474655398E+02 -0.71206163206E+02  0.88619287008E+02  0.00000000000E+00 0.  1.
<mgrwt>
<rscale>  0 0.11716795E+04</rscale>
<asrwt>0</asrwt>
<pdfrwt beam="1">  1        2 0.22117227E+00 0.11716795E+04</pdfrwt>
<pdfrwt beam="2">  1       -2 0.16646917E+00 0.11716795E+04</pdfrwt>
<totfact> 0.30298350E+00</totfact>
</mgrwt>
</event>
<event>
12    1  0.3203156E-008  0.7117828E+03  0.7818608E-02  0.9697292E-01
         -1   -1    0    0    0  501 -0.00000000000E+00  0.00000000000E+00  0.29554766070E+03  0.29554766070E+03  0.00000000000E+00 0.  1.
          1   -1    0    0  501    0  0.00000000000E+00 -0.00000000000E+00 -0.22122895427E+04  0.22122895427E+04  0.00000000000E+00 0. -1.
         23    2    1    2    0    0 -0.13082527697E+02 -0.69360157702E+03 -0.81565082386E+03  0.10747370179E+04  0.92298921835E+02 0.  0.
    5000000    2    1    2    0    0  0.13082527697E+02  0.69360157702E+03 -0.11010910582E+04  0.14331001855E+04  0.60010026099E+03 0.  0.
         23    2    4    4    0    0  0.92900593662E+02  0.33268133499E+03 -0.96311529080E+03  0.10272678264E+04  0.91546341954E+02 0.  0.
         23    2    4    4    0    0 -0.79818065965E+02  0.36092024203E+03 -0.13797576735E+03  0.40583235918E+03  0.95017085921E+02 0.  0.
          5    1    3    3  502    0  0.13491765552E+02 -0.11892419524E+03 -0.19160872599E+03  0.22596678037E+03  0.47000000000E+01 0. -1.
         -5    1    3    3    0  502 -0.26574293249E+02 -0.57467738177E+03 -0.62404209787E+03  0.84877023752E+03  0.47000000000E+01 0.  1.
         13    1    5    5    0    0  0.46969743091E+01  0.18139758100E+03 -0.45666359328E+03  0.49139473073E+03  0.00000000000E+00 0. -1.
        -13    1    5    5    0    0  0.88203619353E+02  0.15128375398E+03 -0.50645169752E+03  0.53587309562E+03  0.00000000000E+00 0.  1.
          4    1    6    6  503    0 -0.42802459888E+02  0.10617509907E+03 -0.86086308644E+02  0.14323426535E+03  0.00000000000E+00 0. -1.
         -4    1    6    6    0  503 -0.37015606077E+02  0.25474514296E+03 -0.51889458704E+02  0.26259809382E+03  0.00000000000E+00 0.  1.
<mgrwt>
<rscale>  0 0.71178282E+03</rscale>
<asrwt>0</asrwt>
<pdfrwt beam="1">  1        1 0.34035224E+00 0.71178282E+03</pdfrwt>
<pdfrwt beam="2">  1       -1 0.45468871E-01 0.71178282E+03</pdfrwt>
<totfact> 0.10829443E+01</totfact>
</mgrwt>
</event>
<event>
12    1  0.3203156E-008  0.4313903E+03  0.7818608E-02  0.1033422E+00
          1   -1    0    0  501    0  0.00000000000E+00  0.00000000000E+00  0.16857706661E+03  0.16857706661E+03  0.00000000000E+00 0. -1.
         -1   -1    0    0    0  501 -0.00000000000E+00 -0.00000000000E+00 -0.11363531645E+04  0.11363531645E+04  0.00000000000E+00 0.  1.
         23    2    1    2    0    0  0.20120068529E+03 -0.81475510026E+02 -0.29817158679E+03  0.37999314209E+03  0.91479606319E+02 0.  0.
    5000000    2    1    2    0    0 -0.20120068529E+03  0.81475510026E+02 -0.66960451114E+03  0.92493708906E+03  0.60001536887E+03 0.  0.
         23    2    4    4    0    0  0.54298802647E+02  0.28037438969E+03 -0.28623593580E+03  0.41444550613E+03  0.90972019023E+02 0.  0.
         23    2    4    4    0    0 -0.25549948794E+03 -0.19889887966E+03 -0.38336857534E+03  0.51049158293E+03  0.93752008065E+02 0.  0.
          5    1    3    3  502    0  0.10780078606E+02 -0.27312656718E+02 -0.80010390931E+02  0.85357741117E+02  0.47000000000E+01 0. -1.
         -5    1    3    3    0  502  0.19042060669E+03 -0.54162853308E+02 -0.21816119586E+03  0.29463540098E+03  0.47000000000E+01 0.  1.
         11    1    5    5    0    0  0.35621329396E+02  0.28096776234E+02 -0.30086802620E+02  0.54438255249E+02  0.00000000000E+00 0. -1.
        -11    1    5    5    0    0  0.18677473251E+02  0.25227761345E+03 -0.25614913318E+03  0.36000725088E+03  0.00000000000E+00 0.  1.
          3    1    6    6  503    0 -0.17080992017E+02 -0.56377781093E+02 -0.57774196231E+02  0.82511043136E+02  0.00000000000E+00 0. -1.
         -3    1    6    6    0  503 -0.23841849592E+03 -0.14252109857E+03 -0.32559437911E+03  0.42798053979E+03  0.00000000000E+00 0.  1.
<mgrwt>
<rscale>  0 0.43139033E+03</rscale>
<asrwt>0</asrwt>
<pdfrwt beam="1">  1        1 0.25934935E-01 0.43139033E+03</pdfrwt>
<pdfrwt beam="2">  1       -1 0.17482355E+00 0.43139033E+03</pdfrwt>
<totfact> 0.44518152E+01</totfact>
</mgrwt>
</event>
<event>
12    1  0.3203156E-008  0.8250217E+03  0.7818608E-02  0.9524489E-01
         -1   -1    0    0    0  501 -0.00000000000E+00  0.00000000000E+00  0.11278010574E+04  0.11278010574E+04  0.00000000000E+00 0.  1.
          1   -1    0    0  501    0  0.00000000000E+00 -0.00000000000E+00 -0.78256650227E+03  0.78256650227E+03  0.00000000000E+00 0. -1.
         23    2    1    2    0    0  0.73721602757E+03 -0.85940028824E+02 -0.24641348489E+03  0.78744029113E+03  0.92029596828E+02 0.  0.
    5000000    2    1    2    0    0 -0.73721602757E+03  0.85940028824E+02  0.59164803998E+03  0.11229272685E+04  0.60003757155E+03 0.  0.
         23    2    4    4    0    0 -0.38673683734E+03 -0.21389921791E+03  0.14317959311E+03  0.47323642803E+03  0.90189046764E+02 0.  0.
         23    2    4    4    0    0 -0.35047919023E+03  0.29983924673E+03  0.44846844687E+03  0.64969084048E+03  0.90746921110E+02 0.  0.
          5    1    3    3  502    0  0.27926226843E+03 -0.71870562370E+01 -0.54440952440E+02  0.28464886377E+03  0.47000000000E+01 0. -1.
         -5    1    3    3    0  502  0.45795375914E+03 -0.78752972587E+02 -0.19197253245E+03  0.50279142735E+03  0.47000000000E+01 0.  1.
         13    1    5    5    0    0 -0.21059733508E+03 -0.98450219593E+02  0.11926190732E+03  0.26127970801E+03  0.00000000000E+00 0. -1.
        -13    1    5    5    0    0 -0.17613950226E+03 -0.11544899831E+03  0.23917685788E+02  0.21195672002E+03  0.00000000000E+00 0.  1.
          4    1    6    6  503    0 -0.13143920242E+03  0.13762921810E+03  0.24138471572E+03  0.30738354965E+03  0.00000000000E+00 0. -1.
         -4    1    6    6    0  503 -0.21903998781E+03  0.16221002863E+03  0.20708373115E+03  0.34230729083E+03  0.00000000000E+00 0.  1.
<mgrwt>
<rscale>  0 0.82502166E+03</rscale>
<asrwt>0</asrwt>
<pdfrwt beam="1">  1        1 0.12039485E+00 0.82502166E+03</pdfrwt>
<pdfrwt beam="2">  1       -1 0.17350786E+00 0.82502166E+03</pdfrwt>
<totfact> 0.54407296E+00</totfact>
</mgrwt>
</event>
<event>
12    1  0.3203156E-008  0.6129658E+03  0.7818608E-02  0.9878865E-01
         -2   -1    0    0    0  501 -0.00000000000E+00  0.00000000000E+00  0.18070481909E+03  0.18070481909E+03  0.00000000000E+00 0.  1.
          2   -1    0    0  501    0  0.00000000000E+00 -0.00000000000E+00 -0.22163027733E+04  0.22163027733E+04  0.00000000000E+00 0. -1.
         23    2    1    2    0    0 -0.22785992106E+03 -0.42852931048E+03 -0.81220299874E+03  0.95053963007E+03  0.91073396761E+02 0.  0.
    5000000    2    1    2    0    0  0.22785992106E+03  0.42852931048E+03 -0.12233949555E+04  0.14464679623E+04  0.60001402932E+03 0.  0.
         23    2    4    4    0    0 -0.15448355258E+03  0.48782492682E+02 -0.14151101193E+03  0.23440980979E+03  0.93154134717E+02 0.  0.
         23    2    4    4    0    0  0.38234347365E+03  0.37974681780E+03 -0.10818839436E+04  0.12120581526E+04  0.90652746029E+02 0.  0.
          5    1    3    3  502    0 -0.20899667286E+03 -0.31375870875E+03 -0.63620677125E+03  0.73953044722E+03  0.47000000000E+01 0. -1.
         -5    1    3    3    0  502 -0.18863248202E+02 -0.11477060173E+03 -0.17599622749E+03  0.21100918284E+03  0.47000000000E+01 0.  1.
         13    1    5    5    0    0 -0.11838772799E+03 -0.82545995635E+01 -0.99817517818E+02  0.15507201365E+03  0.00000000000E+00 0. -1.
        -13    1    5    5    0    0 -0.36095824590E+02  0.57037092245E+02 -0.41693494112E+02  0.79337796137E+02  0.00000000000E+00 0.  1.
          2    1    6    6  503    0  0.23737805153E+03  0.29412773292E+03 -0.73641346195E+03  0.82774648870E+03  0.00000000000E+00 0. -1.
         -2    1    6    6    0  503  0.14496542212E+03  0.85619084886E+02 -0.34547048161E+03  0.38431166385E+03  0.00000000000E+00 0.  1.
<mgrwt>
<rscale>  0 0.61296579E+03</rscale>
<asrwt>0</asrwt>
<pdfrwt beam="1">  1        2 0.34096968E+00 0.61296579E+03</pdfrwt>
<pdfrwt beam="2">  1       -2 0.27800739E-01 0.61296579E+03</pdfrwt>
<totfact> 0.62806196E+01</totfact>
</mgrwt>
</event>
<event>
12    1  0.3203156E-008  0.3595985E+03  0.7818608E-02  0.1058743E+00
         -2   -1    0    0    0  501 -0.00000000000E+00  0.00000000000E+00  0.79997934422E+02  0.79997934422E+02  0.00000000000E+00 0.  1.
          2   -1    0    0  501    0  0.00000000000E+00 -0.00000000000E+00 -0.33564565735E+04  0.33564565735E+04  0.00000000000E+00 0. -1.
         23    2    1    2    0    0  0.26290360130E+03 -0.12207562089E+03 -0.53680863498E+03  0.61694001513E+03  0.91818902656E+02 0.  0.
    5000000    2    1    2    0    0 -0.26290360130E+03  0.12207562089E+03 -0.27396500041E+04  0.28195144927E+04  0.59996589013E+03 0.  0.
         23    2    4    4    0    0 -0.30932060900E+03  0.12312684429E+03 -0.26915584346E+04  0.27135863483E+04  0.90689599596E+02 0.  0.
         23    2    4    4    0    0  0.46417007699E+02 -0.10512234016E+01 -0.48091569415E+02  0.10592814448E+03  0.82172556676E+02 0.  0.
          5    1    3    3  502    0  0.31479575059E+02 -0.78471528000E+00 -0.12677222840E+03  0.13070909424E+03  0.47000000000E+01 0. -1.
         -5    1    3    3    0  502  0.23142402624E+03 -0.12129090561E+03 -0.41003640658E+03  0.48623092089E+03  0.47000000000E+01 0.  1.
         11    1    5    5    0    0 -0.13328806859E+03  0.66575878665E+02 -0.86966806158E+03  0.88233814050E+03  0.00000000000E+00 0. -1.
        -11    1    5    5    0    0 -0.17603254041E+03  0.56550965623E+02 -0.18218903731E+04  0.18312482078E+04  0.00000000000E+00 0.  1.
          1    1    6    6  503    0  0.12503796768E+02  0.38249076223E+02 -0.97824234411E+01  0.41412951765E+02  0.00000000000E+00 0. -1.
         -1    1    6    6    0  503  0.33913210932E+02 -0.39300299625E+02 -0.38309145974E+02  0.64515192719E+02  0.00000000000E+00 0.  1.
<mgrwt>
<rscale>  0 0.35959847E+03</rscale>
<asrwt>0</asrwt>
<pdfrwt beam="1">  1        2 0.51637800E+00 0.35959847E+03</pdfrwt>
<pdfrwt beam="2">  1       -2 0.12307373E-01 0.35959847E+03</pdfrwt>
<totfact> 0.57945034E+01</totfact>
</mgrwt>
</event>
<event>
12    1  0.3203156E-008  0.5048330E+03  0.7818608E-02  0.1012525E+00
         -2   -1    0    0    0  501 -0.00000000000E+00  0.00000000000E+00  0.10134631354E+04  0.10134631354E+04  0.00000000000E+00 0.  1.
          2   -1    0    0  501    0  0.00000000000E+00 -0.00000000000E+00 -0.72727655651E+03  0.72727655651E+03  0.00000000000E+00 0. -1.
         23    2    1    2    0    0  0.33863228978E+03  0.12010315079E+03 -0.54231323873E+03  0.65678522193E+03  0.90369155824E+02 0.  0.
    5000000    2    1    2    0    0 -0.33863228978E+03 -0.12010315079E+03  0.82849981760E+03  0.10839544699E+04  0.59954044955E+03 0.  0.
         23    2    4    4    0    0 -0.24960235616E+03  0.18313004598E+03  0.60671920643E+03  0.68706016743E+03  0.90030707393E+02 0.  0.
         23    2    4    4    0    0 -0.89029933627E+02 -0.30323319677E+03  0.22178061117E+03  0.39689430252E+03  0.91987755584E+02 0.  0.
          5    1    3    3  502    0  0.90181658187E+02  0.69128313221E+02 -0.20881099651E+03  0.23777211238E+03  0.47000000000E+01 0. -1.
         -5    1    3    3    0  502  0.24845063160E+03  0.50974837573E+02 -0.33350224223E+03  0.41901310955E+03  0.47000000000E+01 0.  1.
         13    1    5    5    0    0 -0.74869036286E+02  0.92031528261E+02  0.29873298779E+03  0.32142895449E+03  0.00000000000E+00 0. -1.
        -13    1    5    5    0    0 -0.17473331987E+03  0.91098517716E+02  0.30798621864E+03  0.36563121294E+03  0.00000000000E+00 0.  1.
          1    1    6    6  503    0 -0.83934224549E+02 -0.13977965457E+03  0.13548306294E+03  0.21198812756E+03  0.00000000000E+00 0. -1.
         -1    1    6    6    0  503 -0.50957090783E+01 -0.16345354220E+03  0.86297548231E+02  0.18490617496E+03  0.00000000000E+00 0.  1.
<mgrwt>
<rscale>  0 0.50483298E+03</rscale>
<asrwt>0</asrwt>
<pdfrwt beam="1">  1        2 0.11188870E+00 0.50483298E+03</pdfrwt>
<pdfrwt beam="2">  1       -2 0.15591740E+00 0.50483298E+03</pdfrwt>
<totfact> 0.11065638E+01</totfact>
</mgrwt>
</event>
<event>
12    1  0.3203156E-008  0.5936266E+03  0.7818608E-02  0.9918718E-01
         -2   -1    0    0    0  501 -0.00000000000E+00  0.00000000000E+00  0.94457702296E+03  0.94457702296E+03  0.00000000000E+00 0. -1.
          2   -1    0    0  501    0  0.00000000000E+00 -0.00000000000E+00 -0.51992053129E+03  0.51992053129E+03  0.00000000000E+00 0.  1.
         23    2    1    2    0    0  0.53401095427E+03  0.12289601648E+01 -0.27969878430E+02  0.54254075672E+03  0.91645779955E+02 0.  0.
    5000000    2    1    2    0    0 -0.53401095427E+03 -0.12289601648E+01  0.45262637010E+03  0.92195679752E+03  0.59997041257E+03 0.  0.
         23    2    4    4    0    0 -0.42309888500E+03  0.14562259811E+03  0.53278505723E+03  0.70160934027E+03  0.90427548784E+02 0.  0.
         23    2    4    4    0    0 -0.11091206927E+03 -0.14685155827E+03 -0.80158687128E+02  0.22034745725E+03  0.90888500469E+02 0.  0.
          5    1    3    3  502    0  0.17745500938E+03 -0.35596710197E+02 -0.32938347127E+02  0.18402290847E+03  0.47000000000E+01 0. -1.
         -5    1    3    3    0  502  0.35655594489E+03  0.36825670362E+02  0.49684686968E+01  0.35851784826E+03  0.47000000000E+01 0.  1.
         11    1    5    5    0    0 -0.19679679407E+03  0.11351201013E+03  0.24551479713E+03  0.33450182392E+03  0.00000000000E+00 0.  1.
        -11    1    5    5    0    0 -0.22630209094E+03  0.32110587983E+02  0.28727026010E+03  0.36710751635E+03  0.00000000000E+00 0. -1.
          3    1    6    6  503    0  0.37927794909E+01 -0.22378155151E+02  0.13987624895E+02  0.26661220047E+02  0.00000000000E+00 0. -1.
         -3    1    6    6    0  503 -0.11470484876E+03 -0.12447340312E+03 -0.94146312024E+02  0.19368623720E+03  0.00000000000E+00 0.  1.
<mgrwt>
<rscale>  0 0.59362664E+03</rscale>
<asrwt>0</asrwt>
<pdfrwt beam="1">  1        2 0.79987774E-01 0.59362664E+03</pdfrwt>
<pdfrwt beam="2">  1       -2 0.14531954E+00 0.59362664E+03</pdfrwt>
<totfact> 0.19727044E+01</totfact>
</mgrwt>
</event>
<event>
12    1  0.3203156E-008  0.6831529E+03  0.7818608E-02  0.9746485E-01
         -2   -1    0    0    0  501 -0.00000000000E+00  0.00000000000E+00  0.43034494564E+03  0.43034494564E+03  0.00000000000E+00 0.  1.
          2   -1    0    0  501    0  0.00000000000E+00 -0.00000000000E+00 -0.12135051307E+04  0.12135051307E+04  0.00000000000E+00 0. -1.
         23    2    1    2    0    0  0.47503205257E+03  0.32344117979E+03 -0.15556453775E+03  0.60257118465E+03  0.92855045162E+02 0.  0.
    5000000    2    1    2    0    0 -0.47503205257E+03 -0.32344117979E+03 -0.62759564736E+03  0.10412788917E+04  0.60009648060E+03 0.  0.
         23    2    4    4    0    0 -0.42395558222E+03 -0.46424694796E+03 -0.57841776005E+03  0.85897838000E+03  0.89516410635E+02 0.  0.
         23    2    4    4    0    0 -0.51076470346E+02  0.14080576817E+03 -0.49177887309E+02  0.18230051173E+03  0.91542022075E+02 0.  0.
          5    1    3    3  502    0  0.23703330006E+03  0.12106162984E+03 -0.38772119351E+02  0.26900942510E+03  0.47000000000E+01 0. -1.
         -5    1    3    3    0  502  0.23799875251E+03  0.20237954996E+03 -0.11679241840E+03  0.33356175955E+03  0.47000000000E+01 0.  1.
         11    1    5    5    0    0 -0.22843723002E+02 -0.65668472598E+02 -0.60236547957E+02  0.91992530587E+02  0.00000000000E+00 0. -1.
        -11    1    5    5    0    0 -0.40111185922E+03 -0.39857847536E+03 -0.51818121209E+03  0.76698584941E+03  0.00000000000E+00 0.  1.
          4    1    6    6  503    0 -0.37395292690E+02  0.12986836876E+03 -0.55175490693E+01  0.13525769652E+03  0.00000000000E+00 0.  1.
         -4    1    6    6    0  503 -0.13681177656E+02  0.10937399405E+02 -0.43660338240E+02  0.47042815211E+02  0.00000000000E+00 0. -1.
<mgrwt>
<rscale>  0 0.68315294E+03</rscale>
<asrwt>0</asrwt>
<pdfrwt beam="1">  1        2 0.18669310E+00 0.68315294E+03</pdfrwt>
<pdfrwt beam="2">  1       -2 0.66206915E-01 0.68315294E+03</pdfrwt>
<totfact> 0.40005411E+01</totfact>
</mgrwt>
</event>
<event>
12    1  0.3203156E-008  0.3904308E+03  0.7818608E-02  0.1047144E+00
         -2   -1    0    0    0  501 -0.00000000000E+00  0.00000000000E+00  0.16115801911E+03  0.16115801911E+03  0.00000000000E+00 0.  1.
          2   -1    0    0  501    0  0.00000000000E+00 -0.00000000000E+00 -0.13206542040E+04  0.13206542040E+04  0.00000000000E+00 0. -1.
         23    2    1    2    0    0  0.20019750959E+02  0.17453747752E+03 -0.43781433945E+02  0.20314740699E+03  0.92129981678E+02 0.  0.
    5000000    2    1    2    0    0 -0.20019750959E+02 -0.17453747752E+03 -0.11157147510E+04  0.12786648161E+04  0.59941653714E+03 0.  0.
         23    2    4    4    0    0 -0.21497483834E+03 -0.28870061745E+03 -0.56884550019E+03  0.68018769008E+03  0.97508271531E+02 0.  0.
         23    2    4    4    0    0  0.19495508738E+03  0.11416313994E+03 -0.54686925077E+03  0.59847712604E+03  0.89823072420E+02 0.  0.
          5    1    3    3  502    0  0.76121256457E+01  0.16186872467E+03 -0.65385823877E+02  0.17480510418E+03  0.47000000000E+01 0. -1.
         -5    1    3    3    0  502  0.12407625314E+02  0.12668752849E+02  0.21604389932E+02  0.28342302818E+02  0.47000000000E+01 0.  1.
         13    1    5    5    0    0 -0.21249968393E+03 -0.29627207947E+03 -0.56050211815E+03  0.66865229021E+03  0.00000000000E+00 0. -1.
        -13    1    5    5    0    0 -0.24751544133E+01  0.75714620202E+01 -0.83433820357E+01  0.11535399875E+02  0.00000000000E+00 0.  1.
          3    1    6    6  503    0  0.10783929471E+03  0.79942774881E+02 -0.41923921466E+03  0.44020640596E+03  0.00000000000E+00 0. -1.
         -3    1    6    6    0  503  0.87115792669E+02  0.34220365056E+02 -0.12763003611E+03  0.15827072008E+03  0.00000000000E+00 0.  1.
<mgrwt>
<rscale>  0 0.39043085E+03</rscale>
<asrwt>0</asrwt>
<pdfrwt beam="1">  1        2 0.20317757E+00 0.39043085E+03</pdfrwt>
<pdfrwt beam="2">  1       -2 0.24793541E-01 0.39043085E+03</pdfrwt>
<totfact> 0.24437051E+02</totfact>
</mgrwt>
</event>
<event>
12    1  0.3203156E-008  0.1347697E+04  0.7818608E-02  0.8992573E-01
          1   -1    0    0  501    0  0.00000000000E+00  0.00000000000E+00  0.15009962819E+04  0.15009962819E+04  0.00000000000E+00 0. -1.
         -1   -1    0    0    0  501 -0.00000000000E+00 -0.00000000000E+00 -0.20763610525E+04  0.20763610525E+04  0.00000000000E+00 0.  1.
         23    2    1    2    0    0 -0.44882869289E+03  0.12137435972E+04 -0.14169959493E+04  0.19211649060E+04  0.91522459573E+02 0.  0.
    5000000    2    1    2    0    0  0.44882869289E+03 -0.12137435972E+04  0.84163117879E+03  0.16561924284E+04  0.60000800273E+03 0.  0.
         23    2    4    4    0    0  0.54922701398E+03 -0.82721663149E+03  0.47451729105E+03  0.11043944707E+04  0.92643505555E+02 0.  0.
         23    2    4    4    0    0 -0.10039832110E+03 -0.38652696571E+03  0.36711388774E+03  0.55179795765E+03  0.10112102351E+03 0.  0.
          5    1    3    3  502    0 -0.13498350795E+03  0.25625064128E+03 -0.31936989089E+03  0.43116604201E+03  0.47000000000E+01 0. -1.
         -5    1    3    3    0  502 -0.31384518493E+03  0.95749295591E+03 -0.10976260584E+04  0.14899988640E+04  0.47000000000E+01 0.  1.
         13    1    5    5    0    0  0.14570685839E+03 -0.29494803679E+03  0.17030593862E+03  0.37044425453E+03  0.00000000000E+00 0. -1.
        -13    1    5    5    0    0  0.40352015559E+03 -0.53226859470E+03  0.30421135244E+03  0.73395021618E+03  0.00000000000E+00 0.  1.
          1    1    6    6  503    0 -0.50241545766E+02 -0.26493316365E+03  0.18444662669E+03  0.32670223785E+03  0.00000000000E+00 0. -1.
         -1    1    6    6    0  503 -0.50156775330E+02 -0.12159380206E+03  0.18266726105E+03  0.22509571979E+03  0.00000000000E+00 0.  1.
<mgrwt>
<rscale>  0 0.13476967E+04</rscale>
<asrwt>0</asrwt>
<pdfrwt beam="1">  1        1 0.23092251E+00 0.13476967E+04</pdfrwt>
<pdfrwt beam="2">  1       -1 0.31944016E+00 0.13476967E+04</pdfrwt>
<totfact> 0.15551632E-01</totfact>
</mgrwt>
</event>
<event>
12    1  0.3203156E-008  0.7492378E+03  0.7818608E-02  0.9636547E-01
          2   -1    0    0  501    0  0.00000000000E+00  0.00000000000E+00  0.19345324166E+04  0.19345324166E+04  0.00000000000E+00 0.  1.
         -2   -1    0    0    0  501 -0.00000000000E+00 -0.00000000000E+00 -0.10373065362E+04  0.10373065362E+04  0.00000000000E+00 0. -1.
         23    2    1    2    0    0 -0.43823758119E+03  0.50141195407E+03  0.16625271708E+04  0.17932034036E+04  0.90087332541E+02 0.  0.
    5000000    2    1    2    0    0  0.43823758119E+03 -0.50141195407E+03 -0.76530129047E+03  0.11786355492E+04  0.60002463902E+03 0.  0.
         23    2    4    4    0    0 -0.44198443508E+02  0.36593595056E+02 -0.28806343752E+03  0.30801737804E+03  0.92744636111E+02 0.  0.
         23    2    4    4    0    0  0.48243602470E+03 -0.53800554912E+03 -0.47723785295E+03  0.87061817118E+03  0.89585394380E+02 0.  0.
          5    1    3    3  502    0 -0.27879128574E+03  0.31693099484E+03  0.93463512426E+03  0.10255411947E+04  0.47000000000E+01 0. -1.
         -5    1    3    3    0  502 -0.15944629545E+03  0.18448095923E+03  0.72789204659E+03  0.76766220888E+03  0.47000000000E+01 0.  1.
         13    1    5    5    0    0  0.27270245405E+02  0.49176654639E+01 -0.46616183910E+02  0.54230234376E+02  0.00000000000E+00 0.  1.
        -13    1    5    5    0    0 -0.71468688913E+02  0.31675929592E+02 -0.24144725361E+03  0.25378714366E+03  0.00000000000E+00 0. -1.
          3    1    6    6  503    0  0.44456434549E+03 -0.45916219785E+03 -0.40029235307E+03  0.75412290056E+03  0.00000000000E+00 0. -1.
         -3    1    6    6    0  503  0.37871679207E+02 -0.78843351270E+02 -0.76945499882E+02  0.11649527062E+03  0.00000000000E+00 0.  1.
<mgrwt>
<rscale>  0 0.74923781E+03</rscale>
<asrwt>0</asrwt>
<pdfrwt beam="1">  1        2 0.29762037E+00 0.74923781E+03</pdfrwt>
<pdfrwt beam="2">  1       -2 0.15958562E+00 0.74923781E+03</pdfrwt>
<totfact> 0.19117162E+00</totfact>
</mgrwt>
</event>
<event>
12    1  0.3203156E-008  0.1096359E+04  0.7818608E-02  0.9208748E-01
         -2   -1    0    0    0  501 -0.00000000000E+00  0.00000000000E+00  0.13193678450E+04  0.13193678450E+04  0.00000000000E+00 0.  1.
          2   -1    0    0  501    0  0.00000000000E+00 -0.00000000000E+00 -0.91909138369E+03  0.91909138369E+03  0.00000000000E+00 0. -1.
         23    2    1    2    0    0  0.14003633094E+03 -0.10074383336E+04  0.20046735331E+03  0.10408199848E+04  0.92611613427E+02 0.  0.
    5000000    2    1    2    0    0 -0.14003633094E+03  0.10074383336E+04  0.19980910801E+03  0.11976392439E+04  0.59989491484E+03 0.  0.
         23    2    4    4    0    0 -0.32852793918E+03  0.34341666689E+03  0.10786949073E+03  0.49548230498E+03  0.89449838473E+02 0.  0.
         23    2    4    4    0    0  0.18849160823E+03  0.66402166675E+03  0.91939617276E+02  0.70215693893E+03  0.90097798946E+02 0.  0.
          5    1    3    3  502    0  0.11428626442E+03 -0.49308546891E+03  0.90905503119E+02  0.51427670605E+03  0.47000000000E+01 0. -1.
         -5    1    3    3    0  502  0.25750066526E+02 -0.51435286472E+03  0.10956185019E+03  0.52654327874E+03  0.47000000000E+01 0.  1.
         11    1    5    5    0    0 -0.27236744272E+03  0.31125735292E+03  0.11770469999E+03  0.43002274359E+03  0.00000000000E+00 0. -1.
        -11    1    5    5    0    0 -0.56160496455E+02  0.32159313965E+02 -0.98352092563E+01  0.65459561394E+02  0.00000000000E+00 0.  1.
          2    1    6    6  503    0  0.37532821928E+02  0.24419125622E+03  0.63589894051E+02  0.25511126388E+03  0.00000000000E+00 0. -1.
         -2    1    6    6    0  503  0.15095878631E+03  0.41983041053E+03  0.28349723225E+02  0.44704567504E+03  0.00000000000E+00 0.  1.
<mgrwt>
<rscale>  0 0.10963592E+04</rscale>
<asrwt>0</asrwt>
<pdfrwt beam="1">  1        2 0.14139867E+00 0.10963592E+04</pdfrwt>
<pdfrwt beam="2">  1       -2 0.20297967E+00 0.10963592E+04</pdfrwt>
<totfact> 0.35575204E+00</totfact>
</mgrwt>
</event>
<event>
12    1  0.3203156E-008  0.4900371E+03  0.7818608E-02  0.1016413E+00
          2   -1    0    0  501    0  0.00000000000E+00  0.00000000000E+00  0.71210575152E+03  0.71210575152E+03  0.00000000000E+00 0. -1.
         -2   -1    0    0    0  501 -0.00000000000E+00 -0.00000000000E+00 -0.81194371981E+03  0.81194371981E+03  0.00000000000E+00 0.  1.
         23    2    1    2    0    0 -0.17740307359E+03  0.29083214402E+03 -0.58336351413E+03  0.68153310573E+03  0.90106592856E+02 0.  0.
    5000000    2    1    2    0    0  0.17740307359E+03 -0.29083214402E+03  0.48352554585E+03  0.84251636560E+03  0.59998473839E+03 0.  0.
         23    2    4    4    0    0 -0.11255202832E+03  0.79465115898E+02  0.57829272560E+01  0.16576898841E+03  0.91995932228E+02 0.  0.
         23    2    4    4    0    0  0.28995510191E+03 -0.37029725991E+03  0.47774261859E+03  0.67674737719E+03  0.92493140763E+02 0.  0.
          5    1    3    3  502    0 -0.64901512730E+02  0.14136227037E+03 -0.34510165690E+03  0.37856669351E+03  0.47000000000E+01 0. -1.
         -5    1    3    3    0  502 -0.11250156086E+03  0.14946987365E+03 -0.23826185723E+03  0.30296641222E+03  0.47000000000E+01 0.  1.
         13    1    5    5    0    0 -0.44812905902E+02  0.80365511383E+02 -0.18400074485E+02  0.93836958050E+02  0.00000000000E+00 0. -1.
        -13    1    5    5    0    0 -0.67739122421E+02 -0.90039548483E+00  0.24183001741E+02  0.71932030359E+02  0.00000000000E+00 0.  1.
          3    1    6    6  503    0  0.14686857295E+03 -0.12177093109E+03  0.16279644317E+03  0.25080115487E+03  0.00000000000E+00 0. -1.
         -3    1    6    6    0  503  0.14308652897E+03 -0.24852632882E+03  0.31494617542E+03  0.42594622231E+03  0.00000000000E+00 0.  1.
<mgrwt>
<rscale>  0 0.49003707E+03</rscale>
<asrwt>0</asrwt>
<pdfrwt beam="1">  1        2 0.10955473E+00 0.49003707E+03</pdfrwt>
<pdfrwt beam="2">  1       -2 0.12491442E+00 0.49003707E+03</pdfrwt>
<totfact> 0.20124392E+01</totfact>
</mgrwt>
</event>
<event>
12    1  0.3203156E-008  0.1199317E+04  0.7818608E-02  0.9113455E-01
         -2   -1    0    0    0  501 -0.00000000000E+00  0.00000000000E+00  0.42818308978E+03  0.42818308978E+03  0.00000000000E+00 0.  1.
          2   -1    0    0  501    0  0.00000000000E+00 -0.00000000000E+00 -0.37077231092E+04  0.37077231092E+04  0.00000000000E+00 0. -1.
         23    2    1    2    0    0 -0.38173757204E+03 -0.10606549206E+04 -0.21575152871E+04  0.24360094612E+04  0.92506467608E+02 0.  0.
    5000000    2    1    2    0    0  0.38173757204E+03  0.10606549206E+04 -0.11220247323E+04  0.16998967378E+04  0.59999748734E+03 0.  0.
         23    2    4    4    0    0 -0.12072707459E+02  0.77136806247E+03 -0.62309345184E+03  0.99558495726E+03  0.88258253661E+02 0.  0.
         23    2    4    4    0    0  0.39381027950E+03  0.28928685808E+03 -0.49893128048E+03  0.70431178053E+03  0.91374170586E+02 0.  0.
          5    1    3    3  502    0 -0.14783820389E+03 -0.53374473643E+03 -0.10992659899E+04  0.12309132321E+04  0.47000000000E+01 0. -1.
         -5    1    3    3    0  502 -0.23389936815E+03 -0.52691018412E+03 -0.10582492971E+04  0.12050962291E+04  0.47000000000E+01 0.  1.
         11    1    5    5    0    0 -0.13148431293E+02  0.46126977945E+03 -0.42686004392E+03  0.62861131693E+03  0.00000000000E+00 0.  1.
        -11    1    5    5    0    0  0.10757238346E+01  0.31009828302E+03 -0.19623340791E+03  0.36697364033E+03  0.00000000000E+00 0. -1.
          1    1    6    6  503    0  0.53070593179E+02  0.82596209794E+02 -0.87472664858E+02  0.13149178237E+03  0.00000000000E+00 0. -1.
         -1    1    6    6    0  503  0.34073968632E+03  0.20669064829E+03 -0.41145861563E+03  0.57281999816E+03  0.00000000000E+00 0.  1.
<mgrwt>
<rscale>  0 0.11993169E+04</rscale>
<asrwt>0</asrwt>
<pdfrwt beam="1">  1        2 0.57041897E+00 0.11993169E+04</pdfrwt>
<pdfrwt beam="2">  1       -2 0.65874318E-01 0.11993169E+04</pdfrwt>
<totfact> 0.12351528E+00</totfact>
</mgrwt>
</event>
<event>
12    1  0.3203156E-008  0.1030516E+04  0.7818608E-02  0.9275695E-01
         -2   -1    0    0    0  501 -0.00000000000E+00  0.00000000000E+00  0.40616361750E+03  0.40616361750E+03  0.00000000000E+00 0.  1.
          2   -1    0    0  501    0  0.00000000000E+00 -0.00000000000E+00 -0.30391088057E+04  0.30391088057E+04  0.00000000000E+00 0. -1.
         23    2    1    2    0    0 -0.11347783720E+03 -0.99372614056E+03 -0.85547275996E+03  0.13192919857E+04  0.91262470205E+02 0.  0.
    5000000    2    1    2    0    0  0.11347783720E+03  0.99372614056E+03 -0.17774724282E+04  0.21259804375E+04  0.60001310451E+03 0.  0.
         23    2    4    4    0    0  0.22731887474E+03  0.54211883755E+03 -0.54792352156E+03  0.80846353476E+03  0.88466924423E+02 0.  0.
         23    2    4    4    0    0 -0.11384103754E+03  0.45160730301E+03 -0.12295489067E+04  0.13175169027E+04  0.84565579156E+02 0.  0.
          5    1    3    3  502    0 -0.46274570331E+02 -0.55719569275E+03 -0.42287123362E+03  0.70103533870E+03  0.47000000000E+01 0. -1.
         -5    1    3    3    0  502 -0.67203266868E+02 -0.43653044781E+03 -0.43260152633E+03  0.61825664697E+03  0.47000000000E+01 0.  1.
         13    1    5    5    0    0  0.79334048637E+02  0.21235748566E+03 -0.15521344904E+03  0.27473770719E+03  0.00000000000E+00 0. -1.
        -13    1    5    5    0    0  0.14798482610E+03  0.32976135190E+03 -0.39271007252E+03  0.53372582757E+03  0.00000000000E+00 0.  1.
          3    1    6    6  503    0 -0.90348622103E+02  0.20118785024E+03 -0.62310593276E+03  0.66098443857E+03  0.00000000000E+00 0. -1.
         -3    1    6    6    0  503 -0.23492415437E+02  0.25041945277E+03 -0.60644297391E+03  0.65653246417E+03  0.00000000000E+00 0.  1.
<mgrwt>
<rscale>  0 0.10305157E+04</rscale>
<asrwt>0</asrwt>
<pdfrwt beam="1">  1        2 0.46755521E+00 0.10305157E+04</pdfrwt>
<pdfrwt beam="2">  1       -2 0.62486709E-01 0.10305157E+04</pdfrwt>
<totfact> 0.39829021E+00</totfact>
</mgrwt>
</event>
<event>
12    1  0.3203156E-008  0.4392811E+03  0.7818608E-02  0.1030968E+00
         -2   -1    0    0    0  501 -0.00000000000E+00  0.00000000000E+00  0.72789135949E+03  0.72789135949E+03  0.00000000000E+00 0.  1.
          2   -1    0    0  501    0  0.00000000000E+00 -0.00000000000E+00 -0.50245208841E+03  0.50245208841E+03  0.00000000000E+00 0. -1.
         23    2    1    2    0    0 -0.31589381791E+03 -0.28703409323E+03 -0.62589596946E+02  0.43979908303E+03  0.85605495844E+02 0.  0.
    5000000    2    1    2    0    0  0.31589381791E+03  0.28703409323E+03  0.28802886803E+03  0.79054436487E+03  0.59985188933E+03 0.  0.
         23    2    4    4    0    0  0.12182528011E+03  0.11095319861E+03 -0.17070292540E+03  0.25424714937E+03  0.91378953066E+02 0.  0.
         23    2    4    4    0    0  0.19406853780E+03  0.17608089462E+03  0.45873179343E+03  0.53629721550E+03  0.92264653223E+02 0.  0.
          5    1    3    3  502    0 -0.66149580481E+02 -0.10731385323E+03 -0.34573373599E+02  0.13080305140E+03  0.47000000000E+01 0. -1.
         -5    1    3    3    0  502 -0.24974423743E+03 -0.17972024000E+03 -0.28016223347E+02  0.30899603163E+03  0.47000000000E+01 0.  1.
         13    1    5    5    0    0  0.90160013674E+02  0.33558262880E+02 -0.52918011101E+02  0.10979663461E+03  0.00000000000E+00 0. -1.
        -13    1    5    5    0    0  0.31665266435E+02  0.77394935734E+02 -0.11778491430E+03  0.14445051476E+03  0.00000000000E+00 0.  1.
          4    1    6    6  503    0  0.13024251970E+03  0.14132550695E+03  0.25039270330E+03  0.31564619231E+03  0.00000000000E+00 0. -1.
         -4    1    6    6    0  503  0.63826018104E+02  0.34755387666E+02  0.20833909014E+03  0.22065102320E+03  0.00000000000E+00 0.  1.
<mgrwt>
<rscale>  0 0.43928111E+03</rscale>
<asrwt>0</asrwt>
<pdfrwt beam="1">  1        2 0.77300321E-01 0.43928111E+03</pdfrwt>
<pdfrwt beam="2">  1       -2 0.11198329E+00 0.43928111E+03</pdfrwt>
<totfact> 0.40114412E+01</totfact>
</mgrwt>
</event>
<event>
12    1  0.3203156E-008  0.8149177E+03  0.7818608E-02  0.9538672E-01
         -2   -1    0    0    0  501 -0.00000000000E+00  0.00000000000E+00  0.31605761315E+03  0.31605761315E+03  0.00000000000E+00 0. -1.
          2   -1    0    0  501    0  0.00000000000E+00 -0.00000000000E+00 -0.37930121218E+04  0.37930121218E+04  0.00000000000E+00 0.  1.
         23    2    1    2    0    0 -0.43270465895E+03 -0.56844390736E+03 -0.29520116402E+04  0.30386075392E+04  0.91658365191E+02 0.  0.
    5000000    2    1    2    0    0  0.43270465895E+03  0.56844390736E+03 -0.52494286844E+03  0.10704621957E+04  0.59996874886E+03 0.  0.
         23    2    4    4    0    0  0.45632526621E+03  0.65633113093E+03 -0.46266835248E+03  0.92929691936E+03  0.10260340118E+03 0.  0.
         23    2    4    4    0    0 -0.23620607259E+02 -0.87887223566E+02 -0.62274515959E+02  0.14116527635E+03  0.88132983353E+02 0.  0.
          5    1    3    3  502    0 -0.22785320593E+03 -0.22460435877E+03 -0.13040229119E+04  0.13427069845E+04  0.47000000000E+01 0. -1.
         -5    1    3    3    0  502 -0.20485145302E+03 -0.34383954859E+03 -0.16479887282E+04  0.16959005547E+04  0.47000000000E+01 0.  1.
         13    1    5    5    0    0  0.15169682714E+03  0.29438293199E+03 -0.16112511963E+03  0.36828595165E+03  0.00000000000E+00 0. -1.
        -13    1    5    5    0    0  0.30462843907E+03  0.36194819894E+03 -0.30154323286E+03  0.56101096771E+03  0.00000000000E+00 0.  1.
          2    1    6    6  503    0 -0.36677230334E+02 -0.34401274429E+02  0.90183298398E+01  0.51088131503E+02  0.00000000000E+00 0. -1.
         -2    1    6    6    0  503  0.13056623075E+02 -0.53485949137E+02 -0.71292845799E+02  0.90077144844E+02  0.00000000000E+00 0.  1.
<mgrwt>
<rscale>  0 0.81491775E+03</rscale>
<asrwt>0</asrwt>
<pdfrwt beam="1">  1        2 0.58354032E+00 0.81491775E+03</pdfrwt>
<pdfrwt beam="2">  1       -2 0.48624249E-01 0.81491775E+03</pdfrwt>
<totfact> 0.21592615E+00</totfact>
</mgrwt>
</event>
<event>
12    1  0.3203156E-008  0.9129568E+03  0.7818608E-02  0.9409528E-01
         -2   -1    0    0    0  501 -0.00000000000E+00  0.00000000000E+00  0.77792794814E+03  0.77792794814E+03  0.00000000000E+00 0.  1.
          2   -1    0    0  501    0  0.00000000000E+00 -0.00000000000E+00 -0.16498207848E+04  0.16498207848E+04  0.00000000000E+00 0. -1.
         23    2    1    2    0    0  0.69558944616E+03  0.53175000999E+03 -0.10302388356E+04  0.13552014287E+04  0.92607252095E+02 0.  0.
    5000000    2    1    2    0    0 -0.69558944616E+03 -0.53175000999E+03  0.15834599902E+03  0.10725473042E+04  0.59890025350E+03 0.  0.
         23    2    4    4    0    0 -0.62046969978E+03 -0.30461346581E+03  0.32224247490E+03  0.76801770086E+03  0.90768740759E+02 0.  0.
         23    2    4    4    0    0 -0.75119746375E+02 -0.22713654418E+03 -0.16389647588E+03  0.30452960335E+03  0.92963640819E+02 0.  0.
          5    1    3    3  502    0  0.39302607027E+03  0.33281896713E+03 -0.66175144681E+03  0.83855531967E+03  0.47000000000E+01 0. -1.
         -5    1    3    3    0  502  0.30256337589E+03  0.19893104286E+03 -0.36848738884E+03  0.51664610903E+03  0.47000000000E+01 0.  1.
         13    1    5    5    0    0 -0.93096228645E+02 -0.12024533436E+02  0.49319950102E+02  0.10603751539E+03  0.00000000000E+00 0. -1.
        -13    1    5    5    0    0 -0.52737347114E+03 -0.29258893237E+03  0.27292252480E+03  0.66198018547E+03  0.00000000000E+00 0.  1.
          3    1    6    6  503    0 -0.46381639999E+02 -0.36596686558E+02 -0.65350524556E+02  0.88098042292E+02  0.00000000000E+00 0. -1.
         -3    1    6    6    0  503 -0.28738106376E+02 -0.19053985762E+03 -0.98545951329E+02  0.21643156106E+03  0.00000000000E+00 0.  1.
<mgrwt>
<rscale>  0 0.91295684E+03</rscale>
<asrwt>0</asrwt>
<pdfrwt beam="1">  1        2 0.25381858E+00 0.91295684E+03</pdfrwt>
<pdfrwt beam="2">  1       -2 0.11968122E+00 0.91295684E+03</pdfrwt>
<totfact> 0.56213090E+00</totfact>
</mgrwt>
</event>
<event>
12    1  0.3203156E-008  0.1323090E+04  0.7818608E-02  0.9011453E-01
          1   -1    0    0  501    0  0.00000000000E+00  0.00000000000E+00  0.40406437656E+04  0.40406437656E+04  0.00000000000E+00 0. -1.
         -1   -1    0    0    0  501 -0.00000000000E+00 -0.00000000000E+00 -0.78456053377E+03  0.78456053377E+03  0.00000000000E+00 0.  1.
         23    2    1    2    0    0 -0.86330016184E+02  0.13119356492E+04  0.61957811901E+02  0.13193179115E+04  0.90182936568E+02 0.  0.
    5000000    2    1    2    0    0  0.86330016184E+02 -0.13119356492E+04  0.31941254199E+04  0.35058863878E+04  0.60014510488E+03 0.  0.
         23    2    4    4    0    0 -0.34642289985E+02 -0.27841428681E+03  0.26732264496E+03  0.39832417609E+03  0.92120298490E+02 0.  0.
         23    2    4    4    0    0  0.12097230617E+03 -0.10335213623E+04  0.29268027750E+04  0.31075622117E+04  0.89262035469E+02 0.  0.
          5    1    3    3  502    0 -0.10046099249E+03  0.10705900486E+04  0.67844910045E+02  0.10774416388E+04  0.47000000000E+01 0. -1.
         -5    1    3    3    0  502  0.14130976303E+02  0.24134560052E+03 -0.58870981433E+01  0.24187627272E+03  0.47000000000E+01 0.  1.
         13    1    5    5    0    0  0.57107023589E+01 -0.17385345373E+03  0.20920583797E+03  0.27207483922E+03  0.00000000000E+00 0. -1.
        -13    1    5    5    0    0 -0.40352992344E+02 -0.10456083308E+03  0.58116806986E+02  0.12624933687E+03  0.00000000000E+00 0.  1.
          3    1    6    6  503    0  0.55822972402E+01 -0.33593720805E+03  0.87025093979E+03  0.93285672426E+03  0.00000000000E+00 0. -1.
         -3    1    6    6    0  503  0.11539000893E+03 -0.69758415430E+03  0.20565518352E+04  0.21747054875E+04  0.00000000000E+00 0.  1.
<mgrwt>
<rscale>  0 0.13230898E+04</rscale>
<asrwt>0</asrwt>
<pdfrwt beam="1">  1        1 0.62163749E+00 0.13230898E+04</pdfrwt>
<pdfrwt beam="2">  1       -1 0.12070162E+00 0.13230898E+04</pdfrwt>
<totfact> 0.53533541E-02</totfact>
</mgrwt>
</event>
<event>
12    1  0.3203156E-008  0.1375251E+04  0.7818608E-02  0.8971931E-01
         -3   -1    0    0    0  501 -0.00000000000E+00  0.00000000000E+00  0.10298832518E+04  0.10298832518E+04  0.00000000000E+00 0.  1.
          3   -1    0    0  501    0  0.00000000000E+00 -0.00000000000E+00 -0.28504572186E+04  0.28504572186E+04  0.00000000000E+00 0. -1.
         23    2    1    2    0    0  0.22000856754E+03 -0.12981229451E+04  0.26059680378E+03  0.13456688936E+04  0.96887185038E+02 0.  0.
    5000000    2    1    2    0    0 -0.22000856754E+03  0.12981229451E+04 -0.20811707706E+04  0.25346715768E+04  0.59980102975E+03 0.  0.
         23    2    4    4    0    0 -0.36361218060E+03  0.11511272405E+04 -0.18581299265E+04  0.22178430359E+04  0.94197484780E+02 0.  0.
         23    2    4    4    0    0  0.14360361306E+03  0.14699570457E+03 -0.22304084413E+03  0.31682854094E+03  0.91669904330E+02 0.  0.
          5    1    3    3  502    0  0.14811510861E+03 -0.93824096249E+03  0.23033943678E+03  0.97740090814E+03  0.47000000000E+01 0. -1.
         -5    1    3    3    0  502  0.71893458926E+02 -0.35988198262E+03  0.30257366998E+02  0.36826798545E+03  0.47000000000E+01 0.  1.
         13    1    5    5    0    0 -0.31109940042E+03  0.85664375601E+03 -0.13758194531E+04  0.16503031628E+04  0.00000000000E+00 0.  1.
        -13    1    5    5    0    0 -0.52512780175E+02  0.29448348453E+03 -0.48231047340E+03  0.56753987304E+03  0.00000000000E+00 0. -1.
          4    1    6    6  503    0  0.24098022442E+02  0.85228574051E+02 -0.68704471951E+02  0.11209339404E+03  0.00000000000E+00 0. -1.
         -4    1    6    6    0  503  0.11950559062E+03  0.61767130517E+02 -0.15433637218E+03  0.20473514691E+03  0.00000000000E+00 0.  1.
<mgrwt>
<rscale>  0 0.13752510E+04</rscale>
<asrwt>0</asrwt>
<pdfrwt beam="1">  1        3 0.43853188E+00 0.13752510E+04</pdfrwt>
<pdfrwt beam="2">  1       -3 0.15844358E+00 0.13752510E+04</pdfrwt>
<totfact> 0.47692143E-03</totfact>
</mgrwt>
</event>
<event>
12    1  0.3203156E-008  0.1038822E+04  0.7818608E-02  0.9266961E-01
          1   -1    0    0  501    0  0.00000000000E+00  0.00000000000E+00  0.18360985754E+04  0.18360985754E+04  0.00000000000E+00 0. -1.
         -1   -1    0    0    0  501 -0.00000000000E+00 -0.00000000000E+00 -0.61335729363E+03  0.61335729363E+03  0.00000000000E+00 0.  1.
         23    2    1    2    0    0  0.15162689217E+03  0.94243677968E+03  0.78710810150E+03  0.12407527299E+04  0.93543440269E+02 0.  0.
    5000000    2    1    2    0    0 -0.15162689217E+03 -0.94243677968E+03  0.43563318029E+03  0.12087031391E+04  0.60000767718E+03 0.  0.
         23    2    4    4    0    0 -0.36607248182E+03 -0.59899349676E+03  0.22266329950E+03  0.74208419318E+03  0.91146770171E+02 0.  0.
         23    2    4    4    0    0  0.21444558965E+03 -0.34344328292E+03  0.21296988079E+03  0.46661894596E+03  0.91852442007E+02 0.  0.
          5    1    3    3  502    0  0.42130921483E+02  0.46665771104E+03  0.42853503653E+03  0.63498724503E+03  0.47000000000E+01 0. -1.
         -5    1    3    3    0  502  0.10949597069E+03  0.47577906864E+03  0.35857306497E+03  0.60576548488E+03  0.47000000000E+01 0.  1.
         11    1    5    5    0    0 -0.19707175080E+03 -0.38940931439E+03  0.16608329103E+03  0.46696953718E+03  0.00000000000E+00 0. -1.
        -11    1    5    5    0    0 -0.16900073102E+03 -0.20958418237E+03  0.56580008477E+02  0.27511465600E+03  0.00000000000E+00 0.  1.
          3    1    6    6  503    0  0.17067714436E+03 -0.32612136097E+03  0.18710318791E+03  0.41290850393E+03  0.00000000000E+00 0. -1.
         -3    1    6    6    0  503  0.43768445290E+02 -0.17321921951E+02  0.25866692878E+02  0.53710442036E+02  0.00000000000E+00 0.  1.
<mgrwt>
<rscale>  0 0.10388219E+04</rscale>
<asrwt>0</asrwt>
<pdfrwt beam="1">  1        1 0.28247670E+00 0.10388219E+04</pdfrwt>
<pdfrwt beam="2">  1       -1 0.94362661E-01 0.10388219E+04</pdfrwt>
<totfact> 0.42029533E+00</totfact>
</mgrwt>
</event>
<event>
12    1  0.3203156E-008  0.5033362E+03  0.7818608E-02  0.1012912E+00
         -2   -1    0    0    0  501 -0.00000000000E+00  0.00000000000E+00  0.49851233109E+03  0.49851233109E+03  0.00000000000E+00 0.  1.
          2   -1    0    0  501    0  0.00000000000E+00 -0.00000000000E+00 -0.70680808843E+03  0.70680808843E+03  0.00000000000E+00 0. -1.
         23    2    1    2    0    0 -0.34768537027E+03  0.18387049616E+02  0.18792925423E+03  0.40649458273E+03  0.93258999025E+02 0.  0.
    5000000    2    1    2    0    0  0.34768537027E+03 -0.18387049616E+02 -0.39622501156E+03  0.79882583679E+03  0.59992104267E+03 0.  0.
         23    2    4    4    0    0  0.49388295504E+03  0.22459335836E+02 -0.36021382144E+03  0.61820697680E+03  0.89448722525E+02 0.  0.
         23    2    4    4    0    0 -0.14619758477E+03 -0.40846385451E+02 -0.36011190126E+02  0.18061885999E+03  0.91017612419E+02 0.  0.
          5    1    3    3  502    0 -0.15666519175E+03  0.53664305880E+02  0.96845637744E+02  0.19189843038E+03  0.47000000000E+01 0. -1.
         -5    1    3    3    0  502 -0.19102017852E+03 -0.35277256265E+02  0.91083616485E+02  0.21459615235E+03  0.47000000000E+01 0.  1.
         13    1    5    5    0    0  0.30895505957E+03  0.20126963648E+02 -0.27688100067E+03  0.41535696941E+03  0.00000000000E+00 0. -1.
        -13    1    5    5    0    0  0.18492789547E+03  0.23323721876E+01 -0.83332820768E+02  0.20285000739E+03  0.00000000000E+00 0.  1.
          1    1    6    6  503    0 -0.11510331494E+03 -0.27726134428E+02 -0.65932326031E+02  0.13551598894E+03  0.00000000000E+00 0. -1.
         -1    1    6    6    0  503 -0.31094269830E+02 -0.13120251023E+02  0.29921135905E+02  0.45102871051E+02  0.00000000000E+00 0.  1.
<mgrwt>
<rscale>  0 0.50333622E+03</rscale>
<asrwt>0</asrwt>
<pdfrwt beam="1">  1        2 0.10873970E+00 0.50333622E+03</pdfrwt>
<pdfrwt beam="2">  1       -2 0.76694206E-01 0.50333622E+03</pdfrwt>
<totfact> 0.63606685E+01</totfact>
</mgrwt>
</event>
<event>
12    1  0.3203156E-008  0.5908658E+03  0.7818608E-02  0.9924540E-01
         -1   -1    0    0    0  501 -0.00000000000E+00  0.00000000000E+00  0.11917320184E+04  0.11917320184E+04  0.00000000000E+00 0.  1.
          1   -1    0    0  501    0  0.00000000000E+00 -0.00000000000E+00 -0.31181215931E+03  0.31181215931E+03  0.00000000000E+00 0. -1.
         23    2    1    2    0    0  0.37145921825E+03  0.25350377005E+03  0.24348108043E+03  0.52005100625E+03  0.94466397863E+02 0.  0.
    5000000    2    1    2    0    0 -0.37145921825E+03 -0.25350377005E+03  0.63643877864E+03  0.98349317144E+03  0.59996532154E+03 0.  0.
         23    2    4    4    0    0  0.14583063282E+03 -0.26090171894E+02  0.18854020286E+03  0.25666598383E+03  0.91557351552E+02 0.  0.
         23    2    4    4    0    0 -0.51728985107E+03 -0.22741359816E+03  0.44789857578E+03  0.72682718761E+03  0.91426975301E+02 0.  0.
          5    1    3    3  502    0  0.10284447084E+03  0.12211316192E+03  0.99011376167E+02  0.18792006840E+03  0.47000000000E+01 0. -1.
         -5    1    3    3    0  502  0.26861474740E+03  0.13139060813E+03  0.14446970426E+03  0.33213093785E+03  0.47000000000E+01 0.  1.
         11    1    5    5    0    0  0.41364162847E+02 -0.27023356333E+02  0.10921651807E+02  0.50601761173E+02  0.00000000000E+00 0.  1.
        -11    1    5    5    0    0  0.10446646997E+03  0.93318443897E+00  0.17761855105E+03  0.20606422265E+03  0.00000000000E+00 0. -1.
          4    1    6    6  503    0 -0.19732400620E+03 -0.12288558885E+03  0.22206406231E+03  0.32148107120E+03  0.00000000000E+00 0. -1.
         -4    1    6    6    0  503 -0.31996584487E+03 -0.10452800931E+03  0.22583451347E+03  0.40534611641E+03  0.00000000000E+00 0.  1.
<mgrwt>
<rscale>  0 0.59086581E+03</rscale>
<asrwt>0</asrwt>
<pdfrwt beam="1">  1        1 0.47971102E-01 0.59086581E+03</pdfrwt>
<pdfrwt beam="2">  1       -1 0.18334339E+00 0.59086581E+03</pdfrwt>
<totfact> 0.17187215E+01</totfact>
</mgrwt>
</event>
<event>
12    1  0.3203156E-008  0.9278398E+03  0.7818608E-02  0.9391434E-01
         -2   -1    0    0    0  501 -0.00000000000E+00  0.00000000000E+00  0.66040433217E+03  0.66040433217E+03  0.00000000000E+00 0.  1.
          2   -1    0    0  501    0  0.00000000000E+00 -0.00000000000E+00 -0.13417532409E+04  0.13417532409E+04  0.00000000000E+00 0. -1.
         23    2    1    2    0    0 -0.82358793624E+03  0.16025481411E+03 -0.39428196046E+03  0.93145133026E+03  0.90358298575E+02 0.  0.
    5000000    2    1    2    0    0  0.82358793624E+03 -0.16025481411E+03 -0.28706694828E+03  0.10707062428E+04  0.60002144251E+03 0.  0.
         23    2    4    4    0    0  0.69628493666E+03 -0.33942191813E+03 -0.14856087760E+03  0.79398378955E+03  0.91213881521E+02 0.  0.
         23    2    4    4    0    0  0.12730299958E+03  0.17916710402E+03 -0.13850607068E+03  0.27672245329E+03  0.95312536794E+02 0.  0.
          5    1    3    3  502    0 -0.70582492799E+03  0.16777471819E+03 -0.33061561872E+03  0.79728662499E+03  0.47000000000E+01 0. -1.
         -5    1    3    3    0  502 -0.11776300825E+03 -0.75199040820E+01 -0.63666341744E+02  0.13416470527E+03  0.47000000000E+01 0.  1.
         13    1    5    5    0    0  0.31779006632E+03 -0.19282248280E+03 -0.10182605805E+03  0.38540833180E+03  0.00000000000E+00 0. -1.
        -13    1    5    5    0    0  0.37849487034E+03 -0.14659943534E+03 -0.46734819550E+02  0.40857545774E+03  0.00000000000E+00 0.  1.
          4    1    6    6  503    0 -0.78637998754E+01  0.38854368114E+02 -0.37222121307E+01  0.39816530903E+02  0.00000000000E+00 0. -1.
         -4    1    6    6    0  503  0.13516679946E+03  0.14031273591E+03 -0.13478385855E+03  0.23690592238E+03  0.00000000000E+00 0.  1.
<mgrwt>
<rscale>  0 0.92783983E+03</rscale>
<asrwt>0</asrwt>
<pdfrwt beam="1">  1        2 0.20642357E+00 0.92783983E+03</pdfrwt>
<pdfrwt beam="2">  1       -2 0.10160067E+00 0.92783983E+03</pdfrwt>
<totfact> 0.12451963E+01</totfact>
</mgrwt>
</event>
<event>
12    1  0.3203156E-008  0.8181126E+03  0.7818608E-02  0.9534164E-01
          2   -1    0    0  501    0  0.00000000000E+00  0.00000000000E+00  0.73916780370E+03  0.73916780370E+03  0.00000000000E+00 0.  1.
         -2   -1    0    0    0  501 -0.00000000000E+00 -0.00000000000E+00 -0.97444904411E+03  0.97444904411E+03  0.00000000000E+00 0. -1.
         23    2    1    2    0    0 -0.70135770199E+03  0.15747159027E+03  0.68368270523E+02  0.72930635327E+03  0.10253588945E+03 0.  0.
    5000000    2    1    2    0    0  0.70135770199E+03 -0.15747159027E+03 -0.30364951094E+03  0.98431049453E+03  0.59997016282E+03 0.  0.
         23    2    4    4    0    0 -0.66726205962E+02  0.67331859324E+02 -0.45488947025E+02  0.13859943219E+03  0.90302782126E+02 0.  0.
         23    2    4    4    0    0  0.76808390795E+03 -0.22480344959E+03 -0.25816056391E+03  0.84571106234E+03  0.89949116789E+02 0.  0.
          5    1    3    3  502    0 -0.21915966108E+03  0.63241757066E+02 -0.23823375985E+02  0.22939075859E+03  0.47000000000E+01 0. -1.
         -5    1    3    3    0  502 -0.48219804091E+03  0.94229833202E+02  0.92191646509E+02  0.49991559468E+03  0.47000000000E+01 0.  1.
         11    1    5    5    0    0 -0.60690193826E+02  0.79788465579E+02 -0.61363843640E+02  0.11753731396E+03  0.00000000000E+00 0.  1.
        -11    1    5    5    0    0 -0.60360121360E+01 -0.12456606255E+02  0.15874896615E+02  0.21062118232E+02  0.00000000000E+00 0. -1.
          1    1    6    6  503    0  0.22719387813E+03 -0.37658467702E+02 -0.43115954429E+02  0.23429512154E+03  0.00000000000E+00 0. -1.
         -1    1    6    6    0  503  0.54089002982E+03 -0.18714498189E+03 -0.21504460948E+03  0.61141594080E+03  0.00000000000E+00 0.  1.
<mgrwt>
<rscale>  0 0.81811262E+03</rscale>
<asrwt>0</asrwt>
<pdfrwt beam="1">  1        2 0.11371812E+00 0.81811262E+03</pdfrwt>
<pdfrwt beam="2">  1       -2 0.14991524E+00 0.81811262E+03</pdfrwt>
<totfact> 0.11564243E+01</totfact>
</mgrwt>
</event>
<event>
12    1  0.3203156E-008  0.4166066E+03  0.7818608E-02  0.1038176E+00
         -2   -1    0    0    0  501 -0.00000000000E+00  0.00000000000E+00  0.54866734759E+03  0.54866734759E+03  0.00000000000E+00 0.  1.
          2   -1    0    0  501    0  0.00000000000E+00 -0.00000000000E+00 -0.32928487826E+03  0.32928487826E+03  0.00000000000E+00 0. -1.
         23    2    1    2    0    0 -0.19474671039E+03  0.25603629472E+02  0.32174670778E+02  0.21941516617E+03  0.92336226130E+02 0.  0.
    5000000    2    1    2    0    0  0.19474671039E+03 -0.25603629472E+02  0.18720779855E+03  0.65853705967E+03  0.60003539234E+03 0.  0.
         23    2    4    4    0    0 -0.17523733732E+03  0.10889492853E+03  0.51778302760E+02  0.23207084517E+03  0.92788224962E+02 0.  0.
         23    2    4    4    0    0  0.36998404772E+03 -0.13449855800E+03  0.13542949579E+03  0.42646621449E+03  0.92489059374E+02 0.  0.
          5    1    3    3  502    0 -0.80006751803E+02  0.54590361548E+02  0.11344969339E+01  0.96977136435E+02  0.47000000000E+01 0. -1.
         -5    1    3    3    0  502 -0.11473995859E+03 -0.28986732075E+02  0.31040173844E+02  0.12243802974E+03  0.47000000000E+01 0.  1.
         13    1    5    5    0    0 -0.91478600653E+02  0.10437218914E+03  0.12202339519E+02  0.13932259448E+03  0.00000000000E+00 0.  1.
        -13    1    5    5    0    0 -0.83758736670E+02  0.45227393896E+01  0.39575963241E+02  0.92748250693E+02  0.00000000000E+00 0. -1.
          4    1    6    6  503    0  0.10448890462E+03 -0.21942831882E+02 -0.25247120228E+01  0.10679790837E+03  0.00000000000E+00 0.  1.
         -4    1    6    6    0  503  0.26549514309E+03 -0.11255572612E+03  0.13795420782E+03  0.31966830613E+03  0.00000000000E+00 0. -1.
<mgrwt>
<rscale>  0 0.41660661E+03</rscale>
<asrwt>0</asrwt>
<pdfrwt beam="1">  1        2 0.50659212E-01 0.41660661E+03</pdfrwt>
<pdfrwt beam="2">  1       -2 0.84410361E-01 0.41660661E+03</pdfrwt>
<totfact> 0.12447663E+02</totfact>
</mgrwt>
</event>
<event>
12    1  0.3203156E-008  0.1022543E+04  0.7818608E-02  0.9284160E-01
          3   -1    0    0  501    0  0.00000000000E+00  0.00000000000E+00  0.92436247228E+03  0.92436247228E+03  0.00000000000E+00 0. -1.
         -3   -1    0    0    0  501 -0.00000000000E+00 -0.00000000000E+00 -0.15967087848E+04  0.15967087848E+04  0.00000000000E+00 0.  1.
         23    2    1    2    0    0  0.56837824975E+03 -0.75389123155E+03  0.34453261384E+03  0.10093139137E+04  0.92768693995E+02 0.  0.
    5000000    2    1    2    0    0 -0.56837824975E+03  0.75389123155E+03 -0.10168789264E+04  0.15117573434E+04  0.59996807464E+03 0.  0.
         23    2    4    4    0    0 -0.57729588284E+03  0.81034835293E+03 -0.84256850331E+03  0.13070341286E+04  0.92095283155E+02 0.  0.
         23    2    4    4    0    0  0.89176330879E+01 -0.56457121385E+02 -0.17431042304E+03  0.20472321474E+03  0.90887514772E+02 0.  0.
          5    1    3    3  502    0  0.24186789799E+03 -0.29336115893E+03  0.94112564271E+02  0.39171432754E+03  0.47000000000E+01 0. -1.
         -5    1    3    3    0  502  0.32651035176E+03 -0.46053007261E+03  0.25042004957E+03  0.61759958615E+03  0.47000000000E+01 0.  1.
         11    1    5    5    0    0 -0.47590887829E+03  0.64660791562E+03 -0.63279923690E+03  0.10222650983E+04  0.00000000000E+00 0.  1.
        -11    1    5    5    0    0 -0.10138700455E+03  0.16374043731E+03 -0.20976926642E+03  0.28476903033E+03  0.00000000000E+00 0. -1.
          4    1    6    6  503    0 -0.38201960230E+02 -0.11956684526E+02 -0.88984392424E+02  0.97573429607E+02  0.00000000000E+00 0. -1.
         -4    1    6    6    0  503  0.47119593317E+02 -0.44500436858E+02 -0.85326030612E+02  0.10714978514E+03  0.00000000000E+00 0.  1.
<mgrwt>
<rscale>  0 0.10225432E+04</rscale>
<asrwt>0</asrwt>
<pdfrwt beam="1">  1        3 0.14220961E+00 0.10225432E+04</pdfrwt>
<pdfrwt beam="2">  1       -3 0.24564751E+00 0.10225432E+04</pdfrwt>
<totfact> 0.72854409E-02</totfact>
</mgrwt>
</event>
<event>
12    1  0.3203156E-008  0.5022045E+03  0.7818608E-02  0.1013205E+00
         -2   -1    0    0    0  501 -0.00000000000E+00  0.00000000000E+00  0.82214661059E+03  0.82214661059E+03  0.00000000000E+00 0.  1.
          2   -1    0    0  501    0  0.00000000000E+00 -0.00000000000E+00 -0.36163753777E+03  0.36163753777E+03  0.00000000000E+00 0. -1.
         23    2    1    2    0    0  0.33175103187E+03  0.14652114321E+03  0.25780314315E+03  0.45399172408E+03  0.90104563504E+02 0.  0.
    5000000    2    1    2    0    0 -0.33175103187E+03 -0.14652114321E+03  0.20270592968E+03  0.72979242428E+03  0.59998341315E+03 0.  0.
         23    2    4    4    0    0 -0.13400848539E+03  0.18580101361E+03 -0.59362689573E+02  0.25369646020E+03  0.91420316069E+02 0.  0.
         23    2    4    4    0    0 -0.19774254648E+03 -0.33232215682E+03  0.26206861925E+03  0.47609596408E+03  0.91909059465E+02 0.  0.
          5    1    3    3  502    0  0.60058083710E+02  0.59357944828E+02  0.33281841776E+02  0.90885147439E+02  0.47000000000E+01 0. -1.
         -5    1    3    3    0  502  0.27169294816E+03  0.87163198387E+02  0.22452130137E+03  0.36310657664E+03  0.47000000000E+01 0.  1.
         13    1    5    5    0    0 -0.59318761746E+02  0.15467390551E+03 -0.36866073494E+02  0.16971104830E+03  0.00000000000E+00 0. -1.
        -13    1    5    5    0    0 -0.74689723641E+02  0.31127108095E+02 -0.22496616079E+02  0.83985411893E+02  0.00000000000E+00 0.  1.
          3    1    6    6  503    0 -0.13716660042E+03 -0.25619794342E+03  0.23863097800E+03  0.37602766673E+03  0.00000000000E+00 0. -1.
         -3    1    6    6    0  503 -0.60575946056E+02 -0.76124213401E+02  0.23437641248E+02  0.10006829735E+03  0.00000000000E+00 0.  1.
<mgrwt>
<rscale>  0 0.50220450E+03</rscale>
<asrwt>0</asrwt>
<pdfrwt beam="1">  1        2 0.55636544E-01 0.50220450E+03</pdfrwt>
<pdfrwt beam="2">  1       -2 0.12648409E+00 0.50220450E+03</pdfrwt>
<totfact> 0.42745124E+01</totfact>
</mgrwt>
</event>
<event>
12    1  0.3203156E-008  0.6480106E+03  0.7818608E-02  0.9810519E-01
          2   -1    0    0  501    0  0.00000000000E+00  0.00000000000E+00  0.46793775615E+04  0.46793775615E+04  0.00000000000E+00 0. -1.
         -2   -1    0    0    0  501 -0.00000000000E+00 -0.00000000000E+00 -0.10491479532E+03  0.10491479532E+03  0.00000000000E+00 0.  1.
         23    2    1    2    0    0  0.55700294229E+02 -0.53958745067E+03  0.24501666816E+04  0.25111848430E+04  0.92061981597E+02 0.  0.
    5000000    2    1    2    0    0 -0.55700294229E+02  0.53958745067E+03  0.21242960845E+04  0.22731075138E+04  0.60010563626E+03 0.  0.
         23    2    4    4    0    0 -0.27782448542E+03  0.35403952870E+03  0.16320353551E+04  0.16953596553E+04  0.90413096397E+02 0.  0.
         23    2    4    4    0    0  0.22212419119E+03  0.18554792197E+03  0.49226072945E+03  0.57774785846E+03  0.87776845129E+02 0.  0.
          5    1    3    3  502    0  0.36055895739E+02 -0.16574281685E+03  0.60079146375E+03  0.62429414692E+03  0.47000000000E+01 0. -1.
         -5    1    3    3    0  502  0.19644398490E+02 -0.37384463382E+03  0.18493752179E+04  0.18868906961E+04  0.47000000000E+01 0.  1.
         13    1    5    5    0    0 -0.24087517396E+03  0.29227182598E+03  0.14709337453E+04  0.15189107126E+04  0.00000000000E+00 0.  1.
        -13    1    5    5    0    0 -0.36949311463E+02  0.61767702723E+02  0.16110160978E+03  0.17644894273E+03  0.00000000000E+00 0. -1.
          1    1    6    6  503    0  0.97015786318E+02  0.13512217811E+03  0.29731871775E+03  0.34068825301E+03  0.00000000000E+00 0. -1.
         -1    1    6    6    0  503  0.12510840487E+03  0.50425743860E+02  0.19494201170E+03  0.23705960546E+03  0.00000000000E+00 0.  1.
<mgrwt>
<rscale>  0 0.64801058E+03</rscale>
<asrwt>0</asrwt>
<pdfrwt beam="1">  1        2 0.71990408E+00 0.64801058E+03</pdfrwt>
<pdfrwt beam="2">  1       -2 0.16140741E-01 0.64801058E+03</pdfrwt>
<totfact> 0.29375684E+00</totfact>
</mgrwt>
</event>
<event>
12    1  0.3203156E-008  0.6954255E+03  0.7818608E-02  0.9725087E-01
         -1   -1    0    0    0  501 -0.00000000000E+00  0.00000000000E+00  0.19789837940E+03  0.19789837940E+03  0.00000000000E+00 0.  1.
          1   -1    0    0  501    0  0.00000000000E+00 -0.00000000000E+00 -0.28835336944E+04  0.28835336944E+04  0.00000000000E+00 0. -1.
         23    2    1    2    0    0 -0.24207171006E+03  0.57122238035E+03 -0.88233075256E+03  0.10823285515E+04  0.89631556223E+02 0.  0.
    5000000    2    1    2    0    0  0.24207171006E+03 -0.57122238035E+03 -0.18033045624E+04  0.19991035222E+04  0.59967810305E+03 0.  0.
         23    2    4    4    0    0  0.35441529128E+03 -0.31671816377E+03 -0.14943171152E+04  0.15709745747E+04  0.95167639030E+02 0.  0.
         23    2    4    4    0    0 -0.11234358122E+03 -0.25450421658E+03 -0.30898744716E+03  0.42812894754E+03  0.10211599642E+03 0.  0.
          5    1    3    3  502    0 -0.61654380955E+02  0.20342345244E+03 -0.36513232829E+03  0.42252345598E+03  0.47000000000E+01 0. -1.
         -5    1    3    3    0  502 -0.18041732910E+03  0.36779892791E+03 -0.51719842428E+03  0.65980509553E+03  0.47000000000E+01 0.  1.
         11    1    5    5    0    0  0.74119460207E+02 -0.12435477175E+03 -0.45311078702E+03  0.47567550804E+03  0.00000000000E+00 0. -1.
        -11    1    5    5    0    0  0.28029583107E+03 -0.19236339202E+03 -0.10412063282E+04  0.10952990667E+04  0.00000000000E+00 0.  1.
          2    1    6    6  503    0  0.51265523216E+01 -0.30064636464E+02 -0.26434886436E+01  0.30612937406E+02  0.00000000000E+00 0. -1.
         -2    1    6    6    0  503 -0.11747013354E+03 -0.22443958012E+03 -0.30634395851E+03  0.39751601014E+03  0.00000000000E+00 0.  1.
<mgrwt>
<rscale>  0 0.69542550E+03</rscale>
<asrwt>0</asrwt>
<pdfrwt beam="1">  1        1 0.44362055E+00 0.69542550E+03</pdfrwt>
<pdfrwt beam="2">  1       -1 0.30445906E-01 0.69542550E+03</pdfrwt>
<totfact> 0.77416729E+00</totfact>
</mgrwt>
</event>
<event>
12    1  0.3203156E-008  0.6779425E+03  0.7818608E-02  0.9755715E-01
          1   -1    0    0  501    0  0.00000000000E+00  0.00000000000E+00  0.76280795939E+03  0.76280795939E+03  0.00000000000E+00 0. -1.
         -1   -1    0    0    0  501 -0.00000000000E+00 -0.00000000000E+00 -0.10147580827E+04  0.10147580827E+04  0.00000000000E+00 0.  1.
         23    2    1    2    0    0  0.86698324233E+02  0.63758419626E+03  0.32411753496E+03  0.72595201388E+03  0.89016533543E+02 0.  0.
    5000000    2    1    2    0    0 -0.86698324233E+02 -0.63758419626E+03 -0.57606765825E+03  0.10516140282E+04  0.60000659219E+03 0.  0.
         23    2    4    4    0    0  0.36662372496E+02 -0.58578161132E+02  0.97989235828E+02  0.14987494101E+03  0.89917056695E+02 0.  0.
         23    2    4    4    0    0 -0.12336069673E+03 -0.57900603512E+03 -0.67405689408E+03  0.90173908719E+03  0.91185715419E+02 0.  0.
          5    1    3    3  502    0 -0.64583076987E+01  0.24776697844E+03  0.14213551896E+03  0.28575300715E+03  0.47000000000E+01 0. -1.
         -5    1    3    3    0  502  0.93156631931E+02  0.38981721781E+03  0.18198201599E+03  0.44019900672E+03  0.47000000000E+01 0.  1.
         13    1    5    5    0    0 -0.27504344092E+02 -0.35264657776E+02  0.32617895474E+02  0.55353519645E+02  0.00000000000E+00 0. -1.
        -13    1    5    5    0    0  0.64166716587E+02 -0.23313503356E+02  0.65371340355E+02  0.94521421361E+02  0.00000000000E+00 0.  1.
          4    1    6    6  503    0 -0.18712397987E+02 -0.20353410831E+03 -0.17933998934E+03  0.27191748539E+03  0.00000000000E+00 0. -1.
         -4    1    6    6    0  503 -0.10464829874E+03 -0.37547192681E+03 -0.49471690474E+03  0.62982160179E+03  0.00000000000E+00 0.  1.
<mgrwt>
<rscale>  0 0.67794251E+03</rscale>
<asrwt>0</asrwt>
<pdfrwt beam="1">  1        1 0.11735507E+00 0.67794251E+03</pdfrwt>
<pdfrwt beam="2">  1       -1 0.15611663E+00 0.67794251E+03</pdfrwt>
<totfact> 0.77871489E+00</totfact>
</mgrwt>
</event>
<event>
12    1  0.3203156E-008  0.5009993E+03  0.7818608E-02  0.1013518E+00
         -2   -1    0    0    0  501 -0.00000000000E+00  0.00000000000E+00  0.66756675973E+03  0.66756675973E+03  0.00000000000E+00 0.  1.
          2   -1    0    0  501    0  0.00000000000E+00 -0.00000000000E+00 -0.42444596000E+03  0.42444596000E+03  0.00000000000E+00 0. -1.
         23    2    1    2    0    0 -0.26468679422E+03 -0.19548162476E+03  0.22110394579E+03  0.40731278265E+03  0.93512477293E+02 0.  0.
    5000000    2    1    2    0    0  0.26468679422E+03  0.19548162476E+03  0.22016853938E+02  0.68469993708E+03  0.60004757922E+03 0.  0.
         23    2    4    4    0    0 -0.16137385511E+03 -0.22879090352E+02  0.57021222865E+02  0.19578593875E+03  0.92280767601E+02 0.  0.
         23    2    4    4    0    0  0.42606064933E+03  0.21836071511E+03 -0.35004368927E+02  0.48891399832E+03  0.92749733706E+02 0.  0.
          5    1    3    3  502    0 -0.16592378697E+03 -0.16277169279E+03  0.11779895779E+03  0.26062235420E+03  0.47000000000E+01 0.  1.
         -5    1    3    3    0  502 -0.98763007254E+02 -0.32709931976E+02  0.10330498800E+03  0.14669042844E+03  0.47000000000E+01 0. -1.
         11    1    5    5    0    0 -0.12065390454E+03  0.24735306803E+02  0.26012135584E+02  0.12588022594E+03  0.00000000000E+00 0.  1.
        -11    1    5    5    0    0 -0.40719950563E+02 -0.47614397155E+02  0.31009087281E+02  0.69905712816E+02  0.00000000000E+00 0. -1.
          4    1    6    6  503    0  0.33774851392E+03  0.18544879761E+03  0.78288058239E+01  0.38539149626E+03  0.00000000000E+00 0.  1.
         -4    1    6    6    0  503  0.88312135413E+02  0.32911917505E+02 -0.42833174751E+02  0.10352250207E+03  0.00000000000E+00 0. -1.
<mgrwt>
<rscale>  0 0.50099927E+03</rscale>
<asrwt>0</asrwt>
<pdfrwt beam="1">  1        2 0.65299379E-01 0.50099927E+03</pdfrwt>
<pdfrwt beam="2">  1       -2 0.10270258E+00 0.50099927E+03</pdfrwt>
<totfact> 0.59336034E+01</totfact>
</mgrwt>
</event>
<event>
12    1  0.3203156E-008  0.6696421E+03  0.7818608E-02  0.9770605E-01
         -1   -1    0    0    0  501 -0.00000000000E+00  0.00000000000E+00  0.67198366731E+03  0.67198366731E+03  0.00000000000E+00 0.  1.
          1   -1    0    0  501    0  0.00000000000E+00 -0.00000000000E+00 -0.10471972086E+04  0.10471972086E+04  0.00000000000E+00 0. -1.
         23    2    1    2    0    0  0.55491579093E+03 -0.37189272841E+02  0.31778508324E+03  0.64707476601E+03  0.91672332981E+02 0.  0.
    5000000    2    1    2    0    0 -0.55491579093E+03  0.37189272841E+02 -0.69299862456E+03  0.10721061099E+04  0.59987485384E+03 0.  0.
         23    2    4    4    0    0 -0.63336535492E+03 -0.58476027159E+02 -0.64647315837E+03  0.91149340757E+03  0.91222634172E+02 0.  0.
         23    2    4    4    0    0  0.78449563993E+02  0.95665300000E+02 -0.46525466192E+02  0.16061270236E+03  0.91244931040E+02 0.  0.
          5    1    3    3  502    0  0.41685607115E+03 -0.61584525531E+02  0.26135231311E+03  0.49587171668E+03  0.47000000000E+01 0. -1.
         -5    1    3    3    0  502  0.13805971978E+03  0.24395252690E+02  0.56432770128E+02  0.15120304932E+03  0.47000000000E+01 0.  1.
         11    1    5    5    0    0 -0.25536119746E+03  0.13089217806E+02 -0.22204316204E+03  0.33865001787E+03  0.00000000000E+00 0. -1.
        -11    1    5    5    0    0 -0.37800415746E+03 -0.71565244965E+02 -0.42442999633E+03  0.57284338970E+03  0.00000000000E+00 0.  1.
          1    1    6    6  503    0  0.55421543790E+02  0.21363947764E+02  0.15199233345E+02  0.61310541299E+02  0.00000000000E+00 0. -1.
         -1    1    6    6    0  503  0.23028020203E+02  0.74301352237E+02 -0.61724699537E+02  0.99302161062E+02  0.00000000000E+00 0.  1.
<mgrwt>
<rscale>  0 0.66964214E+03</rscale>
<asrwt>0</asrwt>
<pdfrwt beam="1">  1        1 0.16110726E+00 0.66964214E+03</pdfrwt>
<pdfrwt beam="2">  1       -1 0.10338210E+00 0.66964214E+03</pdfrwt>
<totfact> 0.12812357E+01</totfact>
</mgrwt>
</event>
<event>
12    1  0.3203156E-008  0.7449411E+03  0.7818608E-02  0.9643321E-01
         -3   -1    0    0    0  501 -0.00000000000E+00  0.00000000000E+00  0.60880808291E+03  0.60880808291E+03  0.00000000000E+00 0.  1.
          3   -1    0    0  501    0  0.00000000000E+00 -0.00000000000E+00 -0.16107686907E+04  0.16107686907E+04  0.00000000000E+00 0. -1.
         23    2    1    2    0    0 -0.81809888391E+02 -0.66253780752E+03  0.21517497391E+03  0.70733257737E+03  0.91487165116E+02 0.  0.
    5000000    2    1    2    0    0  0.81809888391E+02  0.66253780752E+03 -0.12171355817E+04  0.15122441963E+04  0.59984521384E+03 0.  0.
         23    2    4    4    0    0  0.56741376767E+02 -0.48283008847E+02 -0.42888822978E+03  0.44659408511E+03  0.99751342992E+02 0.  0.
         23    2    4    4    0    0  0.25068511624E+02  0.71082081637E+03 -0.78824735196E+03  0.10656501112E+04  0.91551123841E+02 0.  0.
          5    1    3    3  502    0 -0.10782440508E+02 -0.15623368234E+03  0.91000329908E+02  0.18118602199E+03  0.47000000000E+01 0. -1.
         -5    1    3    3    0  502 -0.71027447883E+02 -0.50630412518E+03  0.12417464400E+03  0.52614655538E+03  0.47000000000E+01 0.  1.
         11    1    5    5    0    0 -0.17330128899E+02 -0.16237149637E+01 -0.21187708552E+03  0.21259084925E+03  0.00000000000E+00 0.  1.
        -11    1    5    5    0    0  0.74071505666E+02 -0.46659293883E+02 -0.21701114426E+03  0.23400323586E+03  0.00000000000E+00 0. -1.
          3    1    6    6  503    0  0.52957667618E+02  0.26259804805E+03 -0.28379761488E+03  0.39026059961E+03  0.00000000000E+00 0. -1.
         -3    1    6    6    0  503 -0.27889155994E+02  0.44822276832E+03 -0.50444973708E+03  0.67538951154E+03  0.00000000000E+00 0.  1.
<mgrwt>
<rscale>  0 0.74494109E+03</rscale>
<asrwt>0</asrwt>
<pdfrwt beam="1">  1        3 0.24781057E+00 0.74494109E+03</pdfrwt>
<pdfrwt beam="2">  1       -3 0.93662781E-01 0.74494109E+03</pdfrwt>
<totfact> 0.20236896E-01</totfact>
</mgrwt>
</event>
<event>
12    1  0.3203156E-008  0.5452986E+03  0.7818608E-02  0.1002588E+00
          2   -1    0    0  501    0  0.00000000000E+00  0.00000000000E+00  0.29349252226E+04  0.29349252226E+04  0.00000000000E+00 0. -1.
         -2   -1    0    0    0  501 -0.00000000000E+00 -0.00000000000E+00 -0.13225805207E+03  0.13225805207E+03  0.00000000000E+00 0.  1.
         23    2    1    2    0    0 -0.38571718998E+03 -0.27228357839E+03  0.11634149542E+04  0.12588623017E+04  0.91015610259E+02 0.  0.
    5000000    2    1    2    0    0  0.38571718998E+03  0.27228357839E+03  0.16392522163E+04  0.18083209729E+04  0.59996734475E+03 0.  0.
         23    2    4    4    0    0  0.22634613460E+03 -0.50301956298E+02  0.12343044908E+04  0.12590133684E+04  0.88567637940E+02 0.  0.
         23    2    4    4    0    0  0.15937105538E+03  0.32258553469E+03  0.40494772556E+03  0.54930760453E+03  0.91080313289E+02 0.  0.
          5    1    3    3  502    0 -0.15415351032E+03 -0.15491503697E+03  0.59724394842E+03  0.63599087835E+03  0.47000000000E+01 0. -1.
         -5    1    3    3    0  502 -0.23156367966E+03 -0.11736854142E+03  0.56617100575E+03  0.62287142333E+03  0.47000000000E+01 0.  1.
         13    1    5    5    0    0  0.20176017042E+03 -0.11286862645E+02  0.10105632372E+04  0.10305690739E+04  0.00000000000E+00 0.  1.
        -13    1    5    5    0    0  0.24585964182E+02 -0.39015093653E+02  0.22374125352E+03  0.22844429451E+03  0.00000000000E+00 0. -1.
          1    1    6    6  503    0  0.21933096944E+02  0.10144231933E+03  0.16678701388E+03  0.19644213624E+03  0.00000000000E+00 0. -1.
         -1    1    6    6    0  503  0.13743795844E+03  0.22114321535E+03  0.23816071168E+03  0.35286546828E+03  0.00000000000E+00 0.  1.
<mgrwt>
<rscale>  0 0.54529859E+03</rscale>
<asrwt>0</asrwt>
<pdfrwt beam="1">  1        2 0.45152691E+00 0.54529859E+03</pdfrwt>
<pdfrwt beam="2">  1       -2 0.20347395E-01 0.54529859E+03</pdfrwt>
<totfact> 0.43220227E+01</totfact>
</mgrwt>
</event>
<event>
12    1  0.3298552E-008  0.1125858E+04  0.7818608E-02  0.9180349E-01
         -2   -1    0    0    0  501 -0.00000000000E+00  0.00000000000E+00  0.50994436945E+03  0.50994436945E+03  0.00000000000E+00 0.  1.
          2   -1    0    0  501    0  0.00000000000E+00 -0.00000000000E+00 -0.27417300690E+04  0.27417300690E+04  0.00000000000E+00 0. -1.
         23    2    1    2    0    0 -0.10090472757E+04  0.39270047919E+03 -0.13441979927E+04  0.17284574594E+04  0.91142055689E+02 0.  0.
    5000000    2    1    2    0    0  0.10090472757E+04 -0.39270047919E+03 -0.88758770682E+03  0.15232169790E+04  0.59998996406E+03 0.  0.
         23    2    4    4    0    0  0.99303694250E+03 -0.45104738919E+03 -0.89978625660E+03  0.14167678802E+04  0.89720690378E+02 0.  0.
         23    2    4    4    0    0  0.16010333218E+02  0.58346910000E+02  0.12198549787E+02  0.10644909886E+03  0.86728964918E+02 0.  0.
          5    1    3    3  502    0 -0.29590450534E+03  0.15601208962E+03 -0.38695667912E+03  0.51152400716E+03  0.47000000000E+01 0. -1.
         -5    1    3    3    0  502 -0.71314277037E+03  0.23668838957E+03 -0.95724131360E+03  0.12169334522E+04  0.47000000000E+01 0.  1.
         13    1    5    5    0    0  0.41526350272E+03 -0.23655786725E+03 -0.40420547354E+03  0.62592768439E+03  0.00000000000E+00 0. -1.
        -13    1    5    5    0    0  0.57777343978E+03 -0.21448952194E+03 -0.49558078307E+03  0.79084019579E+03  0.00000000000E+00 0.  1.
          4    1    6    6  503    0 -0.45651291979E+01 -0.38871446449E+01  0.36164391739E+02  0.36658062250E+02  0.00000000000E+00 0. -1.
         -4    1    6    6    0  503  0.20575462416E+02  0.62234054645E+02 -0.23965841952E+02  0.69791036614E+02  0.00000000000E+00 0.  1.
<mgrwt>
<rscale>  0 0.11258582E+04</rscale>
<asrwt>0</asrwt>
<pdfrwt beam="1">  1        2 0.42180463E+00 0.11258582E+04</pdfrwt>
<pdfrwt beam="2">  1       -2 0.78452980E-01 0.11258582E+04</pdfrwt>
<totfact> 0.36159432E+00</totfact>
</mgrwt>
</event>
<event>
12    1  0.3203156E-008  0.4810702E+03  0.7818608E-02  0.1018841E+00
         -2   -1    0    0    0  501 -0.00000000000E+00  0.00000000000E+00  0.37048369161E+03  0.37048369161E+03  0.00000000000E+00 0.  1.
          2   -1    0    0  501    0  0.00000000000E+00 -0.00000000000E+00 -0.85304966188E+03  0.85304966188E+03  0.00000000000E+00 0. -1.
         23    2    1    2    0    0  0.15656820667E+03 -0.32401466467E+03 -0.35222679113E+03  0.51183014638E+03  0.91691221490E+02 0.  0.
    5000000    2    1    2    0    0 -0.15656820667E+03  0.32401466467E+03 -0.13033917914E+03  0.71170320711E+03  0.60002837193E+03 0.  0.
         23    2    4    4    0    0 -0.24993603465E+02 -0.11416774774E+03  0.11253957587E+03  0.18537967330E+03  0.89674479639E+02 0.  0.
         23    2    4    4    0    0 -0.13157460320E+03  0.43818241241E+03 -0.24287875501E+03  0.52632353381E+03  0.93330969411E+02 0.  0.
          5    1    3    3  502    0  0.69484546756E+02 -0.10871034171E+03 -0.71944988256E+02  0.14779787538E+03  0.47000000000E+01 0. -1.
         -5    1    3    3    0  502  0.87083659912E+02 -0.21530432296E+03 -0.28028180287E+03  0.36403227100E+03  0.47000000000E+01 0.  1.
         11    1    5    5    0    0 -0.48792821759E+02 -0.86670858407E+02  0.11091293747E+03  0.14897737026E+03  0.00000000000E+00 0.  1.
        -11    1    5    5    0    0  0.23799218293E+02 -0.27496889329E+02  0.16266384046E+01  0.36402303041E+02  0.00000000000E+00 0. -1.
          4    1    6    6  503    0 -0.32122239222E+02  0.25009561736E+03 -0.15601297445E+03  0.29651257017E+03  0.00000000000E+00 0. -1.
         -4    1    6    6    0  503 -0.99452363980E+02  0.18808679505E+03 -0.86865780563E+02  0.22981096363E+03  0.00000000000E+00 0.  1.
<mgrwt>
<rscale>  0 0.48107017E+03</rscale>
<asrwt>0</asrwt>
<pdfrwt beam="1">  1        2 0.13123841E+00 0.48107017E+03</pdfrwt>
<pdfrwt beam="2">  1       -2 0.56997492E-01 0.48107017E+03</pdfrwt>
<totfact> 0.94454489E+01</totfact>
</mgrwt>
</event>
<event>
12    1  0.3203156E-008  0.6763161E+03  0.7818608E-02  0.9758615E-01
          4   -1    0    0  501    0  0.00000000000E+00  0.00000000000E+00  0.11018702983E+04  0.11018702983E+04  0.00000000000E+00 0. -1.
         -4   -1    0    0    0  501 -0.00000000000E+00 -0.00000000000E+00 -0.50833474068E+03  0.50833474068E+03  0.00000000000E+00 0.  1.
         23    2    1    2    0    0  0.59846289336E+03 -0.10299331252E+03  0.93768500743E+02  0.62105029360E+03  0.90252303595E+02 0.  0.
    5000000    2    1    2    0    0 -0.59846289336E+03  0.10299331252E+03  0.49976705690E+03  0.98915474539E+03  0.59991211191E+03 0.  0.
         23    2    4    4    0    0  0.46430708784E+01 -0.62037667376E+02 -0.76373365684E+02  0.13407613995E+03  0.90957627703E+02 0.  0.
         23    2    4    4    0    0 -0.60310596423E+03  0.16503097989E+03  0.57614042258E+03  0.85507860544E+03  0.90827344608E+02 0.  0.
          5    1    3    3  502    0  0.22754949680E+03 -0.35717834605E+01  0.60775795740E+02  0.23559991188E+03  0.47000000000E+01 0. -1.
         -5    1    3    3    0  502  0.37091339656E+03 -0.99421529056E+02  0.32992705003E+02  0.38545038172E+03  0.47000000000E+01 0.  1.
         11    1    5    5    0    0  0.40142949660E+02 -0.23449871254E+01 -0.34465626495E+02  0.52960690910E+02  0.00000000000E+00 0. -1.
        -11    1    5    5    0    0 -0.35499878781E+02 -0.59692680251E+02 -0.41907739189E+02  0.81115449040E+02  0.00000000000E+00 0.  1.
          4    1    6    6  503    0 -0.43492517772E+03  0.15880886793E+03  0.43784041961E+03  0.63724751847E+03  0.00000000000E+00 0. -1.
         -4    1    6    6    0  503 -0.16818078652E+03  0.62221119666E+01  0.13830000297E+03  0.21783108698E+03  0.00000000000E+00 0.  1.
<mgrwt>
<rscale>  0 0.67631612E+03</rscale>
<asrwt>0</asrwt>
<pdfrwt beam="1">  1        4 0.16951851E+00 0.67631612E+03</pdfrwt>
<pdfrwt beam="2">  1       -4 0.78205345E-01 0.67631612E+03</pdfrwt>
<totfact> 0.61131591E-01</totfact>
</mgrwt>
</event>
<event>
12    1  0.3203156E-008  0.1316905E+04  0.7818608E-02  0.9016266E-01
          2   -1    0    0  501    0  0.00000000000E+00  0.00000000000E+00  0.13291123348E+04  0.13291123348E+04  0.00000000000E+00 0. -1.
         -2   -1    0    0    0  501 -0.00000000000E+00 -0.00000000000E+00 -0.17459590890E+04  0.17459590890E+04  0.00000000000E+00 0.  1.
         23    2    1    2    0    0  0.62723225776E+03  0.10974155062E+04  0.54339488053E+03  0.13780423259E+04  0.77340528044E+02 0.  0.
    5000000    2    1    2    0    0 -0.62723225776E+03 -0.10974155062E+04 -0.96024163475E+03  0.16970290980E+04  0.60008554701E+03 0.  0.
         23    2    4    4    0    0  0.77939927240E+02 -0.66373135464E+02 -0.15589754792E+03  0.20851510049E+03  0.93244175779E+02 0.  0.
         23    2    4    4    0    0 -0.70517218500E+03 -0.10310423708E+04 -0.80434408683E+03  0.14885139975E+04  0.91587825773E+02 0.  0.
          5    1    3    3  502    0  0.49034626151E+03  0.81216208347E+03  0.38091603988E+03  0.10223335197E+04  0.47000000000E+01 0. -1.
         -5    1    3    3    0  502  0.13688599625E+03  0.28525342277E+03  0.16247884065E+03  0.35570880623E+03  0.47000000000E+01 0.  1.
         11    1    5    5    0    0 -0.80941457828E+01 -0.14725502352E+02  0.61672166362E+01  0.17899446263E+02  0.00000000000E+00 0.  1.
        -11    1    5    5    0    0  0.86034073023E+02 -0.51647633112E+02 -0.16206476456E+03  0.19061565423E+03  0.00000000000E+00 0. -1.
          1    1    6    6  503    0 -0.35533300010E+03 -0.58757066436E+03 -0.41209356058E+03  0.80082577958E+03  0.00000000000E+00 0. -1.
         -1    1    6    6    0  503 -0.34983918490E+03 -0.44347170642E+03 -0.39225052625E+03  0.68768821789E+03  0.00000000000E+00 0.  1.
<mgrwt>
<rscale>  0 0.13169049E+04</rscale>
<asrwt>0</asrwt>
<pdfrwt beam="1">  1        2 0.20447882E+00 0.13169049E+04</pdfrwt>
<pdfrwt beam="2">  1       -2 0.26860909E+00 0.13169049E+04</pdfrwt>
<totfact> 0.75455222E-01</totfact>
</mgrwt>
</event>
<event>
12    1  0.3203156E-008  0.5060430E+03  0.7818608E-02  0.1012214E+00
         -1   -1    0    0    0  501 -0.00000000000E+00  0.00000000000E+00  0.54445933002E+03  0.54445933002E+03  0.00000000000E+00 0.  1.
          1   -1    0    0  501    0  0.00000000000E+00 -0.00000000000E+00 -0.67764611602E+03  0.67764611602E+03  0.00000000000E+00 0. -1.
         23    2    1    2    0    0  0.11997571757E+03  0.43690310393E+03 -0.37894554277E+02  0.46427368746E+03  0.93997684018E+02 0.  0.
    5000000    2    1    2    0    0 -0.11997571757E+03 -0.43690310393E+03 -0.95292231722E+02  0.75783175857E+03  0.59995822342E+03 0.  0.
         23    2    4    4    0    0  0.87749836830E+02 -0.22537642814E+03 -0.29289305781E+03  0.39028155513E+03  0.89659247885E+02 0.  0.
         23    2    4    4    0    0 -0.20772555440E+03 -0.21152667579E+03  0.19760082609E+03  0.36755020345E+03  0.90297425557E+02 0.  0.
          5    1    3    3  502    0  0.18819884955E+02  0.18063683732E+03 -0.50094187833E+02  0.18845522737E+03  0.47000000000E+01 0. -1.
         -5    1    3    3    0  502  0.10115583261E+03  0.25626626660E+03  0.12199633556E+02  0.27581846009E+03  0.47000000000E+01 0.  1.
         13    1    5    5    0    0  0.96355921044E+02 -0.15816483276E+03 -0.17787713311E+03  0.25678950977E+03  0.00000000000E+00 0.  1.
        -13    1    5    5    0    0 -0.86060842137E+01 -0.67211595378E+02 -0.11501592470E+03  0.13349204536E+03  0.00000000000E+00 0. -1.
          2    1    6    6  503    0 -0.21850480367E+02 -0.53988223506E+02  0.79425836335E+01  0.58781429077E+02  0.00000000000E+00 0. -1.
         -2    1    6    6    0  503 -0.18587507403E+03 -0.15753845228E+03  0.18965824246E+03  0.30876877437E+03  0.00000000000E+00 0.  1.
<mgrwt>
<rscale>  0 0.50604303E+03</rscale>
<asrwt>0</asrwt>
<pdfrwt beam="1">  1        1 0.10425325E+00 0.50604303E+03</pdfrwt>
<pdfrwt beam="2">  1       -1 0.83762974E-01 0.50604303E+03</pdfrwt>
<totfact> 0.42548060E+01</totfact>
</mgrwt>
</event>
<event>
12    1  0.3203156E-008  0.3929787E+03  0.7818608E-02  0.1046238E+00
          2   -1    0    0  501    0  0.00000000000E+00  0.00000000000E+00  0.23890667206E+04  0.23890667206E+04  0.00000000000E+00 0. -1.
         -2   -1    0    0    0  501 -0.00000000000E+00 -0.00000000000E+00 -0.12526101619E+03  0.12526101619E+03  0.00000000000E+00 0.  1.
         23    2    1    2    0    0 -0.98108709096E+01  0.17008156347E+03  0.15679744550E+04  0.15798893420E+04  0.92100216961E+02 0.  0.
    5000000    2    1    2    0    0  0.98108709096E+01 -0.17008156347E+03  0.69583124940E+03  0.93443839480E+03  0.59997499499E+03 0.  0.
         23    2    4    4    0    0  0.10429949445E+03  0.17991097148E+03  0.15080691178E+03  0.27351578162E+03  0.93924522655E+02 0.  0.
         23    2    4    4    0    0 -0.94488623542E+02 -0.34999253494E+03  0.54502433762E+03  0.66092261317E+03  0.91347126470E+02 0.  0.
          5    1    3    3  502    0  0.23788552377E+02  0.13594753315E+03  0.94207123871E+03  0.95213861165E+03  0.47000000000E+01 0.  1.
         -5    1    3    3    0  502 -0.33599423287E+02  0.34134030317E+02  0.62590321631E+03  0.62775073035E+03  0.47000000000E+01 0. -1.
         11    1    5    5    0    0 -0.66409873273E+01  0.70870645114E+02  0.33408546155E+02  0.78631304248E+02  0.00000000000E+00 0. -1.
        -11    1    5    5    0    0  0.11094048178E+03  0.10904032636E+03  0.11739836562E+03  0.19488447738E+03  0.00000000000E+00 0.  1.
          2    1    6    6  503    0 -0.10429296805E+03 -0.22921724649E+03  0.34662403681E+03  0.42844578673E+03  0.00000000000E+00 0. -1.
         -2    1    6    6    0  503  0.98043445098E+01 -0.12077528845E+03  0.19840030081E+03  0.23247682644E+03  0.00000000000E+00 0.  1.
<mgrwt>
<rscale>  0 0.39297867E+03</rscale>
<asrwt>0</asrwt>
<pdfrwt beam="1">  1        2 0.36754869E+00 0.39297867E+03</pdfrwt>
<pdfrwt beam="2">  1       -2 0.19270927E-01 0.39297867E+03</pdfrwt>
<totfact> 0.10063841E+02</totfact>
</mgrwt>
</event>
<event>
12    1  0.3203156E-008  0.4935430E+03  0.7818608E-02  0.1015478E+00
          2   -1    0    0  501    0  0.00000000000E+00  0.00000000000E+00  0.11915728518E+04  0.11915728518E+04  0.00000000000E+00 0. -1.
         -2   -1    0    0    0  501 -0.00000000000E+00 -0.00000000000E+00 -0.34039920261E+03  0.34039920261E+03  0.00000000000E+00 0.  1.
         23    2    1    2    0    0 -0.17734003033E+02 -0.46751253480E+03  0.50888976809E+03  0.69764379641E+03  0.94104226980E+02 0.  0.
    5000000    2    1    2    0    0  0.17734003033E+02  0.46751253480E+03  0.34228388114E+03  0.83432825806E+03  0.60005243258E+03 0.  0.
         23    2    4    4    0    0 -0.66031413126E+02  0.25926378086E+03 -0.12475532073E+03  0.30792402578E+03  0.87609702766E+02 0.  0.
         23    2    4    4    0    0  0.83765416159E+02  0.20824875394E+03  0.46703920187E+03  0.52640423227E+03  0.92690944563E+02 0.  0.
          5    1    3    3  502    0 -0.47269650570E+02 -0.38085630624E+03  0.38610691301E+03  0.54441398231E+03  0.47000000000E+01 0. -1.
         -5    1    3    3    0  502  0.29535647537E+02 -0.86656228564E+02  0.12278285508E+03  0.15322981409E+03  0.47000000000E+01 0.  1.
         13    1    5    5    0    0  0.17642586603E+02  0.63267410866E+02 -0.48243989780E+02  0.81495451956E+02  0.00000000000E+00 0. -1.
        -13    1    5    5    0    0 -0.83673999729E+02  0.19599636999E+03 -0.76511330955E+02  0.22642857383E+03  0.00000000000E+00 0.  1.
          1    1    6    6  503    0  0.11164997915E+02 -0.11155909929E+01  0.21803856630E+01  0.11430476952E+02  0.00000000000E+00 0. -1.
         -1    1    6    6    0  503  0.72600418244E+02  0.20936434494E+03  0.46485881621E+03  0.51497375532E+03  0.00000000000E+00 0.  1.
<mgrwt>
<rscale>  0 0.49354298E+03</rscale>
<asrwt>0</asrwt>
<pdfrwt beam="1">  1        2 0.18331890E+00 0.49354298E+03</pdfrwt>
<pdfrwt beam="2">  1       -2 0.52369109E-01 0.49354298E+03</pdfrwt>
<totfact> 0.68926073E+01</totfact>
</mgrwt>
</event>
<event>
12    1  0.3203156E-008  0.8185706E+03  0.7818608E-02  0.9533519E-01
         -1   -1    0    0    0  501 -0.00000000000E+00  0.00000000000E+00  0.23594293545E+03  0.23594293545E+03  0.00000000000E+00 0.  1.
          1   -1    0    0  501    0  0.00000000000E+00 -0.00000000000E+00 -0.29596531551E+04  0.29596531551E+04  0.00000000000E+00 0. -1.
         23    2    1    2    0    0 -0.63879529556E+03 -0.31884222905E+03 -0.95288084761E+03  0.11942116266E+04  0.91867854536E+02 0.  0.
    5000000    2    1    2    0    0  0.63879529556E+03  0.31884222905E+03 -0.17708293720E+04  0.20013844639E+04  0.59998609232E+03 0.  0.
         23    2    4    4    0    0  0.72934974943E+03  0.27193398865E+03 -0.15794809316E+04  0.17632502580E+04  0.91609540000E+02 0.  0.
         23    2    4    4    0    0 -0.90554453865E+02  0.46908240393E+02 -0.19134844039E+03  0.23813420592E+03  0.98453960080E+02 0.  0.
          5    1    3    3  502    0 -0.53222269973E+03 -0.29354465517E+03 -0.77012681340E+03  0.98109472805E+03  0.47000000000E+01 0. -1.
         -5    1    3    3    0  502 -0.10657259584E+03 -0.25297573880E+02 -0.18275403421E+03  0.21311689855E+03  0.47000000000E+01 0.  1.
         13    1    5    5    0    0  0.44310098706E+03  0.13426618848E+03 -0.85818315385E+03  0.97511241385E+03  0.00000000000E+00 0. -1.
        -13    1    5    5    0    0  0.28624876237E+03  0.13766780017E+03 -0.72129777776E+03  0.78813784414E+03  0.00000000000E+00 0.  1.
          3    1    6    6  503    0 -0.58404344610E+02 -0.22476611706E+02 -0.63457332211E+02  0.89124062712E+02  0.00000000000E+00 0. -1.
         -3    1    6    6    0  503 -0.32150109256E+02  0.69384852099E+02 -0.12789110818E+03  0.14901014321E+03  0.00000000000E+00 0.  1.
<mgrwt>
<rscale>  0 0.81857064E+03</rscale>
<asrwt>0</asrwt>
<pdfrwt beam="1">  1        1 0.45533124E+00 0.81857064E+03</pdfrwt>
<pdfrwt beam="2">  1       -1 0.36298915E-01 0.81857064E+03</pdfrwt>
<totfact> 0.49001809E+00</totfact>
</mgrwt>
</event>
<event>
12    1  0.3203156E-008  0.1153032E+04  0.7818608E-02  0.9154991E-01
         -1   -1    0    0    0  501 -0.00000000000E+00  0.00000000000E+00  0.11293339095E+04  0.11293339095E+04  0.00000000000E+00 0.  1.
          1   -1    0    0  501    0  0.00000000000E+00 -0.00000000000E+00 -0.13298778913E+04  0.13298778913E+04  0.00000000000E+00 0. -1.
         23    2    1    2    0    0 -0.63705014175E+03  0.95175309326E+03  0.11091690930E+02  0.11490695754E+04  0.92579856375E+02 0.  0.
    5000000    2    1    2    0    0  0.63705014175E+03 -0.95175309326E+03 -0.21163567275E+03  0.13101422254E+04  0.60001346578E+03 0.  0.
         23    2    4    4    0    0  0.32444618189E+03 -0.59261244547E+03 -0.39994080542E+03  0.79045445031E+03  0.91710166867E+02 0.  0.
         23    2    4    4    0    0  0.31260395987E+03 -0.35914064778E+03  0.18830513266E+03  0.51968777507E+03  0.88956843251E+02 0.  0.
          5    1    3    3  502    0 -0.43818116078E+03  0.63332834489E+03 -0.34115370461E+02  0.77090432000E+03  0.47000000000E+01 0. -1.
         -5    1    3    3    0  502 -0.19886898097E+03  0.31842474837E+03  0.45207061391E+02  0.37816525537E+03  0.47000000000E+01 0.  1.
         13    1    5    5    0    0  0.34376464991E+02 -0.31465195546E+02 -0.49856036214E+02  0.68245323818E+02  0.00000000000E+00 0.  1.
        -13    1    5    5    0    0  0.29006971690E+03 -0.56114724993E+03 -0.35008476920E+03  0.72220912649E+03  0.00000000000E+00 0. -1.
          2    1    6    6  503    0  0.12479166715E+03 -0.20129552333E+03  0.11723993524E+03  0.26426889775E+03  0.00000000000E+00 0. -1.
         -2    1    6    6    0  503  0.18781229272E+03 -0.15784512445E+03  0.71065197419E+02  0.25541887732E+03  0.00000000000E+00 0.  1.
<mgrwt>
<rscale>  0 0.11530317E+04</rscale>
<asrwt>0</asrwt>
<pdfrwt beam="1">  1        1 0.20459660E+00 0.11530317E+04</pdfrwt>
<pdfrwt beam="2">  1       -1 0.17374368E+00 0.11530317E+04</pdfrwt>
<totfact> 0.19607180E+00</totfact>
</mgrwt>
</event>
<event>
12    1  0.3203156E-008  0.3930547E+03  0.7818608E-02  0.1046211E+00
          2   -1    0    0  501    0  0.00000000000E+00  0.00000000000E+00  0.16691390572E+04  0.16691390572E+04  0.00000000000E+00 0.  1.
         -2   -1    0    0    0  501 -0.00000000000E+00 -0.00000000000E+00 -0.12913916200E+03  0.12913916200E+03  0.00000000000E+00 0. -1.
         23    2    1    2    0    0 -0.21394254673E+03  0.14854473817E+03  0.45501201655E+03  0.53134418878E+03  0.86335156295E+02 0.  0.
    5000000    2    1    2    0    0  0.21394254673E+03 -0.14854473817E+03  0.10849878786E+04  0.12669340304E+04  0.60007181911E+03 0.  0.
         23    2    4    4    0    0  0.35479965722E+03 -0.72044164661E+02  0.35503099203E+03  0.51536050822E+03  0.92066767661E+02 0.  0.
         23    2    4    4    0    0 -0.14085711049E+03 -0.76500573507E+02  0.72995688661E+03  0.75157352219E+03  0.79577884049E+02 0.  0.
          5    1    3    3  502    0 -0.45273894356E+02  0.52408294253E+02  0.19376814286E+03  0.20582647547E+03  0.47000000000E+01 0. -1.
         -5    1    3    3    0  502 -0.16866865237E+03  0.96136443914E+02  0.26124387369E+03  0.32551771332E+03  0.47000000000E+01 0.  1.
         11    1    5    5    0    0  0.26068950357E+03 -0.55254104811E+02  0.19983832474E+03  0.33308766024E+03  0.00000000000E+00 0. -1.
        -11    1    5    5    0    0  0.94110153649E+02 -0.16790059849E+02  0.15519266730E+03  0.18227284798E+03  0.00000000000E+00 0.  1.
          3    1    6    6  503    0 -0.92321719897E+02 -0.46660323041E+02  0.28908137314E+03  0.30703179967E+03  0.00000000000E+00 0. -1.
         -3    1    6    6    0  503 -0.48535390595E+02 -0.29840250466E+02  0.44087551347E+03  0.44454172253E+03  0.00000000000E+00 0.  1.
<mgrwt>
<rscale>  0 0.39305469E+03</rscale>
<asrwt>0</asrwt>
<pdfrwt beam="1">  1        2 0.25679061E+00 0.39305469E+03</pdfrwt>
<pdfrwt beam="2">  1       -2 0.19867565E-01 0.39305469E+03</pdfrwt>
<totfact> 0.23252964E+02</totfact>
</mgrwt>
</event>
<event>
12    1  0.3203156E-008  0.3830541E+03  0.7818608E-02  0.1049811E+00
         -4   -1    0    0    0  501 -0.00000000000E+00  0.00000000000E+00  0.69420614241E+03  0.69420614241E+03  0.00000000000E+00 0.  1.
          4   -1    0    0  501    0  0.00000000000E+00 -0.00000000000E+00 -0.26625177518E+03  0.26625177518E+03  0.00000000000E+00 0. -1.
         23    2    1    2    0    0 -0.83444300528E+02  0.16123379639E+03  0.22130868263E+03  0.30042362677E+03  0.91200516035E+02 0.  0.
    5000000    2    1    2    0    0  0.83444300528E+02 -0.16123379639E+03  0.20664568459E+03  0.66003429082E+03  0.59998628126E+03 0.  0.
         23    2    4    4    0    0 -0.22463061634E+03 -0.79778999946E+02 -0.23757426840E+02  0.25592539987E+03  0.90054385463E+02 0.  0.
         23    2    4    4    0    0  0.30807491686E+03 -0.81454796440E+02  0.23040311143E+03  0.40410889095E+03  0.93130895628E+02 0.  0.
          5    1    3    3  502    0 -0.69725041607E+02  0.15036143122E+03  0.13966266800E+03  0.21678997268E+03  0.47000000000E+01 0. -1.
         -5    1    3    3    0  502 -0.13719258921E+02  0.10872365170E+02  0.81646014637E+02  0.83633654086E+02  0.47000000000E+01 0.  1.
         13    1    5    5    0    0 -0.12893263460E+03  0.19637644328E+01 -0.10600848731E+02  0.12938260559E+03  0.00000000000E+00 0.  1.
        -13    1    5    5    0    0 -0.95697981735E+02 -0.81742764379E+02 -0.13156578108E+02  0.12654279428E+03  0.00000000000E+00 0. -1.
          3    1    6    6  503    0  0.31071010800E+03 -0.85755269857E+02  0.23365547230E+03  0.39810754484E+03  0.00000000000E+00 0. -1.
         -3    1    6    6    0  503 -0.26351911353E+01  0.43004734163E+01 -0.32523608660E+01  0.60013461096E+01  0.00000000000E+00 0.  1.
<mgrwt>
<rscale>  0 0.38305406E+03</rscale>
<asrwt>0</asrwt>
<pdfrwt beam="1">  1        4 0.40961812E-01 0.38305406E+03</pdfrwt>
<pdfrwt beam="2">  1       -4 0.10680094E+00 0.38305406E+03</pdfrwt>
<totfact> 0.78750390E+00</totfact>
</mgrwt>
</event>
<event>
12    1  0.3203156E-008  0.9028558E+03  0.7818608E-02  0.9422019E-01
         -1   -1    0    0    0  501 -0.00000000000E+00  0.00000000000E+00  0.81517406829E+03  0.81517406829E+03  0.00000000000E+00 0.  1.
          1   -1    0    0  501    0  0.00000000000E+00 -0.00000000000E+00 -0.12723382982E+04  0.12723382982E+04  0.00000000000E+00 0. -1.
         23    2    1    2    0    0  0.69253351880E+03 -0.48683916600E+03 -0.59864748329E+03  0.10402609728E+04  0.84551960189E+02 0.  0.
    5000000    2    1    2    0    0 -0.69253351880E+03  0.48683916600E+03  0.14148325337E+03  0.10472513938E+04  0.60008576264E+03 0.  0.
         23    2    4    4    0    0 -0.17366939530E+03 -0.64083870261E+02  0.19387303039E+03  0.28321950793E+03  0.91426125740E+02 0.  0.
         23    2    4    4    0    0 -0.51886412350E+03  0.55092303626E+03 -0.52389777018E+02  0.76403188583E+03  0.90905793476E+02 0.  0.
          5    1    3    3  502    0  0.31239978233E+03 -0.23897999818E+03 -0.32557390579E+03  0.51061288827E+03  0.47000000000E+01 0. -1.
         -5    1    3    3    0  502  0.38013373647E+03 -0.24785916782E+03 -0.27307357750E+03  0.52964808449E+03  0.47000000000E+01 0.  1.
         11    1    5    5    0    0 -0.65328781008E+02  0.97665825147E+01  0.10762535732E+03  0.12627926710E+03  0.00000000000E+00 0.  1.
        -11    1    5    5    0    0 -0.10834061429E+03 -0.73850452775E+02  0.86247673067E+02  0.15694024082E+03  0.00000000000E+00 0. -1.
          1    1    6    6  503    0 -0.30983067822E+03  0.26842895029E+03 -0.46427154773E+02  0.41255863974E+03  0.00000000000E+00 0. -1.
         -1    1    6    6    0  503 -0.20903344528E+03  0.28249408597E+03 -0.59626222449E+01  0.35147324609E+03  0.00000000000E+00 0.  1.
<mgrwt>
<rscale>  0 0.90285585E+03</rscale>
<asrwt>0</asrwt>
<pdfrwt beam="1">  1        1 0.19574435E+00 0.90285585E+03</pdfrwt>
<pdfrwt beam="2">  1       -1 0.12541140E+00 0.90285585E+03</pdfrwt>
<totfact> 0.53392626E+00</totfact>
</mgrwt>
</event>
<event>
12    1  0.3203156E-008  0.4917754E+03  0.7818608E-02  0.1015948E+00
         -2   -1    0    0    0  501 -0.00000000000E+00  0.00000000000E+00  0.14595608323E+03  0.14595608323E+03  0.00000000000E+00 0.  1.
          2   -1    0    0  501    0  0.00000000000E+00 -0.00000000000E+00 -0.18965367048E+04  0.18965367048E+04  0.00000000000E+00 0. -1.
         23    2    1    2    0    0  0.21346750425E+03  0.25517603318E+03 -0.78867384802E+03  0.86101676605E+03  0.93060462053E+02 0.  0.
    5000000    2    1    2    0    0 -0.21346750425E+03 -0.25517603318E+03 -0.96190677356E+03  0.11814760220E+04  0.59994813628E+03 0.  0.
         23    2    4    4    0    0  0.16570464363E+03 -0.16910504862E+03 -0.56179851776E+03  0.61621963134E+03  0.89746939260E+02 0.  0.
         23    2    4    4    0    0 -0.37917214787E+03 -0.86070984564E+02 -0.40010825581E+03  0.56525639065E+03  0.90820915537E+02 0.  0.
          5    1    3    3  502    0  0.17018555281E+03  0.14931139388E+03 -0.58632590681E+03  0.62853573782E+03  0.47000000000E+01 0. -1.
         -5    1    3    3    0  502  0.43281951438E+02  0.10586463930E+03 -0.20234794121E+03  0.23248102823E+03  0.47000000000E+01 0.  1.
         11    1    5    5    0    0  0.13858383279E+03 -0.80080079571E+02 -0.36248317938E+03  0.39624784313E+03  0.00000000000E+00 0.  1.
        -11    1    5    5    0    0  0.27120810841E+02 -0.89024969048E+02 -0.19931533838E+03  0.21997178821E+03  0.00000000000E+00 0. -1.
          1    1    6    6  503    0 -0.74321658357E+02 -0.74926421630E+01 -0.13234309715E+03  0.15196889139E+03  0.00000000000E+00 0. -1.
         -1    1    6    6    0  503 -0.30485048952E+03 -0.78578342401E+02 -0.26776515866E+03  0.41328749926E+03  0.00000000000E+00 0.  1.
<mgrwt>
<rscale>  0 0.49177544E+03</rscale>
<asrwt>0</asrwt>
<pdfrwt beam="1">  1        2 0.29177486E+00 0.49177544E+03</pdfrwt>
<pdfrwt beam="2">  1       -2 0.22454783E-01 0.49177544E+03</pdfrwt>
<totfact> 0.13980286E+02</totfact>
</mgrwt>
</event>
<event>
12    1  0.3203156E-008  0.2158664E+04  0.7818608E-02  0.8535833E-01
          1   -1    0    0  501    0  0.00000000000E+00  0.00000000000E+00  0.18198645109E+04  0.18198645109E+04  0.00000000000E+00 0. -1.
         -1   -1    0    0    0  501 -0.00000000000E+00 -0.00000000000E+00 -0.28088564189E+04  0.28088564189E+04  0.00000000000E+00 0.  1.
         23    2    1    2    0    0 -0.91344964375E+03 -0.19428363853E+04  0.93098035041E+02  0.21508246313E+04  0.91519826222E+02 0.  0.
    5000000    2    1    2    0    0  0.91344964375E+03  0.19428363853E+04 -0.10820899430E+04  0.24778962986E+04  0.60003995704E+03 0.  0.
         23    2    4    4    0    0  0.75005529603E+03  0.12541967910E+04 -0.47287535205E+03  0.15386979134E+04  0.91584019515E+02 0.  0.
         23    2    4    4    0    0  0.16339434772E+03  0.68863959434E+03 -0.60921459095E+03  0.93919838515E+03  0.10014482061E+03 0.  0.
          5    1    3    3  502    0 -0.33304182329E+03 -0.69738550528E+03 -0.99342507391E+01  0.77290631927E+03  0.47000000000E+01 0. -1.
         -5    1    3    3    0  502 -0.58040782046E+03 -0.12454508800E+04  0.10303228578E+03  0.13779183120E+04  0.47000000000E+01 0.  1.
         11    1    5    5    0    0  0.51295311117E+03  0.83714997254E+03 -0.36117936532E+03  0.10461316861E+04  0.00000000000E+00 0. -1.
        -11    1    5    5    0    0  0.23710218486E+03  0.41704681843E+03 -0.11169598673E+03  0.49256622731E+03  0.00000000000E+00 0.  1.
          2    1    6    6  503    0  0.86506480094E+02  0.27939798662E+03 -0.31165386991E+03  0.42740465680E+03  0.00000000000E+00 0. -1.
         -2    1    6    6    0  503  0.76887867628E+02  0.40924160772E+03 -0.29756072104E+03  0.51179372835E+03  0.00000000000E+00 0.  1.
<mgrwt>
<rscale>  0 0.21586642E+04</rscale>
<asrwt>0</asrwt>
<pdfrwt beam="1">  1        1 0.27997916E+00 0.21586642E+04</pdfrwt>
<pdfrwt beam="2">  1       -1 0.43213175E+00 0.21586642E+04</pdfrwt>
<totfact> 0.14827828E-02</totfact>
</mgrwt>
</event>
<event>
12    1  0.3203156E-008  0.6641545E+03  0.7818608E-02  0.9780576E-01
         -2   -1    0    0    0  501 -0.00000000000E+00  0.00000000000E+00  0.23345809220E+03  0.23345809220E+03  0.00000000000E+00 0.  1.
          2   -1    0    0  501    0  0.00000000000E+00 -0.00000000000E+00 -0.24888378701E+04  0.24888378701E+04  0.00000000000E+00 0. -1.
         23    2    1    2    0    0  0.24852779057E+03  0.51136244950E+03 -0.43083635337E+03  0.71923314565E+03  0.91753675502E+02 0.  0.
    5000000    2    1    2    0    0 -0.24852779057E+03 -0.51136244950E+03 -0.18245434245E+04  0.20030628166E+04  0.60003693388E+03 0.  0.
         23    2    4    4    0    0 -0.18594967039E+03  0.45902240782E+02 -0.24251660417E+03  0.32217241184E+03  0.91084927548E+02 0.  0.
         23    2    4    4    0    0 -0.62578120185E+02 -0.55726469028E+03 -0.15820268203E+04  0.16808904048E+04  0.90131772949E+02 0.  0.
          5    1    3    3  502    0  0.37896367619E+02  0.83877898587E+02 -0.31295842476E+02  0.97330140791E+02  0.47000000000E+01 0. -1.
         -5    1    3    3    0  502  0.21063142295E+03  0.42748455091E+03 -0.39954051090E+03  0.62190300486E+03  0.47000000000E+01 0.  1.
         13    1    5    5    0    0 -0.68526325051E+02 -0.15327786966E+01 -0.30083889191E+02  0.74854839685E+02  0.00000000000E+00 0.  1.
        -13    1    5    5    0    0 -0.11742334534E+03  0.47435019479E+02 -0.21243271498E+03  0.24731757215E+03  0.00000000000E+00 0. -1.
          1    1    6    6  503    0  0.12105463283E+02 -0.41301924882E+02 -0.17992657969E+03  0.18500260896E+03  0.00000000000E+00 0. -1.
         -1    1    6    6    0  503 -0.74683583467E+02 -0.51596276540E+03 -0.14021002406E+04  0.14958877958E+04  0.00000000000E+00 0.  1.
<mgrwt>
<rscale>  0 0.66415448E+03</rscale>
<asrwt>0</asrwt>
<pdfrwt beam="1">  1        2 0.38289816E+00 0.66415448E+03</pdfrwt>
<pdfrwt beam="2">  1       -2 0.35916627E-01 0.66415448E+03</pdfrwt>
<totfact> 0.27248207E+01</totfact>
</mgrwt>
</event>
<event>
12    1  0.3203156E-008  0.9161250E+03  0.7818608E-02  0.9405646E-01
          2   -1    0    0  501    0  0.00000000000E+00  0.00000000000E+00  0.10563706563E+04  0.10563706563E+04  0.00000000000E+00 0. -1.
         -2   -1    0    0    0  501 -0.00000000000E+00 -0.00000000000E+00 -0.10035522355E+04  0.10035522355E+04  0.00000000000E+00 0.  1.
         23    2    1    2    0    0 -0.80298751076E+03 -0.35263879843E+03 -0.31379946705E+03  0.93587615016E+03  0.90835006022E+02 0.  0.
    5000000    2    1    2    0    0  0.80298751076E+03  0.35263879843E+03  0.36661788782E+03  0.11240467416E+04  0.59994111139E+03 0.  0.
         23    2    4    4    0    0  0.16315490041E+02  0.87041974300E+02  0.25027429216E+03  0.28066127171E+03  0.91055080123E+02 0.  0.
         23    2    4    4    0    0  0.78667202072E+03  0.26559682414E+03  0.11634359566E+03  0.84338546994E+03  0.91480475926E+02 0.  0.
          5    1    3    3  502    0 -0.33744680643E+03 -0.19662525400E+03 -0.13174195252E+03  0.41220124907E+03  0.47000000000E+01 0. -1.
         -5    1    3    3    0  502 -0.46554070433E+03 -0.15601354443E+03 -0.18205751453E+03  0.52367490109E+03  0.47000000000E+01 0.  1.
         11    1    5    5    0    0 -0.72460478913E+01 -0.12700673761E+02  0.60876049687E+01  0.15838915944E+02  0.00000000000E+00 0.  1.
        -11    1    5    5    0    0  0.23561537933E+02  0.99742648061E+02  0.24418668719E+03  0.26482235576E+03  0.00000000000E+00 0. -1.
          4    1    6    6  503    0  0.33567242533E+03  0.15187788830E+03  0.24173258734E+02  0.36922515694E+03  0.00000000000E+00 0. -1.
         -4    1    6    6    0  503  0.45099959539E+03  0.11371893583E+03  0.92170336930E+02  0.47416031300E+03  0.00000000000E+00 0.  1.
<mgrwt>
<rscale>  0 0.91612498E+03</rscale>
<asrwt>0</asrwt>
<pdfrwt beam="1">  1        2 0.16251856E+00 0.91612498E+03</pdfrwt>
<pdfrwt beam="2">  1       -2 0.15439265E+00 0.91612498E+03</pdfrwt>
<totfact> 0.64324804E+00</totfact>
</mgrwt>
</event>
<event>
12    1  0.3203156E-008  0.1659707E+04  0.7818608E-02  0.8784684E-01
          2   -1    0    0  501    0  0.00000000000E+00  0.00000000000E+00  0.36660207512E+04  0.36660207512E+04  0.00000000000E+00 0. -1.
         -2   -1    0    0    0  501 -0.00000000000E+00 -0.00000000000E+00 -0.12173129241E+04  0.12173129241E+04  0.00000000000E+00 0.  1.
         23    2    1    2    0    0 -0.20388019255E+03 -0.15981427596E+04  0.27004290221E+04  0.31458992966E+04  0.93477634028E+02 0.  0.
    5000000    2    1    2    0    0  0.20388019255E+03  0.15981427596E+04 -0.25172119500E+03  0.17374343787E+04  0.59973931604E+03 0.  0.
         23    2    4    4    0    0 -0.19305413830E+03  0.45199214475E+03 -0.10608090681E+03  0.51243453733E+03  0.98839248394E+02 0.  0.
         23    2    4    4    0    0  0.39693433086E+03  0.11461506149E+04 -0.14564028820E+03  0.12249998414E+04  0.90528574583E+02 0.  0.
          5    1    3    3  502    0 -0.13958554476E+03 -0.13341136469E+04  0.22773018516E+04  0.26430038139E+04  0.47000000000E+01 0. -1.
         -5    1    3    3    0  502 -0.64294647792E+02 -0.26402911275E+03  0.42312717050E+03  0.50289548271E+03  0.47000000000E+01 0.  1.
         13    1    5    5    0    0 -0.11748607497E+03  0.31108209187E+03 -0.11613393605E+03  0.35222455451E+03  0.00000000000E+00 0. -1.
        -13    1    5    5    0    0 -0.75568063337E+02  0.14091005288E+03  0.10053029239E+02  0.16020998282E+03  0.00000000000E+00 0.  1.
          4    1    6    6  503    0  0.14733985631E+03  0.49464519564E+03 -0.10085308094E+03  0.52588425225E+03  0.00000000000E+00 0. -1.
         -4    1    6    6    0  503  0.24959447455E+03  0.65150541923E+03 -0.44787207255E+02  0.69911558911E+03  0.00000000000E+00 0.  1.
<mgrwt>
<rscale>  0 0.16597073E+04</rscale>
<asrwt>0</asrwt>
<pdfrwt beam="1">  1        2 0.56400319E+00 0.16597073E+04</pdfrwt>
<pdfrwt beam="2">  1       -2 0.18727891E+00 0.16597073E+04</pdfrwt>
<totfact> 0.93125986E-02</totfact>
</mgrwt>
</event>
<event>
12    1  0.3203156E-008  0.8091236E+03  0.7818608E-02  0.9546904E-01
          2   -1    0    0  501    0  0.00000000000E+00  0.00000000000E+00  0.83945140726E+03  0.83945140726E+03  0.00000000000E+00 0. -1.
         -2   -1    0    0    0  501 -0.00000000000E+00 -0.00000000000E+00 -0.10881906308E+04  0.10881906308E+04  0.00000000000E+00 0.  1.
         23    2    1    2    0    0  0.50354442245E+03 -0.59705198472E+03  0.24967795478E+03  0.82363762680E+03  0.77535806820E+02 0.  0.
    5000000    2    1    2    0    0 -0.50354442245E+03  0.59705198472E+03 -0.49841717827E+03  0.11040044112E+04  0.60031491614E+03 0.  0.
         23    2    4    4    0    0 -0.32463543140E+03  0.52516874015E+03 -0.60151180016E+03  0.86665995043E+03  0.89959185156E+02 0.  0.
         23    2    4    4    0    0 -0.17890899105E+03  0.71883244570E+02  0.10309462189E+03  0.23734446078E+03  0.92348600828E+02 0.  0.
          5    1    3    3  502    0  0.30418463972E+03 -0.34541985702E+03  0.18525139561E+03  0.49616866310E+03  0.47000000000E+01 0. -1.
         -5    1    3    3    0  502  0.19935978273E+03 -0.25163212770E+03  0.64426559164E+02  0.32746896370E+03  0.47000000000E+01 0.  1.
         11    1    5    5    0    0 -0.18306299343E+03  0.21107954165E+03 -0.26891629646E+03  0.38779196352E+03  0.00000000000E+00 0.  1.
        -11    1    5    5    0    0 -0.14157243797E+03  0.31408919850E+03 -0.33259550370E+03  0.47886798691E+03  0.00000000000E+00 0. -1.
          2    1    6    6  503    0 -0.11097699937E+03  0.89745329486E+02  0.78724289830E+02  0.16299580474E+03  0.00000000000E+00 0. -1.
         -2    1    6    6    0  503 -0.67931991677E+02 -0.17862084916E+02  0.24370332056E+02  0.74348656042E+02  0.00000000000E+00 0.  1.
<mgrwt>
<rscale>  0 0.80912357E+03</rscale>
<asrwt>0</asrwt>
<pdfrwt beam="1">  1        2 0.12914637E+00 0.80912357E+03</pdfrwt>
<pdfrwt beam="2">  1       -2 0.16741394E+00 0.80912357E+03</pdfrwt>
<totfact> 0.72594778E+00</totfact>
</mgrwt>
</event>
<event>
12    1  0.3203156E-008  0.1396289E+04  0.7818608E-02  0.8956509E-01
         -1   -1    0    0    0  501 -0.00000000000E+00  0.00000000000E+00  0.78817534159E+03  0.78817534159E+03  0.00000000000E+00 0.  1.
          1   -1    0    0  501    0  0.00000000000E+00 -0.00000000000E+00 -0.30193137938E+04  0.30193137938E+04  0.00000000000E+00 0. -1.
         23    2    1    2    0    0 -0.12786535726E+04 -0.43667407192E+03 -0.32048571110E+03  0.13916781291E+04  0.91748133714E+02 0.  0.
    5000000    2    1    2    0    0  0.12786535726E+04  0.43667407192E+03 -0.19106527411E+04  0.24158110063E+04  0.59992475965E+03 0.  0.
         23    2    4    4    0    0  0.17940579501E+02  0.88622129150E+02 -0.37518380194E+03  0.39700024358E+03  0.93115852558E+02 0.  0.
         23    2    4    4    0    0  0.12607129931E+04  0.34805194277E+03 -0.15354689392E+04  0.20188107627E+04  0.85992015162E+02 0.  0.
          5    1    3    3  502    0 -0.93470996018E+03 -0.34395647983E+03 -0.20231145846E+03  0.10163369451E+04  0.47000000000E+01 0. -1.
         -5    1    3    3    0  502 -0.34394361245E+03 -0.92717592090E+02 -0.11817425264E+03  0.37534118401E+03  0.47000000000E+01 0.  1.
         11    1    5    5    0    0  0.55457903877E+02  0.64750289078E+02 -0.25276500899E+03  0.26675518516E+03  0.00000000000E+00 0.  1.
        -11    1    5    5    0    0 -0.37517324376E+02  0.23871840072E+02 -0.12241879295E+03  0.13024505842E+03  0.00000000000E+00 0. -1.
          2    1    6    6  503    0  0.87500552458E+02  0.23913463800E+01 -0.96659944039E+02  0.13040402601E+03  0.00000000000E+00 0. -1.
         -2    1    6    6    0  503  0.11732124407E+04  0.34566059639E+03 -0.14388089951E+04  0.18884067367E+04  0.00000000000E+00 0.  1.
<mgrwt>
<rscale>  0 0.13962892E+04</rscale>
<asrwt>0</asrwt>
<pdfrwt beam="1">  1        1 0.46450981E+00 0.13962892E+04</pdfrwt>
<pdfrwt beam="2">  1       -1 0.12125775E+00 0.13962892E+04</pdfrwt>
<totfact> 0.33802515E-01</totfact>
</mgrwt>
</event>
<event>
12    1  0.3203156E-008  0.1705250E+04  0.7818608E-02  0.8758376E-01
         -2   -1    0    0    0  501 -0.00000000000E+00  0.00000000000E+00  0.22966504395E+04  0.22966504395E+04  0.00000000000E+00 0.  1.
          2   -1    0    0  501    0  0.00000000000E+00 -0.00000000000E+00 -0.15599857149E+04  0.15599857149E+04  0.00000000000E+00 0. -1.
         23    2    1    2    0    0 -0.48237625490E+02  0.16925214538E+04 -0.38445513548E+03  0.17390915824E+04  0.98377033845E+02 0.  0.
    5000000    2    1    2    0    0  0.48237625490E+02 -0.16925214538E+04  0.11211198601E+04  0.21175445721E+04  0.60010793525E+03 0.  0.
         23    2    4    4    0    0  0.13598834638E+03 -0.11629928531E+04  0.46038151234E+03  0.12613871056E+04  0.90006035766E+02 0.  0.
         23    2    4    4    0    0 -0.87750720894E+02 -0.52952860063E+03  0.66073834773E+03  0.85615746644E+03  0.91267273802E+02 0.  0.
          5    1    3    3  502    0 -0.46539578999E+02  0.15399465712E+04 -0.37773398762E+03  0.15862869948E+04  0.47000000000E+01 0. -1.
         -5    1    3    3    0  502 -0.16980464909E+01  0.15257488261E+03 -0.67211478621E+01  0.15280458761E+03  0.47000000000E+01 0.  1.
         13    1    5    5    0    0  0.10470860719E+03 -0.61464324899E+03  0.27788956069E+03  0.68262202125E+03  0.00000000000E+00 0. -1.
        -13    1    5    5    0    0  0.31279739193E+02 -0.54834960416E+03  0.18249195164E+03  0.57876508437E+03  0.00000000000E+00 0.  1.
          4    1    6    6  503    0 -0.58383019553E+02 -0.49780521711E+03  0.60945021704E+03  0.78908059044E+03  0.00000000000E+00 0. -1.
         -4    1    6    6    0  503 -0.29367701341E+02 -0.31723383527E+02  0.51288130690E+02  0.67076876001E+02  0.00000000000E+00 0.  1.
<mgrwt>
<rscale>  0 0.17052500E+04</rscale>
<asrwt>0</asrwt>
<pdfrwt beam="1">  1        2 0.23999780E+00 0.17052500E+04</pdfrwt>
<pdfrwt beam="2">  1       -2 0.35333084E+00 0.17052500E+04</pdfrwt>
<totfact> 0.16023840E-01</totfact>
</mgrwt>
</event>
<event>
12    1  0.3203156E-008  0.8845659E+03  0.7818608E-02  0.9445083E-01
          2   -1    0    0  501    0  0.00000000000E+00  0.00000000000E+00  0.21144575257E+04  0.21144575257E+04  0.00000000000E+00 0. -1.
         -2   -1    0    0    0  501 -0.00000000000E+00 -0.00000000000E+00 -0.49853283084E+03  0.49853283084E+03  0.00000000000E+00 0.  1.
         23    2    1    2    0    0  0.82014753539E+03 -0.30579582261E+03  0.31620485927E+03  0.93505894144E+03  0.90535330195E+02 0.  0.
    5000000    2    1    2    0    0 -0.82014753539E+03  0.30579582261E+03  0.12997198356E+04  0.16779314151E+04  0.60002426437E+03 0.  0.
         23    2    4    4    0    0 -0.30983212077E+03  0.73371985284E+02  0.96161062205E+02  0.34622019688E+03  0.96135755877E+02 0.  0.
         23    2    4    4    0    0 -0.51031541462E+03  0.23242383733E+03  0.12035587734E+04  0.13317112182E+04  0.10226624653E+03 0.  0.
          5    1    3    3  502    0  0.10948710903E+03 -0.30580598751E+02  0.11709963305E+02  0.11437575488E+03  0.47000000000E+01 0. -1.
         -5    1    3    3    0  502  0.71066042636E+03 -0.27521522386E+03  0.30449489597E+03  0.82068318657E+03  0.47000000000E+01 0.  1.
         13    1    5    5    0    0 -0.12054184430E+03 -0.10987113664E+02  0.89238998427E+01  0.12137004937E+03  0.00000000000E+00 0. -1.
        -13    1    5    5    0    0 -0.18929027647E+03  0.84359098948E+02  0.87237162362E+02  0.22485014752E+03  0.00000000000E+00 0.  1.
          2    1    6    6  503    0 -0.11222399131E+03  0.83734371502E+02  0.38003828377E+03  0.40501205701E+03  0.00000000000E+00 0. -1.
         -2    1    6    6    0  503 -0.39809142331E+03  0.14868946583E+03  0.82352048965E+03  0.92669916124E+03  0.00000000000E+00 0.  1.
<mgrwt>
<rscale>  0 0.88456594E+03</rscale>
<asrwt>0</asrwt>
<pdfrwt beam="1">  1        2 0.32530115E+00 0.88456594E+03</pdfrwt>
<pdfrwt beam="2">  1       -2 0.76697360E-01 0.88456594E+03</pdfrwt>
<totfact> 0.89237136E+00</totfact>
</mgrwt>
</event>
<event>
12    1  0.3203156E-008  0.4834416E+03  0.7818608E-02  0.1018194E+00
         -2   -1    0    0    0  501 -0.00000000000E+00  0.00000000000E+00  0.17272117918E+04  0.17272117918E+04  0.00000000000E+00 0.  1.
          2   -1    0    0  501    0  0.00000000000E+00 -0.00000000000E+00 -0.15493613099E+03  0.15493613099E+03  0.00000000000E+00 0. -1.
         23    2    1    2    0    0 -0.13453183934E+03  0.30669967867E+03  0.54442777894E+03  0.64580940372E+03  0.92220771865E+02 0.  0.
    5000000    2    1    2    0    0  0.13453183934E+03 -0.30669967867E+03  0.10278478818E+04  0.12363385190E+04  0.59991512461E+03 0.  0.
         23    2    4    4    0    0  0.97314208168E+01 -0.43373655678E+03  0.48068773018E+03  0.65389571835E+03  0.91086855764E+02 0.  0.
         23    2    4    4    0    0  0.12480041852E+03  0.12703687810E+03  0.54716015165E+03  0.58244280068E+03  0.90232320364E+02 0.  0.
          5    1    3    3  502    0 -0.94520031207E+02  0.26852073191E+03  0.49713486024E+03  0.57288967440E+03  0.47000000000E+01 0. -1.
         -5    1    3    3    0  502 -0.40011808132E+02  0.38178946759E+02  0.47292918695E+02  0.72919729322E+02  0.47000000000E+01 0.  1.
         11    1    5    5    0    0 -0.36019934091E+02 -0.25422502394E+03  0.25440170856E+03  0.36145266325E+03  0.00000000000E+00 0. -1.
        -11    1    5    5    0    0  0.45751354908E+02 -0.17951153284E+03  0.22628602162E+03  0.29244305510E+03  0.00000000000E+00 0.  1.
          4    1    6    6  503    0  0.91343976119E+02  0.11940963928E+03  0.33057192302E+03  0.36315310850E+03  0.00000000000E+00 0. -1.
         -4    1    6    6    0  503  0.33456442403E+02  0.76272388270E+01  0.21658822864E+03  0.21928969217E+03  0.00000000000E+00 0.  1.
<mgrwt>
<rscale>  0 0.48344157E+03</rscale>
<asrwt>0</asrwt>
<pdfrwt beam="1">  1        2 0.23836329E-01 0.48344157E+03</pdfrwt>
<pdfrwt beam="2">  1       -2 0.26572488E+00 0.48344157E+03</pdfrwt>
<totfact> 0.12677905E+01</totfact>
</mgrwt>
</event>
<event>
12    1  0.3203156E-008  0.6593471E+03  0.7818608E-02  0.9789396E-01
         -2   -1    0    0    0  501 -0.00000000000E+00  0.00000000000E+00  0.64460616177E+03  0.64460616177E+03  0.00000000000E+00 0.  1.
          2   -1    0    0  501    0  0.00000000000E+00 -0.00000000000E+00 -0.98177720628E+03  0.98177720628E+03  0.00000000000E+00 0. -1.
         23    2    1    2    0    0 -0.26021415643E+03  0.59956576608E+03 -0.33288327094E+03  0.73914624730E+03  0.91298344821E+02 0.  0.
    5000000    2    1    2    0    0  0.26021415643E+03 -0.59956576608E+03 -0.42877735741E+01  0.88723712076E+03  0.59998400677E+03 0.  0.
         23    2    4    4    0    0  0.18656705293E+03 -0.50650694608E+03 -0.24792814472E+03  0.60092995876E+03  0.91059863403E+02 0.  0.
         23    2    4    4    0    0  0.73647103504E+02 -0.93058819994E+02  0.24364037114E+03  0.28630716199E+03  0.92343493133E+02 0.  0.
          5    1    3    3  502    0 -0.21318794846E+03  0.55127840210E+03 -0.28412967680E+03  0.65582676160E+03  0.47000000000E+01 0. -1.
         -5    1    3    3    0  502 -0.47026207973E+02  0.48287363979E+02 -0.48753594139E+02  0.83319485703E+02  0.47000000000E+01 0.  1.
         13    1    5    5    0    0  0.17063829130E+03 -0.43610678981E+03 -0.24540512315E+03  0.52870618782E+03  0.00000000000E+00 0. -1.
        -13    1    5    5    0    0  0.15928761633E+02 -0.70400156274E+02 -0.25230215682E+01  0.72223770937E+02  0.00000000000E+00 0.  1.
          3    1    6    6  503    0  0.24940975226E+02 -0.43065540548E+02  0.19495802878E+03  0.20120965686E+03  0.00000000000E+00 0. -1.
         -3    1    6    6    0  503  0.48706128278E+02 -0.49993279446E+02  0.48682342361E+02  0.85097505129E+02  0.00000000000E+00 0.  1.
<mgrwt>
<rscale>  0 0.65934711E+03</rscale>
<asrwt>0</asrwt>
<pdfrwt beam="1">  1        2 0.15104265E+00 0.65934711E+03</pdfrwt>
<pdfrwt beam="2">  1       -2 0.99170178E-01 0.65934711E+03</pdfrwt>
<totfact> 0.22376883E+01</totfact>
</mgrwt>
</event>
<event>
12    1  0.3203156E-008  0.4400279E+03  0.7818608E-02  0.1030738E+00
         -2   -1    0    0    0  501 -0.00000000000E+00  0.00000000000E+00  0.16754505697E+03  0.16754505697E+03  0.00000000000E+00 0.  1.
          2   -1    0    0  501    0  0.00000000000E+00 -0.00000000000E+00 -0.16388073279E+04  0.16388073279E+04  0.00000000000E+00 0. -1.
         23    2    1    2    0    0  0.33441258856E+03 -0.20932048112E+02 -0.63744563289E+03  0.72600134575E+03  0.92038519708E+02 0.  0.
    5000000    2    1    2    0    0 -0.33441258856E+03  0.20932048112E+02 -0.83381663804E+03  0.10803510391E+04  0.59969846744E+03 0.  0.
         23    2    4    4    0    0 -0.26545295884E+00  0.15704628642E+03 -0.17410956664E+02  0.18315738030E+03  0.92627630880E+02 0.  0.
         23    2    4    4    0    0 -0.33414713560E+03 -0.13611423831E+03 -0.81640568138E+03  0.89719365884E+03  0.90867104981E+02 0.  0.
          5    1    3    3  502    0  0.14609609510E+03 -0.15062035313E+02 -0.37610854371E+03  0.40379532014E+03  0.47000000000E+01 0. -1.
         -5    1    3    3    0  502  0.18831649346E+03 -0.58700127986E+01 -0.26133708918E+03  0.32220602561E+03  0.47000000000E+01 0.  1.
         11    1    5    5    0    0 -0.30063374455E+02  0.15856879179E+02  0.11708352222E+02  0.35949027980E+02  0.00000000000E+00 0.  1.
        -11    1    5    5    0    0  0.29797921496E+02  0.14118940724E+03 -0.29119308887E+02  0.14720835232E+03  0.00000000000E+00 0. -1.
          2    1    6    6  503    0 -0.17417850367E+03 -0.36671861261E+02 -0.31869910002E+03  0.36503711168E+03  0.00000000000E+00 0. -1.
         -2    1    6    6    0  503 -0.15996863193E+03 -0.99442377046E+02 -0.49770658135E+03  0.53215654715E+03  0.00000000000E+00 0.  1.
<mgrwt>
<rscale>  0 0.44002794E+03</rscale>
<asrwt>0</asrwt>
<pdfrwt beam="1">  1        2 0.25212422E+00 0.44002794E+03</pdfrwt>
<pdfrwt beam="2">  1       -2 0.25776161E-01 0.44002794E+03</pdfrwt>
<totfact> 0.15158631E+02</totfact>
</mgrwt>
</event>
<event>
12    1  0.3203156E-008  0.1233522E+04  0.7818608E-02  0.9084011E-01
         -1   -1    0    0    0  501 -0.00000000000E+00  0.00000000000E+00  0.90697977170E+03  0.90697977170E+03  0.00000000000E+00 0.  1.
          1   -1    0    0  501    0  0.00000000000E+00 -0.00000000000E+00 -0.38862279874E+04  0.38862279874E+04  0.00000000000E+00 0. -1.
         23    2    1    2    0    0  0.10740014810E+04  0.49490247094E+03 -0.32325528060E+04  0.34432410412E+04  0.90019927267E+02 0.  0.
    5000000    2    1    2    0    0 -0.10740014810E+04 -0.49490247094E+03  0.25330459024E+03  0.13499667180E+04  0.59986605777E+03 0.  0.
         23    2    4    4    0    0 -0.10288621282E+04 -0.31133145782E+03  0.32892315443E+03  0.11277767426E+04  0.90583575152E+02 0.  0.
         23    2    4    4    0    0 -0.45139352776E+02 -0.18357101312E+03 -0.75618564184E+02  0.22218997538E+03  0.88962575748E+02 0.  0.
          5    1    3    3  502    0  0.50498534591E+02  0.45473087914E+02 -0.18305703344E+03  0.19531992016E+03  0.47000000000E+01 0. -1.
         -5    1    3    3    0  502  0.10235029464E+04  0.44942938303E+03 -0.30494957725E+04  0.32479211210E+04  0.47000000000E+01 0.  1.
         11    1    5    5    0    0 -0.33448486030E+03 -0.58229527732E+02  0.11262917299E+03  0.35770956135E+03  0.00000000000E+00 0.  1.
        -11    1    5    5    0    0 -0.69437726791E+03 -0.25310193009E+03  0.21629398144E+03  0.77006718123E+03  0.00000000000E+00 0. -1.
          1    1    6    6  503    0 -0.26804526768E+02 -0.11021992302E+02 -0.32195553532E+02  0.43318825431E+02  0.00000000000E+00 0. -1.
         -1    1    6    6    0  503 -0.18334826008E+02 -0.17254902082E+03 -0.43423010652E+02  0.17887114995E+03  0.00000000000E+00 0.  1.
<mgrwt>
<rscale>  0 0.12335216E+04</rscale>
<asrwt>0</asrwt>
<pdfrwt beam="1">  1        1 0.59788123E+00 0.12335216E+04</pdfrwt>
<pdfrwt beam="2">  1       -1 0.13953535E+00 0.12335216E+04</pdfrwt>
<totfact> 0.51101176E-02</totfact>
</mgrwt>
</event>
<event>
12    1  0.3203156E-008  0.5335729E+03  0.7818608E-02  0.1005369E+00
          2   -1    0    0  501    0  0.00000000000E+00  0.00000000000E+00  0.16051013572E+04  0.16051013572E+04  0.00000000000E+00 0. -1.
         -2   -1    0    0    0  501 -0.00000000000E+00 -0.00000000000E+00 -0.43812071846E+03  0.43812071846E+03  0.00000000000E+00 0.  1.
         23    2    1    2    0    0 -0.39935927779E+03  0.21938926585E+03  0.12014186160E+04  0.12888273926E+04  0.10024906178E+03 0.  0.
    5000000    2    1    2    0    0  0.39935927779E+03 -0.21938926585E+03 -0.34437977242E+02  0.75439468305E+03  0.60025484656E+03 0.  0.
         23    2    4    4    0    0  0.82627373723E+02  0.10285949436E+03 -0.20848412977E+03  0.26157058285E+03  0.86868745693E+02 0.  0.
         23    2    4    4    0    0  0.31673190407E+03 -0.32224876021E+03  0.17404615253E+03  0.49282410021E+03  0.91761473547E+02 0.  0.
          5    1    3    3  502    0 -0.17315370425E+03  0.12956580888E+03  0.45682944896E+03  0.50545498272E+03  0.47000000000E+01 0. -1.
         -5    1    3    3    0  502 -0.22620557354E+03  0.89823456975E+02  0.74458916699E+03  0.78337240986E+03  0.47000000000E+01 0.  1.
         11    1    5    5    0    0  0.77554620745E+02  0.47906958843E+02 -0.17417809020E+03  0.19659044486E+03  0.00000000000E+00 0. -1.
        -11    1    5    5    0    0  0.50727529777E+01  0.54952535513E+02 -0.34306039570E+02  0.64980137989E+02  0.00000000000E+00 0.  1.
          3    1    6    6  503    0  0.30146095132E+03 -0.26360981132E+03  0.15238211047E+03  0.42847303928E+03  0.00000000000E+00 0. -1.
         -3    1    6    6    0  503  0.15270952741E+02 -0.58638948890E+02  0.21664042055E+02  0.64351060929E+02  0.00000000000E+00 0.  1.
<mgrwt>
<rscale>  0 0.53357291E+03</rscale>
<asrwt>0</asrwt>
<pdfrwt beam="1">  1        2 0.24693867E+00 0.53357291E+03</pdfrwt>
<pdfrwt beam="2">  1       -2 0.67403189E-01 0.53357291E+03</pdfrwt>
<totfact> 0.23673281E+01</totfact>
</mgrwt>
</event>
<event>
12    1  0.3203156E-008  0.1673306E+04  0.7818608E-02  0.8776737E-01
          1   -1    0    0  501    0  0.00000000000E+00  0.00000000000E+00  0.28563944579E+04  0.28563944579E+04  0.00000000000E+00 0. -1.
         -1   -1    0    0    0  501 -0.00000000000E+00 -0.00000000000E+00 -0.10241000003E+04  0.10241000003E+04  0.00000000000E+00 0.  1.
         23    2    1    2    0    0  0.61449457508E+02 -0.16236653493E+04  0.52329193792E+03  0.17094199040E+04  0.90646310146E+02 0.  0.
    5000000    2    1    2    0    0 -0.61449457508E+02  0.16236653493E+04  0.13090025196E+04  0.21710745542E+04  0.60000993410E+03 0.  0.
         23    2    4    4    0    0 -0.29250660055E+03  0.11268578618E+04  0.78253923210E+03  0.14057406023E+04  0.91489010551E+02 0.  0.
         23    2    4    4    0    0  0.23105714305E+03  0.49680748750E+03  0.52646328752E+03  0.76533395188E+03  0.91473394000E+02 0.  0.
          5    1    3    3  502    0  0.54057884025E+02 -0.11527544748E+04  0.32979917011E+03  0.12002311097E+04  0.47000000000E+01 0. -1.
         -5    1    3    3    0  502  0.73915734823E+01 -0.47091087450E+03  0.19349276781E+03  0.50918879434E+03  0.47000000000E+01 0.  1.
         11    1    5    5    0    0 -0.21509105378E+03  0.65333460355E+03  0.44978284835E+03  0.82183628314E+03  0.00000000000E+00 0. -1.
        -11    1    5    5    0    0 -0.77415546779E+02  0.47352325826E+03  0.33275638374E+03  0.58390431915E+03  0.00000000000E+00 0.  1.
          1    1    6    6  503    0  0.23486823680E+03  0.45570050724E+03  0.50106959619E+03  0.71686594366E+03  0.00000000000E+00 0. -1.
         -1    1    6    6    0  503 -0.38110937482E+01  0.41106980260E+02  0.25393691325E+02  0.48468008220E+02  0.00000000000E+00 0.  1.
<mgrwt>
<rscale>  0 0.16733060E+04</rscale>
<asrwt>0</asrwt>
<pdfrwt beam="1">  1        1 0.43944530E+00 0.16733060E+04</pdfrwt>
<pdfrwt beam="2">  1       -1 0.15755385E+00 0.16733060E+04</pdfrwt>
<totfact> 0.21583076E-01</totfact>
</mgrwt>
</event>
<event>
12    1  0.3203156E-008  0.4048452E+03  0.7818608E-02  0.1042115E+00
         -2   -1    0    0    0  501 -0.00000000000E+00  0.00000000000E+00  0.18352604097E+03  0.18352604097E+03  0.00000000000E+00 0. -1.
          2   -1    0    0  501    0  0.00000000000E+00 -0.00000000000E+00 -0.16411646733E+04  0.16411646733E+04  0.00000000000E+00 0.  1.
         23    2    1    2    0    0  0.31829145522E+03  0.15298031558E+03 -0.29180121228E+03  0.46683256776E+03  0.89845820205E+02 0.  0.
    5000000    2    1    2    0    0 -0.31829145522E+03 -0.15298031558E+03 -0.11658374200E+04  0.13578581465E+04  0.59990785010E+03 0.  0.
         23    2    4    4    0    0 -0.14383523439E+03  0.51521088031E+02 -0.10260751115E+04  0.10413429412E+04  0.90675187241E+02 0.  0.
         23    2    4    4    0    0 -0.17445622084E+03 -0.20450140361E+03 -0.13976230850E+03  0.31651520526E+03  0.91610999418E+02 0.  0.
          5    1    3    3  502    0  0.29218335006E+02 -0.62713003497E+01 -0.74142168250E+01  0.31146443131E+02  0.47000000000E+01 0. -1.
         -5    1    3    3    0  502  0.28907312022E+03  0.15925161593E+03 -0.28438699545E+03  0.43568612463E+03  0.47000000000E+01 0.  1.
         13    1    5    5    0    0 -0.26747701542E+02 -0.24856745167E+02 -0.26928164600E+03  0.27174602516E+03  0.00000000000E+00 0. -1.
        -13    1    5    5    0    0 -0.11708753285E+03  0.76377833198E+02 -0.75679346553E+03  0.76959691607E+03  0.00000000000E+00 0.  1.
          2    1    6    6  503    0 -0.26233166684E+02 -0.62539362870E+02 -0.75417466213E+02  0.10142556459E+03  0.00000000000E+00 0. -1.
         -2    1    6    6    0  503 -0.14822305415E+03 -0.14196204074E+03 -0.64344842290E+02  0.21508964067E+03  0.00000000000E+00 0.  1.
<mgrwt>
<rscale>  0 0.40484522E+03</rscale>
<asrwt>0</asrwt>
<pdfrwt beam="1">  1        2 0.25248687E+00 0.40484522E+03</pdfrwt>
<pdfrwt beam="2">  1       -2 0.28234776E-01 0.40484522E+03</pdfrwt>
<totfact> 0.12890155E+02</totfact>
</mgrwt>
</event>
<event>
12    1  0.3203156E-008  0.1609887E+04  0.7818608E-02  0.8814497E-01
         -2   -1    0    0    0  501 -0.00000000000E+00  0.00000000000E+00  0.16138954036E+04  0.16138954036E+04  0.00000000000E+00 0.  1.
          2   -1    0    0  501    0  0.00000000000E+00 -0.00000000000E+00 -0.16358819466E+04  0.16358819466E+04  0.00000000000E+00 0. -1.
         23    2    1    2    0    0  0.13642810566E+04 -0.76004772683E+03  0.13104694577E+03  0.15697713292E+04  0.89851964410E+02 0.  0.
    5000000    2    1    2    0    0 -0.13642810566E+04  0.76004772683E+03 -0.15303348869E+03  0.16800060210E+04  0.60005469205E+03 0.  0.
         23    2    4    4    0    0 -0.84219324770E+02  0.26993881708E+03 -0.55266698633E+02  0.30290419595E+03  0.93470232216E+02 0.  0.
         23    2    4    4    0    0 -0.12800617319E+04  0.49010890974E+03 -0.97766790055E+02  0.13771018251E+04  0.89923915553E+02 0.  0.
          5    1    3    3  502    0  0.10020860640E+04 -0.52572903609E+03  0.12291367067E+03  0.11382870286E+04  0.47000000000E+01 0. -1.
         -5    1    3    3    0  502  0.36219499267E+03 -0.23431869073E+03  0.81332750967E+01  0.43148430065E+03  0.47000000000E+01 0.  1.
         13    1    5    5    0    0 -0.16048119710E+02  0.98191371655E+02 -0.63340912919E+02  0.11794557585E+03  0.00000000000E+00 0. -1.
        -13    1    5    5    0    0 -0.68171205060E+02  0.17174744543E+03  0.80742142857E+01  0.18495862009E+03  0.00000000000E+00 0.  1.
          4    1    6    6  503    0 -0.48367599646E+03  0.22162662653E+03 -0.65583072249E+02  0.53606153611E+03  0.00000000000E+00 0. -1.
         -4    1    6    6    0  503 -0.79638573540E+03  0.26848228321E+03 -0.32183717806E+02  0.84104028895E+03  0.00000000000E+00 0.  1.
<mgrwt>
<rscale>  0 0.16098872E+04</rscale>
<asrwt>0</asrwt>
<pdfrwt beam="1">  1        2 0.25167415E+00 0.16098872E+04</pdfrwt>
<pdfrwt beam="2">  1       -2 0.24829160E+00 0.16098872E+04</pdfrwt>
<totfact> 0.65162305E-01</totfact>
</mgrwt>
</event>
<event>
12    1  0.3203156E-008  0.5996189E+03  0.7818608E-02  0.9906197E-01
         -2   -1    0    0    0  501 -0.00000000000E+00  0.00000000000E+00  0.27486181387E+03  0.27486181387E+03  0.00000000000E+00 0.  1.
          2   -1    0    0  501    0  0.00000000000E+00 -0.00000000000E+00 -0.14768224594E+04  0.14768224594E+04  0.00000000000E+00 0. -1.
         23    2    1    2    0    0  0.33715487688E+03 -0.30098614908E+03 -0.20955013668E+03  0.50700744686E+03  0.94229604969E+02 0.  0.
    5000000    2    1    2    0    0 -0.33715487688E+03  0.30098614908E+03 -0.99241050884E+03  0.12446768264E+04  0.60006308934E+03 0.  0.
         23    2    4    4    0    0 -0.12461982622E+03 -0.16802749776E+03 -0.32046952075E+03  0.39345751652E+03  0.91349671496E+02 0.  0.
         23    2    4    4    0    0 -0.21253505066E+03  0.46901364683E+03 -0.67194098809E+03  0.85121930989E+03  0.89020634562E+02 0.  0.
          5    1    3    3  502    0  0.81164716083E+02 -0.54159288363E+02 -0.87106475207E+02  0.13088379455E+03  0.47000000000E+01 0. -1.
         -5    1    3    3    0  502  0.25599016080E+03 -0.24682686071E+03 -0.12244366147E+03  0.37612365231E+03  0.47000000000E+01 0.  1.
         13    1    5    5    0    0 -0.57956204522E+02 -0.20290066620E+02 -0.12700961672E+03  0.14107462985E+03  0.00000000000E+00 0.  1.
        -13    1    5    5    0    0 -0.66663621697E+02 -0.14773743114E+03 -0.19345990403E+03  0.25238288667E+03  0.00000000000E+00 0. -1.
          1    1    6    6  503    0 -0.19252449812E+03  0.46315639813E+03 -0.64873625925E+03  0.82002333233E+03  0.00000000000E+00 0. -1.
         -1    1    6    6    0  503 -0.20010552535E+02  0.58572487057E+01 -0.23204728841E+02  0.31195977557E+02  0.00000000000E+00 0.  1.
<mgrwt>
<rscale>  0 0.59961888E+03</rscale>
<asrwt>0</asrwt>
<pdfrwt beam="1">  1        2 0.22720346E+00 0.59961888E+03</pdfrwt>
<pdfrwt beam="2">  1       -2 0.42286433E-01 0.59961888E+03</pdfrwt>
<totfact> 0.71884703E+01</totfact>
</mgrwt>
</event>
<event>
12    1  0.3203156E-008  0.4651264E+03  0.7818608E-02  0.1023305E+00
         -2   -1    0    0    0  501 -0.00000000000E+00  0.00000000000E+00  0.19115531551E+03  0.19115531551E+03  0.00000000000E+00 0.  1.
          2   -1    0    0  501    0  0.00000000000E+00 -0.00000000000E+00 -0.35051265143E+04  0.35051265143E+04  0.00000000000E+00 0. -1.
         23    2    1    2    0    0 -0.28445632270E+03  0.12051439956E+02  0.17982498887E+02  0.29881661821E+03  0.88923362089E+02 0.  0.
    5000000    2    1    2    0    0  0.28445632270E+03 -0.12051439956E+02 -0.33319536977E+04  0.33974652116E+04  0.59982812857E+03 0.  0.
         23    2    4    4    0    0 -0.14608180865E+03 -0.11008626990E+03 -0.81006929616E+03  0.83558969614E+03  0.92406677612E+02 0.  0.
         23    2    4    4    0    0  0.43053813135E+03  0.98034829943E+02 -0.25218844015E+04  0.25618755154E+04  0.91276019221E+02 0.  0.
          5    1    3    3  502    0 -0.71026244641E+02 -0.33970792363E+02  0.15693632748E+02  0.80418419970E+02  0.47000000000E+01 0. -1.
         -5    1    3    3    0  502 -0.21343007806E+03  0.46022232319E+02  0.22888661390E+01  0.21839819825E+03  0.47000000000E+01 0.  1.
         13    1    5    5    0    0 -0.91204833574E+02 -0.83749411628E+02 -0.68945974802E+03  0.70049056365E+03  0.00000000000E+00 0.  1.
        -13    1    5    5    0    0 -0.54876975078E+02 -0.26336858271E+02 -0.12060954814E+03  0.13509913249E+03  0.00000000000E+00 0. -1.
          1    1    6    6  503    0  0.95099623091E+02  0.55675842849E+02 -0.74562262245E+03  0.75372198648E+03  0.00000000000E+00 0. -1.
         -1    1    6    6    0  503  0.33543850826E+03  0.42358987094E+02 -0.17762617790E+04  0.18081535290E+04  0.00000000000E+00 0.  1.
<mgrwt>
<rscale>  0 0.46512640E+03</rscale>
<asrwt>0</asrwt>
<pdfrwt beam="1">  1        2 0.53925024E+00 0.46512640E+03</pdfrwt>
<pdfrwt beam="2">  1       -2 0.29408510E-01 0.46512640E+03</pdfrwt>
<totfact> 0.99431447E+00</totfact>
</mgrwt>
</event>
<event>
12    1  0.3203156E-008  0.4958831E+03  0.7818608E-02  0.1014859E+00
         -1   -1    0    0    0  501 -0.00000000000E+00  0.00000000000E+00  0.10227725476E+04  0.10227725476E+04  0.00000000000E+00 0.  1.
          1   -1    0    0  501    0  0.00000000000E+00 -0.00000000000E+00 -0.14604290434E+04  0.14604290434E+04  0.00000000000E+00 0. -1.
         23    2    1    2    0    0 -0.40892678201E+03  0.59751915215E+02 -0.12922081637E+04  0.13602386708E+04  0.98264433695E+02 0.  0.
    5000000    2    1    2    0    0  0.40892678201E+03 -0.59751915215E+02  0.85455166788E+03  0.11229629202E+04  0.59999646881E+03 0.  0.
         23    2    4    4    0    0  0.40793010557E+03  0.89900415540E+02  0.25321858310E+03  0.49676775230E+03  0.90385248538E+02 0.  0.
         23    2    4    4    0    0  0.99667643984E+00 -0.14965233075E+03  0.60133308478E+03  0.62619516787E+03  0.90122671666E+02 0.  0.
          5    1    3    3  502    0 -0.14758182986E+03 -0.24549897194E+02 -0.48655070016E+03  0.50905477876E+03  0.47000000000E+01 0. -1.
         -5    1    3    3    0  502 -0.26134495215E+03  0.84301812409E+02 -0.80565746352E+03  0.85118389207E+03  0.47000000000E+01 0.  1.
         13    1    5    5    0    0  0.24442382219E+03  0.53887482116E+02  0.99070700460E+02  0.26918742406E+03  0.00000000000E+00 0. -1.
        -13    1    5    5    0    0  0.16350628337E+03  0.36012933424E+02  0.15414788264E+03  0.22758032823E+03  0.00000000000E+00 0.  1.
          1    1    6    6  503    0  0.26314190594E+01 -0.70384473796E+02  0.44873836845E+03  0.45423234345E+03  0.00000000000E+00 0. -1.
         -1    1    6    6    0  503 -0.16347426196E+01 -0.79267856959E+02  0.15259471633E+03  0.17196282442E+03  0.00000000000E+00 0.  1.
<mgrwt>
<rscale>  0 0.49588310E+03</rscale>
<asrwt>0</asrwt>
<pdfrwt beam="1">  1        1 0.22468139E+00 0.49588310E+03</pdfrwt>
<pdfrwt beam="2">  1       -1 0.15734962E+00 0.49588310E+03</pdfrwt>
<totfact> 0.23664906E+00</totfact>
</mgrwt>
</event>
<event>
12    1  0.3203156E-008  0.3168299E+03  0.7818608E-02  0.1077118E+00
         -1   -1    0    0    0  501 -0.00000000000E+00  0.00000000000E+00  0.20184353699E+04  0.20184353699E+04  0.00000000000E+00 0.  1.
          1   -1    0    0  501    0  0.00000000000E+00 -0.00000000000E+00 -0.12350327587E+03  0.12350327587E+03  0.00000000000E+00 0. -1.
         23    2    1    2    0    0  0.24024361881E+03 -0.51043059394E+02  0.21288099590E+03  0.33924533915E+03  0.97194091530E+02 0.  0.
    5000000    2    1    2    0    0 -0.24024361881E+03  0.51043059394E+02  0.16820510981E+04  0.18026933066E+04  0.60007072142E+03 0.  0.
         23    2    4    4    0    0 -0.14029623641E+03 -0.95158839261E+02  0.11875075157E+03  0.22677823424E+03  0.92673555490E+02 0.  0.
         23    2    4    4    0    0 -0.99947382406E+02  0.14620189865E+03  0.15633003466E+04  0.15759150724E+04  0.90751679705E+02 0.  0.
          5    1    3    3  502    0  0.10342234799E+03 -0.29795210958E+02  0.33959911863E+02  0.11295708155E+03  0.47000000000E+01 0. -1.
         -5    1    3    3    0  502  0.13682127082E+03 -0.21247848436E+02  0.17892108404E+03  0.22628825760E+03  0.47000000000E+01 0.  1.
         13    1    5    5    0    0 -0.38012615290E+02  0.16322420580E+02  0.32638703986E+02  0.52694073032E+02  0.00000000000E+00 0.  1.
        -13    1    5    5    0    0 -0.10228362111E+03 -0.11148125984E+03  0.86112047582E+02  0.17408416121E+03  0.00000000000E+00 0. -1.
          4    1    6    6  503    0  0.13449705005E+02  0.27210878276E+02  0.14647199399E+03  0.14958399474E+03  0.00000000000E+00 0. -1.
         -4    1    6    6    0  503 -0.11339708741E+03  0.11899102038E+03  0.14168283526E+04  0.14263310776E+04  0.00000000000E+00 0.  1.
<mgrwt>
<rscale>  0 0.31682988E+03</rscale>
<asrwt>0</asrwt>
<pdfrwt beam="1">  1        1 0.19000505E-01 0.31682988E+03</pdfrwt>
<pdfrwt beam="2">  1       -1 0.31052849E+00 0.31682988E+03</pdfrwt>
<totfact> 0.89719728E+00</totfact>
</mgrwt>
</event>
<event>
12    1  0.3203156E-008  0.7362215E+03  0.7818608E-02  0.9657218E-01
          1   -1    0    0  501    0  0.00000000000E+00  0.00000000000E+00  0.14657526081E+04  0.14657526081E+04  0.00000000000E+00 0. -1.
         -1   -1    0    0    0  501 -0.00000000000E+00 -0.00000000000E+00 -0.50126384926E+03  0.50126384926E+03  0.00000000000E+00 0.  1.
         23    2    1    2    0    0 -0.16768022117E+03 -0.70582877453E+03  0.63860770614E+03  0.97078472793E+03  0.91061902637E+02 0.  0.
    5000000    2    1    2    0    0  0.16768022117E+03  0.70582877453E+03  0.32588105269E+03  0.99623172942E+03  0.59997356831E+03 0.  0.
         23    2    4    4    0    0  0.15258586294E+03  0.66936148809E+03  0.39322077055E+02  0.69360373972E+03  0.90623808703E+02 0.  0.
         23    2    4    4    0    0  0.15094358226E+02  0.36467286443E+02  0.28655897563E+03  0.30262798970E+03  0.88937905317E+02 0.  0.
          5    1    3    3  502    0 -0.54683684437E+02 -0.22514196243E+03  0.26180052624E+03  0.34962953841E+03  0.47000000000E+01 0. -1.
         -5    1    3    3    0  502 -0.11299653673E+03 -0.48068681210E+03  0.37680717990E+03  0.62115518952E+03  0.47000000000E+01 0.  1.
         13    1    5    5    0    0  0.94113119250E+02  0.22935009125E+03  0.29053524872E+02  0.24960539032E+03  0.00000000000E+00 0. -1.
        -13    1    5    5    0    0  0.58472743695E+02  0.44001139684E+03  0.10268552183E+02  0.44399834940E+03  0.00000000000E+00 0.  1.
          2    1    6    6  503    0 -0.85280577196E+01  0.29158621400E+02  0.27249043337E+03  0.27417875419E+03  0.00000000000E+00 0. -1.
         -2    1    6    6    0  503  0.23622415945E+02  0.73086650434E+01  0.14068542268E+02  0.28449235515E+02  0.00000000000E+00 0.  1.
<mgrwt>
<rscale>  0 0.73622146E+03</rscale>
<asrwt>0</asrwt>
<pdfrwt beam="1">  1        1 0.22550040E+00 0.73622146E+03</pdfrwt>
<pdfrwt beam="2">  1       -1 0.77117516E-01 0.73622146E+03</pdfrwt>
<totfact> 0.12107625E+01</totfact>
</mgrwt>
</event>
<event>
12    1  0.3203156E-008  0.1224195E+04  0.7818608E-02  0.9091939E-01
          2   -1    0    0  501    0  0.00000000000E+00  0.00000000000E+00  0.22941971022E+04  0.22941971022E+04  0.00000000000E+00 0. -1.
         -2   -1    0    0    0  501 -0.00000000000E+00 -0.00000000000E+00 -0.74428092108E+03  0.74428092108E+03  0.00000000000E+00 0.  1.
         23    2    1    2    0    0 -0.30882133787E+03 -0.11589055360E+04  0.10830436988E+04  0.16184936123E+04  0.90029214591E+02 0.  0.
    5000000    2    1    2    0    0  0.30882133787E+03  0.11589055360E+04  0.46687248233E+03  0.14199844110E+04  0.59996095910E+03 0.  0.
         23    2    4    4    0    0  0.21740727791E+03  0.25199152551E+03  0.35500565149E+03  0.49724939200E+03  0.10228534517E+03 0.  0.
         23    2    4    4    0    0  0.91414059967E+02  0.90691401051E+03  0.11186683084E+03  0.92273501896E+03  0.89867538910E+02 0.  0.
          5    1    3    3  502    0 -0.24106692890E+03 -0.76380825593E+03  0.75050816546E+03  0.10976342344E+04  0.47000000000E+01 0. -1.
         -5    1    3    3    0  502 -0.67754408973E+02 -0.39509728009E+03  0.33253553332E+03  0.52085937795E+03  0.47000000000E+01 0.  1.
         13    1    5    5    0    0  0.41220559743E+02  0.58216326308E+02  0.24207958965E+02  0.75327952790E+02  0.00000000000E+00 0. -1.
        -13    1    5    5    0    0  0.17618671816E+03  0.19377519921E+03  0.33079769252E+03  0.42192143921E+03  0.00000000000E+00 0.  1.
          2    1    6    6  503    0  0.16360964485E+02  0.44771818944E+03  0.89766603849E+02  0.45692154850E+03  0.00000000000E+00 0.  1.
         -2    1    6    6    0  503  0.75053095481E+02  0.45919582107E+03  0.22100226990E+02  0.46581347046E+03  0.00000000000E+00 0. -1.
<mgrwt>
<rscale>  0 0.12241947E+04</rscale>
<asrwt>0</asrwt>
<pdfrwt beam="1">  1        2 0.35295340E+00 0.12241947E+04</pdfrwt>
<pdfrwt beam="2">  1       -2 0.11450476E+00 0.12241947E+04</pdfrwt>
<totfact> 0.26584399E+00</totfact>
</mgrwt>
</event>
<event>
12    1  0.3203156E-008  0.9751535E+03  0.7818608E-02  0.9336224E-01
          1   -1    0    0  501    0  0.00000000000E+00  0.00000000000E+00  0.86605395463E+03  0.86605395463E+03  0.00000000000E+00 0. -1.
         -1   -1    0    0    0  501 -0.00000000000E+00 -0.00000000000E+00 -0.11473106993E+04  0.11473106993E+04  0.00000000000E+00 0.  1.
         23    2    1    2    0    0  0.11567811165E+03 -0.89074652262E+03 -0.23378957056E+03  0.93257418622E+03  0.90698712356E+02 0.  0.
    5000000    2    1    2    0    0 -0.11567811165E+03  0.89074652262E+03 -0.47467174118E+02  0.10807904677E+04  0.59920289505E+03 0.  0.
         23    2    4    4    0    0  0.14949874222E+03  0.58854717330E+02  0.65087053561E+02  0.19641471688E+03  0.92350770385E+02 0.  0.
         23    2    4    4    0    0 -0.26517685387E+03  0.83189180529E+03 -0.11255422768E+03  0.88437575084E+03  0.84197832330E+02 0.  0.
          5    1    3    3  502    0  0.12529300503E+02 -0.76410879809E+02  0.48731230994E+01  0.77726721615E+02  0.47000000000E+01 0. -1.
         -5    1    3    3    0  502  0.10314881114E+03 -0.81433564281E+03 -0.23866269366E+03  0.85484746460E+03  0.47000000000E+01 0.  1.
         13    1    5    5    0    0  0.88798850067E+02  0.70336563754E+02  0.72042288968E+02  0.13424812615E+03  0.00000000000E+00 0.  1.
        -13    1    5    5    0    0  0.60699892152E+02 -0.11481846424E+02 -0.69552354068E+01  0.62166590739E+02  0.00000000000E+00 0. -1.
          3    1    6    6  503    0 -0.61540765348E+02  0.10268615564E+03 -0.24147970124E+02  0.12212631502E+03  0.00000000000E+00 0. -1.
         -3    1    6    6    0  503 -0.20363608852E+03  0.72920564965E+03 -0.88406257556E+02  0.76224943582E+03  0.00000000000E+00 0.  1.
<mgrwt>
<rscale>  0 0.97515346E+03</rscale>
<asrwt>0</asrwt>
<pdfrwt beam="1">  1        1 0.13323907E+00 0.97515346E+03</pdfrwt>
<pdfrwt beam="2">  1       -1 0.17650934E+00 0.97515346E+03</pdfrwt>
<totfact> 0.43071427E+00</totfact>
</mgrwt>
</event>
<event>
12    1  0.3203156E-008  0.5108595E+03  0.7818608E-02  0.1010983E+00
         -1   -1    0    0    0  501 -0.00000000000E+00  0.00000000000E+00  0.71182260749E+03  0.71182260749E+03  0.00000000000E+00 0.  1.
          1   -1    0    0  501    0  0.00000000000E+00 -0.00000000000E+00 -0.13651317600E+04  0.13651317600E+04  0.00000000000E+00 0. -1.
         23    2    1    2    0    0  0.35904684061E+03 -0.34122161541E+03 -0.10785565506E+04  0.11902612105E+04  0.89948273049E+02 0.  0.
    5000000    2    1    2    0    0 -0.35904684061E+03  0.34122161541E+03  0.42524739813E+03  0.88669315695E+03  0.60003548261E+03 0.  0.
         23    2    4    4    0    0 -0.16946298028E+03  0.19122644531E+03  0.53941992973E+03  0.60355646999E+03  0.89561692749E+02 0.  0.
         23    2    4    4    0    0 -0.18958386033E+03  0.14999517010E+03 -0.11417253160E+03  0.28313668696E+03  0.93222451048E+02 0.  0.
          5    1    3    3  502    0  0.10924323900E+03 -0.16370044487E+03 -0.43173495651E+03  0.47449877091E+03  0.47000000000E+01 0.  1.
         -5    1    3    3    0  502  0.24980360161E+03 -0.17752117054E+03 -0.64682159410E+03  0.71576243961E+03  0.47000000000E+01 0. -1.
         11    1    5    5    0    0 -0.57816162241E+02  0.26709079912E+02  0.20321543436E+03  0.21296149024E+03  0.00000000000E+00 0.  1.
        -11    1    5    5    0    0 -0.11164681804E+03  0.16451736540E+03  0.33620449538E+03  0.39059497975E+03  0.00000000000E+00 0. -1.
          1    1    6    6  503    0 -0.83081139419E+01 -0.10741580642E+02 -0.17821339931E+02  0.22405500862E+02  0.00000000000E+00 0. -1.
         -1    1    6    6    0  503 -0.18127574638E+03  0.16073675074E+03 -0.96351191672E+02  0.26073118609E+03  0.00000000000E+00 0.  1.
<mgrwt>
<rscale>  0 0.51085950E+03</rscale>
<asrwt>0</asrwt>
<pdfrwt beam="1">  1        1 0.21002027E+00 0.51085950E+03</pdfrwt>
<pdfrwt beam="2">  1       -1 0.10951117E+00 0.51085950E+03</pdfrwt>
<totfact> 0.68190287E+00</totfact>
</mgrwt>
</event>
<event>
12    1  0.3203156E-008  0.5980055E+03  0.7818608E-02  0.9909553E-01
         -1   -1    0    0    0  501 -0.00000000000E+00  0.00000000000E+00  0.13937313121E+03  0.13937313121E+03  0.00000000000E+00 0.  1.
          1   -1    0    0  501    0  0.00000000000E+00 -0.00000000000E+00 -0.28132301584E+04  0.28132301584E+04  0.00000000000E+00 0. -1.
         23    2    1    2    0    0  0.93231575890E+02 -0.43324758742E+03 -0.14372072581E+04  0.15084487787E+04  0.11600610461E+03 0.  0.
    5000000    2    1    2    0    0 -0.93231575890E+02  0.43324758742E+03 -0.12366497690E+04  0.14441545109E+04  0.59990332671E+03 0.  0.
         23    2    4    4    0    0 -0.54900422143E+02  0.56767886140E+03 -0.10065519901E+04  0.11607133739E+04  0.93996178685E+02 0.  0.
         23    2    4    4    0    0 -0.38331153747E+02 -0.13443127398E+03 -0.23009777897E+03  0.28344113702E+03  0.88616282346E+02 0.  0.
          5    1    3    3  502    0  0.92914839267E+02 -0.17547834470E+03 -0.56227953674E+03  0.59632724594E+03  0.47000000000E+01 0. -1.
         -5    1    3    3    0  502  0.31673662292E+00 -0.25776924272E+03 -0.87492772140E+03  0.91212153274E+03  0.47000000000E+01 0.  1.
         13    1    5    5    0    0 -0.11339385176E+02  0.45574945982E+03 -0.75512208301E+03  0.88206888169E+03  0.00000000000E+00 0.  1.
        -13    1    5    5    0    0 -0.43561036967E+02  0.11192940158E+03 -0.25142990706E+03  0.27864449222E+03  0.00000000000E+00 0. -1.
          3    1    6    6  503    0 -0.61722045584E+02 -0.62055697093E+02 -0.10142383789E+03  0.13396759065E+03  0.00000000000E+00 0. -1.
         -3    1    6    6    0  503  0.23390891837E+02 -0.72375576884E+02 -0.12867394109E+03  0.14947354637E+03  0.00000000000E+00 0.  1.
<mgrwt>
<rscale>  0 0.59800548E+03</rscale>
<asrwt>0</asrwt>
<pdfrwt beam="1">  1        1 0.43280461E+00 0.59800548E+03</pdfrwt>
<pdfrwt beam="2">  1       -1 0.21442022E-01 0.59800548E+03</pdfrwt>
<totfact> 0.16069962E+01</totfact>
</mgrwt>
</event>
<event>
12    1  0.3203156E-008  0.6843970E+03  0.7818608E-02  0.9744294E-01
          2   -1    0    0  501    0  0.00000000000E+00  0.00000000000E+00  0.27830978404E+04  0.27830978404E+04  0.00000000000E+00 0. -1.
         -2   -1    0    0    0  501 -0.00000000000E+00 -0.00000000000E+00 -0.24209977797E+03  0.24209977797E+03  0.00000000000E+00 0.  1.
         23    2    1    2    0    0  0.54801626125E+03  0.36761761444E+03  0.63131368295E+03  0.91751473506E+03  0.88384329682E+02 0.  0.
    5000000    2    1    2    0    0 -0.54801626125E+03 -0.36761761444E+03  0.19096843795E+04  0.21076828833E+04  0.59997347800E+03 0.  0.
         23    2    4    4    0    0 -0.23819885384E+03 -0.30094657853E+03  0.39823250221E+03  0.56060787486E+03  0.91567059774E+02 0.  0.
         23    2    4    4    0    0 -0.30981740741E+03 -0.66671035910E+02  0.15114518772E+04  0.15470750084E+04  0.92317124667E+02 0.  0.
          5    1    3    3  502    0  0.50972632869E+02  0.37745756744E+02  0.10077082969E+03  0.11916292029E+03  0.47000000000E+01 0. -1.
         -5    1    3    3    0  502  0.49704362838E+03  0.32987185770E+03  0.53054285326E+03  0.79835181478E+03  0.47000000000E+01 0.  1.
         11    1    5    5    0    0 -0.18164255670E+03 -0.17152254414E+03  0.21756692973E+03  0.33128442533E+03  0.00000000000E+00 0.  1.
        -11    1    5    5    0    0 -0.56556297136E+02 -0.12942403439E+03  0.18066557248E+03  0.22932344953E+03  0.00000000000E+00 0. -1.
          1    1    6    6  503    0 -0.90102971738E+01 -0.56181341832E+01  0.19601663147E+03  0.19630402110E+03  0.00000000000E+00 0. -1.
         -1    1    6    6    0  503 -0.30080711024E+03 -0.61052901727E+02  0.13154352458E+04  0.13507709873E+04  0.00000000000E+00 0.  1.
<mgrwt>
<rscale>  0 0.68439698E+03</rscale>
<asrwt>0</asrwt>
<pdfrwt beam="1">  1        2 0.42816887E+00 0.68439698E+03</pdfrwt>
<pdfrwt beam="2">  1       -2 0.37246122E-01 0.68439698E+03</pdfrwt>
<totfact> 0.17150154E+01</totfact>
</mgrwt>
</event>
<event>
12    1  0.3203156E-008  0.1389292E+04  0.7818608E-02  0.8961606E-01
          2   -1    0    0  501    0  0.00000000000E+00  0.00000000000E+00  0.22154264461E+04  0.22154264461E+04  0.00000000000E+00 0. -1.
         -2   -1    0    0    0  501 -0.00000000000E+00 -0.00000000000E+00 -0.10371543411E+04  0.10371543411E+04  0.00000000000E+00 0.  1.
         23    2    1    2    0    0  0.44917045611E+03  0.12621853552E+04 -0.42188319245E+02  0.13435510004E+04  0.92105738217E+02 0.  0.
    5000000    2    1    2    0    0 -0.44917045611E+03 -0.12621853552E+04  0.12204604242E+04  0.19090297868E+04  0.60000425872E+03 0.  0.
         23    2    4    4    0    0 -0.49215148041E+03 -0.63007988902E+03  0.50907827767E+03  0.95202445548E+03  0.89309153067E+02 0.  0.
         23    2    4    4    0    0  0.42981024290E+02 -0.63210546614E+03  0.71138214657E+03  0.95700533136E+03  0.91596708572E+02 0.  0.
          5    1    3    3  502    0  0.29480946870E+03  0.76361375885E+03 -0.64790269464E+02  0.82112024975E+03  0.47000000000E+01 0. -1.
         -5    1    3    3    0  502  0.15436098741E+03  0.49857159632E+03  0.22601950220E+02  0.52243075067E+03  0.47000000000E+01 0.  1.
         11    1    5    5    0    0 -0.24570390536E+03 -0.37390218149E+03  0.31335567347E+03  0.54622800050E+03  0.00000000000E+00 0. -1.
        -11    1    5    5    0    0 -0.24644757504E+03 -0.25617770754E+03  0.19572260421E+03  0.40579645499E+03  0.00000000000E+00 0.  1.
          4    1    6    6  503    0 -0.37036914087E+01 -0.27863098178E+03  0.37171198050E+03  0.46456295352E+03  0.00000000000E+00 0. -1.
         -4    1    6    6    0  503  0.46684715699E+02 -0.35347448436E+03  0.33967016607E+03  0.49244237784E+03  0.00000000000E+00 0.  1.
<mgrwt>
<rscale>  0 0.13892925E+04</rscale>
<asrwt>0</asrwt>
<pdfrwt beam="1">  1        2 0.34083484E+00 0.13892925E+04</pdfrwt>
<pdfrwt beam="2">  1       -2 0.15956221E+00 0.13892925E+04</pdfrwt>
<totfact> 0.12249869E+00</totfact>
</mgrwt>
</event>
<event>
12    1  0.3203156E-008  0.8805546E+03  0.7818608E-02  0.9450221E-01
          2   -1    0    0  501    0  0.00000000000E+00  0.00000000000E+00  0.24800179700E+04  0.24800179700E+04  0.00000000000E+00 0. -1.
         -2   -1    0    0    0  501 -0.00000000000E+00 -0.00000000000E+00 -0.35328572117E+03  0.35328572117E+03  0.00000000000E+00 0.  1.
         23    2    1    2    0    0  0.83632309203E+03 -0.23325754048E+02  0.99277102714E+03  0.13017307867E+04  0.94489807123E+02 0.  0.
    5000000    2    1    2    0    0 -0.83632309203E+03  0.23325754048E+02  0.11339612217E+04  0.15315729045E+04  0.59988924339E+03 0.  0.
         23    2    4    4    0    0 -0.52921742168E+03 -0.15941927893E+03  0.98678250835E+03  0.11345760343E+04  0.89651954025E+02 0.  0.
         23    2    4    4    0    0 -0.30710567035E+03  0.18274503297E+03  0.14717871336E+03  0.39699687021E+03  0.90748561690E+02 0.  0.
          5    1    3    3  502    0  0.14438640759E+03  0.28264750489E+02  0.15165464390E+03  0.21134699390E+03  0.47000000000E+01 0. -1.
         -5    1    3    3    0  502  0.69193668445E+03 -0.51590504537E+02  0.84111638324E+03  0.10903837928E+04  0.47000000000E+01 0.  1.
         11    1    5    5    0    0 -0.28049313408E+03 -0.12447446096E+03  0.49594077992E+03  0.58320454978E+03  0.00000000000E+00 0. -1.
        -11    1    5    5    0    0 -0.24872428760E+03 -0.34944817970E+02  0.49084172843E+03  0.55137148449E+03  0.00000000000E+00 0.  1.
          2    1    6    6  503    0 -0.89032769051E+02  0.84734800173E+02  0.86606373187E+02  0.15035785381E+03  0.00000000000E+00 0. -1.
         -2    1    6    6    0  503 -0.21807290130E+03  0.98010232800E+02  0.60572340169E+02  0.24663901640E+03  0.00000000000E+00 0.  1.
<mgrwt>
<rscale>  0 0.88055461E+03</rscale>
<asrwt>0</asrwt>
<pdfrwt beam="1">  1        2 0.38154122E+00 0.88055461E+03</pdfrwt>
<pdfrwt beam="2">  1       -2 0.54351651E-01 0.88055461E+03</pdfrwt>
<totfact> 0.11702729E+01</totfact>
</mgrwt>
</event>
<event>
12    1  0.3203156E-008  0.5456784E+03  0.7818608E-02  0.1002499E+00
         -1   -1    0    0    0  501 -0.00000000000E+00  0.00000000000E+00  0.94619382608E+03  0.94619382608E+03  0.00000000000E+00 0.  1.
          1   -1    0    0  501    0  0.00000000000E+00 -0.00000000000E+00 -0.55643693311E+03  0.55643693311E+03  0.00000000000E+00 0. -1.
         23    2    1    2    0    0  0.36656611762E+03 -0.13913466393E+03  0.62938138157E+03  0.74696880816E+03  0.90068327404E+02 0.  0.
    5000000    2    1    2    0    0 -0.36656611762E+03  0.13913466393E+03 -0.23962448860E+03  0.75566195103E+03  0.59989658725E+03 0.  0.
         23    2    4    4    0    0 -0.38484048913E+03  0.32080827550E+03 -0.20273600729E+03  0.54808769056E+03  0.90983933694E+02 0.  0.
         23    2    4    4    0    0  0.18274371509E+02 -0.18167361157E+03 -0.36888481306E+02  0.20757426046E+03  0.91580891882E+02 0.  0.
          5    1    3    3  502    0  0.17669407002E+03 -0.51511180638E+02  0.37400974409E+03  0.41686877406E+03  0.47000000000E+01 0. -1.
         -5    1    3    3    0  502  0.18987204760E+03 -0.87623483294E+02  0.25537163748E+03  0.33010003410E+03  0.47000000000E+01 0.  1.
         11    1    5    5    0    0 -0.28339421896E+03  0.22083740134E+03 -0.18631887440E+03  0.40471738797E+03  0.00000000000E+00 0. -1.
        -11    1    5    5    0    0 -0.10144627017E+03  0.99970874164E+02 -0.16417132891E+02  0.14337030259E+03  0.00000000000E+00 0.  1.
          1    1    6    6  503    0 -0.26663147016E+02 -0.95937096116E+02 -0.47262238588E+02  0.11022054716E+03  0.00000000000E+00 0. -1.
         -1    1    6    6    0  503  0.44937518525E+02 -0.85736515456E+02  0.10373757282E+02  0.97353713303E+02  0.00000000000E+00 0.  1.
<mgrwt>
<rscale>  0 0.54567839E+03</rscale>
<asrwt>0</asrwt>
<pdfrwt beam="1">  1        1 0.85605682E-01 0.54567839E+03</pdfrwt>
<pdfrwt beam="2">  1       -1 0.14556828E+00 0.54567839E+03</pdfrwt>
<totfact> 0.15249731E+01</totfact>
</mgrwt>
</event>
<event>
12    1  0.3203156E-008  0.5565868E+03  0.7818608E-02  0.9999808E-01
          1   -1    0    0  501    0  0.00000000000E+00  0.00000000000E+00  0.16631742427E+04  0.16631742427E+04  0.00000000000E+00 0. -1.
         -1   -1    0    0    0  501 -0.00000000000E+00 -0.00000000000E+00 -0.27260248251E+03  0.27260248251E+03  0.00000000000E+00 0.  1.
         23    2    1    2    0    0  0.44089390100E+03 -0.14046920002E+03  0.94614730225E+03  0.10571718459E+04  0.91096466230E+02 0.  0.
    5000000    2    1    2    0    0 -0.44089390100E+03  0.14046920002E+03  0.44442445790E+03  0.87860487925E+03  0.60026194862E+03 0.  0.
         23    2    4    4    0    0 -0.17859543784E+03 -0.15572402357E+03  0.39582501385E+03  0.47010028064E+03  0.90390985917E+02 0.  0.
         23    2    4    4    0    0 -0.26229846316E+03  0.29619322359E+03  0.48599444044E+02  0.40850459860E+03  0.89348708112E+02 0.  0.
          5    1    3    3  502    0  0.28656528541E+03 -0.47202722546E+02  0.61255768466E+03  0.67793566572E+03  0.47000000000E+01 0. -1.
         -5    1    3    3    0  502  0.15432861559E+03 -0.93266477474E+02  0.33358961759E+03  0.37923618021E+03  0.47000000000E+01 0.  1.
         11    1    5    5    0    0 -0.14133716576E+03 -0.11546940683E+03  0.36268076769E+03  0.40601319879E+03  0.00000000000E+00 0. -1.
        -11    1    5    5    0    0 -0.37258272079E+02 -0.40254616735E+02  0.33144246166E+02  0.64087081856E+02  0.00000000000E+00 0.  1.
          4    1    6    6  503    0 -0.19447949773E+03  0.26890825733E+03  0.48590873913E+02  0.33540274138E+03  0.00000000000E+00 0. -1.
         -4    1    6    6    0  503 -0.67818965433E+02  0.27284966260E+02  0.85701308609E-02  0.73101857225E+02  0.00000000000E+00 0.  1.
<mgrwt>
<rscale>  0 0.55658676E+03</rscale>
<asrwt>0</asrwt>
<pdfrwt beam="1">  1        1 0.25587296E+00 0.55658676E+03</pdfrwt>
<pdfrwt beam="2">  1       -1 0.41938844E-01 0.55658676E+03</pdfrwt>
<totfact> 0.29984701E+01</totfact>
</mgrwt>
</event>
<event>
12    1  0.3203156E-008  0.2978194E+03  0.7818608E-02  0.1086336E+00
          1   -1    0    0  501    0  0.00000000000E+00  0.00000000000E+00  0.22367944793E+03  0.22367944793E+03  0.00000000000E+00 0. -1.
         -1   -1    0    0    0  501 -0.00000000000E+00 -0.00000000000E+00 -0.11104801036E+04  0.11104801036E+04  0.00000000000E+00 0.  1.
         23    2    1    2    0    0  0.27364202627E+03 -0.63520224794E+02 -0.46713602222E+03  0.55005935722E+03  0.73718760904E+02 0.  0.
    5000000    2    1    2    0    0 -0.27364202627E+03  0.63520224794E+02 -0.41966463348E+03  0.78410019435E+03  0.59981658254E+03 0.  0.
         23    2    4    4    0    0 -0.11759921682E+03  0.11132608522E+02  0.13293517819E+03  0.20037104519E+03  0.92321630091E+02 0.  0.
         23    2    4    4    0    0 -0.15604280945E+03  0.52387616271E+02 -0.55259981167E+03  0.58372914916E+03  0.90990917092E+02 0.  0.
          5    1    3    3  502    0  0.75532996212E+02 -0.52086227565E+02 -0.15320610695E+03  0.17864044846E+03  0.47000000000E+01 0. -1.
         -5    1    3    3    0  502  0.19810903006E+03 -0.11433997229E+02 -0.31392991527E+03  0.37141890876E+03  0.47000000000E+01 0.  1.
         13    1    5    5    0    0  0.90526986371E+00 -0.11175788688E+02  0.56497971476E+02  0.57599813777E+02  0.00000000000E+00 0.  1.
        -13    1    5    5    0    0 -0.11850448668E+03  0.22308397210E+02  0.76437206717E+02  0.14277123142E+03  0.00000000000E+00 0. -1.
          1    1    6    6  503    0 -0.13405592525E+03  0.21818394079E+02 -0.31313402698E+03  0.34132089339E+03  0.00000000000E+00 0. -1.
         -1    1    6    6    0  503 -0.21986884199E+02  0.30569222192E+02 -0.23946578470E+03  0.24240825576E+03  0.00000000000E+00 0.  1.
<mgrwt>
<rscale>  0 0.29781936E+03</rscale>
<asrwt>0</asrwt>
<pdfrwt beam="1">  1        1 0.34412223E-01 0.29781936E+03</pdfrwt>
<pdfrwt beam="2">  1       -1 0.17084309E+00 0.29781936E+03</pdfrwt>
<totfact> 0.33874516E+01</totfact>
</mgrwt>
</event>
<event>
12    1  0.3203156E-008  0.9138200E+03  0.7818608E-02  0.9408469E-01
         -2   -1    0    0    0  501 -0.00000000000E+00  0.00000000000E+00  0.38362581626E+03  0.38362581626E+03  0.00000000000E+00 0.  1.
          2   -1    0    0  501    0  0.00000000000E+00 -0.00000000000E+00 -0.32039356610E+04  0.32039356610E+04  0.00000000000E+00 0. -1.
         23    2    1    2    0    0  0.71679490113E+03  0.43920994318E+03 -0.35886268674E+03  0.91819945560E+03  0.87221028745E+02 0.  0.
    5000000    2    1    2    0    0 -0.71679490113E+03 -0.43920994318E+03 -0.24614471580E+04  0.26693620217E+04  0.60005931923E+03 0.  0.
         23    2    4    4    0    0 -0.14077601487E+02 -0.24351878328E+03 -0.99696439728E+03  0.10307403768E+04  0.94805792651E+02 0.  0.
         23    2    4    4    0    0 -0.70271729964E+03 -0.19569115990E+03 -0.14644827607E+04  0.16386216448E+04  0.90909323884E+02 0.  0.
          5    1    3    3  502    0  0.12182067397E+03  0.75105988296E+02 -0.97743373301E+02  0.17336967182E+03  0.47000000000E+01 0. -1.
         -5    1    3    3    0  502  0.59497422717E+03  0.36410395489E+03 -0.26111931344E+03  0.74482978378E+03  0.47000000000E+01 0.  1.
         13    1    5    5    0    0  0.12506939878E+02 -0.39243340079E-01 -0.10560210983E+03  0.10634016497E+03  0.00000000000E+00 0.  1.
        -13    1    5    5    0    0 -0.26584541365E+02 -0.24347953994E+03 -0.89136228745E+03  0.92440021186E+03  0.00000000000E+00 0. -1.
          4    1    6    6  503    0 -0.45273646360E+03 -0.12684237682E+03 -0.10377412188E+04  0.11392831655E+04  0.00000000000E+00 0.  1.
         -4    1    6    6    0  503 -0.24998083604E+03 -0.68848783081E+02 -0.42674154191E+03  0.49933847931E+03  0.00000000000E+00 0. -1.
<mgrwt>
<rscale>  0 0.91381996E+03</rscale>
<asrwt>0</asrwt>
<pdfrwt beam="1">  1        2 0.49291319E+00 0.91381996E+03</pdfrwt>
<pdfrwt beam="2">  1       -2 0.59019355E-01 0.91381996E+03</pdfrwt>
<totfact> 0.36030154E+00</totfact>
</mgrwt>
</event>
<event>
12    1  0.3203156E-008  0.8359531E+03  0.7818608E-02  0.9509387E-01
         -2   -1    0    0    0  501 -0.00000000000E+00  0.00000000000E+00  0.12147347092E+04  0.12147347092E+04  0.00000000000E+00 0.  1.
          2   -1    0    0  501    0  0.00000000000E+00 -0.00000000000E+00 -0.81827699600E+03  0.81827699600E+03  0.00000000000E+00 0. -1.
         23    2    1    2    0    0  0.71328353063E+02  0.79643584530E+03  0.61136206610E+03  0.10105289716E+04  0.89484282755E+02 0.  0.
    5000000    2    1    2    0    0 -0.71328353063E+02 -0.79643584530E+03 -0.21490435287E+03  0.10224827337E+04  0.59990771802E+03 0.  0.
         23    2    4    4    0    0 -0.14914999365E+03 -0.71791081095E+03 -0.35539187616E+03  0.81977849325E+03  0.89954095360E+02 0.  0.
         23    2    4    4    0    0  0.77821640587E+02 -0.78525034349E+02  0.14048752329E+03  0.20270424042E+03  0.95550385245E+02 0.  0.
          5    1    3    3  502    0  0.28345441645E+02  0.57442105084E+03  0.47883600905E+03  0.74837759271E+03  0.47000000000E+01 0. -1.
         -5    1    3    3    0  502  0.42982911418E+02  0.22201479446E+03  0.13252605705E+03  0.26215137884E+03  0.47000000000E+01 0.  1.
         11    1    5    5    0    0 -0.54277169684E+02 -0.21181654983E+03 -0.15126964415E+03  0.26588487579E+03  0.00000000000E+00 0. -1.
        -11    1    5    5    0    0 -0.94872823967E+02 -0.50609426112E+03 -0.20412223200E+03  0.55389361746E+03  0.00000000000E+00 0.  1.
          3    1    6    6  503    0  0.94471895170E+02 -0.59137573847E+02  0.80458946571E+02  0.13746211733E+03  0.00000000000E+00 0. -1.
         -3    1    6    6    0  503 -0.16650254582E+02 -0.19387460502E+02  0.60028576716E+02  0.65242123088E+02  0.00000000000E+00 0.  1.
<mgrwt>
<rscale>  0 0.83595314E+03</rscale>
<asrwt>0</asrwt>
<pdfrwt beam="1">  1        2 0.12588877E+00 0.83595314E+03</pdfrwt>
<pdfrwt beam="2">  1       -2 0.18688226E+00 0.83595314E+03</pdfrwt>
<totfact> 0.54885778E+00</totfact>
</mgrwt>
</event>
<event>
12    1  0.3203156E-008  0.1212479E+04  0.7818608E-02  0.9102003E-01
          2   -1    0    0  501    0  0.00000000000E+00  0.00000000000E+00  0.62713671642E+03  0.62713671642E+03  0.00000000000E+00 0.  1.
         -2   -1    0    0    0  501 -0.00000000000E+00 -0.00000000000E+00 -0.25129172865E+04  0.25129172865E+04  0.00000000000E+00 0. -1.
         23    2    1    2    0    0  0.96660700010E+03 -0.61070298398E+03 -0.12646244161E+04  0.17071916469E+04  0.89113289906E+02 0.  0.
    5000000    2    1    2    0    0 -0.96660700010E+03  0.61070298398E+03 -0.62115615401E+03  0.14328623560E+04  0.59997694638E+03 0.  0.
         23    2    4    4    0    0  0.54168195513E+02  0.54305740676E+02 -0.23032980494E+02  0.12220499383E+03  0.92305121476E+02 0.  0.
         23    2    4    4    0    0 -0.10207751956E+04  0.55639724330E+03 -0.59812317351E+03  0.13106573621E+04  0.92257779563E+02 0.  0.
          5    1    3    3  502    0  0.21174557359E+03 -0.16505521781E+03 -0.33704443516E+03  0.43092975546E+03  0.47000000000E+01 0. -1.
         -5    1    3    3    0  502  0.75486142651E+03 -0.44564776616E+03 -0.92757998089E+03  0.12762618915E+04  0.47000000000E+01 0.  1.
         13    1    5    5    0    0  0.40802496855E+02  0.77158360762E+02 -0.33835832264E+02  0.93611537377E+02  0.00000000000E+00 0.  1.
        -13    1    5    5    0    0  0.13365698658E+02 -0.22852620087E+02  0.10802851770E+02  0.28593456451E+02  0.00000000000E+00 0. -1.
          3    1    6    6  503    0 -0.43714230427E+03  0.18766543660E+03 -0.23392970406E+03  0.53012717033E+03  0.00000000000E+00 0. -1.
         -3    1    6    6    0  503 -0.58363289134E+03  0.36873180670E+03 -0.36419346945E+03  0.78053019181E+03  0.00000000000E+00 0.  1.
<mgrwt>
<rscale>  0 0.12124793E+04</rscale>
<asrwt>0</asrwt>
<pdfrwt beam="1">  1        2 0.96482573E-01 0.12124793E+04</pdfrwt>
<pdfrwt beam="2">  1       -2 0.38660265E+00 0.12124793E+04</pdfrwt>
<totfact> 0.42181729E-01</totfact>
</mgrwt>
</event>
<event>
12    1  0.3203156E-008  0.9966846E+03  0.7818608E-02  0.9312189E-01
          2   -1    0    0  501    0  0.00000000000E+00  0.00000000000E+00  0.36620816204E+04  0.36620816204E+04  0.00000000000E+00 0. -1.
         -2   -1    0    0    0  501 -0.00000000000E+00 -0.00000000000E+00 -0.27794996741E+03  0.27794996741E+03  0.00000000000E+00 0.  1.
         23    2    1    2    0    0  0.12296557998E+03  0.90319911321E+03  0.17385850640E+04  0.19655066670E+04  0.98230653653E+02 0.  0.
    5000000    2    1    2    0    0 -0.12296557998E+03 -0.90319911321E+03  0.16455465891E+04  0.19745249209E+04  0.60002992793E+03 0.  0.
         23    2    4    4    0    0 -0.34755835505E+03 -0.62151278159E+03  0.10296751769E+04  0.12551650308E+04  0.90185013979E+02 0.  0.
         23    2    4    4    0    0  0.22459277507E+03 -0.28168633162E+03  0.61587141220E+03  0.71935989012E+03  0.91607593052E+02 0.  0.
          5    1    3    3  502    0  0.70982163311E+02  0.56589690419E+03  0.11858752776E+04  0.13159027463E+04  0.47000000000E+01 0. -1.
         -5    1    3    3    0  502  0.51983416669E+02  0.33730220902E+03  0.55270978632E+03  0.64960392064E+03  0.47000000000E+01 0.  1.
         11    1    5    5    0    0 -0.19179409741E+03 -0.25188495412E+03  0.44493270942E+03  0.54607336671E+03  0.00000000000E+00 0.  1.
        -11    1    5    5    0    0 -0.15576425764E+03 -0.36962782747E+03  0.58474246745E+03  0.70909166406E+03  0.00000000000E+00 0. -1.
          1    1    6    6  503    0  0.20651768380E+03 -0.27666183409E+03  0.60764893851E+03  0.69887663907E+03  0.00000000000E+00 0. -1.
         -1    1    6    6    0  503  0.18075091272E+02 -0.50244975303E+01  0.82224736957E+01  0.20483251051E+02  0.00000000000E+00 0.  1.
<mgrwt>
<rscale>  0 0.99668458E+03</rscale>
<asrwt>0</asrwt>
<pdfrwt beam="1">  1        2 0.56339714E+00 0.99668458E+03</pdfrwt>
<pdfrwt beam="2">  1       -2 0.42761536E-01 0.99668458E+03</pdfrwt>
<totfact> 0.33656463E+00</totfact>
</mgrwt>
</event>
<event>
12    1  0.3203156E-008  0.9960228E+03  0.7818608E-02  0.9312918E-01
          1   -1    0    0  501    0  0.00000000000E+00  0.00000000000E+00  0.28430324335E+04  0.28430324335E+04  0.00000000000E+00 0. -1.
         -1   -1    0    0    0  501 -0.00000000000E+00 -0.00000000000E+00 -0.40065709595E+03  0.40065709595E+03  0.00000000000E+00 0.  1.
         23    2    1    2    0    0  0.50778671612E+03 -0.76731077390E+03  0.16425813434E+04  0.18848270616E+04  0.88805459664E+02 0.  0.
    5000000    2    1    2    0    0 -0.50778671612E+03  0.76731077390E+03  0.79979399424E+03  0.13588624679E+04  0.60018630500E+03 0.  0.
         23    2    4    4    0    0 -0.45620607485E+03  0.19522633824E+03  0.47214288781E+03  0.69182897644E+03  0.97319680761E+02 0.  0.
         23    2    4    4    0    0 -0.51580641270E+02  0.57208443566E+03  0.32765110642E+03  0.66703349148E+03  0.87391459195E+02 0.  0.
          5    1    3    3  502    0  0.39449062014E+03 -0.61092943132E+03  0.13650910886E+04  0.15467234367E+04  0.47000000000E+01 0. -1.
         -5    1    3    3    0  502  0.11329609598E+03 -0.15638134257E+03  0.27749025477E+03  0.33810362489E+03  0.47000000000E+01 0.  1.
         11    1    5    5    0    0 -0.21508659779E+03  0.76046164005E+02  0.28056341391E+03  0.36160903312E+03  0.00000000000E+00 0.  1.
        -11    1    5    5    0    0 -0.24111947706E+03  0.11918017424E+03  0.19157947390E+03  0.33021994333E+03  0.00000000000E+00 0. -1.
          2    1    6    6  503    0 -0.15443754847E+02  0.23919205983E+03  0.88304012573E+02  0.25543873959E+03  0.00000000000E+00 0.  1.
         -2    1    6    6    0  503 -0.36136886423E+02  0.33289237583E+03  0.23934709385E+03  0.41159475188E+03  0.00000000000E+00 0. -1.
<mgrwt>
<rscale>  0 0.99602278E+03</rscale>
<asrwt>0</asrwt>
<pdfrwt beam="1">  1        1 0.43738959E+00 0.99602278E+03</pdfrwt>
<pdfrwt beam="2">  1       -1 0.61639555E-01 0.99602278E+03</pdfrwt>
<totfact> 0.21256658E+00</totfact>
</mgrwt>
</event>
<event>
12    1  0.3203156E-008  0.1267856E+04  0.7818608E-02  0.9055452E-01
          1   -1    0    0  501    0  0.00000000000E+00  0.00000000000E+00  0.21742974170E+04  0.21742974170E+04  0.00000000000E+00 0. -1.
         -1   -1    0    0    0  501 -0.00000000000E+00 -0.00000000000E+00 -0.95066791239E+03  0.95066791239E+03  0.00000000000E+00 0.  1.
         23    2    1    2    0    0  0.37597230163E+03 -0.11495011293E+04  0.12928820947E+04  0.17727476033E+04  0.91552915220E+02 0.  0.
    5000000    2    1    2    0    0 -0.37597230163E+03  0.11495011293E+04 -0.69252590085E+02  0.13522177261E+04  0.60082346807E+03 0.  0.
         23    2    4    4    0    0  0.11838584002E+03  0.45517451623E+03  0.69071811592E+02  0.48346643227E+03  0.88146631420E+02 0.  0.
         23    2    4    4    0    0 -0.49435814165E+03  0.69432661306E+03 -0.13832440168E+03  0.86875129386E+03  0.95476450823E+02 0.  0.
          5    1    3    3  502    0  0.22742899159E+03 -0.67829160139E+03  0.69911335500E+03  0.10002924652E+04  0.47000000000E+01 0. -1.
         -5    1    3    3    0  502  0.14854331004E+03 -0.47120952790E+03  0.59376873971E+03  0.77245513811E+03  0.47000000000E+01 0.  1.
         13    1    5    5    0    0  0.34200617414E+02  0.86353259259E+02  0.48058362398E+02  0.10457616274E+03  0.00000000000E+00 0.  1.
        -13    1    5    5    0    0  0.84185222606E+02  0.36882125697E+03  0.21013449194E+02  0.37889026953E+03  0.00000000000E+00 0. -1.
          2    1    6    6  503    0 -0.98184871560E+02  0.18819798916E+03 -0.64091212934E+02  0.22173505745E+03  0.00000000000E+00 0. -1.
         -2    1    6    6    0  503 -0.39617327009E+03  0.50612862390E+03 -0.74233188743E+02  0.64701623641E+03  0.00000000000E+00 0.  1.
<mgrwt>
<rscale>  0 0.12678556E+04</rscale>
<asrwt>0</asrwt>
<pdfrwt beam="1">  1        1 0.33450729E+00 0.12678556E+04</pdfrwt>
<pdfrwt beam="2">  1       -1 0.14625660E+00 0.12678556E+04</pdfrwt>
<totfact> 0.82626655E-01</totfact>
</mgrwt>
</event>
<event>
12    1  0.3203156E-008  0.4440416E+03  0.7818608E-02  0.1029514E+00
          1   -1    0    0  501    0  0.00000000000E+00  0.00000000000E+00  0.30930074643E+03  0.30930074643E+03  0.00000000000E+00 0. -1.
         -1   -1    0    0    0  501 -0.00000000000E+00 -0.00000000000E+00 -0.75761827724E+03  0.75761827724E+03  0.00000000000E+00 0.  1.
         23    2    1    2    0    0 -0.23576065058E+02 -0.28552062708E+03 -0.17647334879E+03  0.34862256720E+03  0.91197544916E+02 0.  0.
    5000000    2    1    2    0    0  0.23576065058E+02  0.28552062708E+03 -0.27184418203E+03  0.71829645648E+03  0.59997723353E+03 0.  0.
         23    2    4    4    0    0 -0.15817706322E+03  0.34329583208E+03 -0.22561094346E+02  0.38969989088E+03  0.92114007167E+02 0.  0.
         23    2    4    4    0    0  0.18175312828E+03 -0.57775205006E+02 -0.24928308768E+03  0.32859656560E+03  0.97270093903E+02 0.  0.
          5    1    3    3  502    0  0.19601850400E+01 -0.25578275029E+03 -0.17332645078E+03  0.30901910331E+03  0.47000000000E+01 0. -1.
         -5    1    3    3    0  502 -0.25536250098E+02 -0.29737876787E+02 -0.31468980056E+01  0.39603463888E+02  0.47000000000E+01 0.  1.
         11    1    5    5    0    0 -0.74331130373E+02  0.10753345485E+03  0.29742332972E+02  0.13406404151E+03  0.00000000000E+00 0.  1.
        -11    1    5    5    0    0 -0.83845932850E+02  0.23576237723E+03 -0.52303427319E+02  0.25563584937E+03  0.00000000000E+00 0. -1.
          3    1    6    6  503    0  0.15290270748E+03 -0.65663503132E+01 -0.20035575240E+03  0.25212057122E+03  0.00000000000E+00 0. -1.
         -3    1    6    6    0  503  0.28850420803E+02 -0.51208854693E+02 -0.48927335277E+02  0.76475994382E+02  0.00000000000E+00 0.  1.
<mgrwt>
<rscale>  0 0.44404158E+03</rscale>
<asrwt>0</asrwt>
<pdfrwt beam="1">  1        1 0.47584730E-01 0.44404158E+03</pdfrwt>
<pdfrwt beam="2">  1       -1 0.11655666E+00 0.44404158E+03</pdfrwt>
<totfact> 0.58770046E+01</totfact>
</mgrwt>
</event>
<event>
12    1  0.3203156E-008  0.1288270E+04  0.7818608E-02  0.9038919E-01
         -2   -1    0    0    0  501 -0.00000000000E+00  0.00000000000E+00  0.11698158893E+04  0.11698158893E+04  0.00000000000E+00 0.  1.
          2   -1    0    0  501    0  0.00000000000E+00 -0.00000000000E+00 -0.16999699709E+04  0.16999699709E+04  0.00000000000E+00 0. -1.
         23    2    1    2    0    0  0.12267123787E+04  0.28578457385E+03 -0.73276621044E+03  0.14600045986E+04  0.90393726737E+02 0.  0.
    5000000    2    1    2    0    0 -0.12267123787E+04 -0.28578457385E+03  0.20261212891E+03  0.14097812616E+04  0.59994620427E+03 0.  0.
         23    2    4    4    0    0 -0.63844909258E+03  0.46778289528E+02 -0.11552319403E+03  0.65702818063E+03  0.92384899185E+02 0.  0.
         23    2    4    4    0    0 -0.58826328617E+03 -0.33256286338E+03  0.31813532294E+03  0.75275308099E+03  0.93676919741E+02 0.  0.
          5    1    3    3  502    0  0.56094166597E+03  0.10882714537E+03 -0.28684686634E+03  0.63937634842E+03  0.47000000000E+01 0. -1.
         -5    1    3    3    0  502  0.66577071278E+03  0.17695742847E+03 -0.44591934410E+03  0.82062825014E+03  0.47000000000E+01 0.  1.
         11    1    5    5    0    0 -0.28679033340E+03  0.15733763409E+02 -0.55718535943E+01  0.28727563801E+03  0.00000000000E+00 0.  1.
        -11    1    5    5    0    0 -0.35165875918E+03  0.31044526119E+02 -0.10995134043E+03  0.36975254262E+03  0.00000000000E+00 0. -1.
          3    1    6    6  503    0 -0.36472479400E+03 -0.21555129262E+03  0.14944458591E+03  0.44924405324E+03  0.00000000000E+00 0. -1.
         -3    1    6    6    0  503 -0.22353849217E+03 -0.11701157075E+03  0.16869073703E+03  0.30350902776E+03  0.00000000000E+00 0.  1.
<mgrwt>
<rscale>  0 0.12882704E+04</rscale>
<asrwt>0</asrwt>
<pdfrwt beam="1">  1        2 0.26153384E+00 0.12882704E+04</pdfrwt>
<pdfrwt beam="2">  1       -2 0.17997168E+00 0.12882704E+04</pdfrwt>
<totfact> 0.17104997E+00</totfact>
</mgrwt>
</event>
<event>
12    1  0.3203156E-008  0.1033884E+04  0.7818608E-02  0.9272143E-01
         -2   -1    0    0    0  501 -0.00000000000E+00  0.00000000000E+00  0.15453948703E+04  0.15453948703E+04  0.00000000000E+00 0.  1.
          2   -1    0    0  501    0  0.00000000000E+00 -0.00000000000E+00 -0.14044758500E+04  0.14044758500E+04  0.00000000000E+00 0. -1.
         23    2    1    2    0    0 -0.95970770573E+03 -0.34512185273E+03 -0.90749009097E+03  0.13689493975E+04  0.10166717285E+03 0.  0.
    5000000    2    1    2    0    0  0.95970770573E+03  0.34512185273E+03  0.10484091113E+04  0.15809213228E+04  0.60000215875E+03 0.  0.
         23    2    4    4    0    0  0.65945832484E+03  0.14054509606E+03  0.29922451832E+03  0.74321486792E+03  0.90525252291E+02 0.  0.
         23    2    4    4    0    0  0.30024938089E+03  0.20457675667E+03  0.74918459296E+03  0.83770645485E+03  0.92050041182E+02 0.  0.
          5    1    3    3  502    0 -0.33088379870E+03 -0.16790760664E+03 -0.30793233512E+03  0.48220479635E+03  0.47000000000E+01 0. -1.
         -5    1    3    3    0  502 -0.62882390703E+03 -0.17721424609E+03 -0.59955775585E+03  0.88674460115E+03  0.47000000000E+01 0.  1.
         13    1    5    5    0    0  0.53347782375E+03  0.13575545291E+03  0.27294982099E+03  0.61443448488E+03  0.00000000000E+00 0.  1.
        -13    1    5    5    0    0  0.12598050109E+03  0.47896431493E+01  0.26274697335E+02  0.12878038304E+03  0.00000000000E+00 0. -1.
          2    1    6    6  503    0  0.11745426129E+03  0.50966263087E+02  0.34849573926E+03  0.37127125360E+03  0.00000000000E+00 0. -1.
         -2    1    6    6    0  503  0.18279511960E+03  0.15361049359E+03  0.40068885370E+03  0.46643520125E+03  0.00000000000E+00 0.  1.
<mgrwt>
<rscale>  0 0.10338841E+04</rscale>
<asrwt>0</asrwt>
<pdfrwt beam="1">  1        2 0.21607321E+00 0.10338841E+04</pdfrwt>
<pdfrwt beam="2">  1       -2 0.23775306E+00 0.10338841E+04</pdfrwt>
<totfact> 0.10910827E+00</totfact>
</mgrwt>
</event>
<event>
12    1  0.3203156E-008  0.1599795E+04  0.7818608E-02  0.8820674E-01
         -1   -1    0    0    0  501 -0.00000000000E+00  0.00000000000E+00  0.16186303791E+04  0.16186303791E+04  0.00000000000E+00 0.  1.
          1   -1    0    0  501    0  0.00000000000E+00 -0.00000000000E+00 -0.16871973225E+04  0.16871973225E+04  0.00000000000E+00 0. -1.
         23    2    1    2    0    0  0.13292802732E+04  0.88468459802E+03 -0.40577727490E+02  0.15998452613E+04  0.90583803407E+02 0.  0.
    5000000    2    1    2    0    0 -0.13292802732E+04 -0.88468459802E+03 -0.27989215956E+02  0.17059824403E+04  0.59994983768E+03 0.  0.
         23    2    4    4    0    0 -0.17340251090E+03 -0.96518852524E+02 -0.19725743057E+03  0.29394088916E+03  0.90035730289E+02 0.  0.
         23    2    4    4    0    0 -0.11558777623E+04 -0.78816574550E+03  0.16926821461E+03  0.14120415512E+04  0.89168211434E+02 0.  0.
          5    1    3    3  502    0  0.95257367750E+03  0.67396853537E+03 -0.75558832192E+01  0.11669230391E+04  0.47000000000E+01 0. -1.
         -5    1    3    3    0  502  0.37670659572E+03  0.21071606265E+03 -0.33021844271E+02  0.43292222225E+03  0.47000000000E+01 0.  1.
         13    1    5    5    0    0 -0.70951457698E+02 -0.49115157783E+02 -0.14681549419E+03  0.17029737933E+03  0.00000000000E+00 0.  1.
        -13    1    5    5    0    0 -0.10245105320E+03 -0.47403694741E+02 -0.50441936377E+02  0.12364350983E+03  0.00000000000E+00 0. -1.
          4    1    6    6  503    0 -0.81551972298E+03 -0.50601744595E+03  0.11803422534E+03  0.96698404978E+03  0.00000000000E+00 0. -1.
         -4    1    6    6    0  503 -0.34035803934E+03 -0.28214829955E+03  0.51233989266E+02  0.44505750138E+03  0.00000000000E+00 0.  1.
<mgrwt>
<rscale>  0 0.15997952E+04</rscale>
<asrwt>0</asrwt>
<pdfrwt beam="1">  1        1 0.25956882E+00 0.15997952E+04</pdfrwt>
<pdfrwt beam="2">  1       -1 0.24902006E+00 0.15997952E+04</pdfrwt>
<totfact> 0.32150374E-01</totfact>
</mgrwt>
</event>
<event>
12    1  0.3203156E-008  0.1345170E+04  0.7818608E-02  0.8994492E-01
         -2   -1    0    0    0  501 -0.00000000000E+00  0.00000000000E+00  0.88301506569E+03  0.88301506569E+03  0.00000000000E+00 0.  1.
          2   -1    0    0  501    0  0.00000000000E+00 -0.00000000000E+00 -0.21325415821E+04  0.21325415821E+04  0.00000000000E+00 0. -1.
         23    2    1    2    0    0  0.12934236292E+04  0.10417414912E+03 -0.74851836229E+03  0.15007300794E+04  0.90078269976E+02 0.  0.
    5000000    2    1    2    0    0 -0.12934236292E+04 -0.10417414912E+03 -0.50100815408E+03  0.15148265683E+04  0.59991117977E+03 0.  0.
         23    2    4    4    0    0 -0.11797638913E+02  0.68109824686E+02  0.20794124972E+02  0.11743791342E+03  0.92634417867E+02 0.  0.
         23    2    4    4    0    0 -0.12816259903E+04 -0.17228397381E+03 -0.52180227905E+03  0.13973886549E+04  0.90390750063E+02 0.  0.
          5    1    3    3  502    0  0.31851939359E+03  0.19400383603E+02 -0.22882760051E+03  0.39270235514E+03  0.47000000000E+01 0. -1.
         -5    1    3    3    0  502  0.97490423562E+03  0.84773765521E+02 -0.51969076178E+03  0.11080277243E+04  0.47000000000E+01 0.  1.
         13    1    5    5    0    0 -0.29592855342E+02  0.72840969454E+02 -0.12287348988E+02  0.79577150385E+02  0.00000000000E+00 0. -1.
        -13    1    5    5    0    0  0.17795216429E+02 -0.47311447682E+01  0.33081473960E+02  0.37860763039E+02  0.00000000000E+00 0.  1.
          2    1    6    6  503    0 -0.24426250178E+03 -0.16908759611E+01 -0.11709024362E+03  0.27088217732E+03  0.00000000000E+00 0. -1.
         -2    1    6    6    0  503 -0.10373634885E+04 -0.17059309785E+03 -0.40471203543E+03  0.11265064776E+04  0.00000000000E+00 0.  1.
<mgrwt>
<rscale>  0 0.13451700E+04</rscale>
<asrwt>0</asrwt>
<pdfrwt beam="1">  1        2 0.32808332E+00 0.13451700E+04</pdfrwt>
<pdfrwt beam="2">  1       -2 0.13584847E+00 0.13451700E+04</pdfrwt>
<totfact> 0.21011662E+00</totfact>
</mgrwt>
</event>
<event>
12    1  0.3203156E-008  0.4811244E+03  0.7818608E-02  0.1018827E+00
         -2   -1    0    0    0  501 -0.00000000000E+00  0.00000000000E+00  0.46473595922E+03  0.46473595922E+03  0.00000000000E+00 0.  1.
          2   -1    0    0  501    0  0.00000000000E+00 -0.00000000000E+00 -0.11263012761E+04  0.11263012761E+04  0.00000000000E+00 0. -1.
         23    2    1    2    0    0 -0.71129079423E+02 -0.30043759785E+03  0.28429966379E+03  0.42915015709E+03  0.89562616948E+02 0.  0.
    5000000    2    1    2    0    0  0.71129079423E+02  0.30043759785E+03 -0.94586498067E+03  0.11618870782E+04  0.59999910397E+03 0.  0.
         23    2    4    4    0    0  0.15286171079E+03 -0.12586711607E+03 -0.42792611590E+03  0.48044647176E+03  0.92189034185E+02 0.  0.
         23    2    4    4    0    0 -0.81732631367E+02  0.42630471392E+03 -0.51793886478E+03  0.68144060648E+03  0.87662422814E+02 0.  0.
          5    1    3    3  502    0 -0.79190435455E+01 -0.16856744657E+03  0.10960575618E+03  0.20127892856E+03  0.47000000000E+01 0. -1.
         -5    1    3    3    0  502 -0.63210035878E+02 -0.13187015128E+03  0.17469390761E+03  0.22787122853E+03  0.47000000000E+01 0.  1.
         11    1    5    5    0    0  0.13168509154E+03 -0.66829134517E+02 -0.35357165378E+03  0.38317099435E+03  0.00000000000E+00 0.  1.
        -11    1    5    5    0    0  0.21176619255E+02 -0.59037981548E+02 -0.74354462119E+02  0.97275477410E+02  0.00000000000E+00 0. -1.
          4    1    6    6  503    0 -0.40191603004E+02  0.99823743567E+02 -0.82387129054E+02  0.13552779702E+03  0.00000000000E+00 0. -1.
         -4    1    6    6    0  503 -0.41541028363E+02  0.32648097035E+03 -0.43555173572E+03  0.54591280946E+03  0.00000000000E+00 0.  1.
<mgrwt>
<rscale>  0 0.48112442E+03</rscale>
<asrwt>0</asrwt>
<pdfrwt beam="1">  1        2 0.17327712E+00 0.48112442E+03</pdfrwt>
<pdfrwt beam="2">  1       -2 0.71497840E-01 0.48112442E+03</pdfrwt>
<totfact> 0.39140419E+01</totfact>
</mgrwt>
</event>
<event>
12    1  0.3203156E-008  0.4060831E+03  0.7818608E-02  0.1041693E+00
         -2   -1    0    0    0  501 -0.00000000000E+00  0.00000000000E+00  0.13955977774E+03  0.13955977774E+03  0.00000000000E+00 0.  1.
          2   -1    0    0  501    0  0.00000000000E+00 -0.00000000000E+00 -0.14128233827E+04  0.14128233827E+04  0.00000000000E+00 0. -1.
         23    2    1    2    0    0  0.76347175900E+02 -0.19722838469E+03 -0.20134713609E+03  0.30582469079E+03  0.90885341462E+02 0.  0.
    5000000    2    1    2    0    0 -0.76347175900E+02  0.19722838469E+03 -0.10719164688E+04  0.12465584696E+04  0.60014596142E+03 0.  0.
         23    2    4    4    0    0  0.32564034521E+02  0.36905669291E+03 -0.83475867854E+03  0.91799008146E+03  0.92846536461E+02 0.  0.
         23    2    4    4    0    0 -0.10891121042E+03 -0.17182830822E+03 -0.23715779030E+03  0.32856838816E+03  0.10162061275E+03 0.  0.
          5    1    3    3  502    0  0.28487244407E+02 -0.12151457292E+03 -0.16970628175E+03  0.21071218899E+03  0.47000000000E+01 0. -1.
         -5    1    3    3    0  502  0.47859931493E+02 -0.75713811769E+02 -0.31640854339E+02  0.95112501799E+02  0.47000000000E+01 0.  1.
         13    1    5    5    0    0 -0.28083368496E+02  0.88958354096E+02 -0.16610687202E+03  0.19050920524E+03  0.00000000000E+00 0. -1.
        -13    1    5    5    0    0  0.60647403017E+02  0.28009833882E+03 -0.66865180653E+03  0.72748087622E+03  0.00000000000E+00 0.  1.
          3    1    6    6  503    0 -0.10016234965E+03 -0.87742069812E+02 -0.18923697667E+03  0.23139101202E+03  0.00000000000E+00 0. -1.
         -3    1    6    6    0  503 -0.87488607663E+01 -0.84086238409E+02 -0.47920813630E+02  0.97177376140E+02  0.00000000000E+00 0.  1.
<mgrwt>
<rscale>  0 0.40608313E+03</rscale>
<asrwt>0</asrwt>
<pdfrwt beam="1">  1        2 0.21735744E+00 0.40608313E+03</pdfrwt>
<pdfrwt beam="2">  1       -2 0.21470735E-01 0.40608313E+03</pdfrwt>
<totfact> 0.27940491E+02</totfact>
</mgrwt>
</event>
<event>
12    1  0.3203156E-008  0.8082561E+03  0.7818608E-02  0.9548143E-01
          1   -1    0    0  501    0  0.00000000000E+00  0.00000000000E+00  0.13084339633E+04  0.13084339633E+04  0.00000000000E+00 0. -1.
         -1   -1    0    0    0  501 -0.00000000000E+00 -0.00000000000E+00 -0.10017954446E+04  0.10017954446E+04  0.00000000000E+00 0.  1.
         23    2    1    2    0    0 -0.66449424641E+03  0.43245846487E+03 -0.57317142725E+03  0.98244215277E+03  0.89967611744E+02 0.  0.
    5000000    2    1    2    0    0  0.66449424641E+03 -0.43245846487E+03  0.87980994599E+03  0.13277872551E+04  0.60031702167E+03 0.  0.
         23    2    4    4    0    0  0.49432624477E+03 -0.24942185956E+03  0.89611059239E+03  0.10572831675E+04  0.90905456896E+02 0.  0.
         23    2    4    4    0    0  0.17016800165E+03 -0.18303660532E+03 -0.16300646399E+02  0.27050408769E+03  0.10221155862E+03 0.  0.
          5    1    3    3  502    0 -0.33832187310E+03  0.21686182379E+03 -0.23549420370E+03  0.46580076257E+03  0.47000000000E+01 0. -1.
         -5    1    3    3    0  502 -0.32617237331E+03  0.21559664108E+03 -0.33767722356E+03  0.51664139020E+03  0.47000000000E+01 0.  1.
         11    1    5    5    0    0  0.44606685968E+03 -0.24752886936E+03  0.78590538004E+03  0.93695968475E+03  0.00000000000E+00 0.  1.
        -11    1    5    5    0    0  0.48259385089E+02 -0.18929902033E+01  0.11020521235E+03  0.12032348270E+03  0.00000000000E+00 0. -1.
          3    1    6    6  503    0  0.67806116309E+02 -0.16652291863E+02  0.18145188796E+02  0.72140253047E+02  0.00000000000E+00 0. -1.
         -3    1    6    6    0  503  0.10236188534E+03 -0.16638431345E+03 -0.34445835195E+02  0.19836383464E+03  0.00000000000E+00 0.  1.
<mgrwt>
<rscale>  0 0.80825607E+03</rscale>
<asrwt>0</asrwt>
<pdfrwt beam="1">  1        1 0.20129753E+00 0.80825607E+03</pdfrwt>
<pdfrwt beam="2">  1       -1 0.15412238E+00 0.80825607E+03</pdfrwt>
<totfact> 0.29849131E+00</totfact>
</mgrwt>
</event>
<event>
12    1  0.3203156E-008  0.5298504E+03  0.7818608E-02  0.1006268E+00
         -2   -1    0    0    0  501 -0.00000000000E+00  0.00000000000E+00  0.22105274590E+04  0.22105274590E+04  0.00000000000E+00 0.  1.
          2   -1    0    0  501    0  0.00000000000E+00 -0.00000000000E+00 -0.23652501935E+04  0.23652501935E+04  0.00000000000E+00 0. -1.
         23    2    1    2    0    0  0.16064711933E+03  0.43758677137E+03 -0.22747282627E+04  0.23237478070E+04  0.90141676231E+02 0.  0.
    5000000    2    1    2    0    0 -0.16064711933E+03 -0.43758677137E+03  0.21200055282E+04  0.22520298455E+04  0.59993775188E+03 0.  0.
         23    2    4    4    0    0  0.62541159986E+02 -0.29002732332E+02  0.45096243791E+02  0.12359358409E+03  0.92136570643E+02 0.  0.
         23    2    4    4    0    0 -0.22318827932E+03 -0.40858403903E+03  0.20749092844E+04  0.21284362614E+04  0.90765937966E+02 0.  0.
          5    1    3    3  502    0  0.75439457515E+02  0.93316354149E+02 -0.57269065657E+03  0.58514590645E+03  0.47000000000E+01 0.  1.
         -5    1    3    3    0  502  0.85207661819E+02  0.34427041722E+03 -0.17020376061E+04  0.17386019005E+04  0.47000000000E+01 0. -1.
         13    1    5    5    0    0  0.70724382060E+01  0.31892023546E+02  0.11437657850E+02  0.34611278005E+02  0.00000000000E+00 0. -1.
        -13    1    5    5    0    0  0.55468721780E+02 -0.60894755878E+02  0.33658585941E+02  0.88982306089E+02  0.00000000000E+00 0.  1.
          2    1    6    6  503    0 -0.96410222329E+02 -0.11479327827E+03  0.80470122750E+03  0.81854535198E+03  0.00000000000E+00 0.  1.
         -2    1    6    6    0  503 -0.12677805699E+03 -0.29379076077E+03  0.12702080569E+04  0.13098909094E+04  0.00000000000E+00 0. -1.
<mgrwt>
<rscale>  0 0.52985038E+03</rscale>
<asrwt>0</asrwt>
<pdfrwt beam="1">  1        2 0.36388465E+00 0.52985038E+03</pdfrwt>
<pdfrwt beam="2">  1       -2 0.34008115E+00 0.52985038E+03</pdfrwt>
<totfact> 0.87774637E-02</totfact>
</mgrwt>
</event>
<event>
12    1  0.3203156E-008  0.4184698E+03  0.7818608E-02  0.1037565E+00
         -2   -1    0    0    0  501 -0.00000000000E+00  0.00000000000E+00  0.32988497303E+03  0.32988497303E+03  0.00000000000E+00 0.  1.
          2   -1    0    0  501    0  0.00000000000E+00 -0.00000000000E+00 -0.13330016112E+04  0.13330016112E+04  0.00000000000E+00 0. -1.
         23    2    1    2    0    0  0.13772885515E+03  0.21337778721E+03 -0.97380800495E+03  0.10106856457E+04  0.93188660179E+02 0.  0.
    5000000    2    1    2    0    0 -0.13772885515E+03 -0.21337778721E+03 -0.29308633265E+02  0.65220093853E+03  0.60000645882E+03 0.  0.
         23    2    4    4    0    0  0.15084441427E+03 -0.22448635020E+03  0.12698956288E+03  0.31298843759E+03  0.93205441042E+02 0.  0.
         23    2    4    4    0    0 -0.28857326941E+03  0.11108562995E+02 -0.15629819614E+03  0.33921250094E+03  0.85076804632E+02 0.  0.
          5    1    3    3  502    0  0.52279042988E+02  0.12951956988E+03 -0.66330489398E+03  0.67786716228E+03  0.47000000000E+01 0. -1.
         -5    1    3    3    0  502  0.85449812158E+02  0.83858217332E+02 -0.31050311097E+03  0.33281848346E+03  0.47000000000E+01 0.  1.
         13    1    5    5    0    0  0.36598040364E+02 -0.13408808668E+03  0.77426995940E+02  0.15910364938E+03  0.00000000000E+00 0. -1.
        -13    1    5    5    0    0  0.11424637390E+03 -0.90398263528E+02  0.49562566940E+02  0.15388478820E+03  0.00000000000E+00 0.  1.
          3    1    6    6  503    0 -0.20343757531E+03 -0.14040044157E+02 -0.70526443918E+02  0.21577291113E+03  0.00000000000E+00 0. -1.
         -3    1    6    6    0  503 -0.85135694106E+02  0.25148607152E+02 -0.85771752227E+02  0.12343958981E+03  0.00000000000E+00 0.  1.
<mgrwt>
<rscale>  0 0.41846981E+03</rscale>
<asrwt>0</asrwt>
<pdfrwt beam="1">  1        2 0.20507717E+00 0.41846981E+03</pdfrwt>
<pdfrwt beam="2">  1       -2 0.50751534E-01 0.41846981E+03</pdfrwt>
<totfact> 0.61676989E+01</totfact>
</mgrwt>
</event>
<event>
12    1  0.3203156E-008  0.5550191E+03  0.7818608E-02  0.1000339E+00
         -1   -1    0    0    0  501 -0.00000000000E+00  0.00000000000E+00  0.27564138651E+03  0.27564138651E+03  0.00000000000E+00 0.  1.
          1   -1    0    0  501    0  0.00000000000E+00 -0.00000000000E+00 -0.18896168404E+04  0.18896168404E+04  0.00000000000E+00 0. -1.
         23    2    1    2    0    0 -0.49694234340E+03  0.22931478811E+03 -0.10127575888E+04  0.11547637625E+04  0.90909013108E+02 0.  0.
    5000000    2    1    2    0    0  0.49694234340E+03 -0.22931478811E+03 -0.60121786502E+03  0.10104944644E+04  0.60008264150E+03 0.  0.
         23    2    4    4    0    0  0.37429407733E+03 -0.14576822627E+03 -0.29845229102E+02  0.41310409952E+03  0.91759616508E+02 0.  0.
         23    2    4    4    0    0  0.12264826607E+03 -0.83546561837E+02 -0.57137263591E+03  0.59739036487E+03  0.91574744375E+02 0.  0.
          5    1    3    3  502    0 -0.19261638354E+03  0.77389597376E+02 -0.47565461074E+03  0.51899867023E+03  0.47000000000E+01 0. -1.
         -5    1    3    3    0  502 -0.30432595987E+03  0.15192519073E+03 -0.53710297810E+03  0.63576509224E+03  0.47000000000E+01 0.  1.
         13    1    5    5    0    0  0.22239007591E+03 -0.38703171996E+02 -0.67764729312E+01  0.22583445701E+03  0.00000000000E+00 0. -1.
        -13    1    5    5    0    0  0.15190400142E+03 -0.10706505427E+03 -0.23068756171E+02  0.18726964251E+03  0.00000000000E+00 0.  1.
          3    1    6    6  503    0  0.68378852217E+02 -0.30872573377E+02 -0.43525315780E+03  0.44167193095E+03  0.00000000000E+00 0. -1.
         -3    1    6    6    0  503  0.54269413857E+02 -0.52673988460E+02 -0.13611947812E+03  0.15571843392E+03  0.00000000000E+00 0.  1.
<mgrwt>
<rscale>  0 0.55501908E+03</rscale>
<asrwt>0</asrwt>
<pdfrwt beam="1">  1        1 0.29071029E+00 0.55501908E+03</pdfrwt>
<pdfrwt beam="2">  1       -1 0.42406367E-01 0.55501908E+03</pdfrwt>
<totfact> 0.20774829E+01</totfact>
</mgrwt>
</event>
<event>
12    1  0.3203156E-008  0.1194684E+04  0.7818608E-02  0.9117522E-01
          2   -1    0    0  501    0  0.00000000000E+00  0.00000000000E+00  0.24110585887E+04  0.24110585887E+04  0.00000000000E+00 0. -1.
         -2   -1    0    0    0  501 -0.00000000000E+00 -0.00000000000E+00 -0.70662766800E+03  0.70662766800E+03  0.00000000000E+00 0.  1.
         23    2    1    2    0    0  0.11205736194E+04 -0.34677652312E+03  0.34867201552E+03  0.12271257386E+04  0.91248071142E+02 0.  0.
    5000000    2    1    2    0    0 -0.11205736194E+04  0.34677652312E+03  0.13557589052E+04  0.18905605181E+04  0.60016470252E+03 0.  0.
         23    2    4    4    0    0 -0.34936383895E+03  0.24532750920E+03  0.16766953435E+03  0.46782299575E+03  0.92220409177E+02 0.  0.
         23    2    4    4    0    0 -0.77120978045E+03  0.10144901393E+03  0.11880893709E+04  0.14227375224E+04  0.87001589267E+02 0.  0.
          5    1    3    3  502    0  0.78411914077E+03 -0.20632616666E+03  0.21583432278E+03  0.83905891263E+03  0.47000000000E+01 0. -1.
         -5    1    3    3    0  502  0.33645447863E+03 -0.14045035647E+03  0.13283769274E+03  0.38806682599E+03  0.47000000000E+01 0.  1.
         11    1    5    5    0    0 -0.17611420835E+03  0.17428109240E+03  0.11595929525E+03  0.27356292092E+03  0.00000000000E+00 0. -1.
        -11    1    5    5    0    0 -0.17324963060E+03  0.71046416799E+02  0.51710239101E+02  0.19426007483E+03  0.00000000000E+00 0.  1.
          1    1    6    6  503    0 -0.28171531483E+03  0.56690577318E+02  0.37220592271E+03  0.47022823082E+03  0.00000000000E+00 0. -1.
         -1    1    6    6    0  503 -0.48949446562E+03  0.44758436609E+02  0.81588344815E+03  0.95250929155E+03  0.00000000000E+00 0.  1.
<mgrwt>
<rscale>  0 0.11946839E+04</rscale>
<asrwt>0</asrwt>
<pdfrwt beam="1">  1        2 0.37093208E+00 0.11946839E+04</pdfrwt>
<pdfrwt beam="2">  1       -2 0.10871195E+00 0.11946839E+04</pdfrwt>
<totfact> 0.26003494E+00</totfact>
</mgrwt>
</event>
<event>
12    1  0.3203156E-008  0.1328166E+04  0.7818608E-02  0.9007522E-01
         -2   -1    0    0    0  501 -0.00000000000E+00  0.00000000000E+00  0.12979023282E+04  0.12979023282E+04  0.00000000000E+00 0.  1.
          2   -1    0    0  501    0  0.00000000000E+00 -0.00000000000E+00 -0.32154215212E+04  0.32154215212E+04  0.00000000000E+00 0. -1.
         23    2    1    2    0    0 -0.10759951500E+04  0.72511205044E+03 -0.26166055219E+04  0.29220750926E+04  0.91352838799E+02 0.  0.
    5000000    2    1    2    0    0  0.10759951500E+04 -0.72511205044E+03  0.69908632892E+03  0.15912487569E+04  0.59983152842E+03 0.  0.
         23    2    4    4    0    0  0.70452059914E+03 -0.66869871598E+03  0.70689382352E+03  0.12047495257E+04  0.90638262753E+02 0.  0.
         23    2    4    4    0    0  0.37147455084E+03 -0.56413334456E+02 -0.78074946064E+01  0.38649923112E+03  0.90249057955E+02 0.  0.
          5    1    3    3  502    0 -0.10680529085E+04  0.72485811430E+03 -0.26048014891E+04  0.29070894704E+04  0.47000000000E+01 0. -1.
         -5    1    3    3    0  502 -0.79422414411E+01  0.25393613315E+00 -0.11804032806E+02  0.14985622215E+02  0.47000000000E+01 0.  1.
         13    1    5    5    0    0  0.34050619555E+03 -0.26806979555E+03  0.28876800095E+03  0.52076179090E+03  0.00000000000E+00 0. -1.
        -13    1    5    5    0    0  0.36401440360E+03 -0.40062892043E+03  0.41812582257E+03  0.68398773484E+03  0.00000000000E+00 0.  1.
          4    1    6    6  503    0  0.37304226093E+02  0.14483631544E+02  0.18078907787E+02  0.43911590427E+02  0.00000000000E+00 0. -1.
         -4    1    6    6    0  503  0.33417032474E+03 -0.70896966000E+02 -0.25886402393E+02  0.34258764070E+03  0.00000000000E+00 0.  1.
<mgrwt>
<rscale>  0 0.13281664E+04</rscale>
<asrwt>0</asrwt>
<pdfrwt beam="1">  1        2 0.49468024E+00 0.13281664E+04</pdfrwt>
<pdfrwt beam="2">  1       -2 0.19967728E+00 0.13281664E+04</pdfrwt>
<totfact> 0.16379956E-01</totfact>
</mgrwt>
</event>
<event>
12    1  0.3203156E-008  0.6019262E+03  0.7818608E-02  0.9901418E-01
          2   -1    0    0  501    0  0.00000000000E+00  0.00000000000E+00  0.37174405924E+04  0.37174405924E+04  0.00000000000E+00 0. -1.
         -2   -1    0    0    0  501 -0.00000000000E+00 -0.00000000000E+00 -0.15574384069E+03  0.15574384069E+03  0.00000000000E+00 0.  1.
         23    2    1    2    0    0 -0.57625633883E+03  0.22379539366E+02  0.80447073975E+03  0.99310469953E+03  0.80694245680E+02 0.  0.
    5000000    2    1    2    0    0  0.57625633883E+03 -0.22379539366E+02  0.27572260120E+04  0.28800797336E+04  0.59999314898E+03 0.  0.
         23    2    4    4    0    0  0.25516390587E+03  0.81334326882E+02  0.36006634226E+03  0.45791369544E+03  0.91177245232E+02 0.  0.
         23    2    4    4    0    0  0.32109243296E+03 -0.10371386625E+03  0.23971596697E+04  0.24221660381E+04  0.81589936064E+02 0.  0.
          5    1    3    3  502    0 -0.38801004874E+03  0.36302419893E+02  0.59298044676E+03  0.70958971516E+03  0.47000000000E+01 0. -1.
         -5    1    3    3    0  502 -0.18824629009E+03 -0.13922880527E+02  0.21149029299E+03  0.28351498437E+03  0.47000000000E+01 0.  1.
         11    1    5    5    0    0  0.68576271614E+02 -0.13130504064E+02  0.59437119696E+02  0.91694527444E+02  0.00000000000E+00 0.  1.
        -11    1    5    5    0    0  0.18658763426E+03  0.94464830945E+02  0.30062922257E+03  0.36621916799E+03  0.00000000000E+00 0. -1.
          3    1    6    6  503    0  0.11810839713E+03 -0.78454885991E+02  0.10637346805E+04  0.10731431559E+04  0.00000000000E+00 0. -1.
         -3    1    6    6    0  503  0.20298403583E+03 -0.25258980257E+02  0.13334249892E+04  0.13490228822E+04  0.00000000000E+00 0.  1.
<mgrwt>
<rscale>  0 0.60192620E+03</rscale>
<asrwt>0</asrwt>
<pdfrwt beam="1">  1        2 0.57191387E+00 0.60192620E+03</pdfrwt>
<pdfrwt beam="2">  1       -2 0.23960594E-01 0.60192620E+03</pdfrwt>
<totfact> 0.98639767E+00</totfact>
</mgrwt>
</event>
<event>
12    1  0.3203156E-008  0.1162958E+04  0.7818608E-02  0.9145912E-01
         -1   -1    0    0    0  501 -0.00000000000E+00  0.00000000000E+00  0.14840571300E+04  0.14840571300E+04  0.00000000000E+00 0.  1.
          1   -1    0    0  501    0  0.00000000000E+00 -0.00000000000E+00 -0.93218674000E+03  0.93218674000E+03  0.00000000000E+00 0. -1.
         23    2    1    2    0    0 -0.75036854025E+03  0.78805366668E+03  0.40699241221E+03  0.11652411674E+04  0.89792130868E+02 0.  0.
    5000000    2    1    2    0    0  0.75036854025E+03 -0.78805366668E+03  0.14487797776E+03  0.12510027026E+04  0.59994716913E+03 0.  0.
         23    2    4    4    0    0  0.33949513241E+03 -0.34241205724E+01  0.57633972000E+02  0.35611599003E+03  0.90709724361E+02 0.  0.
         23    2    4    4    0    0  0.41087340784E+03 -0.78462954611E+03  0.87244005761E+02  0.89488671258E+03  0.93542663665E+02 0.  0.
          5    1    3    3  502    0 -0.55759640919E+03  0.53728742139E+03  0.26426083607E+03  0.81819765840E+03  0.47000000000E+01 0. -1.
         -5    1    3    3    0  502 -0.19277213105E+03  0.25076624529E+03  0.14273157615E+03  0.34704350897E+03  0.47000000000E+01 0.  1.
         11    1    5    5    0    0  0.78141882336E+02  0.28538744962E+02  0.39776766397E+02  0.92210654937E+02  0.00000000000E+00 0.  1.
        -11    1    5    5    0    0  0.26135325007E+03 -0.31962865534E+02  0.17857205603E+02  0.26390533509E+03  0.00000000000E+00 0. -1.
          2    1    6    6  503    0  0.33195253587E+03 -0.56416694242E+03  0.89782771496E+02  0.66071005067E+03  0.00000000000E+00 0. -1.
         -2    1    6    6    0  503  0.78920871965E+02 -0.22046260369E+03 -0.25387657348E+01  0.23417666192E+03  0.00000000000E+00 0.  1.
<mgrwt>
<rscale>  0 0.11629579E+04</rscale>
<asrwt>0</asrwt>
<pdfrwt beam="1">  1        1 0.14341334E+00 0.11629579E+04</pdfrwt>
<pdfrwt beam="2">  1       -1 0.22831648E+00 0.11629579E+04</pdfrwt>
<totfact> 0.16360176E+00</totfact>
</mgrwt>
</event>
<event>
12    1  0.3203156E-008  0.1338975E+04  0.7818608E-02  0.8999216E-01
          2   -1    0    0  501    0  0.00000000000E+00  0.00000000000E+00  0.23168156981E+04  0.23168156981E+04  0.00000000000E+00 0. -1.
         -2   -1    0    0    0  501 -0.00000000000E+00 -0.00000000000E+00 -0.83370762165E+03  0.83370762165E+03  0.00000000000E+00 0.  1.
         23    2    1    2    0    0 -0.11967633556E+04  0.50278865988E+03  0.10005037304E+04  0.16412516651E+04  0.87523414853E+02 0.  0.
    5000000    2    1    2    0    0  0.11967633556E+04 -0.50278865988E+03  0.48260434614E+03  0.15092716547E+04  0.59996250455E+03 0.  0.
         23    2    4    4    0    0  0.26517641607E+03 -0.32647050402E+03 -0.22986489403E+02  0.43074629045E+03  0.90069231148E+02 0.  0.
         23    2    4    4    0    0  0.93158693950E+03 -0.17631815586E+03  0.50559083555E+03  0.10785253642E+04  0.93019085698E+02 0.  0.
          5    1    3    3  502    0 -0.69026667388E+03  0.25702063692E+03  0.60548421191E+03  0.95349929719E+03  0.47000000000E+01 0. -1.
         -5    1    3    3    0  502 -0.50649668169E+03  0.24576802296E+03  0.39501951844E+03  0.68775236796E+03  0.47000000000E+01 0.  1.
         11    1    5    5    0    0  0.23599832276E+03 -0.24219549877E+03  0.18566027283E+01  0.33816758411E+03  0.00000000000E+00 0. -1.
        -11    1    5    5    0    0  0.29178093314E+02 -0.84275005260E+02 -0.24843092132E+02  0.92578706340E+02  0.00000000000E+00 0.  1.
          1    1    6    6  503    0  0.79079385079E+03 -0.17643069876E+03  0.45268723394E+03  0.92812091760E+03  0.00000000000E+00 0. -1.
         -1    1    6    6    0  503  0.14079308871E+03  0.11254290754E+00  0.52903601605E+02  0.15040444660E+03  0.00000000000E+00 0.  1.
<mgrwt>
<rscale>  0 0.13389747E+04</rscale>
<asrwt>0</asrwt>
<pdfrwt beam="1">  1        2 0.35643318E+00 0.13389747E+04</pdfrwt>
<pdfrwt beam="2">  1       -2 0.12826271E+00 0.13389747E+04</pdfrwt>
<totfact> 0.19190128E+00</totfact>
</mgrwt>
</event>
<event>
12    1  0.3203156E-008  0.6513426E+03  0.7818608E-02  0.9804263E-01
         -2   -1    0    0    0  501 -0.00000000000E+00  0.00000000000E+00  0.12222865786E+04  0.12222865786E+04  0.00000000000E+00 0.  1.
          2   -1    0    0  501    0  0.00000000000E+00 -0.00000000000E+00 -0.44430142198E+03  0.44430142198E+03  0.00000000000E+00 0. -1.
         23    2    1    2    0    0  0.17359462485E+03 -0.58573877148E+03  0.33650119309E+03  0.70314356485E+03  0.89178571740E+02 0.  0.
    5000000    2    1    2    0    0 -0.17359462485E+03  0.58573877148E+03  0.44148396356E+03  0.96344443575E+03  0.60007673552E+03 0.  0.
         23    2    4    4    0    0 -0.44976084432E+02  0.54474676384E+03  0.53943796287E+03  0.77328298641E+03  0.90561450974E+02 0.  0.
         23    2    4    4    0    0 -0.12861854042E+03  0.40992007638E+02 -0.97953999308E+02  0.19016144934E+03  0.91341760474E+02 0.  0.
          5    1    3    3  502    0  0.85785746627E+02 -0.31145911562E+03  0.22761945767E+03  0.39521979017E+03  0.47000000000E+01 0. -1.
         -5    1    3    3    0  502  0.87808878223E+02 -0.27427965586E+03  0.10888173542E+03  0.30792377469E+03  0.47000000000E+01 0.  1.
         11    1    5    5    0    0 -0.47903597167E+02  0.53046811295E+03  0.54028535973E+03  0.75868270273E+03  0.00000000000E+00 0. -1.
        -11    1    5    5    0    0  0.29275127344E+01  0.14278650892E+02 -0.84739686693E+00  0.14600283681E+02  0.00000000000E+00 0.  1.
          3    1    6    6  503    0 -0.95084820542E+02  0.52857978098E+02 -0.10790227441E+03  0.15322529089E+03  0.00000000000E+00 0. -1.
         -3    1    6    6    0  503 -0.33533719876E+02 -0.11865970460E+02  0.99482751015E+01  0.36936158452E+02  0.00000000000E+00 0.  1.
<mgrwt>
<rscale>  0 0.65134256E+03</rscale>
<asrwt>0</asrwt>
<pdfrwt beam="1">  1        2 0.68354065E-01 0.65134256E+03</pdfrwt>
<pdfrwt beam="2">  1       -2 0.18804409E+00 0.65134256E+03</pdfrwt>
<totfact> 0.11591400E+01</totfact>
</mgrwt>
</event>
<event>
12    1  0.3203156E-008  0.4010912E+03  0.7818608E-02  0.1043402E+00
         -1   -1    0    0    0  501 -0.00000000000E+00  0.00000000000E+00  0.23981079530E+03  0.23981079530E+03  0.00000000000E+00 0.  1.
          1   -1    0    0  501    0  0.00000000000E+00 -0.00000000000E+00 -0.97120079071E+03  0.97120079071E+03  0.00000000000E+00 0. -1.
         23    2    1    2    0    0 -0.24812186608E+03  0.63238114164E+02 -0.38824624085E+03  0.47390034493E+03  0.91010295485E+02 0.  0.
    5000000    2    1    2    0    0  0.24812186608E+03 -0.63238114164E+02 -0.34314375456E+03  0.73711124108E+03  0.60001818800E+03 0.  0.
         23    2    4    4    0    0  0.23992859844E+03  0.16919657515E+03 -0.37590003956E+03  0.48521295531E+03  0.89092978794E+02 0.  0.
         23    2    4    4    0    0  0.81932676412E+01 -0.23243468931E+03  0.32756285000E+02  0.25189828577E+03  0.91031630431E+02 0.  0.
          5    1    3    3  502    0 -0.22544899049E+02  0.89078364956E+01 -0.10428137227E+03  0.10716490390E+03  0.47000000000E+01 0. -1.
         -5    1    3    3    0  502 -0.22557696703E+03  0.54330277668E+02 -0.28396486857E+03  0.36673544103E+03  0.47000000000E+01 0.  1.
         11    1    5    5    0    0  0.14356319989E+03  0.12223954067E+03 -0.29822232271E+03  0.35283062711E+03  0.00000000000E+00 0. -1.
        -11    1    5    5    0    0  0.96365398550E+02  0.46957034477E+02 -0.77677716852E+02  0.13238232820E+03  0.00000000000E+00 0.  1.
          1    1    6    6  503    0 -0.39274490268E+02 -0.68135926737E+02  0.13573653593E+02  0.79807481917E+02  0.00000000000E+00 0. -1.
         -1    1    6    6    0  503  0.47467757909E+02 -0.16429876257E+03  0.19182631407E+02  0.17209080386E+03  0.00000000000E+00 0.  1.
<mgrwt>
<rscale>  0 0.40109124E+03</rscale>
<asrwt>0</asrwt>
<pdfrwt beam="1">  1        1 0.14941551E+00 0.40109124E+03</pdfrwt>
<pdfrwt beam="2">  1       -1 0.36893968E-01 0.40109124E+03</pdfrwt>
<totfact> 0.11868494E+02</totfact>
</mgrwt>
</event>
<event>
12    1  0.3203156E-008  0.6343332E+03  0.7818608E-02  0.9836629E-01
          1   -1    0    0  501    0  0.00000000000E+00  0.00000000000E+00  0.56860296492E+03  0.56860296492E+03  0.00000000000E+00 0. -1.
         -1   -1    0    0    0  501 -0.00000000000E+00 -0.00000000000E+00 -0.10704216298E+04  0.10704216298E+04  0.00000000000E+00 0.  1.
         23    2    1    2    0    0  0.16129216393E+03  0.55768731982E+03 -0.54707732847E+03  0.80291087174E+03  0.91334307867E+02 0.  0.
    5000000    2    1    2    0    0 -0.16129216393E+03 -0.55768731982E+03  0.45258663610E+02  0.83611372297E+03  0.60000625186E+03 0.  0.
         23    2    4    4    0    0 -0.21921090417E+03 -0.53825105573E+03 -0.15498030804E+03  0.60791818700E+03  0.88193008269E+02 0.  0.
         23    2    4    4    0    0  0.57918740246E+02 -0.19436264095E+02  0.20023897165E+03  0.22819553597E+03  0.90803127890E+02 0.  0.
          5    1    3    3  502    0  0.35299739827E+02  0.26058328671E+03 -0.21348696761E+03  0.33874547420E+03  0.47000000000E+01 0. -1.
         -5    1    3    3    0  502  0.12599242410E+03  0.29710403311E+03 -0.33359036085E+03  0.46416539754E+03  0.47000000000E+01 0.  1.
         11    1    5    5    0    0 -0.63236959955E+02 -0.15138800427E+03 -0.85641473918E+02  0.18507215619E+03  0.00000000000E+00 0.  1.
        -11    1    5    5    0    0 -0.15597394422E+03 -0.38686305146E+03 -0.69338834124E+02  0.42284603082E+03  0.00000000000E+00 0. -1.
          2    1    6    6  503    0 -0.10005414624E+02 -0.31221933273E+02  0.10910088070E+03  0.11392067244E+03  0.00000000000E+00 0. -1.
         -2    1    6    6    0  503  0.67924154870E+02  0.11785669178E+02  0.91138090948E+02  0.11427486353E+03  0.00000000000E+00 0.  1.
<mgrwt>
<rscale>  0 0.63433317E+03</rscale>
<asrwt>0</asrwt>
<pdfrwt beam="1">  1        1 0.87477380E-01 0.63433317E+03</pdfrwt>
<pdfrwt beam="2">  1       -1 0.16468025E+00 0.63433317E+03</pdfrwt>
<totfact> 0.10437355E+01</totfact>
</mgrwt>
</event>
<event>
12    1  0.3203156E-008  0.6634000E+03  0.7818608E-02  0.9781955E-01
          2   -1    0    0  501    0  0.00000000000E+00  0.00000000000E+00  0.56430230934E+03  0.56430230934E+03  0.00000000000E+00 0. -1.
         -2   -1    0    0    0  501 -0.00000000000E+00 -0.00000000000E+00 -0.94468277747E+03  0.94468277747E+03  0.00000000000E+00 0.  1.
         23    2    1    2    0    0  0.29362456155E+02  0.58140902179E+03 -0.32128250561E+03  0.67095516408E+03  0.89776273855E+02 0.  0.
    5000000    2    1    2    0    0 -0.29362456155E+02 -0.58140902179E+03 -0.59097962521E+02  0.83802992273E+03  0.59991914269E+03 0.  0.
         23    2    4    4    0    0  0.19198789028E+03 -0.13115104420E+03 -0.18396755847E+03  0.31333814456E+03  0.10137447339E+03 0.  0.
         23    2    4    4    0    0 -0.22135034644E+03 -0.45025797759E+03  0.12486959595E+03  0.52469177817E+03  0.89335456773E+02 0.  0.
          5    1    3    3  502    0  0.28761772121E+02  0.43572803272E+03 -0.28255506081E+03  0.52013999118E+03  0.47000000000E+01 0. -1.
         -5    1    3    3    0  502  0.60068403425E+00  0.14568098907E+03 -0.38727444804E+02  0.15081517290E+03  0.47000000000E+01 0.  1.
         11    1    5    5    0    0  0.79343930805E+01  0.39132044485E+01 -0.45460514534E+02  0.46313347367E+02  0.00000000000E+00 0. -1.
        -11    1    5    5    0    0  0.18405349720E+03 -0.13506424865E+03 -0.13850704394E+03  0.26702479719E+03  0.00000000000E+00 0.  1.
          2    1    6    6  503    0 -0.18374755416E+03 -0.29575663686E+03  0.61805731844E+02  0.35363130573E+03  0.00000000000E+00 0. -1.
         -2    1    6    6    0  503 -0.37602792276E+02 -0.15450134073E+03  0.63063864106E+02  0.17106047244E+03  0.00000000000E+00 0.  1.
<mgrwt>
<rscale>  0 0.66340003E+03</rscale>
<asrwt>0</asrwt>
<pdfrwt beam="1">  1        2 0.86815742E-01 0.66340003E+03</pdfrwt>
<pdfrwt beam="2">  1       -2 0.14533581E+00 0.66340003E+03</pdfrwt>
<totfact> 0.17780519E+01</totfact>
</mgrwt>
</event>
<event>
12    1  0.3203156E-008  0.1135515E+04  0.7818608E-02  0.9171252E-01
         -2   -1    0    0    0  501 -0.00000000000E+00  0.00000000000E+00  0.84753490450E+03  0.84753490450E+03  0.00000000000E+00 0.  1.
          2   -1    0    0  501    0  0.00000000000E+00 -0.00000000000E+00 -0.16443439939E+04  0.16443439939E+04  0.00000000000E+00 0. -1.
         23    2    1    2    0    0  0.70049547786E+03 -0.79611818601E+03 -0.69098572302E+03  0.12689598845E+04  0.91103449624E+02 0.  0.
    5000000    2    1    2    0    0 -0.70049547786E+03  0.79611818601E+03 -0.10582336637E+03  0.12229190139E+04  0.59986185829E+03 0.  0.
         23    2    4    4    0    0 -0.52590618730E+03  0.17412624634E+03 -0.10148453182E+03  0.57037219609E+03  0.90155778312E+02 0.  0.
         23    2    4    4    0    0 -0.17458929055E+03  0.62199193967E+03 -0.43388345557E+01  0.65254681779E+03  0.91886508929E+02 0.  0.
          5    1    3    3  502    0  0.37374723835E+03 -0.42682005144E+03 -0.31563828209E+03  0.64923953177E+03  0.47000000000E+01 0. -1.
         -5    1    3    3    0  502  0.32674823951E+03 -0.36929813457E+03 -0.37534744093E+03  0.61972035276E+03  0.47000000000E+01 0.  1.
         11    1    5    5    0    0 -0.28092644497E+03  0.13560068832E+03 -0.76073698592E+02  0.32108320070E+03  0.00000000000E+00 0.  1.
        -11    1    5    5    0    0 -0.24497974233E+03  0.38525558018E+02 -0.25410833224E+02  0.24928899538E+03  0.00000000000E+00 0. -1.
          3    1    6    6  503    0 -0.11135309713E+03  0.25534427550E+03 -0.26504670642E+02  0.27982621185E+03  0.00000000000E+00 0.  1.
         -3    1    6    6    0  503 -0.63236193424E+02  0.36664766417E+03  0.22165836086E+02  0.37272060594E+03  0.00000000000E+00 0. -1.
<mgrwt>
<rscale>  0 0.11355148E+04</rscale>
<asrwt>0</asrwt>
<pdfrwt beam="1">  1        2 0.25297600E+00 0.11355148E+04</pdfrwt>
<pdfrwt beam="2">  1       -2 0.13038999E+00 0.11355148E+04</pdfrwt>
<totfact> 0.44495021E+00</totfact>
</mgrwt>
</event>
<event>
12    1  0.3203156E-008  0.7726543E+03  0.7818608E-02  0.9600465E-01
         -2   -1    0    0    0  501 -0.00000000000E+00  0.00000000000E+00  0.63359264947E+03  0.63359264947E+03  0.00000000000E+00 0. -1.
          2   -1    0    0  501    0  0.00000000000E+00 -0.00000000000E+00 -0.13525052329E+04  0.13525052329E+04  0.00000000000E+00 0.  1.
         23    2    1    2    0    0 -0.49004666211E+03 -0.53849600732E+03 -0.73991721987E+03  0.10424377647E+04  0.95264474369E+02 0.  0.
    5000000    2    1    2    0    0  0.49004666211E+03  0.53849600732E+03  0.21004636488E+02  0.94366011762E+03  0.59994128203E+03 0.  0.
         23    2    4    4    0    0  0.70402779214E+02 -0.22798331661E+02 -0.17457586834E+03  0.21054583448E+03  0.91523217607E+02 0.  0.
         23    2    4    4    0    0  0.41964388290E+03  0.56129433898E+03  0.19558050483E+03  0.73311428314E+03  0.89735694410E+02 0.  0.
          5    1    3    3  502    0 -0.13485523522E+03 -0.17437086876E+03 -0.28229405048E+03  0.35819429822E+03  0.47000000000E+01 0.  1.
         -5    1    3    3    0  502 -0.35519142689E+03 -0.36412513856E+03 -0.45762316938E+03  0.68424346648E+03  0.47000000000E+01 0.  1.
         13    1    5    5    0    0  0.29664403647E+02  0.30565688513E+02 -0.10755556042E+03  0.11568248240E+03  0.00000000000E+00 0. -1.
        -13    1    5    5    0    0  0.40738375567E+02 -0.53364020173E+02 -0.67020307926E+02  0.94863352078E+02  0.00000000000E+00 0.  1.
          1    1    6    6  503    0  0.17934940775E+03  0.31384113093E+03  0.92660975762E+02  0.37316018270E+03  0.00000000000E+00 0. -1.
         -1    1    6    6    0  503  0.24029447515E+03  0.24745320805E+03  0.10291952907E+03  0.35995410044E+03  0.00000000000E+00 0.  1.
<mgrwt>
<rscale>  0 0.77265433E+03</rscale>
<asrwt>0</asrwt>
<pdfrwt beam="1">  1        2 0.20807773E+00 0.77265433E+03</pdfrwt>
<pdfrwt beam="2">  1       -2 0.97475793E-01 0.77265433E+03</pdfrwt>
<totfact> 0.13777856E+01</totfact>
</mgrwt>
</event>
<event>
12    1  0.3203156E-008  0.1816869E+04  0.7818608E-02  0.8697380E-01
          2   -1    0    0  501    0  0.00000000000E+00  0.00000000000E+00  0.19533083603E+04  0.19533083603E+04  0.00000000000E+00 0. -1.
         -2   -1    0    0    0  501 -0.00000000000E+00 -0.00000000000E+00 -0.17362792357E+04  0.17362792357E+04  0.00000000000E+00 0.  1.
         23    2    1    2    0    0 -0.17552935978E+04  0.29052951105E+03 -0.10449600770E+03  0.17846352930E+04  0.92415919819E+02 0.  0.
    5000000    2    1    2    0    0  0.17552935978E+04 -0.29052951105E+03  0.32152513234E+03  0.19049523031E+04  0.60000154591E+03 0.  0.
         23    2    4    4    0    0  0.95744013077E+03  0.96248316262E+02  0.26971263697E+02  0.96606066249E+03  0.81181353422E+02 0.  0.
         23    2    4    4    0    0  0.79785346698E+03 -0.38677782731E+03  0.29455386865E+03  0.93889164057E+03  0.92673020473E+02 0.  0.
          5    1    3    3  502    0 -0.15874399025E+04  0.25153346314E+03 -0.69643780657E+02  0.16087594206E+04  0.47000000000E+01 0. -1.
         -5    1    3    3    0  502 -0.16785369521E+03  0.38996047908E+02 -0.34852227044E+02  0.17587587236E+03  0.47000000000E+01 0.  1.
         11    1    5    5    0    0  0.14475666859E+03  0.42911950684E+02 -0.40616568204E+01  0.15103782860E+03  0.00000000000E+00 0.  1.
        -11    1    5    5    0    0  0.81268346219E+03  0.53336365578E+02  0.31032920517E+02  0.81502283389E+03  0.00000000000E+00 0. -1.
          1    1    6    6  503    0  0.40814135114E+03 -0.16455953137E+03  0.10864599673E+03  0.45328043690E+03  0.00000000000E+00 0. -1.
         -1    1    6    6    0  503  0.38971211584E+03 -0.22221829594E+03  0.18590787192E+03  0.48561120367E+03  0.00000000000E+00 0.  1.
<mgrwt>
<rscale>  0 0.18168689E+04</rscale>
<asrwt>0</asrwt>
<pdfrwt beam="1">  1        2 0.30050898E+00 0.18168689E+04</pdfrwt>
<pdfrwt beam="2">  1       -2 0.26711988E+00 0.18168689E+04</pdfrwt>
<totfact> 0.32506512E-01</totfact>
</mgrwt>
</event>
<event>
12    1  0.3203156E-008  0.7882023E+03  0.7818608E-02  0.9577253E-01
         -1   -1    0    0    0  501 -0.00000000000E+00  0.00000000000E+00  0.27212882671E+03  0.27212882671E+03  0.00000000000E+00 0.  1.
          1   -1    0    0  501    0  0.00000000000E+00 -0.00000000000E+00 -0.35176883123E+04  0.35176883123E+04  0.00000000000E+00 0. -1.
         23    2    1    2    0    0 -0.10255337795E+03 -0.71923657892E+03 -0.49913059269E+03  0.88622347465E+03  0.91881699381E+02 0.  0.
    5000000    2    1    2    0    0  0.10255337795E+03  0.71923657892E+03 -0.27464288929E+04  0.29035936644E+04  0.60013836087E+03 0.  0.
         23    2    4    4    0    0 -0.10816384335E+03  0.58106662465E+03 -0.23559022240E+04  0.24306906741E+04  0.92973247687E+02 0.  0.
         23    2    4    4    0    0  0.21071722130E+03  0.13816995427E+03 -0.39052666885E+03  0.47290299023E+03  0.87369762852E+02 0.  0.
          5    1    3    3  502    0 -0.61047504700E+02 -0.59374648440E+03 -0.43893285983E+03  0.74090878724E+03  0.47000000000E+01 0. -1.
         -5    1    3    3    0  502 -0.41505873249E+02 -0.12549009452E+03 -0.60197732855E+02  0.14531468741E+03  0.47000000000E+01 0.  1.
         13    1    5    5    0    0 -0.68743431580E+01  0.22311429478E+03 -0.10059859849E+04  0.10304538063E+04  0.00000000000E+00 0. -1.
        -13    1    5    5    0    0 -0.10128950020E+03  0.35795232987E+03 -0.13499162392E+04  0.14002368679E+04  0.00000000000E+00 0.  1.
          1    1    6    6  503    0  0.10290165528E+03  0.64632279224E+02 -0.26634589403E+03  0.29275624237E+03  0.00000000000E+00 0. -1.
         -1    1    6    6    0  503  0.10781556603E+03  0.73537675045E+02 -0.12418077482E+03  0.18014674786E+03  0.00000000000E+00 0.  1.
<mgrwt>
<rscale>  0 0.78820228E+03</rscale>
<asrwt>0</asrwt>
<pdfrwt beam="1">  1        1 0.54118279E+00 0.78820228E+03</pdfrwt>
<pdfrwt beam="2">  1       -1 0.41865976E-01 0.78820228E+03</pdfrwt>
<totfact> 0.14639004E+00</totfact>
</mgrwt>
</event>
<event>
12    1  0.3203156E-008  0.1002147E+04  0.7818608E-02  0.9306193E-01
          2   -1    0    0  501    0  0.00000000000E+00  0.00000000000E+00  0.11797956101E+04  0.11797956101E+04  0.00000000000E+00 0. -1.
         -2   -1    0    0    0  501 -0.00000000000E+00 -0.00000000000E+00 -0.97157897657E+03  0.97157897657E+03  0.00000000000E+00 0.  1.
         23    2    1    2    0    0 -0.97461236075E+03  0.12676566030E+03  0.32112002051E+02  0.98637781702E+03  0.77273739896E+02 0.  0.
    5000000    2    1    2    0    0  0.97461236075E+03 -0.12676566030E+03  0.17610463150E+03  0.11649967697E+04  0.60022149723E+03 0.  0.
         23    2    4    4    0    0  0.38654641817E+03 -0.15418929267E+03 -0.18906953286E+03  0.46635418822E+03  0.92447115956E+02 0.  0.
         23    2    4    4    0    0  0.58806594258E+03  0.27423632372E+02  0.36517416435E+03  0.69864258144E+03  0.90419455052E+02 0.  0.
          5    1    3    3  502    0 -0.67875039208E+03  0.81006563057E+02 -0.12247354809E+02  0.68369309321E+03  0.47000000000E+01 0. -1.
         -5    1    3    3    0  502 -0.29586196867E+03  0.45759097244E+02  0.44359356860E+02  0.30268472381E+03  0.47000000000E+01 0.  1.
         13    1    5    5    0    0  0.16032570507E+03 -0.17196689215E+02 -0.83637952799E+02  0.18164626331E+03  0.00000000000E+00 0.  1.
        -13    1    5    5    0    0  0.22622071310E+03 -0.13699260346E+03 -0.10543158006E+03  0.28470792491E+03  0.00000000000E+00 0. -1.
          4    1    6    6  503    0  0.22981070402E+03 -0.33317726408E+02  0.13914012207E+03  0.27070833778E+03  0.00000000000E+00 0.  1.
         -4    1    6    6    0  503  0.35825523857E+03  0.60741358781E+02  0.22603404228E+03  0.42793424366E+03  0.00000000000E+00 0. -1.
<mgrwt>
<rscale>  0 0.10021468E+04</rscale>
<asrwt>0</asrwt>
<pdfrwt beam="1">  1        2 0.18150702E+00 0.10021468E+04</pdfrwt>
<pdfrwt beam="2">  1       -2 0.14947369E+00 0.10021468E+04</pdfrwt>
<totfact> 0.58382033E+00</totfact>
</mgrwt>
</event>
<event>
12    1  0.3203156E-008  0.7386362E+03  0.7818608E-02  0.9653349E-01
          2   -1    0    0  501    0  0.00000000000E+00  0.00000000000E+00  0.28302941689E+04  0.28302941689E+04  0.00000000000E+00 0. -1.
         -2   -1    0    0    0  501 -0.00000000000E+00 -0.00000000000E+00 -0.23060031498E+03  0.23060031498E+03  0.00000000000E+00 0.  1.
         23    2    1    2    0    0  0.66302725374E+03  0.25459206117E+02  0.15028539384E+04  0.16454369845E+04  0.92949445323E+02 0.  0.
    5000000    2    1    2    0    0 -0.66302725374E+03 -0.25459206117E+02  0.10968399156E+04  0.14154574994E+04  0.60017399304E+03 0.  0.
         23    2    4    4    0    0  0.26847678586E+02 -0.71372933258E+02  0.59480242448E+01  0.12068372366E+03  0.93350354669E+02 0.  0.
         23    2    4    4    0    0 -0.68987493233E+03  0.45913727141E+02  0.10908918913E+04  0.12947737758E+04  0.91424937885E+02 0.  0.
          5    1    3    3  502    0  0.32136159065E+03 -0.60419506414E+01  0.83143310567E+03  0.89141061039E+03  0.47000000000E+01 0. -1.
         -5    1    3    3    0  502  0.34166566310E+03  0.31501156758E+02  0.67142083269E+03  0.75402637406E+03  0.47000000000E+01 0.  1.
         11    1    5    5    0    0  0.59953017786E+02 -0.54076636888E+02  0.15310103728E+02  0.82176920574E+02  0.00000000000E+00 0.  1.
        -11    1    5    5    0    0 -0.33105339201E+02 -0.17296296370E+02 -0.93620794833E+01  0.38506803087E+02  0.00000000000E+00 0. -1.
          3    1    6    6  503    0 -0.18325271191E+03 -0.17138446827E+02  0.23960659843E+03  0.30213673195E+03  0.00000000000E+00 0. -1.
         -3    1    6    6    0  503 -0.50662222042E+03  0.63052173968E+02  0.85128529291E+03  0.99263704384E+03  0.00000000000E+00 0.  1.
<mgrwt>
<rscale>  0 0.73863618E+03</rscale>
<asrwt>0</asrwt>
<pdfrwt beam="1">  1        2 0.43542985E+00 0.73863618E+03</pdfrwt>
<pdfrwt beam="2">  1       -2 0.35476974E-01 0.73863618E+03</pdfrwt>
<totfact> 0.17489498E+01</totfact>
</mgrwt>
</event>
<event>
12    1  0.3203156E-008  0.2263185E+04  0.7818608E-02  0.8492580E-01
         -2   -1    0    0    0  501 -0.00000000000E+00  0.00000000000E+00  0.47489219513E+04  0.47489219513E+04  0.00000000000E+00 0.  1.
          2   -1    0    0  501    0  0.00000000000E+00 -0.00000000000E+00 -0.11307584470E+04  0.11307584470E+04  0.00000000000E+00 0. -1.
         23    2    1    2    0    0 -0.18642144924E+04 -0.12168116790E+04  0.23896802735E+04  0.32672146279E+04  0.90516737126E+02 0.  0.
    5000000    2    1    2    0    0  0.18642144924E+04  0.12168116790E+04  0.12284832308E+04  0.26124657703E+04  0.59990000569E+03 0.  0.
         23    2    4    4    0    0  0.76161830354E+03  0.82188400513E+03  0.70178675485E+03  0.13252414197E+04  0.90578215554E+02 0.  0.
         23    2    4    4    0    0  0.11025961888E+04  0.39492767390E+03  0.52669647598E+03  0.12872243506E+04  0.88606589241E+02 0.  0.
          5    1    3    3  502    0 -0.97404590181E+03 -0.68818501497E+03  0.12931351508E+04  0.17591431556E+04  0.47000000000E+01 0. -1.
         -5    1    3    3    0  502 -0.89016859057E+03 -0.52862666407E+03  0.10965451227E+04  0.15080714723E+04  0.47000000000E+01 0.  1.
         13    1    5    5    0    0  0.14852840576E+03  0.21461727830E+03  0.17456669025E+03  0.31399807771E+03  0.00000000000E+00 0. -1.
        -13    1    5    5    0    0  0.61308989778E+03  0.60726672683E+03  0.52722006460E+03  0.10112433420E+04  0.00000000000E+00 0.  1.
          4    1    6    6  503    0  0.50393073286E+03  0.22713092421E+03  0.24202120619E+03  0.60341437213E+03  0.00000000000E+00 0.  1.
         -4    1    6    6    0  503  0.59866545598E+03  0.16779674970E+03  0.28467526979E+03  0.68380997845E+03  0.00000000000E+00 0. -1.
<mgrwt>
<rscale>  0 0.22631850E+04</rscale>
<asrwt>0</asrwt>
<pdfrwt beam="1">  1        2 0.17396284E+00 0.22631850E+04</pdfrwt>
<pdfrwt beam="2">  1       -2 0.73060337E+00 0.22631850E+04</pdfrwt>
<totfact> 0.31422030E-03</totfact>
</mgrwt>
</event>
<event>
12    1  0.3203156E-008  0.6181956E+03  0.7818608E-02  0.9868359E-01
         -1   -1    0    0    0  501 -0.00000000000E+00  0.00000000000E+00  0.57823704766E+03  0.57823704766E+03  0.00000000000E+00 0.  1.
          1   -1    0    0  501    0  0.00000000000E+00 -0.00000000000E+00 -0.12087748569E+04  0.12087748569E+04  0.00000000000E+00 0. -1.
         23    2    1    2    0    0 -0.42726709362E+03 -0.26883751773E+03  0.28086934256E+03  0.58466554711E+03  0.90085704549E+02 0.  0.
    5000000    2    1    2    0    0  0.42726709362E+03  0.26883751773E+03 -0.91140715183E+03  0.12023463575E+04  0.60011914378E+03 0.  0.
         23    2    4    4    0    0  0.30430822450E+03  0.42470190050E+03 -0.47166627578E+03  0.70988221727E+03  0.92132984931E+02 0.  0.
         23    2    4    4    0    0  0.12295886912E+03 -0.15586438277E+03 -0.43974087605E+03  0.49246414021E+03  0.98672701450E+02 0.  0.
          5    1    3    3  502    0 -0.20543400910E+03 -0.12596109003E+03  0.18518958185E+03  0.30395164011E+03  0.47000000000E+01 0. -1.
         -5    1    3    3    0  502 -0.22183308451E+03 -0.14287642770E+03  0.95679760707E+02  0.28071390701E+03  0.47000000000E+01 0.  1.
         13    1    5    5    0    0  0.30333857299E+03  0.38254415097E+03 -0.43858198303E+03  0.65628383581E+03  0.00000000000E+00 0. -1.
        -13    1    5    5    0    0  0.96965151103E+00  0.42157749527E+02 -0.33084292748E+02  0.53598381467E+02  0.00000000000E+00 0.  1.
          3    1    6    6  503    0  0.11313540265E+03 -0.15398577183E+03 -0.32293553360E+03  0.37523139010E+03  0.00000000000E+00 0. -1.
         -3    1    6    6    0  503  0.98234664735E+01 -0.18786109446E+01 -0.11680534245E+03  0.11723275011E+03  0.00000000000E+00 0.  1.
<mgrwt>
<rscale>  0 0.61819563E+03</rscale>
<asrwt>0</asrwt>
<pdfrwt beam="1">  1        1 0.18596536E+00 0.61819563E+03</pdfrwt>
<pdfrwt beam="2">  1       -1 0.88959547E-01 0.61819563E+03</pdfrwt>
<totfact> 0.13751566E+01</totfact>
</mgrwt>
</event>
<event>
12    1  0.3203156E-008  0.4593025E+03  0.7818608E-02  0.1024984E+00
         -1   -1    0    0    0  501 -0.00000000000E+00  0.00000000000E+00  0.32389921899E+03  0.32389921899E+03  0.00000000000E+00 0.  1.
          1   -1    0    0  501    0  0.00000000000E+00 -0.00000000000E+00 -0.93021798824E+03  0.93021798824E+03  0.00000000000E+00 0. -1.
         23    2    1    2    0    0 -0.76334952334E+02 -0.34259543121E+03 -0.37572569756E+03  0.52170943515E+03  0.88387105864E+02 0.  0.
    5000000    2    1    2    0    0  0.76334952334E+02  0.34259543121E+03 -0.23059307169E+03  0.73240777208E+03  0.60004110315E+03 0.  0.
         23    2    4    4    0    0  0.14503274084E+03 -0.52042161855E+02 -0.26484803691E+03  0.31938844230E+03  0.90119986061E+02 0.  0.
         23    2    4    4    0    0 -0.68697788508E+02  0.39463759306E+03  0.34254965228E+02  0.41301932979E+03  0.94622133407E+02 0.  0.
          5    1    3    3  502    0 -0.18939915249E+02 -0.35140143896E+02 -0.87814975259E+02  0.96576964036E+02  0.47000000000E+01 0. -1.
         -5    1    3    3    0  502 -0.57395037085E+02 -0.30745528731E+03 -0.28791072231E+03  0.42513247111E+03  0.47000000000E+01 0.  1.
         11    1    5    5    0    0  0.10786496737E+03 -0.20400790778E+02 -0.24150020600E+03  0.26527983894E+03  0.00000000000E+00 0. -1.
        -11    1    5    5    0    0  0.37167773470E+02 -0.31641371077E+02 -0.23347830911E+02  0.54108603351E+02  0.00000000000E+00 0.  1.
          4    1    6    6  503    0  0.15429808308E+02  0.55869684122E+02  0.26862747837E+02  0.63883548819E+02  0.00000000000E+00 0. -1.
         -4    1    6    6    0  503 -0.84127596816E+02  0.33876790894E+03  0.73922173902E+01  0.34913578097E+03  0.00000000000E+00 0.  1.
<mgrwt>
<rscale>  0 0.45930249E+03</rscale>
<asrwt>0</asrwt>
<pdfrwt beam="1">  1        1 0.14311046E+00 0.45930249E+03</pdfrwt>
<pdfrwt beam="2">  1       -1 0.49830649E-01 0.45930249E+03</pdfrwt>
<totfact> 0.73266301E+01</totfact>
</mgrwt>
</event>
<event>
12    1  0.3203156E-008  0.3147829E+03  0.7818608E-02  0.1078076E+00
         -2   -1    0    0    0  501 -0.00000000000E+00  0.00000000000E+00  0.60266991590E+03  0.60266991590E+03  0.00000000000E+00 0. -1.
          2   -1    0    0  501    0  0.00000000000E+00 -0.00000000000E+00 -0.26516274294E+03  0.26516274294E+03  0.00000000000E+00 0.  1.
         23    2    1    2    0    0  0.63945122266E+02  0.10530705665E+03 -0.28032805660E+02  0.15450461801E+03  0.88922910156E+02 0.  0.
    5000000    2    1    2    0    0 -0.63945122266E+02 -0.10530705665E+03  0.36553997863E+03  0.71332804083E+03  0.60003238498E+03 0.  0.
         23    2    4    4    0    0 -0.19761093062E+03  0.11488884912E+03  0.36007457319E+03  0.43762184355E+03  0.98028833222E+02 0.  0.
         23    2    4    4    0    0  0.13366580835E+03 -0.22019590576E+03  0.54654054391E+01  0.27570619729E+03  0.98138938898E+02 0.  0.
          5    1    3    3  502    0  0.58445696725E+02  0.28083545215E+02 -0.39542121932E+02  0.76093721058E+02  0.47000000000E+01 0. -1.
         -5    1    3    3    0  502  0.54994255415E+01  0.77223511433E+02  0.11509316272E+02  0.78410896949E+02  0.47000000000E+01 0.  1.
         13    1    5    5    0    0 -0.12405590861E+03  0.74376634490E+02  0.30397173371E+03  0.33663120342E+03  0.00000000000E+00 0. -1.
        -13    1    5    5    0    0 -0.73555022005E+02  0.40512214626E+02  0.56102839473E+02  0.10099064013E+03  0.00000000000E+00 0.  1.
          1    1    6    6  503    0  0.55856490103E+02 -0.11137998004E+03  0.50658621029E+02  0.13450555128E+03  0.00000000000E+00 0. -1.
         -1    1    6    6    0  503  0.77809318249E+02 -0.10881592572E+03 -0.45193215590E+02  0.14120064601E+03  0.00000000000E+00 0.  1.
<mgrwt>
<rscale>  0 0.31478290E+03</rscale>
<asrwt>0</asrwt>
<pdfrwt beam="1">  1        2 0.40794268E-01 0.31478290E+03</pdfrwt>
<pdfrwt beam="2">  1       -2 0.92718448E-01 0.31478290E+03</pdfrwt>
<totfact> 0.12830985E+02</totfact>
</mgrwt>
</event>
<event>
12    1  0.3203156E-008  0.8247624E+03  0.7818608E-02  0.9524850E-01
         -1   -1    0    0    0  501 -0.00000000000E+00  0.00000000000E+00  0.55477254113E+03  0.55477254113E+03  0.00000000000E+00 0.  1.
          1   -1    0    0  501    0  0.00000000000E+00 -0.00000000000E+00 -0.21972357069E+04  0.21972357069E+04  0.00000000000E+00 0. -1.
         23    2    1    2    0    0 -0.80957177235E+03  0.15107928475E+03 -0.11414656703E+02  0.82884341374E+03  0.92842367743E+02 0.  0.
    5000000    2    1    2    0    0  0.80957177235E+03 -0.15107928475E+03 -0.16310485091E+04  0.19231648343E+04  0.60001027999E+03 0.  0.
         23    2    4    4    0    0  0.55629529267E+03 -0.92697518792E+02 -0.15252377110E+04  0.16286023808E+04  0.89097457485E+02 0.  0.
         23    2    4    4    0    0  0.25327647968E+03 -0.58381765954E+02 -0.10581079809E+03  0.29456245356E+03  0.89519318018E+02 0.  0.
          5    1    3    3  502    0 -0.50185915553E+03  0.77904509925E+02  0.35148483384E+02  0.50910630574E+03  0.47000000000E+01 0. -1.
         -5    1    3    3    0  502 -0.30771261682E+03  0.73174774821E+02 -0.46563140087E+02  0.31973710800E+03  0.47000000000E+01 0.  1.
         11    1    5    5    0    0  0.18099459198E+03 -0.26392961170E+02 -0.38240516947E+03  0.42389779943E+03  0.00000000000E+00 0. -1.
        -11    1    5    5    0    0  0.37530070070E+03 -0.66304557622E+02 -0.11428325415E+04  0.12047045813E+04  0.00000000000E+00 0.  1.
          1    1    6    6  503    0  0.19013273969E+03 -0.31805107734E+02 -0.11647333583E+03  0.22522890920E+03  0.00000000000E+00 0. -1.
         -1    1    6    6    0  503  0.63143739993E+02 -0.26576658221E+02  0.10662537740E+02  0.69333544361E+02  0.00000000000E+00 0.  1.
<mgrwt>
<rscale>  0 0.82476241E+03</rscale>
<asrwt>0</asrwt>
<pdfrwt beam="1">  1        1 0.33803626E+00 0.82476241E+03</pdfrwt>
<pdfrwt beam="2">  1       -1 0.85349621E-01 0.82476241E+03</pdfrwt>
<totfact> 0.30929866E+00</totfact>
</mgrwt>
</event>
<event>
12    1  0.3203156E-008  0.6048989E+03  0.7818608E-02  0.9895294E-01
         -2   -1    0    0    0  501 -0.00000000000E+00  0.00000000000E+00  0.45609908988E+03  0.45609908988E+03  0.00000000000E+00 0.  1.
          2   -1    0    0  501    0  0.00000000000E+00 -0.00000000000E+00 -0.95175947402E+03  0.95175947402E+03  0.00000000000E+00 0. -1.
         23    2    1    2    0    0 -0.29254126081E+03 -0.42399332123E+03 -0.14325401941E+03  0.54211368579E+03  0.89525462956E+02 0.  0.
    5000000    2    1    2    0    0  0.29254126081E+03  0.42399332123E+03 -0.35240636474E+03  0.86574487811E+03  0.59997768486E+03 0.  0.
         23    2    4    4    0    0 -0.11036457984E+03  0.18901741296E+03  0.50027910631E+02  0.24271769041E+03  0.92201748964E+02 0.  0.
         23    2    4    4    0    0  0.40290584065E+03  0.23497590828E+03 -0.40243427537E+03  0.62302718770E+03  0.93073824005E+02 0.  0.
          5    1    3    3  502    0 -0.10719408192E+03 -0.11474487264E+03 -0.89724948034E+01  0.15735168464E+03  0.47000000000E+01 0. -1.
         -5    1    3    3    0  502 -0.18534717890E+03 -0.30924844859E+03 -0.13428152461E+03  0.38476200115E+03  0.47000000000E+01 0.  1.
         11    1    5    5    0    0 -0.17533369102E+02  0.53560526209E+02  0.54560798002E+02  0.78441249853E+02  0.00000000000E+00 0.  1.
        -11    1    5    5    0    0 -0.92831210739E+02  0.13545688675E+03 -0.45328873706E+01  0.16427644056E+03  0.00000000000E+00 0. -1.
          2    1    6    6  503    0  0.15921121803E+03  0.54375229965E+02 -0.18346751182E+03  0.24892811306E+03  0.00000000000E+00 0. -1.
         -2    1    6    6    0  503  0.24369462262E+03  0.18060067831E+03 -0.21896676355E+03  0.37409907463E+03  0.00000000000E+00 0.  1.
<mgrwt>
<rscale>  0 0.60489893E+03</rscale>
<asrwt>0</asrwt>
<pdfrwt beam="1">  1        2 0.14642453E+00 0.60489893E+03</pdfrwt>
<pdfrwt beam="2">  1       -2 0.70169091E-01 0.60489893E+03</pdfrwt>
<totfact> 0.51518068E+01</totfact>
</mgrwt>
</event>
<event>
12    1  0.3203156E-008  0.6889296E+03  0.7818608E-02  0.9736354E-01
         -2   -1    0    0    0  501 -0.00000000000E+00  0.00000000000E+00  0.25485393548E+03  0.25485393548E+03  0.00000000000E+00 0.  1.
          2   -1    0    0  501    0  0.00000000000E+00 -0.00000000000E+00 -0.27014526492E+04  0.27014526492E+04  0.00000000000E+00 0. -1.
         23    2    1    2    0    0  0.88970702412E+02  0.65009714273E+03 -0.54775766314E+03  0.85962064285E+03  0.91471914852E+02 0.  0.
    5000000    2    1    2    0    0 -0.88970702412E+02 -0.65009714273E+03 -0.18988410506E+04  0.20966859419E+04  0.59996043409E+03 0.  0.
         23    2    4    4    0    0  0.67792289650E+02 -0.41990357976E+03 -0.16697378969E+04  0.17255662032E+04  0.92947654503E+02 0.  0.
         23    2    4    4    0    0 -0.15676299206E+03 -0.23019356297E+03 -0.22910315376E+03  0.37111973871E+03  0.87623588630E+02 0.  0.
          5    1    3    3  502    0  0.26631505418E+02  0.24789525628E+03 -0.26584223573E+03  0.36449345599E+03  0.47000000000E+01 0. -1.
         -5    1    3    3    0  502  0.62339196994E+02  0.40220188646E+03 -0.28191542741E+03  0.49512718686E+03  0.47000000000E+01 0.  1.
         13    1    5    5    0    0  0.40798040098E+02 -0.92468667760E+02 -0.28513716201E+03  0.30251964523E+03  0.00000000000E+00 0. -1.
        -13    1    5    5    0    0  0.26994249553E+02 -0.32743491200E+03 -0.13846007348E+04  0.14230465579E+04  0.00000000000E+00 0.  1.
          1    1    6    6  503    0 -0.25826571955E+02 -0.11367928779E+03 -0.96622519318E+02  0.15141302299E+03  0.00000000000E+00 0. -1.
         -1    1    6    6    0  503 -0.13093642011E+03 -0.11651427518E+03 -0.13248063444E+03  0.21970671572E+03  0.00000000000E+00 0.  1.
<mgrwt>
<rscale>  0 0.68892964E+03</rscale>
<asrwt>0</asrwt>
<pdfrwt beam="1">  1        2 0.41560809E+00 0.68892964E+03</pdfrwt>
<pdfrwt beam="2">  1       -2 0.39208299E-01 0.68892964E+03</pdfrwt>
<totfact> 0.17320264E+01</totfact>
</mgrwt>
</event>
<event>
12    1  0.3203156E-008  0.6141050E+03  0.7818608E-02  0.9876567E-01
         -2   -1    0    0    0  501 -0.00000000000E+00  0.00000000000E+00  0.76678738177E+03  0.76678738177E+03  0.00000000000E+00 0.  1.
          2   -1    0    0  501    0  0.00000000000E+00 -0.00000000000E+00 -0.51769470228E+03  0.51769470228E+03  0.00000000000E+00 0. -1.
         23    2    1    2    0    0 -0.41567234806E+03  0.23746855909E+03  0.15706596164E+03  0.51152487618E+03  0.88392110207E+02 0.  0.
    5000000    2    1    2    0    0  0.41567234806E+03 -0.23746855909E+03  0.92026717853E+02  0.77295720787E+03  0.59984924014E+03 0.  0.
         23    2    4    4    0    0 -0.14176543893E+03 -0.55349198066E+02  0.13909716964E+02  0.17415660186E+03  0.83522861210E+02 0.  0.
         23    2    4    4    0    0  0.55743778699E+03 -0.18211936102E+03  0.78117000888E+02  0.59880060601E+03  0.92496226449E+02 0.  0.
          5    1    3    3  502    0 -0.26121717504E+03  0.17959146566E+03  0.13675308978E+03  0.34526946671E+03  0.47000000000E+01 0. -1.
         -5    1    3    3    0  502 -0.15445517302E+03  0.57877093427E+02  0.20312871858E+02  0.16625540947E+03  0.47000000000E+01 0.  1.
         13    1    5    5    0    0 -0.71275598277E+02 -0.45006732023E+02 -0.31140014694E+02  0.89863882357E+02  0.00000000000E+00 0.  1.
        -13    1    5    5    0    0 -0.70489840652E+02 -0.10342466043E+02  0.45049731658E+02  0.84292719505E+02  0.00000000000E+00 0. -1.
          1    1    6    6  503    0  0.14062037584E+03 -0.78805196697E+02 -0.55648234198E+01  0.16129264208E+03  0.00000000000E+00 0. -1.
         -1    1    6    6    0  503  0.41681741114E+03 -0.10331416433E+03  0.83681824308E+02  0.43750796393E+03  0.00000000000E+00 0.  1.
<mgrwt>
<rscale>  0 0.61410501E+03</rscale>
<asrwt>0</asrwt>
<pdfrwt beam="1">  1        2 0.79645339E-01 0.61410501E+03</pdfrwt>
<pdfrwt beam="2">  1       -2 0.11796729E+00 0.61410501E+03</pdfrwt>
<totfact> 0.33533918E+01</totfact>
</mgrwt>
</event>
<event>
12    1  0.3203156E-008  0.4045993E+03  0.7818608E-02  0.1042199E+00
          1   -1    0    0  501    0  0.00000000000E+00  0.00000000000E+00  0.10963926040E+04  0.10963926040E+04  0.00000000000E+00 0. -1.
         -1   -1    0    0    0  501 -0.00000000000E+00 -0.00000000000E+00 -0.21286605145E+03  0.21286605145E+03  0.00000000000E+00 0.  1.
         23    2    1    2    0    0  0.23708390903E+03  0.85516901198E+02  0.46563265260E+03  0.53587615579E+03  0.82629092120E+02 0.  0.
    5000000    2    1    2    0    0 -0.23708390903E+03 -0.85516901198E+02  0.41789389998E+03  0.77338249970E+03  0.59996938163E+03 0.  0.
         23    2    4    4    0    0 -0.28887643621E+03  0.11965763660E+03  0.35673949423E+02  0.32804100706E+03  0.92578216941E+02 0.  0.
         23    2    4    4    0    0  0.51792527185E+02 -0.20517453780E+03  0.38221995056E+03  0.44534149264E+03  0.86359120131E+02 0.  0.
          5    1    3    3  502    0  0.10337120375E+03 -0.51434092465E+01  0.18425028213E+03  0.21138192186E+03  0.47000000000E+01 0. -1.
         -5    1    3    3    0  502  0.13371270528E+03  0.90660310444E+02  0.28138237047E+03  0.32449423393E+03  0.47000000000E+01 0.  1.
         11    1    5    5    0    0 -0.20741075033E+03  0.11529240243E+03 -0.39754282963E+01  0.23733386072E+03  0.00000000000E+00 0. -1.
        -11    1    5    5    0    0 -0.81465685878E+02  0.43652341708E+01  0.39649377719E+02  0.90707146347E+02  0.00000000000E+00 0.  1.
          3    1    6    6  503    0  0.65160255165E+02 -0.10187996658E+03  0.24343687198E+03  0.27182144338E+03  0.00000000000E+00 0. -1.
         -3    1    6    6    0  503 -0.13367727980E+02 -0.10329457122E+03  0.13878307858E+03  0.17352004926E+03  0.00000000000E+00 0.  1.
<mgrwt>
<rscale>  0 0.40459929E+03</rscale>
<asrwt>0</asrwt>
<pdfrwt beam="1">  1        1 0.16867578E+00 0.40459929E+03</pdfrwt>
<pdfrwt beam="2">  1       -1 0.32748624E-01 0.40459929E+03</pdfrwt>
<totfact> 0.11780890E+02</totfact>
</mgrwt>
</event>
<event>
12    1  0.3203156E-008  0.4424207E+03  0.7818608E-02  0.1030007E+00
          1   -1    0    0  501    0  0.00000000000E+00  0.00000000000E+00  0.73861144866E+03  0.73861144866E+03  0.00000000000E+00 0. -1.
         -1   -1    0    0    0  501 -0.00000000000E+00 -0.00000000000E+00 -0.46663643997E+03  0.46663643997E+03  0.00000000000E+00 0.  1.
         23    2    1    2    0    0 -0.23362776748E+03 -0.35415715459E+03  0.47103498282E+02  0.43659911236E+03  0.91601427296E+02 0.  0.
    5000000    2    1    2    0    0  0.23362776748E+03  0.35415715459E+03  0.22487151041E+03  0.76864877626E+03  0.60020373306E+03 0.  0.
         23    2    4    4    0    0  0.19210176296E+03  0.23805826138E+03  0.41568247860E+03  0.52371283014E+03  0.88929085774E+02 0.  0.
         23    2    4    4    0    0  0.41526004521E+02  0.11609889321E+03 -0.19081096819E+03  0.24493594612E+03  0.91550150535E+02 0.  0.
          5    1    3    3  502    0 -0.21678502032E+03 -0.33197051734E+03  0.19329736326E+02  0.39698349855E+03  0.47000000000E+01 0. -1.
         -5    1    3    3    0  502 -0.16842747165E+02 -0.22186637245E+02  0.27773761956E+02  0.39615613809E+02  0.47000000000E+01 0.  1.
         11    1    5    5    0    0  0.15525674069E+03  0.17935326214E+03  0.25265767179E+03  0.34656622352E+03  0.00000000000E+00 0.  1.
        -11    1    5    5    0    0  0.36845022268E+02  0.58704999238E+02  0.16302480682E+03  0.17714660663E+03  0.00000000000E+00 0. -1.
          1    1    6    6  503    0 -0.25453872805E+02  0.63423859716E+02 -0.82905201930E+02  0.10744188256E+03  0.00000000000E+00 0. -1.
         -1    1    6    6    0  503  0.66979877325E+02  0.52675033492E+02 -0.10790576626E+03  0.13749406356E+03  0.00000000000E+00 0.  1.
<mgrwt>
<rscale>  0 0.44242071E+03</rscale>
<asrwt>0</asrwt>
<pdfrwt beam="1">  1        1 0.11363253E+00 0.44242071E+03</pdfrwt>
<pdfrwt beam="2">  1       -1 0.71790222E-01 0.44242071E+03</pdfrwt>
<totfact> 0.52075847E+01</totfact>
</mgrwt>
</event>
<event>
12    1  0.3203156E-008  0.1301208E+04  0.7818608E-02  0.9028608E-01
         -2   -1    0    0    0  501 -0.00000000000E+00  0.00000000000E+00  0.16166789699E+04  0.16166789699E+04  0.00000000000E+00 0. -1.
          2   -1    0    0  501    0  0.00000000000E+00 -0.00000000000E+00 -0.14424751196E+04  0.14424751196E+04  0.00000000000E+00 0.  1.
         23    2    1    2    0    0 -0.97441871357E+03  0.83066841428E+03  0.79994115842E+03  0.15128905119E+04  0.97108188914E+02 0.  0.
    5000000    2    1    2    0    0  0.97441871357E+03 -0.83066841428E+03 -0.62573730810E+03  0.15462635775E+04  0.59990168247E+03 0.  0.
         23    2    4    4    0    0  0.84198430374E+03 -0.78695985848E+03 -0.32306008140E+03  0.12003984766E+04  0.91352612035E+02 0.  0.
         23    2    4    4    0    0  0.13243440983E+03 -0.43708555801E+02 -0.30267722670E+03  0.34586510098E+03  0.92519477713E+02 0.  0.
          5    1    3    3  502    0 -0.64278372567E+03  0.55614138996E+03  0.47697643769E+03  0.97467572849E+03  0.47000000000E+01 0. -1.
         -5    1    3    3    0  502 -0.33163498790E+03  0.27452702432E+03  0.32296472073E+03  0.53821478345E+03  0.47000000000E+01 0.  1.
         13    1    5    5    0    0  0.83104194581E+02 -0.51708966717E+02 -0.45334809156E+02  0.10786736910E+03  0.00000000000E+00 0. -1.
        -13    1    5    5    0    0  0.75888010916E+03 -0.73525089176E+03 -0.27772527224E+03  0.10925311075E+04  0.00000000000E+00 0.  1.
          3    1    6    6  503    0  0.10383624417E+03 -0.72605491311E+02 -0.22970119842E+03  0.26232835059E+03  0.00000000000E+00 0. -1.
         -3    1    6    6    0  503  0.28598165660E+02  0.28896935510E+02 -0.72976028283E+02  0.83536750385E+02  0.00000000000E+00 0.  1.
<mgrwt>
<rscale>  0 0.13012077E+04</rscale>
<asrwt>0</asrwt>
<pdfrwt beam="1">  1        2 0.22191925E+00 0.13012077E+04</pdfrwt>
<pdfrwt beam="2">  1       -2 0.24871984E+00 0.13012077E+04</pdfrwt>
<totfact> 0.86002931E-01</totfact>
</mgrwt>
</event>
<event>
12    1  0.3203156E-008  0.6714996E+03  0.7818608E-02  0.9767253E-01
         -1   -1    0    0    0  501 -0.00000000000E+00  0.00000000000E+00  0.58742417935E+03  0.58742417935E+03  0.00000000000E+00 0.  1.
          1   -1    0    0  501    0  0.00000000000E+00 -0.00000000000E+00 -0.16345719260E+04  0.16345719260E+04  0.00000000000E+00 0. -1.
         23    2    1    2    0    0 -0.29887526023E+02 -0.66213480098E+03 -0.11417516920E+04  0.13229116470E+04  0.84749871383E+02 0.  0.
    5000000    2    1    2    0    0  0.29887526023E+02  0.66213480098E+03  0.94603945302E+02  0.89908445839E+03  0.60007266057E+03 0.  0.
         23    2    4    4    0    0 -0.47809151815E+02  0.28521476628E+03  0.32238936396E+03  0.44240983855E+03  0.90323780640E+02 0.  0.
         23    2    4    4    0    0  0.77696677838E+02  0.37692003471E+03 -0.22778541866E+03  0.45667461984E+03  0.92520403911E+02 0.  0.
          5    1    3    3  502    0  0.24977766393E+02 -0.35499515507E+03 -0.58976887639E+03  0.68883587777E+03  0.47000000000E+01 0. -1.
         -5    1    3    3    0  502 -0.54865292416E+02 -0.30713964592E+03 -0.55198281560E+03  0.63407576923E+03  0.47000000000E+01 0.  1.
         13    1    5    5    0    0  0.15156749095E+01  0.23188477198E+02  0.75624784628E+02  0.79114542249E+02  0.00000000000E+00 0.  1.
        -13    1    5    5    0    0 -0.49324826725E+02  0.26202628908E+03  0.24676457934E+03  0.36329529630E+03  0.00000000000E+00 0. -1.
          4    1    6    6  503    0  0.78530058371E+02  0.37160420226E+03 -0.20171166558E+03  0.43005144952E+03  0.00000000000E+00 0. -1.
         -4    1    6    6    0  503 -0.83338053297E+00  0.53158324437E+01 -0.26073753087E+02  0.26623170317E+02  0.00000000000E+00 0.  1.
<mgrwt>
<rscale>  0 0.67149963E+03</rscale>
<asrwt>0</asrwt>
<pdfrwt beam="1">  1        1 0.25147260E+00 0.67149963E+03</pdfrwt>
<pdfrwt beam="2">  1       -1 0.90372952E-01 0.67149963E+03</pdfrwt>
<totfact> 0.66824135E+00</totfact>
</mgrwt>
</event>
<event>
12    1  0.3203156E-008  0.9741935E+03  0.7818608E-02  0.9337311E-01
         -1   -1    0    0    0  501 -0.00000000000E+00  0.00000000000E+00  0.14119065554E+04  0.14119065554E+04  0.00000000000E+00 0.  1.
          1   -1    0    0  501    0  0.00000000000E+00 -0.00000000000E+00 -0.70553683615E+03  0.70553683615E+03  0.00000000000E+00 0. -1.
         23    2    1    2    0    0 -0.82958637824E+03  0.33561993096E+03  0.17549302951E+03  0.91629296936E+03  0.89110635006E+02 0.  0.
    5000000    2    1    2    0    0  0.82958637824E+03 -0.33561993096E+03  0.53087668976E+03  0.12011504222E+04  0.60006497982E+03 0.  0.
         23    2    4    4    0    0  0.13887634986E+03  0.14133397036E+03  0.19798982907E+03  0.29349973744E+03  0.87636703121E+02 0.  0.
         23    2    4    4    0    0  0.69071002839E+03 -0.47695390132E+03  0.33288686069E+03  0.90765068477E+03  0.91927886120E+02 0.  0.
          5    1    3    3  502    0 -0.51250311569E+03  0.23888183434E+03  0.78726068126E+02  0.57091493076E+03  0.47000000000E+01 0. -1.
         -5    1    3    3    0  502 -0.31708326255E+03  0.96738096624E+02  0.96766961381E+02  0.34537803860E+03  0.47000000000E+01 0.  1.
         13    1    5    5    0    0 -0.48561713686E+01  0.21624752206E+02  0.50980993436E+02  0.55590232955E+02  0.00000000000E+00 0.  1.
        -13    1    5    5    0    0  0.14373252123E+03  0.11970921815E+03  0.14700883563E+03  0.23790950448E+03  0.00000000000E+00 0. -1.
          4    1    6    6  503    0  0.30098934415E+03 -0.16700345243E+03  0.16869916787E+03  0.38333294622E+03  0.00000000000E+00 0. -1.
         -4    1    6    6    0  503  0.38972068423E+03 -0.30995044888E+03  0.16418769282E+03  0.52431773855E+03  0.00000000000E+00 0.  1.
<mgrwt>
<rscale>  0 0.97419355E+03</rscale>
<asrwt>0</asrwt>
<pdfrwt beam="1">  1        1 0.10854413E+00 0.97419355E+03</pdfrwt>
<pdfrwt beam="2">  1       -1 0.21721639E+00 0.97419355E+03</pdfrwt>
<totfact> 0.31185146E+00</totfact>
</mgrwt>
</event>
<event>
12    1  0.3203156E-008  0.7616750E+03  0.7818608E-02  0.9617210E-01
          2   -1    0    0  501    0  0.00000000000E+00  0.00000000000E+00  0.18243995996E+04  0.18243995996E+04  0.00000000000E+00 0.  1.
         -2   -1    0    0    0  501 -0.00000000000E+00 -0.00000000000E+00 -0.34475264152E+03  0.34475264152E+03  0.00000000000E+00 0. -1.
         23    2    1    2    0    0 -0.23591291761E+03 -0.59963447698E+03  0.91401644173E+03  0.11217370542E+04  0.87473151475E+02 0.  0.
    5000000    2    1    2    0    0  0.23591291761E+03  0.59963447698E+03  0.56563051633E+03  0.10474151869E+04  0.60160143131E+03 0.  0.
         23    2    4    4    0    0 -0.22197159155E+02  0.59952004020E+03  0.36213307079E+03  0.70665564847E+03  0.91130961159E+02 0.  0.
         23    2    4    4    0    0  0.25811007677E+03  0.11443678153E+00  0.20349744553E+03  0.34075953847E+03  0.89916783157E+02 0.  0.
          5    1    3    3  502    0 -0.15960114508E+02 -0.12464758486E+03  0.20336691801E+03  0.23910654321E+03  0.47000000000E+01 0. -1.
         -5    1    3    3    0  502 -0.21995280311E+03 -0.47498689212E+03  0.71064952372E+03  0.88263051094E+03  0.47000000000E+01 0.  1.
         13    1    5    5    0    0  0.18290812319E+02  0.59420917131E+02  0.17117113114E+02  0.64485616763E+02  0.00000000000E+00 0.  1.
        -13    1    5    5    0    0 -0.40487971474E+02  0.54009912307E+03  0.34501595768E+03  0.64217003171E+03  0.00000000000E+00 0. -1.
          1    1    6    6  503    0  0.14797935603E+03  0.39876039791E+02  0.90208373573E+02  0.17783570795E+03  0.00000000000E+00 0. -1.
         -1    1    6    6    0  503  0.11013072074E+03 -0.39761603010E+02  0.11328907196E+03  0.16292383052E+03  0.00000000000E+00 0.  1.
<mgrwt>
<rscale>  0 0.76167496E+03</rscale>
<asrwt>0</asrwt>
<pdfrwt beam="1">  1        2 0.28067686E+00 0.76167496E+03</pdfrwt>
<pdfrwt beam="2">  1       -2 0.53038869E-01 0.76167496E+03</pdfrwt>
<totfact> 0.28814428E+01</totfact>
</mgrwt>
</event>
<event>
12    1  0.3203156E-008  0.1135503E+04  0.7818608E-02  0.9171263E-01
         -1   -1    0    0    0  501 -0.00000000000E+00  0.00000000000E+00  0.93959975722E+03  0.93959975722E+03  0.00000000000E+00 0.  1.
          1   -1    0    0  501    0  0.00000000000E+00 -0.00000000000E+00 -0.25449250899E+04  0.25449250899E+04  0.00000000000E+00 0. -1.
         23    2    1    2    0    0  0.10921920976E+04 -0.27422438581E+03  0.32043927205E+03  0.11743959495E+04  0.91879961606E+02 0.  0.
    5000000    2    1    2    0    0 -0.10921920976E+04  0.27422438581E+03 -0.19257646048E+04  0.23101288977E+04  0.60003634818E+03 0.  0.
         23    2    4    4    0    0 -0.32187819810E+03  0.16219317056E+03 -0.11441257022E+04  0.12034012205E+04  0.96118031773E+02 0.  0.
         23    2    4    4    0    0 -0.77031389945E+03  0.11203121525E+03 -0.78163890257E+03  0.11067276772E+04  0.89175560362E+02 0.  0.
          5    1    3    3  502    0  0.49906516630E+03 -0.12661507257E+03  0.19391075529E+03  0.55020077048E+03  0.47000000000E+01 0.  1.
         -5    1    3    3    0  502  0.59312693125E+03 -0.14760931324E+03  0.12652851676E+03  0.62419517900E+03  0.47000000000E+01 0. -1.
         11    1    5    5    0    0 -0.65272247223E+02  0.51870635525E+01 -0.12941259725E+03  0.14503445182E+03  0.00000000000E+00 0. -1.
        -11    1    5    5    0    0 -0.25660595088E+03  0.15700610700E+03 -0.10147131049E+04  0.10583667686E+04  0.00000000000E+00 0.  1.
          1    1    6    6  503    0 -0.32940120220E+03  0.40339549872E+02 -0.39529390784E+03  0.51612954272E+03  0.00000000000E+00 0. -1.
         -1    1    6    6    0  503 -0.44091269726E+03  0.71691665382E+02 -0.38634499473E+03  0.59059813447E+03  0.00000000000E+00 0.  1.
<mgrwt>
<rscale>  0 0.11355027E+04</rscale>
<asrwt>0</asrwt>
<pdfrwt beam="1">  1        1 0.39152693E+00 0.11355027E+04</pdfrwt>
<pdfrwt beam="2">  1       -1 0.14455381E+00 0.11355027E+04</pdfrwt>
<totfact> 0.48421209E-01</totfact>
</mgrwt>
</event>
<event>
12    1  0.3203156E-008  0.1143647E+04  0.7818608E-02  0.9163665E-01
         -2   -1    0    0    0  501 -0.00000000000E+00  0.00000000000E+00  0.58127660267E+03  0.58127660267E+03  0.00000000000E+00 0.  1.
          2   -1    0    0  501    0  0.00000000000E+00 -0.00000000000E+00 -0.23825654629E+04  0.23825654629E+04  0.00000000000E+00 0. -1.
         23    2    1    2    0    0  0.99931818067E+03  0.45224144662E+03 -0.77154936560E+03  0.13440681930E+04  0.89842816691E+02 0.  0.
    5000000    2    1    2    0    0 -0.99931818067E+03 -0.45224144662E+03 -0.10297394946E+04  0.16197738725E+04  0.60012067041E+03 0.  0.
         23    2    4    4    0    0 -0.15704090422E+03 -0.27613829140E+03 -0.51744868070E+03  0.61420465611E+03  0.92628401982E+02 0.  0.
         23    2    4    4    0    0 -0.84227727645E+03 -0.17610315522E+03 -0.51229081392E+03  0.10055692164E+04  0.91017796365E+02 0.  0.
          5    1    3    3  502    0  0.35144992046E+03  0.20004983502E+03 -0.25775826634E+03  0.47958148104E+03  0.47000000000E+01 0. -1.
         -5    1    3    3    0  502  0.64786826021E+03  0.25219161160E+03 -0.51379109925E+03  0.86448671200E+03  0.47000000000E+01 0.  1.
         11    1    5    5    0    0 -0.11556081248E+03 -0.24366363094E+03 -0.37167626502E+03  0.45920530528E+03  0.00000000000E+00 0.  1.
        -11    1    5    5    0    0 -0.41480091736E+02 -0.32474660463E+02 -0.14577241569E+03  0.15499935083E+03  0.00000000000E+00 0. -1.
          3    1    6    6  503    0 -0.81127461372E+03 -0.15061269002E+03 -0.48985638693E+03  0.95958843317E+03  0.00000000000E+00 0. -1.
         -3    1    6    6    0  503 -0.31002662734E+02 -0.25490465202E+02 -0.22434426988E+02  0.45980783237E+02  0.00000000000E+00 0.  1.
<mgrwt>
<rscale>  0 0.11436469E+04</rscale>
<asrwt>0</asrwt>
<pdfrwt beam="1">  1        2 0.36654853E+00 0.11436469E+04</pdfrwt>
<pdfrwt beam="2">  1       -2 0.89427170E-01 0.11436469E+04</pdfrwt>
<totfact> 0.43183382E+00</totfact>
</mgrwt>
</event>
<event>
12    1  0.4015576E-008  0.1369357E+04  0.7818608E-02  0.8976303E-01
          2   -1    0    0  501    0  0.00000000000E+00  0.00000000000E+00  0.27898307357E+04  0.27898307357E+04  0.00000000000E+00 0. -1.
         -2   -1    0    0    0  501 -0.00000000000E+00 -0.00000000000E+00 -0.73064265380E+03  0.73064265380E+03  0.00000000000E+00 0.  1.
         23    2    1    2    0    0 -0.17239058402E+03  0.13366093361E+04  0.73574714472E+03  0.15386285582E+04  0.99050231346E+02 0.  0.
    5000000    2    1    2    0    0  0.17239058402E+03 -0.13366093361E+04  0.13234409371E+04  0.19818448313E+04  0.59997499149E+03 0.  0.
         23    2    4    4    0    0  0.26649982840E+03 -0.10399692268E+04  0.71514915927E+03  0.12930812757E+04  0.89792618088E+02 0.  0.
         23    2    4    4    0    0 -0.94109244378E+02 -0.29664010927E+03  0.60829177787E+03  0.68876355560E+03  0.86743554153E+02 0.  0.
          5    1    3    3  502    0 -0.10610248828E+03  0.10497468514E+04  0.60703390825E+03  0.12172667932E+04  0.47000000000E+01 0. -1.
         -5    1    3    3    0  502 -0.66288095741E+02  0.28686248468E+03  0.12871323647E+03  0.32136176498E+03  0.47000000000E+01 0.  1.
         11    1    5    5    0    0  0.10229582890E+03 -0.48424243348E+03  0.28221873125E+03  0.56973904839E+03  0.00000000000E+00 0.  1.
        -11    1    5    5    0    0  0.16420399950E+03 -0.55572679334E+03  0.43293042802E+03  0.72334222730E+03  0.00000000000E+00 0. -1.
          2    1    6    6  503    0 -0.62105368480E+02 -0.11890264851E+03  0.18464308851E+03  0.22822792719E+03  0.00000000000E+00 0. -1.
         -2    1    6    6    0  503 -0.32003875898E+02 -0.17773746076E+03  0.42364868937E+03  0.46053562840E+03  0.00000000000E+00 0.  1.
<mgrwt>
<rscale>  0 0.13693570E+04</rscale>
<asrwt>0</asrwt>
<pdfrwt beam="1">  1        2 0.42920472E+00 0.13693570E+04</pdfrwt>
<pdfrwt beam="2">  1       -2 0.11240656E+00 0.13693570E+04</pdfrwt>
<totfact> 0.14121929E+00</totfact>
</mgrwt>
</event>
<event>
12    1  0.3203156E-008  0.1223214E+04  0.7818608E-02  0.9092777E-01
          2   -1    0    0  501    0  0.00000000000E+00  0.00000000000E+00  0.26483819863E+04  0.26483819863E+04  0.00000000000E+00 0.  1.
         -2   -1    0    0    0  501 -0.00000000000E+00 -0.00000000000E+00 -0.62086480637E+03  0.62086480637E+03  0.00000000000E+00 0. -1.
         23    2    1    2    0    0  0.74831119712E+03 -0.94773465986E+03  0.85659693569E+03  0.14834036208E+04  0.92505993027E+02 0.  0.
    5000000    2    1    2    0    0 -0.74831119712E+03  0.94773465986E+03  0.11709202442E+04  0.17858431719E+04  0.60000915234E+03 0.  0.
         23    2    4    4    0    0 -0.18725304809E+03  0.10614839486E+03  0.54352181815E+03  0.59181459639E+03  0.92181147417E+02 0.  0.
         23    2    4    4    0    0 -0.56105814903E+03  0.84158626499E+03  0.62739842608E+03  0.11940285755E+04  0.94982977280E+02 0.  0.
          5    1    3    3  502    0  0.35959533335E+03 -0.40169633538E+03  0.34357777541E+03  0.63932505612E+03  0.47000000000E+01 0. -1.
         -5    1    3    3    0  502  0.38871586377E+03 -0.54603832448E+03  0.51301916028E+03  0.84407856468E+03  0.47000000000E+01 0.  1.
         13    1    5    5    0    0 -0.19117004120E+02 -0.80125385907E+01  0.15059448661E+02  0.25621233678E+02  0.00000000000E+00 0.  1.
        -13    1    5    5    0    0 -0.16813604397E+03  0.11416093346E+03  0.52846236949E+03  0.56619336271E+03  0.00000000000E+00 0. -1.
          2    1    6    6  503    0 -0.43961588507E+03  0.69881549961E+03  0.54516424832E+03  0.98934790976E+03  0.00000000000E+00 0. -1.
         -2    1    6    6    0  503 -0.12144226396E+03  0.14277076539E+03  0.82234177762E+02  0.20468066571E+03  0.00000000000E+00 0.  1.
<mgrwt>
<rscale>  0 0.12232139E+04</rscale>
<asrwt>0</asrwt>
<pdfrwt beam="1">  1        2 0.40744338E+00 0.12232139E+04</pdfrwt>
<pdfrwt beam="2">  1       -2 0.95517664E-01 0.12232139E+04</pdfrwt>
<totfact> 0.25782484E+00</totfact>
</mgrwt>
</event>
<event>
12    1  0.3203156E-008  0.8524838E+03  0.7818608E-02  0.9487009E-01
         -2   -1    0    0    0  501 -0.00000000000E+00  0.00000000000E+00  0.57066651249E+03  0.57066651249E+03  0.00000000000E+00 0.  1.
          2   -1    0    0  501    0  0.00000000000E+00 -0.00000000000E+00 -0.18394404731E+04  0.18394404731E+04  0.00000000000E+00 0. -1.
         23    2    1    2    0    0  0.77552680360E+03 -0.30522061189E+03 -0.84663580029E+02  0.84269754276E+03  0.91486511325E+02 0.  0.
    5000000    2    1    2    0    0 -0.77552680360E+03  0.30522061189E+03 -0.11841103805E+04  0.15674094428E+04  0.60004460083E+03 0.  0.
         23    2    4    4    0    0 -0.22743479740E+03  0.20012494259E+03 -0.79324034183E+02  0.32626356922E+03  0.91537066177E+02 0.  0.
         23    2    4    4    0    0 -0.54809200620E+03  0.10509566930E+03 -0.11047863464E+04  0.12411458736E+04  0.91870895273E+02 0.  0.
          5    1    3    3  502    0  0.29452012293E+03 -0.13412057305E+03  0.82425859536E+01  0.32375988193E+03  0.47000000000E+01 0. -1.
         -5    1    3    3    0  502  0.48100668068E+03 -0.17110003884E+03 -0.92906165983E+02  0.51893766083E+03  0.47000000000E+01 0.  1.
         13    1    5    5    0    0 -0.44730696343E+02  0.65549105254E+02 -0.58107695492E+02  0.98356619860E+02  0.00000000000E+00 0. -1.
        -13    1    5    5    0    0 -0.18270410106E+03  0.13457583734E+03 -0.21216338691E+02  0.22790694936E+03  0.00000000000E+00 0.  1.
          1    1    6    6  503    0 -0.32064078021E+03  0.10382156624E+03 -0.69721194224E+03  0.77439907022E+03  0.00000000000E+00 0. -1.
         -1    1    6    6    0  503 -0.22745122599E+03  0.12741030651E+01 -0.40757440412E+03  0.46674680335E+03  0.00000000000E+00 0.  1.
<mgrwt>
<rscale>  0 0.85248380E+03</rscale>
<asrwt>0</asrwt>
<pdfrwt beam="1">  1        2 0.28299085E+00 0.85248380E+03</pdfrwt>
<pdfrwt beam="2">  1       -2 0.87794847E-01 0.85248380E+03</pdfrwt>
<totfact> 0.93381852E+00</totfact>
</mgrwt>
</event>
<event>
12    1  0.3203156E-008  0.5853445E+03  0.7818608E-02  0.9936287E-01
         -1   -1    0    0    0  501 -0.00000000000E+00  0.00000000000E+00  0.51913324179E+03  0.51913324179E+03  0.00000000000E+00 0.  1.
          1   -1    0    0  501    0  0.00000000000E+00 -0.00000000000E+00 -0.12237860477E+04  0.12237860477E+04  0.00000000000E+00 0. -1.
         23    2    1    2    0    0 -0.52126251355E+03 -0.89914668883E+02 -0.77185314673E+03  0.94024636110E+03  0.92231685153E+02 0.  0.
    5000000    2    1    2    0    0  0.52126251355E+03  0.89914668883E+02  0.67200340821E+02  0.80267292838E+03  0.59997390646E+03 0.  0.
         23    2    4    4    0    0 -0.24805670644E+02  0.62496226848E+02  0.20258450306E+03  0.23201657808E+03  0.90940155915E+02 0.  0.
         23    2    4    4    0    0  0.54606818419E+03  0.27418442036E+02 -0.13538416224E+03  0.57065635030E+03  0.91529044558E+02 0.  0.
          5    1    3    3  502    0 -0.31194254745E+03 -0.13546407011E+02 -0.41200595736E+03  0.51697452253E+03  0.47000000000E+01 0. -1.
         -5    1    3    3    0  502 -0.20931996610E+03 -0.76368261873E+02 -0.35984718937E+03  0.42327183857E+03  0.47000000000E+01 0.  1.
         11    1    5    5    0    0  0.13375097242E+02  0.20858485117E+02  0.15832023966E+03  0.16024752077E+03  0.00000000000E+00 0. -1.
        -11    1    5    5    0    0 -0.38180767886E+02  0.41637741730E+02  0.44264263404E+02  0.71769057312E+02  0.00000000000E+00 0.  1.
          3    1    6    6  503    0  0.35992517611E+03 -0.25307102770E+02 -0.83380877875E+02  0.37032276819E+03  0.00000000000E+00 0. -1.
         -3    1    6    6    0  503  0.18614300809E+03  0.52725544805E+02 -0.52003284367E+02  0.20033358211E+03  0.00000000000E+00 0.  1.
<mgrwt>
<rscale>  0 0.58534452E+03</rscale>
<asrwt>0</asrwt>
<pdfrwt beam="1">  1        1 0.18827478E+00 0.58534452E+03</pdfrwt>
<pdfrwt beam="2">  1       -1 0.79866653E-01 0.58534452E+03</pdfrwt>
<totfact> 0.17002995E+01</totfact>
</mgrwt>
</event>
<event>
12    1  0.3203156E-008  0.7877783E+03  0.7818608E-02  0.9577878E-01
         -1   -1    0    0    0  501 -0.00000000000E+00  0.00000000000E+00  0.70880011249E+03  0.70880011249E+03  0.00000000000E+00 0.  1.
          1   -1    0    0  501    0  0.00000000000E+00 -0.00000000000E+00 -0.10719005721E+04  0.10719005721E+04  0.00000000000E+00 0. -1.
         23    2    1    2    0    0  0.65767699845E+03 -0.20858105956E+03  0.17715853568E+03  0.71886556951E+03  0.96630572642E+02 0.  0.
    5000000    2    1    2    0    0 -0.65767699845E+03  0.20858105956E+03 -0.54025899532E+03  0.10618351151E+04  0.59964067321E+03 0.  0.
         23    2    4    4    0    0 -0.72397740802E+03  0.73124982754E+02 -0.39238804110E+03  0.83219741219E+03  0.95360409109E+02 0.  0.
         23    2    4    4    0    0  0.66300409574E+02  0.13545607680E+03 -0.14787095422E+03  0.22963770292E+03  0.90130807436E+02 0.  0.
          5    1    3    3  502    0  0.40961117797E+03 -0.15032100293E+03  0.68005152261E+02  0.44161579657E+03  0.47000000000E+01 0. -1.
         -5    1    3    3    0  502  0.24806582047E+03 -0.58260056632E+02  0.10915338342E+03  0.27724977294E+03  0.47000000000E+01 0.  1.
         11    1    5    5    0    0 -0.12777186280E+03  0.48872818404E+02 -0.62815746261E+02  0.15053245258E+03  0.00000000000E+00 0.  1.
        -11    1    5    5    0    0 -0.59620554522E+03  0.24252164350E+02 -0.32957229484E+03  0.68166495960E+03  0.00000000000E+00 0. -1.
          1    1    6    6  503    0  0.37795019594E+02  0.81088248533E+02 -0.14218285630E+03  0.16798729768E+03  0.00000000000E+00 0. -1.
         -1    1    6    6    0  503  0.28505389980E+02  0.54367828271E+02 -0.56880979220E+01  0.61650405245E+02  0.00000000000E+00 0.  1.
<mgrwt>
<rscale>  0 0.78777834E+03</rscale>
<asrwt>0</asrwt>
<pdfrwt beam="1">  1        1 0.16490778E+00 0.78777834E+03</pdfrwt>
<pdfrwt beam="2">  1       -1 0.10904617E+00 0.78777834E+03</pdfrwt>
<totfact> 0.10661399E+01</totfact>
</mgrwt>
</event>
<event>
12    1  0.3203156E-008  0.4627796E+03  0.7818608E-02  0.1023978E+00
         -2   -1    0    0    0  501 -0.00000000000E+00  0.00000000000E+00  0.24508922370E+03  0.24508922370E+03  0.00000000000E+00 0.  1.
          2   -1    0    0  501    0  0.00000000000E+00 -0.00000000000E+00 -0.14465873681E+04  0.14465873681E+04  0.00000000000E+00 0. -1.
         23    2    1    2    0    0 -0.25450397650E+03 -0.32244409982E+03 -0.66665712414E+03  0.78883212505E+03  0.95299154167E+02 0.  0.
    5000000    2    1    2    0    0  0.25450397650E+03  0.32244409982E+03 -0.53484102025E+03  0.90284446674E+03  0.60027555557E+03 0.  0.
         23    2    4    4    0    0  0.26548001362E+02 -0.45983909138E+02 -0.43715554803E+03  0.44944176757E+03  0.89853285912E+02 0.  0.
         23    2    4    4    0    0  0.22795597514E+03  0.36842800896E+03 -0.97685472220E+02  0.45340269917E+03  0.91260241872E+02 0.  0.
          5    1    3    3  502    0 -0.22232637924E+03 -0.21591891293E+03 -0.47580370867E+03  0.56785672053E+03  0.47000000000E+01 0. -1.
         -5    1    3    3    0  502 -0.32177597261E+02 -0.10652518689E+03 -0.19085341547E+03  0.22097540452E+03  0.47000000000E+01 0.  1.
         11    1    5    5    0    0  0.18392556757E+02  0.37254477155E+01 -0.33515950705E+03  0.33568446534E+03  0.00000000000E+00 0. -1.
        -11    1    5    5    0    0  0.81554446052E+01 -0.49709356853E+02 -0.10199604098E+03  0.11375730223E+03  0.00000000000E+00 0.  1.
          2    1    6    6  503    0  0.12179966769E+03  0.15900286448E+03 -0.86984794626E+02  0.21836534629E+03  0.00000000000E+00 0. -1.
         -2    1    6    6    0  503  0.10615630745E+03  0.20942514447E+03 -0.10700677594E+02  0.23503735288E+03  0.00000000000E+00 0.  1.
<mgrwt>
<rscale>  0 0.46277963E+03</rscale>
<asrwt>0</asrwt>
<pdfrwt beam="1">  1        2 0.22255190E+00 0.46277963E+03</pdfrwt>
<pdfrwt beam="2">  1       -2 0.37706034E-01 0.46277963E+03</pdfrwt>
<totfact> 0.95017027E+01</totfact>
</mgrwt>
</event>
<event>
12    1  0.3203156E-008  0.7465968E+03  0.7818608E-02  0.9640705E-01
          2   -1    0    0  501    0  0.00000000000E+00  0.00000000000E+00  0.81245612848E+03  0.81245612848E+03  0.00000000000E+00 0. -1.
         -2   -1    0    0    0  501 -0.00000000000E+00 -0.00000000000E+00 -0.91243295959E+03  0.91243295959E+03  0.00000000000E+00 0.  1.
         23    2    1    2    0    0  0.63853523162E+03 -0.26334144835E+03 -0.34566936715E+03  0.77757648302E+03  0.89788168074E+02 0.  0.
    5000000    2    1    2    0    0 -0.63853523162E+03  0.26334144835E+03  0.24569253603E+03  0.94731260505E+03  0.59996698991E+03 0.  0.
         23    2    4    4    0    0 -0.37062613261E+03  0.34079910002E+03  0.36677305063E+03  0.62946205018E+03  0.90511022508E+02 0.  0.
         23    2    4    4    0    0 -0.26790909901E+03 -0.77457651674E+02 -0.12108051460E+03  0.31785055487E+03  0.92701192433E+02 0.  0.
          5    1    3    3  502    0  0.96383275577E+02 -0.80653959042E+01 -0.38879890630E+02  0.10434808248E+03  0.47000000000E+01 0. -1.
         -5    1    3    3    0  502  0.54215195604E+03 -0.25527605245E+03 -0.30678947652E+03  0.67322840054E+03  0.47000000000E+01 0.  1.
         11    1    5    5    0    0 -0.25668945393E+03  0.18940722675E+03  0.19615343230E+03  0.37448730593E+03  0.00000000000E+00 0. -1.
        -11    1    5    5    0    0 -0.11393667868E+03  0.15139187328E+03  0.17061961834E+03  0.25497474425E+03  0.00000000000E+00 0.  1.
          1    1    6    6  503    0 -0.16828487687E+03 -0.10565315578E+02 -0.99926995836E+02  0.19600211777E+03  0.00000000000E+00 0. -1.
         -1    1    6    6    0  503 -0.99624222143E+02 -0.66892336096E+02 -0.21153518767E+02  0.12184843709E+03  0.00000000000E+00 0.  1.
<mgrwt>
<rscale>  0 0.74659676E+03</rscale>
<asrwt>0</asrwt>
<pdfrwt beam="1">  1        2 0.12499325E+00 0.74659676E+03</pdfrwt>
<pdfrwt beam="2">  1       -2 0.14037430E+00 0.74659676E+03</pdfrwt>
<totfact> 0.12227976E+01</totfact>
</mgrwt>
</event>
<event>
12    1  0.3203156E-008  0.7151509E+03  0.7818608E-02  0.9691667E-01
          2   -1    0    0  501    0  0.00000000000E+00  0.00000000000E+00  0.86107948807E+03  0.86107948807E+03  0.00000000000E+00 0. -1.
         -2   -1    0    0    0  501 -0.00000000000E+00 -0.00000000000E+00 -0.70058529493E+03  0.70058529493E+03  0.00000000000E+00 0.  1.
         23    2    1    2    0    0  0.12168373426E+03  0.62085346533E+03  0.24566949106E+03  0.68551834065E+03  0.96519116956E+02 0.  0.
    5000000    2    1    2    0    0 -0.12168373426E+03 -0.62085346533E+03 -0.85175297922E+02  0.87614644235E+03  0.60009315982E+03 0.  0.
         23    2    4    4    0    0 -0.30142996840E+03 -0.46205950683E+03 -0.20158423919E+03  0.59442942537E+03  0.91384476537E+02 0.  0.
         23    2    4    4    0    0  0.17974623414E+03 -0.15879395850E+03  0.11640894127E+03  0.28171701698E+03  0.91045077309E+02 0.  0.
          5    1    3    3  502    0  0.67384404318E+02  0.40759925557E+03  0.11227027696E+03  0.42814076677E+03  0.47000000000E+01 0. -1.
         -5    1    3    3    0  502  0.54299329945E+02  0.21325420977E+03  0.13339921410E+03  0.25737757388E+03  0.47000000000E+01 0.  1.
         11    1    5    5    0    0 -0.17097859194E+03 -0.32657085713E+03 -0.15976298506E+03  0.40175417238E+03  0.00000000000E+00 0. -1.
        -11    1    5    5    0    0 -0.13045137646E+03 -0.13548864971E+03 -0.41821254132E+02  0.19267525300E+03  0.00000000000E+00 0.  1.
          3    1    6    6  503    0  0.46256027886E+02 -0.32210453894E+02 -0.11665611533E+02  0.57560576337E+02  0.00000000000E+00 0. -1.
         -3    1    6    6    0  503  0.13349020625E+03 -0.12658350461E+03  0.12807455280E+03  0.22415644064E+03  0.00000000000E+00 0.  1.
<mgrwt>
<rscale>  0 0.71515088E+03</rscale>
<asrwt>0</asrwt>
<pdfrwt beam="1">  1        2 0.13247377E+00 0.71515088E+03</pdfrwt>
<pdfrwt beam="2">  1       -2 0.10778235E+00 0.71515088E+03</pdfrwt>
<totfact> 0.21919834E+01</totfact>
</mgrwt>
</event>
<event>
12    1  0.3203156E-008  0.4691448E+03  0.7818608E-02  0.1022162E+00
          3   -1    0    0  501    0  0.00000000000E+00  0.00000000000E+00  0.12178536723E+03  0.12178536723E+03  0.00000000000E+00 0. -1.
         -3   -1    0    0    0  501 -0.00000000000E+00 -0.00000000000E+00 -0.20910956118E+04  0.20910956118E+04  0.00000000000E+00 0.  1.
         23    2    1    2    0    0 -0.21033049662E+03 -0.20890500068E+03 -0.89376607831E+03  0.94607928211E+03  0.91476708477E+02 0.  0.
    5000000    2    1    2    0    0  0.21033049662E+03  0.20890500068E+03 -0.10755441663E+04  0.12668016969E+04  0.60009255003E+03 0.  0.
         23    2    4    4    0    0 -0.10022873598E+03  0.29045371948E+03 -0.65996694763E+03  0.73364186824E+03  0.90911254494E+02 0.  0.
         23    2    4    4    0    0  0.31055923260E+03 -0.81548718795E+02 -0.41557721867E+03  0.53315982871E+03  0.91966014265E+02 0.  0.
          5    1    3    3  502    0 -0.54853285699E+02 -0.99819972577E+02 -0.24798431936E+03  0.27293080172E+03  0.47000000000E+01 0. -1.
         -5    1    3    3    0  502 -0.15547721093E+03 -0.10908502811E+03 -0.64578175894E+03  0.67314848039E+03  0.47000000000E+01 0.  1.
         13    1    5    5    0    0 -0.71250583172E+02  0.23511159859E+03 -0.42887149771E+03  0.49425182948E+03  0.00000000000E+00 0.  1.
        -13    1    5    5    0    0 -0.28978152805E+02  0.55342120889E+02 -0.23109544991E+03  0.23939003876E+03  0.00000000000E+00 0. -1.
          4    1    6    6  503    0  0.91693019490E+02 -0.51730628331E+02 -0.19139331768E+03  0.21843779385E+03  0.00000000000E+00 0. -1.
         -4    1    6    6    0  503  0.21886621311E+03 -0.29818090464E+02 -0.22418390099E+03  0.31472203485E+03  0.00000000000E+00 0.  1.
<mgrwt>
<rscale>  0 0.46914479E+03</rscale>
<asrwt>0</asrwt>
<pdfrwt beam="1">  1        3 0.18736211E-01 0.46914479E+03</pdfrwt>
<pdfrwt beam="2">  1       -3 0.32170700E+00 0.46914479E+03</pdfrwt>
<totfact> 0.20436000E+00</totfact>
</mgrwt>
</event>
<event>
12    1  0.3203156E-008  0.4095401E+03  0.7818608E-02  0.1040525E+00
         -1   -1    0    0    0  501 -0.00000000000E+00  0.00000000000E+00  0.28012909042E+03  0.28012909042E+03  0.00000000000E+00 0.  1.
          1   -1    0    0  501    0  0.00000000000E+00 -0.00000000000E+00 -0.11380839660E+04  0.11380839660E+04  0.00000000000E+00 0. -1.
         23    2    1    2    0    0  0.67982777590E+02 -0.36847538435E+03 -0.48127268009E+03  0.61674303516E+03  0.91393719116E+02 0.  0.
    5000000    2    1    2    0    0 -0.67982777590E+02  0.36847538435E+03 -0.37668219552E+03  0.80147002129E+03  0.60005745698E+03 0.  0.
         23    2    4    4    0    0 -0.98141234230E+02  0.17871580351E+03  0.12431096371E+03  0.25655677906E+03  0.93792989621E+02 0.  0.
         23    2    4    4    0    0  0.30158456641E+02  0.18975958084E+03 -0.50099315923E+03  0.54491324223E+03  0.94963492627E+02 0.  0.
          5    1    3    3  502    0  0.35548506925E+02 -0.32363563572E+03 -0.44078562726E+03  0.54801257308E+03  0.47000000000E+01 0. -1.
         -5    1    3    3    0  502  0.32434270665E+02 -0.44839748631E+02 -0.40487052827E+02  0.68730462079E+02  0.47000000000E+01 0.  1.
         13    1    5    5    0    0 -0.98804846743E+02  0.18930234348E+03  0.11552580784E+03  0.24278382826E+03  0.00000000000E+00 0. -1.
        -13    1    5    5    0    0  0.66361251217E+00 -0.10586539970E+02  0.87851558664E+01  0.13772950798E+02  0.00000000000E+00 0.  1.
          3    1    6    6  503    0  0.45220593873E+02  0.32225887917E+02 -0.14781681513E+03  0.15790256741E+03  0.00000000000E+00 0. -1.
         -3    1    6    6    0  503 -0.15062137232E+02  0.15753369292E+03 -0.35317634410E+03  0.38701067481E+03  0.00000000000E+00 0.  1.
<mgrwt>
<rscale>  0 0.40954008E+03</rscale>
<asrwt>0</asrwt>
<pdfrwt beam="1">  1        1 0.17508984E+00 0.40954008E+03</pdfrwt>
<pdfrwt beam="2">  1       -1 0.43096784E-01 0.40954008E+03</pdfrwt>
<totfact> 0.67329477E+01</totfact>
</mgrwt>
</event>
<event>
12    1  0.3203156E-008  0.5286008E+03  0.7818608E-02  0.1006572E+00
         -1   -1    0    0    0  501 -0.00000000000E+00  0.00000000000E+00  0.58069366132E+03  0.58069366132E+03  0.00000000000E+00 0.  1.
          1   -1    0    0  501    0  0.00000000000E+00 -0.00000000000E+00 -0.20579104476E+04  0.20579104476E+04  0.00000000000E+00 0. -1.
         23    2    1    2    0    0 -0.46221680631E+03 -0.19342818802E+03  0.37159000948E+03  0.63130804514E+03  0.97014806917E+02 0.  0.
    5000000    2    1    2    0    0  0.46221680631E+03  0.19342818802E+03 -0.18488067957E+04  0.20072960637E+04  0.60007672816E+03 0.  0.
         23    2    4    4    0    0  0.33565666780E+03  0.40008859766E+02 -0.17180575162E+04  0.17527661984E+04  0.78750299094E+02 0.  0.
         23    2    4    4    0    0  0.12656013851E+03  0.15341932826E+03 -0.13074927948E+03  0.25452986536E+03  0.90194896378E+02 0.  0.
          5    1    3    3  502    0 -0.28842431582E+03 -0.69433849513E+02  0.20933309715E+03  0.36311441858E+03  0.47000000000E+01 0. -1.
         -5    1    3    3    0  502 -0.17379249049E+03 -0.12399433851E+03  0.16225691232E+03  0.26819362656E+03  0.47000000000E+01 0.  1.
         11    1    5    5    0    0  0.95742419748E+02  0.20651207162E+02 -0.68948102144E+03  0.69640301710E+03  0.00000000000E+00 0. -1.
        -11    1    5    5    0    0  0.23991424806E+03  0.19357652605E+02 -0.10285764948E+04  0.10563631813E+04  0.00000000000E+00 0.  1.
          2    1    6    6  503    0  0.55644177226E+02  0.11478733382E+03 -0.41444490715E+02  0.13412700055E+03  0.00000000000E+00 0. -1.
         -2    1    6    6    0  503  0.70915961281E+02  0.38631994435E+02 -0.89304788761E+02  0.12040286481E+03  0.00000000000E+00 0.  1.
<mgrwt>
<rscale>  0 0.52860079E+03</rscale>
<asrwt>0</asrwt>
<pdfrwt beam="1">  1        1 0.31660161E+00 0.52860079E+03</pdfrwt>
<pdfrwt beam="2">  1       -1 0.89337486E-01 0.52860079E+03</pdfrwt>
<totfact> 0.36948769E+00</totfact>
</mgrwt>
</event>
<event>
12    1  0.3203156E-008  0.1184337E+04  0.7818608E-02  0.9126678E-01
          2   -1    0    0  501    0  0.00000000000E+00  0.00000000000E+00  0.12575616276E+04  0.12575616276E+04  0.00000000000E+00 0.  1.
         -2   -1    0    0    0  501 -0.00000000000E+00 -0.00000000000E+00 -0.12516133669E+04  0.12516133669E+04  0.00000000000E+00 0. -1.
         23    2    1    2    0    0 -0.10664778161E+04 -0.50193511803E+03  0.76934710801E+02  0.11847968711E+04  0.92254437005E+02 0.  0.
    5000000    2    1    2    0    0  0.10664778161E+04  0.50193511803E+03 -0.70986450155E+02  0.13243781234E+04  0.59968703715E+03 0.  0.
         23    2    4    4    0    0  0.57789733609E+03  0.27737194195E+03 -0.32227621550E+03  0.72381142829E+03  0.95605959047E+02 0.  0.
         23    2    4    4    0    0  0.48858048003E+03  0.22456317608E+03  0.25128976534E+03  0.60056669507E+03  0.91620431898E+02 0.  0.
          5    1    3    3  502    0 -0.89704706811E+03 -0.38432849095E+03  0.68505735813E+02  0.97832354423E+03  0.47000000000E+01 0. -1.
         -5    1    3    3    0  502 -0.16943074801E+03 -0.11760662708E+03  0.84289749882E+01  0.20647332691E+03  0.47000000000E+01 0.  1.
         13    1    5    5    0    0  0.35447607141E+03  0.16013947744E+03 -0.14355245473E+03  0.41461457367E+03  0.00000000000E+00 0.  1.
        -13    1    5    5    0    0  0.22342126468E+03  0.11723246451E+03 -0.17872376076E+03  0.30919685462E+03  0.00000000000E+00 0. -1.
          4    1    6    6  503    0  0.98064006524E+02  0.87119109002E+02  0.68995115400E+02  0.14821138444E+03  0.00000000000E+00 0. -1.
         -4    1    6    6    0  503  0.39051647351E+03  0.13744406708E+03  0.18229464994E+03  0.45235531063E+03  0.00000000000E+00 0.  1.
<mgrwt>
<rscale>  0 0.11843372E+04</rscale>
<asrwt>0</asrwt>
<pdfrwt beam="1">  1        2 0.19347102E+00 0.11843372E+04</pdfrwt>
<pdfrwt beam="2">  1       -2 0.19255590E+00 0.11843372E+04</pdfrwt>
<totfact> 0.25364997E+00</totfact>
</mgrwt>
</event>
<event>
12    1  0.3203156E-008  0.5416204E+03  0.7818608E-02  0.1003452E+00
         -1   -1    0    0    0  501 -0.00000000000E+00  0.00000000000E+00  0.16296893149E+03  0.16296893149E+03  0.00000000000E+00 0.  1.
          1   -1    0    0  501    0  0.00000000000E+00 -0.00000000000E+00 -0.19245750649E+04  0.19245750649E+04  0.00000000000E+00 0. -1.
         23    2    1    2    0    0 -0.10312501647E+03 -0.36531525023E+03 -0.82071786133E+03  0.90888258838E+03  0.91650152641E+02 0.  0.
    5000000    2    1    2    0    0  0.10312501647E+03  0.36531525023E+03 -0.94088827208E+03  0.11786614080E+04  0.59990163621E+03 0.  0.
         23    2    4    4    0    0  0.21065095254E+03  0.47318905003E+03 -0.63276814202E+03  0.82279435543E+03  0.91177458276E+02 0.  0.
         23    2    4    4    0    0 -0.10752593607E+03 -0.10787379980E+03 -0.30812013006E+03  0.35586705258E+03  0.92221260864E+02 0.  0.
          5    1    3    3  502    0 -0.83568143917E+02 -0.13652147681E+03 -0.31091246245E+03  0.34972903456E+03  0.47000000000E+01 0. -1.
         -5    1    3    3    0  502 -0.19556872554E+02 -0.22879377342E+03 -0.50980539888E+03  0.55915355382E+03  0.47000000000E+01 0.  1.
         13    1    5    5    0    0  0.98293783436E+02  0.21020762102E+03 -0.21380543496E+03  0.31553395351E+03  0.00000000000E+00 0.  1.
        -13    1    5    5    0    0  0.11235716910E+03  0.26298142901E+03 -0.41896270706E+03  0.50726040192E+03  0.00000000000E+00 0. -1.
          1    1    6    6  503    0 -0.39275630103E+02 -0.99081211518E+02 -0.15631554104E+03  0.18919357802E+03  0.00000000000E+00 0. -1.
         -1    1    6    6    0  503 -0.68250305967E+02 -0.87925882819E+01 -0.15180458902E+03  0.16667347456E+03  0.00000000000E+00 0.  1.
<mgrwt>
<rscale>  0 0.54162039E+03</rscale>
<asrwt>0</asrwt>
<pdfrwt beam="1">  1        1 0.29608849E+00 0.54162039E+03</pdfrwt>
<pdfrwt beam="2">  1       -1 0.25072142E-01 0.54162039E+03</pdfrwt>
<totfact> 0.49663642E+01</totfact>
</mgrwt>
</event>
<event>
12    1  0.3203156E-008  0.4321746E+03  0.7818608E-02  0.1033175E+00
          2   -1    0    0  501    0  0.00000000000E+00  0.00000000000E+00  0.46120112093E+03  0.46120112093E+03  0.00000000000E+00 0. -1.
         -2   -1    0    0    0  501 -0.00000000000E+00 -0.00000000000E+00 -0.50090658794E+03  0.50090658794E+03  0.00000000000E+00 0.  1.
         23    2    1    2    0    0  0.27465674943E+03  0.54973506540E+02  0.29385969420E+02  0.29631138340E+03  0.92078685394E+02 0.  0.
    5000000    2    1    2    0    0 -0.27465674943E+03 -0.54973506540E+02 -0.69091436425E+02  0.66579632546E+03  0.60004391838E+03 0.  0.
         23    2    4    4    0    0  0.14264213734E+03 -0.42332743787E+02 -0.15001655567E+03  0.22965232157E+03  0.89979893800E+02 0.  0.
         23    2    4    4    0    0 -0.41729888677E+03 -0.12640762752E+02  0.80925119241E+02  0.43614400389E+03  0.96822349795E+02 0.  0.
          5    1    3    3  502    0  0.34484937217E+02  0.22259694118E+02  0.34497185166E+02  0.53822399254E+02  0.47000000000E+01 0. -1.
         -5    1    3    3    0  502  0.24017181222E+03  0.32713812422E+02 -0.51112157460E+01  0.24248898415E+03  0.47000000000E+01 0.  1.
         13    1    5    5    0    0  0.19432189503E+02 -0.33946285527E+02 -0.54068602154E+01  0.39486636060E+02  0.00000000000E+00 0.  1.
        -13    1    5    5    0    0  0.12320994784E+03 -0.83864582608E+01 -0.14460969545E+03  0.19016568551E+03  0.00000000000E+00 0. -1.
          3    1    6    6  503    0 -0.25218210164E+03 -0.17641773451E+02  0.13912647229E+01  0.25280225508E+03  0.00000000000E+00 0. -1.
         -3    1    6    6    0  503 -0.16511678513E+03  0.50010106986E+01  0.79533854518E+02  0.18334174881E+03  0.00000000000E+00 0.  1.
<mgrwt>
<rscale>  0 0.43217458E+03</rscale>
<asrwt>0</asrwt>
<pdfrwt beam="1">  1        2 0.70954018E-01 0.43217458E+03</pdfrwt>
<pdfrwt beam="2">  1       -2 0.77062552E-01 0.43217458E+03</pdfrwt>
<totfact> 0.10487081E+02</totfact>
</mgrwt>
</event>
<event>
12    1  0.3203156E-008  0.8494770E+03  0.7818608E-02  0.9491039E-01
          2   -1    0    0  501    0  0.00000000000E+00  0.00000000000E+00  0.79400576339E+03  0.79400576339E+03  0.00000000000E+00 0. -1.
         -2   -1    0    0    0  501 -0.00000000000E+00 -0.00000000000E+00 -0.97997761473E+03  0.97997761473E+03  0.00000000000E+00 0.  1.
         23    2    1    2    0    0  0.34146029809E+03 -0.69778069726E+03 -0.96914515340E+02  0.78839136069E+03  0.93142244416E+02 0.  0.
    5000000    2    1    2    0    0 -0.34146029809E+03  0.69778069726E+03 -0.89057336001E+02  0.98559201743E+03  0.59997281529E+03 0.  0.
         23    2    4    4    0    0 -0.40782988228E+03  0.28351221684E+03 -0.19928966207E+03  0.54300050398E+03  0.91808430618E+02 0.  0.
         23    2    4    4    0    0  0.66369584198E+02  0.41426848042E+03  0.11023232607E+03  0.44259151345E+03  0.87822471431E+02 0.  0.
          5    1    3    3  502    0  0.86014083564E+02 -0.18675542481E+03 -0.66892009271E+02  0.21626983649E+03  0.47000000000E+01 0. -1.
         -5    1    3    3    0  502  0.25544621452E+03 -0.51102527245E+03 -0.30022506069E+02  0.57212152421E+03  0.47000000000E+01 0.  1.
         13    1    5    5    0    0 -0.39318367995E+03  0.28737240907E+03 -0.20264684649E+03  0.52748654207E+03  0.00000000000E+00 0. -1.
        -13    1    5    5    0    0 -0.14646202330E+02 -0.38601922297E+01  0.33571844219E+01  0.15513961905E+02  0.00000000000E+00 0.  1.
          4    1    6    6  503    0  0.61368093696E+02  0.40004509675E+03  0.85548580520E+02  0.41366735668E+03  0.00000000000E+00 0. -1.
         -4    1    6    6    0  503  0.50014905019E+01  0.14223383677E+02  0.24683745549E+02  0.28924156769E+02  0.00000000000E+00 0.  1.
<mgrwt>
<rscale>  0 0.84947701E+03</rscale>
<asrwt>0</asrwt>
<pdfrwt beam="1">  1        2 0.12215473E+00 0.84947701E+03</pdfrwt>
<pdfrwt beam="2">  1       -2 0.15076579E+00 0.84947701E+03</pdfrwt>
<totfact> 0.10342159E+01</totfact>
</mgrwt>
</event>
<event>
12    1  0.3203156E-008  0.6634380E+03  0.7818608E-02  0.9781885E-01
          1   -1    0    0  501    0  0.00000000000E+00  0.00000000000E+00  0.97433227813E+03  0.97433227813E+03  0.00000000000E+00 0. -1.
         -1   -1    0    0    0  501 -0.00000000000E+00 -0.00000000000E+00 -0.58388692003E+03  0.58388692003E+03  0.00000000000E+00 0.  1.
         23    2    1    2    0    0  0.35529802936E+03 -0.48834423137E+03  0.35353116665E+03  0.70603632912E+03  0.93734914875E+02 0.  0.
    5000000    2    1    2    0    0 -0.35529802936E+03  0.48834423137E+03  0.36914191440E+02  0.85218286904E+03  0.60011349492E+03 0.  0.
         23    2    4    4    0    0  0.25933912911E+02  0.28377437648E+03 -0.19057482140E+03  0.35509831333E+03  0.92604454505E+02 0.  0.
         23    2    4    4    0    0 -0.38123194227E+03  0.20456985488E+03  0.22748901284E+03  0.49708455571E+03  0.90306064178E+02 0.  0.
          5    1    3    3  502    0  0.13059631504E+03 -0.17425120838E+03  0.76982225394E+02  0.23101349344E+03  0.47000000000E+01 0. -1.
         -5    1    3    3    0  502  0.22470171431E+03 -0.31409302298E+03  0.27654894126E+03  0.47502283567E+03  0.47000000000E+01 0.  1.
         11    1    5    5    0    0  0.12459885829E+02  0.15237411909E+03 -0.46861908202E+02  0.15990359397E+03  0.00000000000E+00 0.  1.
        -11    1    5    5    0    0  0.13474027082E+02  0.13140025739E+03 -0.14371291320E+03  0.19519471937E+03  0.00000000000E+00 0. -1.
          1    1    6    6  503    0 -0.24774133959E+03  0.16843915316E+03  0.12341226623E+03  0.32400325170E+03  0.00000000000E+00 0. -1.
         -1    1    6    6    0  503 -0.13349060268E+03  0.36130701726E+02  0.10407674662E+03  0.17308130401E+03  0.00000000000E+00 0.  1.
<mgrwt>
<rscale>  0 0.66343804E+03</rscale>
<asrwt>0</asrwt>
<pdfrwt beam="1">  1        1 0.14989727E+00 0.66343804E+03</pdfrwt>
<pdfrwt beam="2">  1       -1 0.89828757E-01 0.66343804E+03</pdfrwt>
<totfact> 0.20006546E+01</totfact>
</mgrwt>
</event>
<event>
12    1  0.3203156E-008  0.3332773E+03  0.7818608E-02  0.1069696E+00
          1   -1    0    0  501    0  0.00000000000E+00  0.00000000000E+00  0.52590247411E+03  0.52590247411E+03  0.00000000000E+00 0. -1.
         -1   -1    0    0    0  501 -0.00000000000E+00 -0.00000000000E+00 -0.47525898860E+03  0.47525898860E+03  0.00000000000E+00 0.  1.
         23    2    1    2    0    0  0.93242459167E+02 -0.27133107705E+03  0.13656891213E+03  0.33060881823E+03  0.91303961400E+02 0.  0.
    5000000    2    1    2    0    0 -0.93242459167E+02  0.27133107705E+03 -0.85925426611E+02  0.67055264448E+03  0.59995246522E+03 0.  0.
         23    2    4    4    0    0  0.36061462610E+02  0.68892161576E+02 -0.30758380411E+03  0.33051655358E+03  0.92665185650E+02 0.  0.
         23    2    4    4    0    0 -0.12930392178E+03  0.20243891547E+03  0.22165837750E+03  0.34003609090E+03  0.93760802665E+02 0.  0.
          5    1    3    3  502    0  0.48386867776E+01 -0.97168980936E+02  0.10209604598E+02  0.97936457828E+02  0.47000000000E+01 0. -1.
         -5    1    3    3    0  502  0.88403772390E+02 -0.17416209611E+03  0.12635930753E+03  0.23267236040E+03  0.47000000000E+01 0.  1.
         13    1    5    5    0    0 -0.51049608241E+00  0.78191351794E+02 -0.15859804204E+03  0.17682614920E+03  0.00000000000E+00 0. -1.
        -13    1    5    5    0    0  0.36571958693E+02 -0.92991902181E+01 -0.14898576206E+03  0.15369040438E+03  0.00000000000E+00 0.  1.
          2    1    6    6  503    0 -0.51586512444E+01  0.90638497642E+02  0.79359458506E+02  0.12058139405E+03  0.00000000000E+00 0. -1.
         -2    1    6    6    0  503 -0.12414527053E+03  0.11180041783E+03  0.14229891899E+03  0.21945469685E+03  0.00000000000E+00 0.  1.
<mgrwt>
<rscale>  0 0.33327727E+03</rscale>
<asrwt>0</asrwt>
<pdfrwt beam="1">  1        1 0.80908073E-01 0.33327727E+03</pdfrwt>
<pdfrwt beam="2">  1       -1 0.73116767E-01 0.33327727E+03</pdfrwt>
<totfact> 0.82971982E+01</totfact>
</mgrwt>
</event>
<event>
12    1  0.3203156E-008  0.8046342E+03  0.7818608E-02  0.9553333E-01
         -1   -1    0    0    0  501 -0.00000000000E+00  0.00000000000E+00  0.52070816065E+03  0.52070816065E+03  0.00000000000E+00 0.  1.
          1   -1    0    0  501    0  0.00000000000E+00 -0.00000000000E+00 -0.17647879480E+04  0.17647879480E+04  0.00000000000E+00 0. -1.
         23    2    1    2    0    0 -0.42109304032E+03 -0.61750591781E+03 -0.10755810109E+04  0.13121902607E+04  0.79598128812E+02 0.  0.
    5000000    2    1    2    0    0  0.42109304032E+03  0.61750591781E+03 -0.16849877650E+03  0.97330584800E+03  0.60024955554E+03 0.  0.
         23    2    4    4    0    0 -0.94225894192E+01 -0.71475343215E+01  0.12217938695E+03  0.15569000336E+03  0.95769003919E+02 0.  0.
         23    2    4    4    0    0  0.43051562974E+03  0.62465345214E+03 -0.29067816346E+03  0.81761584465E+03  0.92012129557E+02 0.  0.
          5    1    3    3  502    0 -0.94280440920E+02 -0.19628293993E+03 -0.33776008694E+03  0.40189521069E+03  0.47000000000E+01 0. -1.
         -5    1    3    3    0  502 -0.32681259941E+03 -0.42122297789E+03 -0.73782092395E+03  0.91029505000E+03  0.47000000000E+01 0.  1.
         13    1    5    5    0    0 -0.51622408330E+02 -0.29954438504E+01  0.83950684686E+02  0.98597987733E+02  0.00000000000E+00 0. -1.
        -13    1    5    5    0    0  0.42199818910E+02 -0.41520904711E+01  0.38228702265E+02  0.57092015626E+02  0.00000000000E+00 0.  1.
          1    1    6    6  503    0  0.17515879655E+03  0.33517516382E+03 -0.14532250289E+03  0.40514395503E+03  0.00000000000E+00 0. -1.
         -1    1    6    6    0  503  0.25535683319E+03  0.28947828832E+03 -0.14535566057E+03  0.41247188962E+03  0.00000000000E+00 0.  1.
<mgrwt>
<rscale>  0 0.80463417E+03</rscale>
<asrwt>0</asrwt>
<pdfrwt beam="1">  1        1 0.27150584E+00 0.80463417E+03</pdfrwt>
<pdfrwt beam="2">  1       -1 0.80108948E-01 0.80463417E+03</pdfrwt>
<totfact> 0.69327087E+00</totfact>
</mgrwt>
</event>
<event>
12    1  0.3203156E-008  0.4362288E+03  0.7818608E-02  0.1031910E+00
          2   -1    0    0  501    0  0.00000000000E+00  0.00000000000E+00  0.53492494617E+03  0.53492494617E+03  0.00000000000E+00 0. -1.
         -2   -1    0    0    0  501 -0.00000000000E+00 -0.00000000000E+00 -0.42922266717E+03  0.42922266717E+03  0.00000000000E+00 0.  1.
         23    2    1    2    0    0 -0.19994247735E+03  0.19450081575E+03  0.70393042530E+02  0.30144920582E+03  0.90049329138E+02 0.  0.
    5000000    2    1    2    0    0  0.19994247735E+03 -0.19450081575E+03  0.35309236475E+02  0.66269840752E+03  0.60009572201E+03 0.  0.
         23    2    4    4    0    0  0.14404409023E+03  0.15880425242E+03  0.14963877135E+03  0.27705009976E+03  0.91637903581E+02 0.  0.
         23    2    4    4    0    0  0.55898387113E+02 -0.35330506817E+03 -0.11432953487E+03  0.38564830776E+03  0.87773993047E+02 0.  0.
          5    1    3    3  502    0 -0.87314383570E+02  0.12159422942E+03 -0.20438015443E+00  0.14977012379E+03  0.47000000000E+01 0. -1.
         -5    1    3    3    0  502 -0.11262809378E+03  0.72906586329E+02  0.70597422685E+02  0.15167908204E+03  0.47000000000E+01 0.  1.
         13    1    5    5    0    0  0.24190957246E+02  0.81588862522E+02  0.85774102203E+02  0.12082690722E+03  0.00000000000E+00 0. -1.
        -13    1    5    5    0    0  0.11985313299E+03  0.77215389894E+02  0.63864669143E+02  0.15622319254E+03  0.00000000000E+00 0.  1.
          2    1    6    6  503    0  0.41014089962E+01 -0.17608454181E+03 -0.94689663570E+02  0.19997179753E+03  0.00000000000E+00 0. -1.
         -2    1    6    6    0  503  0.51796978117E+02 -0.17722052636E+03 -0.19639871301E+02  0.18567651023E+03  0.00000000000E+00 0.  1.
<mgrwt>
<rscale>  0 0.43622881E+03</rscale>
<asrwt>0</asrwt>
<pdfrwt beam="1">  1        2 0.82296145E-01 0.43622881E+03</pdfrwt>
<pdfrwt beam="2">  1       -2 0.66034257E-01 0.43622881E+03</pdfrwt>
<totfact> 0.12383149E+02</totfact>
</mgrwt>
</event>
<event>
12    1  0.3203156E-008  0.7411581E+03  0.7818608E-02  0.9649325E-01
          1   -1    0    0  501    0  0.00000000000E+00  0.00000000000E+00  0.41462155726E+04  0.41462155726E+04  0.00000000000E+00 0. -1.
         -1   -1    0    0    0  501 -0.00000000000E+00 -0.00000000000E+00 -0.17305537348E+03  0.17305537348E+03  0.00000000000E+00 0.  1.
         23    2    1    2    0    0 -0.31327675039E+03 -0.55522958812E+03  0.26896226766E+04  0.27655914599E+04  0.89463750695E+02 0.  0.
    5000000    2    1    2    0    0  0.31327675039E+03  0.55522958812E+03  0.12835375225E+04  0.15536794862E+04  0.60002429635E+03 0.  0.
         23    2    4    4    0    0  0.21046988771E+02  0.54106318597E+03  0.65610147551E+03  0.85529039229E+03  0.88657554782E+02 0.  0.
         23    2    4    4    0    0  0.29222976162E+03  0.14166402143E+02  0.62743604701E+03  0.69838909390E+03  0.92045710702E+02 0.  0.
          5    1    3    3  502    0 -0.11850649708E+03 -0.22080548883E+03  0.12478986022E+04  0.12728204371E+04  0.47000000000E+01 0. -1.
         -5    1    3    3    0  502 -0.19477025331E+03 -0.33442409929E+03  0.14417240745E+04  0.14927710229E+04  0.47000000000E+01 0.  1.
         13    1    5    5    0    0  0.43661244608E+02  0.14769917614E+03  0.16599336339E+03  0.22644016340E+03  0.00000000000E+00 0.  1.
        -13    1    5    5    0    0 -0.22614255837E+02  0.39336400983E+03  0.49010811213E+03  0.62885022889E+03  0.00000000000E+00 0. -1.
          3    1    6    6  503    0  0.11346792803E+03 -0.18263385657E+02  0.33444481571E+03  0.35364085836E+03  0.00000000000E+00 0. -1.
         -3    1    6    6    0  503  0.17876183359E+03  0.32429787800E+02  0.29299123130E+03  0.34474823553E+03  0.00000000000E+00 0.  1.
<mgrwt>
<rscale>  0 0.74115805E+03</rscale>
<asrwt>0</asrwt>
<pdfrwt beam="1">  1        1 0.63787924E+00 0.74115805E+03</pdfrwt>
<pdfrwt beam="2">  1       -1 0.26623907E-01 0.74115805E+03</pdfrwt>
<totfact> 0.99103810E-01</totfact>
</mgrwt>
</event>
<event>
12    1  0.3203156E-008  0.7729354E+03  0.7818608E-02  0.9600040E-01
          1   -1    0    0  501    0  0.00000000000E+00  0.00000000000E+00  0.71013493404E+03  0.71013493404E+03  0.00000000000E+00 0. -1.
         -1   -1    0    0    0  501 -0.00000000000E+00 -0.00000000000E+00 -0.96846212798E+03  0.96846212798E+03  0.00000000000E+00 0.  1.
         23    2    1    2    0    0 -0.68486669822E+02  0.67703342898E+03  0.11773004570E+03  0.69645883484E+03  0.90165719955E+02 0.  0.
    5000000    2    1    2    0    0  0.68486669822E+02 -0.67703342898E+03 -0.37605723963E+03  0.98213822718E+03  0.60009312770E+03 0.  0.
         23    2    4    4    0    0 -0.50870044682E+02 -0.72377685273E+03 -0.22497612137E+03  0.76516808699E+03  0.91800066251E+02 0.  0.
         23    2    4    4    0    0  0.11935671450E+03  0.46743423746E+02 -0.15108111826E+03  0.21697014020E+03  0.88428301361E+02 0.  0.
          5    1    3    3  502    0 -0.41293703828E+02  0.18789191481E+03 -0.67364693461E+00  0.19243462637E+03  0.47000000000E+01 0. -1.
         -5    1    3    3    0  502 -0.27192965994E+02  0.48914151418E+03  0.11840369263E+03  0.50402420846E+03  0.47000000000E+01 0.  1.
         11    1    5    5    0    0  0.24940143572E+01 -0.24101478577E+03 -0.11553803898E+03  0.26728895510E+03  0.00000000000E+00 0. -1.
        -11    1    5    5    0    0 -0.53364059039E+02 -0.48276206696E+03 -0.10943808240E+03  0.49787913189E+03  0.00000000000E+00 0.  1.
          1    1    6    6  503    0  0.58612218798E+02 -0.23881503156E+01 -0.11868977090E+03  0.13239470220E+03  0.00000000000E+00 0. -1.
         -1    1    6    6    0  503  0.60744495707E+02  0.49131574061E+02 -0.32391347358E+02  0.84575437995E+02  0.00000000000E+00 0.  1.
<mgrwt>
<rscale>  0 0.77293535E+03</rscale>
<asrwt>0</asrwt>
<pdfrwt beam="1">  1        1 0.10925153E+00 0.77293535E+03</pdfrwt>
<pdfrwt beam="2">  1       -1 0.14899417E+00 0.77293535E+03</pdfrwt>
<totfact> 0.97334984E+00</totfact>
</mgrwt>
</event>
<event>
12    1  0.3203156E-008  0.1145027E+04  0.7818608E-02  0.9162383E-01
          2   -1    0    0  501    0  0.00000000000E+00  0.00000000000E+00  0.97346311236E+03  0.97346311236E+03  0.00000000000E+00 0. -1.
         -2   -1    0    0    0  501 -0.00000000000E+00 -0.00000000000E+00 -0.28702384364E+04  0.28702384364E+04  0.00000000000E+00 0.  1.
         23    2    1    2    0    0  0.97417619912E+03  0.46517682852E+03  0.46473182935E+03  0.11787157559E+04  0.89366723842E+02 0.  0.
    5000000    2    1    2    0    0 -0.97417619912E+03 -0.46517682852E+03 -0.23615071534E+04  0.26649857929E+04  0.60002040951E+03 0.  0.
         23    2    4    4    0    0 -0.89145784333E+03 -0.55589646935E+03 -0.22136482583E+04  0.24519973231E+04  0.91292331326E+02 0.  0.
         23    2    4    4    0    0 -0.82718355792E+02  0.90719640829E+02 -0.14785889511E+03  0.21298846980E+03  0.91812067766E+02 0.  0.
          5    1    3    3  502    0  0.62671100428E+03  0.34001191872E+03  0.28372513796E+03  0.76739613738E+03  0.47000000000E+01 0. -1.
         -5    1    3    3    0  502  0.34746519484E+03  0.12516490980E+03  0.18100669139E+03  0.41131961854E+03  0.47000000000E+01 0.  1.
         11    1    5    5    0    0 -0.40525813503E+03 -0.19965594905E+03 -0.95700373570E+03  0.10582782262E+04  0.00000000000E+00 0. -1.
        -11    1    5    5    0    0 -0.48619970830E+03 -0.35624052030E+03 -0.12566445226E+04  0.13937190968E+04  0.00000000000E+00 0.  1.
          1    1    6    6  503    0 -0.90257603840E+02  0.34781346977E+02 -0.97597017467E+02  0.13740944279E+03  0.00000000000E+00 0. -1.
         -1    1    6    6    0  503  0.75392480472E+01  0.55938293851E+02 -0.50261877641E+02  0.75579027013E+02  0.00000000000E+00 0.  1.
<mgrwt>
<rscale>  0 0.11450272E+04</rscale>
<asrwt>0</asrwt>
<pdfrwt beam="1">  1        2 0.14976356E+00 0.11450272E+04</pdfrwt>
<pdfrwt beam="2">  1       -2 0.44157514E+00 0.11450272E+04</pdfrwt>
<totfact> 0.10280857E-01</totfact>
</mgrwt>
</event>
<event>
12    1  0.3203156E-008  0.9251928E+03  0.7818608E-02  0.9394626E-01
         -1   -1    0    0    0  501 -0.00000000000E+00  0.00000000000E+00  0.14055518220E+04  0.14055518220E+04  0.00000000000E+00 0.  1.
          1   -1    0    0  501    0  0.00000000000E+00 -0.00000000000E+00 -0.68582966694E+03  0.68582966694E+03  0.00000000000E+00 0. -1.
         23    2    1    2    0    0  0.45561107513E+03  0.69823769388E+03  0.65127169853E+03  0.10618596037E+04  0.90959682092E+02 0.  0.
    5000000    2    1    2    0    0 -0.45561107513E+03 -0.69823769388E+03  0.68450456563E+02  0.10295218853E+04  0.60009375790E+03 0.  0.
         23    2    4    4    0    0 -0.18563398000E+03 -0.70166617232E+03  0.11556435585E+03  0.74055025611E+03  0.90907478060E+02 0.  0.
         23    2    4    4    0    0 -0.26997709513E+03  0.34284784389E+01 -0.47113899287E+02  0.28897162914E+03  0.91572357106E+02 0.  0.
          5    1    3    3  502    0  0.55832908514E+02  0.66152268428E+02  0.10231602945E+03  0.13410479549E+03  0.47000000000E+01 0. -1.
         -5    1    3    3    0  502  0.39977816661E+03  0.63208542545E+03  0.54895566907E+03  0.92775480822E+03  0.47000000000E+01 0.  1.
         13    1    5    5    0    0  0.92132486834E+01 -0.64516094392E+02  0.12197305639E+02  0.66302222072E+02  0.00000000000E+00 0. -1.
        -13    1    5    5    0    0 -0.19484722868E+03 -0.63715007793E+03  0.10336705021E+03  0.67424803403E+03  0.00000000000E+00 0.  1.
          2    1    6    6  503    0 -0.17056892414E+03 -0.41028667668E+02 -0.18690243342E+02  0.17642685353E+03  0.00000000000E+00 0.  1.
         -2    1    6    6    0  503 -0.99408170993E+02  0.44457146107E+02 -0.28423655945E+02  0.11254477561E+03  0.00000000000E+00 0. -1.
<mgrwt>
<rscale>  0 0.92519277E+03</rscale>
<asrwt>0</asrwt>
<pdfrwt beam="1">  1        1 0.10551226E+00 0.92519277E+03</pdfrwt>
<pdfrwt beam="2">  1       -1 0.21623874E+00 0.92519277E+03</pdfrwt>
<totfact> 0.33252246E+00</totfact>
</mgrwt>
</event>
<event>
12    1  0.3203156E-008  0.1123334E+04  0.7818608E-02  0.9182743E-01
          2   -1    0    0  501    0  0.00000000000E+00  0.00000000000E+00  0.29630127010E+04  0.29630127010E+04  0.00000000000E+00 0. -1.
         -2   -1    0    0    0  501 -0.00000000000E+00 -0.00000000000E+00 -0.47965036593E+03  0.47965036593E+03  0.00000000000E+00 0.  1.
         23    2    1    2    0    0 -0.65024994124E+03  0.84624633609E+03  0.16302292978E+04  0.19504426372E+04  0.87298740427E+02 0.  0.
    5000000    2    1    2    0    0  0.65024994124E+03 -0.84624633609E+03  0.85313303721E+03  0.14922204297E+04  0.59993998387E+03 0.  0.
         23    2    4    4    0    0  0.66989441652E+03 -0.85904184208E+03  0.87303046106E+03  0.13988548716E+04  0.88889539165E+02 0.  0.
         23    2    4    4    0    0 -0.19644475282E+02  0.12795505999E+02 -0.19897423850E+02  0.93365558093E+02  0.88156619600E+02 0.  0.
          5    1    3    3  502    0 -0.47259394744E+03  0.63119848007E+03  0.12688539690E+04  0.14939106549E+04  0.47000000000E+01 0. -1.
         -5    1    3    3    0  502 -0.17765599380E+03  0.21504785601E+03  0.36137532890E+03  0.45653198228E+03  0.47000000000E+01 0.  1.
         13    1    5    5    0    0  0.33261761231E+03 -0.40106573945E+03  0.36433466903E+03  0.63578923744E+03  0.00000000000E+00 0. -1.
        -13    1    5    5    0    0  0.33727680421E+03 -0.45797610263E+03  0.50869579203E+03  0.76306563418E+03  0.00000000000E+00 0.  1.
          1    1    6    6  503    0 -0.10441434073E+02  0.49969615646E+02 -0.19857939341E+01  0.51087468237E+02  0.00000000000E+00 0. -1.
         -1    1    6    6    0  503 -0.92030412087E+01 -0.37174109648E+02 -0.17911629916E+02  0.42278089856E+02  0.00000000000E+00 0.  1.
<mgrwt>
<rscale>  0 0.11233338E+04</rscale>
<asrwt>0</asrwt>
<pdfrwt beam="1">  1        2 0.45584810E+00 0.11233338E+04</pdfrwt>
<pdfrwt beam="2">  1       -2 0.73792366E-01 0.11233338E+04</pdfrwt>
<totfact> 0.30503860E+00</totfact>
</mgrwt>
</event>
<event>
12    1  0.3203156E-008  0.1248028E+04  0.7818608E-02  0.9071826E-01
         -1   -1    0    0    0  501 -0.00000000000E+00  0.00000000000E+00  0.11056889734E+04  0.11056889734E+04  0.00000000000E+00 0.  1.
          1   -1    0    0  501    0  0.00000000000E+00 -0.00000000000E+00 -0.20263379531E+04  0.20263379531E+04  0.00000000000E+00 0. -1.
         23    2    1    2    0    0 -0.72200965825E+03  0.96581169597E+03  0.37205628033E+03  0.12651562292E+04  0.90023496992E+02 0.  0.
    5000000    2    1    2    0    0  0.72200965825E+03 -0.96581169597E+03 -0.12927052601E+04  0.18668706973E+04  0.60002427649E+03 0.  0.
         23    2    4    4    0    0  0.19418626455E+03 -0.62030655103E+03 -0.39469850089E+03  0.76584665209E+03  0.90805645860E+02 0.  0.
         23    2    4    4    0    0  0.52782339370E+03 -0.34550514494E+03 -0.89800675917E+03  0.11010240452E+04  0.88693114196E+02 0.  0.
          5    1    3    3  502    0 -0.49209761654E+03  0.72476387123E+03  0.27249837650E+03  0.91745309876E+03  0.47000000000E+01 0. -1.
         -5    1    3    3    0  502 -0.22991204171E+03  0.24104782474E+03  0.99557903826E+02  0.34770313048E+03  0.47000000000E+01 0.  1.
         13    1    5    5    0    0  0.49322830954E+02 -0.25366851785E+03 -0.11720572240E+03  0.28375630383E+03  0.00000000000E+00 0. -1.
        -13    1    5    5    0    0  0.14486343360E+03 -0.36663803318E+03 -0.27749277849E+03  0.48209034826E+03  0.00000000000E+00 0.  1.
          2    1    6    6  503    0  0.44112024726E+03 -0.31603468660E+03 -0.80213098158E+03  0.96844158693E+03  0.00000000000E+00 0.  1.
         -2    1    6    6    0  503  0.86703146432E+02 -0.29470458331E+02 -0.95875777595E+02  0.13258245829E+03  0.00000000000E+00 0. -1.
<mgrwt>
<rscale>  0 0.12480277E+04</rscale>
<asrwt>0</asrwt>
<pdfrwt beam="1">  1        1 0.31174430E+00 0.12480277E+04</pdfrwt>
<pdfrwt beam="2">  1       -1 0.17010600E+00 0.12480277E+04</pdfrwt>
<totfact> 0.68558373E-01</totfact>
</mgrwt>
</event>
<event>
12    1  0.3203156E-008  0.9011569E+03  0.7818608E-02  0.9424136E-01
         -1   -1    0    0    0  501 -0.00000000000E+00  0.00000000000E+00  0.89383642667E+03  0.89383642667E+03  0.00000000000E+00 0.  1.
          1   -1    0    0  501    0  0.00000000000E+00 -0.00000000000E+00 -0.12259964581E+04  0.12259964581E+04  0.00000000000E+00 0. -1.
         23    2    1    2    0    0  0.38178977314E+03 -0.80200849138E+03  0.21126273797E+03  0.91802715474E+03  0.95712388197E+02 0.  0.
    5000000    2    1    2    0    0 -0.38178977314E+03  0.80200849138E+03 -0.54342276944E+03  0.12018057301E+04  0.60003971150E+03 0.  0.
         23    2    4    4    0    0 -0.19154913012E+03  0.51117634956E+03 -0.62316782617E+03  0.83342850174E+03  0.90953825272E+02 0.  0.
         23    2    4    4    0    0 -0.19024064302E+03  0.29083214182E+03  0.79745056729E+02  0.36837722834E+03  0.92561716258E+02 0.  0.
          5    1    3    3  502    0  0.51975364622E+02 -0.19988089499E+03  0.39706205513E+02  0.21036274258E+03  0.47000000000E+01 0. -1.
         -5    1    3    3    0  502  0.32981440852E+03 -0.60212759639E+03  0.17155653246E+03  0.70766441216E+03  0.47000000000E+01 0.  1.
         13    1    5    5    0    0 -0.18182672181E+03  0.38744731308E+03 -0.50622459482E+03  0.66290249478E+03  0.00000000000E+00 0.  1.
        -13    1    5    5    0    0 -0.97224083119E+01  0.12372903648E+03 -0.11694323135E+03  0.17052600696E+03  0.00000000000E+00 0. -1.
          1    1    6    6  503    0 -0.42630417276E+02  0.13869429763E+03  0.54090758193E+02  0.15485241617E+03  0.00000000000E+00 0. -1.
         -1    1    6    6    0  503 -0.14761022575E+03  0.15213784418E+03  0.25654298536E+02  0.21352481217E+03  0.00000000000E+00 0.  1.
<mgrwt>
<rscale>  0 0.90115691E+03</rscale>
<asrwt>0</asrwt>
<pdfrwt beam="1">  1        1 0.18861484E+00 0.90115691E+03</pdfrwt>
<pdfrwt beam="2">  1       -1 0.13751330E+00 0.90115691E+03</pdfrwt>
<totfact> 0.45649198E+00</totfact>
</mgrwt>
</event>
<event>
12    1  0.3203156E-008  0.5413809E+03  0.7818608E-02  0.1003509E+00
         -2   -1    0    0    0  501 -0.00000000000E+00  0.00000000000E+00  0.11017103299E+04  0.11017103299E+04  0.00000000000E+00 0.  1.
          2   -1    0    0  501    0  0.00000000000E+00 -0.00000000000E+00 -0.13732357596E+04  0.13732357596E+04  0.00000000000E+00 0. -1.
         23    2    1    2    0    0  0.43515133460E+03 -0.11589786897E+03  0.94206687787E+03  0.10483034488E+04  0.93065130004E+02 0.  0.
    5000000    2    1    2    0    0 -0.43515133460E+03  0.11589786897E+03 -0.12135923076E+04  0.14266426407E+04  0.59976156532E+03 0.  0.
         23    2    4    4    0    0 -0.19355760107E+03  0.26505787931E+03 -0.10083760738E+04  0.10644238629E+04  0.91954495739E+02 0.  0.
         23    2    4    4    0    0 -0.24159373352E+03 -0.14916001034E+03 -0.20521623378E+03  0.36221877785E+03  0.92046182208E+02 0.  0.
          5    1    3    3  502    0  0.60800308594E+02 -0.51012280475E+02  0.14758426820E+03  0.16763691868E+03  0.47000000000E+01 0.  1.
         -5    1    3    3    0  502  0.37435102600E+03 -0.64885588490E+02  0.79448260967E+03  0.88066653015E+03  0.47000000000E+01 0. -1.
         11    1    5    5    0    0 -0.96298000641E+02  0.80790091555E+02 -0.28183196405E+03  0.30859293541E+03  0.00000000000E+00 0.  1.
        -11    1    5    5    0    0 -0.97259600433E+02  0.18426778775E+03 -0.72654410975E+03  0.75583092745E+03  0.00000000000E+00 0. -1.
          1    1    6    6  503    0 -0.23907578997E+03 -0.15357544980E+03 -0.21143606133E+03  0.35418619420E+03  0.00000000000E+00 0. -1.
         -1    1    6    6    0  503 -0.25179435512E+01  0.44154394576E+01  0.62198275514E+01  0.80325836503E+01  0.00000000000E+00 0.  1.
<mgrwt>
<rscale>  0 0.54138091E+03</rscale>
<asrwt>0</asrwt>
<pdfrwt beam="1">  1        2 0.21126704E+00 0.54138091E+03</pdfrwt>
<pdfrwt beam="2">  1       -2 0.16949390E+00 0.54138091E+03</pdfrwt>
<totfact> 0.34365152E+00</totfact>
</mgrwt>
</event>
<event>
12    1  0.3203156E-008  0.7794744E+03  0.7818608E-02  0.9590212E-01
          1   -1    0    0  501    0  0.00000000000E+00  0.00000000000E+00  0.69026066619E+03  0.69026066619E+03  0.00000000000E+00 0. -1.
         -1   -1    0    0    0  501 -0.00000000000E+00 -0.00000000000E+00 -0.10766907689E+04  0.10766907689E+04  0.00000000000E+00 0.  1.
         23    2    1    2    0    0 -0.58248274106E+03  0.33893472087E+03 -0.51811772720E+03  0.85510603204E+03  0.92722479156E+02 0.  0.
    5000000    2    1    2    0    0  0.58248274106E+03 -0.33893472087E+03  0.13168762454E+03  0.91184540301E+03  0.59996459886E+03 0.  0.
         23    2    4    4    0    0 -0.88432413961E+02  0.22559291739E+01  0.83126219700E+02  0.15213003516E+03  0.91696227515E+02 0.  0.
         23    2    4    4    0    0  0.67091515502E+03 -0.34119065005E+03  0.48561404843E+02  0.75971536785E+03  0.90945176836E+02 0.  0.
          5    1    3    3  502    0 -0.34853278984E+03  0.15680716606E+03 -0.26317145604E+03  0.46405268903E+03  0.47000000000E+01 0. -1.
         -5    1    3    3    0  502 -0.23394995122E+03  0.18212755481E+03 -0.25494627116E+03  0.39105334301E+03  0.47000000000E+01 0.  1.
         13    1    5    5    0    0 -0.64515202384E+02  0.44394800523E+02  0.43831538515E+02  0.89745826760E+02  0.00000000000E+00 0. -1.
        -13    1    5    5    0    0 -0.23917211577E+02 -0.42138871349E+02  0.39294681185E+02  0.62384208399E+02  0.00000000000E+00 0.  1.
          2    1    6    6  503    0  0.29810831042E+03 -0.13278511411E+03 -0.20843124149E+02  0.32700900155E+03  0.00000000000E+00 0. -1.
         -2    1    6    6    0  503  0.37280684460E+03 -0.20840553594E+03  0.69404528992E+02  0.43270636630E+03  0.00000000000E+00 0.  1.
<mgrwt>
<rscale>  0 0.77947437E+03</rscale>
<asrwt>0</asrwt>
<pdfrwt beam="1">  1        1 0.10619395E+00 0.77947437E+03</pdfrwt>
<pdfrwt beam="2">  1       -1 0.16564473E+00 0.77947437E+03</pdfrwt>
<totfact> 0.75863304E+00</totfact>
</mgrwt>
</event>
<event>
12    1  0.3203156E-008  0.3844609E+03  0.7818608E-02  0.1049297E+00
          2   -1    0    0  501    0  0.00000000000E+00  0.00000000000E+00  0.15891292497E+04  0.15891292497E+04  0.00000000000E+00 0. -1.
         -2   -1    0    0    0  501 -0.00000000000E+00 -0.00000000000E+00 -0.22419595089E+03  0.22419595089E+03  0.00000000000E+00 0.  1.
         23    2    1    2    0    0  0.34927041943E+03 -0.62106729009E+02  0.11775937211E+03  0.38454954215E+03  0.90354905629E+02 0.  0.
    5000000    2    1    2    0    0 -0.34927041943E+03  0.62106729009E+02  0.12471739267E+04  0.14287756585E+04  0.60009166551E+03 0.  0.
         23    2    4    4    0    0 -0.79904768510E+02 -0.32833108878E+02  0.10754653572E+04  0.10827535170E+04  0.90921168554E+02 0.  0.
         23    2    4    4    0    0 -0.26936565092E+03  0.94939837887E+02  0.17170856953E+03  0.34602214150E+03  0.93145385512E+02 0.  0.
          5    1    3    3  502    0  0.14999995292E+03  0.14659644145E+02  0.67003872855E+02  0.16500454545E+03  0.47000000000E+01 0. -1.
         -5    1    3    3    0  502  0.19927046651E+03 -0.76766373154E+02  0.50755499255E+02  0.21954499670E+03  0.47000000000E+01 0.  1.
         11    1    5    5    0    0  0.14630145186E+02  0.99919734718E+00  0.43294628641E+02  0.45710659727E+02  0.00000000000E+00 0. -1.
        -11    1    5    5    0    0 -0.94534913697E+02 -0.33832306225E+02  0.10321707286E+04  0.10370428572E+04  0.00000000000E+00 0.  1.
          1    1    6    6  503    0 -0.56475070101E+01  0.11584301707E+02 -0.89310902472E+01  0.15679756199E+02  0.00000000000E+00 0. -1.
         -1    1    6    6    0  503 -0.26371814391E+03  0.83355536179E+02  0.18063965978E+03  0.33034238530E+03  0.00000000000E+00 0.  1.
<mgrwt>
<rscale>  0 0.38446088E+03</rscale>
<asrwt>0</asrwt>
<pdfrwt beam="1">  1        2 0.24448142E+00 0.38446088E+03</pdfrwt>
<pdfrwt beam="2">  1       -2 0.34491686E-01 0.38446088E+03</pdfrwt>
<totfact> 0.95311649E+01</totfact>
</mgrwt>
</event>
<event>
12    1  0.3203156E-008  0.4725335E+03  0.7818608E-02  0.1021208E+00
          3   -1    0    0  501    0  0.00000000000E+00  0.00000000000E+00  0.57051576952E+03  0.57051576952E+03  0.00000000000E+00 0. -1.
         -3   -1    0    0    0  501 -0.00000000000E+00 -0.00000000000E+00 -0.63090980389E+03  0.63090980389E+03  0.00000000000E+00 0.  1.
         23    2    1    2    0    0 -0.43319074017E+03 -0.89827306993E+02 -0.63692702373E+02  0.45610476638E+03  0.90838511261E+02 0.  0.
    5000000    2    1    2    0    0  0.43319074017E+03  0.89827306993E+02  0.32986680004E+01  0.74532080704E+03  0.59980752057E+03 0.  0.
         23    2    4    4    0    0  0.26849417933E+03  0.14965540492E+03 -0.26320017302E+03  0.41341726763E+03  0.84579202751E+02 0.  0.
         23    2    4    4    0    0  0.16469656084E+03 -0.59828097931E+02  0.26649884102E+03  0.33190353941E+03  0.91836641651E+02 0.  0.
          5    1    3    3  502    0 -0.13675183355E+03 -0.35235269536E+02  0.21298236794E+02  0.14289259284E+03  0.47000000000E+01 0. -1.
         -5    1    3    3    0  502 -0.29643890662E+03 -0.54592037457E+02 -0.84990939167E+02  0.31321217354E+03  0.47000000000E+01 0.  1.
         13    1    5    5    0    0  0.10110474030E+01  0.19982473010E+02 -0.76796267910E+01  0.21431241497E+02  0.00000000000E+00 0. -1.
        -13    1    5    5    0    0  0.26748313193E+03  0.12967293191E+03 -0.25552054623E+03  0.39198602613E+03  0.00000000000E+00 0.  1.
          1    1    6    6  503    0  0.85471327514E+02 -0.62321544091E+02  0.20812543078E+03  0.23346416775E+03  0.00000000000E+00 0. -1.
         -1    1    6    6    0  503  0.79225233324E+02  0.24934461602E+01  0.58373410242E+02  0.98439371657E+02  0.00000000000E+00 0.  1.
<mgrwt>
<rscale>  0 0.47253346E+03</rscale>
<asrwt>0</asrwt>
<pdfrwt beam="1">  1        3 0.87771657E-01 0.47253346E+03</pdfrwt>
<pdfrwt beam="2">  1       -3 0.97063047E-01 0.47253346E+03</pdfrwt>
<totfact> 0.28937230E+00</totfact>
</mgrwt>
</event>
<event>
12    1  0.3203156E-008  0.7311883E+03  0.7818608E-02  0.9665334E-01
          2   -1    0    0  501    0  0.00000000000E+00  0.00000000000E+00  0.19064690537E+04  0.19064690537E+04  0.00000000000E+00 0. -1.
         -2   -1    0    0    0  501 -0.00000000000E+00 -0.00000000000E+00 -0.33586477443E+03  0.33586477443E+03  0.00000000000E+00 0.  1.
         23    2    1    2    0    0  0.35854341126E+03 -0.54823811903E+03  0.95371811982E+03  0.11606326418E+04  0.91495705539E+02 0.  0.
    5000000    2    1    2    0    0 -0.35854341126E+03  0.54823811903E+03  0.61688615946E+03  0.10817011864E+04  0.60034199418E+03 0.  0.
         23    2    4    4    0    0  0.44540910415E+02 -0.32223189004E+02  0.26982697054E+03  0.28917381414E+03  0.88276124406E+02 0.  0.
         23    2    4    4    0    0 -0.40308432167E+03  0.58046130803E+03  0.34705918892E+03  0.79252737224E+03  0.90759322615E+02 0.  0.
          5    1    3    3  502    0  0.13248515605E+03 -0.13567734372E+03  0.30751615636E+03  0.36131556096E+03  0.47000000000E+01 0. -1.
         -5    1    3    3    0  502  0.22605825521E+03 -0.41256077531E+03  0.64620196345E+03  0.79931708079E+03  0.47000000000E+01 0.  1.
         13    1    5    5    0    0 -0.18124635510E+02  0.42406190866E+01  0.13326740764E+03  0.13456109097E+03  0.00000000000E+00 0.  1.
        -13    1    5    5    0    0  0.62665545924E+02 -0.36463808091E+02  0.13655956290E+03  0.15461272317E+03  0.00000000000E+00 0. -1.
          1    1    6    6  503    0 -0.30121147026E+03  0.48833975052E+03  0.29912870424E+03  0.64705644534E+03  0.00000000000E+00 0. -1.
         -1    1    6    6    0  503 -0.10187285141E+03  0.92121557515E+02  0.47930484678E+02  0.14547092690E+03  0.00000000000E+00 0.  1.
<mgrwt>
<rscale>  0 0.73118835E+03</rscale>
<asrwt>0</asrwt>
<pdfrwt beam="1">  1        2 0.29330292E+00 0.73118835E+03</pdfrwt>
<pdfrwt beam="2">  1       -2 0.51671505E-01 0.73118835E+03</pdfrwt>
<totfact> 0.27534748E+01</totfact>
</mgrwt>
</event>
<event>
12    1  0.3203156E-008  0.7552187E+03  0.7818608E-02  0.9627198E-01
          1   -1    0    0  501    0  0.00000000000E+00  0.00000000000E+00  0.19270798414E+04  0.19270798414E+04  0.00000000000E+00 0. -1.
         -1   -1    0    0    0  501 -0.00000000000E+00 -0.00000000000E+00 -0.30661766594E+03  0.30661766594E+03  0.00000000000E+00 0.  1.
         23    2    1    2    0    0 -0.64075043370E+03  0.71868376494E+02  0.59343990144E+03  0.88076890183E+03  0.88638366284E+02 0.  0.
    5000000    2    1    2    0    0  0.64075043370E+03 -0.71868376494E+02  0.10270222740E+04  0.13529286055E+04  0.59992906119E+03 0.  0.
         23    2    4    4    0    0 -0.23410265982E+02  0.15186922535E+03  0.18547675460E+03  0.25402014932E+03  0.80698869902E+02 0.  0.
         23    2    4    4    0    0  0.66416069969E+03 -0.22373760184E+03  0.84154551942E+03  0.10989084562E+04  0.90735794227E+02 0.  0.
          5    1    3    3  502    0 -0.25525971712E+02  0.21126712179E+02  0.28534960841E+02  0.43980077188E+02  0.47000000000E+01 0. -1.
         -5    1    3    3    0  502 -0.61522446199E+03  0.50741664315E+02  0.56490494060E+03  0.83678882464E+03  0.47000000000E+01 0.  1.
         11    1    5    5    0    0 -0.10923077256E+02  0.13783048056E+03  0.18972247503E+03  0.23475768895E+03  0.00000000000E+00 0.  1.
        -11    1    5    5    0    0 -0.12487188726E+02  0.14038744787E+02 -0.42457204363E+01  0.19262460369E+02  0.00000000000E+00 0. -1.
          2    1    6    6  503    0  0.33895150776E+03 -0.88002938004E+02  0.36040142685E+03  0.50251550243E+03  0.00000000000E+00 0. -1.
         -2    1    6    6    0  503  0.32520919192E+03 -0.13573466384E+03  0.48114409257E+03  0.59639295376E+03  0.00000000000E+00 0.  1.
<mgrwt>
<rscale>  0 0.75521868E+03</rscale>
<asrwt>0</asrwt>
<pdfrwt beam="1">  1        1 0.29647381E+00 0.75521868E+03</pdfrwt>
<pdfrwt beam="2">  1       -1 0.47171950E-01 0.75521868E+03</pdfrwt>
<totfact> 0.15584080E+01</totfact>
</mgrwt>
</event>
<event>
12    1  0.3203156E-008  0.5104015E+03  0.7818608E-02  0.1011099E+00
         -2   -1    0    0    0  501 -0.00000000000E+00  0.00000000000E+00  0.17196213880E+03  0.17196213880E+03  0.00000000000E+00 0. -1.
          2   -1    0    0  501    0  0.00000000000E+00 -0.00000000000E+00 -0.18291102569E+04  0.18291102569E+04  0.00000000000E+00 0.  1.
         23    2    1    2    0    0  0.46402630101E+02 -0.37317153849E+03 -0.38680550281E+03  0.54674218808E+03  0.88872504194E+02 0.  0.
    5000000    2    1    2    0    0 -0.46402630101E+02  0.37317153849E+03 -0.12703426153E+04  0.14543302076E+04  0.59991315317E+03 0.  0.
         23    2    4    4    0    0  0.16436678322E+03  0.38039687430E+03 -0.10640774886E+04  0.11456029820E+04  0.91799069459E+02 0.  0.
         23    2    4    4    0    0 -0.21076941332E+03 -0.72253358119E+01 -0.20626512665E+03  0.30872722560E+03  0.91056280886E+02 0.  0.
          5    1    3    3  502    0 -0.10044487241E+02 -0.16505275840E+03 -0.21328841834E+03  0.26992099618E+03  0.47000000000E+01 0. -1.
         -5    1    3    3    0  502  0.56447117342E+02 -0.20811878009E+03 -0.17351708447E+03  0.27682119190E+03  0.47000000000E+01 0.  1.
         11    1    5    5    0    0  0.61825689480E+01  0.11661513578E+03 -0.30286555656E+03  0.32459953697E+03  0.00000000000E+00 0. -1.
        -11    1    5    5    0    0  0.15818421427E+03  0.26378173852E+03 -0.76121193208E+03  0.82100344503E+03  0.00000000000E+00 0.  1.
          2    1    6    6  503    0 -0.36958898539E+02  0.15435259151E+02 -0.89670648035E+02  0.98209126487E+02  0.00000000000E+00 0. -1.
         -2    1    6    6    0  503 -0.17381051478E+03 -0.22660594963E+02 -0.11659447861E+03  0.21051809912E+03  0.00000000000E+00 0.  1.
<mgrwt>
<rscale>  0 0.51040152E+03</rscale>
<asrwt>0</asrwt>
<pdfrwt beam="1">  1        2 0.28140157E+00 0.51040152E+03</pdfrwt>
<pdfrwt beam="2">  1       -2 0.26455715E-01 0.51040152E+03</pdfrwt>
<totfact> 0.11309573E+02</totfact>
</mgrwt>
</event>
<event>
12    1  0.3203156E-008  0.1723825E+04  0.7818608E-02  0.8747891E-01
          2   -1    0    0  501    0  0.00000000000E+00  0.00000000000E+00  0.18790243315E+04  0.18790243315E+04  0.00000000000E+00 0. -1.
         -2   -1    0    0    0  501 -0.00000000000E+00 -0.00000000000E+00 -0.16017319435E+04  0.16017319435E+04  0.00000000000E+00 0.  1.
         23    2    1    2    0    0 -0.16638177525E+04 -0.21874450746E+03  0.24298033807E+03  0.16982356083E+04  0.93947131849E+02 0.  0.
    5000000    2    1    2    0    0  0.16638177525E+04  0.21874450746E+03  0.34312049932E+02  0.17825206667E+04  0.60005327872E+03 0.  0.
         23    2    4    4    0    0  0.50807212155E+03 -0.18158752254E+03 -0.70330557080E+02  0.55157936655E+03  0.90454968392E+02 0.  0.
         23    2    4    4    0    0  0.11557456309E+04  0.40033203000E+03  0.10464260701E+03  0.12309413001E+04  0.90844435509E+02 0.  0.
          5    1    3    3  502    0 -0.94723212706E+03 -0.79425124857E+02  0.14964271900E+03  0.96227443400E+03  0.47000000000E+01 0. -1.
         -5    1    3    3    0  502 -0.71658562542E+03 -0.13931938260E+03  0.93337619071E+02  0.73596117429E+03  0.47000000000E+01 0.  1.
         11    1    5    5    0    0  0.34191039902E+03 -0.13937305754E+03 -0.84790326798E+01  0.36932298076E+03  0.00000000000E+00 0. -1.
        -11    1    5    5    0    0  0.16616172253E+03 -0.42214465008E+02 -0.61851524400E+02  0.18225638579E+03  0.00000000000E+00 0.  1.
          2    1    6    6  503    0  0.53471433358E+03  0.13800822438E+03  0.39827759998E+02  0.55367132759E+03  0.00000000000E+00 0. -1.
         -2    1    6    6    0  503  0.62103129735E+03  0.26232380562E+03  0.64814847014E+02  0.67726997252E+03  0.00000000000E+00 0.  1.
<mgrwt>
<rscale>  0 0.17238253E+04</rscale>
<asrwt>0</asrwt>
<pdfrwt beam="1">  1        2 0.28908067E+00 0.17238253E+04</pdfrwt>
<pdfrwt beam="2">  1       -2 0.24642030E+00 0.17238253E+04</pdfrwt>
<totfact> 0.48389471E-01</totfact>
</mgrwt>
</event>
<event>
12    1  0.3203156E-008  0.1102425E+04  0.7818608E-02  0.9202832E-01
         -1   -1    0    0    0  501 -0.00000000000E+00  0.00000000000E+00  0.47445400943E+03  0.47445400943E+03  0.00000000000E+00 0.  1.
          1   -1    0    0  501    0  0.00000000000E+00 -0.00000000000E+00 -0.35308272644E+04  0.35308272644E+04  0.00000000000E+00 0. -1.
         23    2    1    2    0    0 -0.13773209863E+02 -0.10695756157E+04 -0.53045710654E+03  0.11973450720E+04  0.89826390757E+02 0.  0.
    5000000    2    1    2    0    0  0.13773209863E+02  0.10695756157E+04 -0.25259161484E+04  0.28079362018E+04  0.60005968512E+03 0.  0.
         23    2    4    4    0    0 -0.15082603543E+02  0.36887961930E+02 -0.29298098178E+02  0.10466956539E+03  0.92244960285E+02 0.  0.
         23    2    4    4    0    0  0.28855813406E+02  0.10326876538E+04 -0.24966180502E+04  0.27032666365E+04  0.85278195752E+02 0.  0.
          5    1    3    3  502    0  0.61609932674E+01 -0.72682488236E+03 -0.40285465327E+03  0.83103930660E+03  0.47000000000E+01 0. -1.
         -5    1    3    3    0  502 -0.19934203131E+02 -0.34275073336E+03 -0.12760245327E+03  0.36630576538E+03  0.47000000000E+01 0.  1.
         13    1    5    5    0    0  0.35554640146E+02  0.31347052271E+02 -0.24895348149E+02  0.53540157652E+02  0.00000000000E+00 0.  1.
        -13    1    5    5    0    0 -0.50637243688E+02  0.55409096589E+01 -0.44027500296E+01  0.51129407742E+02  0.00000000000E+00 0. -1.
          1    1    6    6  503    0  0.41480807119E+02  0.24455914632E+03 -0.56922834615E+03  0.62092732543E+03  0.00000000000E+00 0. -1.
         -1    1    6    6    0  503 -0.12624993712E+02  0.78812850747E+03 -0.19273897041E+04  0.20823393110E+04  0.00000000000E+00 0.  1.
<mgrwt>
<rscale>  0 0.11024248E+04</rscale>
<asrwt>0</asrwt>
<pdfrwt beam="1">  1        1 0.54320419E+00 0.11024248E+04</pdfrwt>
<pdfrwt beam="2">  1       -1 0.72992925E-01 0.11024248E+04</pdfrwt>
<totfact> 0.45712866E-01</totfact>
</mgrwt>
</event>
<event>
12    1  0.3203156E-008  0.1559321E+04  0.7818608E-02  0.8845936E-01
          1   -1    0    0  501    0  0.00000000000E+00  0.00000000000E+00  0.14880792102E+04  0.14880792102E+04  0.00000000000E+00 0. -1.
         -1   -1    0    0    0  501 -0.00000000000E+00 -0.00000000000E+00 -0.19944608759E+04  0.19944608759E+04  0.00000000000E+00 0.  1.
         23    2    1    2    0    0 -0.15455391077E+04 -0.19266674024E+03 -0.85245352090E+03  0.17779497967E+04  0.92827085963E+02 0.  0.
    5000000    2    1    2    0    0  0.15455391077E+04  0.19266674024E+03  0.34607185518E+03  0.17045902894E+04  0.60004226470E+03 0.  0.
         23    2    4    4    0    0  0.46037382728E+03  0.30591364351E+02 -0.15504147251E+03  0.49504132018E+03  0.90267148321E+02 0.  0.
         23    2    4    4    0    0  0.10851652804E+04  0.16207537589E+03  0.50111332769E+03  0.12095489692E+04  0.89677357146E+02 0.  0.
          5    1    3    3  502    0 -0.12426027468E+04 -0.14290141107E+03 -0.64413640383E+03  0.14069172671E+04  0.47000000000E+01 0. -1.
         -5    1    3    3    0  502 -0.30293636090E+03 -0.49765329170E+02 -0.20831711706E+03  0.37103252958E+03  0.47000000000E+01 0.  1.
         13    1    5    5    0    0  0.28974254918E+03 -0.25806033122E+01 -0.56448279259E+02  0.29520130852E+03  0.00000000000E+00 0.  1.
        -13    1    5    5    0    0  0.17063127810E+03  0.33171967663E+02 -0.98593193248E+02  0.19984001166E+03  0.00000000000E+00 0. -1.
          3    1    6    6  503    0  0.14984026737E+03  0.24979547484E+02  0.10460613776E+03  0.18444112225E+03  0.00000000000E+00 0. -1.
         -3    1    6    6    0  503  0.93532501306E+03  0.13709582841E+03  0.39650718993E+03  0.10251078470E+04  0.00000000000E+00 0.  1.
<mgrwt>
<rscale>  0 0.15593207E+04</rscale>
<asrwt>0</asrwt>
<pdfrwt beam="1">  1        1 0.22893526E+00 0.15593207E+04</pdfrwt>
<pdfrwt beam="2">  1       -1 0.30684013E+00 0.15593207E+04</pdfrwt>
<totfact> 0.18673471E-01</totfact>
</mgrwt>
</event>
<event>
12    1  0.3203156E-008  0.1644302E+04  0.7818608E-02  0.8793784E-01
          1   -1    0    0  501    0  0.00000000000E+00  0.00000000000E+00  0.42018012222E+04  0.42018012222E+04  0.00000000000E+00 0. -1.
         -1   -1    0    0    0  501 -0.00000000000E+00 -0.00000000000E+00 -0.97607666600E+03  0.97607666600E+03  0.00000000000E+00 0.  1.
         23    2    1    2    0    0  0.13351273662E+04  0.90297419306E+03  0.10871120862E+03  0.16180109251E+04  0.90629739267E+02 0.  0.
    5000000    2    1    2    0    0 -0.13351273662E+04 -0.90297419306E+03  0.31170133476E+04  0.35598669631E+04  0.59912695545E+03 0.  0.
         23    2    4    4    0    0 -0.13170276487E+04 -0.81998365181E+03  0.30410800301E+04  0.34151404696E+04  0.89898061712E+02 0.  0.
         23    2    4    4    0    0 -0.18099717486E+02 -0.82990541251E+02  0.75933317513E+02  0.14472649345E+03  0.89246061476E+02 0.  0.
          5    1    3    3  502    0  0.11380009100E+04  0.79607436056E+03  0.71527320051E+02  0.13906540570E+04  0.47000000000E+01 0. -1.
         -5    1    3    3    0  502  0.19712645612E+03  0.10689983250E+03  0.37183888567E+02  0.22735686807E+03  0.47000000000E+01 0.  1.
         11    1    5    5    0    0 -0.57185317327E+03 -0.31108455190E+03  0.12250033996E+04  0.13872357331E+04  0.00000000000E+00 0.  1.
        -11    1    5    5    0    0 -0.74517447541E+03 -0.50889909991E+03  0.18160766304E+04  0.20279047365E+04  0.00000000000E+00 0. -1.
          4    1    6    6  503    0 -0.46665865976E+02 -0.16033990411E+02  0.21471336443E+02  0.53812732549E+02  0.00000000000E+00 0. -1.
         -4    1    6    6    0  503  0.28566148490E+02 -0.66956550840E+02  0.54461981071E+02  0.90913760906E+02  0.00000000000E+00 0.  1.
<mgrwt>
<rscale>  0 0.16443024E+04</rscale>
<asrwt>0</asrwt>
<pdfrwt beam="1">  1        1 0.64643095E+00 0.16443024E+04</pdfrwt>
<pdfrwt beam="2">  1       -1 0.15016564E+00 0.16443024E+04</pdfrwt>
<totfact> 0.20727138E-02</totfact>
</mgrwt>
</event>
<event>
12    1  0.3203156E-008  0.4168533E+03  0.7818608E-02  0.1038095E+00
          1   -1    0    0  501    0  0.00000000000E+00  0.00000000000E+00  0.12118938533E+04  0.12118938533E+04  0.00000000000E+00 0. -1.
         -1   -1    0    0    0  501 -0.00000000000E+00 -0.00000000000E+00 -0.19392499007E+03  0.19392499007E+03  0.00000000000E+00 0.  1.
         23    2    1    2    0    0  0.10982589591E+03 -0.20118198312E+03  0.57511463406E+03  0.62578281717E+03  0.91166738557E+02 0.  0.
    5000000    2    1    2    0    0 -0.10982589591E+03  0.20118198312E+03  0.44285422921E+03  0.78003602624E+03  0.59983365707E+03 0.  0.
         23    2    4    4    0    0 -0.33286372538E+03  0.58918996783E+02  0.32162863686E+03  0.47527199424E+03  0.90381306732E+02 0.  0.
         23    2    4    4    0    0  0.22303782947E+03  0.14226298634E+03  0.12122559235E+03  0.30476403200E+03  0.90558491059E+02 0.  0.
          5    1    3    3  502    0  0.44547813655E+02 -0.90057335084E+02  0.37055427196E+03  0.38396274529E+03  0.47000000000E+01 0. -1.
         -5    1    3    3    0  502  0.65278082254E+02 -0.11112464804E+03  0.20456036210E+03  0.24182007188E+03  0.47000000000E+01 0.  1.
         11    1    5    5    0    0 -0.13890428279E+03  0.33317111624E+02  0.77799649371E+02  0.16265674024E+03  0.00000000000E+00 0. -1.
        -11    1    5    5    0    0 -0.19395944259E+03  0.25601885159E+02  0.24382898749E+03  0.31261525400E+03  0.00000000000E+00 0.  1.
          2    1    6    6  503    0  0.65882322520E+02  0.55586304058E+02 -0.33962926813E+01  0.86266171953E+02  0.00000000000E+00 0. -1.
         -2    1    6    6    0  503  0.15715550695E+03  0.86676682280E+02  0.12462188503E+03  0.21849786005E+03  0.00000000000E+00 0.  1.
<mgrwt>
<rscale>  0 0.41685331E+03</rscale>
<asrwt>0</asrwt>
<pdfrwt beam="1">  1        1 0.18644520E+00 0.41685331E+03</pdfrwt>
<pdfrwt beam="2">  1       -1 0.29834615E-01 0.41685331E+03</pdfrwt>
<totfact> 0.11410219E+02</totfact>
</mgrwt>
</event>
<event>
12    1  0.3203156E-008  0.4499880E+03  0.7818608E-02  0.1027726E+00
         -2   -1    0    0    0  501 -0.00000000000E+00  0.00000000000E+00  0.69660336872E+03  0.69660336872E+03  0.00000000000E+00 0.  1.
          2   -1    0    0  501    0  0.00000000000E+00 -0.00000000000E+00 -0.13990017574E+04  0.13990017574E+04  0.00000000000E+00 0. -1.
         23    2    1    2    0    0  0.12559522770E+03 -0.31913719040E+03  0.55626968655E+03  0.65973548258E+03  0.90510967742E+02 0.  0.
    5000000    2    1    2    0    0 -0.12559522770E+03  0.31913719040E+03 -0.12586680752E+04  0.14358696435E+04  0.59987798937E+03 0.  0.
         23    2    4    4    0    0  0.14843178779E+03  0.59924792461E+02 -0.90213142515E+02  0.20458307245E+03  0.89960247182E+02 0.  0.
         23    2    4    4    0    0 -0.27402701549E+03  0.25921239794E+03 -0.11684549327E+04  0.12312865711E+04  0.92183609780E+02 0.  0.
          5    1    3    3  502    0  0.13269392850E+03 -0.27489570542E+03  0.51474658881E+03  0.59846592903E+03  0.47000000000E+01 0. -1.
         -5    1    3    3    0  502 -0.70987007949E+01 -0.44241484983E+02  0.41523097747E+02  0.61269553556E+02  0.47000000000E+01 0.  1.
         13    1    5    5    0    0  0.11270134137E+03  0.13462760413E+02 -0.91753796955E+02  0.14595066810E+03  0.00000000000E+00 0.  1.
        -13    1    5    5    0    0  0.35730446418E+02  0.46462032047E+02  0.15406544396E+01  0.58632404345E+02  0.00000000000E+00 0. -1.
          3    1    6    6  503    0 -0.23329669535E+03  0.22803982317E+03 -0.88470230062E+03  0.94293566575E+03  0.00000000000E+00 0. -1.
         -3    1    6    6    0  503 -0.40730320144E+02  0.31172574771E+02 -0.28375263208E+03  0.28835090534E+03  0.00000000000E+00 0.  1.
<mgrwt>
<rscale>  0 0.44998803E+03</rscale>
<asrwt>0</asrwt>
<pdfrwt beam="1">  1        2 0.21523104E+00 0.44998803E+03</pdfrwt>
<pdfrwt beam="2">  1       -2 0.10716975E+00 0.44998803E+03</pdfrwt>
<totfact> 0.10913517E+01</totfact>
</mgrwt>
</event>
<event>
12    1  0.3203156E-008  0.5468986E+03  0.7818608E-02  0.1002214E+00
          1   -1    0    0  501    0  0.00000000000E+00  0.00000000000E+00  0.11887123925E+04  0.11887123925E+04  0.00000000000E+00 0. -1.
         -1   -1    0    0    0  501 -0.00000000000E+00 -0.00000000000E+00 -0.47014913226E+03  0.47014913226E+03  0.00000000000E+00 0.  1.
         23    2    1    2    0    0  0.38925866936E+03 -0.43576794365E+02  0.84068851701E+03  0.93202055113E+03  0.92107960665E+02 0.  0.
    5000000    2    1    2    0    0 -0.38925866936E+03  0.43576794365E+02 -0.12212525672E+03  0.72684097367E+03  0.59996831082E+03 0.  0.
         23    2    4    4    0    0  0.17299166514E+02  0.24077165439E+03 -0.52133529027E+02  0.26065164474E+03  0.83373403053E+02 0.  0.
         23    2    4    4    0    0 -0.40655783588E+03 -0.19719486002E+03 -0.69991727696E+02  0.46618932893E+03  0.90876629164E+02 0.  0.
          5    1    3    3  502    0  0.10654280365E+03 -0.46082413227E+02  0.19251763576E+03  0.22485570461E+03  0.47000000000E+01 0. -1.
         -5    1    3    3    0  502  0.28271586572E+03  0.25056188619E+01  0.64817088125E+03  0.70716484652E+03  0.47000000000E+01 0.  1.
         11    1    5    5    0    0 -0.50792434731E+01  0.66671816445E+02  0.21592545790E+02  0.70264983143E+02  0.00000000000E+00 0. -1.
        -11    1    5    5    0    0  0.22378409987E+02  0.17409983794E+03 -0.73726074817E+02  0.19038666159E+03  0.00000000000E+00 0.  1.
          3    1    6    6  503    0 -0.29688865598E+03 -0.13236332207E+03 -0.89860701535E+02  0.33725045405E+03  0.00000000000E+00 0. -1.
         -3    1    6    6    0  503 -0.10966917990E+03 -0.64831537950E+02  0.19868973839E+02  0.12893887488E+03  0.00000000000E+00 0.  1.
<mgrwt>
<rscale>  0 0.54689859E+03</rscale>
<asrwt>0</asrwt>
<pdfrwt beam="1">  1        1 0.18287883E+00 0.54689859E+03</pdfrwt>
<pdfrwt beam="2">  1       -1 0.72330636E-01 0.54689859E+03</pdfrwt>
<totfact> 0.22289659E+01</totfact>
</mgrwt>
</event>
<event>
12    1  0.3203156E-008  0.1099042E+04  0.7818608E-02  0.9206127E-01
          2   -1    0    0  501    0  0.00000000000E+00  0.00000000000E+00  0.11935857058E+04  0.11935857058E+04  0.00000000000E+00 0. -1.
         -2   -1    0    0    0  501 -0.00000000000E+00 -0.00000000000E+00 -0.11279541609E+04  0.11279541609E+04  0.00000000000E+00 0.  1.
         23    2    1    2    0    0  0.33206244928E+02 -0.10292235439E+04 -0.29234709601E+03  0.10769248641E+04  0.11788375846E+03 0.  0.
    5000000    2    1    2    0    0 -0.33206244928E+02  0.10292235439E+04  0.35797864092E+03  0.12446150025E+04  0.60042821317E+03 0.  0.
         23    2    4    4    0    0  0.24651886039E+03  0.31653458256E+03  0.48939797611E+02  0.41373013065E+03  0.88384539020E+02 0.  0.
         23    2    4    4    0    0 -0.27972510532E+03  0.71268896132E+03  0.30903884331E+03  0.83088487186E+03  0.93236116888E+02 0.  0.
          5    1    3    3  502    0  0.44307229232E+02 -0.87466922517E+03 -0.20689458137E+03  0.89990935200E+03  0.47000000000E+01 0.  1.
         -5    1    3    3    0  502 -0.11100984303E+02 -0.15455431870E+03 -0.85452514632E+02  0.17701551214E+03  0.47000000000E+01 0. -1.
         11    1    5    5    0    0  0.63199394343E+02  0.88668539088E+02  0.53327324361E+02  0.12124387322E+03  0.00000000000E+00 0.  1.
        -11    1    5    5    0    0  0.18331946605E+03  0.22786604347E+03 -0.43875267495E+01  0.29248625743E+03  0.00000000000E+00 0. -1.
          3    1    6    6  503    0 -0.22341696206E+03  0.54458497791E+03  0.19500406085E+03  0.62009234865E+03  0.00000000000E+00 0. -1.
         -3    1    6    6    0  503 -0.56308143262E+02  0.16810398340E+03  0.11403478246E+03  0.21079252322E+03  0.00000000000E+00 0.  1.
<mgrwt>
<rscale>  0 0.10990415E+04</rscale>
<asrwt>0</asrwt>
<pdfrwt beam="1">  1        2 0.18362857E+00 0.10990415E+04</pdfrwt>
<pdfrwt beam="2">  1       -2 0.17353141E+00 0.10990415E+04</pdfrwt>
<totfact> 0.37722094E+00</totfact>
</mgrwt>
</event>
<event>
12    1  0.3203156E-008  0.2388017E+04  0.7818608E-02  0.8444003E-01
         -1   -1    0    0    0  501 -0.00000000000E+00  0.00000000000E+00  0.29020555093E+04  0.29020555093E+04  0.00000000000E+00 0.  1.
          1   -1    0    0  501    0  0.00000000000E+00 -0.00000000000E+00 -0.22285695448E+04  0.22285695448E+04  0.00000000000E+00 0. -1.
         23    2    1    2    0    0  0.22962905556E+04  0.55742471342E+03  0.11768468001E+04  0.26413056803E+04  0.88626627334E+02 0.  0.
    5000000    2    1    2    0    0 -0.22962905556E+04 -0.55742471342E+03 -0.50336083558E+03  0.24893193738E+04  0.59972175827E+03 0.  0.
         23    2    4    4    0    0 -0.22452027098E+04 -0.54910605790E+03 -0.40377408260E+03  0.23482203849E+04  0.93020402466E+02 0.  0.
         23    2    4    4    0    0 -0.51087845760E+02 -0.83186555121E+01 -0.99586752978E+02  0.14109898893E+03  0.85511609114E+02 0.  0.
          5    1    3    3  502    0  0.11992877245E+04  0.33276874728E+03  0.60018138215E+03  0.13817618705E+04  0.47000000000E+01 0. -1.
         -5    1    3    3    0  502  0.10970028311E+04  0.22465596614E+03  0.57666541791E+03  0.12595438098E+04  0.47000000000E+01 0.  1.
         11    1    5    5    0    0 -0.11249495524E+04 -0.24575796167E+03 -0.16380376716E+03  0.11630735769E+04  0.00000000000E+00 0. -1.
        -11    1    5    5    0    0 -0.11202531574E+04 -0.30334809624E+03 -0.23997031544E+03  0.11851468080E+04  0.00000000000E+00 0.  1.
          4    1    6    6  503    0 -0.34806778140E+02 -0.46486421912E+02 -0.64148249653E+02  0.86530325091E+02  0.00000000000E+00 0.  1.
         -4    1    6    6    0  503 -0.16281067620E+02  0.38167766400E+02 -0.35438503325E+02  0.54568663835E+02  0.00000000000E+00 0. -1.
<mgrwt>
<rscale>  0 0.23880175E+04</rscale>
<asrwt>0</asrwt>
<pdfrwt beam="1">  1        1 0.34285685E+00 0.23880175E+04</pdfrwt>
<pdfrwt beam="2">  1       -1 0.44647008E+00 0.23880175E+04</pdfrwt>
<totfact> 0.60406067E-03</totfact>
</mgrwt>
</event>
<event>
12    1  0.3203156E-008  0.4183467E+03  0.7818608E-02  0.1037606E+00
          1   -1    0    0  501    0  0.00000000000E+00  0.00000000000E+00  0.22917648186E+03  0.22917648186E+03  0.00000000000E+00 0. -1.
         -1   -1    0    0    0  501 -0.00000000000E+00 -0.00000000000E+00 -0.14744730082E+04  0.14744730082E+04  0.00000000000E+00 0.  1.
         23    2    1    2    0    0  0.23528571915E+03 -0.32883117685E+03 -0.62920990442E+03  0.75337573056E+03  0.90446531511E+02 0.  0.
    5000000    2    1    2    0    0 -0.23528571915E+03  0.32883117685E+03 -0.61608662195E+03  0.95027375953E+03  0.59997348258E+03 0.  0.
         23    2    4    4    0    0 -0.10794676746E+03  0.22072757087E+03 -0.69615809723E+03  0.74403563096E+03  0.92626986640E+02 0.  0.
         23    2    4    4    0    0 -0.12733895170E+03  0.10810360597E+03  0.80071475283E+02  0.20623812857E+03  0.90670426696E+02 0.  0.
          5    1    3    3  502    0  0.13362314307E+03 -0.17831101621E+03 -0.42601627273E+03  0.48079300899E+03  0.47000000000E+01 0.  1.
         -5    1    3    3    0  502  0.10166257608E+03 -0.15052016064E+03 -0.20319363170E+03  0.27258272156E+03  0.47000000000E+01 0. -1.
         11    1    5    5    0    0 -0.17750606713E+02 -0.43544150581E+01 -0.30125947487E+02  0.35236595766E+02  0.00000000000E+00 0. -1.
        -11    1    5    5    0    0 -0.90196160746E+02  0.22508198593E+03 -0.66603214975E+03  0.70879903520E+03  0.00000000000E+00 0.  1.
          1    1    6    6  503    0 -0.57423207802E+02  0.24635385219E+02 -0.12024263531E+02  0.63631045195E+02  0.00000000000E+00 0. -1.
         -1    1    6    6    0  503 -0.69915743894E+02  0.83468220755E+02  0.92095738814E+02  0.14260708337E+03  0.00000000000E+00 0.  1.
<mgrwt>
<rscale>  0 0.41834665E+03</rscale>
<asrwt>0</asrwt>
<pdfrwt beam="1">  1        1 0.35257919E-01 0.41834665E+03</pdfrwt>
<pdfrwt beam="2">  1       -1 0.22684201E+00 0.41834665E+03</pdfrwt>
<totfact> 0.13367589E+01</totfact>
</mgrwt>
</event>
<event>
12    1  0.3203156E-008  0.6539842E+03  0.7818608E-02  0.9799332E-01
          1   -1    0    0  501    0  0.00000000000E+00  0.00000000000E+00  0.18389415607E+04  0.18389415607E+04  0.00000000000E+00 0. -1.
         -1   -1    0    0    0  501 -0.00000000000E+00 -0.00000000000E+00 -0.24269776351E+03  0.24269776351E+03  0.00000000000E+00 0.  1.
         23    2    1    2    0    0  0.45919361254E+03  0.24801374789E+03  0.51464924329E+03  0.73910407366E+03  0.95086251048E+02 0.  0.
    5000000    2    1    2    0    0 -0.45919361254E+03 -0.24801374789E+03  0.10815945539E+04  0.13425352506E+04  0.60015375282E+03 0.  0.
         23    2    4    4    0    0  0.34302093271E+02 -0.27201355655E+03  0.46707747888E+03  0.54857359364E+03  0.87198668662E+02 0.  0.
         23    2    4    4    0    0 -0.49349570581E+03  0.23999808658E+02  0.61451707503E+03  0.79396165692E+03  0.92897118865E+02 0.  0.
          5    1    3    3  502    0  0.23905401302E+03  0.83165857873E+02  0.21261958030E+03  0.33059424826E+03  0.47000000000E+01 0. -1.
         -5    1    3    3    0  502  0.22013959952E+03  0.16484789002E+03  0.30202966299E+03  0.40850982540E+03  0.47000000000E+01 0.  1.
         13    1    5    5    0    0 -0.81138828003E-01 -0.22851470487E+03  0.33698958396E+03  0.40716207660E+03  0.00000000000E+00 0. -1.
        -13    1    5    5    0    0  0.34383232099E+02 -0.43498851676E+02  0.13008789492E+03  0.14141151704E+03  0.00000000000E+00 0.  1.
          3    1    6    6  503    0 -0.41611364105E+03  0.51290695379E+01  0.46123277136E+03  0.62121859196E+03  0.00000000000E+00 0. -1.
         -3    1    6    6    0  503 -0.77382064763E+02  0.18870739120E+02  0.15328430366E+03  0.17274306496E+03  0.00000000000E+00 0.  1.
<mgrwt>
<rscale>  0 0.65398419E+03</rscale>
<asrwt>0</asrwt>
<pdfrwt beam="1">  1        1 0.28291408E+00 0.65398419E+03</pdfrwt>
<pdfrwt beam="2">  1       -1 0.37338119E-01 0.65398419E+03</pdfrwt>
<totfact> 0.27801124E+01</totfact>
</mgrwt>
</event>
<event>
12    1  0.3203156E-008  0.5672713E+03  0.7818608E-02  0.9975735E-01
         -2   -1    0    0    0  501 -0.00000000000E+00  0.00000000000E+00  0.86488495337E+03  0.86488495337E+03  0.00000000000E+00 0.  1.
          2   -1    0    0  501    0  0.00000000000E+00 -0.00000000000E+00 -0.57411378365E+03  0.57411378365E+03  0.00000000000E+00 0. -1.
         23    2    1    2    0    0  0.45958623325E+02 -0.52837136143E+03 -0.10076541876E+03  0.54760856229E+03  0.91831243218E+02 0.  0.
    5000000    2    1    2    0    0 -0.45958623325E+02  0.52837136143E+03  0.39153658848E+03  0.89139017473E+03  0.59998921060E+03 0.  0.
         23    2    4    4    0    0  0.89682845731E+02  0.24212146891E+03 -0.10594247222E+03  0.29291412991E+03  0.88932904785E+02 0.  0.
         23    2    4    4    0    0 -0.13564146906E+03  0.28624989252E+03  0.49747906070E+03  0.59847604482E+03  0.10173765918E+03 0.  0.
          5    1    3    3  502    0  0.36130829644E+02 -0.27966033382E+03 -0.98245572399E+02  0.29864631533E+03  0.47000000000E+01 0. -1.
         -5    1    3    3    0  502  0.98277936813E+01 -0.24871102761E+03 -0.25198463609E+01  0.24896224695E+03  0.47000000000E+01 0.  1.
         11    1    5    5    0    0  0.94114507071E+02  0.13873469104E+03 -0.82341496253E+02  0.18677520431E+03  0.00000000000E+00 0. -1.
        -11    1    5    5    0    0 -0.44316613403E+01  0.10338677787E+03 -0.23600975963E+02  0.10613892560E+03  0.00000000000E+00 0.  1.
          3    1    6    6  503    0 -0.13469135298E+03  0.17329357884E+03  0.31720378097E+03  0.38573392863E+03  0.00000000000E+00 0. -1.
         -3    1    6    6    0  503 -0.95011607819E+00  0.11295631368E+03  0.18027527972E+03  0.21274211619E+03  0.00000000000E+00 0.  1.
<mgrwt>
<rscale>  0 0.56727127E+03</rscale>
<asrwt>0</asrwt>
<pdfrwt beam="1">  1        2 0.88325198E-01 0.56727127E+03</pdfrwt>
<pdfrwt beam="2">  1       -2 0.13305922E+00 0.56727127E+03</pdfrwt>
<totfact> 0.22095599E+01</totfact>
</mgrwt>
</event>
<event>
12    1  0.3203156E-008  0.1001953E+04  0.7818608E-02  0.9306406E-01
          2   -1    0    0  501    0  0.00000000000E+00  0.00000000000E+00  0.26450240156E+04  0.26450240156E+04  0.00000000000E+00 0. -1.
         -2   -1    0    0    0  501 -0.00000000000E+00 -0.00000000000E+00 -0.59807925080E+03  0.59807925080E+03  0.00000000000E+00 0.  1.
         23    2    1    2    0    0 -0.76465261261E+03 -0.51155488678E+03  0.19280751249E+04  0.21382338457E+04  0.90489068898E+02 0.  0.
    5000000    2    1    2    0    0  0.76465261261E+03  0.51155488678E+03  0.11886963989E+03  0.11048694207E+04  0.60018699191E+03 0.  0.
         23    2    4    4    0    0 -0.51003670952E+02 -0.19245694855E+02 -0.43390616603E+02  0.11418297133E+03  0.90461229883E+02 0.  0.
         23    2    4    4    0    0  0.81565628356E+03  0.53080058163E+03  0.16226025649E+03  0.99068644933E+03  0.89926746119E+02 0.  0.
          5    1    3    3  502    0 -0.33169234169E+03 -0.16930350144E+03  0.76304263075E+03  0.84908164005E+03  0.47000000000E+01 0. -1.
         -5    1    3    3    0  502 -0.43296027092E+03 -0.34225138534E+03  0.11650324941E+04  0.12891522057E+04  0.47000000000E+01 0.  1.
         13    1    5    5    0    0 -0.71390904556E+02  0.43511481023E+01 -0.17453581759E+02  0.73622151961E+02  0.00000000000E+00 0.  1.
        -13    1    5    5    0    0  0.20387233604E+02 -0.23596842957E+02 -0.25937034844E+02  0.40560819371E+02  0.00000000000E+00 0. -1.
          4    1    6    6  503    0  0.16881830399E+03  0.15255362392E+03  0.24987355287E+02  0.22890302719E+03  0.00000000000E+00 0. -1.
         -4    1    6    6    0  503  0.64683797957E+03  0.37824695771E+03  0.13727290120E+03  0.76178342213E+03  0.00000000000E+00 0.  1.
<mgrwt>
<rscale>  0 0.10019525E+04</rscale>
<asrwt>0</asrwt>
<pdfrwt beam="1">  1        2 0.40692676E+00 0.10019525E+04</pdfrwt>
<pdfrwt beam="2">  1       -2 0.92012194E-01 0.10019525E+04</pdfrwt>
<totfact> 0.29085497E+00</totfact>
</mgrwt>
</event>
<event>
12    1  0.3203156E-008  0.7384752E+03  0.7818608E-02  0.9653606E-01
          2   -1    0    0  501    0  0.00000000000E+00  0.00000000000E+00  0.50181909561E+03  0.50181909561E+03  0.00000000000E+00 0. -1.
         -2   -1    0    0    0  501 -0.00000000000E+00 -0.00000000000E+00 -0.14325096120E+04  0.14325096120E+04  0.00000000000E+00 0.  1.
         23    2    1    2    0    0 -0.27407335695E+03  0.55316572253E+03 -0.87091752497E+03  0.10713570919E+04  0.90554743324E+02 0.  0.
    5000000    2    1    2    0    0  0.27407335695E+03 -0.55316572253E+03 -0.59772991386E+02  0.86297161566E+03  0.60003223028E+03 0.  0.
         23    2    4    4    0    0 -0.14711863613E+03 -0.23955600584E+02 -0.52073314709E+02  0.18057765825E+03  0.87629313922E+02 0.  0.
         23    2    4    4    0    0  0.42119199308E+03 -0.52921012194E+03 -0.76996766766E+01  0.68239395741E+03  0.90200775409E+02 0.  0.
          5    1    3    3  502    0 -0.17628985149E+03  0.26176952387E+03 -0.47016129581E+03  0.56628184630E+03  0.47000000000E+01 0. -1.
         -5    1    3    3    0  502 -0.97783505455E+02  0.29139619866E+03 -0.40075622916E+03  0.50507524563E+03  0.47000000000E+01 0.  1.
         13    1    5    5    0    0 -0.15773532763E+03 -0.29180125027E+02 -0.44286498972E+02  0.16641276174E+03  0.00000000000E+00 0. -1.
        -13    1    5    5    0    0  0.10616691494E+02  0.52245244421E+01 -0.77868157374E+01  0.14164896514E+02  0.00000000000E+00 0.  1.
          3    1    6    6  503    0  0.90573117028E+02 -0.17556581179E+03 -0.16028686764E+02  0.19820131835E+03  0.00000000000E+00 0. -1.
         -3    1    6    6    0  503  0.33061887605E+03 -0.35364431015E+03  0.83290100870E+01  0.48419263906E+03  0.00000000000E+00 0.  1.
<mgrwt>
<rscale>  0 0.73847520E+03</rscale>
<asrwt>0</asrwt>
<pdfrwt beam="1">  1        2 0.77202938E-01 0.73847520E+03</pdfrwt>
<pdfrwt beam="2">  1       -2 0.22038609E+00 0.73847520E+03</pdfrwt>
<totfact> 0.61733829E+00</totfact>
</mgrwt>
</event>
<event>
12    1  0.3203156E-008  0.6958497E+03  0.7818608E-02  0.9724356E-01
         -2   -1    0    0    0  501 -0.00000000000E+00  0.00000000000E+00  0.42759171121E+03  0.42759171121E+03  0.00000000000E+00 0.  1.
          2   -1    0    0  501    0  0.00000000000E+00 -0.00000000000E+00 -0.13942756413E+04  0.13942756413E+04  0.00000000000E+00 0. -1.
         23    2    1    2    0    0 -0.58766034703E+02  0.60730046591E+03 -0.68187929850E+03  0.91997912518E+03  0.95576724779E+02 0.  0.
    5000000    2    1    2    0    0  0.58766034703E+02 -0.60730046591E+03 -0.28480463162E+03  0.90188822737E+03  0.60001782785E+03 0.  0.
         23    2    4    4    0    0 -0.19562436169E+03 -0.36979834592E+03 -0.32751366785E+03  0.53905072916E+03  0.91053711902E+02 0.  0.
         23    2    4    4    0    0  0.25439039639E+03 -0.23750211999E+03  0.42709036225E+02  0.36283749820E+03  0.93301969701E+02 0.  0.
          5    1    3    3  502    0  0.11754061700E+02  0.10716018293E+03 -0.16601758478E+03  0.19800351317E+03  0.47000000000E+01 0. -1.
         -5    1    3    3    0  502 -0.70520096403E+02  0.50014028298E+03 -0.51586171372E+03  0.72197561201E+03  0.47000000000E+01 0.  1.
         11    1    5    5    0    0 -0.76908436684E+01 -0.42048557315E+02 -0.69337403351E+02  0.81454930802E+02  0.00000000000E+00 0.  1.
        -11    1    5    5    0    0 -0.18793351802E+03 -0.32774978860E+03 -0.25817626450E+03  0.45759579836E+03  0.00000000000E+00 0. -1.
          2    1    6    6  503    0  0.16359327401E+03 -0.20366819947E+03  0.48786341490E+02  0.26575101485E+03  0.00000000000E+00 0. -1.
         -2    1    6    6    0  503  0.90797122384E+02 -0.33833920519E+02 -0.60773052651E+01  0.97086483355E+02  0.00000000000E+00 0.  1.
<mgrwt>
<rscale>  0 0.69584974E+03</rscale>
<asrwt>0</asrwt>
<pdfrwt beam="1">  1        2 0.21450394E+00 0.69584974E+03</pdfrwt>
<pdfrwt beam="2">  1       -2 0.65783341E-01 0.69584974E+03</pdfrwt>
<totfact> 0.31881478E+01</totfact>
</mgrwt>
</event>
<event>
12    1  0.3203156E-008  0.5516804E+03  0.7818608E-02  0.1001106E+00
          1   -1    0    0  501    0  0.00000000000E+00  0.00000000000E+00  0.21245186083E+04  0.21245186083E+04  0.00000000000E+00 0. -1.
         -1   -1    0    0    0  501 -0.00000000000E+00 -0.00000000000E+00 -0.17345003847E+03  0.17345003847E+03  0.00000000000E+00 0.  1.
         23    2    1    2    0    0 -0.50471607327E+02  0.44798832435E+03  0.83078498789E+03  0.94950631374E+03  0.90097845879E+02 0.  0.
    5000000    2    1    2    0    0  0.50471607327E+02 -0.44798832435E+03  0.11202835820E+04  0.13484623331E+04  0.60006202826E+03 0.  0.
         23    2    4    4    0    0 -0.17950050028E+03 -0.96586527627E+02  0.74564159445E+03  0.77834160852E+03  0.91021345051E+02 0.  0.
         23    2    4    4    0    0  0.22997210761E+03 -0.35140179672E+03  0.37464198751E+03  0.57012072453E+03  0.91162649805E+02 0.  0.
          5    1    3    3  502    0 -0.53931181096E+02  0.12136544930E+03  0.25209511372E+03  0.28497750954E+03  0.47000000000E+01 0. -1.
         -5    1    3    3    0  502  0.34595737686E+01  0.32662287504E+03  0.57868987417E+03  0.66452880420E+03  0.47000000000E+01 0.  1.
         11    1    5    5    0    0 -0.11975591728E+03 -0.15027625528E+02  0.36136512728E+03  0.38098827340E+03  0.00000000000E+00 0. -1.
        -11    1    5    5    0    0 -0.59744583001E+02 -0.81558902098E+02  0.38427646717E+03  0.39735333512E+03  0.00000000000E+00 0.  1.
          3    1    6    6  503    0  0.41492742016E+02 -0.37876166980E+02  0.92150354376E+02  0.10792562011E+03  0.00000000000E+00 0. -1.
         -3    1    6    6    0  503  0.18847936560E+03 -0.31352562974E+03  0.28249163313E+03  0.46219510442E+03  0.00000000000E+00 0.  1.
<mgrwt>
<rscale>  0 0.55168037E+03</rscale>
<asrwt>0</asrwt>
<pdfrwt beam="1">  1        1 0.32684900E+00 0.55168037E+03</pdfrwt>
<pdfrwt beam="2">  1       -1 0.26684623E-01 0.55168037E+03</pdfrwt>
<totfact> 0.32856927E+01</totfact>
</mgrwt>
</event>
<event>
12    1  0.3203156E-008  0.5102289E+03  0.7818608E-02  0.1011143E+00
          2   -1    0    0  501    0  0.00000000000E+00  0.00000000000E+00  0.92098710467E+03  0.92098710467E+03  0.00000000000E+00 0. -1.
         -2   -1    0    0    0  501 -0.00000000000E+00 -0.00000000000E+00 -0.29032112657E+03  0.29032112657E+03  0.00000000000E+00 0.  1.
         23    2    1    2    0    0  0.27475409088E+03 -0.18851310512E+03  0.17526031149E+03  0.38761070391E+03  0.92189368943E+02 0.  0.
    5000000    2    1    2    0    0 -0.27475409088E+03  0.18851310512E+03  0.45540566660E+03  0.82369752733E+03  0.60004690992E+03 0.  0.
         23    2    4    4    0    0  0.14846383193E+03 -0.63133863267E+02  0.13147381414E+03  0.22728994706E+03  0.91367183101E+02 0.  0.
         23    2    4    4    0    0 -0.42321792280E+03  0.25164696838E+03  0.32393185246E+03  0.59640758028E+03  0.91271846102E+02 0.  0.
          5    1    3    3  502    0  0.37752635529E+02 -0.66015239651E+02  0.59868222708E+02  0.96899780422E+02  0.47000000000E+01 0. -1.
         -5    1    3    3    0  502  0.23700145535E+03 -0.12249786546E+03  0.11539208878E+03  0.29071092349E+03  0.47000000000E+01 0.  1.
         13    1    5    5    0    0  0.43831277128E+02 -0.66966838573E+02  0.47474757458E+02  0.93056923003E+02  0.00000000000E+00 0. -1.
        -13    1    5    5    0    0  0.10463255480E+03  0.38329753069E+01  0.83999056680E+02  0.13423302405E+03  0.00000000000E+00 0.  1.
          1    1    6    6  503    0 -0.32908892164E+03  0.18701648086E+03  0.29137427627E+03  0.47767525719E+03  0.00000000000E+00 0. -1.
         -1    1    6    6    0  503 -0.94129001163E+02  0.64630487518E+02  0.32557576189E+02  0.11873232308E+03  0.00000000000E+00 0.  1.
<mgrwt>
<rscale>  0 0.51022893E+03</rscale>
<asrwt>0</asrwt>
<pdfrwt beam="1">  1        2 0.14169032E+00 0.51022893E+03</pdfrwt>
<pdfrwt beam="2">  1       -2 0.44664789E-01 0.51022893E+03</pdfrwt>
<totfact> 0.13904186E+02</totfact>
</mgrwt>
</event>
<event>
12    1  0.3203156E-008  0.7765355E+03  0.7818608E-02  0.9594616E-01
         -1   -1    0    0    0  501 -0.00000000000E+00  0.00000000000E+00  0.10759289580E+04  0.10759289580E+04  0.00000000000E+00 0.  1.
          1   -1    0    0  501    0  0.00000000000E+00 -0.00000000000E+00 -0.69106382893E+03  0.69106382893E+03  0.00000000000E+00 0. -1.
         23    2    1    2    0    0 -0.74912133059E+03 -0.31320842030E+02  0.79821236814E+02  0.75939351410E+03  0.90240325369E+02 0.  0.
    5000000    2    1    2    0    0  0.74912133059E+03  0.31320842030E+02  0.30504389223E+03  0.10075992728E+04  0.60003396176E+03 0.  0.
         23    2    4    4    0    0  0.63506389461E+03  0.11526065388E+03  0.44376751925E+03  0.78879571088E+03  0.93155213407E+02 0.  0.
         23    2    4    4    0    0  0.11405743598E+03 -0.83939811846E+02 -0.13872362702E+03  0.21880356193E+03  0.92605417248E+02 0.  0.
          5    1    3    3  502    0 -0.57755259906E+03 -0.25575350776E+02  0.23318525287E+02  0.57860776600E+03  0.47000000000E+01 0. -1.
         -5    1    3    3    0  502 -0.17156873153E+03 -0.57454912548E+01  0.56502711527E+02  0.18078574811E+03  0.47000000000E+01 0.  1.
         13    1    5    5    0    0  0.71451240950E+02 -0.11103419773E+02  0.30019146482E+02  0.78292495933E+02  0.00000000000E+00 0.  1.
        -13    1    5    5    0    0  0.56361265366E+03  0.12636407365E+03  0.41374837277E+03  0.71050321494E+03  0.00000000000E+00 0. -1.
          1    1    6    6  503    0  0.20331680608E+02 -0.49370050533E+02 -0.96629021820E+02  0.11039903525E+03  0.00000000000E+00 0. -1.
         -1    1    6    6    0  503  0.93725755372E+02 -0.34569761313E+02 -0.42094605195E+02  0.10840452668E+03  0.00000000000E+00 0.  1.
<mgrwt>
<rscale>  0 0.77653547E+03</rscale>
<asrwt>0</asrwt>
<pdfrwt beam="1">  1        1 0.10631751E+00 0.77653547E+03</pdfrwt>
<pdfrwt beam="2">  1       -1 0.16552753E+00 0.77653547E+03</pdfrwt>
<totfact> 0.75911381E+00</totfact>
</mgrwt>
</event>
<event>
12    1  0.3203156E-008  0.6872592E+03  0.7818608E-02  0.9739272E-01
         -1   -1    0    0    0  501 -0.00000000000E+00  0.00000000000E+00  0.61334962112E+03  0.61334962112E+03  0.00000000000E+00 0.  1.
          1   -1    0    0  501    0  0.00000000000E+00 -0.00000000000E+00 -0.14764661596E+04  0.14764661596E+04  0.00000000000E+00 0. -1.
         23    2    1    2    0    0  0.96634656460E+02  0.57393040829E+03  0.29691195464E+03  0.65999236954E+03  0.93267618454E+02 0.  0.
    5000000    2    1    2    0    0 -0.96634656460E+02 -0.57393040829E+03 -0.11600284931E+04  0.14298234112E+04  0.59999542654E+03 0.  0.
         23    2    4    4    0    0 -0.29328066031E+03 -0.45335729981E+03 -0.98620314567E+03  0.11279589016E+04  0.90267668958E+02 0.  0.
         23    2    4    4    0    0  0.19664600385E+03 -0.12057310848E+03 -0.17382534746E+03  0.30186450962E+03  0.87746255932E+02 0.  0.
          5    1    3    3  502    0  0.10479331671E+03  0.53320440945E+03  0.25322074272E+03  0.59952599279E+03  0.47000000000E+01 0. -1.
         -5    1    3    3    0  502 -0.81586602464E+01  0.40725998844E+02  0.43691211921E+02  0.60466376756E+02  0.47000000000E+01 0.  1.
         13    1    5    5    0    0 -0.15697862124E+03 -0.29614571755E+03 -0.67448591619E+03  0.75317715359E+03  0.00000000000E+00 0.  1.
        -13    1    5    5    0    0 -0.13630203907E+03 -0.15721158226E+03 -0.31171722948E+03  0.37478174796E+03  0.00000000000E+00 0. -1.
          2    1    6    6  503    0  0.95852720884E+02 -0.10810801235E+03 -0.90403179899E+02  0.17043421421E+03  0.00000000000E+00 0.  1.
         -2    1    6    6    0  503  0.10079328296E+03 -0.12465096128E+02 -0.83422167562E+02  0.13143029542E+03  0.00000000000E+00 0. -1.
<mgrwt>
<rscale>  0 0.68725917E+03</rscale>
<asrwt>0</asrwt>
<pdfrwt beam="1">  1        1 0.22714864E+00 0.68725917E+03</pdfrwt>
<pdfrwt beam="2">  1       -1 0.94361480E-01 0.68725917E+03</pdfrwt>
<totfact> 0.77544588E+00</totfact>
</mgrwt>
</event>
<event>
12    1  0.3203156E-008  0.4632768E+03  0.7818608E-02  0.1023835E+00
         -2   -1    0    0    0  501 -0.00000000000E+00  0.00000000000E+00  0.10900880136E+03  0.10900880136E+03  0.00000000000E+00 0.  1.
          2   -1    0    0  501    0  0.00000000000E+00 -0.00000000000E+00 -0.32870963909E+04  0.32870963909E+04  0.00000000000E+00 0. -1.
         23    2    1    2    0    0  0.18070004241E+03 -0.25466802591E+03 -0.20895297259E+04  0.21146822273E+04  0.90764188530E+02 0.  0.
    5000000    2    1    2    0    0 -0.18070004241E+03  0.25466802591E+03 -0.10885578636E+04  0.12814229650E+04  0.59964846709E+03 0.  0.
         23    2    4    4    0    0 -0.22970852686E+03 -0.96992630844E+02 -0.24270985490E+03  0.35943482166E+03  0.90065196384E+02 0.  0.
         23    2    4    4    0    0  0.49008484459E+02  0.35166065676E+03 -0.84584800867E+03  0.92198814332E+03  0.92391739888E+02 0.  0.
          5    1    3    3  502    0  0.83459922157E+02 -0.11590917141E+03 -0.12551366504E+04  0.12632460551E+04  0.47000000000E+01 0. -1.
         -5    1    3    3    0  502  0.97240120249E+02 -0.13875885451E+03 -0.83439307558E+03  0.85143617216E+03  0.47000000000E+01 0.  1.
         13    1    5    5    0    0 -0.15079559324E+03 -0.41480807403E+02 -0.20008444028E+03  0.25395620010E+03  0.00000000000E+00 0.  1.
        -13    1    5    5    0    0 -0.78912933622E+02 -0.55511823441E+02 -0.42625414621E+02  0.10547862156E+03  0.00000000000E+00 0. -1.
          4    1    6    6  503    0  0.35905978497E+02  0.64640809193E+02 -0.24611606207E+03  0.25698402579E+03  0.00000000000E+00 0. -1.
         -4    1    6    6    0  503  0.13102505962E+02  0.28701984757E+03 -0.59973194660E+03  0.66500411753E+03  0.00000000000E+00 0.  1.
<mgrwt>
<rscale>  0 0.46327677E+03</rscale>
<asrwt>0</asrwt>
<pdfrwt beam="1">  1        2 0.50570719E+00 0.46327677E+03</pdfrwt>
<pdfrwt beam="2">  1       -2 0.16770583E-01 0.46327677E+03</pdfrwt>
<totfact> 0.37210125E+01</totfact>
</mgrwt>
</event>
<event>
12    1  0.3203156E-008  0.8650406E+03  0.7818608E-02  0.9470369E-01
          1   -1    0    0  501    0  0.00000000000E+00  0.00000000000E+00  0.85799761494E+03  0.85799761494E+03  0.00000000000E+00 0. -1.
         -1   -1    0    0    0  501 -0.00000000000E+00 -0.00000000000E+00 -0.10741014387E+04  0.10741014387E+04  0.00000000000E+00 0.  1.
         23    2    1    2    0    0  0.83242156825E+03  0.18374593427E+03  0.41174859107E+02  0.85832103906E+03  0.91276510758E+02 0.  0.
    5000000    2    1    2    0    0 -0.83242156825E+03 -0.18374593427E+03 -0.25727868284E+03  0.10737780146E+04  0.60009888205E+03 0.  0.
         23    2    4    4    0    0 -0.23333620531E+03 -0.69528452779E+02 -0.36487640272E+03  0.44814480336E+03  0.91755027438E+02 0.  0.
         23    2    4    4    0    0 -0.59908536294E+03 -0.11421748149E+03  0.10759771988E+03  0.62563321119E+03  0.88829839881E+02 0.  0.
          5    1    3    3  502    0  0.45012322368E+03  0.13163227746E+03 -0.98301072788E+01  0.46910200807E+03  0.47000000000E+01 0. -1.
         -5    1    3    3    0  502  0.38229834457E+03  0.52113656813E+02  0.51004966386E+02  0.38921903099E+03  0.47000000000E+01 0.  1.
         11    1    5    5    0    0  0.86905145776E+01 -0.28591377101E+01 -0.12722567590E+02  0.15670463878E+02  0.00000000000E+00 0. -1.
        -11    1    5    5    0    0 -0.24202671989E+03 -0.66669315069E+02 -0.35215383513E+03  0.43247433948E+03  0.00000000000E+00 0.  1.
          2    1    6    6  503    0 -0.37992209632E+03 -0.33196008957E+02  0.47089949530E+02  0.38426584240E+03  0.00000000000E+00 0. -1.
         -2    1    6    6    0  503 -0.21916326661E+03 -0.81021472534E+02  0.60507770353E+02  0.24136736879E+03  0.00000000000E+00 0.  1.
<mgrwt>
<rscale>  0 0.86504065E+03</rscale>
<asrwt>0</asrwt>
<pdfrwt beam="1">  1        1 0.13199963E+00 0.86504065E+03</pdfrwt>
<pdfrwt beam="2">  1       -1 0.16524637E+00 0.86504065E+03</pdfrwt>
<totfact> 0.53615807E+00</totfact>
</mgrwt>
</event>
<event>
12    1  0.3203156E-008  0.5803407E+03  0.7818608E-02  0.9947054E-01
          2   -1    0    0  501    0  0.00000000000E+00  0.00000000000E+00  0.76122362016E+03  0.76122362016E+03  0.00000000000E+00 0. -1.
         -2   -1    0    0    0  501 -0.00000000000E+00 -0.00000000000E+00 -0.96329975743E+03  0.96329975743E+03  0.00000000000E+00 0.  1.
         23    2    1    2    0    0  0.29797356616E+02  0.45363332236E+03 -0.68697624436E+03  0.82907353809E+03  0.93570816153E+02 0.  0.
    5000000    2    1    2    0    0 -0.29797356616E+02 -0.45363332236E+03  0.48490010709E+03  0.89544983950E+03  0.60002602243E+03 0.  0.
         23    2    4    4    0    0  0.14671910196E+03  0.32490124988E+02 -0.77222270160E+01  0.17539567854E+03  0.90121629802E+02 0.  0.
         23    2    4    4    0    0 -0.17651645858E+03 -0.48612344735E+03  0.49262233410E+03  0.72005416096E+03  0.91253298269E+02 0.  0.
          5    1    3    3  502    0  0.41587038261E+02  0.82767636648E+02 -0.12550882059E+03  0.15605933959E+03  0.47000000000E+01 0. -1.
         -5    1    3    3    0  502 -0.11789681644E+02  0.37086568571E+03 -0.56146742376E+03  0.67301419850E+03  0.47000000000E+01 0.  1.
         13    1    5    5    0    0  0.11812451676E+03 -0.12777203726E+02  0.93932713455E+01  0.11918427724E+03  0.00000000000E+00 0. -1.
        -13    1    5    5    0    0  0.28594585200E+02  0.45267328714E+02 -0.17115498361E+02  0.56211401297E+02  0.00000000000E+00 0.  1.
          3    1    6    6  503    0 -0.39646969607E+02 -0.23660122952E+03  0.20722998537E+03  0.31701149955E+03  0.00000000000E+00 0. -1.
         -3    1    6    6    0  503 -0.13686948897E+03 -0.24952221783E+03  0.28539234873E+03  0.40304266141E+03  0.00000000000E+00 0.  1.
<mgrwt>
<rscale>  0 0.58034073E+03</rscale>
<asrwt>0</asrwt>
<pdfrwt beam="1">  1        2 0.11711133E+00 0.58034073E+03</pdfrwt>
<pdfrwt beam="2">  1       -2 0.14819996E+00 0.58034073E+03</pdfrwt>
<totfact> 0.11800940E+01</totfact>
</mgrwt>
</event>
<event>
12    1  0.3203156E-008  0.1309896E+04  0.7818608E-02  0.9021754E-01
         -1   -1    0    0    0  501 -0.00000000000E+00  0.00000000000E+00  0.75872052397E+03  0.75872052397E+03  0.00000000000E+00 0.  1.
          1   -1    0    0  501    0  0.00000000000E+00 -0.00000000000E+00 -0.23811138709E+04  0.23811138709E+04  0.00000000000E+00 0. -1.
         23    2    1    2    0    0 -0.12135824890E+04 -0.32176042455E+03 -0.10342808443E+04  0.16291942243E+04  0.90690281567E+02 0.  0.
    5000000    2    1    2    0    0  0.12135824890E+04  0.32176042455E+03 -0.58811250267E+03  0.15106401706E+04  0.59987097003E+03 0.  0.
         23    2    4    4    0    0 -0.24224326778E+02  0.55695652799E+02 -0.10322036158E+03  0.15243842739E+03  0.94309105340E+02 0.  0.
         23    2    4    4    0    0  0.12378068158E+04  0.26606477175E+03 -0.48489214108E+03  0.13582017432E+04  0.81458030261E+02 0.  0.
          5    1    3    3  502    0 -0.42873066222E+03 -0.15381628518E+03 -0.34966923706E+03  0.57424741677E+03  0.47000000000E+01 0. -1.
         -5    1    3    3    0  502 -0.78485182681E+03 -0.16794413937E+03 -0.68461160720E+03  0.10549468075E+04  0.47000000000E+01 0.  1.
         13    1    5    5    0    0  0.54946416213E+00 -0.16864522946E+02  0.69209738464E+01  0.18237706107E+02  0.00000000000E+00 0. -1.
        -13    1    5    5    0    0 -0.24773790941E+02  0.72560175745E+02 -0.11014133543E+03  0.13420072128E+03  0.00000000000E+00 0.  1.
          4    1    6    6  503    0  0.59592812212E+03  0.16469162589E+03 -0.25721858728E+03  0.66963800670E+03  0.00000000000E+00 0. -1.
         -4    1    6    6    0  503  0.64187869369E+03  0.10137314587E+03 -0.22767355380E+03  0.68856373649E+03  0.00000000000E+00 0.  1.
<mgrwt>
<rscale>  0 0.13098964E+04</rscale>
<asrwt>0</asrwt>
<pdfrwt beam="1">  1        1 0.36632521E+00 0.13098964E+04</pdfrwt>
<pdfrwt beam="2">  1       -1 0.11672624E+00 0.13098964E+04</pdfrwt>
<totfact> 0.10561984E+00</totfact>
</mgrwt>
</event>
<event>
12    1  0.3203156E-008  0.3741724E+03  0.7818608E-02  0.1053109E+00
         -4   -1    0    0    0  501 -0.00000000000E+00  0.00000000000E+00  0.28955036097E+03  0.28955036097E+03  0.00000000000E+00 0. -1.
          4   -1    0    0  501    0  0.00000000000E+00 -0.00000000000E+00 -0.57530501704E+03  0.57530501704E+03  0.00000000000E+00 0.  1.
         23    2    1    2    0    0 -0.11182639483E+03 -0.11679518300E+03 -0.12162905663E+03  0.22217183809E+03  0.91762960220E+02 0.  0.
    5000000    2    1    2    0    0  0.11182639483E+03  0.11679518300E+03 -0.16412559944E+03  0.64268353993E+03  0.59996555130E+03 0.  0.
         23    2    4    4    0    0 -0.10058395852E+03 -0.16671124866E+03 -0.17283934025E+03  0.27577839199E+03  0.90942348834E+02 0.  0.
         23    2    4    4    0    0  0.21241035335E+03  0.28350643166E+03  0.87137408038E+01  0.36690514794E+03  0.95128351722E+02 0.  0.
          5    1    3    3  502    0 -0.58656084652E+02 -0.75535335739E+01 -0.16864797739E+02  0.61677415145E+02  0.47000000000E+01 0. -1.
         -5    1    3    3    0  502 -0.53170310179E+02 -0.10924164943E+03 -0.10476425889E+03  0.16049442294E+03  0.47000000000E+01 0.  1.
         13    1    5    5    0    0 -0.54769834712E+02 -0.18329450167E+02 -0.63606088322E+02  0.85915295550E+02  0.00000000000E+00 0.  1.
        -13    1    5    5    0    0 -0.45814123804E+02 -0.14838179849E+03 -0.10923325192E+03  0.18986309644E+03  0.00000000000E+00 0. -1.
          2    1    6    6  503    0  0.60421777715E+02  0.73488408711E+02  0.44802794599E+02  0.10516001066E+03  0.00000000000E+00 0.  1.
         -2    1    6    6    0  503  0.15198857563E+03  0.21001802295E+03 -0.36089053795E+02  0.26174513728E+03  0.00000000000E+00 0. -1.
<mgrwt>
<rscale>  0 0.37417239E+03</rscale>
<asrwt>0</asrwt>
<pdfrwt beam="1">  1        4 0.88508463E-01 0.37417239E+03</pdfrwt>
<pdfrwt beam="2">  1       -4 0.44546210E-01 0.37417239E+03</pdfrwt>
<totfact> 0.10320183E+01</totfact>
</mgrwt>
</event>
<event>
12    1  0.3203156E-008  0.7303542E+03  0.7818608E-02  0.9666686E-01
         -2   -1    0    0    0  501 -0.00000000000E+00  0.00000000000E+00  0.81938332291E+03  0.81938332291E+03  0.00000000000E+00 0.  1.
          2   -1    0    0  501    0  0.00000000000E+00 -0.00000000000E+00 -0.12308300467E+04  0.12308300467E+04  0.00000000000E+00 0. -1.
         23    2    1    2    0    0  0.63404385412E+03  0.36355099163E+00  0.48178564105E+03  0.80134533555E+03  0.89583490517E+02 0.  0.
    5000000    2    1    2    0    0 -0.63404385412E+03 -0.36355099163E+00 -0.89323236485E+03  0.12488680341E+04  0.59982961562E+03 0.  0.
         23    2    4    4    0    0 -0.66954782388E+03 -0.12096266224E+03 -0.57631366831E+03  0.89627647100E+03  0.90817476708E+02 0.  0.
         23    2    4    4    0    0  0.35503969758E+02  0.12059911125E+03 -0.31691869654E+03  0.35259156306E+03  0.89881436484E+02 0.  0.
          5    1    3    3  502    0  0.50360970500E+03 -0.33115605269E+02  0.39700236425E+03  0.64214666978E+03  0.47000000000E+01 0. -1.
         -5    1    3    3    0  502  0.13043414912E+03  0.33479156260E+02  0.84783276799E+02  0.15919866577E+03  0.47000000000E+01 0.  1.
         13    1    5    5    0    0 -0.18388927166E+03 -0.74979364847E+02 -0.16560174213E+03  0.25857514649E+03  0.00000000000E+00 0.  1.
        -13    1    5    5    0    0 -0.48565855221E+03 -0.45983297390E+02 -0.41071192618E+03  0.63770132451E+03  0.00000000000E+00 0. -1.
          4    1    6    6  503    0  0.46535334010E+02  0.78043899895E+02 -0.11831515954E+03  0.14918064419E+03  0.00000000000E+00 0.  1.
         -4    1    6    6    0  503 -0.11031364252E+02  0.42555211351E+02 -0.19860353700E+03  0.20341091888E+03  0.00000000000E+00 0. -1.
<mgrwt>
<rscale>  0 0.73035421E+03</rscale>
<asrwt>0</asrwt>
<pdfrwt beam="1">  1        2 0.18935847E+00 0.73035421E+03</pdfrwt>
<pdfrwt beam="2">  1       -2 0.12605897E+00 0.73035421E+03</pdfrwt>
<totfact> 0.87199773E+00</totfact>
</mgrwt>
</event>
<event>
12    1  0.3203156E-008  0.8188580E+03  0.7818608E-02  0.9533115E-01
         -2   -1    0    0    0  501 -0.00000000000E+00  0.00000000000E+00  0.69555720698E+03  0.69555720698E+03  0.00000000000E+00 0.  1.
          2   -1    0    0  501    0  0.00000000000E+00 -0.00000000000E+00 -0.10458784785E+04  0.10458784785E+04  0.00000000000E+00 0. -1.
         23    2    1    2    0    0 -0.45122593057E+03  0.58837121233E+03 -0.22177878762E+03  0.77909229200E+03  0.89517846850E+02 0.  0.
    5000000    2    1    2    0    0  0.45122593057E+03 -0.58837121233E+03 -0.12854248387E+03  0.96234339344E+03  0.59983006996E+03 0.  0.
         23    2    4    4    0    0  0.30533425840E+02  0.63610754023E+02  0.94190639783E+02  0.14981074555E+03  0.92697166827E+02 0.  0.
         23    2    4    4    0    0  0.42069250473E+03 -0.65198196635E+03 -0.22273312366E+03  0.81253264790E+03  0.92393676937E+02 0.  0.
          5    1    3    3  502    0 -0.32782624256E+03  0.37193246441E+03 -0.12146822416E+03  0.51047078553E+03  0.47000000000E+01 0.  1.
         -5    1    3    3    0  502 -0.12339968801E+03  0.21643874792E+03 -0.10031056346E+03  0.26862150648E+03  0.47000000000E+01 0. -1.
         11    1    5    5    0    0  0.61786980295E+02  0.57906877947E+02  0.66607899247E+02  0.10773787491E+03  0.00000000000E+00 0.  1.
        -11    1    5    5    0    0 -0.31253554455E+02  0.57038760765E+01  0.27582740536E+02  0.42072870640E+02  0.00000000000E+00 0. -1.
          2    1    6    6  503    0  0.13407691125E+03 -0.22789224425E+03 -0.12046204956E+03  0.29055567195E+03  0.00000000000E+00 0. -1.
         -2    1    6    6    0  503  0.28661559348E+03 -0.42408972210E+03 -0.10227107410E+03  0.52197697595E+03  0.00000000000E+00 0.  1.
<mgrwt>
<rscale>  0 0.81885797E+03</rscale>
<asrwt>0</asrwt>
<pdfrwt beam="1">  1        2 0.16090438E+00 0.81885797E+03</pdfrwt>
<pdfrwt beam="2">  1       -2 0.10700880E+00 0.81885797E+03</pdfrwt>
<totfact> 0.16702467E+01</totfact>
</mgrwt>
</event>
<event>
12    1  0.3203156E-008  0.1198038E+04  0.7818608E-02  0.9114576E-01
         -2   -1    0    0    0  501 -0.00000000000E+00  0.00000000000E+00  0.10560729857E+04  0.10560729857E+04  0.00000000000E+00 0.  1.
          2   -1    0    0  501    0  0.00000000000E+00 -0.00000000000E+00 -0.14793439992E+04  0.14793439992E+04  0.00000000000E+00 0. -1.
         23    2    1    2    0    0  0.42277987116E+03  0.10576735627E+04 -0.49746459925E+03  0.12461544510E+04  0.89519291896E+02 0.  0.
    5000000    2    1    2    0    0 -0.42277987116E+03 -0.10576735627E+04  0.74193585781E+02  0.12892625338E+04  0.59939720405E+03 0.  0.
         23    2    4    4    0    0 -0.46209548841E+03 -0.10852437537E+04  0.62950595664E+02  0.11849216926E+04  0.93757104179E+02 0.  0.
         23    2    4    4    0    0  0.39315617247E+02  0.27570191000E+02  0.11242990117E+02  0.10434084128E+03  0.91949840353E+02 0.  0.
          5    1    3    3  502    0  0.18128032375E+03  0.56912194024E+03 -0.24741197062E+03  0.64652696143E+03  0.47000000000E+01 0. -1.
         -5    1    3    3    0  502  0.24149954741E+03  0.48855162248E+03 -0.25005262863E+03  0.59962748962E+03  0.47000000000E+01 0.  1.
         13    1    5    5    0    0 -0.21892882336E+03 -0.43674376695E+03 -0.88090774763E+01  0.48862311398E+03  0.00000000000E+00 0. -1.
        -13    1    5    5    0    0 -0.24316666505E+03 -0.64849998677E+03  0.71759673140E+02  0.69629857857E+03  0.00000000000E+00 0.  1.
          3    1    6    6  503    0  0.18867394432E+02 -0.15843435627E+02 -0.31559521020E+02  0.40037437382E+02  0.00000000000E+00 0. -1.
         -3    1    6    6    0  503  0.20448222815E+02  0.43413626627E+02  0.42802511137E+02  0.64303403898E+02  0.00000000000E+00 0.  1.
<mgrwt>
<rscale>  0 0.11980381E+04</rscale>
<asrwt>0</asrwt>
<pdfrwt beam="1">  1        2 0.22759138E+00 0.11980381E+04</pdfrwt>
<pdfrwt beam="2">  1       -2 0.16247277E+00 0.11980381E+04</pdfrwt>
<totfact> 0.30598015E+00</totfact>
</mgrwt>
</event>
<event>
12    1  0.3203156E-008  0.6057506E+03  0.7818608E-02  0.9893547E-01
          3   -1    0    0  501    0  0.00000000000E+00  0.00000000000E+00  0.23653616331E+03  0.23653616331E+03  0.00000000000E+00 0. -1.
         -3   -1    0    0    0  501 -0.00000000000E+00 -0.00000000000E+00 -0.21228395990E+04  0.21228395990E+04  0.00000000000E+00 0.  1.
         23    2    1    2    0    0  0.50891559174E+03  0.13557264405E+03 -0.11717775931E+04  0.12880506994E+04  0.92934681967E+02 0.  0.
    5000000    2    1    2    0    0 -0.50891559174E+03 -0.13557264405E+03 -0.71452584260E+03  0.10713250630E+04  0.59984597142E+03 0.  0.
         23    2    4    4    0    0 -0.24801017166E+03  0.13273446428E+03 -0.44935739761E+02  0.29917471046E+03  0.91426491861E+02 0.  0.
         23    2    4    4    0    0 -0.26090542009E+03 -0.26830710833E+03 -0.66959010284E+03  0.77215035250E+03  0.88345449412E+02 0.  0.
          5    1    3    3  502    0  0.32168118188E+03  0.12365601704E+03 -0.69801602048E+03  0.77847161039E+03  0.47000000000E+01 0. -1.
         -5    1    3    3    0  502  0.18723440986E+03  0.11916627005E+02 -0.47376157264E+03  0.50957908900E+03  0.47000000000E+01 0.  1.
         11    1    5    5    0    0 -0.39150130704E+02  0.63505620126E+02 -0.22902561079E+02  0.78039886120E+02  0.00000000000E+00 0. -1.
        -11    1    5    5    0    0 -0.20886004096E+03  0.69228844154E+02 -0.22033178682E+02  0.22113482434E+03  0.00000000000E+00 0.  1.
          3    1    6    6  503    0 -0.13429567059E+03 -0.76067918523E+02 -0.26723490683E+03  0.30860354955E+03  0.00000000000E+00 0. -1.
         -3    1    6    6    0  503 -0.12660974949E+03 -0.19223918981E+03 -0.40235519601E+03  0.46354680295E+03  0.00000000000E+00 0.  1.
<mgrwt>
<rscale>  0 0.60575061E+03</rscale>
<asrwt>0</asrwt>
<pdfrwt beam="1">  1        3 0.36390178E-01 0.60575061E+03</pdfrwt>
<pdfrwt beam="2">  1       -3 0.32659072E+00 0.60575061E+03</pdfrwt>
<totfact> 0.54907084E-01</totfact>
</mgrwt>
</event>
<event>
12    1  0.3203156E-008  0.5212771E+03  0.7818608E-02  0.1008370E+00
         -2   -1    0    0    0  501 -0.00000000000E+00  0.00000000000E+00  0.90649594275E+02  0.90649594275E+02  0.00000000000E+00 0.  1.
          2   -1    0    0  501    0  0.00000000000E+00 -0.00000000000E+00 -0.35278402863E+04  0.35278402863E+04  0.00000000000E+00 0. -1.
         23    2    1    2    0    0 -0.32764665664E+03  0.13846546740E+03 -0.18322171862E+04  0.18686297963E+04  0.90733020084E+02 0.  0.
    5000000    2    1    2    0    0  0.32764665664E+03 -0.13846546740E+03 -0.16049735058E+04  0.17498600842E+04  0.59962099935E+03 0.  0.
         23    2    4    4    0    0 -0.99870655332E+02 -0.21616959516E+03 -0.62048110373E+03  0.66998657561E+03  0.84745322867E+02 0.  0.
         23    2    4    4    0    0  0.42751731198E+03  0.77704127753E+02 -0.98449240205E+03  0.10798735086E+04  0.89958442724E+02 0.  0.
          5    1    3    3  502    0 -0.18992360892E+03  0.48232118705E+02 -0.11654771489E+04  0.11818444860E+04  0.47000000000E+01 0. -1.
         -5    1    3    3    0  502 -0.13772304773E+03  0.90233348698E+02 -0.66674003734E+03  0.68678531033E+03  0.47000000000E+01 0.  1.
         11    1    5    5    0    0 -0.61492894845E+02 -0.18553151553E+03 -0.55302163070E+03  0.58654602836E+03  0.00000000000E+00 0. -1.
        -11    1    5    5    0    0 -0.38377760487E+02 -0.30638079629E+02 -0.67459473037E+02  0.83440547253E+02  0.00000000000E+00 0.  1.
          3    1    6    6  503    0  0.10889443231E+03 -0.16547414656E+01 -0.33221259015E+03  0.34960826736E+03  0.00000000000E+00 0. -1.
         -3    1    6    6    0  503  0.31862287967E+03  0.79358869219E+02 -0.65227981190E+03  0.73026524126E+03  0.00000000000E+00 0.  1.
<mgrwt>
<rscale>  0 0.52127711E+03</rscale>
<asrwt>0</asrwt>
<pdfrwt beam="1">  1        2 0.54274462E+00 0.52127711E+03</pdfrwt>
<pdfrwt beam="2">  1       -2 0.13946093E-01 0.52127711E+03</pdfrwt>
<totfact> 0.34700694E+01</totfact>
</mgrwt>
</event>
<event>
12    1  0.3203156E-008  0.9846129E+03  0.7818608E-02  0.9325584E-01
         -3   -1    0    0    0  501 -0.00000000000E+00  0.00000000000E+00  0.12973400657E+04  0.12973400657E+04  0.00000000000E+00 0.  1.
          3   -1    0    0  501    0  0.00000000000E+00 -0.00000000000E+00 -0.85724144187E+03  0.85724144187E+03  0.00000000000E+00 0. -1.
         23    2    1    2    0    0 -0.85745906229E+03  0.37166398822E+03 -0.50871930371E+02  0.94042296829E+03  0.91854462894E+02 0.  0.
    5000000    2    1    2    0    0  0.85745906229E+03 -0.37166398822E+03  0.49097055418E+03  0.12141585393E+04  0.59979889107E+03 0.  0.
         23    2    4    4    0    0  0.11120917310E+03  0.68040523610E+02 -0.68173020625E+02  0.17911440911E+03  0.10216368129E+03 0.  0.
         23    2    4    4    0    0  0.74624988919E+03 -0.43970451183E+03  0.55914357481E+03  0.10350441301E+04  0.91901356141E+02 0.  0.
          5    1    3    3  502    0 -0.28179348240E+03  0.12875801845E+03  0.25697948171E+02  0.31091585450E+03  0.47000000000E+01 0. -1.
         -5    1    3    3    0  502 -0.57566557989E+03  0.24290596976E+03 -0.76569878542E+02  0.62950711379E+03  0.47000000000E+01 0.  1.
         11    1    5    5    0    0  0.12503350659E+03  0.78000674540E+02 -0.53996623560E+02  0.15694941336E+03  0.00000000000E+00 0. -1.
        -11    1    5    5    0    0 -0.13824333487E+02 -0.99601509297E+01 -0.14176397064E+02  0.22164995751E+02  0.00000000000E+00 0.  1.
          4    1    6    6  503    0  0.54889785302E+03 -0.27961303713E+03  0.37438475897E+03  0.72085799665E+03  0.00000000000E+00 0. -1.
         -4    1    6    6    0  503  0.19735203616E+03 -0.16009147470E+03  0.18475881583E+03  0.31418613349E+03  0.00000000000E+00 0.  1.
<mgrwt>
<rscale>  0 0.98461286E+03</rscale>
<asrwt>0</asrwt>
<pdfrwt beam="1">  1        3 0.13188330E+00 0.98461286E+03</pdfrwt>
<pdfrwt beam="2">  1       -3 0.19959078E+00 0.98461286E+03</pdfrwt>
<totfact> 0.16809952E-01</totfact>
</mgrwt>
</event>
<event>
12    1  0.3203156E-008  0.1319063E+04  0.7818608E-02  0.9014583E-01
         -1   -1    0    0    0  501 -0.00000000000E+00  0.00000000000E+00  0.13560520030E+04  0.13560520030E+04  0.00000000000E+00 0.  1.
          1   -1    0    0  501    0  0.00000000000E+00 -0.00000000000E+00 -0.21190123247E+04  0.21190123247E+04  0.00000000000E+00 0. -1.
         23    2    1    2    0    0 -0.12464470897E+04  0.22856615832E+03 -0.14379476487E+04  0.19188112465E+04  0.90941316993E+02 0.  0.
    5000000    2    1    2    0    0  0.12464470897E+04 -0.22856615832E+03  0.67498732707E+03  0.15562530811E+04  0.60036899050E+03 0.  0.
         23    2    4    4    0    0  0.40164586983E+03 -0.31469980980E+03  0.41328370569E+03  0.66289525020E+03  0.90946777314E+02 0.  0.
         23    2    4    4    0    0  0.84480121985E+03  0.86133651486E+02  0.26170362138E+03  0.89335783094E+03  0.92148367770E+02 0.  0.
          5    1    3    3  502    0 -0.49899641998E+03  0.71225715784E+02 -0.63194037926E+03  0.80835713808E+03  0.47000000000E+01 0. -1.
         -5    1    3    3    0  502 -0.74745066970E+03  0.15734044253E+03 -0.80600726949E+03  0.11104541084E+04  0.47000000000E+01 0.  1.
         11    1    5    5    0    0  0.68185768731E+02 -0.19734351572E+02  0.78728740634E+02  0.10600452014E+03  0.00000000000E+00 0.  1.
        -11    1    5    5    0    0  0.33346010110E+03 -0.29496545823E+03  0.33455496506E+03  0.55689073005E+03  0.00000000000E+00 0. -1.
          1    1    6    6  503    0  0.46752658518E+03  0.22356870480E+01  0.15141088181E+03  0.49143805437E+03  0.00000000000E+00 0. -1.
         -1    1    6    6    0  503  0.37727463467E+03  0.83897964438E+02  0.11029273957E+03  0.40191977658E+03  0.00000000000E+00 0.  1.
<mgrwt>
<rscale>  0 0.13190628E+04</rscale>
<asrwt>0</asrwt>
<pdfrwt beam="1">  1        1 0.32600189E+00 0.13190628E+04</pdfrwt>
<pdfrwt beam="2">  1       -1 0.20862339E+00 0.13190628E+04</pdfrwt>
<totfact> 0.31397380E-01</totfact>
</mgrwt>
</event>
<event>
12    1  0.3203156E-008  0.7840075E+03  0.7818608E-02  0.9583458E-01
          2   -1    0    0  501    0  0.00000000000E+00  0.00000000000E+00  0.14962881507E+04  0.14962881507E+04  0.00000000000E+00 0. -1.
         -2   -1    0    0    0  501 -0.00000000000E+00 -0.00000000000E+00 -0.48937382311E+03  0.48937382311E+03  0.00000000000E+00 0.  1.
         23    2    1    2    0    0 -0.72804880390E+03  0.11430356247E+03  0.29755675854E+03  0.79976948006E+03  0.89279512883E+02 0.  0.
    5000000    2    1    2    0    0  0.72804880390E+03 -0.11430356247E+03  0.70935756905E+03  0.11858924938E+04  0.60002706666E+03 0.  0.
         23    2    4    4    0    0  0.60576772401E+03 -0.22170006918E+03  0.75059657612E+03  0.99388231838E+03  0.91111945299E+02 0.  0.
         23    2    4    4    0    0  0.12228107989E+03  0.10739650672E+03 -0.41239007069E+02  0.19201017538E+03  0.93169628048E+02 0.  0.
          5    1    3    3  502    0 -0.52774068718E+03  0.93353719576E+02  0.17423346226E+03  0.56356413942E+03  0.47000000000E+01 0. -1.
         -5    1    3    3    0  502 -0.20030811672E+03  0.20949842893E+02  0.12332329628E+03  0.23620534064E+03  0.47000000000E+01 0.  1.
         11    1    5    5    0    0  0.18382272976E+03 -0.28109592088E+02  0.18725940916E+03  0.26390724026E+03  0.00000000000E+00 0. -1.
        -11    1    5    5    0    0  0.42194499425E+03 -0.19359047710E+03  0.56333716696E+03  0.72997507812E+03  0.00000000000E+00 0.  1.
          2    1    6    6  503    0  0.77580669611E+02  0.16789932032E+02 -0.44355739923E+02  0.90929059047E+02  0.00000000000E+00 0. -1.
         -2    1    6    6    0  503  0.44700410277E+02  0.90606574683E+02  0.31167328539E+01  0.10108111633E+03  0.00000000000E+00 0.  1.
<mgrwt>
<rscale>  0 0.78400755E+03</rscale>
<asrwt>0</asrwt>
<pdfrwt beam="1">  1        2 0.23019817E+00 0.78400755E+03</pdfrwt>
<pdfrwt beam="2">  1       -2 0.75288281E-01 0.78400755E+03</pdfrwt>
<totfact> 0.20593705E+01</totfact>
</mgrwt>
</event>
<event>
12    1  0.3203156E-008  0.1107487E+04  0.7818608E-02  0.9197925E-01
          1   -1    0    0  501    0  0.00000000000E+00  0.00000000000E+00  0.22914311424E+04  0.22914311424E+04  0.00000000000E+00 0. -1.
         -1   -1    0    0    0  501 -0.00000000000E+00 -0.00000000000E+00 -0.68044994673E+03  0.68044994673E+03  0.00000000000E+00 0.  1.
         23    2    1    2    0    0 -0.72213653019E+03  0.73940004772E+03  0.96115365388E+02  0.10422518009E+04  0.94111923876E+02 0.  0.
    5000000    2    1    2    0    0  0.72213653019E+03 -0.73940004772E+03  0.15148658303E+04  0.19296292882E+04  0.60038080200E+03 0.  0.
         23    2    4    4    0    0  0.66877190189E+03 -0.29705426053E+03  0.87091313654E+03  0.11413045144E+04  0.92678005140E+02 0.  0.
         23    2    4    4    0    0  0.53364628304E+02 -0.44234578719E+03  0.64395269372E+03  0.78832477385E+03  0.90902685994E+02 0.  0.
          5    1    3    3  502    0 -0.50964947349E+02  0.88566331638E+02 -0.10340089507E+01  0.10229653040E+03  0.47000000000E+01 0. -1.
         -5    1    3    3    0  502 -0.67117158284E+03  0.65083371608E+03  0.97149374338E+02  0.93995527050E+03  0.47000000000E+01 0.  1.
         13    1    5    5    0    0  0.47718950495E+03 -0.20595664187E+03  0.68024510232E+03  0.85607322186E+03  0.00000000000E+00 0. -1.
        -13    1    5    5    0    0  0.19158239694E+03 -0.91097618666E+02  0.19066803422E+03  0.28523129249E+03  0.00000000000E+00 0.  1.
          3    1    6    6  503    0  0.11239815620E+02 -0.16224051099E+03  0.31282948569E+03  0.35257708942E+03  0.00000000000E+00 0. -1.
         -3    1    6    6    0  503  0.42124812684E+02 -0.28010527620E+03  0.33112320803E+03  0.43574768444E+03  0.00000000000E+00 0.  1.
<mgrwt>
<rscale>  0 0.11074868E+04</rscale>
<asrwt>0</asrwt>
<pdfrwt beam="1">  1        1 0.35252786E+00 0.11074868E+04</pdfrwt>
<pdfrwt beam="2">  1       -1 0.10468461E+00 0.11074868E+04</pdfrwt>
<totfact> 0.16170780E+00</totfact>
</mgrwt>
</event>
<event>
12    1  0.3203156E-008  0.4052889E+03  0.7818608E-02  0.1041964E+00
         -2   -1    0    0    0  501 -0.00000000000E+00  0.00000000000E+00  0.20887491895E+03  0.20887491895E+03  0.00000000000E+00 0.  1.
          2   -1    0    0  501    0  0.00000000000E+00 -0.00000000000E+00 -0.14665278503E+04  0.14665278503E+04  0.00000000000E+00 0. -1.
         23    2    1    2    0    0  0.10889346012E+03 -0.20184521443E+03  0.17872353441E+02  0.24720720681E+03  0.90513567131E+02 0.  0.
    5000000    2    1    2    0    0 -0.10889346012E+03  0.20184521443E+03 -0.12755252848E+04  0.14281955625E+04  0.60014876172E+03 0.  0.
         23    2    4    4    0    0  0.11609958412E+03 -0.11953457242E+03 -0.17910590840E+03  0.26020209696E+03  0.88648617598E+02 0.  0.
         23    2    4    4    0    0 -0.22499304424E+03  0.32137978685E+03 -0.10964193764E+04  0.11679934655E+04  0.90368407826E+02 0.  0.
          5    1    3    3  502    0  0.72390737855E+02 -0.10146102308E+03 -0.32684363928E+02  0.12893841854E+03  0.47000000000E+01 0. -1.
         -5    1    3    3    0  502  0.36502722264E+02 -0.10038419135E+03  0.50556717369E+02  0.11826878826E+03  0.47000000000E+01 0.  1.
         13    1    5    5    0    0  0.96393807236E+02 -0.54608732393E+02 -0.14974233664E+03  0.18627036026E+03  0.00000000000E+00 0.  1.
        -13    1    5    5    0    0  0.19705776889E+02 -0.64925840024E+02 -0.29363571756E+02  0.73931736703E+02  0.00000000000E+00 0. -1.
          2    1    6    6  503    0 -0.44640345622E+02  0.19653914882E+02 -0.17928917920E+03  0.18580539983E+03  0.00000000000E+00 0. -1.
         -2    1    6    6    0  503 -0.18035269862E+03  0.30172587196E+03 -0.91713019720E+03  0.98218806566E+03  0.00000000000E+00 0.  1.
<mgrwt>
<rscale>  0 0.40528887E+03</rscale>
<asrwt>0</asrwt>
<pdfrwt beam="1">  1        2 0.22561966E+00 0.40528887E+03</pdfrwt>
<pdfrwt beam="2">  1       -2 0.32134604E-01 0.40528887E+03</pdfrwt>
<totfact> 0.12634395E+02</totfact>
</mgrwt>
</event>
<event>
12    1  0.3203156E-008  0.3645512E+03  0.7818608E-02  0.1056796E+00
         -2   -1    0    0    0  501 -0.00000000000E+00  0.00000000000E+00  0.28844757674E+03  0.28844757674E+03  0.00000000000E+00 0.  1.
          2   -1    0    0  501    0  0.00000000000E+00 -0.00000000000E+00 -0.82585243742E+03  0.82585243742E+03  0.00000000000E+00 0. -1.
         23    2    1    2    0    0  0.15687529895E+03  0.22364317236E+03 -0.29391071990E+03  0.41142881116E+03  0.90906696202E+02 0.  0.
    5000000    2    1    2    0    0 -0.15687529895E+03 -0.22364317236E+03 -0.24349414078E+03  0.70287120300E+03  0.60009366223E+03 0.  0.
         23    2    4    4    0    0 -0.13781101659E+03  0.64794096268E+02 -0.34291164827E+03  0.38553779259E+03  0.88661377120E+02 0.  0.
         23    2    4    4    0    0 -0.19064282369E+02 -0.28843726863E+03  0.99417507489E+02  0.31733341041E+03  0.85188894650E+02 0.  0.
          5    1    3    3  502    0  0.62846957295E+02  0.40119616378E+02 -0.41504153084E+02  0.85463491520E+02  0.47000000000E+01 0. -1.
         -5    1    3    3    0  502  0.94028341660E+02  0.18352355598E+03 -0.25240656682E+03  0.32596531964E+03  0.47000000000E+01 0.  1.
         13    1    5    5    0    0 -0.11272219635E+03  0.65116574934E+02 -0.18838711238E+03  0.22898944516E+03  0.00000000000E+00 0. -1.
        -13    1    5    5    0    0 -0.25088820236E+02 -0.32247866590E+00 -0.15452453589E+03  0.15654834744E+03  0.00000000000E+00 0.  1.
          3    1    6    6  503    0  0.15719551357E+02 -0.77940538277E+02  0.61773333914E+02  0.10068652633E+03  0.00000000000E+00 0. -1.
         -3    1    6    6    0  503 -0.34783833727E+02 -0.21049673035E+03  0.37644173574E+02  0.21664688408E+03  0.00000000000E+00 0.  1.
<mgrwt>
<rscale>  0 0.36455117E+03</rscale>
<asrwt>0</asrwt>
<pdfrwt beam="1">  1        2 0.12705422E+00 0.36455117E+03</pdfrwt>
<pdfrwt beam="2">  1       -2 0.44376551E-01 0.36455117E+03</pdfrwt>
<totfact> 0.16557634E+02</totfact>
</mgrwt>
</event>
<event>
12    1  0.3203156E-008  0.3956867E+03  0.7818608E-02  0.1045284E+00
          1   -1    0    0  501    0  0.00000000000E+00  0.00000000000E+00  0.17819103438E+04  0.17819103438E+04  0.00000000000E+00 0. -1.
         -1   -1    0    0    0  501 -0.00000000000E+00 -0.00000000000E+00 -0.15922581066E+03  0.15922581066E+03  0.00000000000E+00 0.  1.
         23    2    1    2    0    0 -0.20082137853E+03  0.28451129384E+03  0.42475250248E+03  0.55679103435E+03  0.91245082992E+02 0.  0.
    5000000    2    1    2    0    0  0.20082137853E+03 -0.28451129384E+03  0.11979320306E+04  0.13843451201E+04  0.60007862743E+03 0.  0.
         23    2    4    4    0    0  0.10679728377E+03 -0.30862393641E+03  0.12048916945E+04  0.12519156432E+04  0.94203970744E+02 0.  0.
         23    2    4    4    0    0  0.94024094759E+02  0.24112642573E+02 -0.69596639291E+01  0.13242947690E+03  0.89817478822E+02 0.  0.
          5    1    3    3  502    0 -0.75149973572E+02  0.18125674222E+03  0.21136225481E+03  0.28843997276E+03  0.47000000000E+01 0. -1.
         -5    1    3    3    0  502 -0.12567140496E+03  0.10325455162E+03  0.21339024767E+03  0.26835106159E+03  0.47000000000E+01 0.  1.
         11    1    5    5    0    0  0.55899255391E+02 -0.13030175947E+03  0.36006742624E+03  0.38697781166E+03  0.00000000000E+00 0. -1.
        -11    1    5    5    0    0  0.50898028381E+02 -0.17832217694E+03  0.84482426830E+03  0.86493783152E+03  0.00000000000E+00 0.  1.
          3    1    6    6  503    0  0.76912121899E+02  0.16704674476E+01 -0.41831892028E+02  0.87568100055E+02  0.00000000000E+00 0. -1.
         -3    1    6    6    0  503  0.17111972859E+02  0.22442175126E+02  0.34872228099E+02  0.44861376841E+02  0.00000000000E+00 0.  1.
<mgrwt>
<rscale>  0 0.39568673E+03</rscale>
<asrwt>0</asrwt>
<pdfrwt beam="1">  1        1 0.27414004E+00 0.39568673E+03</pdfrwt>
<pdfrwt beam="2">  1       -1 0.24496280E-01 0.39568673E+03</pdfrwt>
<totfact> 0.65909525E+01</totfact>
</mgrwt>
</event>
<event>
12    1  0.3203156E-008  0.1543438E+04  0.7818608E-02  0.8856070E-01
         -2   -1    0    0    0  501 -0.00000000000E+00  0.00000000000E+00  0.25529193325E+04  0.25529193325E+04  0.00000000000E+00 0. -1.
          2   -1    0    0  501    0  0.00000000000E+00 -0.00000000000E+00 -0.10898125015E+04  0.10898125015E+04  0.00000000000E+00 0.  1.
         23    2    1    2    0    0  0.39892003616E+03  0.14335052337E+04  0.13875815183E+04  0.20366320822E+04  0.91724140756E+02 0.  0.
    5000000    2    1    2    0    0 -0.39892003616E+03 -0.14335052337E+04  0.75525312737E+02  0.16060997517E+04  0.59981487912E+03 0.  0.
         23    2    4    4    0    0  0.10504736967E+03 -0.98146773593E+02  0.42640348997E+02  0.17561078054E+03  0.91395885225E+02 0.  0.
         23    2    4    4    0    0 -0.50396740583E+03 -0.13353584602E+04  0.32884963740E+02  0.14304889712E+04  0.89732450182E+02 0.  0.
          5    1    3    3  502    0  0.29511743904E+03  0.10112502778E+04  0.10348796389E+04  0.14767259001E+04  0.47000000000E+01 0. -1.
         -5    1    3    3    0  502  0.10380259712E+03  0.42225495595E+03  0.35270187940E+03  0.55990618207E+03  0.47000000000E+01 0.  1.
         11    1    5    5    0    0 -0.16642301923E+02 -0.16989975003E+02  0.23808714474E+01  0.23901757525E+02  0.00000000000E+00 0. -1.
        -11    1    5    5    0    0  0.12168967160E+03 -0.81156798590E+02  0.40259477550E+02  0.15170902301E+03  0.00000000000E+00 0.  1.
          4    1    6    6  503    0 -0.20882904211E+03 -0.47252512217E+03  0.44234564985E+02  0.51850386368E+03  0.00000000000E+00 0. -1.
         -4    1    6    6    0  503 -0.29513836372E+03 -0.86283333798E+03 -0.11349601245E+02  0.91198510751E+03  0.00000000000E+00 0.  1.
<mgrwt>
<rscale>  0 0.15434381E+04</rscale>
<asrwt>0</asrwt>
<pdfrwt beam="1">  1        2 0.16766346E+00 0.15434381E+04</pdfrwt>
<pdfrwt beam="2">  1       -2 0.39275682E+00 0.15434381E+04</pdfrwt>
<totfact> 0.17262805E-01</totfact>
</mgrwt>
</event>
<event>
12    1  0.3203156E-008  0.2091060E+03  0.7818608E-02  0.1142276E+00
         -2   -1    0    0    0  501 -0.00000000000E+00  0.00000000000E+00  0.33996348474E+03  0.33996348474E+03  0.00000000000E+00 0.  1.
          2   -1    0    0  501    0  0.00000000000E+00 -0.00000000000E+00 -0.44096627950E+03  0.44096627950E+03  0.00000000000E+00 0. -1.
         23    2    1    2    0    0  0.12734300705E+03  0.15046813954E+02  0.10496453763E+02  0.15784097553E+03  0.91438230300E+02 0.  0.
    5000000    2    1    2    0    0 -0.12734300705E+03 -0.15046813954E+02 -0.11149924852E+03  0.62308878872E+03  0.59947052317E+03 0.  0.
         23    2    4    4    0    0 -0.15492316776E+03 -0.96965812128E+02  0.20107824058E+03  0.28601398451E+03  0.89263564051E+02 0.  0.
         23    2    4    4    0    0  0.27580160718E+02  0.81918998174E+02 -0.31257748910E+03  0.33707480421E+03  0.91887700010E+02 0.  0.
          5    1    3    3  502    0  0.32871600961E+02  0.14425535878E+02 -0.37197007896E+02  0.51907086525E+02  0.47000000000E+01 0. -1.
         -5    1    3    3    0  502  0.94471406085E+02  0.62127807586E+00  0.47693461660E+02  0.10593388900E+03  0.47000000000E+01 0.  1.
         11    1    5    5    0    0 -0.14747331323E+03 -0.11078571888E+03  0.16840351295E+03  0.24976308133E+03  0.00000000000E+00 0. -1.
        -11    1    5    5    0    0 -0.74498545299E+01  0.13819906750E+02  0.32674727634E+02  0.36250903176E+02  0.00000000000E+00 0.  1.
          1    1    6    6  503    0  0.18471906505E+02  0.69204298699E+02 -0.31333345798E+03  0.32141608886E+03  0.00000000000E+00 0. -1.
         -1    1    6    6    0  503  0.91082542134E+01  0.12714699476E+02  0.75596887533E+00  0.15658715353E+02  0.00000000000E+00 0.  1.
<mgrwt>
<rscale>  0 0.20910600E+03</rscale>
<asrwt>0</asrwt>
<pdfrwt beam="1">  1        2 0.67840966E-01 0.20910600E+03</pdfrwt>
<pdfrwt beam="2">  1       -2 0.52302075E-01 0.20910600E+03</pdfrwt>
<totfact> 0.25453569E+02</totfact>
</mgrwt>
</event>
<event>
12    1  0.3203156E-008  0.6528296E+03  0.7818608E-02  0.9801484E-01
         -1   -1    0    0    0  501 -0.00000000000E+00  0.00000000000E+00  0.53560516807E+03  0.53560516807E+03  0.00000000000E+00 0.  1.
          1   -1    0    0  501    0  0.00000000000E+00 -0.00000000000E+00 -0.91670744420E+03  0.91670744420E+03  0.00000000000E+00 0. -1.
         23    2    1    2    0    0  0.44470938190E+03  0.28115185119E+03  0.65504128069E+02  0.53809444712E+03  0.91880604313E+02 0.  0.
    5000000    2    1    2    0    0 -0.44470938190E+03 -0.28115185119E+03 -0.44660640421E+03  0.91421816515E+03  0.59960384875E+03 0.  0.
         23    2    4    4    0    0 -0.33008349154E+03 -0.44931530811E+03 -0.26074378075E+03  0.62204083307E+03  0.90045107104E+02 0.  0.
         23    2    4    4    0    0 -0.11462589036E+03  0.16816345693E+03 -0.18586262345E+03  0.29217733208E+03  0.96977500471E+02 0.  0.
          5    1    3    3  502    0  0.23895851207E+03  0.14881600088E+03  0.80870046537E+02  0.29293246156E+03  0.47000000000E+01 0. -1.
         -5    1    3    3    0  502  0.20575086983E+03  0.13233585031E+03 -0.15365918468E+02  0.24516198556E+03  0.47000000000E+01 0.  1.
         13    1    5    5    0    0 -0.17802024976E+03 -0.16787490456E+03 -0.10543748441E+03  0.26643996702E+03  0.00000000000E+00 0. -1.
        -13    1    5    5    0    0 -0.15206324177E+03 -0.28144040355E+03 -0.15530629634E+03  0.35560086605E+03  0.00000000000E+00 0.  1.
          2    1    6    6  503    0 -0.22025336330E+02  0.93025274003E+02 -0.39631174009E+02  0.10348645804E+03  0.00000000000E+00 0.  1.
         -2    1    6    6    0  503 -0.92600554034E+02  0.75138182922E+02 -0.14623144945E+03  0.18869087404E+03  0.00000000000E+00 0. -1.
<mgrwt>
<rscale>  0 0.65282964E+03</rscale>
<asrwt>0</asrwt>
<pdfrwt beam="1">  1        1 0.14103191E+00 0.65282964E+03</pdfrwt>
<pdfrwt beam="2">  1       -1 0.82400796E-01 0.65282964E+03</pdfrwt>
<totfact> 0.26825531E+01</totfact>
</mgrwt>
</event>
<event>
12    1  0.3203156E-008  0.8058021E+03  0.7818608E-02  0.9551657E-01
         -2   -1    0    0    0  501 -0.00000000000E+00  0.00000000000E+00  0.49462356855E+03  0.49462356855E+03  0.00000000000E+00 0.  1.
          2   -1    0    0  501    0  0.00000000000E+00 -0.00000000000E+00 -0.16170377436E+04  0.16170377436E+04  0.00000000000E+00 0. -1.
         23    2    1    2    0    0  0.10767041113E+03  0.78020368733E+03 -0.58602470201E+03  0.98565481297E+03  0.88202878668E+02 0.  0.
    5000000    2    1    2    0    0 -0.10767041113E+03 -0.78020368733E+03 -0.53638947307E+03  0.11260064992E+04  0.59988853823E+03 0.  0.
         23    2    4    4    0    0 -0.49219480188E+02 -0.65988756089E+03 -0.11663689321E+03  0.67772825534E+03  0.88528373932E+02 0.  0.
         23    2    4    4    0    0 -0.58450930944E+02 -0.12031612644E+03 -0.41975257986E+03  0.44827824387E+03  0.82877463888E+02 0.  0.
          5    1    3    3  502    0  0.64963232269E+01  0.36691094036E+03 -0.27207112001E+03  0.45684857963E+03  0.47000000000E+01 0. -1.
         -5    1    3    3    0  502  0.10117408790E+03  0.41329274697E+03 -0.31395358200E+03  0.52880623333E+03  0.47000000000E+01 0.  1.
         11    1    5    5    0    0 -0.16183970059E+02 -0.24848956484E+03 -0.64640178604E+00  0.24901687203E+03  0.00000000000E+00 0.  1.
        -11    1    5    5    0    0 -0.33035510128E+02 -0.41139799605E+03 -0.11599049142E+03  0.42871138331E+03  0.00000000000E+00 0. -1.
          4    1    6    6  503    0  0.21369767508E+02 -0.21442361614E+02 -0.82933793311E+02  0.88286215843E+02  0.00000000000E+00 0. -1.
         -4    1    6    6    0  503 -0.79820698452E+02 -0.98873764829E+02 -0.33681878655E+03  0.35999202803E+03  0.00000000000E+00 0.  1.
<mgrwt>
<rscale>  0 0.80580207E+03</rscale>
<asrwt>0</asrwt>
<pdfrwt beam="1">  1        2 0.24877503E+00 0.80580207E+03</pdfrwt>
<pdfrwt beam="2">  1       -2 0.76095936E-01 0.80580207E+03</pdfrwt>
<totfact> 0.17192865E+01</totfact>
</mgrwt>
</event>
<event>
12    1  0.4433789E-008  0.9543133E+03  0.7818608E-02  0.9360123E-01
         -2   -1    0    0    0  501 -0.00000000000E+00  0.00000000000E+00  0.51976566174E+03  0.51976566174E+03  0.00000000000E+00 0.  1.
          2   -1    0    0  501    0  0.00000000000E+00 -0.00000000000E+00 -0.19826124056E+04  0.19826124056E+04  0.00000000000E+00 0. -1.
         23    2    1    2    0    0  0.11786563400E+03 -0.87281744360E+03 -0.10133568919E+04  0.13458834466E+04  0.93848090382E+02 0.  0.
    5000000    2    1    2    0    0 -0.11786563400E+03  0.87281744360E+03 -0.44948985197E+03  0.11564946207E+04  0.59978002896E+03 0.  0.
         23    2    4    4    0    0 -0.30136349587E+03  0.33810790274E+03 -0.34337868741E+03  0.57557353948E+03  0.90769300141E+02 0.  0.
         23    2    4    4    0    0  0.18349786187E+03  0.53470954086E+03 -0.10611116457E+03  0.58092108122E+03  0.81387744502E+02 0.  0.
          5    1    3    3  502    0  0.86808401246E+02 -0.52737443733E+03 -0.54826193012E+03  0.76568448443E+03  0.47000000000E+01 0. -1.
         -5    1    3    3    0  502  0.31057232753E+02 -0.34544300627E+03 -0.46509496178E+03  0.58019896222E+03  0.47000000000E+01 0.  1.
         11    1    5    5    0    0 -0.86157104300E+02  0.41950567427E+02 -0.72567262521E+02  0.12020359528E+03  0.00000000000E+00 0. -1.
        -11    1    5    5    0    0 -0.21520639157E+03  0.29615733531E+03 -0.27081142488E+03  0.45536994420E+03  0.00000000000E+00 0.  1.
          2    1    6    6  503    0  0.11228542661E+03  0.31860929474E+03 -0.22684161429E+02  0.33857712696E+03  0.00000000000E+00 0. -1.
         -2    1    6    6    0  503  0.71212435266E+02  0.21610024612E+03 -0.83427003138E+02  0.24234395425E+03  0.00000000000E+00 0.  1.
<mgrwt>
<rscale>  0 0.95431334E+03</rscale>
<asrwt>0</asrwt>
<pdfrwt beam="1">  1        2 0.30501730E+00 0.95431334E+03</pdfrwt>
<pdfrwt beam="2">  1       -2 0.79963947E-01 0.95431334E+03</pdfrwt>
<totfact> 0.95213172E+00</totfact>
</mgrwt>
</event>
<event>
12    1  0.3203156E-008  0.4155316E+03  0.7818608E-02  0.1038530E+00
          1   -1    0    0  501    0  0.00000000000E+00  0.00000000000E+00  0.13036550099E+04  0.13036550099E+04  0.00000000000E+00 0. -1.
         -1   -1    0    0    0  501 -0.00000000000E+00 -0.00000000000E+00 -0.26036279801E+03  0.26036279801E+03  0.00000000000E+00 0.  1.
         23    2    1    2    0    0 -0.10834797981E+02  0.30053762091E+03 -0.10532399287E+02  0.31453317018E+03  0.91541953652E+02 0.  0.
    5000000    2    1    2    0    0  0.10834797981E+02 -0.30053762091E+03  0.10538246112E+04  0.12494846378E+04  0.60018771597E+03 0.  0.
         23    2    4    4    0    0  0.19873629018E+03 -0.10871760267E+03  0.11747476619E+03  0.27115538468E+03  0.91702190736E+02 0.  0.
         23    2    4    4    0    0 -0.18790149220E+03 -0.19182001824E+03  0.93634984502E+03  0.97832925308E+03  0.90968153842E+02 0.  0.
          5    1    3    3  502    0  0.36912824501E+02  0.13741096220E+03  0.12663621574E+02  0.14292230917E+03  0.47000000000E+01 0. -1.
         -5    1    3    3    0  502 -0.47747622482E+02  0.16312665871E+03 -0.23196020861E+02  0.17161086101E+03  0.47000000000E+01 0.  1.
         11    1    5    5    0    0  0.50669186492E+02 -0.75645834564E+02  0.59367126672E+02  0.10869275264E+03  0.00000000000E+00 0. -1.
        -11    1    5    5    0    0  0.14806710368E+03 -0.33071768103E+02  0.58107639513E+02  0.16246263204E+03  0.00000000000E+00 0.  1.
          3    1    6    6  503    0 -0.10645599870E+03 -0.15112987218E+03  0.51274640564E+03  0.54505228595E+03  0.00000000000E+00 0. -1.
         -3    1    6    6    0  503 -0.81445493500E+02 -0.40690146060E+02  0.42360343937E+03  0.43327696713E+03  0.00000000000E+00 0.  1.
<mgrwt>
<rscale>  0 0.41553162E+03</rscale>
<asrwt>0</asrwt>
<pdfrwt beam="1">  1        1 0.20056230E+00 0.41553162E+03</pdfrwt>
<pdfrwt beam="2">  1       -1 0.40055816E-01 0.41553162E+03</pdfrwt>
<totfact> 0.58622301E+01</totfact>
</mgrwt>
</event>
<event>
12    1  0.3203156E-008  0.4527230E+03  0.7818608E-02  0.1026913E+00
          2   -1    0    0  501    0  0.00000000000E+00  0.00000000000E+00  0.82774406894E+03  0.82774406894E+03  0.00000000000E+00 0. -1.
         -2   -1    0    0    0  501 -0.00000000000E+00 -0.00000000000E+00 -0.59932315793E+03  0.59932315793E+03  0.00000000000E+00 0.  1.
         23    2    1    2    0    0  0.24273367419E+03 -0.24933266686E+03  0.55434276657E+03  0.66092183269E+03  0.91844165426E+02 0.  0.
    5000000    2    1    2    0    0 -0.24273367419E+03  0.24933266686E+03 -0.32592185557E+03  0.76614539418E+03  0.59972268069E+03 0.  0.
         23    2    4    4    0    0 -0.40792018877E+02 -0.10996443228E+03 -0.31110343459E+03  0.34349079270E+03  0.86281008834E+02 0.  0.
         23    2    4    4    0    0 -0.20194165531E+03  0.35929709914E+03 -0.14818420979E+02  0.42265460148E+03  0.92425586002E+02 0.  0.
          5    1    3    3  502    0  0.81032348964E+02 -0.81134891580E+02  0.10971197162E+03  0.15877001898E+03  0.47000000000E+01 0. -1.
         -5    1    3    3    0  502  0.16170132523E+03 -0.16819777528E+03  0.44463079495E+03  0.50215181371E+03  0.47000000000E+01 0.  1.
         11    1    5    5    0    0 -0.64056850499E+02 -0.88555193328E+02 -0.27244526455E+03  0.29355020786E+03  0.00000000000E+00 0.  1.
        -11    1    5    5    0    0  0.23264831622E+02 -0.21409238955E+02 -0.38658170040E+02  0.49940584837E+02  0.00000000000E+00 0. -1.
          2    1    6    6  503    0 -0.14986531061E+03  0.20779397831E+03  0.25472692687E+02  0.25746224348E+03  0.00000000000E+00 0. -1.
         -2    1    6    6    0  503 -0.52076344700E+02  0.15150312083E+03 -0.40291113665E+02  0.16519235800E+03  0.00000000000E+00 0.  1.
<mgrwt>
<rscale>  0 0.45272297E+03</rscale>
<asrwt>0</asrwt>
<pdfrwt beam="1">  1        2 0.12734524E+00 0.45272297E+03</pdfrwt>
<pdfrwt beam="2">  1       -2 0.92203562E-01 0.45272297E+03</pdfrwt>
<totfact> 0.34479301E+01</totfact>
</mgrwt>
</event>
<event>
12    1  0.3203156E-008  0.1539692E+04  0.7818608E-02  0.8858479E-01
         -1   -1    0    0    0  501 -0.00000000000E+00  0.00000000000E+00  0.25772475225E+04  0.25772475225E+04  0.00000000000E+00 0.  1.
          1   -1    0    0  501    0  0.00000000000E+00 -0.00000000000E+00 -0.11389120296E+04  0.11389120296E+04  0.00000000000E+00 0. -1.
         23    2    1    2    0    0 -0.10627255119E+04 -0.10366884959E+04  0.15019070285E+04  0.21136053404E+04  0.86569402723E+02 0.  0.
    5000000    2    1    2    0    0  0.10627255119E+04  0.10366884959E+04 -0.63571535632E+02  0.16025542118E+04  0.60002509142E+03 0.  0.
         23    2    4    4    0    0  0.10030889255E+04  0.65209883698E+03 -0.33513262274E+02  0.12002839236E+04  0.90211268458E+02 0.  0.
         23    2    4    4    0    0  0.59636586384E+02  0.38458965894E+03 -0.30058273358E+02  0.40227028812E+03  0.97222202779E+02 0.  0.
          5    1    3    3  502    0 -0.94215132398E+03 -0.91196634044E+03  0.13629075563E+04  0.18912617007E+04  0.47000000000E+01 0. -1.
         -5    1    3    3    0  502 -0.12057418791E+03 -0.12472215548E+03  0.13899947222E+03  0.22234363974E+03  0.47000000000E+01 0.  1.
         13    1    5    5    0    0  0.63864572974E+03  0.45420344574E+03 -0.49679589448E+02  0.78526250379E+03  0.00000000000E+00 0.  1.
        -13    1    5    5    0    0  0.36444319576E+03  0.19789539124E+03  0.16166327174E+02  0.41502141986E+03  0.00000000000E+00 0. -1.
          4    1    6    6  503    0 -0.14447400910E+02  0.13731037720E+03  0.19436241525E+02  0.13942967606E+03  0.00000000000E+00 0. -1.
         -4    1    6    6    0  503  0.74083987294E+02  0.24727928173E+03 -0.49494514883E+02  0.26284061207E+03  0.00000000000E+00 0.  1.
<mgrwt>
<rscale>  0 0.15396916E+04</rscale>
<asrwt>0</asrwt>
<pdfrwt beam="1">  1        1 0.17521724E+00 0.15396916E+04</pdfrwt>
<pdfrwt beam="2">  1       -1 0.39649962E+00 0.15396916E+04</pdfrwt>
<totfact> 0.84780568E-02</totfact>
</mgrwt>
</event>
<event>
12    1  0.3203156E-008  0.6095924E+03  0.7818608E-02  0.9885702E-01
          1   -1    0    0  501    0  0.00000000000E+00  0.00000000000E+00  0.32142090864E+04  0.32142090864E+04  0.00000000000E+00 0. -1.
         -1   -1    0    0    0  501 -0.00000000000E+00 -0.00000000000E+00 -0.18245143158E+03  0.18245143158E+03  0.00000000000E+00 0.  1.
         23    2    1    2    0    0  0.28227109773E+03  0.37005783657E+03  0.29931855517E+03  0.56068954206E+03  0.90340412291E+02 0.  0.
    5000000    2    1    2    0    0 -0.28227109773E+03 -0.37005783657E+03  0.27324390996E+04  0.28359709759E+04  0.59990679940E+03 0.  0.
         23    2    4    4    0    0 -0.24010999481E+03 -0.51582137364E+03  0.19301570140E+04  0.20143590210E+04  0.91715144219E+02 0.  0.
         23    2    4    4    0    0 -0.42161102921E+02  0.14576353707E+03  0.80228208559E+03  0.82161195487E+03  0.91460877866E+02 0.  0.
          5    1    3    3  502    0  0.21112949267E+02  0.79475549736E+02  0.66511178598E+02  0.10586758952E+03  0.47000000000E+01 0. -1.
         -5    1    3    3    0  502  0.26115814846E+03  0.29058228683E+03  0.23280737657E+03  0.45482195254E+03  0.47000000000E+01 0.  1.
         13    1    5    5    0    0 -0.12837397874E+03 -0.33221682888E+03  0.13306041831E+04  0.13774452409E+04  0.00000000000E+00 0. -1.
        -13    1    5    5    0    0 -0.11173601607E+03 -0.18360454476E+03  0.59955283095E+03  0.63691378007E+03  0.00000000000E+00 0.  1.
          1    1    6    6  503    0 -0.65109107309E+02  0.68921321414E+02  0.49761617300E+03  0.50656806061E+03  0.00000000000E+00 0. -1.
         -1    1    6    6    0  503  0.22948004388E+02  0.76842215661E+02  0.30466591259E+03  0.31504389426E+03  0.00000000000E+00 0.  1.
<mgrwt>
<rscale>  0 0.60959241E+03</rscale>
<asrwt>0</asrwt>
<pdfrwt beam="1">  1        1 0.49449366E+00 0.60959241E+03</pdfrwt>
<pdfrwt beam="2">  1       -1 0.28069453E-01 0.60959241E+03</pdfrwt>
<totfact> 0.52452457E+00</totfact>
</mgrwt>
</event>
<event>
12    1  0.3203156E-008  0.1425996E+04  0.7818608E-02  0.8935213E-01
         -1   -1    0    0    0  501 -0.00000000000E+00  0.00000000000E+00  0.91865942048E+03  0.91865942048E+03  0.00000000000E+00 0.  1.
          1   -1    0    0  501    0  0.00000000000E+00 -0.00000000000E+00 -0.22714154095E+04  0.22714154095E+04  0.00000000000E+00 0. -1.
         23    2    1    2    0    0  0.87063505345E+03  0.10566579179E+04 -0.45144435620E+03  0.14445169191E+04  0.91081122932E+02 0.  0.
    5000000    2    1    2    0    0 -0.87063505345E+03 -0.10566579179E+04 -0.90131163285E+03  0.17455579109E+04  0.60006533739E+03 0.  0.
         23    2    4    4    0    0  0.65899641210E+02 -0.11760824385E+03 -0.13542550203E+03  0.21145138770E+03  0.90538174412E+02 0.  0.
         23    2    4    4    0    0 -0.93653469466E+03 -0.93904967406E+03 -0.76588613081E+03  0.15341065232E+04  0.89385315377E+02 0.  0.
          5    1    3    3  502    0  0.67219145578E+03  0.86331976681E+03 -0.38113911499E+03  0.11586420880E+04  0.47000000000E+01 0. -1.
         -5    1    3    3    0  502  0.19844359767E+03  0.19333815110E+03 -0.70305241210E+02  0.28587483113E+03  0.47000000000E+01 0.  1.
         11    1    5    5    0    0  0.10632084205E+02 -0.89224716110E+02 -0.11522619945E+03  0.14612038948E+03  0.00000000000E+00 0. -1.
        -11    1    5    5    0    0  0.55267557005E+02 -0.28383527742E+02 -0.20199302577E+02  0.65330998225E+02  0.00000000000E+00 0.  1.
          2    1    6    6  503    0 -0.19102709840E+03 -0.14702782012E+03 -0.12296752213E+03  0.27060957801E+03  0.00000000000E+00 0.  1.
         -2    1    6    6    0  503 -0.74550759626E+03 -0.79202185394E+03 -0.64291860868E+03  0.12634969452E+04  0.00000000000E+00 0. -1.
<mgrwt>
<rscale>  0 0.14259960E+04</rscale>
<asrwt>0</asrwt>
<pdfrwt beam="1">  1        1 0.34944852E+00 0.14259960E+04</pdfrwt>
<pdfrwt beam="2">  1       -1 0.14133222E+00 0.14259960E+04</pdfrwt>
<totfact> 0.76293588E-01</totfact>
</mgrwt>
</event>
<event>
12    1  0.3203156E-008  0.7819676E+03  0.7818608E-02  0.9586491E-01
          2   -1    0    0  501    0  0.00000000000E+00  0.00000000000E+00  0.51087691129E+03  0.51087691129E+03  0.00000000000E+00 0. -1.
         -2   -1    0    0    0  501 -0.00000000000E+00 -0.00000000000E+00 -0.17711433487E+04  0.17711433487E+04  0.00000000000E+00 0.  1.
         23    2    1    2    0    0  0.24733799050E+03  0.64435454150E+03  0.34307936542E+02  0.69704520858E+03  0.91247638915E+02 0.  0.
    5000000    2    1    2    0    0 -0.24733799050E+03 -0.64435454150E+03 -0.12945743739E+04  0.15849750514E+04  0.59987852700E+03 0.  0.
         23    2    4    4    0    0  0.47469707037E+02  0.76806755883E+02 -0.19100720722E+03  0.23101258675E+03  0.93436669431E+02 0.  0.
         23    2    4    4    0    0 -0.29480769754E+03 -0.72116129738E+03 -0.11035671667E+04  0.13539624646E+04  0.91480428485E+02 0.  0.
          5    1    3    3  502    0  0.38396866812E+02  0.18638232930E+03  0.35510897727E+02  0.19363833792E+03  0.47000000000E+01 0. -1.
         -5    1    3    3    0  502  0.20894112369E+03  0.45797221220E+03 -0.12029611850E+01  0.50340687066E+03  0.47000000000E+01 0.  1.
         11    1    5    5    0    0  0.18219921231E+02  0.25140897548E+02 -0.16197387537E+03  0.16492291097E+03  0.00000000000E+00 0.  1.
        -11    1    5    5    0    0  0.29249785806E+02  0.51665858335E+02 -0.29033331842E+02  0.66089675783E+02  0.00000000000E+00 0. -1.
          3    1    6    6  503    0 -0.19200918385E+03 -0.42810454720E+03 -0.59031111639E+03  0.75406116738E+03  0.00000000000E+00 0. -1.
         -3    1    6    6    0  503 -0.10279851369E+03 -0.29305675018E+03 -0.51325605031E+03  0.59990129723E+03  0.00000000000E+00 0.  1.
<mgrwt>
<rscale>  0 0.78196757E+03</rscale>
<asrwt>0</asrwt>
<pdfrwt beam="1">  1        2 0.78596447E-01 0.78196757E+03</pdfrwt>
<pdfrwt beam="2">  1       -2 0.27248360E+00 0.78196757E+03</pdfrwt>
<totfact> 0.28948199E+00</totfact>
</mgrwt>
</event>
<event>
12    1  0.3203156E-008  0.6057536E+03  0.7818608E-02  0.9893541E-01
         -2   -1    0    0    0  501 -0.00000000000E+00  0.00000000000E+00  0.21289211413E+03  0.21289211413E+03  0.00000000000E+00 0.  1.
          2   -1    0    0  501    0  0.00000000000E+00 -0.00000000000E+00 -0.21570847916E+04  0.21570847916E+04  0.00000000000E+00 0. -1.
         23    2    1    2    0    0 -0.25458765420E+03 -0.42827471936E+03 -0.42092418672E+03  0.65868356207E+03  0.91938865883E+02 0.  0.
    5000000    2    1    2    0    0  0.25458765420E+03  0.42827471936E+03 -0.15232684908E+04  0.17112933437E+04  0.59995325173E+03 0.  0.
         23    2    4    4    0    0 -0.14075884757E+03  0.45188492197E+02 -0.15205193213E+03  0.23102338600E+03  0.91634937755E+02 0.  0.
         23    2    4    4    0    0  0.39534650177E+03  0.38308622716E+03 -0.13712165587E+04  0.14802699577E+04  0.88940334183E+02 0.  0.
          5    1    3    3  502    0 -0.66416716447E+02 -0.57250479651E+02 -0.48568018039E+02  0.10034809425E+03  0.47000000000E+01 0. -1.
         -5    1    3    3    0  502 -0.18817093775E+03 -0.37102423971E+03 -0.37235616868E+03  0.55833546782E+03  0.47000000000E+01 0.  1.
         11    1    5    5    0    0 -0.61299117648E+02  0.39921132146E+02 -0.12869820899E+03  0.14803549444E+03  0.00000000000E+00 0.  1.
        -11    1    5    5    0    0 -0.79459729922E+02  0.52673600505E+01 -0.23353723142E+02  0.82987891561E+02  0.00000000000E+00 0. -1.
          1    1    6    6  503    0  0.27580064618E+03  0.30920536009E+03 -0.95634765889E+03  0.10422450747E+04  0.00000000000E+00 0. -1.
         -1    1    6    6    0  503  0.11954585559E+03  0.73880867073E+02 -0.41486889977E+03  0.43802488297E+03  0.00000000000E+00 0.  1.
<mgrwt>
<rscale>  0 0.60575357E+03</rscale>
<asrwt>0</asrwt>
<pdfrwt beam="1">  1        2 0.33185920E+00 0.60575357E+03</pdfrwt>
<pdfrwt beam="2">  1       -2 0.32752633E-01 0.60575357E+03</pdfrwt>
<totfact> 0.50007791E+01</totfact>
</mgrwt>
</event>
<event>
12    1  0.3203156E-008  0.5889226E+03  0.7818608E-02  0.9928658E-01
          1   -1    0    0  501    0  0.00000000000E+00  0.00000000000E+00  0.87230876891E+03  0.87230876891E+03  0.00000000000E+00 0. -1.
         -1   -1    0    0    0  501 -0.00000000000E+00 -0.00000000000E+00 -0.57658364723E+03  0.57658364723E+03  0.00000000000E+00 0.  1.
         23    2    1    2    0    0 -0.46859151561E+03  0.22107933376E+02 -0.22276738828E+03  0.52745046304E+03  0.92260026359E+02 0.  0.
    5000000    2    1    2    0    0  0.46859151561E+03 -0.22107933376E+02  0.51849250996E+03  0.92144195310E+03  0.60012833696E+03 0.  0.
         23    2    4    4    0    0  0.40902294786E+03 -0.23697860764E+03  0.19616295655E+03  0.51979809555E+03  0.90837890010E+02 0.  0.
         23    2    4    4    0    0  0.59568567750E+02  0.21487067426E+03  0.32232955341E+03  0.40164385755E+03  0.87770304667E+02 0.  0.
          5    1    3    3  502    0 -0.19151116183E+03  0.32318348664E+02 -0.49573447934E+02  0.20050091647E+03  0.47000000000E+01 0. -1.
         -5    1    3    3    0  502 -0.27708035378E+03 -0.10210415288E+02 -0.17319394034E+03  0.32694954657E+03  0.47000000000E+01 0.  1.
         13    1    5    5    0    0  0.36829196091E+03 -0.17731107569E+03  0.15934376777E+03  0.43871245978E+03  0.00000000000E+00 0.  1.
        -13    1    5    5    0    0  0.40730986945E+02 -0.59667531947E+02  0.36819188783E+02  0.81085635773E+02  0.00000000000E+00 0. -1.
          3    1    6    6  503    0  0.49006738109E+02  0.11732009739E+03  0.24749174507E+03  0.27824059644E+03  0.00000000000E+00 0. -1.
         -3    1    6    6    0  503  0.10561829642E+02  0.97550576873E+02  0.74837808342E+02  0.12340326110E+03  0.00000000000E+00 0.  1.
<mgrwt>
<rscale>  0 0.58892261E+03</rscale>
<asrwt>0</asrwt>
<pdfrwt beam="1">  1        1 0.13420135E+00 0.58892261E+03</pdfrwt>
<pdfrwt beam="2">  1       -1 0.88705176E-01 0.58892261E+03</pdfrwt>
<totfact> 0.25078191E+01</totfact>
</mgrwt>
</event>
<event>
12    1  0.3203156E-008  0.7089346E+03  0.7818608E-02  0.9702074E-01
          2   -1    0    0  501    0  0.00000000000E+00  0.00000000000E+00  0.11711195489E+04  0.11711195489E+04  0.00000000000E+00 0. -1.
         -2   -1    0    0    0  501 -0.00000000000E+00 -0.00000000000E+00 -0.72110563690E+03  0.72110563690E+03  0.00000000000E+00 0.  1.
         23    2    1    2    0    0 -0.46372347863E+03  0.46683073835E+03  0.70262663216E+03  0.96692707630E+03  0.91068017315E+02 0.  0.
    5000000    2    1    2    0    0  0.46372347863E+03 -0.46683073835E+03 -0.25261272015E+03  0.92529810951E+03  0.59949395509E+03 0.  0.
         23    2    4    4    0    0  0.76420931253E+02 -0.34359861151E+03 -0.34253924688E+03  0.49921692173E+03  0.89354545096E+02 0.  0.
         23    2    4    4    0    0  0.38730254737E+03 -0.12323212684E+03  0.89926526724E+02  0.42608118778E+03  0.90933921519E+02 0.  0.
          5    1    3    3  502    0 -0.38904240702E+03  0.37890278985E+03  0.52702563631E+03  0.75676907306E+03  0.47000000000E+01 0. -1.
         -5    1    3    3    0  502 -0.74681071601E+02  0.87927948496E+02  0.17560099585E+03  0.21015800324E+03  0.47000000000E+01 0.  1.
         11    1    5    5    0    0  0.22290880962E+02 -0.15618484318E+03 -0.21293689535E+03  0.26501454680E+03  0.00000000000E+00 0. -1.
        -11    1    5    5    0    0  0.54130050291E+02 -0.18741376833E+03 -0.12960235152E+03  0.23420237493E+03  0.00000000000E+00 0.  1.
          3    1    6    6  503    0  0.25875056848E+03 -0.79271588492E+02  0.10307336337E+03  0.28958584162E+03  0.00000000000E+00 0. -1.
         -3    1    6    6    0  503  0.12855197889E+03 -0.43960538348E+02 -0.13146836644E+02  0.13649534616E+03  0.00000000000E+00 0.  1.
<mgrwt>
<rscale>  0 0.70893462E+03</rscale>
<asrwt>0</asrwt>
<pdfrwt beam="1">  1        2 0.18017224E+00 0.70893462E+03</pdfrwt>
<pdfrwt beam="2">  1       -2 0.11093933E+00 0.70893462E+03</pdfrwt>
<totfact> 0.12995695E+01</totfact>
</mgrwt>
</event>
<event>
12    1  0.3203156E-008  0.2444624E+04  0.7818608E-02  0.8422983E-01
         -1   -1    0    0    0  501 -0.00000000000E+00  0.00000000000E+00  0.20287481264E+04  0.20287481264E+04  0.00000000000E+00 0.  1.
          1   -1    0    0  501    0  0.00000000000E+00 -0.00000000000E+00 -0.30189969119E+04  0.30189969119E+04  0.00000000000E+00 0. -1.
         23    2    1    2    0    0 -0.17098301365E+04  0.17008417691E+04 -0.12836902312E+03  0.24173016147E+04  0.10240444842E+03 0.  0.
    5000000    2    1    2    0    0  0.17098301365E+04 -0.17008417691E+04 -0.86187976237E+03  0.26304434235E+04  0.60001171683E+03 0.  0.
         23    2    4    4    0    0  0.75210494451E+03 -0.37851741673E+03 -0.23323754099E+03  0.87839730127E+03  0.90800804062E+02 0.  0.
         23    2    4    4    0    0  0.95772519201E+03 -0.13223243524E+04 -0.62864222138E+03  0.17520461223E+04  0.93248784093E+02 0.  0.
          5    1    3    3  502    0 -0.20707261522E+03  0.16429041412E+03 -0.25258517516E+02  0.26557577234E+03  0.47000000000E+01 0. -1.
         -5    1    3    3    0  502 -0.15027575213E+04  0.15365513550E+04 -0.10311050560E+03  0.21517258424E+04  0.47000000000E+01 0.  1.
         11    1    5    5    0    0  0.44365390356E+03 -0.20496426120E+03 -0.17836846112E+03  0.52024459866E+03  0.00000000000E+00 0. -1.
        -11    1    5    5    0    0  0.30845104096E+03 -0.17355315552E+03 -0.54869079871E+02  0.35815270261E+03  0.00000000000E+00 0.  1.
          4    1    6    6  503    0  0.47060004060E+03 -0.67482466906E+03 -0.36410678986E+03  0.89968132503E+03  0.00000000000E+00 0. -1.
         -4    1    6    6    0  503  0.48712515141E+03 -0.64749968335E+03 -0.26453543151E+03  0.85236479725E+03  0.00000000000E+00 0.  1.
<mgrwt>
<rscale>  0 0.24446243E+04</rscale>
<asrwt>0</asrwt>
<pdfrwt beam="1">  1        1 0.46446106E+00 0.24446243E+04</pdfrwt>
<pdfrwt beam="2">  1       -1 0.31211510E+00 0.24446243E+04</pdfrwt>
<totfact> 0.13487051E-02</totfact>
</mgrwt>
</event>
<event>
12    1  0.3203156E-008  0.5625430E+03  0.7818608E-02  0.9986317E-01
          1   -1    0    0  501    0  0.00000000000E+00  0.00000000000E+00  0.67208439918E+03  0.67208439918E+03  0.00000000000E+00 0. -1.
         -1   -1    0    0    0  501 -0.00000000000E+00 -0.00000000000E+00 -0.83541677392E+03  0.83541677392E+03  0.00000000000E+00 0.  1.
         23    2    1    2    0    0  0.42488435624E+03  0.21564512736E+03  0.33879771309E+03  0.59158117590E+03  0.90304264325E+02 0.  0.
    5000000    2    1    2    0    0 -0.42488435624E+03 -0.21564512736E+03 -0.50213008783E+03  0.91591999720E+03  0.59978769497E+03 0.  0.
         23    2    4    4    0    0 -0.12259597868E+03  0.11771583415E+03  0.48936198687E+02  0.19904352765E+03  0.91305984245E+02 0.  0.
         23    2    4    4    0    0 -0.30228837756E+03 -0.33336096151E+03 -0.55106628651E+03  0.71687646955E+03  0.87920569820E+02 0.  0.
          5    1    3    3  502    0  0.14927418073E+02  0.32187113198E+02  0.25966683501E+02  0.44217606430E+02  0.47000000000E+01 0. -1.
         -5    1    3    3    0  502  0.40995693817E+03  0.18345801416E+03  0.31283102959E+03  0.54736356947E+03  0.47000000000E+01 0.  1.
         11    1    5    5    0    0 -0.63342712189E+02  0.11440013377E+03  0.17637379785E+02  0.13194986533E+03  0.00000000000E+00 0. -1.
        -11    1    5    5    0    0 -0.59253266491E+02  0.33157003774E+01  0.31298818903E+02  0.67093662321E+02  0.00000000000E+00 0.  1.
          1    1    6    6  503    0 -0.16466774760E+03 -0.18446824604E+03 -0.37013033451E+03  0.44512971752E+03  0.00000000000E+00 0. -1.
         -1    1    6    6    0  503 -0.13762062996E+03 -0.14889271547E+03 -0.18093595200E+03  0.27174675203E+03  0.00000000000E+00 0.  1.
<mgrwt>
<rscale>  0 0.56254299E+03</rscale>
<asrwt>0</asrwt>
<pdfrwt beam="1">  1        1 0.10339760E+00 0.56254299E+03</pdfrwt>
<pdfrwt beam="2">  1       -1 0.12852566E+00 0.56254299E+03</pdfrwt>
<totfact> 0.15951400E+01</totfact>
</mgrwt>
</event>
<event>
12    1  0.3203156E-008  0.9881910E+03  0.7818608E-02  0.9321592E-01
          2   -1    0    0  501    0  0.00000000000E+00  0.00000000000E+00  0.27827862377E+04  0.27827862377E+04  0.00000000000E+00 0. -1.
         -2   -1    0    0    0  501 -0.00000000000E+00 -0.00000000000E+00 -0.43488012744E+03  0.43488012744E+03  0.00000000000E+00 0.  1.
         23    2    1    2    0    0 -0.64216672656E+03  0.66776802856E+03  0.16996434417E+04  0.19374838328E+04  0.82240677317E+02 0.  0.
    5000000    2    1    2    0    0  0.64216672656E+03 -0.66776802856E+03  0.64826266861E+03  0.12801825323E+04  0.60027542334E+03 0.  0.
         23    2    4    4    0    0  0.64715283585E+03 -0.38745714160E+03  0.28281018318E+03  0.81062430136E+03  0.90555666403E+02 0.  0.
         23    2    4    4    0    0 -0.49861092893E+01 -0.28031088696E+03  0.36545248543E+03  0.46955823096E+03  0.91270797731E+02 0.  0.
          5    1    3    3  502    0 -0.43684267560E+03  0.43795846053E+03  0.12090394300E+04  0.13581007214E+04  0.47000000000E+01 0. -1.
         -5    1    3    3    0  502 -0.20532405096E+03  0.22980956803E+03  0.49060401170E+03  0.57938311139E+03  0.47000000000E+01 0.  1.
         13    1    5    5    0    0  0.40006828530E+03 -0.28956317338E+03  0.18857038240E+03  0.52864000359E+03  0.00000000000E+00 0.  1.
        -13    1    5    5    0    0  0.24708455056E+03 -0.97893968215E+02  0.94239800780E+02  0.28198429777E+03  0.00000000000E+00 0. -1.
          1    1    6    6  503    0 -0.36103196887E+02 -0.87794189589E+02  0.16180071226E+03  0.18759192690E+03  0.00000000000E+00 0. -1.
         -1    1    6    6    0  503  0.31117087597E+02 -0.19251669738E+03  0.20365177317E+03  0.28196630406E+03  0.00000000000E+00 0.  1.
<mgrwt>
<rscale>  0 0.98819101E+03</rscale>
<asrwt>0</asrwt>
<pdfrwt beam="1">  1        2 0.42812095E+00 0.98819101E+03</pdfrwt>
<pdfrwt beam="2">  1       -2 0.66904637E-01 0.98819101E+03</pdfrwt>
<totfact> 0.49498217E+00</totfact>
</mgrwt>
</event>
<event>
12    1  0.3203156E-008  0.4417194E+03  0.7818608E-02  0.1030221E+00
         -2   -1    0    0    0  501 -0.00000000000E+00  0.00000000000E+00  0.79245809023E+02  0.79245809023E+02  0.00000000000E+00 0.  1.
          2   -1    0    0  501    0  0.00000000000E+00 -0.00000000000E+00 -0.26192403259E+04  0.26192403259E+04  0.00000000000E+00 0. -1.
         23    2    1    2    0    0 -0.21386477298E+03  0.11110510686E+03 -0.57351698877E+03  0.62845643494E+03  0.89181098454E+02 0.  0.
    5000000    2    1    2    0    0  0.21386477298E+03 -0.11110510686E+03 -0.19664775281E+04  0.20700297000E+04  0.59992216526E+03 0.  0.
         23    2    4    4    0    0 -0.12023343439E+03  0.13875581466E+03 -0.86619345336E+03  0.89026819843E+03  0.92612696960E+02 0.  0.
         23    2    4    4    0    0  0.33409820737E+03 -0.24986092152E+03 -0.11002840748E+04  0.11797615016E+04  0.84617156340E+02 0.  0.
          5    1    3    3  502    0 -0.87331310360E+02 -0.76154905445E+00 -0.17644014404E+03  0.19692778411E+03  0.47000000000E+01 0. -1.
         -5    1    3    3    0  502 -0.12653346262E+03  0.11186665591E+03 -0.39707684473E+03  0.43152865083E+03  0.47000000000E+01 0.  1.
         13    1    5    5    0    0 -0.13431728663E+03  0.11608006059E+03 -0.78403121681E+03  0.80387851251E+03  0.00000000000E+00 0. -1.
        -13    1    5    5    0    0  0.14083852238E+02  0.22675754075E+02 -0.82162236552E+02  0.86389685913E+02  0.00000000000E+00 0.  1.
          2    1    6    6  503    0  0.25991114013E+03 -0.15590201502E+03 -0.84744412713E+03  0.90001154863E+03  0.00000000000E+00 0.  1.
         -2    1    6    6    0  503  0.74187067237E+02 -0.93958906493E+02 -0.25283994764E+03  0.27974995295E+03  0.00000000000E+00 0. -1.
<mgrwt>
<rscale>  0 0.44171943E+03</rscale>
<asrwt>0</asrwt>
<pdfrwt beam="1">  1        2 0.40296001E+00 0.44171943E+03</pdfrwt>
<pdfrwt beam="2">  1       -2 0.12191664E-01 0.44171943E+03</pdfrwt>
<totfact> 0.15996459E+02</totfact>
</mgrwt>
</event>
<event>
12    1  0.3203156E-008  0.5000106E+03  0.7818608E-02  0.1013776E+00
         -2   -1    0    0    0  501 -0.00000000000E+00  0.00000000000E+00  0.42584286559E+03  0.42584286559E+03  0.00000000000E+00 0.  1.
          2   -1    0    0  501    0  0.00000000000E+00 -0.00000000000E+00 -0.10725194617E+04  0.10725194617E+04  0.00000000000E+00 0. -1.
         23    2    1    2    0    0  0.42038823409E+03  0.14322757599E+03  0.74171212148E+02  0.46063578179E+03  0.97177923794E+02 0.  0.
    5000000    2    1    2    0    0 -0.42038823409E+03 -0.14322757599E+03 -0.72084780824E+03  0.10377265455E+04  0.60001201212E+03 0.  0.
         23    2    4    4    0    0 -0.43516648760E+03 -0.20395133760E+03 -0.77448540266E+03  0.91633565370E+03  0.94219802979E+02 0.  0.
         23    2    4    4    0    0  0.14778253511E+02  0.60723761607E+02  0.53637594416E+02  0.12139089179E+03  0.89179510396E+02 0.  0.
          5    1    3    3  502    0  0.86952755650E+02  0.41505692009E+02 -0.22069495143E+02  0.98957853655E+02  0.47000000000E+01 0. -1.
         -5    1    3    3    0  502  0.33343547844E+03  0.10172188398E+03  0.96240707291E+02  0.36167792814E+03  0.47000000000E+01 0.  1.
         13    1    5    5    0    0 -0.18438007614E+03 -0.35874493872E+02 -0.29758079587E+03  0.35190527398E+03  0.00000000000E+00 0. -1.
        -13    1    5    5    0    0 -0.25078641146E+03 -0.16807684372E+03 -0.47690460679E+03  0.56443037972E+03  0.00000000000E+00 0.  1.
          1    1    6    6  503    0  0.17169045546E+02  0.31643471364E+02  0.76351746766E+02  0.84413711203E+02  0.00000000000E+00 0. -1.
         -1    1    6    6    0  503 -0.23907920348E+01  0.29080290243E+02 -0.22714152350E+02  0.36977180587E+02  0.00000000000E+00 0.  1.
<mgrwt>
<rscale>  0 0.50001056E+03</rscale>
<asrwt>0</asrwt>
<pdfrwt beam="1">  1        2 0.16500299E+00 0.50001056E+03</pdfrwt>
<pdfrwt beam="2">  1       -2 0.65514288E-01 0.50001056E+03</pdfrwt>
<totfact> 0.50795604E+01</totfact>
</mgrwt>
</event>
<event>
12    1  0.3203156E-008  0.9776072E+03  0.7818608E-02  0.9333452E-01
         -2   -1    0    0    0  501 -0.00000000000E+00  0.00000000000E+00  0.15803936650E+04  0.15803936650E+04  0.00000000000E+00 0.  1.
          2   -1    0    0  501    0  0.00000000000E+00 -0.00000000000E+00 -0.95191879500E+03  0.95191879500E+03  0.00000000000E+00 0. -1.
         23    2    1    2    0    0  0.37766063754E+03  0.84307978832E+03 -0.41409163400E+03  0.10156164463E+04  0.81202205080E+02 0.  0.
    5000000    2    1    2    0    0 -0.37766063754E+03 -0.84307978832E+03  0.10425665040E+04  0.15166960137E+04  0.60000899659E+03 0.  0.
         23    2    4    4    0    0 -0.32603309838E+03 -0.89419702475E+03  0.79803020862E+03  0.12456383474E+04  0.94216656768E+02 0.  0.
         23    2    4    4    0    0 -0.51627539169E+02  0.51117236431E+02  0.24453629542E+03  0.27105766626E+03  0.91629056533E+02 0.  0.
          5    1    3    3  502    0  0.14012782364E+03  0.24129322187E+03 -0.14976800287E+03  0.31671875625E+03  0.47000000000E+01 0. -1.
         -5    1    3    3    0  502  0.23753281391E+03  0.60178656645E+03 -0.26432363113E+03  0.69889769009E+03  0.47000000000E+01 0.  1.
         11    1    5    5    0    0 -0.10385703034E+03 -0.25720635888E+03  0.28848455533E+03  0.40020586260E+03  0.00000000000E+00 0.  1.
        -11    1    5    5    0    0 -0.22217606804E+03 -0.63699066587E+03  0.50954565329E+03  0.84543248483E+03  0.00000000000E+00 0. -1.
          2    1    6    6  503    0 -0.48749156129E+02  0.33148724923E+02  0.54919500152E+02  0.80569657342E+02  0.00000000000E+00 0. -1.
         -2    1    6    6    0  503 -0.28783830396E+01  0.17968511507E+02  0.18961679527E+03  0.19048800892E+03  0.00000000000E+00 0.  1.
<mgrwt>
<rscale>  0 0.97760720E+03</rscale>
<asrwt>0</asrwt>
<pdfrwt beam="1">  1        2 0.14644905E+00 0.97760720E+03</pdfrwt>
<pdfrwt beam="2">  1       -2 0.24313749E+00 0.97760720E+03</pdfrwt>
<totfact> 0.19154750E+00</totfact>
</mgrwt>
</event>
<event>
12    1  0.3203156E-008  0.1312059E+04  0.7818608E-02  0.9020057E-01
          2   -1    0    0  501    0  0.00000000000E+00  0.00000000000E+00  0.33354994584E+04  0.33354994584E+04  0.00000000000E+00 0. -1.
         -2   -1    0    0    0  501 -0.00000000000E+00 -0.00000000000E+00 -0.54121727248E+03  0.54121727248E+03  0.00000000000E+00 0.  1.
         23    2    1    2    0    0 -0.83329646007E+03  0.96430324578E+03  0.13635315772E+04  0.18685816496E+04  0.90084843948E+02 0.  0.
    5000000    2    1    2    0    0  0.83329646007E+03 -0.96430324578E+03  0.14307506086E+04  0.20081350812E+04  0.60107858050E+03 0.  0.
         23    2    4    4    0    0  0.13374487736E+03  0.23075327442E+02  0.50269708283E+02  0.17008908541E+03  0.89348141826E+02 0.  0.
         23    2    4    4    0    0  0.69955158271E+03 -0.98737857323E+03  0.13804809004E+04  0.18380459958E+04  0.91633523215E+02 0.  0.
          5    1    3    3  502    0 -0.48568365826E+03  0.59934368827E+03  0.77102194144E+03  0.10906871214E+04  0.47000000000E+01 0. -1.
         -5    1    3    3    0  502 -0.34761280181E+03  0.36495955752E+03  0.59250963578E+03  0.77789452826E+03  0.47000000000E+01 0.  1.
         13    1    5    5    0    0  0.77205753730E+02  0.98612412613E+01  0.73969885837E+02  0.10737558614E+03  0.00000000000E+00 0.  1.
        -13    1    5    5    0    0  0.56539123628E+02  0.13214086180E+02 -0.23700177554E+02  0.62713499267E+02  0.00000000000E+00 0. -1.
          4    1    6    6  503    0  0.51713551712E+03 -0.66595610804E+03  0.92871637190E+03  0.12543686780E+04  0.00000000000E+00 0. -1.
         -4    1    6    6    0  503  0.18241606560E+03 -0.32142246519E+03  0.45176452846E+03  0.58367731778E+03  0.00000000000E+00 0.  1.
<mgrwt>
<rscale>  0 0.13120585E+04</rscale>
<asrwt>0</asrwt>
<pdfrwt beam="1">  1        2 0.51315375E+00 0.13120585E+04</pdfrwt>
<pdfrwt beam="2">  1       -2 0.83264197E-01 0.13120585E+04</pdfrwt>
<totfact> 0.13113490E+00</totfact>
</mgrwt>
</event>
<event>
12    1  0.3203156E-008  0.1475743E+04  0.7818608E-02  0.8900746E-01
          1   -1    0    0  501    0  0.00000000000E+00  0.00000000000E+00  0.88885957498E+03  0.88885957498E+03  0.00000000000E+00 0. -1.
         -1   -1    0    0    0  501 -0.00000000000E+00 -0.00000000000E+00 -0.26088714600E+04  0.26088714600E+04  0.00000000000E+00 0.  1.
         23    2    1    2    0    0 -0.12807961855E+04 -0.64717365095E+03 -0.50456352858E+03  0.15237354940E+04  0.88954471131E+02 0.  0.
    5000000    2    1    2    0    0  0.12807961855E+04  0.64717365095E+03 -0.12154483564E+04  0.19739955410E+04  0.60005923483E+03 0.  0.
         23    2    4    4    0    0 -0.20335453532E+02  0.13961439626E+02 -0.26885173534E+02  0.99200494409E+02  0.92246805193E+02 0.  0.
         23    2    4    4    0    0  0.13011316391E+04  0.63321221133E+03 -0.11885631829E+04  0.18747950465E+04  0.90954824938E+02 0.  0.
          5    1    3    3  502    0 -0.64900586531E+03 -0.37460654282E+03 -0.27865868059E+03  0.79950698896E+03  0.47000000000E+01 0. -1.
         -5    1    3    3    0  502 -0.63179032021E+03 -0.27256710813E+03 -0.22590484799E+03  0.72422850502E+03  0.47000000000E+01 0.  1.
         11    1    5    5    0    0 -0.19457093550E+02 -0.22423368352E+02 -0.48504000570E+02  0.56868479925E+02  0.00000000000E+00 0.  1.
        -11    1    5    5    0    0 -0.87835998184E+00  0.36384807978E+02  0.21618827036E+02  0.42332014484E+02  0.00000000000E+00 0. -1.
          4    1    6    6  503    0  0.77502733319E+03  0.34919736519E+03 -0.74541681796E+03  0.11305982485E+04  0.00000000000E+00 0.  1.
         -4    1    6    6    0  503  0.52610430586E+03  0.28401484613E+03 -0.44314636490E+03  0.74419679803E+03  0.00000000000E+00 0. -1.
<mgrwt>
<rscale>  0 0.14757427E+04</rscale>
<asrwt>0</asrwt>
<pdfrwt beam="1">  1        1 0.13674763E+00 0.14757427E+04</pdfrwt>
<pdfrwt beam="2">  1       -1 0.40136484E+00 0.14757427E+04</pdfrwt>
<totfact> 0.12459194E-01</totfact>
</mgrwt>
</event>
<event>
12    1  0.3203156E-008  0.1077214E+04  0.7818608E-02  0.9227689E-01
          1   -1    0    0  501    0  0.00000000000E+00  0.00000000000E+00  0.28281620064E+04  0.28281620064E+04  0.00000000000E+00 0. -1.
         -1   -1    0    0    0  501 -0.00000000000E+00 -0.00000000000E+00 -0.47125757534E+03  0.47125757534E+03  0.00000000000E+00 0.  1.
         23    2    1    2    0    0 -0.62722906330E+03 -0.81438438566E+03  0.65369383563E+03  0.12215346717E+04  0.90515732909E+02 0.  0.
    5000000    2    1    2    0    0  0.62722906330E+03  0.81438438566E+03  0.17032105954E+04  0.20778849101E+04  0.60003428371E+03 0.  0.
         23    2    4    4    0    0 -0.18494904882E+02  0.27749343421E+03  0.74398720215E+03  0.79985425443E+03  0.94367387528E+02 0.  0.
         23    2    4    4    0    0  0.64572396818E+03  0.53689095144E+03  0.95922339327E+03  0.12780306556E+04  0.89674420509E+02 0.  0.
          5    1    3    3  502    0 -0.35058386186E+03 -0.50778136613E+03  0.42719911282E+03  0.75051457813E+03  0.47000000000E+01 0. -1.
         -5    1    3    3    0  502 -0.27664520143E+03 -0.30660301953E+03  0.22649472281E+03  0.47102009354E+03  0.47000000000E+01 0.  1.
         11    1    5    5    0    0 -0.25044943179E+02  0.11714698028E+03  0.44112388113E+03  0.45710058266E+03  0.00000000000E+00 0.  1.
        -11    1    5    5    0    0  0.65500382964E+01  0.16034645394E+03  0.30286332102E+03  0.34275367177E+03  0.00000000000E+00 0. -1.
          4    1    6    6  503    0  0.20783315499E+03  0.12269332119E+03  0.29324377350E+03  0.37978965504E+03  0.00000000000E+00 0.  1.
         -4    1    6    6    0  503  0.43789081319E+03  0.41419763025E+03  0.66597961977E+03  0.89824100058E+03  0.00000000000E+00 0. -1.
<mgrwt>
<rscale>  0 0.10772145E+04</rscale>
<asrwt>0</asrwt>
<pdfrwt beam="1">  1        1 0.43510183E+00 0.10772145E+04</pdfrwt>
<pdfrwt beam="2">  1       -1 0.72501168E-01 0.10772145E+04</pdfrwt>
<totfact> 0.15466113E+00</totfact>
</mgrwt>
</event>
<event>
12    1  0.3203156E-008  0.1073553E+04  0.7818608E-02  0.9231359E-01
          2   -1    0    0  501    0  0.00000000000E+00  0.00000000000E+00  0.18832853607E+04  0.18832853607E+04  0.00000000000E+00 0. -1.
         -2   -1    0    0    0  501 -0.00000000000E+00 -0.00000000000E+00 -0.65174054457E+03  0.65174054457E+03  0.00000000000E+00 0.  1.
         23    2    1    2    0    0  0.94653851661E+03  0.37984880817E+03  0.46246162815E+03  0.11236657162E+04  0.92377506357E+02 0.  0.
    5000000    2    1    2    0    0 -0.94653851661E+03 -0.37984880817E+03  0.76908318802E+03  0.14113601891E+04  0.60019026392E+03 0.  0.
         23    2    4    4    0    0 -0.42773135342E+01  0.51651364051E+02 -0.24145860099E+02  0.10317701520E+03  0.85885476575E+02 0.  0.
         23    2    4    4    0    0 -0.94226120307E+03 -0.43150017222E+03  0.79322904812E+03  0.13081831739E+04  0.89901726087E+02 0.  0.
          5    1    3    3  502    0  0.35035156700E+03  0.11763118795E+03  0.12538864853E+03  0.39029183960E+03  0.47000000000E+01 0. -1.
         -5    1    3    3    0  502  0.59618694961E+03  0.26221762022E+03  0.33707297962E+03  0.73337387656E+03  0.47000000000E+01 0.  1.
         11    1    5    5    0    0  0.18259848689E+02 -0.10845799854E+02 -0.29696027116E+02  0.36509005398E+02  0.00000000000E+00 0. -1.
        -11    1    5    5    0    0 -0.22537162224E+02  0.62497163906E+02  0.55501670170E+01  0.66668009804E+02  0.00000000000E+00 0.  1.
          1    1    6    6  503    0 -0.18629531770E+03 -0.11522457767E+03  0.19901494760E+03  0.29595539878E+03  0.00000000000E+00 0. -1.
         -1    1    6    6    0  503 -0.75596588537E+03 -0.31627559455E+03  0.59421410052E+03  0.10122277752E+04  0.00000000000E+00 0.  1.
<mgrwt>
<rscale>  0 0.10735533E+04</rscale>
<asrwt>0</asrwt>
<pdfrwt beam="1">  1        2 0.28973621E+00 0.10735533E+04</pdfrwt>
<pdfrwt beam="2">  1       -2 0.10026778E+00 0.10735533E+04</pdfrwt>
<totfact> 0.63089565E+00</totfact>
</mgrwt>
</event>
<event>
12    1  0.3203156E-008  0.8868264E+03  0.7818608E-02  0.9442201E-01
          1   -1    0    0  501    0  0.00000000000E+00  0.00000000000E+00  0.22467594442E+04  0.22467594442E+04  0.00000000000E+00 0. -1.
         -1   -1    0    0    0  501 -0.00000000000E+00 -0.00000000000E+00 -0.37331487336E+03  0.37331487336E+03  0.00000000000E+00 0.  1.
         23    2    1    2    0    0  0.31639611121E+01 -0.79926480209E+03  0.10636830770E+04  0.13337747553E+04  0.93269367932E+02 0.  0.
    5000000    2    1    2    0    0 -0.31639611121E+01  0.79926480209E+03  0.80976149376E+03  0.12862995622E+04  0.60001554353E+03 0.  0.
         23    2    4    4    0    0  0.14903902974E+03  0.80137934545E+03  0.68683679237E+03  0.10698762018E+04  0.92026192771E+02 0.  0.
         23    2    4    4    0    0 -0.15220299086E+03 -0.21145433645E+01  0.12292470140E+03  0.21642336041E+03  0.92511442519E+02 0.  0.
          5    1    3    3  502    0 -0.31792253137E+02 -0.61562559843E+03  0.84648559302E+03  0.10471702698E+04  0.47000000000E+01 0. -1.
         -5    1    3    3    0  502  0.34956214249E+02 -0.18363920366E+03  0.21719748402E+03  0.28660448549E+03  0.47000000000E+01 0.  1.
         11    1    5    5    0    0  0.23624866948E+02  0.41740199946E+02  0.22588467456E+02  0.53015257161E+02  0.00000000000E+00 0. -1.
        -11    1    5    5    0    0  0.12541416280E+03  0.75963914551E+03  0.66424832491E+03  0.10168609447E+04  0.00000000000E+00 0.  1.
          3    1    6    6  503    0 -0.11837088073E+03  0.54545278496E+00  0.13577986538E+03  0.18013365807E+03  0.00000000000E+00 0.  1.
         -3    1    6    6    0  503 -0.33832110122E+02 -0.26599961494E+01 -0.12855163988E+02  0.36289702340E+02  0.00000000000E+00 0. -1.
<mgrwt>
<rscale>  0 0.88682639E+03</rscale>
<asrwt>0</asrwt>
<pdfrwt beam="1">  1        1 0.34565529E+00 0.88682639E+03</pdfrwt>
<pdfrwt beam="2">  1       -1 0.57433059E-01 0.88682639E+03</pdfrwt>
<totfact> 0.64024184E+00</totfact>
</mgrwt>
</event>
<event>
12    1  0.3203156E-008  0.4149376E+03  0.7818608E-02  0.1038727E+00
          1   -1    0    0  501    0  0.00000000000E+00  0.00000000000E+00  0.21616186868E+04  0.21616186868E+04  0.00000000000E+00 0. -1.
         -1   -1    0    0    0  501 -0.00000000000E+00 -0.00000000000E+00 -0.16835244021E+03  0.16835244021E+03  0.00000000000E+00 0.  1.
         23    2    1    2    0    0  0.57424222940E+02  0.33252435871E+03  0.18531626336E+03  0.39537154348E+03  0.90036378296E+02 0.  0.
    5000000    2    1    2    0    0 -0.57424222940E+02 -0.33252435871E+03  0.18079499832E+04  0.19345995835E+04  0.60010200486E+03 0.  0.
         23    2    4    4    0    0  0.38208372182E+02 -0.34844827947E+03  0.48627676835E+03  0.60629926599E+03  0.90871455020E+02 0.  0.
         23    2    4    4    0    0 -0.95632595122E+02  0.15923920756E+02  0.13216732149E+04  0.13283003176E+04  0.90346456201E+02 0.  0.
          5    1    3    3  502    0  0.41885719045E+02  0.31052579825E+03  0.19161780472E+03  0.36731479404E+03  0.47000000000E+01 0. -1.
         -5    1    3    3    0  502  0.15538503895E+02  0.21998560458E+02 -0.63015413611E+01  0.28056749439E+02  0.47000000000E+01 0.  1.
         13    1    5    5    0    0 -0.26622149483E+02 -0.17181971264E+03  0.22631611686E+03  0.28539400352E+03  0.00000000000E+00 0. -1.
        -13    1    5    5    0    0  0.64830521666E+02 -0.17662856682E+03  0.25996065150E+03  0.32090526247E+03  0.00000000000E+00 0.  1.
          1    1    6    6  503    0 -0.36971547731E+02  0.47760263223E+02  0.81756297212E+03  0.81979091936E+03  0.00000000000E+00 0. -1.
         -1    1    6    6    0  503 -0.58661047392E+02 -0.31836342467E+02  0.50411024277E+03  0.50850939819E+03  0.00000000000E+00 0.  1.
<mgrwt>
<rscale>  0 0.41493758E+03</rscale>
<asrwt>0</asrwt>
<pdfrwt beam="1">  1        1 0.33255670E+00 0.41493758E+03</pdfrwt>
<pdfrwt beam="2">  1       -1 0.25900377E-01 0.41493758E+03</pdfrwt>
<totfact> 0.33602938E+01</totfact>
</mgrwt>
</event>
<event>
12    1  0.3203156E-008  0.9893497E+03  0.7818608E-02  0.9320304E-01
          2   -1    0    0  501    0  0.00000000000E+00  0.00000000000E+00  0.21378035924E+04  0.21378035924E+04  0.00000000000E+00 0. -1.
         -2   -1    0    0    0  501 -0.00000000000E+00 -0.00000000000E+00 -0.48666135331E+03  0.48666135331E+03  0.00000000000E+00 0.  1.
         23    2    1    2    0    0  0.76259116698E+03 -0.52680836121E+03  0.84294266371E+03  0.12561315157E+04  0.90783880584E+02 0.  0.
    5000000    2    1    2    0    0 -0.76259116698E+03  0.52680836121E+03  0.80819957533E+03  0.13683334300E+04  0.60006456707E+03 0.  0.
         23    2    4    4    0    0 -0.16162766258E+03  0.39949743745E+03  0.52447140726E+03  0.68539798920E+03  0.94754644861E+02 0.  0.
         23    2    4    4    0    0 -0.60096350440E+03  0.12731092375E+03  0.28372816807E+03  0.68293544078E+03  0.92379315812E+02 0.  0.
          5    1    3    3  502    0  0.42819091519E+03 -0.25128110982E+03  0.48537748691E+03  0.69433641040E+03  0.47000000000E+01 0. -1.
         -5    1    3    3    0  502  0.33440025179E+03 -0.27552725138E+03  0.35756517680E+03  0.56179510528E+03  0.47000000000E+01 0.  1.
         11    1    5    5    0    0 -0.42012665163E+02  0.14961878324E+03  0.25689587779E+03  0.30024379487E+03  0.00000000000E+00 0. -1.
        -11    1    5    5    0    0 -0.11961499742E+03  0.24987865421E+03  0.26757552947E+03  0.38515419433E+03  0.00000000000E+00 0.  1.
          3    1    6    6  503    0 -0.38154901359E+03  0.10600853600E+03  0.22211821072E+03  0.45404180315E+03  0.00000000000E+00 0. -1.
         -3    1    6    6    0  503 -0.21941449082E+03  0.21302387755E+02  0.61609957346E+02  0.22889363763E+03  0.00000000000E+00 0.  1.
<mgrwt>
<rscale>  0 0.98934970E+03</rscale>
<asrwt>0</asrwt>
<pdfrwt beam="1">  1        2 0.32889285E+00 0.98934970E+03</pdfrwt>
<pdfrwt beam="2">  1       -2 0.74870979E-01 0.98934970E+03</pdfrwt>
<totfact> 0.90223750E+00</totfact>
</mgrwt>
</event>
<event>
12    1  0.3203156E-008  0.1339743E+04  0.7818608E-02  0.8998629E-01
         -2   -1    0    0    0  501 -0.00000000000E+00  0.00000000000E+00  0.12561858187E+04  0.12561858187E+04  0.00000000000E+00 0.  1.
          2   -1    0    0  501    0  0.00000000000E+00 -0.00000000000E+00 -0.25549338937E+04  0.25549338937E+04  0.00000000000E+00 0. -1.
         23    2    1    2    0    0  0.93752025328E+03  0.86615163325E+03  0.62636758759E+03  0.14246364804E+04  0.89943702131E+02 0.  0.
    5000000    2    1    2    0    0 -0.93752025328E+03 -0.86615163325E+03 -0.19251156626E+04  0.23864832320E+04  0.60005751821E+03 0.  0.
         23    2    4    4    0    0 -0.53365057870E+03 -0.12424525474E+03 -0.66363751011E+03  0.86547985530E+03  0.91764980426E+02 0.  0.
         23    2    4    4    0    0 -0.40386967457E+03 -0.74190637850E+03 -0.12614781525E+04  0.15210033767E+04  0.92673373860E+02 0.  0.
          5    1    3    3  502    0  0.84933357760E+02  0.11527735645E+03  0.62656864087E+02  0.15636661021E+03  0.47000000000E+01 0. -1.
         -5    1    3    3    0  502  0.85258689552E+03  0.75087427680E+03  0.56371072350E+03  0.12682698702E+04  0.47000000000E+01 0.  1.
         13    1    5    5    0    0 -0.36179451488E+02  0.13812070230E+02 -0.36991331079E+02  0.53554500922E+02  0.00000000000E+00 0. -1.
        -13    1    5    5    0    0 -0.49747112722E+03 -0.13805732497E+03 -0.62664617903E+03  0.81192535438E+03  0.00000000000E+00 0.  1.
          3    1    6    6  503    0 -0.70255181828E+02 -0.10933129831E+03 -0.25645724277E+03  0.28750554904E+03  0.00000000000E+00 0. -1.
         -3    1    6    6    0  503 -0.33361449275E+03 -0.63257508019E+03 -0.10050209097E+04  0.12334978276E+04  0.00000000000E+00 0.  1.
<mgrwt>
<rscale>  0 0.13397426E+04</rscale>
<asrwt>0</asrwt>
<pdfrwt beam="1">  1        2 0.39306676E+00 0.13397426E+04</pdfrwt>
<pdfrwt beam="2">  1       -2 0.19325936E+00 0.13397426E+04</pdfrwt>
<totfact> 0.45689352E-01</totfact>
</mgrwt>
</event>
<event>
12    1  0.3203156E-008  0.7679547E+03  0.7818608E-02  0.9607596E-01
          1   -1    0    0  501    0  0.00000000000E+00  0.00000000000E+00  0.31958314931E+04  0.31958314931E+04  0.00000000000E+00 0. -1.
         -1   -1    0    0    0  501 -0.00000000000E+00 -0.00000000000E+00 -0.26236061748E+03  0.26236061748E+03  0.00000000000E+00 0.  1.
         23    2    1    2    0    0 -0.52172009043E+03  0.41991669030E+03  0.21887134752E+04  0.22906670021E+04  0.90370119842E+02 0.  0.
    5000000    2    1    2    0    0  0.52172009043E+03 -0.41991669030E+03  0.74475740041E+03  0.11675251084E+04  0.59994117532E+03 0.  0.
         23    2    4    4    0    0  0.55461999011E+03 -0.15756138059E+03  0.33761031387E+03  0.67392485851E+03  0.88119627735E+02 0.  0.
         23    2    4    4    0    0 -0.32899899686E+02 -0.26235530970E+03  0.40714708654E+03  0.49360024994E+03  0.89217401528E+02 0.  0.
          5    1    3    3  502    0 -0.40682326702E+03  0.37022465513E+03  0.17500092032E+04  0.18344279128E+04  0.47000000000E+01 0. -1.
         -5    1    3    3    0  502 -0.11489682341E+03  0.49692035169E+02  0.43870427196E+03  0.45623908932E+03  0.47000000000E+01 0.  1.
         13    1    5    5    0    0  0.25761923562E+03 -0.11429503212E+03  0.14112656511E+03  0.31519475298E+03  0.00000000000E+00 0. -1.
        -13    1    5    5    0    0  0.29700075450E+03 -0.43266348469E+02  0.19648374876E+03  0.35873010552E+03  0.00000000000E+00 0.  1.
          2    1    6    6  503    0  0.24693719146E+02 -0.28358753592E+02  0.45624259196E+02  0.59123360000E+02  0.00000000000E+00 0. -1.
         -2    1    6    6    0  503 -0.57593618832E+02 -0.23399655611E+03  0.36152282734E+03  0.43447688994E+03  0.00000000000E+00 0.  1.
<mgrwt>
<rscale>  0 0.76795474E+03</rscale>
<asrwt>0</asrwt>
<pdfrwt beam="1">  1        1 0.49166635E+00 0.76795474E+03</pdfrwt>
<pdfrwt beam="2">  1       -1 0.40363174E-01 0.76795474E+03</pdfrwt>
<totfact> 0.27514548E+00</totfact>
</mgrwt>
</event>
<event>
12    1  0.3203156E-008  0.6343835E+03  0.7818608E-02  0.9836532E-01
         -2   -1    0    0    0  501 -0.00000000000E+00  0.00000000000E+00  0.13377748526E+04  0.13377748526E+04  0.00000000000E+00 0.  1.
          2   -1    0    0  501    0  0.00000000000E+00 -0.00000000000E+00 -0.36302411314E+03  0.36302411314E+03  0.00000000000E+00 0. -1.
         23    2    1    2    0    0 -0.32351631133E+03 -0.44446247688E+03  0.55095215829E+03  0.78304167737E+03  0.86001690257E+02 0.  0.
    5000000    2    1    2    0    0  0.32351631133E+03  0.44446247688E+03  0.42379858121E+03  0.91775728840E+03  0.60038613070E+03 0.  0.
         23    2    4    4    0    0  0.89490421640E+02  0.45558475811E+03  0.46390927699E+03  0.66194756022E+03  0.86004347734E+02 0.  0.
         23    2    4    4    0    0  0.23402588969E+03 -0.11122281230E+02 -0.40110695781E+02  0.25580972818E+03  0.94540609961E+02 0.  0.
          5    1    3    3  502    0 -0.53348001247E+02 -0.13677764914E+03  0.14976266311E+03  0.20977387779E+03  0.47000000000E+01 0. -1.
         -5    1    3    3    0  502 -0.27016831008E+03 -0.30768482773E+03  0.40118949518E+03  0.57326779958E+03  0.47000000000E+01 0.  1.
         11    1    5    5    0    0  0.83606051728E+02  0.24437317733E+03  0.28952892840E+03  0.38798868807E+03  0.00000000000E+00 0.  1.
        -11    1    5    5    0    0  0.58843699121E+01  0.21121158077E+03  0.17438034858E+03  0.27395887216E+03  0.00000000000E+00 0. -1.
          4    1    6    6  503    0  0.49052155652E+02  0.23883314997E+02 -0.39834980970E+02  0.67552590019E+02  0.00000000000E+00 0. -1.
         -4    1    6    6    0  503  0.18497373404E+03 -0.35005596227E+02 -0.27571481153E+00  0.18825713816E+03  0.00000000000E+00 0.  1.
<mgrwt>
<rscale>  0 0.63438347E+03</rscale>
<asrwt>0</asrwt>
<pdfrwt beam="1">  1        2 0.55849864E-01 0.63438347E+03</pdfrwt>
<pdfrwt beam="2">  1       -2 0.20581151E+00 0.63438347E+03</pdfrwt>
<totfact> 0.11156233E+01</totfact>
</mgrwt>
</event>
<event>
12    1  0.3203156E-008  0.6089962E+03  0.7818608E-02  0.9886916E-01
          2   -1    0    0  501    0  0.00000000000E+00  0.00000000000E+00  0.16781473378E+04  0.16781473378E+04  0.00000000000E+00 0.  1.
         -2   -1    0    0    0  501 -0.00000000000E+00 -0.00000000000E+00 -0.34737899718E+03  0.34737899718E+03  0.00000000000E+00 0. -1.
         23    2    1    2    0    0  0.21092637288E+03 -0.55820571907E+03  0.87879910254E+03  0.10661714485E+04  0.91379075501E+02 0.  0.
    5000000    2    1    2    0    0 -0.21092637288E+03  0.55820571907E+03  0.45196923810E+03  0.95935488648E+03  0.60000170536E+03 0.  0.
         23    2    4    4    0    0 -0.19832532907E+02  0.25902055266E+03  0.51833729118E+03  0.58712421709E+03  0.92500393557E+02 0.  0.
         23    2    4    4    0    0 -0.19109383998E+03  0.29918516640E+03 -0.66368053075E+02  0.37223066938E+03  0.90123988405E+02 0.  0.
          5    1    3    3  502    0  0.93777608397E+02 -0.26621950706E+03  0.49546679483E+03  0.57024249277E+03  0.47000000000E+01 0. -1.
         -5    1    3    3    0  502  0.11714876449E+03 -0.29198621200E+03  0.38333230771E+03  0.49592895575E+03  0.47000000000E+01 0.  1.
         11    1    5    5    0    0 -0.87878676985E+01  0.17620829452E+03  0.43363804430E+03  0.46815440096E+03  0.00000000000E+00 0. -1.
        -11    1    5    5    0    0 -0.11044665208E+02  0.82812258146E+02  0.84699246880E+02  0.11896981613E+03  0.00000000000E+00 0.  1.
          3    1    6    6  503    0 -0.11625091697E+03  0.23621685244E+03 -0.20123746121E+02  0.26404098589E+03  0.00000000000E+00 0. -1.
         -3    1    6    6    0  503 -0.74842923009E+02  0.62968313962E+02 -0.46244306953E+02  0.10818968349E+03  0.00000000000E+00 0.  1.
<mgrwt>
<rscale>  0 0.60899624E+03</rscale>
<asrwt>0</asrwt>
<pdfrwt beam="1">  1        2 0.25817651E+00 0.60899624E+03</pdfrwt>
<pdfrwt beam="2">  1       -2 0.53442924E-01 0.60899624E+03</pdfrwt>
<totfact> 0.34782038E+01</totfact>
</mgrwt>
</event>
<event>
12    1  0.3823966E-008  0.2068635E+04  0.7818608E-02  0.8575187E-01
         -2   -1    0    0    0  501 -0.00000000000E+00  0.00000000000E+00  0.18255441679E+04  0.18255441679E+04  0.00000000000E+00 0.  1.
          2   -1    0    0  501    0  0.00000000000E+00 -0.00000000000E+00 -0.23988102964E+04  0.23988102964E+04  0.00000000000E+00 0. -1.
         23    2    1    2    0    0 -0.15796420553E+04 -0.12973333795E+04 -0.41840209145E+03  0.20884552147E+04  0.90785203091E+02 0.  0.
    5000000    2    1    2    0    0  0.15796420553E+04  0.12973333795E+04 -0.15486403702E+03  0.21358992496E+04  0.59978313897E+03 0.  0.
         23    2    4    4    0    0  0.40848045413E+03  0.58648894009E+03 -0.24312792654E+03  0.76025879540E+03  0.89759061203E+02 0.  0.
         23    2    4    4    0    0  0.11711616012E+04  0.71084443945E+03  0.88263889521E+02  0.13756404542E+04  0.87617531161E+02 0.  0.
          5    1    3    3  502    0 -0.66875893221E+03 -0.49993574880E+03 -0.14759506456E+03  0.84792727013E+03  0.47000000000E+01 0. -1.
         -5    1    3    3    0  502 -0.91088312313E+03 -0.79739763074E+03 -0.27080702689E+03  0.12405279446E+04  0.47000000000E+01 0.  1.
         11    1    5    5    0    0  0.32567656386E+03  0.40513997714E+03 -0.19490949442E+03  0.55515163365E+03  0.00000000000E+00 0. -1.
        -11    1    5    5    0    0  0.82803890267E+02  0.18134896295E+03 -0.48218432114E+02  0.20510716175E+03  0.00000000000E+00 0.  1.
          4    1    6    6  503    0  0.53058942201E+03  0.27401067966E+03  0.52599289108E+02  0.59947783323E+03  0.00000000000E+00 0. -1.
         -4    1    6    6    0  503  0.64057217921E+03  0.43683375979E+03  0.35664600414E+02  0.77616262097E+03  0.00000000000E+00 0.  1.
<mgrwt>
<rscale>  0 0.20686350E+04</rscale>
<asrwt>0</asrwt>
<pdfrwt beam="1">  1        2 0.36904774E+00 0.20686350E+04</pdfrwt>
<pdfrwt beam="2">  1       -2 0.28085295E+00 0.20686350E+04</pdfrwt>
<totfact> 0.14627751E-01</totfact>
</mgrwt>
</event>
<event>
12    1  0.3203156E-008  0.2122186E+03  0.7818608E-02  0.1139821E+00
         -2   -1    0    0    0  501 -0.00000000000E+00  0.00000000000E+00  0.11736303662E+03  0.11736303662E+03  0.00000000000E+00 0.  1.
          2   -1    0    0  501    0  0.00000000000E+00 -0.00000000000E+00 -0.26020234423E+04  0.26020234423E+04  0.00000000000E+00 0. -1.
         23    2    1    2    0    0  0.73057429448E+02 -0.15879069148E+03 -0.45897274984E+02  0.20183311145E+03  0.89878658935E+02 0.  0.
    5000000    2    1    2    0    0 -0.73057429448E+02  0.15879069148E+03 -0.24387631307E+04  0.25175533674E+04  0.59996456456E+03 0.  0.
         23    2    4    4    0    0  0.15507361170E+02  0.13445535840E+03 -0.23629190069E+04  0.23685373690E+04  0.90908270305E+02 0.  0.
         23    2    4    4    0    0 -0.88564790618E+02  0.24335333079E+02 -0.75844123797E+02  0.14901599846E+03  0.89540527741E+02 0.  0.
          5    1    3    3  502    0  0.49772608210E+02 -0.10309147892E+03 -0.72615384428E+02  0.13564751973E+03  0.47000000000E+01 0. -1.
         -5    1    3    3    0  502  0.23284821238E+02 -0.55699212552E+02  0.26718109445E+02  0.66185591720E+02  0.47000000000E+01 0.  1.
         13    1    5    5    0    0 -0.20191767038E+02  0.89880805757E+02 -0.18796116764E+04  0.18818677745E+04  0.00000000000E+00 0. -1.
        -13    1    5    5    0    0  0.35699128208E+02  0.44574552639E+02 -0.48330733051E+03  0.48666959451E+03  0.00000000000E+00 0.  1.
          1    1    6    6  503    0 -0.18585142759E+02  0.23674822797E+02 -0.73015894525E+02  0.78976107901E+02  0.00000000000E+00 0. -1.
         -1    1    6    6    0  503 -0.69979647859E+02  0.66051028257E+00 -0.28282292722E+01  0.70039890556E+02  0.00000000000E+00 0.  1.
<mgrwt>
<rscale>  0 0.21221861E+03</rscale>
<asrwt>0</asrwt>
<pdfrwt beam="1">  1        2 0.40031127E+00 0.21221861E+03</pdfrwt>
<pdfrwt beam="2">  1       -2 0.18055853E-01 0.21221861E+03</pdfrwt>
<totfact> 0.90914034E+01</totfact>
</mgrwt>
</event>
<event>
12    1  0.3203156E-008  0.3190710E+04  0.7818608E-02  0.8191275E-01
         -2   -1    0    0    0  501 -0.00000000000E+00  0.00000000000E+00  0.31706957863E+04  0.31706957863E+04  0.00000000000E+00 0.  1.
          2   -1    0    0  501    0  0.00000000000E+00 -0.00000000000E+00 -0.32455440863E+04  0.32455440863E+04  0.00000000000E+00 0. -1.
         23    2    1    2    0    0  0.17044519132E+04 -0.26835601804E+04 -0.61049235463E+02  0.31809874350E+04  0.91117978803E+02 0.  0.
    5000000    2    1    2    0    0 -0.17044519132E+04  0.26835601804E+04 -0.13799064518E+02  0.32352524376E+04  0.60001362848E+03 0.  0.
         23    2    4    4    0    0 -0.11229943241E+04  0.20495392500E+04 -0.20992408373E+03  0.23484273715E+04  0.96517402830E+02 0.  0.
         23    2    4    4    0    0 -0.58145758911E+03  0.63402093044E+03  0.19612501921E+03  0.88682506610E+03  0.88984304997E+02 0.  0.
          5    1    3    3  502    0  0.11052391048E+04 -0.16653300156E+04 -0.20817812126E+02  0.19988329123E+04  0.47000000000E+01 0. -1.
         -5    1    3    3    0  502  0.59921280836E+03 -0.10182301648E+04 -0.40231423337E+02  0.11821545227E+04  0.47000000000E+01 0.  1.
         13    1    5    5    0    0 -0.12816647430E+03  0.27520034403E+03 -0.53128313719E+02  0.30819554216E+03  0.00000000000E+00 0. -1.
        -13    1    5    5    0    0 -0.99482784978E+03  0.17743389059E+04 -0.15679577001E+03  0.20402318293E+04  0.00000000000E+00 0.  1.
          2    1    6    6  503    0 -0.34453591178E+03  0.32122734873E+03  0.81674665306E+02  0.47808237264E+03  0.00000000000E+00 0.  1.
         -2    1    6    6    0  503 -0.23692167733E+03  0.31279358171E+03  0.11445035391E+03  0.40874269346E+03  0.00000000000E+00 0. -1.
<mgrwt>
<rscale>  0 0.31907101E+04</rscale>
<asrwt>0</asrwt>
<pdfrwt beam="1">  1        2 0.49931448E+00 0.31907101E+04</pdfrwt>
<pdfrwt beam="2">  1       -2 0.48779935E+00 0.31907101E+04</pdfrwt>
<totfact> 0.18494307E-03</totfact>
</mgrwt>
</event>
<event>
12    1  0.3203156E-008  0.1173652E+04  0.7818608E-02  0.9136237E-01
          2   -1    0    0  501    0  0.00000000000E+00  0.00000000000E+00  0.19497932546E+04  0.19497932546E+04  0.00000000000E+00 0. -1.
         -2   -1    0    0    0  501 -0.00000000000E+00 -0.00000000000E+00 -0.75217555192E+03  0.75217555192E+03  0.00000000000E+00 0.  1.
         23    2    1    2    0    0  0.10403316655E+04  0.44888815596E+03  0.63255813846E+03  0.13008635066E+04  0.91244251792E+02 0.  0.
    5000000    2    1    2    0    0 -0.10403316655E+04 -0.44888815596E+03  0.56505956419E+03  0.14011052999E+04  0.60001099941E+03 0.  0.
         23    2    4    4    0    0 -0.51524858471E+03  0.51472417867E+00  0.45754868878E+03  0.69504401776E+03  0.90851609996E+02 0.  0.
         23    2    4    4    0    0 -0.52508308080E+03 -0.44940288014E+03  0.10751087541E+03  0.70606128211E+03  0.96378189100E+02 0.  0.
          5    1    3    3  502    0  0.34870337619E+03  0.13217443404E+03  0.16384147196E+03  0.40734536147E+03  0.47000000000E+01 0. -1.
         -5    1    3    3    0  502  0.69162828932E+03  0.31671372193E+03  0.46871666651E+03  0.89351814515E+03  0.47000000000E+01 0.  1.
         13    1    5    5    0    0 -0.48859366764E+02  0.11098379789E+02  0.82262068370E+02  0.96319570426E+02  0.00000000000E+00 0. -1.
        -13    1    5    5    0    0 -0.46638921794E+03 -0.10583655610E+02  0.37528662041E+03  0.59872444734E+03  0.00000000000E+00 0.  1.
          1    1    6    6  503    0 -0.85799863101E+02 -0.12208252140E+03  0.36863723980E+02  0.15370326179E+03  0.00000000000E+00 0. -1.
         -1    1    6    6    0  503 -0.43928321770E+03 -0.32732035874E+03  0.70647151427E+02  0.55235802031E+03  0.00000000000E+00 0.  1.
<mgrwt>
<rscale>  0 0.11736522E+04</rscale>
<asrwt>0</asrwt>
<pdfrwt beam="1">  1        2 0.29996819E+00 0.11736522E+04</pdfrwt>
<pdfrwt beam="2">  1       -2 0.11571932E+00 0.11736522E+04</pdfrwt>
<totfact> 0.40516895E+00</totfact>
</mgrwt>
</event>
<event>
12    1  0.3203156E-008  0.1154070E+04  0.7818608E-02  0.9154037E-01
         -2   -1    0    0    0  501 -0.00000000000E+00  0.00000000000E+00  0.68805653543E+03  0.68805653543E+03  0.00000000000E+00 0.  1.
          2   -1    0    0  501    0  0.00000000000E+00 -0.00000000000E+00 -0.19916315196E+04  0.19916315196E+04  0.00000000000E+00 0. -1.
         23    2    1    2    0    0 -0.65114215275E+03  0.87055926319E+03 -0.72471656678E+03  0.13096775354E+04  0.90452256244E+02 0.  0.
    5000000    2    1    2    0    0  0.65114215275E+03 -0.87055926319E+03 -0.57885841737E+03  0.13700105196E+04  0.59999351890E+03 0.  0.
         23    2    4    4    0    0  0.49667498810E+03 -0.90245925750E+03 -0.57985531107E+03  0.11858895743E+04  0.94779456576E+02 0.  0.
         23    2    4    4    0    0  0.15446716466E+03  0.31899994303E+02  0.99689369870E+00  0.18412094535E+03  0.94983230752E+02 0.  0.
          5    1    3    3  502    0 -0.48018640485E+03  0.69447806292E+03 -0.58556385793E+03  0.10275144208E+04  0.47000000000E+01 0. -1.
         -5    1    3    3    0  502 -0.17095574791E+03  0.17608120027E+03 -0.13915270885E+03  0.28216311455E+03  0.47000000000E+01 0.  1.
         13    1    5    5    0    0  0.36113208751E+03 -0.73448409945E+03 -0.46705813025E+03  0.94235161909E+03  0.00000000000E+00 0. -1.
        -13    1    5    5    0    0  0.13554290059E+03 -0.16797515805E+03 -0.11279718081E+03  0.24353795520E+03  0.00000000000E+00 0.  1.
          2    1    6    6  503    0  0.43631854412E+02  0.55619074470E+02 -0.22952209269E+01  0.70728270185E+02  0.00000000000E+00 0. -1.
         -2    1    6    6    0  503  0.11083531025E+03 -0.23719080167E+02  0.32921146256E+01  0.11339267516E+03  0.00000000000E+00 0.  1.
<mgrwt>
<rscale>  0 0.11540699E+04</rscale>
<asrwt>0</asrwt>
<pdfrwt beam="1">  1        2 0.30640485E+00 0.11540699E+04</pdfrwt>
<pdfrwt beam="2">  1       -2 0.10585485E+00 0.11540699E+04</pdfrwt>
<totfact> 0.47842392E+00</totfact>
</mgrwt>
</event>
<event>
12    1  0.3203156E-008  0.8389349E+03  0.7818608E-02  0.9505310E-01
          1   -1    0    0  501    0  0.00000000000E+00  0.00000000000E+00  0.11399277751E+04  0.11399277751E+04  0.00000000000E+00 0. -1.
         -1   -1    0    0    0  501 -0.00000000000E+00 -0.00000000000E+00 -0.81363204416E+03  0.81363204416E+03  0.00000000000E+00 0.  1.
         23    2    1    2    0    0 -0.21750288588E+03  0.74153011185E+03 -0.25137643895E+03  0.81741433486E+03  0.88327054910E+02 0.  0.
    5000000    2    1    2    0    0  0.21750288588E+03 -0.74153011185E+03  0.57767216992E+03  0.11361454844E+04  0.59995584314E+03 0.  0.
         23    2    4    4    0    0  0.33009092155E+03 -0.36501941777E+03  0.10178929364E+03  0.51066938475E+03  0.90680584333E+02 0.  0.
         23    2    4    4    0    0 -0.11258803567E+03 -0.37651069408E+03  0.47588287628E+03  0.62547609967E+03  0.10158479606E+03 0.  0.
          5    1    3    3  502    0 -0.41547988488E+02  0.29113472146E+03 -0.10180185566E+03  0.31124165724E+03  0.47000000000E+01 0. -1.
         -5    1    3    3    0  502 -0.17595489739E+03  0.45039539040E+03 -0.14957458329E+03  0.50617267763E+03  0.47000000000E+01 0.  1.
         13    1    5    5    0    0  0.44732633591E+02 -0.75646708499E+02  0.49633521249E+02  0.10093027022E+03  0.00000000000E+00 0.  1.
        -13    1    5    5    0    0  0.28535828796E+03 -0.28937270927E+03  0.52155772389E+02  0.40973911453E+03  0.00000000000E+00 0. -1.
          4    1    6    6  503    0 -0.11122137939E+03 -0.38322505874E+03  0.46724805244E+03  0.61445291389E+03  0.00000000000E+00 0. -1.
         -4    1    6    6    0  503 -0.13666562837E+01  0.67143646540E+01  0.86348238338E+01  0.11023185780E+02  0.00000000000E+00 0.  1.
<mgrwt>
<rscale>  0 0.83893491E+03</rscale>
<asrwt>0</asrwt>
<pdfrwt beam="1">  1        1 0.17537350E+00 0.83893491E+03</pdfrwt>
<pdfrwt beam="2">  1       -1 0.12517416E+00 0.83893491E+03</pdfrwt>
<totfact> 0.67512628E+00</totfact>
</mgrwt>
</event>
<event>
12    1  0.3203156E-008  0.8624803E+03  0.7818608E-02  0.9473738E-01
         -4   -1    0    0    0  501 -0.00000000000E+00  0.00000000000E+00  0.17179228789E+04  0.17179228789E+04  0.00000000000E+00 0.  1.
          4   -1    0    0  501    0  0.00000000000E+00 -0.00000000000E+00 -0.59366201165E+03  0.59366201165E+03  0.00000000000E+00 0. -1.
         23    2    1    2    0    0 -0.45636751057E+03 -0.68122527752E+03  0.98692506810E+03  0.12863405223E+04  0.91168337200E+02 0.  0.
    5000000    2    1    2    0    0  0.45636751057E+03  0.68122527752E+03  0.13733579916E+03  0.10252443683E+04  0.59993808812E+03 0.  0.
         23    2    4    4    0    0  0.84525850937E+02  0.45335884195E+03  0.29187797146E+03  0.55344355367E+03  0.91804998950E+02 0.  0.
         23    2    4    4    0    0  0.37184165964E+03  0.22786643557E+03 -0.15454217230E+03  0.47180081464E+03  0.92322225765E+02 0.  0.
          5    1    3    3  502    0 -0.32531028882E+03 -0.46891355139E+03  0.62104375736E+03  0.84345962633E+03  0.47000000000E+01 0. -1.
         -5    1    3    3    0  502 -0.13105722175E+03 -0.21231172612E+03  0.36588131074E+03  0.44288089592E+03  0.47000000000E+01 0.  1.
         13    1    5    5    0    0  0.68109925291E+02  0.15185377375E+03  0.80625012942E+02  0.18492950883E+03  0.00000000000E+00 0. -1.
        -13    1    5    5    0    0  0.16415925646E+02  0.30150506820E+03  0.21125295851E+03  0.36851404484E+03  0.00000000000E+00 0.  1.
          1    1    6    6  503    0  0.30737529482E+03  0.18242690136E+03 -0.86778873953E+02  0.36781750797E+03  0.00000000000E+00 0. -1.
         -1    1    6    6    0  503  0.64466364815E+02  0.45439534215E+02 -0.67763298347E+02  0.10398330667E+03  0.00000000000E+00 0.  1.
<mgrwt>
<rscale>  0 0.86248027E+03</rscale>
<asrwt>0</asrwt>
<pdfrwt beam="1">  1        4 0.91332618E-01 0.86248027E+03</pdfrwt>
<pdfrwt beam="2">  1       -4 0.26429583E+00 0.86248027E+03</pdfrwt>
<totfact> 0.10349618E-01</totfact>
</mgrwt>
</event>
<event>
12    1  0.3203156E-008  0.1373291E+04  0.7818608E-02  0.8973382E-01
         -2   -1    0    0    0  501 -0.00000000000E+00  0.00000000000E+00  0.78903926313E+03  0.78903926313E+03  0.00000000000E+00 0. -1.
          2   -1    0    0  501    0  0.00000000000E+00 -0.00000000000E+00 -0.27314816079E+04  0.27314816079E+04  0.00000000000E+00 0.  1.
         23    2    1    2    0    0 -0.82893873963E+03 -0.10922826398E+04 -0.56306436268E+03  0.14851100972E+04  0.91047927459E+02 0.  0.
    5000000    2    1    2    0    0  0.82893873963E+03  0.10922826398E+04 -0.13793779821E+04  0.20354107738E+04  0.59999383446E+03 0.  0.
         23    2    4    4    0    0  0.60900176077E+03  0.79256192188E+03 -0.13037175624E+04  0.16453084018E+04  0.91228886453E+02 0.  0.
         23    2    4    4    0    0  0.21993697887E+03  0.29972071791E+03 -0.75660419627E+02  0.39010237201E+03  0.90832693079E+02 0.  0.
          5    1    3    3  502    0 -0.19207092005E+03 -0.22781930091E+03 -0.86154701296E+02  0.31022184764E+03  0.47000000000E+01 0. -1.
         -5    1    3    3    0  502 -0.63686781959E+03 -0.86446333888E+03 -0.47690966138E+03  0.11748882496E+04  0.47000000000E+01 0.  1.
         13    1    5    5    0    0  0.32301419781E+03  0.37672490025E+03 -0.58564428313E+03  0.76761907794E+03  0.00000000000E+00 0. -1.
        -13    1    5    5    0    0  0.28598756296E+03  0.41583702163E+03 -0.71807327930E+03  0.87768932383E+03  0.00000000000E+00 0.  1.
          3    1    6    6  503    0  0.15663315602E+03  0.24172404963E+03 -0.92676452657E+02  0.30257790172E+03  0.00000000000E+00 0. -1.
         -3    1    6    6    0  503  0.63303822849E+02  0.57996668276E+02  0.17016033030E+02  0.87524470284E+02  0.00000000000E+00 0.  1.
<mgrwt>
<rscale>  0 0.13732912E+04</rscale>
<asrwt>0</asrwt>
<pdfrwt beam="1">  1        2 0.42022794E+00 0.13732912E+04</pdfrwt>
<pdfrwt beam="2">  1       -2 0.12139065E+00 0.13732912E+04</pdfrwt>
<totfact> 0.12641313E+00</totfact>
</mgrwt>
</event>
<event>
12    1  0.3203156E-008  0.7728967E+03  0.7818608E-02  0.9600098E-01
         -2   -1    0    0    0  501 -0.00000000000E+00  0.00000000000E+00  0.82371886885E+03  0.82371886885E+03  0.00000000000E+00 0. -1.
          2   -1    0    0  501    0  0.00000000000E+00 -0.00000000000E+00 -0.88617797428E+03  0.88617797428E+03  0.00000000000E+00 0.  1.
         23    2    1    2    0    0 -0.65246097091E+03  0.30427799964E+03 -0.22262655047E+03  0.75907781016E+03  0.91357108479E+02 0.  0.
    5000000    2    1    2    0    0  0.65246097091E+03 -0.30427799964E+03  0.16016744503E+03  0.95081903297E+03  0.60009399546E+03 0.  0.
         23    2    4    4    0    0  0.51278311773E+03 -0.38584854069E+03 -0.73035401215E+02  0.65284752498E+03  0.95132007522E+02 0.  0.
         23    2    4    4    0    0  0.13967785318E+03  0.81570541051E+02  0.23320284625E+03  0.29797150799E+03  0.90773323397E+02 0.  0.
          5    1    3    3  502    0 -0.28872287044E+03  0.17059981879E+03 -0.13628541067E+03  0.36202347610E+03  0.47000000000E+01 0. -1.
         -5    1    3    3    0  502 -0.36373810047E+03  0.13367818085E+03 -0.86341139797E+02  0.39705433406E+03  0.47000000000E+01 0.  1.
         11    1    5    5    0    0  0.33255719918E+03 -0.30194226705E+03 -0.65243086361E+02  0.45389435299E+03  0.00000000000E+00 0. -1.
        -11    1    5    5    0    0  0.18022591855E+03 -0.83906273647E+02 -0.77923148541E+01  0.19895317199E+03  0.00000000000E+00 0.  1.
          4    1    6    6  503    0  0.14105971364E+03  0.60060928667E+02  0.15972828458E+03  0.22140072913E+03  0.00000000000E+00 0. -1.
         -4    1    6    6    0  503 -0.13818604574E+01  0.21509612384E+02  0.73474561671E+02  0.76570778865E+02  0.00000000000E+00 0.  1.
<mgrwt>
<rscale>  0 0.77289675E+03</rscale>
<asrwt>0</asrwt>
<pdfrwt beam="1">  1        2 0.13633507E+00 0.77289675E+03</pdfrwt>
<pdfrwt beam="2">  1       -2 0.12672598E+00 0.77289675E+03</pdfrwt>
<totfact> 0.14065134E+01</totfact>
</mgrwt>
</event>
<event>
12    1  0.3203156E-008  0.5457280E+03  0.7818608E-02  0.1002488E+00
         -1   -1    0    0    0  501 -0.00000000000E+00  0.00000000000E+00  0.17197411932E+04  0.17197411932E+04  0.00000000000E+00 0.  1.
          1   -1    0    0  501    0  0.00000000000E+00 -0.00000000000E+00 -0.41899569953E+03  0.41899569953E+03  0.00000000000E+00 0. -1.
         23    2    1    2    0    0  0.27442089147E+03 -0.37894887223E+03  0.12927235409E+04  0.13778592408E+04  0.91939439973E+02 0.  0.
    5000000    2    1    2    0    0 -0.27442089147E+03  0.37894887223E+03  0.80219527602E+01  0.76087765200E+03  0.59996781259E+03 0.  0.
         23    2    4    4    0    0 -0.15025338413E+03  0.43756335024E+03  0.19654402748E+03  0.51003648673E+03  0.86428572480E+02 0.  0.
         23    2    4    4    0    0 -0.12416750734E+03 -0.58614478015E+02 -0.18852207472E+03  0.25084116527E+03  0.92344413056E+02 0.  0.
          5    1    3    3  502    0  0.10119880521E+03 -0.19464517668E+03  0.50796260516E+03  0.55333176416E+03  0.47000000000E+01 0. -1.
         -5    1    3    3    0  502  0.17322208626E+03 -0.18430369555E+03  0.78476093579E+03  0.82452747662E+03  0.47000000000E+01 0.  1.
         13    1    5    5    0    0 -0.31501404150E+02  0.19673138725E+03  0.55983503522E+02  0.20695344854E+03  0.00000000000E+00 0.  1.
        -13    1    5    5    0    0 -0.11875197998E+03  0.24083196299E+03  0.14056052396E+03  0.30308303820E+03  0.00000000000E+00 0. -1.
          3    1    6    6  503    0 -0.38319555090E+02  0.11980512950E+02 -0.10316085467E+03  0.11069816136E+03  0.00000000000E+00 0. -1.
         -3    1    6    6    0  503 -0.85847952247E+02 -0.70594990965E+02 -0.85361220057E+02  0.14014300391E+03  0.00000000000E+00 0.  1.
<mgrwt>
<rscale>  0 0.54572802E+03</rscale>
<asrwt>0</asrwt>
<pdfrwt beam="1">  1        1 0.64460878E-01 0.54572802E+03</pdfrwt>
<pdfrwt beam="2">  1       -1 0.26457556E+00 0.54572802E+03</pdfrwt>
<totfact> 0.34220791E+00</totfact>
</mgrwt>
</event>
<event>
12    1  0.3203156E-008  0.1552493E+04  0.7818608E-02  0.8850277E-01
         -1   -1    0    0    0  501 -0.00000000000E+00  0.00000000000E+00  0.87562940550E+03  0.87562940550E+03  0.00000000000E+00 0.  1.
          1   -1    0    0  501    0  0.00000000000E+00 -0.00000000000E+00 -0.28782986575E+04  0.28782986575E+04  0.00000000000E+00 0. -1.
         23    2    1    2    0    0 -0.14707970440E+04 -0.30948516785E+03 -0.13009077125E+04  0.19899926660E+04  0.93192919883E+02 0.  0.
    5000000    2    1    2    0    0  0.14707970440E+04  0.30948516785E+03 -0.70176153944E+03  0.17639353970E+04  0.59997817702E+03 0.  0.
         23    2    4    4    0    0  0.17174755336E+03  0.23586914630E+03 -0.63937601562E+02  0.31206194394E+03  0.90350228021E+02 0.  0.
         23    2    4    4    0    0  0.12990494906E+04  0.73616021550E+02 -0.63782393788E+03  0.14518734531E+04  0.90378372944E+02 0.  0.
          5    1    3    3  502    0 -0.77873140633E+03 -0.17461147536E+03 -0.75008559128E+03  0.10952452943E+04  0.47000000000E+01 0. -1.
         -5    1    3    3    0  502 -0.69206563766E+03 -0.13487369249E+03 -0.55082212126E+03  0.89474737162E+03  0.47000000000E+01 0.  1.
         13    1    5    5    0    0 -0.25501355911E+01  0.28896812679E+02  0.11422503448E+02  0.31176955585E+02  0.00000000000E+00 0. -1.
        -13    1    5    5    0    0  0.17429768895E+03  0.20697233362E+03 -0.75360105010E+02  0.28088498836E+03  0.00000000000E+00 0.  1.
          3    1    6    6  503    0  0.26728102932E+03 -0.62281650046E+01 -0.16453546286E+03  0.31392651562E+03  0.00000000000E+00 0. -1.
         -3    1    6    6    0  503  0.10317684613E+04  0.79844186555E+02 -0.47328847502E+03  0.11379469375E+04  0.00000000000E+00 0.  1.
<mgrwt>
<rscale>  0 0.15524927E+04</rscale>
<asrwt>0</asrwt>
<pdfrwt beam="1">  1        1 0.44281518E+00 0.15524927E+04</pdfrwt>
<pdfrwt beam="2">  1       -1 0.13471222E+00 0.15524927E+04</pdfrwt>
<totfact> 0.32137929E-01</totfact>
</mgrwt>
</event>
<event>
12    1  0.3203156E-008  0.1073592E+04  0.7818608E-02  0.9231320E-01
          1   -1    0    0  501    0  0.00000000000E+00  0.00000000000E+00  0.12746868915E+04  0.12746868915E+04  0.00000000000E+00 0. -1.
         -1   -1    0    0    0  501 -0.00000000000E+00 -0.00000000000E+00 -0.10002253075E+04  0.10002253075E+04  0.00000000000E+00 0.  1.
         23    2    1    2    0    0 -0.95002638588E+03 -0.40406990520E+03 -0.49943418165E+02  0.10375478983E+04  0.90491293313E+02 0.  0.
    5000000    2    1    2    0    0  0.95002638588E+03  0.40406990520E+03  0.32440500215E+03  0.12373643006E+04  0.60000765393E+03 0.  0.
         23    2    4    4    0    0  0.55512276197E+03  0.44638675084E+03  0.40206414598E+03  0.82300551880E+03  0.90885060969E+02 0.  0.
         23    2    4    4    0    0  0.39490362391E+03 -0.42316845639E+02 -0.77659143829E+02  0.41435878178E+03  0.89009380509E+02 0.  0.
          5    1    3    3  502    0 -0.24536173718E+03 -0.11017882530E+03 -0.52263010493E+02  0.27403515811E+03  0.47000000000E+01 0. -1.
         -5    1    3    3    0  502 -0.70466464870E+03 -0.29389107989E+03  0.23195923280E+01  0.76351274022E+03  0.47000000000E+01 0.  1.
         11    1    5    5    0    0  0.33878103134E+03  0.21785301484E+03  0.24286553593E+03  0.47033625398E+03  0.00000000000E+00 0. -1.
        -11    1    5    5    0    0  0.21634173063E+03  0.22853373600E+03  0.15919861005E+03  0.35266926481E+03  0.00000000000E+00 0.  1.
          2    1    6    6  503    0  0.17920488861E+03 -0.21735094704E+02  0.95924313821E+01  0.18077284415E+03  0.00000000000E+00 0. -1.
         -2    1    6    6    0  503  0.21569873530E+03 -0.20581750935E+02 -0.87251575211E+02  0.23358593763E+03  0.00000000000E+00 0.  1.
<mgrwt>
<rscale>  0 0.10735923E+04</rscale>
<asrwt>0</asrwt>
<pdfrwt beam="1">  1        1 0.19610568E+00 0.10735923E+04</pdfrwt>
<pdfrwt beam="2">  1       -1 0.15388082E+00 0.10735923E+04</pdfrwt>
<totfact> 0.30544822E+00</totfact>
</mgrwt>
</event>
<event>
12    1  0.3203156E-008  0.4250467E+03  0.7818608E-02  0.1035436E+00
         -2   -1    0    0    0  501 -0.00000000000E+00  0.00000000000E+00  0.40274702956E+03  0.40274702956E+03  0.00000000000E+00 0.  1.
          2   -1    0    0  501    0  0.00000000000E+00 -0.00000000000E+00 -0.66586751742E+03  0.66586751742E+03  0.00000000000E+00 0. -1.
         23    2    1    2    0    0 -0.13233763675E+03  0.24049269823E+03 -0.28711463667E+03  0.40837312274E+03  0.94782935089E+02 0.  0.
    5000000    2    1    2    0    0  0.13233763675E+03 -0.24049269823E+03  0.23994148815E+02  0.66024142424E+03  0.59999419256E+03 0.  0.
         23    2    4    4    0    0 -0.13271901270E+03 -0.24295109085E+03 -0.15209048381E+03  0.32795058472E+03  0.88207153214E+02 0.  0.
         23    2    4    4    0    0  0.26505664944E+03  0.24583926133E+01  0.17608463262E+03  0.33229083952E+03  0.95657373359E+02 0.  0.
          5    1    3    3  502    0 -0.52999158549E+02  0.18517369761E+03 -0.17560150741E+03  0.26068407796E+03  0.47000000000E+01 0. -1.
         -5    1    3    3    0  502 -0.79338478197E+02  0.55319000618E+02 -0.11151312926E+03  0.14768904479E+03  0.47000000000E+01 0.  1.
         13    1    5    5    0    0 -0.12235152263E+03 -0.18903193561E+03 -0.15435188816E+03  0.27299720355E+03  0.00000000000E+00 0.  1.
        -13    1    5    5    0    0 -0.10367490068E+02 -0.53919155240E+02  0.22614043522E+01  0.54953381167E+02  0.00000000000E+00 0. -1.
          1    1    6    6  503    0  0.50168765015E+00 -0.15350878783E+02  0.30130742600E+01  0.15651830129E+02  0.00000000000E+00 0. -1.
         -1    1    6    6    0  503  0.26455496179E+03  0.17809271396E+02  0.17307155836E+03  0.31663900939E+03  0.00000000000E+00 0.  1.
<mgrwt>
<rscale>  0 0.42504669E+03</rscale>
<asrwt>0</asrwt>
<pdfrwt beam="1">  1        2 0.10244116E+00 0.42504669E+03</pdfrwt>
<pdfrwt beam="2">  1       -2 0.61961082E-01 0.42504669E+03</pdfrwt>
<totfact> 0.10944008E+02</totfact>
</mgrwt>
</event>
<event>
12    1  0.3203156E-008  0.1044220E+04  0.7818608E-02  0.9261332E-01
         -2   -1    0    0    0  501 -0.00000000000E+00  0.00000000000E+00  0.48386004680E+03  0.48386004680E+03  0.00000000000E+00 0.  1.
          2   -1    0    0  501    0  0.00000000000E+00 -0.00000000000E+00 -0.23361119141E+04  0.23361119141E+04  0.00000000000E+00 0. -1.
         23    2    1    2    0    0  0.88016200234E+03  0.42146740579E+03 -0.81888052196E+03  0.12771362404E+04  0.90508247819E+02 0.  0.
    5000000    2    1    2    0    0 -0.88016200234E+03 -0.42146740579E+03 -0.10333713453E+04  0.15428357204E+04  0.60013814943E+03 0.  0.
         23    2    4    4    0    0 -0.38984562954E+03 -0.47145060259E+03 -0.40656004579E+03  0.74022778604E+03  0.91655980946E+02 0.  0.
         23    2    4    4    0    0 -0.49031637280E+03  0.49983196805E+02 -0.62681129952E+03  0.80260793438E+03  0.91534833400E+02 0.  0.
          5    1    3    3  502    0  0.56890067484E+02  0.60710788331E+01 -0.38712901136E+02  0.69239558714E+02  0.47000000000E+01 0. -1.
         -5    1    3    3    0  502  0.82327193485E+03  0.41539632695E+03 -0.78016762083E+03  0.12078966817E+04  0.47000000000E+01 0.  1.
         13    1    5    5    0    0 -0.15812217362E+03 -0.13811606057E+03 -0.17172133335E+03  0.27123215942E+03  0.00000000000E+00 0. -1.
        -13    1    5    5    0    0 -0.23172345592E+03 -0.33333454203E+03 -0.23483871244E+03  0.46899562662E+03  0.00000000000E+00 0.  1.
          1    1    6    6  503    0 -0.24104220467E+03  0.19199241092E+02 -0.38041330053E+03  0.45075961943E+03  0.00000000000E+00 0. -1.
         -1    1    6    6    0  503 -0.24927416812E+03  0.30783955713E+02 -0.24639799899E+03  0.35184831495E+03  0.00000000000E+00 0.  1.
<mgrwt>
<rscale>  0 0.10442197E+04</rscale>
<asrwt>0</asrwt>
<pdfrwt beam="1">  1        2 0.35940184E+00 0.10442197E+04</pdfrwt>
<pdfrwt beam="2">  1       -2 0.74440006E-01 0.10442197E+04</pdfrwt>
<totfact> 0.70369137E+00</totfact>
</mgrwt>
</event>
<event>
12    1  0.3203156E-008  0.5862936E+03  0.7818608E-02  0.9934258E-01
          1   -1    0    0  501    0  0.00000000000E+00  0.00000000000E+00  0.62537544459E+03  0.62537544459E+03  0.00000000000E+00 0. -1.
         -1   -1    0    0    0  501 -0.00000000000E+00 -0.00000000000E+00 -0.58322314470E+03  0.58322314470E+03  0.00000000000E+00 0.  1.
         23    2    1    2    0    0 -0.43628083462E+03  0.73041569397E+02 -0.67624763320E+02  0.45607693071E+03  0.88073949592E+02 0.  0.
    5000000    2    1    2    0    0  0.43628083462E+03 -0.73041569397E+02  0.10977706321E+03  0.75252165859E+03  0.59880030521E+03 0.  0.
         23    2    4    4    0    0  0.22385187600E+03 -0.30871270650E+03 -0.29222475352E+02  0.39307404222E+03  0.90774732472E+02 0.  0.
         23    2    4    4    0    0  0.21242895862E+03  0.23567113711E+03  0.13899953856E+03  0.35944761637E+03  0.95993592840E+02 0.  0.
          5    1    3    3  502    0 -0.36262186632E+03  0.91902827676E+02 -0.46315108847E+02  0.37697205065E+03  0.47000000000E+01 0. -1.
         -5    1    3    3    0  502 -0.73658968299E+02 -0.18861258279E+02 -0.21309654473E+02  0.79104880055E+02  0.47000000000E+01 0.  1.
         11    1    5    5    0    0  0.19484573781E+03 -0.30602388497E+03 -0.28957713032E+02  0.36394234276E+03  0.00000000000E+00 0.  1.
        -11    1    5    5    0    0  0.29006138192E+02 -0.26888215366E+01 -0.26476232040E+00  0.29131699456E+02  0.00000000000E+00 0. -1.
          3    1    6    6  503    0  0.46437350002E+02  0.57489189022E+01  0.97248449488E+01  0.47791737288E+02  0.00000000000E+00 0. -1.
         -3    1    6    6    0  503  0.16599160861E+03  0.22992221820E+03  0.12927469362E+03  0.31165587908E+03  0.00000000000E+00 0.  1.
<mgrwt>
<rscale>  0 0.58629359E+03</rscale>
<asrwt>0</asrwt>
<pdfrwt beam="1">  1        1 0.96211606E-01 0.58629359E+03</pdfrwt>
<pdfrwt beam="2">  1       -1 0.89726638E-01 0.58629359E+03</pdfrwt>
<totfact> 0.40810683E+01</totfact>
</mgrwt>
</event>
<event>
12    1  0.3203156E-008  0.3611199E+03  0.7818608E-02  0.1058141E+00
          2   -1    0    0  501    0  0.00000000000E+00  0.00000000000E+00  0.11337874056E+04  0.11337874056E+04  0.00000000000E+00 0. -1.
         -2   -1    0    0    0  501 -0.00000000000E+00 -0.00000000000E+00 -0.14209318703E+03  0.14209318703E+03  0.00000000000E+00 0.  1.
         23    2    1    2    0    0  0.33623763343E+02 -0.14960485566E+03  0.28423480407E+03  0.33553476954E+03  0.91005425240E+02 0.  0.
    5000000    2    1    2    0    0 -0.33623763343E+02  0.14960485566E+03  0.70745941451E+03  0.94034582311E+03  0.60019936151E+03 0.  0.
         23    2    4    4    0    0 -0.11121394819E+03  0.31789250891E+03  0.62835094032E+03  0.71853899493E+03  0.89717297923E+02 0.  0.
         23    2    4    4    0    0  0.77590184844E+02 -0.16828765325E+03  0.79108474194E+02  0.22180682818E+03  0.92731587487E+02 0.  0.
          5    1    3    3  502    0  0.55234335571E+02 -0.45085661659E+02  0.11133695327E+03  0.13229344609E+03  0.47000000000E+01 0. -1.
         -5    1    3    3    0  502 -0.21610572228E+02 -0.10451919401E+03  0.17289785080E+03  0.20324132345E+03  0.47000000000E+01 0.  1.
         13    1    5    5    0    0 -0.24218106130E+02  0.14298498995E+03  0.34635121343E+03  0.37548686669E+03  0.00000000000E+00 0. -1.
        -13    1    5    5    0    0 -0.86995842057E+02  0.17490751896E+03  0.28199972689E+03  0.34305212824E+03  0.00000000000E+00 0.  1.
          3    1    6    6  503    0  0.89290382573E+02 -0.99016294795E+02  0.31677644739E+02  0.13704186306E+03  0.00000000000E+00 0. -1.
         -3    1    6    6    0  503 -0.11700197729E+02 -0.69271358451E+02  0.47430829455E+02  0.84764965117E+02  0.00000000000E+00 0.  1.
<mgrwt>
<rscale>  0 0.36111985E+03</rscale>
<asrwt>0</asrwt>
<pdfrwt beam="1">  1        2 0.17442883E+00 0.36111985E+03</pdfrwt>
<pdfrwt beam="2">  1       -2 0.21860491E-01 0.36111985E+03</pdfrwt>
<totfact> 0.39181067E+02</totfact>
</mgrwt>
</event>
<event>
12    1  0.3203156E-008  0.8706494E+03  0.7818608E-02  0.9463034E-01
         -2   -1    0    0    0  501 -0.00000000000E+00  0.00000000000E+00  0.55475047867E+03  0.55475047867E+03  0.00000000000E+00 0.  1.
          2   -1    0    0  501    0  0.00000000000E+00 -0.00000000000E+00 -0.14664189110E+04  0.14664189110E+04  0.00000000000E+00 0. -1.
         23    2    1    2    0    0  0.14258200094E+03  0.77217418273E+03 -0.23973559883E+03  0.82614696920E+03  0.91994901492E+02 0.  0.
    5000000    2    1    2    0    0 -0.14258200094E+03 -0.77217418273E+03 -0.67193283348E+03  0.11950224204E+04  0.60000188098E+03 0.  0.
         23    2    4    4    0    0  0.15808163560E+03 -0.46260322189E+02 -0.19612503243E+03  0.27138129271E+03  0.89738268098E+02 0.  0.
         23    2    4    4    0    0 -0.30066363654E+03 -0.72591386055E+03 -0.47580780105E+03  0.92364112774E+03  0.96800382440E+02 0.  0.
          5    1    3    3  502    0  0.64764253358E+02  0.24048618533E+03 -0.37140871607E+02  0.25185223483E+03  0.47000000000E+01 0. -1.
         -5    1    3    3    0  502  0.77817747579E+02  0.53168799741E+03 -0.20259472722E+03  0.57429473437E+03  0.47000000000E+01 0.  1.
         11    1    5    5    0    0  0.31869153553E+02 -0.25632470879E+02 -0.10957773066E+03  0.11696129944E+03  0.00000000000E+00 0. -1.
        -11    1    5    5    0    0  0.12621248205E+03 -0.20627851310E+02 -0.86547301773E+02  0.15441999326E+03  0.00000000000E+00 0.  1.
          4    1    6    6  503    0 -0.53279050593E+02 -0.15253379261E+03 -0.55242700563E+02  0.17075412465E+03  0.00000000000E+00 0.  1.
         -4    1    6    6    0  503 -0.24738458595E+03 -0.57338006794E+03 -0.42056510049E+03  0.75288700309E+03  0.00000000000E+00 0. -1.
<mgrwt>
<rscale>  0 0.87064944E+03</rscale>
<asrwt>0</asrwt>
<pdfrwt beam="1">  1        2 0.22560290E+00 0.87064944E+03</pdfrwt>
<pdfrwt beam="2">  1       -2 0.85346229E-01 0.87064944E+03</pdfrwt>
<totfact> 0.15980710E+01</totfact>
</mgrwt>
</event>
<event>
12    1  0.3203156E-008  0.8588005E+03  0.7818608E-02  0.9478601E-01
          2   -1    0    0  501    0  0.00000000000E+00  0.00000000000E+00  0.96865369172E+03  0.96865369172E+03  0.00000000000E+00 0.  1.
         -2   -1    0    0    0  501 -0.00000000000E+00 -0.00000000000E+00 -0.88277436802E+03  0.88277436802E+03  0.00000000000E+00 0. -1.
         23    2    1    2    0    0  0.77288272917E+03 -0.43633098517E+02  0.32101599634E+03  0.84377343853E+03  0.98238410666E+02 0.  0.
    5000000    2    1    2    0    0 -0.77288272917E+03  0.43633098517E+02 -0.23513667265E+03  0.10076546212E+04  0.60068878838E+03 0.  0.
         23    2    4    4    0    0 -0.56821202087E+03  0.27075075053E+03 -0.48000253612E+02  0.63762947292E+03  0.89980280192E+02 0.  0.
         23    2    4    4    0    0 -0.20467070830E+03 -0.22711765202E+03 -0.18713641904E+03  0.37002514829E+03  0.91793487458E+02 0.  0.
          5    1    3    3  502    0  0.40524645307E+03  0.51513218564E+01  0.12426063608E+03  0.42392690351E+03  0.47000000000E+01 0. -1.
         -5    1    3    3    0  502  0.36763627610E+03 -0.48784420373E+02  0.19675536027E+03  0.41984653502E+03  0.47000000000E+01 0.  1.
         13    1    5    5    0    0 -0.43246793077E+03  0.16374537104E+03 -0.46640186940E+02  0.46477560685E+03  0.00000000000E+00 0. -1.
        -13    1    5    5    0    0 -0.13574409009E+03  0.10700537949E+03 -0.13600666724E+01  0.17285386608E+03  0.00000000000E+00 0.  1.
          1    1    6    6  503    0 -0.19586860753E+03 -0.22152696829E+03 -0.15023050567E+03  0.33167440952E+03  0.00000000000E+00 0. -1.
         -1    1    6    6    0  503 -0.88021007774E+01 -0.55906837217E+01 -0.36905913366E+02  0.38350738767E+02  0.00000000000E+00 0.  1.
<mgrwt>
<rscale>  0 0.85880053E+03</rscale>
<asrwt>0</asrwt>
<pdfrwt beam="1">  1        2 0.14902365E+00 0.85880053E+03</pdfrwt>
<pdfrwt beam="2">  1       -2 0.13581144E+00 0.85880053E+03</pdfrwt>
<totfact> 0.10307203E+01</totfact>
</mgrwt>
</event>
<event>
12    1  0.3203156E-008  0.6008664E+03  0.7818608E-02  0.9903610E-01
         -2   -1    0    0    0  501 -0.00000000000E+00  0.00000000000E+00  0.34638049860E+03  0.34638049860E+03  0.00000000000E+00 0.  1.
          2   -1    0    0  501    0  0.00000000000E+00 -0.00000000000E+00 -0.14462477664E+04  0.14462477664E+04  0.00000000000E+00 0. -1.
         23    2    1    2    0    0 -0.41984111248E+03  0.34612547229E+03 -0.21293648770E+03  0.59152019643E+03  0.92112934440E+02 0.  0.
    5000000    2    1    2    0    0  0.41984111248E+03 -0.34612547229E+03 -0.88693078005E+03  0.12011080685E+04  0.59995414941E+03 0.  0.
         23    2    4    4    0    0  0.44386228503E+03 -0.37119947840E+03 -0.41166508382E+03  0.71609054101E+03  0.92275353472E+02 0.  0.
         23    2    4    4    0    0 -0.24021172544E+02  0.25074006115E+02 -0.47526569623E+03  0.48501752752E+03  0.90326061992E+02 0.  0.
          5    1    3    3  502    0 -0.32483641589E+03  0.24014522305E+03 -0.19299058756E+03  0.44772299709E+03  0.47000000000E+01 0. -1.
         -5    1    3    3    0  502 -0.95004696591E+02  0.10598024924E+03 -0.19945900140E+02  0.14379719933E+03  0.47000000000E+01 0.  1.
         11    1    5    5    0    0  0.15798520682E+03 -0.98127161021E+02 -0.17474573441E+03  0.25519470409E+03  0.00000000000E+00 0.  1.
        -11    1    5    5    0    0  0.28587707821E+03 -0.27307231738E+03 -0.23691934941E+03  0.46089583692E+03  0.00000000000E+00 0. -1.
          2    1    6    6  503    0 -0.13660031146E+02 -0.21953995748E+02 -0.34778051673E+03  0.34874039370E+03  0.00000000000E+00 0. -1.
         -2    1    6    6    0  503 -0.10361141399E+02  0.47028001863E+02 -0.12748517951E+03  0.13627713383E+03  0.00000000000E+00 0.  1.
<mgrwt>
<rscale>  0 0.60086641E+03</rscale>
<asrwt>0</asrwt>
<pdfrwt beam="1">  1        2 0.22249966E+00 0.60086641E+03</pdfrwt>
<pdfrwt beam="2">  1       -2 0.53289306E-01 0.60086641E+03</pdfrwt>
<totfact> 0.46971483E+01</totfact>
</mgrwt>
</event>
<event>
12    1  0.3203156E-008  0.7799669E+03  0.7818608E-02  0.9589476E-01
         -1   -1    0    0    0  501 -0.00000000000E+00  0.00000000000E+00  0.10707580857E+04  0.10707580857E+04  0.00000000000E+00 0.  1.
          1   -1    0    0  501    0  0.00000000000E+00 -0.00000000000E+00 -0.62449080372E+03  0.62449080372E+03  0.00000000000E+00 0. -1.
         23    2    1    2    0    0 -0.14463743213E+03 -0.68907136136E+03  0.21393950815E+03  0.74148481554E+03  0.91051033554E+02 0.  0.
    5000000    2    1    2    0    0  0.14463743213E+03  0.68907136136E+03  0.23232777381E+03  0.95376407385E+03  0.59995865379E+03 0.  0.
         23    2    4    4    0    0 -0.34654363515E+02  0.66035356256E+03  0.33824987007E+02  0.66982106409E+03  0.10123426126E+03 0.  0.
         23    2    4    4    0    0  0.17929179564E+03  0.28717798806E+02  0.19850278680E+03  0.28394300976E+03  0.90829601310E+02 0.  0.
          5    1    3    3  502    0 -0.57030225898E+02 -0.20165273219E+03  0.23693441225E+02  0.21094961537E+03  0.47000000000E+01 0. -1.
         -5    1    3    3    0  502 -0.87607206228E+02 -0.48741862918E+03  0.19024606692E+03  0.53053520018E+03  0.47000000000E+01 0.  1.
         13    1    5    5    0    0 -0.55764646679E+02  0.31808264137E+03  0.48658359374E+02  0.32657908460E+03  0.00000000000E+00 0.  1.
        -13    1    5    5    0    0  0.21110283164E+02  0.34227092119E+03 -0.14833372366E+02  0.34324197949E+03  0.00000000000E+00 0. -1.
          1    1    6    6  503    0  0.10450848980E+03  0.43120394081E+02  0.65442862796E+02  0.13062986304E+03  0.00000000000E+00 0. -1.
         -1    1    6    6    0  503  0.74783305836E+02 -0.14402595275E+02  0.13305992400E+03  0.15331314672E+03  0.00000000000E+00 0.  1.
<mgrwt>
<rscale>  0 0.77996692E+03</rscale>
<asrwt>0</asrwt>
<pdfrwt beam="1">  1        1 0.96075508E-01 0.77996692E+03</pdfrwt>
<pdfrwt beam="2">  1       -1 0.16473201E+00 0.77996692E+03</pdfrwt>
<totfact> 0.89368995E+00</totfact>
</mgrwt>
</event>
<event>
12    1  0.3203156E-008  0.5115590E+03  0.7818608E-02  0.1010805E+00
          1   -1    0    0  501    0  0.00000000000E+00  0.00000000000E+00  0.29412366940E+04  0.29412366940E+04  0.00000000000E+00 0. -1.
         -1   -1    0    0    0  501 -0.00000000000E+00 -0.00000000000E+00 -0.14677460546E+03  0.14677460546E+03  0.00000000000E+00 0.  1.
         23    2    1    2    0    0 -0.36710327594E+03 -0.32735022457E+03  0.75376225134E+03  0.90479565790E+03  0.92599493915E+02 0.  0.
    5000000    2    1    2    0    0  0.36710327594E+03  0.32735022457E+03  0.20406998372E+04  0.21832156415E+04  0.60004310453E+03 0.  0.
         23    2    4    4    0    0  0.64969503611E+02  0.54079875966E+02  0.14848144684E+04  0.14894718164E+04  0.81893938183E+02 0.  0.
         23    2    4    4    0    0  0.30213377233E+03  0.27327034860E+03  0.55588536880E+03  0.69374382510E+03  0.79438352245E+02 0.  0.
          5    1    3    3  502    0 -0.15818178539E+03 -0.14347909284E+03  0.24646738742E+03  0.32615332342E+03  0.47000000000E+01 0. -1.
         -5    1    3    3    0  502 -0.20892149055E+03 -0.18387113172E+03  0.50729486392E+03  0.57864233448E+03  0.47000000000E+01 0.  1.
         11    1    5    5    0    0  0.77607135859E+02  0.18889582911E+02  0.94993661359E+03  0.95328865183E+03  0.00000000000E+00 0. -1.
        -11    1    5    5    0    0 -0.12637632248E+02  0.35190293055E+02  0.53487785477E+03  0.53618316460E+03  0.00000000000E+00 0.  1.
          4    1    6    6  503    0  0.80757086598E+01  0.33536974981E+02  0.33186548354E+02  0.47867449827E+02  0.00000000000E+00 0. -1.
         -4    1    6    6    0  503  0.29405806367E+03  0.23973337362E+03  0.52269882045E+03  0.64587637527E+03  0.00000000000E+00 0.  1.
<mgrwt>
<rscale>  0 0.51155904E+03</rscale>
<asrwt>0</asrwt>
<pdfrwt beam="1">  1        1 0.45249791E+00 0.51155904E+03</pdfrwt>
<pdfrwt beam="2">  1       -1 0.22580711E-01 0.51155904E+03</pdfrwt>
<totfact> 0.12212541E+01</totfact>
</mgrwt>
</event>
<event>
12    1  0.3203156E-008  0.8434999E+03  0.7818608E-02  0.9499103E-01
          2   -1    0    0  501    0  0.00000000000E+00  0.00000000000E+00  0.10865514292E+04  0.10865514292E+04  0.00000000000E+00 0. -1.
         -2   -1    0    0    0  501 -0.00000000000E+00 -0.00000000000E+00 -0.80148947278E+03  0.80148947278E+03  0.00000000000E+00 0.  1.
         23    2    1    2    0    0 -0.81217523904E+03 -0.18663377668E+03  0.16124736267E+03  0.85372970839E+03  0.91612867578E+02 0.  0.
    5000000    2    1    2    0    0  0.81217523904E+03  0.18663377668E+03  0.12381459374E+03  0.10343111936E+04  0.60000733830E+03 0.  0.
         23    2    4    4    0    0  0.38767412748E+03  0.33318974235E+02 -0.22256666988E+03  0.45756970166E+03  0.91829876269E+02 0.  0.
         23    2    4    4    0    0  0.42450111156E+03  0.15331480245E+03  0.34638126362E+03  0.57674149191E+03  0.94573497013E+02 0.  0.
          5    1    3    3  502    0 -0.34187681997E+03 -0.97536552278E+02  0.26992056476E+02  0.35657229306E+03  0.47000000000E+01 0. -1.
         -5    1    3    3    0  502 -0.47029841907E+03 -0.89097224404E+02  0.13425530619E+03  0.49715741533E+03  0.47000000000E+01 0.  1.
         13    1    5    5    0    0  0.76445092773E+02  0.28830416139E+02 -0.82951935703E+02  0.11643053182E+03  0.00000000000E+00 0.  1.
        -13    1    5    5    0    0  0.31122903471E+03  0.44885580957E+01 -0.13961473418E+03  0.34113916984E+03  0.00000000000E+00 0. -1.
          3    1    6    6  503    0  0.34418408697E+03  0.85402686366E+02  0.24813056999E+03  0.43281067954E+03  0.00000000000E+00 0. -1.
         -3    1    6    6    0  503  0.80317024590E+02  0.67912116081E+02  0.98250693638E+02  0.14393081237E+03  0.00000000000E+00 0.  1.
<mgrwt>
<rscale>  0 0.84349994E+03</rscale>
<asrwt>0</asrwt>
<pdfrwt beam="1">  1        2 0.16716176E+00 0.84349994E+03</pdfrwt>
<pdfrwt beam="2">  1       -2 0.12330607E+00 0.84349994E+03</pdfrwt>
<totfact> 0.11102249E+01</totfact>
</mgrwt>
</event>
<event>
12    1  0.3203156E-008  0.5917032E+03  0.7818608E-02  0.9922770E-01
         -1   -1    0    0    0  501 -0.00000000000E+00  0.00000000000E+00  0.29416038764E+03  0.29416038764E+03  0.00000000000E+00 0.  1.
          1   -1    0    0  501    0  0.00000000000E+00 -0.00000000000E+00 -0.18569357647E+04  0.18569357647E+04  0.00000000000E+00 0. -1.
         23    2    1    2    0    0  0.63339681405E+02 -0.44292448537E+03 -0.41623968877E+02  0.45578589876E+03  0.76251004868E+02 0.  0.
    5000000    2    1    2    0    0 -0.63339681405E+02  0.44292448537E+03 -0.15211514082E+04  0.16953102536E+04  0.59998436172E+03 0.  0.
         23    2    4    4    0    0 -0.31645716987E+03  0.25535279667E+03 -0.73303771590E+03  0.84271519054E+03  0.86454660436E+02 0.  0.
         23    2    4    4    0    0  0.25311748847E+03  0.18757168870E+03 -0.78811369228E+03  0.85259506304E+03  0.80892201021E+02 0.  0.
          5    1    3    3  502    0 -0.10355997521E+02 -0.57649180182E+02 -0.22855694901E+02  0.63048770406E+02  0.47000000000E+01 0.  1.
         -5    1    3    3    0  502  0.73695678927E+02 -0.38527530519E+03 -0.18768273976E+02  0.39273712835E+03  0.47000000000E+01 0. -1.
         13    1    5    5    0    0 -0.12713718005E+03  0.15465763735E+03 -0.32365161748E+03  0.38056959527E+03  0.00000000000E+00 0.  1.
        -13    1    5    5    0    0 -0.18931998982E+03  0.10069515931E+03 -0.40938609842E+03  0.46214559528E+03  0.00000000000E+00 0. -1.
          3    1    6    6  503    0  0.15899880692E+03  0.92547995069E+02 -0.54368220567E+03  0.57396523654E+03  0.00000000000E+00 0. -1.
         -3    1    6    6    0  503  0.94118681545E+02  0.95023693635E+02 -0.24443148661E+03  0.27862982649E+03  0.00000000000E+00 0.  1.
<mgrwt>
<rscale>  0 0.59170317E+03</rscale>
<asrwt>0</asrwt>
<pdfrwt beam="1">  1        1 0.28568242E+00 0.59170317E+03</pdfrwt>
<pdfrwt beam="2">  1       -1 0.45255446E-01 0.59170317E+03</pdfrwt>
<totfact> 0.19246663E+01</totfact>
</mgrwt>
</event>
<event>
12    1  0.3203156E-008  0.7019820E+03  0.7818608E-02  0.9713849E-01
         -2   -1    0    0    0  501 -0.00000000000E+00  0.00000000000E+00  0.39160534836E+03  0.39160534836E+03  0.00000000000E+00 0.  1.
          2   -1    0    0  501    0  0.00000000000E+00 -0.00000000000E+00 -0.14039966646E+04  0.14039966646E+04  0.00000000000E+00 0. -1.
         23    2    1    2    0    0 -0.53103735640E+03 -0.23098775695E+03 -0.16472042661E+03  0.60651520758E+03  0.73292975998E+02 0.  0.
    5000000    2    1    2    0    0  0.53103735640E+03  0.23098775695E+03 -0.84767088960E+03  0.11890868053E+04  0.60002122946E+03 0.  0.
         23    2    4    4    0    0  0.28716642194E+03 -0.17374939135E+03 -0.41788885664E+03  0.54374549476E+03  0.91513177669E+02 0.  0.
         23    2    4    4    0    0  0.24387093446E+03  0.40473714830E+03 -0.42978203296E+03  0.64534131058E+03  0.92019668506E+02 0.  0.
          5    1    3    3  502    0 -0.13349707284E+03 -0.65020713075E+02 -0.10538203796E+02  0.14893725298E+03  0.47000000000E+01 0. -1.
         -5    1    3    3    0  502 -0.39754028357E+03 -0.16596704388E+03 -0.15418222282E+03  0.45757795461E+03  0.47000000000E+01 0.  1.
         13    1    5    5    0    0  0.11067339807E+03 -0.24878439931E+02 -0.17564172355E+03  0.20908742876E+03  0.00000000000E+00 0.  1.
        -13    1    5    5    0    0  0.17649302387E+03 -0.14887095142E+03 -0.24224713309E+03  0.33465806600E+03  0.00000000000E+00 0. -1.
          1    1    6    6  503    0  0.50195389996E+01  0.63656961590E+02 -0.42679818817E+02  0.76804761993E+02  0.00000000000E+00 0. -1.
         -1    1    6    6    0  503  0.23885139546E+03  0.34108018671E+03 -0.38710221414E+03  0.56853654858E+03  0.00000000000E+00 0.  1.
<mgrwt>
<rscale>  0 0.70198195E+03</rscale>
<asrwt>0</asrwt>
<pdfrwt beam="1">  1        2 0.21599949E+00 0.70198195E+03</pdfrwt>
<pdfrwt beam="2">  1       -2 0.60246977E-01 0.70198195E+03</pdfrwt>
<totfact> 0.37941967E+01</totfact>
</mgrwt>
</event>
<event>
12    1  0.3203156E-008  0.3420241E+03  0.7818608E-02  0.1065937E+00
          2   -1    0    0  501    0  0.00000000000E+00  0.00000000000E+00  0.41040801533E+03  0.41040801533E+03  0.00000000000E+00 0. -1.
         -2   -1    0    0    0  501 -0.00000000000E+00 -0.00000000000E+00 -0.34349215826E+03  0.34349215826E+03  0.00000000000E+00 0.  1.
         23    2    1    2    0    0 -0.10699163772E+03  0.66992170687E+01  0.15219046297E+02  0.14216247901E+03  0.92121989875E+02 0.  0.
    5000000    2    1    2    0    0  0.10699163772E+03 -0.66992170687E+01  0.51696810773E+02  0.61173769458E+03  0.60004862859E+03 0.  0.
         23    2    4    4    0    0 -0.18181869819E+03 -0.13218743746E+03 -0.80469868150E+02  0.25751843992E+03  0.96482068713E+02 0.  0.
         23    2    4    4    0    0  0.28881033591E+03  0.12548822039E+03  0.13216667892E+03  0.35421925466E+03  0.94045445252E+02 0.  0.
          5    1    3    3  502    0 -0.94759910559E+02  0.36351007786E+02 -0.85548641029E+01  0.10196132657E+03  0.47000000000E+01 0. -1.
         -5    1    3    3    0  502 -0.12231727156E+02 -0.29651790718E+02  0.23773910400E+02  0.40201152442E+02  0.47000000000E+01 0.  1.
         13    1    5    5    0    0 -0.11815625678E+03 -0.10119256070E+03 -0.98913034130E+02  0.18434918953E+03  0.00000000000E+00 0. -1.
        -13    1    5    5    0    0 -0.63662441407E+02 -0.30994876755E+02  0.18443165980E+02  0.73169250388E+02  0.00000000000E+00 0.  1.
          1    1    6    6  503    0  0.63361945224E+02  0.63804335226E+02  0.99761170760E+01  0.90472383676E+02  0.00000000000E+00 0. -1.
         -1    1    6    6    0  503  0.22544839068E+03  0.61683885165E+02  0.12219056185E+03  0.26374687099E+03  0.00000000000E+00 0.  1.
<mgrwt>
<rscale>  0 0.34202405E+03</rscale>
<asrwt>0</asrwt>
<pdfrwt beam="1">  1        2 0.63139695E-01 0.34202405E+03</pdfrwt>
<pdfrwt beam="2">  1       -2 0.52844947E-01 0.34202405E+03</pdfrwt>
<totfact> 0.26746741E+02</totfact>
</mgrwt>
</event>
<event>
12    1  0.3203156E-008  0.3825917E+03  0.7818608E-02  0.1049980E+00
          1   -1    0    0  501    0  0.00000000000E+00  0.00000000000E+00  0.89294654542E+03  0.89294654542E+03  0.00000000000E+00 0. -1.
         -1   -1    0    0    0  501 -0.00000000000E+00 -0.00000000000E+00 -0.28640628245E+03  0.28640628245E+03  0.00000000000E+00 0.  1.
         23    2    1    2    0    0 -0.16960373434E+03 -0.54233734965E+02  0.50817933174E+03  0.54597732558E+03  0.90212427760E+02 0.  0.
    5000000    2    1    2    0    0  0.16960373434E+03  0.54233734965E+02  0.98360931227E+02  0.63337550229E+03  0.59981908055E+03 0.  0.
         23    2    4    4    0    0  0.22215117844E+03  0.25307036441E+03 -0.68137404595E+02  0.35485418750E+03  0.88786446327E+02 0.  0.
         23    2    4    4    0    0 -0.52547444097E+02 -0.19883662945E+03  0.16649833582E+03  0.27852131479E+03  0.86920583697E+02 0.  0.
          5    1    3    3  502    0 -0.12255989025E+03  0.51527960317E+01  0.33925225986E+03  0.36077924528E+03  0.47000000000E+01 0. -1.
         -5    1    3    3    0  502 -0.47043844099E+02 -0.59386530996E+02  0.16892707188E+03  0.18519808030E+03  0.47000000000E+01 0.  1.
         11    1    5    5    0    0  0.13644964091E+03  0.89509643285E+02 -0.23389019308E+02  0.16485607957E+03  0.00000000000E+00 0.  1.
        -11    1    5    5    0    0  0.85701537530E+02  0.16356072113E+03 -0.44748385287E+02  0.18999810793E+03  0.00000000000E+00 0. -1.
          1    1    6    6  503    0 -0.71110832860E+02 -0.14072904866E+03  0.93199848903E+02  0.18316011444E+03  0.00000000000E+00 0. -1.
         -1    1    6    6    0  503  0.18563388762E+02 -0.58107580785E+02  0.73298486919E+02  0.95361200347E+02  0.00000000000E+00 0.  1.
<mgrwt>
<rscale>  0 0.38259172E+03</rscale>
<asrwt>0</asrwt>
<pdfrwt beam="1">  1        1 0.13737639E+00 0.38259172E+03</pdfrwt>
<pdfrwt beam="2">  1       -1 0.44062505E-01 0.38259172E+03</pdfrwt>
<totfact> 0.99608292E+01</totfact>
</mgrwt>
</event>
<event>
12    1  0.3203156E-008  0.8176014E+03  0.7818608E-02  0.9534884E-01
         -3   -1    0    0    0  501 -0.00000000000E+00  0.00000000000E+00  0.99121475531E+03  0.99121475531E+03  0.00000000000E+00 0.  1.
          3   -1    0    0  501    0  0.00000000000E+00 -0.00000000000E+00 -0.70377808512E+03  0.70377808512E+03  0.00000000000E+00 0. -1.
         23    2    1    2    0    0 -0.50152612509E+03  0.50653211704E+03  0.25732028030E+03  0.76284313410E+03  0.87250678229E+02 0.  0.
    5000000    2    1    2    0    0  0.50152612509E+03 -0.50653211704E+03  0.30116389895E+02  0.93214970632E+03  0.59991069195E+03 0.  0.
         23    2    4    4    0    0  0.19423280173E+03 -0.56569902185E+03  0.43282018883E+02  0.60634370112E+03  0.89652585799E+02 0.  0.
         23    2    4    4    0    0  0.30729332336E+03  0.59166904808E+02 -0.13165628988E+02  0.32580600520E+03  0.89701226475E+02 0.  0.
          5    1    3    3  502    0 -0.44704197272E+03  0.42068807102E+03  0.24225798096E+03  0.65995151171E+03  0.47000000000E+01 0. -1.
         -5    1    3    3    0  502 -0.54484152375E+02  0.85844046022E+02  0.15062299338E+02  0.10289162239E+03  0.47000000000E+01 0.  1.
         13    1    5    5    0    0  0.16849941240E+03 -0.39966588159E+03  0.37941167587E+01  0.43375023252E+03  0.00000000000E+00 0. -1.
        -13    1    5    5    0    0  0.25733389334E+02 -0.16603314026E+03  0.39487902124E+02  0.17259346860E+03  0.00000000000E+00 0.  1.
          3    1    6    6  503    0  0.13704836271E+03 -0.15109103268E+01 -0.40731054609E+02  0.14298096160E+03  0.00000000000E+00 0. -1.
         -3    1    6    6    0  503  0.17024496065E+03  0.60677815135E+02  0.27565425621E+02  0.18282504360E+03  0.00000000000E+00 0.  1.
<mgrwt>
<rscale>  0 0.81760136E+03</rscale>
<asrwt>0</asrwt>
<pdfrwt beam="1">  1        3 0.10827355E+00 0.81760136E+03</pdfrwt>
<pdfrwt beam="2">  1       -3 0.15249458E+00 0.81760136E+03</pdfrwt>
<totfact> 0.57835959E-01</totfact>
</mgrwt>
</event>
<event>
12    1  0.3203156E-008  0.1107450E+04  0.7818608E-02  0.9197961E-01
         -2   -1    0    0    0  501 -0.00000000000E+00  0.00000000000E+00  0.10316602502E+04  0.10316602502E+04  0.00000000000E+00 0.  1.
          2   -1    0    0  501    0  0.00000000000E+00 -0.00000000000E+00 -0.12634762323E+04  0.12634762323E+04  0.00000000000E+00 0. -1.
         23    2    1    2    0    0 -0.95632250105E+03  0.45902429083E+03 -0.10609872857E+03  0.10699159986E+04  0.90594030237E+02 0.  0.
    5000000    2    1    2    0    0  0.95632250105E+03 -0.45902429083E+03 -0.12571725357E+03  0.12252204838E+04  0.60008697750E+03 0.  0.
         23    2    4    4    0    0  0.33709314055E+03 -0.39847632360E+03 -0.24540167894E+03  0.58508020009E+03  0.98395582366E+02 0.  0.
         23    2    4    4    0    0  0.61922936050E+03 -0.60547967229E+02  0.11968442537E+03  0.64014028375E+03  0.91346395408E+02 0.  0.
          5    1    3    3  502    0 -0.54368964016E+03  0.28479307511E+03 -0.22131002074E+02  0.61418025995E+03  0.47000000000E+01 0. -1.
         -5    1    3    3    0  502 -0.41263286089E+03  0.17423121572E+03 -0.83967726495E+02  0.45573573868E+03  0.47000000000E+01 0.  1.
         11    1    5    5    0    0  0.14790011611E+03 -0.13663707525E+03 -0.49745804124E+02  0.20740969048E+03  0.00000000000E+00 0.  1.
        -11    1    5    5    0    0  0.18919302444E+03 -0.26183924835E+03 -0.19565587482E+03  0.37767050961E+03  0.00000000000E+00 0. -1.
          4    1    6    6  503    0  0.20572220229E+03  0.22754019457E+02  0.35204637547E+02  0.20994936632E+03  0.00000000000E+00 0. -1.
         -4    1    6    6    0  503  0.41350715822E+03 -0.83301986685E+02  0.84479787822E+02  0.43019091742E+03  0.00000000000E+00 0.  1.
<mgrwt>
<rscale>  0 0.11074501E+04</rscale>
<asrwt>0</asrwt>
<pdfrwt beam="1">  1        2 0.19438096E+00 0.11074501E+04</pdfrwt>
<pdfrwt beam="2">  1       -2 0.15871696E+00 0.11074501E+04</pdfrwt>
<totfact> 0.43844694E+00</totfact>
</mgrwt>
</event>
<event>
12    1  0.3203156E-008  0.2265042E+04  0.7818608E-02  0.8491834E-01
         -2   -1    0    0    0  501 -0.00000000000E+00  0.00000000000E+00  0.24776110552E+04  0.24776110552E+04  0.00000000000E+00 0.  1.
          2   -1    0    0  501    0  0.00000000000E+00 -0.00000000000E+00 -0.22587650724E+04  0.22587650724E+04  0.00000000000E+00 0. -1.
         23    2    1    2    0    0  0.78914563729E+03  0.21058782204E+04 -0.48967764723E+03  0.23033586535E+04  0.90570261926E+02 0.  0.
    5000000    2    1    2    0    0 -0.78914563729E+03 -0.21058782204E+04  0.70852363006E+03  0.24330174740E+04  0.60007864362E+03 0.  0.
         23    2    4    4    0    0 -0.32057620556E+03 -0.13493787309E+04  0.65581174021E+03  0.15369368757E+04  0.92162130688E+02 0.  0.
         23    2    4    4    0    0 -0.46856943173E+03 -0.75649948955E+03  0.52711889853E+02  0.89608059836E+03  0.91285844355E+02 0.  0.
          5    1    3    3  502    0  0.22216033977E+03  0.65023133095E+03 -0.18679306589E+03  0.71208829494E+03  0.47000000000E+01 0. -1.
         -5    1    3    3    0  502  0.56698529752E+03  0.14556468895E+04 -0.30288458133E+03  0.15912703586E+04  0.47000000000E+01 0.  1.
         13    1    5    5    0    0 -0.16983282778E+03 -0.70958167174E+03  0.39579149345E+03  0.83006038609E+03  0.00000000000E+00 0. -1.
        -13    1    5    5    0    0 -0.15074337778E+03 -0.63979705914E+03  0.26002024676E+03  0.70687648960E+03  0.00000000000E+00 0.  1.
          3    1    6    6  503    0 -0.40994637969E+03 -0.59981388250E+03  0.56794598183E+02  0.72873750709E+03  0.00000000000E+00 0. -1.
         -3    1    6    6    0  503 -0.58623052043E+02 -0.15668560705E+03 -0.40827083296E+01  0.16734309126E+03  0.00000000000E+00 0.  1.
<mgrwt>
<rscale>  0 0.22650417E+04</rscale>
<asrwt>0</asrwt>
<pdfrwt beam="1">  1        2 0.34750232E+00 0.22650417E+04</pdfrwt>
<pdfrwt beam="2">  1       -2 0.38117093E+00 0.22650417E+04</pdfrwt>
<totfact> 0.40576630E-02</totfact>
</mgrwt>
</event>
<event>
12    1  0.3203156E-008  0.9275657E+03  0.7818608E-02  0.9391764E-01
          2   -1    0    0  501    0  0.00000000000E+00  0.00000000000E+00  0.53738009457E+03  0.53738009457E+03  0.00000000000E+00 0. -1.
         -2   -1    0    0    0  501 -0.00000000000E+00 -0.00000000000E+00 -0.17447406537E+04  0.17447406537E+04  0.00000000000E+00 0.  1.
         23    2    1    2    0    0 -0.46420292993E+03  0.72011369300E+03 -0.34948948978E+03  0.92937159524E+03  0.86836441539E+02 0.  0.
    5000000    2    1    2    0    0  0.46420292993E+03 -0.72011369300E+03 -0.85787106934E+03  0.13527491530E+04  0.59994950487E+03 0.  0.
         23    2    4    4    0    0  0.20984801916E+03  0.20766738662E+02 -0.75721290297E+02  0.24210463950E+03  0.91725100608E+02 0.  0.
         23    2    4    4    0    0  0.25435491077E+03 -0.74088043166E+03 -0.78214977904E+03  0.11106445135E+04  0.90403118973E+02 0.  0.
          5    1    3    3  502    0 -0.36839595251E+03  0.62097490730E+03 -0.27536305175E+03  0.77276924990E+03  0.47000000000E+01 0. -1.
         -5    1    3    3    0  502 -0.95806977418E+02  0.99138785697E+02 -0.74126438028E+02  0.15660234534E+03  0.47000000000E+01 0.  1.
         13    1    5    5    0    0  0.13840226690E+03  0.12180279592E+02 -0.94137528284E+02  0.16782556696E+03  0.00000000000E+00 0. -1.
        -13    1    5    5    0    0  0.71445752259E+02  0.85864590698E+01  0.18416237987E+02  0.74279072536E+02  0.00000000000E+00 0.  1.
          1    1    6    6  503    0  0.18362113281E+03 -0.47935487974E+03 -0.56564405385E+03  0.76383965385E+03  0.00000000000E+00 0. -1.
         -1    1    6    6    0  503  0.70733777960E+02 -0.26152555191E+03 -0.21650572520E+03  0.34680485967E+03  0.00000000000E+00 0.  1.
<mgrwt>
<rscale>  0 0.92756570E+03</rscale>
<asrwt>0</asrwt>
<pdfrwt beam="1">  1        2 0.82673861E-01 0.92756570E+03</pdfrwt>
<pdfrwt beam="2">  1       -2 0.26842164E+00 0.92756570E+03</pdfrwt>
<totfact> 0.28328124E+00</totfact>
</mgrwt>
</event>
<event>
12    1  0.3203156E-008  0.5778022E+03  0.7818608E-02  0.9952560E-01
          2   -1    0    0  501    0  0.00000000000E+00  0.00000000000E+00  0.95275420587E+03  0.95275420587E+03  0.00000000000E+00 0. -1.
         -2   -1    0    0    0  501 -0.00000000000E+00 -0.00000000000E+00 -0.44895348002E+03  0.44895348002E+03  0.00000000000E+00 0.  1.
         23    2    1    2    0    0  0.30574821660E+03 -0.40661723178E+03  0.14492896414E+03  0.53711683005E+03  0.93115730863E+02 0.  0.
    5000000    2    1    2    0    0 -0.30574821660E+03  0.40661723178E+03  0.35887176171E+03  0.86459085585E+03  0.59992404647E+03 0.  0.
         23    2    4    4    0    0  0.74110567723E+02  0.54347521213E+02  0.31046457285E+03  0.33789364304E+03  0.96632467123E+02 0.  0.
         23    2    4    4    0    0 -0.37985878433E+03  0.35226971057E+03  0.48407188859E+02  0.52669721281E+03  0.81731591401E+02 0.  0.
          5    1    3    3  502    0  0.14255146823E+03 -0.15212642394E+03  0.18369294272E+02  0.20933917676E+03  0.47000000000E+01 0. -1.
         -5    1    3    3    0  502  0.16319674837E+03 -0.25449080784E+03  0.12655966987E+03  0.32777765328E+03  0.47000000000E+01 0.  1.
         11    1    5    5    0    0  0.43525525906E+02 -0.13831242520E+02  0.53789613238E+02  0.70562717970E+02  0.00000000000E+00 0. -1.
        -11    1    5    5    0    0  0.30585041817E+02  0.68178763733E+02  0.25667495962E+03  0.26733092507E+03  0.00000000000E+00 0.  1.
          2    1    6    6  503    0 -0.12378842817E+03  0.66187268248E+02  0.74063191144E+01  0.14056736104E+03  0.00000000000E+00 0. -1.
         -2    1    6    6    0  503 -0.25607035615E+03  0.28608244232E+03  0.41000869744E+02  0.38612985176E+03  0.00000000000E+00 0.  1.
<mgrwt>
<rscale>  0 0.57780224E+03</rscale>
<asrwt>0</asrwt>
<pdfrwt beam="1">  1        2 0.14657757E+00 0.57780224E+03</pdfrwt>
<pdfrwt beam="2">  1       -2 0.69069766E-01 0.57780224E+03</pdfrwt>
<totfact> 0.53391896E+01</totfact>
</mgrwt>
</event>
<event>
12    1  0.3203156E-008  0.7417129E+03  0.7818608E-02  0.9648442E-01
          1   -1    0    0  501    0  0.00000000000E+00  0.00000000000E+00  0.15087774469E+04  0.15087774469E+04  0.00000000000E+00 0. -1.
         -1   -1    0    0    0  501 -0.00000000000E+00 -0.00000000000E+00 -0.37953612392E+03  0.37953612392E+03  0.00000000000E+00 0.  1.
         23    2    1    2    0    0 -0.61728392550E+03 -0.96612031348E+02  0.34315330566E+03  0.71859241093E+03  0.90815926850E+02 0.  0.
    5000000    2    1    2    0    0  0.61728392550E+03  0.96612031348E+02  0.78608801728E+03  0.11697211598E+04  0.59994990758E+03 0.  0.
         23    2    4    4    0    0  0.19756282239E+03  0.31582612130E+03  0.33194532796E+03  0.50728504987E+03  0.91505264241E+02 0.  0.
         23    2    4    4    0    0  0.41972110312E+03 -0.21921408995E+03  0.45414268932E+03  0.66243610998E+03  0.91407854747E+02 0.  0.
          5    1    3    3  502    0 -0.36995019654E+03 -0.51150928390E+02  0.25424130335E+03  0.45181887491E+03  0.47000000000E+01 0. -1.
         -5    1    3    3    0  502 -0.24733372896E+03 -0.45461102958E+02  0.88912002317E+02  0.26677353602E+03  0.47000000000E+01 0.  1.
         13    1    5    5    0    0  0.17718548016E+03  0.21693635142E+03  0.26870508286E+03  0.38814751900E+03  0.00000000000E+00 0. -1.
        -13    1    5    5    0    0  0.20377342222E+02  0.98889769874E+02  0.63240245098E+02  0.11913753087E+03  0.00000000000E+00 0.  1.
          2    1    6    6  503    0  0.13767505375E+03 -0.40776129928E+02  0.18182831892E+03  0.23168653556E+03  0.00000000000E+00 0. -1.
         -2    1    6    6    0  503  0.28204604937E+03 -0.17843796002E+03  0.27231437040E+03  0.43074957442E+03  0.00000000000E+00 0.  1.
<mgrwt>
<rscale>  0 0.74171290E+03</rscale>
<asrwt>0</asrwt>
<pdfrwt beam="1">  1        1 0.23211960E+00 0.74171290E+03</pdfrwt>
<pdfrwt beam="2">  1       -1 0.58390174E-01 0.74171290E+03</pdfrwt>
<totfact> 0.19859432E+01</totfact>
</mgrwt>
</event>
<event>
12    1  0.3203156E-008  0.1123233E+04  0.7818608E-02  0.9182839E-01
          1   -1    0    0  501    0  0.00000000000E+00  0.00000000000E+00  0.33538544060E+04  0.33538544060E+04  0.00000000000E+00 0. -1.
         -1   -1    0    0    0  501 -0.00000000000E+00 -0.00000000000E+00 -0.92276173181E+03  0.92276173181E+03  0.00000000000E+00 0.  1.
         23    2    1    2    0    0 -0.67976747193E+03  0.84492579175E+03  0.27830555717E+04  0.29882813977E+04  0.91891168568E+02 0.  0.
    5000000    2    1    2    0    0  0.67976747193E+03 -0.84492579175E+03 -0.35196289750E+03  0.12883347402E+04  0.59995425834E+03 0.  0.
         23    2    4    4    0    0  0.57282273050E+03 -0.85399954663E+03 -0.15075517896E+03  0.10428484326E+04  0.85817382678E+02 0.  0.
         23    2    4    4    0    0  0.10694474143E+03  0.90737548772E+01 -0.20120771854E+03  0.24548630759E+03  0.90881628879E+02 0.  0.
          5    1    3    3  502    0 -0.29851387010E+03  0.39056582926E+03  0.11417859791E+04  0.12431208749E+04  0.47000000000E+01 0. -1.
         -5    1    3    3    0  502 -0.38125360183E+03  0.45435996249E+03  0.16412695926E+04  0.17451605227E+04  0.47000000000E+01 0.  1.
         13    1    5    5    0    0  0.21075316712E+02 -0.35524041178E+02  0.10656767373E+02  0.42657861725E+02  0.00000000000E+00 0. -1.
        -13    1    5    5    0    0  0.55174741379E+03 -0.81847550545E+03 -0.16141194633E+03  0.10001905709E+04  0.00000000000E+00 0.  1.
          4    1    6    6  503    0  0.10484293830E+03  0.32536600321E+02 -0.12822848102E+03  0.16879933477E+03  0.00000000000E+00 0. -1.
         -4    1    6    6    0  503  0.21018031314E+01 -0.23462845444E+02 -0.72979237518E+02  0.76686972827E+02  0.00000000000E+00 0.  1.
<mgrwt>
<rscale>  0 0.11232326E+04</rscale>
<asrwt>0</asrwt>
<pdfrwt beam="1">  1        1 0.51597760E+00 0.11232326E+04</pdfrwt>
<pdfrwt beam="2">  1       -1 0.14196334E+00 0.11232326E+04</pdfrwt>
<totfact> 0.13280894E-01</totfact>
</mgrwt>
</event>
<event>
12    1  0.3203156E-008  0.1654840E+04  0.7818608E-02  0.8787549E-01
          1   -1    0    0  501    0  0.00000000000E+00  0.00000000000E+00  0.10379093501E+04  0.10379093501E+04  0.00000000000E+00 0. -1.
         -1   -1    0    0    0  501 -0.00000000000E+00 -0.00000000000E+00 -0.27707092632E+04  0.27707092632E+04  0.00000000000E+00 0.  1.
         23    2    1    2    0    0 -0.73185033850E+03  0.14612631353E+04 -0.66899173625E+03  0.17683615158E+04  0.93046434050E+02 0.  0.
    5000000    2    1    2    0    0  0.73185033850E+03 -0.14612631353E+04 -0.10638081768E+04  0.20402570976E+04  0.60005526288E+03 0.  0.
         23    2    4    4    0    0  0.48434290509E+03 -0.12283015594E+04 -0.10467897615E+04  0.16875029054E+04  0.92652470566E+02 0.  0.
         23    2    4    4    0    0  0.24750743341E+03 -0.23296157590E+03 -0.17018415349E+02  0.35275419221E+03  0.92816314400E+02 0.  0.
          5    1    3    3  502    0 -0.38816192451E+03  0.67872119576E+03 -0.30160999013E+03  0.83804702574E+03  0.47000000000E+01 0. -1.
         -5    1    3    3    0  502 -0.34368841399E+03  0.78254193953E+03 -0.36738174611E+03  0.93031449005E+03  0.47000000000E+01 0.  1.
         11    1    5    5    0    0  0.38679633655E+03 -0.10473455135E+04 -0.85374321484E+03  0.14054968899E+04  0.00000000000E+00 0.  1.
        -11    1    5    5    0    0  0.97546568538E+02 -0.18095604584E+03 -0.19304654666E+03  0.28200601543E+03  0.00000000000E+00 0. -1.
          4    1    6    6  503    0  0.87363425997E+02 -0.29738263185E+02  0.89310206548E+01  0.92717288728E+02  0.00000000000E+00 0.  1.
         -4    1    6    6    0  503  0.16014400741E+03 -0.20322331272E+03 -0.25949436003E+02  0.26003690348E+03  0.00000000000E+00 0. -1.
<mgrwt>
<rscale>  0 0.16548397E+04</rscale>
<asrwt>0</asrwt>
<pdfrwt beam="1">  1        1 0.15967837E+00 0.16548397E+04</pdfrwt>
<pdfrwt beam="2">  1       -1 0.42626295E+00 0.16548397E+04</pdfrwt>
<totfact> 0.62375996E-02</totfact>
</mgrwt>
</event>
<event>
12    1  0.3203156E-008  0.7427754E+03  0.7818608E-02  0.9646753E-01
          2   -1    0    0  501    0  0.00000000000E+00  0.00000000000E+00  0.12665520136E+04  0.12665520136E+04  0.00000000000E+00 0. -1.
         -2   -1    0    0    0  501 -0.00000000000E+00 -0.00000000000E+00 -0.46408351888E+03  0.46408351888E+03  0.00000000000E+00 0.  1.
         23    2    1    2    0    0  0.61827233593E+03  0.13072116089E+03  0.19377150547E+03  0.66762307229E+03  0.93938634379E+02 0.  0.
    5000000    2    1    2    0    0 -0.61827233593E+03 -0.13072116089E+03  0.60869698922E+03  0.10630124602E+04  0.60011229158E+03 0.  0.
         23    2    4    4    0    0 -0.34389499325E+03 -0.35591080794E+03  0.39124651265E+03  0.63783316901E+03  0.93920435703E+02 0.  0.
         23    2    4    4    0    0 -0.27437734268E+03  0.22518964705E+03  0.21745047657E+03  0.42517929116E+03  0.86599171754E+02 0.  0.
          5    1    3    3  502    0  0.13160743293E+03  0.79957246135E+01  0.75293412276E+02  0.15190666854E+03  0.47000000000E+01 0. -1.
         -5    1    3    3    0  502  0.48666490301E+03  0.12272543628E+03  0.11847809320E+03  0.51571640375E+03  0.47000000000E+01 0.  1.
         11    1    5    5    0    0 -0.29445582389E+03 -0.28281210972E+03  0.27656327256E+03  0.49312692622E+03  0.00000000000E+00 0.  1.
        -11    1    5    5    0    0 -0.49439169361E+02 -0.73098698219E+02  0.11468324008E+03  0.14470624280E+03  0.00000000000E+00 0. -1.
          1    1    6    6  503    0 -0.24890757283E+03  0.20877847697E+03  0.22343796502E+03  0.39429425112E+03  0.00000000000E+00 0. -1.
         -1    1    6    6    0  503 -0.25469769854E+02  0.16411170086E+02 -0.59874884456E+01  0.30885040034E+02  0.00000000000E+00 0.  1.
<mgrwt>
<rscale>  0 0.74277543E+03</rscale>
<asrwt>0</asrwt>
<pdfrwt beam="1">  1        2 0.19485416E+00 0.74277543E+03</pdfrwt>
<pdfrwt beam="2">  1       -2 0.71397465E-01 0.74277543E+03</pdfrwt>
<totfact> 0.31412450E+01</totfact>
</mgrwt>
</event>
<event>
12    1  0.3203156E-008  0.1892739E+03  0.7818608E-02  0.1159118E+00
         -2   -1    0    0    0  501 -0.00000000000E+00  0.00000000000E+00  0.12342333335E+03  0.12342333335E+03  0.00000000000E+00 0.  1.
          2   -1    0    0  501    0  0.00000000000E+00 -0.00000000000E+00 -0.15086727468E+04  0.15086727468E+04  0.00000000000E+00 0. -1.
         23    2    1    2    0    0  0.87016227490E+02 -0.31025519605E+02 -0.11460502903E+02  0.13010928856E+03  0.90899269136E+02 0.  0.
    5000000    2    1    2    0    0 -0.87016227490E+02  0.31025519605E+02 -0.13737889105E+04  0.15019867916E+04  0.60011161018E+03 0.  0.
         23    2    4    4    0    0 -0.53584756713E+02  0.86949187028E+02 -0.13805403849E+04  0.13872934759E+04  0.90884248888E+02 0.  0.
         23    2    4    4    0    0 -0.33431470777E+02 -0.55923667422E+02  0.67514743573E+01  0.11469331568E+03  0.94148045327E+02 0.  0.
          5    1    3    3  502    0  0.14173529006E+02  0.30133159625E+02 -0.91489390090E+01  0.34852393296E+02  0.47000000000E+01 0. -1.
         -5    1    3    3    0  502  0.72842698484E+02 -0.61158679231E+02 -0.23115638936E+01  0.95256895264E+02  0.47000000000E+01 0.  1.
         11    1    5    5    0    0 -0.36573831398E+02 -0.96491015702E+01 -0.45535939064E+03  0.45692770210E+03  0.00000000000E+00 0.  1.
        -11    1    5    5    0    0 -0.17010925315E+02  0.96598288598E+02 -0.92518099426E+03  0.93036577381E+03  0.00000000000E+00 0. -1.
          4    1    6    6  503    0 -0.16762245036E+02  0.25582893400E+02 -0.38512042380E+01  0.30826758951E+02  0.00000000000E+00 0. -1.
         -4    1    6    6    0  503 -0.16669225741E+02 -0.81506560822E+02  0.10602678595E+02  0.83866556727E+02  0.00000000000E+00 0.  1.
<mgrwt>
<rscale>  0 0.18927390E+03</rscale>
<asrwt>0</asrwt>
<pdfrwt beam="1">  1        2 0.23210351E+00 0.18927390E+03</pdfrwt>
<pdfrwt beam="2">  1       -2 0.18988204E-01 0.18927390E+03</pdfrwt>
<totfact> 0.31744072E+02</totfact>
</mgrwt>
</event>
<event>
12    1  0.3203156E-008  0.8825886E+03  0.7818608E-02  0.9447612E-01
         -1   -1    0    0    0  501 -0.00000000000E+00  0.00000000000E+00  0.15217557062E+04  0.15217557062E+04  0.00000000000E+00 0.  1.
          1   -1    0    0  501    0  0.00000000000E+00 -0.00000000000E+00 -0.55344263408E+03  0.55344263408E+03  0.00000000000E+00 0. -1.
         23    2    1    2    0    0  0.57074591359E+03  0.53991231533E+03  0.18165332882E+03  0.81156983005E+03  0.91604863608E+02 0.  0.
    5000000    2    1    2    0    0 -0.57074591359E+03 -0.53991231533E+03  0.78665974334E+03  0.12636285103E+04  0.60055578762E+03 0.  0.
         23    2    4    4    0    0 -0.65204766663E+03 -0.32953025697E+03  0.66382452708E+03  0.99104741664E+03  0.88066051646E+02 0.  0.
         23    2    4    4    0    0  0.81301753034E+02 -0.21038205836E+03  0.12283521626E+03  0.27258109363E+03  0.91331137762E+02 0.  0.
          5    1    3    3  502    0  0.20196066292E+03  0.13355521261E+03  0.52099955937E+02  0.24771273603E+03  0.47000000000E+01 0. -1.
         -5    1    3    3    0  502  0.36878525068E+03  0.40635710272E+03  0.12955337289E+03  0.56385709402E+03  0.47000000000E+01 0.  1.
         11    1    5    5    0    0 -0.36056867272E+03 -0.20743161261E+03  0.32642670155E+03  0.52876462924E+03  0.00000000000E+00 0. -1.
        -11    1    5    5    0    0 -0.29147899391E+03 -0.12209864437E+03  0.33739782553E+03  0.46228278740E+03  0.00000000000E+00 0.  1.
          2    1    6    6  503    0  0.98871606878E+02 -0.15250226482E+03  0.80669164474E+02  0.19884679912E+03  0.00000000000E+00 0.  1.
         -2    1    6    6    0  503 -0.17569853844E+02 -0.57879793538E+02  0.42166051782E+02  0.73734294511E+02  0.00000000000E+00 0. -1.
<mgrwt>
<rscale>  0 0.88258862E+03</rscale>
<asrwt>0</asrwt>
<pdfrwt beam="1">  1        1 0.85145021E-01 0.88258862E+03</pdfrwt>
<pdfrwt beam="2">  1       -1 0.23411626E+00 0.88258862E+03</pdfrwt>
<totfact> 0.34810875E+00</totfact>
</mgrwt>
</event>
<event>
12    1  0.3203156E-008  0.1053739E+04  0.7818608E-02  0.9251492E-01
          2   -1    0    0  501    0  0.00000000000E+00  0.00000000000E+00  0.18053366800E+04  0.18053366800E+04  0.00000000000E+00 0. -1.
         -2   -1    0    0    0  501 -0.00000000000E+00 -0.00000000000E+00 -0.66271059570E+03  0.66271059570E+03  0.00000000000E+00 0.  1.
         23    2    1    2    0    0 -0.97099998104E+03  0.27034857899E+03  0.58896261228E+03  0.11708651553E+04  0.90105138045E+02 0.  0.
    5000000    2    1    2    0    0  0.97099998104E+03 -0.27034857899E+03  0.55366347202E+03  0.12971821204E+04  0.60017405464E+03 0.  0.
         23    2    4    4    0    0  0.97238812274E+03 -0.27206384790E+03  0.34806548102E+03  0.10720790024E+04  0.92986072784E+02 0.  0.
         23    2    4    4    0    0 -0.13881417043E+01  0.17152689133E+01  0.20559799100E+03  0.22510311798E+03  0.91629748100E+02 0.  0.
          5    1    3    3  502    0 -0.17114987833E+02 -0.30778171403E+01  0.20386154105E+02  0.27204430633E+02  0.47000000000E+01 0. -1.
         -5    1    3    3    0  502 -0.95388499321E+03  0.27342639613E+03  0.56857645818E+03  0.11436607247E+04  0.47000000000E+01 0.  1.
         11    1    5    5    0    0  0.53217522938E+03 -0.18761307421E+03  0.22273857677E+03  0.60664785004E+03  0.00000000000E+00 0. -1.
        -11    1    5    5    0    0  0.44021289337E+03 -0.84450773697E+02  0.12532690425E+03  0.46543115237E+03  0.00000000000E+00 0.  1.
          1    1    6    6  503    0 -0.19337375613E+02 -0.37119483444E+02  0.58641939686E+02  0.72046285379E+02  0.00000000000E+00 0. -1.
         -1    1    6    6    0  503  0.17949233908E+02  0.38834752358E+02  0.14695605131E+03  0.15305683260E+03  0.00000000000E+00 0.  1.
<mgrwt>
<rscale>  0 0.10537393E+04</rscale>
<asrwt>0</asrwt>
<pdfrwt beam="1">  1        2 0.27774410E+00 0.10537393E+04</pdfrwt>
<pdfrwt beam="2">  1       -2 0.10195548E+00 0.10537393E+04</pdfrwt>
<totfact> 0.67064056E+00</totfact>
</mgrwt>
</event>
<event>
12    1  0.3203156E-008  0.7420595E+03  0.7818608E-02  0.9647891E-01
         -1   -1    0    0    0  501 -0.00000000000E+00  0.00000000000E+00  0.50823654275E+03  0.50823654275E+03  0.00000000000E+00 0.  1.
          1   -1    0    0  501    0  0.00000000000E+00 -0.00000000000E+00 -0.14335029253E+04  0.14335029253E+04  0.00000000000E+00 0. -1.
         23    2    1    2    0    0 -0.52905785275E+03 -0.34677259369E+03 -0.85465843380E+03  0.10670722987E+04  0.89715154687E+02 0.  0.
    5000000    2    1    2    0    0  0.52905785275E+03  0.34677259369E+03 -0.70607948783E+02  0.87466716934E+03  0.59991977081E+03 0.  0.
         23    2    4    4    0    0  0.61550584626E+03  0.15353308523E+03 -0.48654511818E+02  0.64305355583E+03  0.93438531180E+02 0.  0.
         23    2    4    4    0    0 -0.86447993508E+02  0.19323950845E+03 -0.21953436965E+02  0.23161361351E+03  0.91368207599E+02 0.  0.
          5    1    3    3  502    0 -0.14586694436E+03 -0.11713619196E+03 -0.19408577884E+03  0.26960977814E+03  0.47000000000E+01 0. -1.
         -5    1    3    3    0  502 -0.38319090840E+03 -0.22963640173E+03 -0.66057265496E+03  0.79746252059E+03  0.47000000000E+01 0.  1.
         11    1    5    5    0    0  0.22538835690E+03  0.91170216596E+02 -0.48822192332E+02  0.24798291531E+03  0.00000000000E+00 0.  1.
        -11    1    5    5    0    0  0.39011748936E+03  0.62362868635E+02  0.16768051407E+00  0.39507064053E+03  0.00000000000E+00 0. -1.
          3    1    6    6  503    0 -0.89153364190E+01  0.30247786429E+02  0.30276437403E+02  0.43715837738E+02  0.00000000000E+00 0. -1.
         -3    1    6    6    0  503 -0.77532657089E+02  0.16299172202E+03 -0.52229874368E+02  0.18789777577E+03  0.00000000000E+00 0.  1.
<mgrwt>
<rscale>  0 0.74205948E+03</rscale>
<asrwt>0</asrwt>
<pdfrwt beam="1">  1        1 0.22053890E+00 0.74205948E+03</pdfrwt>
<pdfrwt beam="2">  1       -1 0.78190240E-01 0.74205948E+03</pdfrwt>
<totfact> 0.12367715E+01</totfact>
</mgrwt>
</event>
<event>
12    1  0.3203156E-008  0.5397241E+03  0.7818608E-02  0.1003901E+00
          2   -1    0    0  501    0  0.00000000000E+00  0.00000000000E+00  0.36503069182E+04  0.36503069182E+04  0.00000000000E+00 0. -1.
         -2   -1    0    0    0  501 -0.00000000000E+00 -0.00000000000E+00 -0.93669227790E+02  0.93669227790E+02  0.00000000000E+00 0.  1.
         23    2    1    2    0    0 -0.29056845335E+03  0.30148196319E+03  0.15432434766E+04  0.16017150685E+04  0.92570688510E+02 0.  0.
    5000000    2    1    2    0    0  0.29056845335E+03 -0.30148196319E+03  0.20133942138E+04  0.21422610775E+04  0.60017069549E+03 0.  0.
         23    2    4    4    0    0  0.21029540639E+02 -0.36382602831E+03  0.15509545835E+04  0.15955380542E+04  0.86428825938E+02 0.  0.
         23    2    4    4    0    0  0.26953891271E+03  0.62344065119E+02  0.46243963037E+03  0.54672302333E+03  0.92291086088E+02 0.  0.
          5    1    3    3  502    0 -0.10892562376E+03  0.13206281189E+03  0.79747538572E+03  0.81565584570E+03  0.47000000000E+01 0. -1.
         -5    1    3    3    0  502 -0.18164282959E+03  0.16941915130E+03  0.74576809084E+03  0.78605922276E+03  0.47000000000E+01 0.  1.
         11    1    5    5    0    0 -0.76598400341E+01 -0.28191747607E+03  0.12921758128E+04  0.13225938408E+04  0.00000000000E+00 0. -1.
        -11    1    5    5    0    0  0.28689380673E+02 -0.81908552245E+02  0.25877877069E+03  0.27294421344E+03  0.00000000000E+00 0.  1.
          1    1    6    6  503    0  0.18956265406E+03  0.85120829066E+02  0.31281638887E+03  0.37554446941E+03  0.00000000000E+00 0. -1.
         -1    1    6    6    0  503  0.79976258649E+02 -0.22776763946E+02  0.14962324150E+03  0.17117855392E+03  0.00000000000E+00 0.  1.
<mgrwt>
<rscale>  0 0.53972414E+03</rscale>
<asrwt>0</asrwt>
<pdfrwt beam="1">  1        2 0.56158557E+00 0.53972414E+03</pdfrwt>
<pdfrwt beam="2">  1       -2 0.14410653E-01 0.53972414E+03</pdfrwt>
<totfact> 0.26910395E+01</totfact>
</mgrwt>
</event>
<event>
12    1  0.3203156E-008  0.9012167E+03  0.7818608E-02  0.9424062E-01
         -2   -1    0    0    0  501 -0.00000000000E+00  0.00000000000E+00  0.95718654149E+03  0.95718654149E+03  0.00000000000E+00 0.  1.
          2   -1    0    0  501    0  0.00000000000E+00 -0.00000000000E+00 -0.22874803119E+04  0.22874803119E+04  0.00000000000E+00 0. -1.
         23    2    1    2    0    0 -0.55345024799E+03  0.69446967098E+03  0.57261963909E+03  0.10606539294E+04  0.92185714898E+02 0.  0.
    5000000    2    1    2    0    0  0.55345024799E+03 -0.69446967098E+03 -0.19029134095E+04  0.21840129240E+04  0.60019805655E+03 0.  0.
         23    2    4    4    0    0  0.48504217683E+03 -0.55063445000E+03 -0.18517634886E+04  0.19938645527E+04  0.89462987531E+02 0.  0.
         23    2    4    4    0    0  0.68408071164E+02 -0.14383522098E+03 -0.51149920900E+02  0.19014837123E+03  0.90398305714E+02 0.  0.
          5    1    3    3  502    0 -0.28917826833E+03  0.29443144213E+03  0.28449806866E+03  0.50127356409E+03  0.47000000000E+01 0. -1.
         -5    1    3    3    0  502 -0.26427197966E+03  0.40003822885E+03  0.28812157043E+03  0.55938036534E+03  0.47000000000E+01 0.  1.
         13    1    5    5    0    0  0.37790358660E+03 -0.43018869292E+03 -0.13371530683E+04  0.14545967690E+04  0.00000000000E+00 0. -1.
        -13    1    5    5    0    0  0.10713859023E+03 -0.12044575708E+03 -0.51461042031E+03  0.53926778376E+03  0.00000000000E+00 0.  1.
          2    1    6    6  503    0  0.71700835833E+02 -0.15176759206E+03 -0.34423575045E+02  0.17134583268E+03  0.00000000000E+00 0. -1.
         -2    1    6    6    0  503 -0.32927646683E+01  0.79323710755E+01 -0.16726345855E+02  0.18802538544E+02  0.00000000000E+00 0.  1.
<mgrwt>
<rscale>  0 0.90121670E+03</rscale>
<asrwt>0</asrwt>
<pdfrwt beam="1">  1        2 0.35192005E+00 0.90121670E+03</pdfrwt>
<pdfrwt beam="2">  1       -2 0.14725947E+00 0.90121670E+03</pdfrwt>
<totfact> 0.14752371E+00</totfact>
</mgrwt>
</event>
<event>
12    1  0.3203156E-008  0.2720186E+04  0.7818608E-02  0.8328485E-01
         -2   -1    0    0    0  501 -0.00000000000E+00  0.00000000000E+00  0.19912838455E+04  0.19912838455E+04  0.00000000000E+00 0.  1.
          2   -1    0    0  501    0  0.00000000000E+00 -0.00000000000E+00 -0.42996992958E+04  0.42996992958E+04  0.00000000000E+00 0. -1.
         23    2    1    2    0    0 -0.20311065849E+04  0.17924014361E+04 -0.22388678861E+04  0.35155670516E+04  0.92657516918E+02 0.  0.
    5000000    2    1    2    0    0  0.20311065849E+04 -0.17924014361E+04 -0.69547564290E+02  0.27754160897E+04  0.60000061633E+03 0.  0.
         23    2    4    4    0    0  0.18159770015E+04 -0.14995497899E+04 -0.22891613663E+03  0.23679722907E+04  0.92022440909E+02 0.  0.
         23    2    4    4    0    0  0.21512958342E+03 -0.29285164618E+03  0.15936857234E+03  0.40744379893E+03  0.92570422398E+02 0.  0.
          5    1    3    3  502    0 -0.13814131433E+04  0.11655043640E+04 -0.14715873769E+04  0.23307282537E+04  0.47000000000E+01 0. -1.
         -5    1    3    3    0  502 -0.64969344165E+03  0.62689707207E+03 -0.76728050920E+03  0.11848387979E+04  0.47000000000E+01 0.  1.
         13    1    5    5    0    0  0.15855622305E+04 -0.13168137572E+04 -0.17017663452E+03  0.20680827219E+04  0.00000000000E+00 0. -1.
        -13    1    5    5    0    0  0.23041477103E+03 -0.18273603276E+03 -0.58739502103E+02  0.29988956882E+03  0.00000000000E+00 0.  1.
          4    1    6    6  503    0  0.22454871496E+03 -0.27763255262E+03  0.15110509031E+03  0.38773019999E+03  0.00000000000E+00 0. -1.
         -4    1    6    6    0  503 -0.94191315453E+01 -0.15219093562E+02  0.82634820228E+01  0.19713598937E+02  0.00000000000E+00 0.  1.
<mgrwt>
<rscale>  0 0.27201861E+04</rscale>
<asrwt>0</asrwt>
<pdfrwt beam="1">  1        2 0.66149219E+00 0.27201861E+04</pdfrwt>
<pdfrwt beam="2">  1       -2 0.30635137E+00 0.27201861E+04</pdfrwt>
<totfact> 0.45183618E-03</totfact>
</mgrwt>
</event>
<event>
12    1  0.3203156E-008  0.5782433E+03  0.7818608E-02  0.9951602E-01
         -1   -1    0    0    0  501 -0.00000000000E+00  0.00000000000E+00  0.22626375502E+03  0.22626375502E+03  0.00000000000E+00 0.  1.
          1   -1    0    0  501    0  0.00000000000E+00 -0.00000000000E+00 -0.16374356270E+04  0.16374356270E+04  0.00000000000E+00 0. -1.
         23    2    1    2    0    0 -0.44396020940E+03  0.25271368265E+02 -0.38698360137E+03  0.59604319862E+03  0.88158251511E+02 0.  0.
    5000000    2    1    2    0    0  0.44396020940E+03 -0.25271368265E+02 -0.10241882706E+04  0.12676561833E+04  0.60020936016E+03 0.  0.
         23    2    4    4    0    0  0.55771324973E+03  0.46512014749E+02 -0.89867337521E+03  0.10626566199E+04  0.91748678787E+02 0.  0.
         23    2    4    4    0    0 -0.11375304033E+03 -0.71783383014E+02 -0.12551489536E+03  0.20499956345E+03  0.90433532491E+02 0.  0.
          5    1    3    3  502    0 -0.23101676776E+03 -0.17471601326E+02 -0.15836578264E+03  0.28067029581E+03  0.47000000000E+01 0. -1.
         -5    1    3    3    0  502 -0.21294344164E+03  0.42742969591E+02 -0.22861781873E+03  0.31537290281E+03  0.47000000000E+01 0.  1.
         13    1    5    5    0    0  0.63513290071E+02 -0.47402899371E+01 -0.16220965410E+03  0.17426525829E+03  0.00000000000E+00 0. -1.
        -13    1    5    5    0    0  0.49419995966E+03  0.51252304686E+02 -0.73646372111E+03  0.88839136160E+03  0.00000000000E+00 0.  1.
          4    1    6    6  503    0 -0.76251676840E+02 -0.13146234201E+02 -0.10864198799E+03  0.13337999569E+03  0.00000000000E+00 0. -1.
         -4    1    6    6    0  503 -0.37501363486E+02 -0.58637148814E+02 -0.16872907371E+02  0.71619567769E+02  0.00000000000E+00 0.  1.
<mgrwt>
<rscale>  0 0.57824329E+03</rscale>
<asrwt>0</asrwt>
<pdfrwt beam="1">  1        1 0.25191317E+00 0.57824329E+03</pdfrwt>
<pdfrwt beam="2">  1       -1 0.34809809E-01 0.57824329E+03</pdfrwt>
<totfact> 0.43447118E+01</totfact>
</mgrwt>
</event>
<event>
12    1  0.3203156E-008  0.5242956E+03  0.7818608E-02  0.1007625E+00
          2   -1    0    0  501    0  0.00000000000E+00  0.00000000000E+00  0.14118440165E+03  0.14118440165E+03  0.00000000000E+00 0. -1.
         -2   -1    0    0    0  501 -0.00000000000E+00 -0.00000000000E+00 -0.22178397091E+04  0.22178397091E+04  0.00000000000E+00 0.  1.
         23    2    1    2    0    0  0.33801603077E+03 -0.16273276601E+03 -0.50935455548E+03  0.63931740725E+03  0.92454820520E+02 0.  0.
    5000000    2    1    2    0    0 -0.33801603077E+03  0.16273276601E+03 -0.15673007520E+04  0.17197067035E+04  0.60018556191E+03 0.  0.
         23    2    4    4    0    0 -0.36158417240E+03  0.32783192334E+03 -0.13100674867E+04  0.14007250585E+04  0.86815817933E+02 0.  0.
         23    2    4    4    0    0  0.23568141624E+02 -0.16509915733E+03 -0.25723326530E+03  0.31898164498E+03  0.88131424609E+02 0.  0.
          5    1    3    3  502    0  0.12889937233E+03 -0.90893602855E+02 -0.27520302211E+03  0.31723097044E+03  0.47000000000E+01 0. -1.
         -5    1    3    3    0  502  0.20911665844E+03 -0.71839163150E+02 -0.23415153337E+03  0.32208643681E+03  0.47000000000E+01 0.  1.
         13    1    5    5    0    0 -0.20233740546E+03  0.15424959383E+03 -0.78590155698E+03  0.82605969525E+03  0.00000000000E+00 0.  1.
        -13    1    5    5    0    0 -0.15924676694E+03  0.17358232951E+03 -0.52416592967E+03  0.57466536325E+03  0.00000000000E+00 0. -1.
          3    1    6    6  503    0 -0.44718414895E+00 -0.15254417723E+03 -0.24639862582E+03  0.28979684054E+03  0.00000000000E+00 0. -1.
         -3    1    6    6    0  503  0.24015325773E+02 -0.12554980102E+02 -0.10834639478E+02  0.29184804436E+02  0.00000000000E+00 0.  1.
<mgrwt>
<rscale>  0 0.52429556E+03</rscale>
<asrwt>0</asrwt>
<pdfrwt beam="1">  1        2 0.21720679E-01 0.52429556E+03</pdfrwt>
<pdfrwt beam="2">  1       -2 0.34120607E+00 0.52429556E+03</pdfrwt>
<totfact> 0.49510564E+00</totfact>
</mgrwt>
</event>
<event>
12    1  0.3203156E-008  0.6689344E+03  0.7818608E-02  0.9771885E-01
          2   -1    0    0  501    0  0.00000000000E+00  0.00000000000E+00  0.18286278696E+04  0.18286278696E+04  0.00000000000E+00 0.  1.
         -2   -1    0    0    0  501 -0.00000000000E+00 -0.00000000000E+00 -0.26927440226E+03  0.26927440226E+03  0.00000000000E+00 0. -1.
         23    2    1    2    0    0  0.50743297961E+03 -0.19323665480E+03  0.89366403901E+03  0.10496206173E+04  0.90771097150E+02 0.  0.
    5000000    2    1    2    0    0 -0.50743297961E+03  0.19323665480E+03  0.66568942830E+03  0.10482816545E+04  0.60076898948E+03 0.  0.
         23    2    4    4    0    0 -0.48351479691E+03 -0.94461632077E+02  0.35456871266E+03  0.61379570771E+03  0.91195614163E+02 0.  0.
         23    2    4    4    0    0 -0.23918182704E+02  0.28769828688E+03  0.31112071564E+03  0.43448594682E+03  0.92949204126E+02 0.  0.
          5    1    3    3  502    0  0.24587621605E+03 -0.13551186388E+03  0.50010245064E+03  0.57353563970E+03  0.47000000000E+01 0. -1.
         -5    1    3    3    0  502  0.26155676356E+03 -0.57724790917E+02  0.39356158837E+03  0.47608497759E+03  0.47000000000E+01 0.  1.
         11    1    5    5    0    0 -0.64592007278E+02 -0.42961111818E+02  0.39225806558E+02  0.86927834627E+02  0.00000000000E+00 0.  1.
        -11    1    5    5    0    0 -0.41892278963E+03 -0.51500520259E+02  0.31534290610E+03  0.52686787308E+03  0.00000000000E+00 0. -1.
          1    1    6    6  503    0 -0.28227696077E+02  0.24277309324E+03  0.30188356962E+03  0.38841893264E+03  0.00000000000E+00 0. -1.
         -1    1    6    6    0  503  0.43095133723E+01  0.44925193635E+02  0.92371460193E+01  0.46067014177E+02  0.00000000000E+00 0.  1.
<mgrwt>
<rscale>  0 0.66893444E+03</rscale>
<asrwt>0</asrwt>
<pdfrwt beam="1">  1        2 0.28132736E+00 0.66893444E+03</pdfrwt>
<pdfrwt beam="2">  1       -2 0.41426832E-01 0.66893444E+03</pdfrwt>
<totfact> 0.47643409E+01</totfact>
</mgrwt>
</event>
<event>
12    1  0.3203156E-008  0.2214301E+04  0.7818608E-02  0.8512499E-01
         -2   -1    0    0    0  501 -0.00000000000E+00  0.00000000000E+00  0.14727415624E+04  0.14727415624E+04  0.00000000000E+00 0.  1.
          2   -1    0    0  501    0  0.00000000000E+00 -0.00000000000E+00 -0.41022197744E+04  0.41022197744E+04  0.00000000000E+00 0. -1.
         23    2    1    2    0    0  0.15148457269E+04 -0.16099890184E+04 -0.17633724788E+03  0.22190343120E+04  0.78716179314E+02 0.  0.
    5000000    2    1    2    0    0 -0.15148457269E+04  0.16099890184E+04 -0.24531409641E+04  0.33559270248E+04  0.59793259689E+03 0.  0.
         23    2    4    4    0    0 -0.86562246799E+03  0.97884419256E+03 -0.10263720262E+04  0.16640690030E+04  0.90817950400E+02 0.  0.
         23    2    4    4    0    0 -0.64922325895E+03  0.63114482586E+03 -0.14267689378E+04  0.16918580218E+04  0.82941743589E+02 0.  0.
          5    1    3    3  502    0  0.11025832132E+04 -0.11286650816E+04 -0.10650899716E+03  0.15814363297E+04  0.47000000000E+01 0. -1.
         -5    1    3    3    0  502  0.41226251372E+03 -0.48132393682E+03 -0.69828250721E+02  0.63759798225E+03  0.47000000000E+01 0.  1.
         11    1    5    5    0    0 -0.78083493288E+03  0.84128626798E+03 -0.91369753573E+03  0.14670749687E+04  0.00000000000E+00 0.  1.
        -11    1    5    5    0    0 -0.84787535112E+02  0.13755792458E+03 -0.11267449049E+03  0.19699403425E+03  0.00000000000E+00 0. -1.
          4    1    6    6  503    0 -0.46943280038E+03  0.41616644133E+03 -0.10321996031E+04  0.12078897638E+04  0.00000000000E+00 0. -1.
         -4    1    6    6    0  503 -0.17979045857E+03  0.21497838454E+03 -0.39456933478E+03  0.48396825801E+03  0.00000000000E+00 0.  1.
<mgrwt>
<rscale>  0 0.22143011E+04</rscale>
<asrwt>0</asrwt>
<pdfrwt beam="1">  1        2 0.63111072E+00 0.22143011E+04</pdfrwt>
<pdfrwt beam="2">  1       -2 0.22657563E+00 0.22143011E+04</pdfrwt>
<totfact> 0.22084911E-02</totfact>
</mgrwt>
</event>
<event>
12    1  0.3203156E-008  0.5128615E+03  0.7818608E-02  0.1010475E+00
         -1   -1    0    0    0  501 -0.00000000000E+00  0.00000000000E+00  0.40052461996E+03  0.40052461996E+03  0.00000000000E+00 0.  1.
          1   -1    0    0  501    0  0.00000000000E+00 -0.00000000000E+00 -0.81899929413E+03  0.81899929413E+03  0.00000000000E+00 0. -1.
         23    2    1    2    0    0 -0.25483946264E+03 -0.28104508300E+03  0.75958191268E+01  0.39159839531E+03  0.96758029889E+02 0.  0.
    5000000    2    1    2    0    0  0.25483946264E+03  0.28104508300E+03 -0.42607049330E+03  0.82792551877E+03  0.59999592414E+03 0.  0.
         23    2    4    4    0    0 -0.12099724297E+03 -0.19745336696E+02 -0.27602235139E+03  0.31539350585E+03  0.90854355635E+02 0.  0.
         23    2    4    4    0    0  0.37583670561E+03  0.30079041969E+03 -0.15004814191E+03  0.51253201293E+03  0.91904915652E+02 0.  0.
          5    1    3    3  502    0 -0.10204568924E+03 -0.49185711770E+02 -0.61142017303E+01  0.11354307728E+03  0.47000000000E+01 0. -1.
         -5    1    3    3    0  502 -0.15279377340E+03 -0.23185937123E+03  0.13710020857E+02  0.27805531803E+03  0.47000000000E+01 0.  1.
         11    1    5    5    0    0 -0.40830874322E+02  0.33682101504E+02 -0.13099028836E+03  0.14128021767E+03  0.00000000000E+00 0.  1.
        -11    1    5    5    0    0 -0.80166368646E+02 -0.53427438200E+02 -0.14503206303E+03  0.17411328818E+03  0.00000000000E+00 0. -1.
          2    1    6    6  503    0  0.17010977163E+03  0.17584959218E+03 -0.40153885202E+02  0.24793698387E+03  0.00000000000E+00 0. -1.
         -2    1    6    6    0  503  0.20572693398E+03  0.12494082752E+03 -0.10989425671E+03  0.26459502906E+03  0.00000000000E+00 0.  1.
<mgrwt>
<rscale>  0 0.51286146E+03</rscale>
<asrwt>0</asrwt>
<pdfrwt beam="1">  1        1 0.12599989E+00 0.51286146E+03</pdfrwt>
<pdfrwt beam="2">  1       -1 0.61619173E-01 0.51286146E+03</pdfrwt>
<totfact> 0.59619903E+01</totfact>
</mgrwt>
</event>
<event>
12    1  0.3203156E-008  0.5531653E+03  0.7818608E-02  0.1000764E+00
          2   -1    0    0  501    0  0.00000000000E+00  0.00000000000E+00  0.10714999126E+04  0.10714999126E+04  0.00000000000E+00 0. -1.
         -2   -1    0    0    0  501 -0.00000000000E+00 -0.00000000000E+00 -0.39822093711E+03  0.39822093711E+03  0.00000000000E+00 0.  1.
         23    2    1    2    0    0  0.50256749637E+03  0.24699770582E+02  0.36542223188E+03  0.62830996223E+03  0.89754298026E+02 0.  0.
    5000000    2    1    2    0    0 -0.50256749637E+03 -0.24699770582E+02  0.30785674360E+03  0.84141088747E+03  0.60001028316E+03 0.  0.
         23    2    4    4    0    0 -0.43844586997E+03  0.10644834339E+03 -0.29714046410E+02  0.46124671594E+03  0.91102018139E+02 0.  0.
         23    2    4    4    0    0 -0.64121626402E+02 -0.13114811397E+03  0.33757079001E+03  0.38016417153E+03  0.96225507402E+02 0.  0.
          5    1    3    3  502    0  0.18421996825E+03  0.34314788834E+01  0.82812146065E+02  0.20206116224E+03  0.47000000000E+01 0. -1.
         -5    1    3    3    0  502  0.31834752812E+03  0.21268291699E+02  0.28261008582E+03  0.42624880000E+03  0.47000000000E+01 0.  1.
         11    1    5    5    0    0 -0.19964217954E+03  0.14612962511E+02 -0.44147069574E+02  0.20498659048E+03  0.00000000000E+00 0.  1.
        -11    1    5    5    0    0 -0.23880369043E+03  0.91835380877E+02  0.14433023164E+02  0.25626012546E+03  0.00000000000E+00 0. -1.
          2    1    6    6  503    0 -0.37906688474E+02 -0.94665900978E+02  0.11760706285E+03  0.15565979272E+03  0.00000000000E+00 0. -1.
         -2    1    6    6    0  503 -0.26214937928E+02 -0.36482212993E+02  0.21996372716E+03  0.22450437880E+03  0.00000000000E+00 0.  1.
<mgrwt>
<rscale>  0 0.55316533E+03</rscale>
<asrwt>0</asrwt>
<pdfrwt beam="1">  1        2 0.16484614E+00 0.55316533E+03</pdfrwt>
<pdfrwt beam="2">  1       -2 0.61264760E-01 0.55316533E+03</pdfrwt>
<totfact> 0.58269574E+01</totfact>
</mgrwt>
</event>
<event>
12    1  0.3203156E-008  0.7275190E+03  0.7818608E-02  0.9671295E-01
          2   -1    0    0  501    0  0.00000000000E+00  0.00000000000E+00  0.15751566971E+04  0.15751566971E+04  0.00000000000E+00 0. -1.
         -2   -1    0    0    0  501 -0.00000000000E+00 -0.00000000000E+00 -0.36884218991E+03  0.36884218991E+03  0.00000000000E+00 0.  1.
         23    2    1    2    0    0 -0.28689351413E+03  0.56898752934E+03  0.43024605460E+03  0.77437881623E+03  0.92174760845E+02 0.  0.
    5000000    2    1    2    0    0  0.28689351413E+03 -0.56898752934E+03  0.77606845261E+03  0.11696200708E+04  0.59972841344E+03 0.  0.
         23    2    4    4    0    0  0.38236673420E+03 -0.56776714995E+03  0.46741873711E+03  0.83382093249E+03  0.90626793301E+02 0.  0.
         23    2    4    4    0    0 -0.95473220069E+02 -0.12203793829E+01  0.30864971550E+03  0.33579913831E+03  0.91541189289E+02 0.  0.
          5    1    3    3  502    0 -0.95073537067E+02  0.14443945582E+03  0.75227134421E+02  0.18863442316E+03  0.47000000000E+01 0. -1.
         -5    1    3    3    0  502 -0.19181997706E+03  0.42454807351E+03  0.35501892018E+03  0.58574439307E+03  0.47000000000E+01 0.  1.
         13    1    5    5    0    0  0.85962389335E+02 -0.12530174901E+03  0.60367847082E+02  0.16350638412E+03  0.00000000000E+00 0. -1.
        -13    1    5    5    0    0  0.29640434487E+03 -0.44246540094E+03  0.40705089003E+03  0.67031454837E+03  0.00000000000E+00 0.  1.
          3    1    6    6  503    0  0.11721226405E+02  0.19215707331E+02  0.66230388864E+02  0.69950660938E+02  0.00000000000E+00 0. -1.
         -3    1    6    6    0  503 -0.10719444647E+03 -0.20436086713E+02  0.24241932663E+03  0.26584847737E+03  0.00000000000E+00 0.  1.
<mgrwt>
<rscale>  0 0.72751898E+03</rscale>
<asrwt>0</asrwt>
<pdfrwt beam="1">  1        2 0.24233180E+00 0.72751898E+03</pdfrwt>
<pdfrwt beam="2">  1       -2 0.56744953E-01 0.72751898E+03</pdfrwt>
<totfact> 0.34440411E+01</totfact>
</mgrwt>
</event>
<event>
12    1  0.3203156E-008  0.3076757E+03  0.7818608E-02  0.1081465E+00
         -2   -1    0    0    0  501 -0.00000000000E+00  0.00000000000E+00  0.64012178650E+03  0.64012178650E+03  0.00000000000E+00 0.  1.
          2   -1    0    0  501    0  0.00000000000E+00 -0.00000000000E+00 -0.71338718082E+03  0.71338718082E+03  0.00000000000E+00 0. -1.
         23    2    1    2    0    0 -0.23109022479E+03  0.97812671172E+02  0.44695269540E+03  0.52068413837E+03  0.91516388606E+02 0.  0.
    5000000    2    1    2    0    0  0.23109022479E+03 -0.97812671172E+02 -0.52021808972E+03  0.83282482896E+03  0.60000027018E+03 0.  0.
         23    2    4    4    0    0 -0.12570977680E+02  0.12986321996E+02  0.11062089897E+03  0.14123229253E+03  0.85923821642E+02 0.  0.
         23    2    4    4    0    0  0.24366120247E+03 -0.11079899317E+03 -0.63083898869E+03  0.69159253643E+03  0.93248100909E+02 0.  0.
          5    1    3    3  502    0 -0.12473212327E+03  0.43708692761E+02  0.14648222183E+03  0.19735167522E+03  0.47000000000E+01 0. -1.
         -5    1    3    3    0  502 -0.10635810152E+03  0.54103978411E+02  0.30047047357E+03  0.32333246315E+03  0.47000000000E+01 0.  1.
         11    1    5    5    0    0 -0.46685177875E+02 -0.82729097196E+01  0.64539762954E+02  0.80083255869E+02  0.00000000000E+00 0.  1.
        -11    1    5    5    0    0  0.34114200195E+02  0.21259231715E+02  0.46081136011E+02  0.61149036657E+02  0.00000000000E+00 0. -1.
          3    1    6    6  503    0  0.13150854198E+03 -0.22702182642E+02 -0.22714757248E+03  0.26345000549E+03  0.00000000000E+00 0. -1.
         -3    1    6    6    0  503  0.11215266049E+03 -0.88096810526E+02 -0.40369141621E+03  0.42814253094E+03  0.00000000000E+00 0.  1.
<mgrwt>
<rscale>  0 0.30767570E+03</rscale>
<asrwt>0</asrwt>
<pdfrwt beam="1">  1        2 0.10975187E+00 0.30767570E+03</pdfrwt>
<pdfrwt beam="2">  1       -2 0.98480275E-01 0.30767570E+03</pdfrwt>
<totfact> 0.36673145E+01</totfact>
</mgrwt>
</event>
<event>
12    1  0.3203156E-008  0.7278222E+03  0.7818608E-02  0.9670801E-01
          1   -1    0    0  501    0  0.00000000000E+00  0.00000000000E+00  0.83294725982E+03  0.83294725982E+03  0.00000000000E+00 0. -1.
         -1   -1    0    0    0  501 -0.00000000000E+00 -0.00000000000E+00 -0.82749810899E+03  0.82749810899E+03  0.00000000000E+00 0.  1.
         23    2    1    2    0    0  0.53099650243E+01  0.69297357098E+03  0.19231169732E+03  0.72497470145E+03  0.91454704718E+02 0.  0.
    5000000    2    1    2    0    0 -0.53099650243E+01 -0.69297357098E+03 -0.18686254649E+03  0.93547066736E+03  0.59995599207E+03 0.  0.
         23    2    4    4    0    0 -0.12896768747E+03 -0.28172493468E+03  0.17459184952E+03  0.36703759140E+03  0.90734096941E+02 0.  0.
         23    2    4    4    0    0  0.12365772245E+03 -0.41124863630E+03 -0.36145439601E+03  0.56843307597E+03  0.89722952933E+02 0.  0.
          5    1    3    3  502    0  0.48004852103E+02  0.38554721161E+03  0.10318158015E+03  0.40201946059E+03  0.47000000000E+01 0. -1.
         -5    1    3    3    0  502 -0.42694887079E+02  0.30742635936E+03  0.89130117167E+02  0.32295524086E+03  0.47000000000E+01 0.  1.
         11    1    5    5    0    0 -0.71020967428E+02 -0.23620207820E+03  0.11439139676E+03  0.27188378255E+03  0.00000000000E+00 0. -1.
        -11    1    5    5    0    0 -0.57946720046E+02 -0.45522856480E+02  0.60200452756E+02  0.95153808847E+02  0.00000000000E+00 0.  1.
          4    1    6    6  503    0  0.12086384824E+03 -0.27889424031E+03 -0.22387666442E+03  0.37750606348E+03  0.00000000000E+00 0. -1.
         -4    1    6    6    0  503  0.27938742092E+01 -0.13235439599E+03 -0.13757773158E+03  0.19092701249E+03  0.00000000000E+00 0.  1.
<mgrwt>
<rscale>  0 0.72782216E+03</rscale>
<asrwt>0</asrwt>
<pdfrwt beam="1">  1        1 0.12814573E+00 0.72782216E+03</pdfrwt>
<pdfrwt beam="2">  1       -1 0.12730740E+00 0.72782216E+03</pdfrwt>
<totfact> 0.11442586E+01</totfact>
</mgrwt>
</event>
<event>
12    1  0.3203156E-008  0.5450736E+03  0.7818608E-02  0.1002641E+00
          2   -1    0    0  501    0  0.00000000000E+00  0.00000000000E+00  0.11631151274E+04  0.11631151274E+04  0.00000000000E+00 0. -1.
         -2   -1    0    0    0  501 -0.00000000000E+00 -0.00000000000E+00 -0.48957334748E+03  0.48957334748E+03  0.00000000000E+00 0.  1.
         23    2    1    2    0    0 -0.50479392406E+03  0.16363120527E+03  0.65958301671E+03  0.85158908163E+03  0.92531783196E+02 0.  0.
    5000000    2    1    2    0    0  0.50479392406E+03 -0.16363120527E+03  0.13958763189E+02  0.80109939324E+03  0.59997776098E+03 0.  0.
         23    2    4    4    0    0  0.14063077104E+03  0.16902615994E+02  0.26516690775E+03  0.31404257245E+03  0.90810440783E+02 0.  0.
         23    2    4    4    0    0  0.36416315303E+03 -0.18053382127E+03 -0.25120814456E+03  0.48705682079E+03  0.94401017716E+02 0.  0.
          5    1    3    3  502    0 -0.26049664500E+03  0.82913162334E+02  0.41219033795E+03  0.49462719218E+03  0.47000000000E+01 0. -1.
         -5    1    3    3    0  502 -0.24429727906E+03  0.80718042941E+02  0.24739267877E+03  0.35696188945E+03  0.47000000000E+01 0.  1.
         13    1    5    5    0    0  0.77557968055E+02 -0.18974989450E+02  0.20424144066E+03  0.21929399152E+03  0.00000000000E+00 0.  1.
        -13    1    5    5    0    0  0.63072802980E+02  0.35877605444E+02  0.60925467090E+02  0.94748580931E+02  0.00000000000E+00 0. -1.
          2    1    6    6  503    0  0.22476415688E+02 -0.57550127584E+01  0.72985391007E+01  0.24322378729E+02  0.00000000000E+00 0. -1.
         -2    1    6    6    0  503  0.34168673734E+03 -0.17477880851E+03 -0.25850668366E+03  0.46273444206E+03  0.00000000000E+00 0.  1.
<mgrwt>
<rscale>  0 0.54507358E+03</rscale>
<asrwt>0</asrwt>
<pdfrwt beam="1">  1        2 0.17894079E+00 0.54507358E+03</pdfrwt>
<pdfrwt beam="2">  1       -2 0.75318977E-01 0.54507358E+03</pdfrwt>
<totfact> 0.32893184E+01</totfact>
</mgrwt>
</event>
<event>
12    1  0.3203156E-008  0.1225114E+04  0.7818608E-02  0.9091154E-01
          1   -1    0    0  501    0  0.00000000000E+00  0.00000000000E+00  0.23833260375E+04  0.23833260375E+04  0.00000000000E+00 0. -1.
         -1   -1    0    0    0  501 -0.00000000000E+00 -0.00000000000E+00 -0.68354155978E+03  0.68354155978E+03  0.00000000000E+00 0.  1.
         23    2    1    2    0    0 -0.17167577683E+03 -0.11512193019E+04  0.43451541402E+03  0.12459976263E+04  0.94488021806E+02 0.  0.
    5000000    2    1    2    0    0  0.17167577683E+03  0.11512193019E+04  0.12652690637E+04  0.18208699710E+04  0.59990265413E+03 0.  0.
         23    2    4    4    0    0  0.10343199597E+02  0.11126678203E+04  0.11332608764E+04  0.15908313154E+04  0.91254588845E+02 0.  0.
         23    2    4    4    0    0  0.16133257723E+03  0.38551481563E+02  0.13200818730E+03  0.23003865560E+03  0.89315196638E+02 0.  0.
          5    1    3    3  502    0  0.64632577455E+01 -0.16545006610E+03  0.50536934753E+02  0.17318074329E+03  0.47000000000E+01 0. -1.
         -5    1    3    3    0  502 -0.17813903457E+03 -0.98576923578E+03  0.38397847927E+03  0.10728168830E+04  0.47000000000E+01 0.  1.
         13    1    5    5    0    0 -0.22859827795E+02  0.94598609054E+03  0.97221637287E+03  0.13566933813E+04  0.00000000000E+00 0. -1.
        -13    1    5    5    0    0  0.33203027392E+02  0.16668172978E+03  0.16104450356E+03  0.23413793413E+03  0.00000000000E+00 0.  1.
          2    1    6    6  503    0  0.14549156448E+03  0.39474737662E+02  0.70326519134E+02  0.16634863853E+03  0.00000000000E+00 0. -1.
         -2    1    6    6    0  503  0.15841012753E+02 -0.92325609912E+00  0.61681668165E+02  0.63690017071E+02  0.00000000000E+00 0.  1.
<mgrwt>
<rscale>  0 0.12251140E+04</rscale>
<asrwt>0</asrwt>
<pdfrwt beam="1">  1        1 0.36666554E+00 0.12251140E+04</pdfrwt>
<pdfrwt beam="2">  1       -1 0.10516024E+00 0.12251140E+04</pdfrwt>
<totfact> 0.13638671E+00</totfact>
</mgrwt>
</event>
<event>
12    1  0.3203156E-008  0.4124193E+03  0.7818608E-02  0.1039562E+00
         -2   -1    0    0    0  501 -0.00000000000E+00  0.00000000000E+00  0.32751587670E+03  0.32751587670E+03  0.00000000000E+00 0.  1.
          2   -1    0    0  501    0  0.00000000000E+00 -0.00000000000E+00 -0.11089526959E+04  0.11089526959E+04  0.00000000000E+00 0. -1.
         23    2    1    2    0    0 -0.21615850846E+03 -0.27915146604E+03  0.23459001120E+02  0.37230386158E+03  0.11580068585E+03 0.  0.
    5000000    2    1    2    0    0  0.21615850846E+03  0.27915146604E+03 -0.80489582032E+03  0.10641647110E+04  0.59994933857E+03 0.  0.
         23    2    4    4    0    0  0.18265588004E+03  0.10097828698E+02 -0.74447612496E+03  0.77198589223E+03  0.90842613977E+02 0.  0.
         23    2    4    4    0    0  0.33502628425E+02  0.26905363734E+03 -0.60419695363E+02  0.29217881879E+03  0.90584969426E+02 0.  0.
          5    1    3    3  502    0 -0.17653662825E+03 -0.24447682541E+03 -0.22266255800E+02  0.30241027665E+03  0.47000000000E+01 0. -1.
         -5    1    3    3    0  502 -0.39621880212E+02 -0.34674640626E+02  0.45725256920E+02  0.69893584931E+02  0.47000000000E+01 0.  1.
         11    1    5    5    0    0  0.12787734385E+03 -0.27502437555E+02 -0.58063095834E+03  0.59518174445E+03  0.00000000000E+00 0. -1.
        -11    1    5    5    0    0  0.54778536184E+02  0.37600266254E+02 -0.16384516662E+03  0.17680414778E+03  0.00000000000E+00 0.  1.
          1    1    6    6  503    0  0.90500946876E+01  0.19394874832E+03 -0.24011608447E+01  0.19417462955E+03  0.00000000000E+00 0. -1.
         -1    1    6    6    0  503  0.24452533738E+02  0.75104889022E+02 -0.58018534518E+02  0.98004189241E+02  0.00000000000E+00 0.  1.
<mgrwt>
<rscale>  0 0.41241929E+03</rscale>
<asrwt>0</asrwt>
<pdfrwt beam="1">  1        2 0.17060811E+00 0.41241929E+03</pdfrwt>
<pdfrwt beam="2">  1       -2 0.50387058E-01 0.41241929E+03</pdfrwt>
<totfact> 0.84360766E+01</totfact>
</mgrwt>
</event>
<event>
12    1  0.3203156E-008  0.1196460E+04  0.7818608E-02  0.9115960E-01
          1   -1    0    0  501    0  0.00000000000E+00  0.00000000000E+00  0.16261275647E+04  0.16261275647E+04  0.00000000000E+00 0. -1.
         -1   -1    0    0    0  501 -0.00000000000E+00 -0.00000000000E+00 -0.16847958051E+04  0.16847958051E+04  0.00000000000E+00 0.  1.
         23    2    1    2    0    0  0.11250377693E+03 -0.11874818284E+04  0.10373861494E+04  0.15834093239E+04  0.90801275125E+02 0.  0.
    5000000    2    1    2    0    0 -0.11250377693E+03  0.11874818284E+04 -0.10960543898E+04  0.17275140459E+04  0.60016611089E+03 0.  0.
         23    2    4    4    0    0 -0.10933570383E+03  0.85607126309E+03 -0.10770018073E+04  0.13830602573E+04  0.90058196537E+02 0.  0.
         23    2    4    4    0    0 -0.31680730974E+01  0.33141056529E+03 -0.19052582536E+02  0.34445378858E+03  0.91882599505E+02 0.  0.
          5    1    3    3  502    0  0.10614649351E+03 -0.83332302401E+03  0.77012798784E+03  0.11396550127E+04  0.47000000000E+01 0. -1.
         -5    1    3    3    0  502  0.63572834182E+01 -0.35415880438E+03  0.26725816157E+03  0.44375431119E+03  0.47000000000E+01 0.  1.
         13    1    5    5    0    0 -0.40565613868E+02  0.41536359976E+03 -0.58974229250E+03  0.72247384769E+03  0.00000000000E+00 0. -1.
        -13    1    5    5    0    0 -0.68770089962E+02  0.44070766333E+03 -0.48725951479E+03  0.66058640960E+03  0.00000000000E+00 0.  1.
          2    1    6    6  503    0  0.19672852676E+02  0.66998593572E+02 -0.35914726247E+02  0.78521972940E+02  0.00000000000E+00 0. -1.
         -2    1    6    6    0  503 -0.22840925773E+02  0.26441197172E+03  0.16862143711E+02  0.26593181564E+03  0.00000000000E+00 0.  1.
<mgrwt>
<rscale>  0 0.11964605E+04</rscale>
<asrwt>0</asrwt>
<pdfrwt beam="1">  1        1 0.25017347E+00 0.11964605E+04</pdfrwt>
<pdfrwt beam="2">  1       -1 0.25919936E+00 0.11964605E+04</pdfrwt>
<totfact> 0.31935379E-01</totfact>
</mgrwt>
</event>
<event>
12    1  0.3203156E-008  0.9486515E+03  0.7818608E-02  0.9366728E-01
         -2   -1    0    0    0  501 -0.00000000000E+00  0.00000000000E+00  0.96682105998E+03  0.96682105998E+03  0.00000000000E+00 0.  1.
          2   -1    0    0  501    0  0.00000000000E+00 -0.00000000000E+00 -0.96735515428E+03  0.96735515428E+03  0.00000000000E+00 0. -1.
         23    2    1    2    0    0 -0.42670756809E+03 -0.75410023559E+03  0.91225817358E+02  0.87630658220E+03  0.94045533046E+02 0.  0.
    5000000    2    1    2    0    0  0.42670756809E+03  0.75410023559E+03 -0.91759911658E+02  0.10578696321E+04  0.59993479903E+03 0.  0.
         23    2    4    4    0    0  0.54347502836E+03  0.54016076068E+03 -0.16161452222E+03  0.78851711623E+03  0.92202141866E+02 0.  0.
         23    2    4    4    0    0 -0.11676746028E+03  0.21393947491E+03  0.69854610559E+02  0.26935251584E+03  0.90919593424E+02 0.  0.
          5    1    3    3  502    0 -0.13582950227E+03 -0.30857710710E+03  0.66243625627E+02  0.34362740381E+03  0.47000000000E+01 0. -1.
         -5    1    3    3    0  502 -0.29087806582E+03 -0.44552312849E+03  0.24982191730E+02  0.53267917840E+03  0.47000000000E+01 0.  1.
         11    1    5    5    0    0  0.87670925844E+02  0.44431895812E+02 -0.23938778938E+02  0.10116051473E+03  0.00000000000E+00 0. -1.
        -11    1    5    5    0    0  0.45580410252E+03  0.49572886486E+03 -0.13767574328E+03  0.68735660150E+03  0.00000000000E+00 0.  1.
          4    1    6    6  503    0 -0.71199693908E+02  0.19385311539E+03  0.37297733207E+02  0.20985601650E+03  0.00000000000E+00 0.  1.
         -4    1    6    6    0  503 -0.45567766370E+02  0.20086359519E+02  0.32556877353E+02  0.59496499339E+02  0.00000000000E+00 0. -1.
<mgrwt>
<rscale>  0 0.94865145E+03</rscale>
<asrwt>0</asrwt>
<pdfrwt beam="1">  1        2 0.14882387E+00 0.94865145E+03</pdfrwt>
<pdfrwt beam="2">  1       -2 0.14874170E+00 0.94865145E+03</pdfrwt>
<totfact> 0.80720094E+00</totfact>
</mgrwt>
</event>
<event>
12    1  0.3203156E-008  0.4187460E+03  0.7818608E-02  0.1037475E+00
          2   -1    0    0  501    0  0.00000000000E+00  0.00000000000E+00  0.13329881442E+04  0.13329881442E+04  0.00000000000E+00 0.  1.
         -2   -1    0    0    0  501 -0.00000000000E+00 -0.00000000000E+00 -0.22361657925E+03  0.22361657925E+03  0.00000000000E+00 0. -1.
         23    2    1    2    0    0 -0.32853464489E+03 -0.16496610705E+03  0.29371324853E+03  0.47937342675E+03  0.91556433640E+02 0.  0.
    5000000    2    1    2    0    0  0.32853464489E+03  0.16496610705E+03  0.81565831636E+03  0.10772312967E+04  0.59998328982E+03 0.  0.
         23    2    4    4    0    0  0.35511265012E+03  0.12109794907E+03  0.16695082145E+03  0.42069286244E+03  0.91324696443E+02 0.  0.
         23    2    4    4    0    0 -0.26578005230E+02  0.43868157975E+02  0.64870749492E+03  0.65653843421E+03  0.87123452590E+02 0.  0.
          5    1    3    3  502    0 -0.79694595895E+02 -0.71019722267E+02  0.12461984818E+03  0.16415610292E+03  0.47000000000E+01 0. -1.
         -5    1    3    3    0  502 -0.24884004900E+03 -0.93946384781E+02  0.16909340035E+03  0.31521732383E+03  0.47000000000E+01 0.  1.
         11    1    5    5    0    0  0.18344977489E+03  0.63572600382E+02  0.13593632944E+03  0.23701050839E+03  0.00000000000E+00 0. -1.
        -11    1    5    5    0    0  0.17166287523E+03  0.57525348691E+02  0.31014492010E+02  0.18368235405E+03  0.00000000000E+00 0.  1.
          2    1    6    6  503    0 -0.18524838500E+02  0.64585945177E+02  0.31473351378E+03  0.32182557178E+03  0.00000000000E+00 0.  1.
         -2    1    6    6    0  503 -0.80531667305E+01 -0.20717787202E+02  0.33397398114E+03  0.33471286243E+03  0.00000000000E+00 0. -1.
<mgrwt>
<rscale>  0 0.41874597E+03</rscale>
<asrwt>0</asrwt>
<pdfrwt beam="1">  1        2 0.20507509E+00 0.41874597E+03</pdfrwt>
<pdfrwt beam="2">  1       -2 0.34402552E-01 0.41874597E+03</pdfrwt>
<totfact> 0.13159761E+02</totfact>
</mgrwt>
</event>
<event>
12    1  0.3203156E-008  0.7929184E+03  0.7818608E-02  0.9570324E-01
         -2   -1    0    0    0  501 -0.00000000000E+00  0.00000000000E+00  0.53238530093E+03  0.53238530093E+03  0.00000000000E+00 0. -1.
          2   -1    0    0  501    0  0.00000000000E+00 -0.00000000000E+00 -0.12886569608E+04  0.12886569608E+04  0.00000000000E+00 0.  1.
         23    2    1    2    0    0  0.65651947374E+03  0.19539595971E+03 -0.56072744324E+03  0.88977702256E+03  0.89947116675E+02 0.  0.
    5000000    2    1    2    0    0 -0.65651947374E+03 -0.19539595971E+03 -0.19554421662E+03  0.93126523915E+03  0.59984998501E+03 0.  0.
         23    2    4    4    0    0 -0.36824808970E+03  0.18009800118E+03 -0.20660827094E+02  0.41837080679E+03  0.81026641257E+02 0.  0.
         23    2    4    4    0    0 -0.28827138404E+03 -0.37549396089E+03 -0.17488338953E+03  0.51289443236E+03  0.91544488072E+02 0.  0.
          5    1    3    3  502    0  0.29945978839E+03  0.13492603068E+03 -0.25601953542E+03  0.41647243742E+03  0.47000000000E+01 0. -1.
         -5    1    3    3    0  502  0.35705968536E+03  0.60469929028E+02 -0.30470790782E+03  0.47330458514E+03  0.47000000000E+01 0.  1.
         11    1    5    5    0    0 -0.20391385073E+03  0.54805922968E+02 -0.14007280847E+02  0.21161463000E+03  0.00000000000E+00 0.  1.
        -11    1    5    5    0    0 -0.16433423897E+03  0.12529207821E+03 -0.66535462464E+01  0.20675617678E+03  0.00000000000E+00 0. -1.
          1    1    6    6  503    0 -0.41647885420E+02 -0.95909684521E+02 -0.69212270596E+02  0.12539358973E+03  0.00000000000E+00 0. -1.
         -1    1    6    6    0  503 -0.24662349862E+03 -0.27958427637E+03 -0.10567111893E+03  0.38750084263E+03  0.00000000000E+00 0.  1.
<mgrwt>
<rscale>  0 0.79291838E+03</rscale>
<asrwt>0</asrwt>
<pdfrwt beam="1">  1        2 0.19825492E+00 0.79291838E+03</pdfrwt>
<pdfrwt beam="2">  1       -2 0.81905430E-01 0.79291838E+03</pdfrwt>
<totfact> 0.22344145E+01</totfact>
</mgrwt>
</event>
<event>
12    1  0.3203156E-008  0.9786125E+03  0.7818608E-02  0.9332318E-01
          2   -1    0    0  501    0  0.00000000000E+00  0.00000000000E+00  0.22473251658E+04  0.22473251658E+04  0.00000000000E+00 0. -1.
         -2   -1    0    0    0  501 -0.00000000000E+00 -0.00000000000E+00 -0.67049403997E+03  0.67049403997E+03  0.00000000000E+00 0.  1.
         23    2    1    2    0    0  0.81501824689E+03  0.47076142772E+03 -0.47572930619E+02  0.94684669789E+03  0.91566483970E+02 0.  0.
    5000000    2    1    2    0    0 -0.81501824689E+03 -0.47076142772E+03  0.16244040565E+04  0.19709725079E+04  0.60014416901E+03 0.  0.
         23    2    4    4    0    0 -0.32450912934E+03 -0.39177353480E+03  0.12147599248E+04  0.13200842874E+04  0.90488526404E+02 0.  0.
         23    2    4    4    0    0 -0.49050911756E+03 -0.78987892917E+02  0.40964413165E+03  0.65088822045E+03  0.94915116259E+02 0.  0.
          5    1    3    3  502    0  0.66611514040E+03  0.35466835330E+03 -0.63341118689E+02  0.75731975309E+03  0.47000000000E+01 0. -1.
         -5    1    3    3    0  502  0.14890310649E+03  0.11609307442E+03  0.15768188070E+02  0.18952694480E+03  0.47000000000E+01 0.  1.
         13    1    5    5    0    0 -0.62501746052E+02 -0.69241421802E+02  0.32411283800E+03  0.33726840129E+03  0.00000000000E+00 0. -1.
        -13    1    5    5    0    0 -0.26200738329E+03 -0.32253211300E+03  0.89064708681E+03  0.98281588614E+03  0.00000000000E+00 0.  1.
          2    1    6    6  503    0 -0.18671106051E+03  0.13790466821E+02  0.13289922214E+03  0.22959399020E+03  0.00000000000E+00 0. -1.
         -2    1    6    6    0  503 -0.30379805705E+03 -0.92778359739E+02  0.27674490952E+03  0.42129423025E+03  0.00000000000E+00 0.  1.
<mgrwt>
<rscale>  0 0.97861249E+03</rscale>
<asrwt>0</asrwt>
<pdfrwt beam="1">  1        2 0.34574233E+00 0.97861249E+03</pdfrwt>
<pdfrwt beam="2">  1       -2 0.10315293E+00 0.97861249E+03</pdfrwt>
<totfact> 0.37499840E+00</totfact>
</mgrwt>
</event>
<event>
12    1  0.3203156E-008  0.7870141E+03  0.7818608E-02  0.9579006E-01
         -2   -1    0    0    0  501 -0.00000000000E+00  0.00000000000E+00  0.26138263753E+03  0.26138263753E+03  0.00000000000E+00 0.  1.
          2   -1    0    0  501    0  0.00000000000E+00 -0.00000000000E+00 -0.27571110466E+04  0.27571110466E+04  0.00000000000E+00 0. -1.
         23    2    1    2    0    0 -0.52540222633E+03 -0.48828690974E+03 -0.14176720189E+04  0.15913393043E+04  0.89973455974E+02 0.  0.
    5000000    2    1    2    0    0  0.52540222633E+03  0.48828690974E+03 -0.10780563902E+04  0.14271543798E+04  0.60007702644E+03 0.  0.
         23    2    4    4    0    0  0.60026778077E+03  0.35798478608E+03 -0.10251536501E+04  0.12440228181E+04  0.90433676600E+02 0.  0.
         23    2    4    4    0    0 -0.74865554435E+02  0.13030212366E+03 -0.52902740102E+02  0.18313156173E+03  0.90304896433E+02 0.  0.
          5    1    3    3  502    0 -0.31243110331E+03 -0.33519128809E+03 -0.96154421318E+03  0.10651552740E+04  0.47000000000E+01 0. -1.
         -5    1    3    3    0  502 -0.21297112302E+03 -0.15309562165E+03 -0.45612780568E+03  0.52618403028E+03  0.47000000000E+01 0.  1.
         11    1    5    5    0    0  0.50894324449E+03  0.33348690991E+03 -0.85580932325E+03  0.10500696848E+04  0.00000000000E+00 0.  1.
        -11    1    5    5    0    0  0.91324536278E+02  0.24497876168E+02 -0.16934432689E+03  0.19395313329E+03  0.00000000000E+00 0. -1.
          4    1    6    6  503    0 -0.51801177152E+02  0.83726092906E+02 -0.77817013299E+02  0.12549465386E+03  0.00000000000E+00 0.  1.
         -4    1    6    6    0  503 -0.23064377283E+02  0.46576030758E+02  0.24914273196E+02  0.57636907876E+02  0.00000000000E+00 0. -1.
<mgrwt>
<rscale>  0 0.78701413E+03</rscale>
<asrwt>0</asrwt>
<pdfrwt beam="1">  1        2 0.42417096E+00 0.78701413E+03</pdfrwt>
<pdfrwt beam="2">  1       -2 0.40212710E-01 0.78701413E+03</pdfrwt>
<totfact> 0.15051436E+01</totfact>
</mgrwt>
</event>
<event>
12    1  0.3203156E-008  0.1634330E+04  0.7818608E-02  0.8799731E-01
          1   -1    0    0  501    0  0.00000000000E+00  0.00000000000E+00  0.15642675823E+04  0.15642675823E+04  0.00000000000E+00 0. -1.
         -1   -1    0    0    0  501 -0.00000000000E+00 -0.00000000000E+00 -0.19601077043E+04  0.19601077043E+04  0.00000000000E+00 0.  1.
         23    2    1    2    0    0  0.16814514790E+03  0.16089142415E+04  0.32831252797E+03  0.16531993990E+04  0.91658658726E+02 0.  0.
    5000000    2    1    2    0    0 -0.16814514790E+03 -0.16089142415E+04 -0.72415264998E+03  0.18711758875E+04  0.60002026163E+03 0.  0.
         23    2    4    4    0    0  0.59826186781E+01 -0.12088588645E+04 -0.75225018694E+03  0.14264410882E+04  0.86477097320E+02 0.  0.
         23    2    4    4    0    0 -0.17412776658E+03 -0.40005537702E+03  0.28097536959E+02  0.44473479935E+03  0.81454198142E+02 0.  0.
          5    1    3    3  502    0  0.38498303044E+02  0.74159386334E+03  0.12642905355E+03  0.75329275389E+03  0.47000000000E+01 0. -1.
         -5    1    3    3    0  502  0.12964684486E+03  0.86732037816E+03  0.20188347442E+03  0.89990664515E+03  0.47000000000E+01 0.  1.
         13    1    5    5    0    0  0.36902708520E+02 -0.26620853057E+03 -0.17229212664E+03  0.31923873284E+03  0.00000000000E+00 0. -1.
        -13    1    5    5    0    0 -0.30920089842E+02 -0.94265033391E+03 -0.57995806030E+03  0.11072023553E+04  0.00000000000E+00 0.  1.
          3    1    6    6  503    0 -0.88118088309E+02 -0.16831507580E+03  0.50360708164E+02  0.19654761040E+03  0.00000000000E+00 0. -1.
         -3    1    6    6    0  503 -0.86009678268E+02 -0.23174030122E+03 -0.22263171206E+02  0.24818718894E+03  0.00000000000E+00 0.  1.
<mgrwt>
<rscale>  0 0.16343304E+04</rscale>
<asrwt>0</asrwt>
<pdfrwt beam="1">  1        1 0.24065655E+00 0.16343304E+04</pdfrwt>
<pdfrwt beam="2">  1       -1 0.30155503E+00 0.16343304E+04</pdfrwt>
<totfact> 0.17737589E-01</totfact>
</mgrwt>
</event>
<event>
12    1  0.3203156E-008  0.2175297E+03  0.7818608E-02  0.1135738E+00
         -2   -1    0    0    0  501 -0.00000000000E+00  0.00000000000E+00  0.10221834623E+04  0.10221834623E+04  0.00000000000E+00 0.  1.
          2   -1    0    0  501    0  0.00000000000E+00 -0.00000000000E+00 -0.24889664239E+03  0.24889664239E+03  0.00000000000E+00 0. -1.
         23    2    1    2    0    0  0.54568035683E+02 -0.79137359089E+02 -0.13198440840E+03  0.18079381006E+03  0.77628123605E+02 0.  0.
    5000000    2    1    2    0    0 -0.54568035683E+02  0.79137359089E+02  0.90527122833E+03  0.10902862946E+04  0.59997317884E+03 0.  0.
         23    2    4    4    0    0  0.80719228832E+02 -0.41998743939E+02 -0.30564068036E+02  0.13250432210E+03  0.91344100658E+02 0.  0.
         23    2    4    4    0    0 -0.13528726451E+03  0.12113610303E+03  0.93583529637E+03  0.95778197254E+03  0.92639114865E+02 0.  0.
          5    1    3    3  502    0  0.32037916482E+02  0.73778529957E+01 -0.45386203366E+02  0.56239294655E+02  0.47000000000E+01 0. -1.
         -5    1    3    3    0  502  0.22530119201E+02 -0.86515212084E+02 -0.86598205031E+02  0.12455451541E+03  0.47000000000E+01 0.  1.
         13    1    5    5    0    0  0.13481999293E+02 -0.47812759390E+02 -0.40749130402E+02  0.64251971907E+02  0.00000000000E+00 0. -1.
        -13    1    5    5    0    0  0.67237229539E+02  0.58140154512E+01  0.10185062365E+02  0.68252350195E+02  0.00000000000E+00 0.  1.
          3    1    6    6  503    0 -0.11430991206E+03  0.57106299341E+02  0.46844712639E+03  0.48556214396E+03  0.00000000000E+00 0. -1.
         -3    1    6    6    0  503 -0.20977352458E+02  0.64029803686E+02  0.46738816998E+03  0.47221982859E+03  0.00000000000E+00 0.  1.
<mgrwt>
<rscale>  0 0.21752967E+03</rscale>
<asrwt>0</asrwt>
<pdfrwt beam="1">  1        2 0.38291792E-01 0.21752967E+03</pdfrwt>
<pdfrwt beam="2">  1       -2 0.15725899E+00 0.21752967E+03</pdfrwt>
<totfact> 0.38242685E+01</totfact>
</mgrwt>
</event>
<event>
12    1  0.3203156E-008  0.7718094E+03  0.7818608E-02  0.9601743E-01
         -2   -1    0    0    0  501 -0.00000000000E+00  0.00000000000E+00  0.11683970319E+04  0.11683970319E+04  0.00000000000E+00 0.  1.
          2   -1    0    0  501    0  0.00000000000E+00 -0.00000000000E+00 -0.73164967422E+03  0.73164967422E+03  0.00000000000E+00 0. -1.
         23    2    1    2    0    0 -0.64367153593E+03  0.30510088185E+03 -0.22952050438E+03  0.75393359591E+03  0.91305042850E+02 0.  0.
    5000000    2    1    2    0    0  0.64367153593E+03 -0.30510088185E+03  0.66626786205E+03  0.11461131102E+04  0.60188271542E+03 0.  0.
         23    2    4    4    0    0  0.22762435232E+03  0.86726499164E+02 -0.35009404383E+01  0.26009141127E+03  0.91109572509E+02 0.  0.
         23    2    4    4    0    0  0.41604718360E+03 -0.39182738101E+03  0.66976880249E+03  0.88602169894E+03  0.99097157936E+02 0.  0.
          5    1    3    3  502    0 -0.21393743527E+03  0.59391506537E+02 -0.52556143347E+02  0.22821221585E+03  0.47000000000E+01 0.  1.
         -5    1    3    3    0  502 -0.42973410066E+03  0.24570937531E+03 -0.17696436103E+03  0.52572138006E+03  0.47000000000E+01 0.  1.
         11    1    5    5    0    0  0.22747491126E+03  0.74014675377E+02  0.12637940833E+02  0.23954691601E+03  0.00000000000E+00 0. -1.
        -11    1    5    5    0    0  0.14944106793E+00  0.12711823787E+02 -0.16138881271E+02  0.20544495256E+02  0.00000000000E+00 0.  1.
          3    1    6    6  503    0  0.35568130001E+03 -0.30339786980E+03  0.49348362400E+03  0.67976874136E+03  0.00000000000E+00 0. -1.
         -3    1    6    6    0  503  0.60365883591E+02 -0.88429511213E+02  0.17628517849E+03  0.20625295758E+03  0.00000000000E+00 0.  1.
<mgrwt>
<rscale>  0 0.77180936E+03</rscale>
<asrwt>0</asrwt>
<pdfrwt beam="1">  1        2 0.11256149E+00 0.77180936E+03</pdfrwt>
<pdfrwt beam="2">  1       -2 0.17975339E+00 0.77180936E+03</pdfrwt>
<totfact> 0.71602277E+00</totfact>
</mgrwt>
</event>
<event>
12    1  0.3203156E-008  0.1124721E+04  0.7818608E-02  0.9181426E-01
          2   -1    0    0  501    0  0.00000000000E+00  0.00000000000E+00  0.10277849476E+04  0.10277849476E+04  0.00000000000E+00 0. -1.
         -2   -1    0    0    0  501 -0.00000000000E+00 -0.00000000000E+00 -0.15504188088E+04  0.15504188088E+04  0.00000000000E+00 0.  1.
         23    2    1    2    0    0 -0.74217334843E+03 -0.83602067697E+03 -0.66130202332E+03  0.13019697829E+04  0.89739056367E+02 0.  0.
    5000000    2    1    2    0    0  0.74217334843E+03  0.83602067697E+03  0.13866816214E+03  0.12762339735E+04  0.59982701215E+03 0.  0.
         23    2    4    4    0    0  0.31502780001E+03  0.28674601429E+03 -0.22035221200E+03  0.48797582645E+03  0.89997324321E+02 0.  0.
         23    2    4    4    0    0  0.42714554842E+03  0.54927466268E+03  0.35902037413E+03  0.78825814705E+03  0.91100509064E+02 0.  0.
          5    1    3    3  502    0 -0.43004320596E+03 -0.54578026246E+03 -0.39276714774E+03  0.79818630421E+03  0.47000000000E+01 0. -1.
         -5    1    3    3    0  502 -0.31213014247E+03 -0.29024041450E+03 -0.26853487557E+03  0.50378347874E+03  0.47000000000E+01 0.  1.
         11    1    5    5    0    0  0.79233484657E+01  0.31773166681E+02 -0.34853746413E+02  0.47823605164E+02  0.00000000000E+00 0.  1.
        -11    1    5    5    0    0  0.30710445154E+03  0.25497284761E+03 -0.18549846559E+03  0.44015222129E+03  0.00000000000E+00 0. -1.
          3    1    6    6  503    0  0.39100367979E+03  0.48837737285E+03  0.29069298368E+03  0.68985414884E+03  0.00000000000E+00 0. -1.
         -3    1    6    6    0  503  0.36141868637E+02  0.60897289835E+02  0.68327390451E+02  0.98403998209E+02  0.00000000000E+00 0.  1.
<mgrwt>
<rscale>  0 0.11247215E+04</rscale>
<asrwt>0</asrwt>
<pdfrwt beam="1">  1        2 0.15812076E+00 0.11247215E+04</pdfrwt>
<pdfrwt beam="2">  1       -2 0.23852597E+00 0.11247215E+04</pdfrwt>
<totfact> 0.17946068E+00</totfact>
</mgrwt>
</event>
<event>
12    1  0.3203156E-008  0.4763925E+03  0.7818608E-02  0.1020131E+00
          2   -1    0    0  501    0  0.00000000000E+00  0.00000000000E+00  0.64530285024E+03  0.64530285024E+03  0.00000000000E+00 0.  1.
         -2   -1    0    0    0  501 -0.00000000000E+00 -0.00000000000E+00 -0.38880949786E+03  0.38880949786E+03  0.00000000000E+00 0. -1.
         23    2    1    2    0    0 -0.30250715059E+03 -0.59692774726E+02  0.13815270248E+03  0.34923597821E+03  0.88350414577E+02 0.  0.
    5000000    2    1    2    0    0  0.30250715059E+03  0.59692774726E+02  0.11834064990E+03  0.68487636990E+03  0.59998110729E+03 0.  0.
         23    2    4    4    0    0  0.38878709603E+03 -0.12234810371E+03  0.18060604866E+03  0.45504902152E+03  0.91250220034E+02 0.  0.
         23    2    4    4    0    0 -0.86279945433E+02  0.18204087843E+03 -0.62265398757E+02  0.22982734838E+03  0.91435877942E+02 0.  0.
          5    1    3    3  502    0 -0.25578855752E+03 -0.15898160319E+02  0.10530255069E+03  0.27711235058E+03  0.47000000000E+01 0.  1.
         -5    1    3    3    0  502 -0.46718593074E+02 -0.43794614407E+02  0.32850151795E+02  0.72123627632E+02  0.47000000000E+01 0. -1.
         13    1    5    5    0    0  0.31659054840E+03 -0.12260032701E+03  0.17673694462E+03  0.38274843319E+03  0.00000000000E+00 0. -1.
        -13    1    5    5    0    0  0.72196547630E+02  0.25222330169E+00  0.38691040340E+01  0.72300588326E+02  0.00000000000E+00 0.  1.
          3    1    6    6  503    0 -0.88409228998E+02  0.82287694191E+02 -0.43025826859E+02  0.12821340868E+03  0.00000000000E+00 0. -1.
         -3    1    6    6    0  503  0.21292835645E+01  0.99753184242E+02 -0.19239571897E+02  0.10161393970E+03  0.00000000000E+00 0.  1.
<mgrwt>
<rscale>  0 0.47639253E+03</rscale>
<asrwt>0</asrwt>
<pdfrwt beam="1">  1        2 0.99277361E-01 0.47639253E+03</pdfrwt>
<pdfrwt beam="2">  1       -2 0.59816846E-01 0.47639253E+03</pdfrwt>
<totfact> 0.12185663E+02</totfact>
</mgrwt>
</event>
<event>
12    1  0.3203156E-008  0.7184536E+03  0.7818608E-02  0.9686184E-01
          2   -1    0    0  501    0  0.00000000000E+00  0.00000000000E+00  0.19041350740E+04  0.19041350740E+04  0.00000000000E+00 0.  1.
         -2   -1    0    0    0  501 -0.00000000000E+00 -0.00000000000E+00 -0.40178163007E+03  0.40178163007E+03  0.00000000000E+00 0. -1.
         23    2    1    2    0    0 -0.58033256903E+03  0.19119043097E+03  0.49792334540E+02  0.61968962666E+03  0.90533337693E+02 0.  0.
    5000000    2    1    2    0    0  0.58033256903E+03 -0.19119043097E+03  0.14525611094E+04  0.16862270774E+04  0.60007358589E+03 0.  0.
         23    2    4    4    0    0  0.78788757916E+02 -0.29729576497E+03  0.71436644830E+03  0.78314191545E+03  0.91648224370E+02 0.  0.
         23    2    4    4    0    0  0.50154381112E+03  0.10610533400E+03  0.73819466108E+03  0.90308516195E+03  0.88469857631E+02 0.  0.
          5    1    3    3  502    0 -0.17205068524E+03  0.17793036603E+02 -0.22378787816E+01  0.17304660801E+03  0.47000000000E+01 0. -1.
         -5    1    3    3    0  502 -0.40828188379E+03  0.17339739437E+03  0.52030213321E+02  0.44664301865E+03  0.47000000000E+01 0.  1.
         13    1    5    5    0    0  0.32281037561E+02 -0.13320406520E+03  0.21046526785E+03  0.25115934652E+03  0.00000000000E+00 0. -1.
        -13    1    5    5    0    0  0.46507720355E+02 -0.16409169977E+03  0.50390118045E+03  0.53198256893E+03  0.00000000000E+00 0.  1.
          2    1    6    6  503    0  0.31649695298E+03  0.65133356051E+02  0.53665852100E+03  0.62643039795E+03  0.00000000000E+00 0.  1.
         -2    1    6    6    0  503  0.18504685813E+03  0.40971977947E+02  0.20153614008E+03  0.27665476399E+03  0.00000000000E+00 0. -1.
<mgrwt>
<rscale>  0 0.71845358E+03</rscale>
<asrwt>0</asrwt>
<pdfrwt beam="1">  1        2 0.29294385E+00 0.71845358E+03</pdfrwt>
<pdfrwt beam="2">  1       -2 0.61812559E-01 0.71845358E+03</pdfrwt>
<totfact> 0.19036833E+01</totfact>
</mgrwt>
</event>
<event>
12    1  0.3203156E-008  0.9617384E+03  0.7818608E-02  0.9351534E-01
         -2   -1    0    0    0  501 -0.00000000000E+00  0.00000000000E+00  0.48379961770E+03  0.48379961770E+03  0.00000000000E+00 0.  1.
          2   -1    0    0  501    0  0.00000000000E+00 -0.00000000000E+00 -0.20428832696E+04  0.20428832696E+04  0.00000000000E+00 0. -1.
         23    2    1    2    0    0  0.74863168052E+03 -0.46042311135E+03 -0.96347409974E+03  0.13071710068E+04  0.89302103466E+02 0.  0.
    5000000    2    1    2    0    0 -0.74863168052E+03  0.46042311135E+03 -0.59560955215E+03  0.12195118805E+04  0.60001637765E+03 0.  0.
         23    2    4    4    0    0 -0.63841621626E+03  0.58184518727E+03 -0.54021511770E+03  0.10228709515E+04  0.91178522477E+02 0.  0.
         23    2    4    4    0    0 -0.11021546426E+03 -0.12142207592E+03 -0.55394434453E+02  0.19664092894E+03  0.93318500208E+02 0.  0.
          5    1    3    3  502    0  0.18725489274E+03 -0.13078629943E+03 -0.19821171762E+03  0.30245565952E+03  0.47000000000E+01 0. -1.
         -5    1    3    3    0  502  0.56137678778E+03 -0.32963681192E+03 -0.76526238213E+03  0.10047153473E+04  0.47000000000E+01 0.  1.
         13    1    5    5    0    0 -0.44800923018E+03  0.36965763256E+03 -0.39940421074E+03  0.70489911277E+03  0.00000000000E+00 0. -1.
        -13    1    5    5    0    0 -0.19040698608E+03  0.21218755472E+03 -0.14081090696E+03  0.31797183876E+03  0.00000000000E+00 0.  1.
          4    1    6    6  503    0 -0.28131430015E+02  0.37673336269E+01  0.13989590778E+02  0.31642989863E+02  0.00000000000E+00 0. -1.
         -4    1    6    6    0  503 -0.82084034246E+02 -0.12518940955E+03 -0.69384025230E+02  0.16499793907E+03  0.00000000000E+00 0.  1.
<mgrwt>
<rscale>  0 0.96173843E+03</rscale>
<asrwt>0</asrwt>
<pdfrwt beam="1">  1        2 0.31428974E+00 0.96173843E+03</pdfrwt>
<pdfrwt beam="2">  1       -2 0.74430710E-01 0.96173843E+03</pdfrwt>
<totfact> 0.10347902E+01</totfact>
</mgrwt>
</event>
<event>
12    1  0.3203156E-008  0.8931972E+03  0.7818608E-02  0.9434125E-01
          1   -1    0    0  501    0  0.00000000000E+00  0.00000000000E+00  0.11251080320E+04  0.11251080320E+04  0.00000000000E+00 0. -1.
         -1   -1    0    0    0  501 -0.00000000000E+00 -0.00000000000E+00 -0.12447150611E+04  0.12447150611E+04  0.00000000000E+00 0.  1.
         23    2    1    2    0    0  0.60138239124E+03 -0.52244664538E+03 -0.82327637527E+03  0.11492184324E+04  0.91146791135E+02 0.  0.
    5000000    2    1    2    0    0 -0.60138239124E+03  0.52244664538E+03  0.70366934619E+03  0.12206046607E+04  0.60009491847E+03 0.  0.
         23    2    4    4    0    0  0.10132057484E+03  0.93116397498E+02  0.15697474863E+03  0.22791151943E+03  0.91466204754E+02 0.  0.
         23    2    4    4    0    0 -0.70270296608E+03  0.42933024788E+03  0.54669459756E+03  0.99269314126E+03  0.91917187834E+02 0.  0.
          5    1    3    3  502    0  0.39081548014E+03 -0.30948642270E+03 -0.45946481943E+03  0.67797389009E+03  0.47000000000E+01 0. -1.
         -5    1    3    3    0  502  0.21056691110E+03 -0.21296022268E+03 -0.36381155585E+03  0.47124454232E+03  0.47000000000E+01 0.  1.
         13    1    5    5    0    0  0.29065880667E+02  0.87709666332E+02  0.80291911509E+02  0.12241160909E+03  0.00000000000E+00 0. -1.
        -13    1    5    5    0    0  0.72254694174E+02  0.54067311667E+01  0.76682837125E+02  0.10549991034E+03  0.00000000000E+00 0.  1.
          1    1    6    6  503    0 -0.43933151854E+03  0.26802385405E+03  0.28748370980E+03  0.58948778861E+03  0.00000000000E+00 0. -1.
         -1    1    6    6    0  503 -0.26337144754E+03  0.16130639383E+03  0.25921088776E+03  0.40320535265E+03  0.00000000000E+00 0.  1.
<mgrwt>
<rscale>  0 0.89319716E+03</rscale>
<asrwt>0</asrwt>
<pdfrwt beam="1">  1        1 0.17309354E+00 0.89319716E+03</pdfrwt>
<pdfrwt beam="2">  1       -1 0.19149463E+00 0.89319716E+03</pdfrwt>
<totfact> 0.21347165E+00</totfact>
</mgrwt>
</event>
<event>
12    1  0.3203156E-008  0.6390732E+03  0.7818608E-02  0.9827501E-01
         -1   -1    0    0    0  501 -0.00000000000E+00  0.00000000000E+00  0.20358870311E+03  0.20358870311E+03  0.00000000000E+00 0.  1.
          1   -1    0    0  501    0  0.00000000000E+00 -0.00000000000E+00 -0.21861085685E+04  0.21861085685E+04  0.00000000000E+00 0. -1.
         23    2    1    2    0    0  0.16167388076E+03 -0.47436907018E+03 -0.10918887939E+04  0.12047540711E+04  0.89703819068E+02 0.  0.
    5000000    2    1    2    0    0 -0.16167388076E+03  0.47436907018E+03 -0.89063107147E+03  0.11849432005E+04  0.59975180234E+03 0.  0.
         23    2    4    4    0    0  0.17760311715E+02  0.55515530491E+03 -0.62972915136E+03  0.84584423208E+03  0.10188630739E+03 0.  0.
         23    2    4    4    0    0 -0.17943419247E+03 -0.80786234725E+02 -0.26090192011E+03  0.33909896839E+03  0.90527638306E+02 0.  0.
          5    1    3    3  502    0  0.93469251293E+02 -0.20863533705E+03 -0.40508603395E+03  0.46516877550E+03  0.47000000000E+01 0. -1.
         -5    1    3    3    0  502  0.68204629464E+02 -0.26573373313E+03 -0.68680275998E+03  0.73958529564E+03  0.47000000000E+01 0.  1.
         11    1    5    5    0    0 -0.36188915237E+02  0.18143530392E+03 -0.17360082160E+03  0.25370386744E+03  0.00000000000E+00 0.  1.
        -11    1    5    5    0    0  0.53949226953E+02  0.37372000099E+03 -0.45612832976E+03  0.59214036464E+03  0.00000000000E+00 0. -1.
          1    1    6    6  503    0 -0.14287951241E+03 -0.96800775069E+02 -0.18283845059E+03  0.25142562346E+03  0.00000000000E+00 0. -1.
         -1    1    6    6    0  503 -0.36554680064E+02  0.16014540344E+02 -0.78063469528E+02  0.87673344933E+02  0.00000000000E+00 0.  1.
<mgrwt>
<rscale>  0 0.63907324E+03</rscale>
<asrwt>0</asrwt>
<pdfrwt beam="1">  1        1 0.33632439E+00 0.63907324E+03</pdfrwt>
<pdfrwt beam="2">  1       -1 0.31321339E-01 0.63907324E+03</pdfrwt>
<totfact> 0.22326031E+01</totfact>
</mgrwt>
</event>
<event>
12    1  0.3203156E-008  0.8987348E+03  0.7818608E-02  0.9427164E-01
         -1   -1    0    0    0  501 -0.00000000000E+00  0.00000000000E+00  0.70149182675E+03  0.70149182675E+03  0.00000000000E+00 0.  1.
          1   -1    0    0  501    0  0.00000000000E+00 -0.00000000000E+00 -0.18496144571E+04  0.18496144571E+04  0.00000000000E+00 0. -1.
         23    2    1    2    0    0 -0.87458299914E+03 -0.15474953644E+03 -0.11781572153E+04  0.14781987754E+04  0.90412135722E+02 0.  0.
    5000000    2    1    2    0    0  0.87458299914E+03  0.15474953644E+03  0.30034584955E+02  0.10729075084E+04  0.60115356100E+03 0.  0.
         23    2    4    4    0    0  0.47025653364E+03  0.61266891733E+02 -0.27120077190E+03  0.55405948108E+03  0.92397026166E+02 0.  0.
         23    2    4    4    0    0  0.40432646550E+03  0.93482644710E+02  0.30123535685E+03  0.51884802733E+03  0.79004048524E+02 0.  0.
          5    1    3    3  502    0 -0.22786798506E+03 -0.80779347513E+02 -0.32029679278E+03  0.40132436640E+03  0.47000000000E+01 0. -1.
         -5    1    3    3    0  502 -0.64671501408E+03 -0.73970188931E+02 -0.85786042250E+03  0.10768744090E+04  0.47000000000E+01 0.  1.
         11    1    5    5    0    0  0.23311204049E+03  0.75238788089E+02 -0.15191620897E+03  0.28823711281E+03  0.00000000000E+00 0.  1.
        -11    1    5    5    0    0  0.23714449315E+03 -0.13971896355E+02 -0.11928456293E+03  0.26582236827E+03  0.00000000000E+00 0. -1.
          1    1    6    6  503    0  0.22798374737E+03  0.92022307337E+02  0.16672301340E+03  0.29705430027E+03  0.00000000000E+00 0. -1.
         -1    1    6    6    0  503  0.17634271813E+03  0.14603373731E+01  0.13451234345E+03  0.22179372706E+03  0.00000000000E+00 0.  1.
<mgrwt>
<rscale>  0 0.89873476E+03</rscale>
<asrwt>0</asrwt>
<pdfrwt beam="1">  1        1 0.28455607E+00 0.89873476E+03</pdfrwt>
<pdfrwt beam="2">  1       -1 0.10792182E+00 0.89873476E+03</pdfrwt>
<totfact> 0.30814315E+00</totfact>
</mgrwt>
</event>
<event>
12    1  0.3203156E-008  0.8459968E+03  0.7818608E-02  0.9495726E-01
         -2   -1    0    0    0  501 -0.00000000000E+00  0.00000000000E+00  0.82276631488E+03  0.82276631488E+03  0.00000000000E+00 0.  1.
          2   -1    0    0  501    0  0.00000000000E+00 -0.00000000000E+00 -0.10333090852E+04  0.10333090852E+04  0.00000000000E+00 0. -1.
         23    2    1    2    0    0  0.27497792212E+03  0.72188466899E+03  0.18743234201E+03  0.80005040360E+03  0.90661085899E+02 0.  0.
    5000000    2    1    2    0    0 -0.27497792212E+03 -0.72188466899E+03 -0.39797511236E+03  0.10560249965E+04  0.60006188864E+03 0.  0.
         23    2    4    4    0    0 -0.25046237454E+03 -0.99111557696E+02  0.42220892484E+02  0.28732451263E+03  0.90654673736E+02 0.  0.
         23    2    4    4    0    0 -0.24515547587E+02 -0.62277311129E+03 -0.44019600484E+03  0.76870048386E+03  0.93169474581E+02 0.  0.
          5    1    3    3  502    0  0.16986765649E+03  0.31993266784E+03  0.90707540871E+02  0.37344595412E+03  0.47000000000E+01 0. -1.
         -5    1    3    3    0  502  0.10511026563E+03  0.40195200114E+03  0.96724801139E+02  0.42660444948E+03  0.47000000000E+01 0.  1.
         11    1    5    5    0    0 -0.15694100110E+03 -0.13877644687E+02  0.19311305196E+02  0.15873245842E+03  0.00000000000E+00 0.  1.
        -11    1    5    5    0    0 -0.93521373433E+02 -0.85233913009E+02  0.22909587287E+02  0.12859205421E+03  0.00000000000E+00 0. -1.
          3    1    6    6  503    0  0.32984088135E+02 -0.33950436650E+03 -0.24215895346E+03  0.41832059916E+03  0.00000000000E+00 0. -1.
         -3    1    6    6    0  503 -0.57499635722E+02 -0.28326874479E+03 -0.19803705138E+03  0.35037988470E+03  0.00000000000E+00 0.  1.
<mgrwt>
<rscale>  0 0.84599680E+03</rscale>
<asrwt>0</asrwt>
<pdfrwt beam="1">  1        2 0.15897063E+00 0.84599680E+03</pdfrwt>
<pdfrwt beam="2">  1       -2 0.12657943E+00 0.84599680E+03</pdfrwt>
<totfact> 0.11218736E+01</totfact>
</mgrwt>
</event>
<event>
12    1  0.3203156E-008  0.6392177E+03  0.7818608E-02  0.9827224E-01
          2   -1    0    0  501    0  0.00000000000E+00  0.00000000000E+00  0.11363996013E+04  0.11363996013E+04  0.00000000000E+00 0. -1.
         -2   -1    0    0    0  501 -0.00000000000E+00 -0.00000000000E+00 -0.41587062152E+03  0.41587062152E+03  0.00000000000E+00 0.  1.
         23    2    1    2    0    0  0.22829343874E+03 -0.47294834358E+03  0.10126858559E+03  0.54265321693E+03  0.91755967376E+02 0.  0.
    5000000    2    1    2    0    0 -0.22829343874E+03  0.47294834358E+03  0.61926039424E+03  0.10096170059E+04  0.60003752627E+03 0.  0.
         23    2    4    4    0    0 -0.72013940373E+02  0.56445748693E+03  0.35567562106E+03  0.67736335945E+03  0.92291446764E+02 0.  0.
         23    2    4    4    0    0 -0.15627949837E+03 -0.91509143349E+02  0.26358477319E+03  0.33225364649E+03  0.90101875796E+02 0.  0.
          5    1    3    3  502    0  0.17800790874E+03 -0.32977405606E+03  0.10997731339E+03  0.39058269686E+03  0.47000000000E+01 0. -1.
         -5    1    3    3    0  502  0.50285529998E+02 -0.14317428753E+03 -0.87087278038E+01  0.15207052007E+03  0.47000000000E+01 0.  1.
         11    1    5    5    0    0 -0.57471169910E+02  0.31566265191E+03  0.14976449345E+03  0.35408367469E+03  0.00000000000E+00 0.  1.
        -11    1    5    5    0    0 -0.14542770463E+02  0.24879483502E+03  0.20591112760E+03  0.32327968476E+03  0.00000000000E+00 0. -1.
          1    1    6    6  503    0 -0.23086902352E+02 -0.20236354721E+02  0.11990738118E+03  0.12377517996E+03  0.00000000000E+00 0. -1.
         -1    1    6    6    0  503 -0.13319259602E+03 -0.71272788628E+02  0.14367739201E+03  0.20847846653E+03  0.00000000000E+00 0.  1.
<mgrwt>
<rscale>  0 0.63921774E+03</rscale>
<asrwt>0</asrwt>
<pdfrwt beam="1">  1        2 0.17483071E+00 0.63921774E+03</pdfrwt>
<pdfrwt beam="2">  1       -2 0.63980096E-01 0.63921774E+03</pdfrwt>
<totfact> 0.48068891E+01</totfact>
</mgrwt>
</event>
<event>
12    1  0.3203156E-008  0.3074517E+03  0.7818608E-02  0.1081574E+00
         -1   -1    0    0    0  501 -0.00000000000E+00  0.00000000000E+00  0.80881202857E+03  0.80881202857E+03  0.00000000000E+00 0.  1.
          1   -1    0    0  501    0  0.00000000000E+00 -0.00000000000E+00 -0.13911480344E+04  0.13911480344E+04  0.00000000000E+00 0. -1.
         23    2    1    2    0    0  0.10739585369E+03  0.21623970074E+03 -0.12464457699E+04  0.12729016868E+04  0.91423024514E+02 0.  0.
    5000000    2    1    2    0    0 -0.10739585369E+03 -0.21623970074E+03  0.66410976406E+03  0.92705837617E+03  0.60008497444E+03 0.  0.
         23    2    4    4    0    0 -0.10107696231E+03 -0.24585114122E+03  0.24666707815E+02  0.28200216997E+03  0.90870465206E+02 0.  0.
         23    2    4    4    0    0 -0.63188913794E+01  0.29611440480E+02  0.63944305625E+03  0.64505620620E+03  0.79330455591E+02 0.  0.
          5    1    3    3  502    0 -0.15404377219E+02  0.20214695496E+02 -0.16220041844E+03  0.16424674880E+03  0.47000000000E+01 0. -1.
         -5    1    3    3    0  502  0.12280023091E+03  0.19602500524E+03 -0.10842453514E+04  0.11086549380E+04  0.47000000000E+01 0.  1.
         13    1    5    5    0    0 -0.11558005288E+02 -0.10684444893E+03  0.42792143898E+02  0.11567407373E+03  0.00000000000E+00 0. -1.
        -13    1    5    5    0    0 -0.89518957020E+02 -0.13900669228E+03 -0.18125436083E+02  0.16632809624E+03  0.00000000000E+00 0.  1.
          4    1    6    6  503    0 -0.23252433649E+02  0.51916916394E+02  0.42169200612E+03  0.42551168010E+03  0.00000000000E+00 0.  1.
         -4    1    6    6    0  503  0.16933542270E+02 -0.22305475914E+02  0.21775105013E+03  0.21954452611E+03  0.00000000000E+00 0. -1.
<mgrwt>
<rscale>  0 0.30745166E+03</rscale>
<asrwt>0</asrwt>
<pdfrwt beam="1">  1        1 0.21402277E+00 0.30745166E+03</pdfrwt>
<pdfrwt beam="2">  1       -1 0.12443262E+00 0.30745166E+03</pdfrwt>
<totfact> 0.51488993E+00</totfact>
</mgrwt>
</event>
<event>
12    1  0.3203156E-008  0.1342700E+04  0.7818608E-02  0.8996373E-01
          2   -1    0    0  501    0  0.00000000000E+00  0.00000000000E+00  0.22707011939E+04  0.22707011939E+04  0.00000000000E+00 0. -1.
         -2   -1    0    0    0  501 -0.00000000000E+00 -0.00000000000E+00 -0.94203114224E+03  0.94203114224E+03  0.00000000000E+00 0.  1.
         23    2    1    2    0    0 -0.12748529316E+04  0.28984772917E+03  0.11861481098E+04  0.17671944030E+04  0.82261877788E+02 0.  0.
    5000000    2    1    2    0    0  0.12748529316E+04 -0.28984772917E+03  0.14252194191E+03  0.14455379331E+04  0.60000475748E+03 0.  0.
         23    2    4    4    0    0  0.97179283637E+03 -0.38686104075E+03  0.28073987306E+03  0.10867346457E+04  0.90191641365E+02 0.  0.
         23    2    4    4    0    0  0.30306009520E+03  0.97013311586E+02 -0.13821793115E+03  0.35880328744E+03  0.91534685550E+02 0.  0.
          5    1    3    3  502    0 -0.90938031903E+03  0.23729569765E+03  0.82226271027E+03  0.12487673392E+04  0.47000000000E+01 0.  1.
         -5    1    3    3    0  502 -0.36547261253E+03  0.52552031520E+02  0.36388539949E+03  0.51842706381E+03  0.47000000000E+01 0. -1.
         13    1    5    5    0    0  0.33796975475E+03 -0.88960059840E+02  0.96938930588E+02  0.36267699628E+03  0.00000000000E+00 0.  1.
        -13    1    5    5    0    0  0.63382308162E+03 -0.29790098091E+03  0.18380094248E+03  0.72405764942E+03  0.00000000000E+00 0. -1.
          3    1    6    6  503    0  0.14380887231E+03  0.79944772189E+01 -0.31480311644E+02  0.14743104640E+03  0.00000000000E+00 0. -1.
         -3    1    6    6    0  503  0.15925122288E+03  0.89018834367E+02 -0.10673761951E+03  0.21137224104E+03  0.00000000000E+00 0.  1.
<mgrwt>
<rscale>  0 0.13426998E+04</rscale>
<asrwt>0</asrwt>
<pdfrwt beam="1">  1        2 0.34933864E+00 0.13426998E+04</pdfrwt>
<pdfrwt beam="2">  1       -2 0.14492787E+00 0.13426998E+04</pdfrwt>
<totfact> 0.14839882E+00</totfact>
</mgrwt>
</event>
<event>
12    1  0.3203156E-008  0.4132614E+03  0.7818608E-02  0.1039282E+00
         -1   -1    0    0    0  501 -0.00000000000E+00  0.00000000000E+00  0.11835109486E+04  0.11835109486E+04  0.00000000000E+00 0.  1.
          1   -1    0    0  501    0  0.00000000000E+00 -0.00000000000E+00 -0.21763294437E+03  0.21763294437E+03  0.00000000000E+00 0. -1.
         23    2    1    2    0    0  0.13663609510E+03 -0.26625090233E+03  0.15429929954E+03  0.34891141676E+03  0.91498291967E+02 0.  0.
    5000000    2    1    2    0    0 -0.13663609510E+03  0.26625090233E+03  0.81157870473E+03  0.10522324762E+04  0.59914457738E+03 0.  0.
         23    2    4    4    0    0 -0.23095970635E+03  0.83180933397E+01  0.69869406653E+03  0.74150789931E+03  0.90823947837E+02 0.  0.
         23    2    4    4    0    0  0.94323611250E+02  0.25793280899E+03  0.11288463820E+03  0.31072457693E+03  0.91545308848E+02 0.  0.
          5    1    3    3  502    0  0.47771578362E+02 -0.17920691311E+03  0.11542951177E+03  0.21850241096E+03  0.47000000000E+01 0. -1.
         -5    1    3    3    0  502  0.88864516735E+02 -0.87043989219E+02  0.38869787766E+02  0.13040900580E+03  0.47000000000E+01 0.  1.
         11    1    5    5    0    0 -0.40069450461E+02 -0.26090007696E+02  0.80833770474E+02  0.93916706772E+02  0.00000000000E+00 0. -1.
        -11    1    5    5    0    0 -0.19089025589E+03  0.34408101036E+02  0.61786029606E+03  0.64759119254E+03  0.00000000000E+00 0.  1.
          1    1    6    6  503    0  0.48058285593E+02  0.12079933018E+03  0.48092829265E+01  0.13009691075E+03  0.00000000000E+00 0. -1.
         -1    1    6    6    0  503  0.46265325657E+02  0.13713347882E+03  0.10807535528E+03  0.18062766618E+03  0.00000000000E+00 0.  1.
<mgrwt>
<rscale>  0 0.41326140E+03</rscale>
<asrwt>0</asrwt>
<pdfrwt beam="1">  1        1 0.33481992E-01 0.41326140E+03</pdfrwt>
<pdfrwt beam="2">  1       -1 0.18207860E+00 0.41326140E+03</pdfrwt>
<totfact> 0.28571227E+01</totfact>
</mgrwt>
</event>
<event>
12    1  0.3203156E-008  0.6090336E+03  0.7818608E-02  0.9886840E-01
          1   -1    0    0  501    0  0.00000000000E+00  0.00000000000E+00  0.92733097602E+03  0.92733097602E+03  0.00000000000E+00 0. -1.
         -1   -1    0    0    0  501 -0.00000000000E+00 -0.00000000000E+00 -0.44587802042E+03  0.44587802042E+03  0.00000000000E+00 0.  1.
         23    2    1    2    0    0 -0.36770358494E+03  0.32079364360E+03  0.83216525747E+02  0.50331899645E+03  0.91052368906E+02 0.  0.
    5000000    2    1    2    0    0  0.36770358494E+03 -0.32079364360E+03  0.39823642985E+03  0.86988999999E+03  0.60000155823E+03 0.  0.
         23    2    4    4    0    0  0.75334354019E+02  0.14946611850E+03  0.18214440693E+02  0.19187070750E+03  0.92017482418E+02 0.  0.
         23    2    4    4    0    0  0.29236923092E+03 -0.47025976210E+03  0.38002198916E+03  0.67801929249E+03  0.93109815316E+02 0.  0.
          5    1    3    3  502    0 -0.83760176603E+02  0.38806021658E+02 -0.82375342635E+01  0.92798822580E+02  0.47000000000E+01 0. -1.
         -5    1    3    3    0  502 -0.28394340834E+03  0.28198762194E+03  0.91454060010E+02  0.41052017387E+03  0.47000000000E+01 0.  1.
         13    1    5    5    0    0  0.56800021341E+02  0.11595137518E+03 -0.27726892990E+02  0.13205962451E+03  0.00000000000E+00 0.  1.
        -13    1    5    5    0    0  0.18534332678E+02  0.33514743321E+02  0.45941333683E+02  0.59811082988E+02  0.00000000000E+00 0. -1.
          3    1    6    6  503    0  0.10606138186E+03 -0.11225509577E+03  0.14006275962E+03  0.20848932798E+03  0.00000000000E+00 0. -1.
         -3    1    6    6    0  503  0.18630784906E+03 -0.35800466633E+03  0.23995922954E+03  0.46952996451E+03  0.00000000000E+00 0.  1.
<mgrwt>
<rscale>  0 0.60903356E+03</rscale>
<asrwt>0</asrwt>
<pdfrwt beam="1">  1        1 0.14266630E+00 0.60903356E+03</pdfrwt>
<pdfrwt beam="2">  1       -1 0.68596619E-01 0.60903356E+03</pdfrwt>
<totfact> 0.38733370E+01</totfact>
</mgrwt>
</event>
<event>
12    1  0.3203156E-008  0.1399158E+04  0.7818608E-02  0.8954428E-01
         -2   -1    0    0    0  501 -0.00000000000E+00  0.00000000000E+00  0.20535741522E+04  0.20535741522E+04  0.00000000000E+00 0.  1.
          2   -1    0    0  501    0  0.00000000000E+00 -0.00000000000E+00 -0.10702228604E+04  0.10702228604E+04  0.00000000000E+00 0. -1.
         23    2    1    2    0    0 -0.11855480893E+04  0.63365608783E+03 -0.10668800245E+02  0.13474904517E+04  0.92587172207E+02 0.  0.
    5000000    2    1    2    0    0  0.11855480893E+04 -0.63365608783E+03  0.99402009213E+03  0.17763065609E+04  0.60012060875E+03 0.  0.
         23    2    4    4    0    0  0.18089782026E+03 -0.35814996985E+03  0.39855770233E+03  0.57285669930E+03  0.91220247534E+02 0.  0.
         23    2    4    4    0    0  0.10046502690E+04 -0.27550611798E+03  0.59546238979E+03  0.12034498616E+04  0.92142973760E+02 0.  0.
          5    1    3    3  502    0 -0.22930054265E+03  0.16071150907E+03  0.13755575407E+02  0.28038943250E+03  0.47000000000E+01 0. -1.
         -5    1    3    3    0  502 -0.95624754665E+03  0.47294457877E+03 -0.24424375652E+02  0.10671010192E+04  0.47000000000E+01 0.  1.
         13    1    5    5    0    0  0.98840070130E+02 -0.12267775436E+03  0.19684505718E+03  0.25212530102E+03  0.00000000000E+00 0.  1.
        -13    1    5    5    0    0  0.82057750132E+02 -0.23547221549E+03  0.20171264515E+03  0.32073139827E+03  0.00000000000E+00 0. -1.
          1    1    6    6  503    0  0.64297927718E+03 -0.21413760490E+03  0.41440873564E+03  0.79436255255E+03  0.00000000000E+00 0. -1.
         -1    1    6    6    0  503  0.36167099185E+03 -0.61368513084E+02  0.18105365415E+03  0.40908730905E+03  0.00000000000E+00 0.  1.
<mgrwt>
<rscale>  0 0.13991577E+04</rscale>
<asrwt>0</asrwt>
<pdfrwt beam="1">  1        2 0.16464967E+00 0.13991577E+04</pdfrwt>
<pdfrwt beam="2">  1       -2 0.31593448E+00 0.13991577E+04</pdfrwt>
<totfact> 0.55188388E-01</totfact>
</mgrwt>
</event>
<event>
12    1  0.3203156E-008  0.4315050E+03  0.7818608E-02  0.1033386E+00
         -4   -1    0    0    0  501 -0.00000000000E+00  0.00000000000E+00  0.45261124291E+03  0.45261124291E+03  0.00000000000E+00 0. -1.
          4   -1    0    0  501    0  0.00000000000E+00 -0.00000000000E+00 -0.44340137995E+03  0.44340137995E+03  0.00000000000E+00 0.  1.
         23    2    1    2    0    0 -0.89792526711E+02  0.21503503920E+03 -0.24504924667E+02  0.25146982960E+03  0.91289747120E+02 0.  0.
    5000000    2    1    2    0    0  0.89792526711E+02 -0.21503503920E+03  0.33714787621E+02  0.64454279326E+03  0.59999663291E+03 0.  0.
         23    2    4    4    0    0 -0.20164493820E+03  0.63953189664E+02  0.15698236905E+01  0.23008849571E+03  0.90485136572E+02 0.  0.
         23    2    4    4    0    0  0.29143746491E+03 -0.27898822887E+03  0.32144963930E+02  0.41445429755E+03  0.89268349645E+02 0.  0.
          5    1    3    3  502    0 -0.62044248170E+02  0.15556294505E+03 -0.58432582030E+02  0.17744231526E+03  0.47000000000E+01 0. -1.
         -5    1    3    3    0  502 -0.27748278542E+02  0.59472094152E+02  0.33927657363E+02  0.74027514338E+02  0.47000000000E+01 0.  1.
         11    1    5    5    0    0 -0.13322612499E+03  0.67951839414E+02 -0.33262677154E+02  0.15320919865E+03  0.00000000000E+00 0. -1.
        -11    1    5    5    0    0 -0.68418813212E+02 -0.39986497502E+01  0.34832500844E+02  0.76879297059E+02  0.00000000000E+00 0.  1.
          1    1    6    6  503    0  0.72882383879E+02 -0.26288892512E+02  0.20526513159E+02  0.80151640606E+02  0.00000000000E+00 0. -1.
         -1    1    6    6    0  503  0.21855508104E+03 -0.25269933635E+03  0.11618450771E+02  0.33430265694E+03  0.00000000000E+00 0.  1.
<mgrwt>
<rscale>  0 0.43150504E+03</rscale>
<asrwt>0</asrwt>
<pdfrwt beam="1">  1        4 0.68215597E-01 0.43150504E+03</pdfrwt>
<pdfrwt beam="2">  1       -4 0.69632499E-01 0.43150504E+03</pdfrwt>
<totfact> 0.72509057E+00</totfact>
</mgrwt>
</event>
<event>
12    1  0.3203156E-008  0.1198036E+04  0.7818608E-02  0.9114578E-01
         -2   -1    0    0    0  501 -0.00000000000E+00  0.00000000000E+00  0.57807780646E+03  0.57807780646E+03  0.00000000000E+00 0.  1.
          2   -1    0    0  501    0  0.00000000000E+00 -0.00000000000E+00 -0.27703714374E+04  0.27703714374E+04  0.00000000000E+00 0. -1.
         23    2    1    2    0    0  0.24042716442E+03 -0.11656117322E+04 -0.11361601112E+04  0.16479238852E+04  0.91309372711E+02 0.  0.
    5000000    2    1    2    0    0 -0.24042716442E+03  0.11656117322E+04 -0.10561335198E+04  0.17005253587E+04  0.59992712256E+03 0.  0.
         23    2    4    4    0    0 -0.21391705525E+03  0.68727931205E+03 -0.26767986499E+03  0.77338460301E+03  0.91421413017E+02 0.  0.
         23    2    4    4    0    0 -0.26510109179E+02  0.47833242013E+03 -0.78845365482E+03  0.92714075571E+03  0.91793927097E+02 0.  0.
          5    1    3    3  502    0  0.17991140333E+03 -0.71964682782E+03 -0.75009691378E+03  0.10549536198E+04  0.47000000000E+01 0. -1.
         -5    1    3    3    0  502  0.60515761096E+02 -0.44596490436E+03 -0.38606319739E+03  0.59297026540E+03  0.47000000000E+01 0.  1.
         11    1    5    5    0    0 -0.45839949631E+02  0.18235170623E+03 -0.11225392399E+03  0.21898490633E+03  0.00000000000E+00 0.  1.
        -11    1    5    5    0    0 -0.16807710561E+03  0.50492760582E+03 -0.15542594100E+03  0.55439969669E+03  0.00000000000E+00 0. -1.
          4    1    6    6  503    0  0.23602132594E+02  0.16463549234E+03 -0.21803287713E+03  0.27422662436E+03  0.00000000000E+00 0. -1.
         -4    1    6    6    0  503 -0.50112241773E+02  0.31369692779E+03 -0.57042077770E+03  0.65291413134E+03  0.00000000000E+00 0.  1.
<mgrwt>
<rscale>  0 0.11980358E+04</rscale>
<asrwt>0</asrwt>
<pdfrwt beam="1">  1        2 0.42621098E+00 0.11980358E+04</pdfrwt>
<pdfrwt beam="2">  1       -2 0.88935049E-01 0.11980358E+04</pdfrwt>
<totfact> 0.25880817E+00</totfact>
</mgrwt>
</event>
<event>
12    1  0.3203156E-008  0.1123317E+04  0.7818608E-02  0.9182759E-01
          2   -1    0    0  501    0  0.00000000000E+00  0.00000000000E+00  0.13512956811E+04  0.13512956811E+04  0.00000000000E+00 0. -1.
         -2   -1    0    0    0  501 -0.00000000000E+00 -0.00000000000E+00 -0.11224332958E+04  0.11224332958E+04  0.00000000000E+00 0.  1.
         23    2    1    2    0    0  0.58094330664E+03  0.91306218511E+03 -0.30103936449E+03  0.11275986850E+04  0.98368775974E+02 0.  0.
    5000000    2    1    2    0    0 -0.58094330664E+03 -0.91306218511E+03  0.52990174974E+03  0.13461302919E+04  0.60007767747E+03 0.  0.
         23    2    4    4    0    0 -0.16323114785E+03 -0.30069696856E+02  0.27305182383E+03  0.33191651107E+03  0.89792413525E+02 0.  0.
         23    2    4    4    0    0 -0.41771215878E+03 -0.88299248825E+03  0.25684992591E+03  0.10142137808E+04  0.92187455095E+02 0.  0.
          5    1    3    3  502    0  0.45600009942E+03  0.69383230656E+03 -0.18926447357E+03  0.85157647411E+03  0.47000000000E+01 0. -1.
         -5    1    3    3    0  502  0.12494320722E+03  0.21922987854E+03 -0.11177489091E+03  0.27602221091E+03  0.47000000000E+01 0.  1.
         13    1    5    5    0    0 -0.61822546333E+02 -0.52586310313E+02  0.15273947607E+03  0.17296443223E+03  0.00000000000E+00 0.  1.
        -13    1    5    5    0    0 -0.10140860152E+03  0.22516613457E+02  0.12031234776E+03  0.15895207884E+03  0.00000000000E+00 0. -1.
          3    1    6    6  503    0 -0.35465922348E+03 -0.68847900320E+03  0.17514561496E+03  0.79401668061E+03  0.00000000000E+00 0. -1.
         -3    1    6    6    0  503 -0.63052935308E+02 -0.19451348505E+03  0.81704310944E+02  0.22019710022E+03  0.00000000000E+00 0.  1.
<mgrwt>
<rscale>  0 0.11233167E+04</rscale>
<asrwt>0</asrwt>
<pdfrwt beam="1">  1        2 0.20789164E+00 0.11233167E+04</pdfrwt>
<pdfrwt beam="2">  1       -2 0.17268205E+00 0.11233167E+04</pdfrwt>
<totfact> 0.30810546E+00</totfact>
</mgrwt>
</event>
<event>
12    1  0.3203156E-008  0.2850471E+03  0.7818608E-02  0.1092964E+00
         -2   -1    0    0    0  501 -0.00000000000E+00  0.00000000000E+00  0.81722445365E+03  0.81722445365E+03  0.00000000000E+00 0.  1.
          2   -1    0    0  501    0  0.00000000000E+00 -0.00000000000E+00 -0.21405710061E+03  0.21405710061E+03  0.00000000000E+00 0. -1.
         23    2    1    2    0    0 -0.22599902242E+02  0.13688658101E+03 -0.57550599241E+00  0.16877214344E+03  0.96098977904E+02 0.  0.
    5000000    2    1    2    0    0  0.22599902242E+02 -0.13688658101E+03  0.60374285903E+03  0.86250941082E+03  0.60014027717E+03 0.  0.
         23    2    4    4    0    0  0.18520248193E+03  0.27558429434E+02 -0.16433545294E+01  0.20809538393E+03  0.90783048279E+02 0.  0.
         23    2    4    4    0    0 -0.16260257969E+03 -0.16444501044E+03  0.60538621356E+03  0.65441402689E+03  0.91013683820E+02 0.  0.
          5    1    3    3  502    0 -0.12490851088E+02  0.50124234937E+02 -0.46775085067E+02  0.69845965323E+02  0.47000000000E+01 0. -1.
         -5    1    3    3    0  502 -0.10109051154E+02  0.86762346071E+02  0.46199579074E+02  0.98926178121E+02  0.47000000000E+01 0.  1.
         11    1    5    5    0    0  0.14538590265E+03  0.32451893442E+02 -0.38240588521E+02  0.15379378625E+03  0.00000000000E+00 0.  1.
        -11    1    5    5    0    0  0.39816579272E+02 -0.48934640083E+01  0.36597233992E+02  0.54301597682E+02  0.00000000000E+00 0. -1.
          1    1    6    6  503    0  0.21984244998E+01 -0.26957918656E+02  0.13062017811E+03  0.13339112931E+03  0.00000000000E+00 0. -1.
         -1    1    6    6    0  503 -0.16480100418E+03 -0.13748709179E+03  0.47476603545E+03  0.52102289758E+03  0.00000000000E+00 0.  1.
<mgrwt>
<rscale>  0 0.28504710E+03</rscale>
<asrwt>0</asrwt>
<pdfrwt beam="1">  1        2 0.32931862E-01 0.28504710E+03</pdfrwt>
<pdfrwt beam="2">  1       -2 0.12572684E+00 0.28504710E+03</pdfrwt>
<totfact> 0.78804563E+01</totfact>
</mgrwt>
</event>
<event>
12    1  0.3203156E-008  0.2980582E+04  0.7818608E-02  0.8249298E-01
          2   -1    0    0  501    0  0.00000000000E+00  0.00000000000E+00  0.40876194248E+04  0.40876194248E+04  0.00000000000E+00 0. -1.
         -2   -1    0    0    0  501 -0.00000000000E+00 -0.00000000000E+00 -0.29253881506E+04  0.29253881506E+04  0.00000000000E+00 0.  1.
         23    2    1    2    0    0  0.39367327228E+03 -0.29523533680E+04 -0.11507502629E+04  0.31944649982E+04  0.94928403344E+02 0.  0.
    5000000    2    1    2    0    0 -0.39367327228E+03  0.29523533680E+04  0.23129815371E+04  0.38185425772E+04  0.60001230639E+03 0.  0.
         23    2    4    4    0    0 -0.89252972620E+02  0.11314269541E+04  0.55173712538E+03  0.12654640610E+04  0.94299462328E+02 0.  0.
         23    2    4    4    0    0 -0.30442029966E+03  0.18209264140E+04  0.17612444118E+04  0.25530785163E+04  0.88223059405E+02 0.  0.
          5    1    3    3  502    0  0.28460972026E+03 -0.20733887510E+04 -0.85376093341E+03  0.22602817141E+04  0.47000000000E+01 0. -1.
         -5    1    3    3    0  502  0.10906355202E+03 -0.87896461701E+03 -0.29698932951E+03  0.93418328404E+03  0.47000000000E+01 0.  1.
         11    1    5    5    0    0 -0.85952291887E+02  0.93975706211E+03  0.42037629844E+03  0.10330766499E+04  0.00000000000E+00 0. -1.
        -11    1    5    5    0    0 -0.33006807337E+01  0.19166989194E+03  0.13136082694E+03  0.23238741107E+03  0.00000000000E+00 0.  1.
          3    1    6    6  503    0 -0.23536417491E+03  0.12329097188E+04  0.11558036272E+04  0.17062663023E+04  0.00000000000E+00 0. -1.
         -3    1    6    6    0  503 -0.69056124757E+02  0.58801669515E+03  0.60544078451E+03  0.84681221395E+03  0.00000000000E+00 0.  1.
<mgrwt>
<rscale>  0 0.29805822E+04</rscale>
<asrwt>0</asrwt>
<pdfrwt beam="1">  1        2 0.62886452E+00 0.29805822E+04</pdfrwt>
<pdfrwt beam="2">  1       -2 0.45005972E+00 0.29805822E+04</pdfrwt>
<totfact> 0.78957539E-04</totfact>
</mgrwt>
</event>
<event>
12    1  0.3203156E-008  0.1825484E+04  0.7818608E-02  0.8692863E-01
          1   -1    0    0  501    0  0.00000000000E+00  0.00000000000E+00  0.23242286413E+04  0.23242286413E+04  0.00000000000E+00 0. -1.
         -1   -1    0    0    0  501 -0.00000000000E+00 -0.00000000000E+00 -0.17300390994E+04  0.17300390994E+04  0.00000000000E+00 0.  1.
         23    2    1    2    0    0 -0.12179549739E+04  0.13292115308E+04  0.10661692655E+04  0.20964179491E+04  0.89630923559E+02 0.  0.
    5000000    2    1    2    0    0  0.12179549739E+04 -0.13292115308E+04 -0.47197972362E+03  0.19578497916E+04  0.60016109066E+03 0.  0.
         23    2    4    4    0    0  0.11862599173E+04 -0.11143357755E+04 -0.28201923904E+03  0.16543354385E+04  0.91291182225E+02 0.  0.
         23    2    4    4    0    0  0.31695056561E+02 -0.21487575535E+03 -0.18996048458E+03  0.30351435306E+03  0.94126563554E+02 0.  0.
          5    1    3    3  502    0 -0.73369913258E+03  0.81935128091E+03  0.60177780942E+03  0.12537182940E+04  0.47000000000E+01 0. -1.
         -5    1    3    3    0  502 -0.48425584130E+03  0.50986024990E+03  0.46439145608E+03  0.84269965512E+03  0.47000000000E+01 0.  1.
         13    1    5    5    0    0  0.79829654368E+03 -0.75002607469E+03 -0.23311942443E+03  0.11198933656E+04  0.00000000000E+00 0.  1.
        -13    1    5    5    0    0  0.38796337364E+03 -0.36430970077E+03 -0.48899814609E+02  0.53444207285E+03  0.00000000000E+00 0. -1.
          2    1    6    6  503    0  0.12166226456E+01 -0.13284909031E+03 -0.57510151158E+02  0.14476801599E+03  0.00000000000E+00 0. -1.
         -2    1    6    6    0  503  0.30478433916E+02 -0.82026665039E+02 -0.13245033342E+03  0.15874633707E+03  0.00000000000E+00 0.  1.
<mgrwt>
<rscale>  0 0.18254844E+04</rscale>
<asrwt>0</asrwt>
<pdfrwt beam="1">  1        1 0.35757364E+00 0.18254844E+04</pdfrwt>
<pdfrwt beam="2">  1       -1 0.26615986E+00 0.18254844E+04</pdfrwt>
<totfact> 0.88941840E-02</totfact>
</mgrwt>
</event>
<event>
12    1  0.3203156E-008  0.1820303E+04  0.7818608E-02  0.8695576E-01
         -2   -1    0    0    0  501 -0.00000000000E+00  0.00000000000E+00  0.18117735479E+04  0.18117735479E+04  0.00000000000E+00 0.  1.
          2   -1    0    0  501    0  0.00000000000E+00 -0.00000000000E+00 -0.18368617624E+04  0.18368617624E+04  0.00000000000E+00 0. -1.
         23    2    1    2    0    0  0.17715582421E+04  0.87286258002E+02 -0.24836332529E+02  0.17761940580E+04  0.90614526213E+02 0.  0.
    5000000    2    1    2    0    0 -0.17715582421E+04 -0.87286258002E+02 -0.25188191801E+00  0.18724412522E+04  0.59999890300E+03 0.  0.
         23    2    4    4    0    0 -0.89920235290E+03  0.23733819254E+03 -0.54335151568E+02  0.93608910345E+03  0.91739913900E+02 0.  0.
         23    2    4    4    0    0 -0.87235588921E+03 -0.32462445054E+03  0.54083269650E+02  0.93635214878E+03  0.86281603795E+02 0.  0.
          5    1    3    3  502    0  0.75180006678E+03  0.41389298798E+00  0.14863829380E+02  0.75196179101E+03  0.47000000000E+01 0. -1.
         -5    1    3    3    0  502  0.10197581753E+04  0.86872365014E+02 -0.39700161909E+02  0.10242322670E+04  0.47000000000E+01 0.  1.
         13    1    5    5    0    0 -0.47271222943E+03  0.97064912694E+02 -0.65403658704E+02  0.48698674284E+03  0.00000000000E+00 0.  1.
        -13    1    5    5    0    0 -0.42649012347E+03  0.14027327984E+03  0.11068507136E+02  0.44910236061E+03  0.00000000000E+00 0. -1.
          1    1    6    6  503    0 -0.63483696264E+03 -0.27118176947E+03  0.58974172390E+02  0.69284592388E+03  0.00000000000E+00 0. -1.
         -1    1    6    6    0  503 -0.23751892657E+03 -0.53442681067E+02 -0.48909027400E+01  0.24350622490E+03  0.00000000000E+00 0.  1.
<mgrwt>
<rscale>  0 0.18203034E+04</rscale>
<asrwt>0</asrwt>
<pdfrwt beam="1">  1        2 0.28259412E+00 0.18203034E+04</pdfrwt>
<pdfrwt beam="2">  1       -2 0.27873439E+00 0.18203034E+04</pdfrwt>
<totfact> 0.32055142E-01</totfact>
</mgrwt>
</event>
<event>
12    1  0.3203156E-008  0.1749708E+04  0.7818608E-02  0.8733511E-01
         -1   -1    0    0    0  501 -0.00000000000E+00  0.00000000000E+00  0.14858549421E+04  0.14858549421E+04  0.00000000000E+00 0.  1.
          1   -1    0    0  501    0  0.00000000000E+00 -0.00000000000E+00 -0.29546549978E+04  0.29546549978E+04  0.00000000000E+00 0. -1.
         23    2    1    2    0    0 -0.77219232617E+03 -0.15507762853E+04  0.44391497748E+03  0.17910294801E+04  0.97662764597E+02 0.  0.
    5000000    2    1    2    0    0  0.77219232617E+03  0.15507762853E+04 -0.19127150332E+04  0.26494804597E+04  0.60006652343E+03 0.  0.
         23    2    4    4    0    0  0.62411642914E+03  0.14174151637E+04 -0.18650746814E+04  0.24259961432E+04  0.91469427486E+02 0.  0.
         23    2    4    4    0    0  0.14807589704E+03  0.13336112164E+03 -0.47640351828E+02  0.22348431657E+03  0.89241114869E+02 0.  0.
          5    1    3    3  502    0 -0.40923317386E+03 -0.86290118107E+03  0.19840837012E+03  0.97542719370E+03  0.47000000000E+01 0. -1.
         -5    1    3    3    0  502 -0.36295915232E+03 -0.68787510426E+03  0.24550660736E+03  0.81560228640E+03  0.47000000000E+01 0.  1.
         13    1    5    5    0    0  0.20301039779E+03  0.43379942081E+03 -0.64171902166E+03  0.80074868834E+03  0.00000000000E+00 0.  1.
        -13    1    5    5    0    0  0.42110603135E+03  0.98361574289E+03 -0.12233556597E+04  0.16252474548E+04  0.00000000000E+00 0. -1.
          1    1    6    6  503    0  0.76212193937E+02  0.12353608769E+03 -0.23518514343E+02  0.14704619677E+03  0.00000000000E+00 0. -1.
         -1    1    6    6    0  503  0.71863703101E+02  0.98250339457E+01 -0.24121837485E+02  0.76438119803E+02  0.00000000000E+00 0.  1.
<mgrwt>
<rscale>  0 0.17497075E+04</rscale>
<asrwt>0</asrwt>
<pdfrwt beam="1">  1        1 0.45456231E+00 0.17497075E+04</pdfrwt>
<pdfrwt beam="2">  1       -1 0.22859307E+00 0.17497075E+04</pdfrwt>
<totfact> 0.56999243E-02</totfact>
</mgrwt>
</event>
<event>
12    1  0.3203156E-008  0.1489817E+04  0.7818608E-02  0.8891253E-01
         -2   -1    0    0    0  501 -0.00000000000E+00  0.00000000000E+00  0.15281564449E+04  0.15281564449E+04  0.00000000000E+00 0.  1.
          2   -1    0    0  501    0  0.00000000000E+00 -0.00000000000E+00 -0.19135283256E+04  0.19135283256E+04  0.00000000000E+00 0. -1.
         23    2    1    2    0    0  0.29999649821E+03  0.14059141194E+04  0.64046745726E+03  0.15764971945E+04  0.92479351791E+02 0.  0.
    5000000    2    1    2    0    0 -0.29999649821E+03 -0.14059141194E+04 -0.10258393379E+04  0.18651875759E+04  0.59998828002E+03 0.  0.
         23    2    4    4    0    0 -0.45996679708E+03 -0.10119358209E+04 -0.64813129380E+03  0.12894572631E+04  0.83918409751E+02 0.  0.
         23    2    4    4    0    0  0.15997029888E+03 -0.39397829855E+03 -0.37770804410E+03  0.57573031280E+03  0.89401511468E+02 0.  0.
          5    1    3    3  502    0  0.98236019715E+02  0.57346533543E+03  0.30137128324E+03  0.65525532952E+03  0.47000000000E+01 0. -1.
         -5    1    3    3    0  502  0.20176047849E+03  0.83244878397E+03  0.33909617402E+03  0.92124186501E+03  0.47000000000E+01 0.  1.
         13    1    5    5    0    0 -0.42353604907E+03 -0.87322078659E+03 -0.58069412511E+03  0.11309743560E+04  0.00000000000E+00 0. -1.
        -13    1    5    5    0    0 -0.36430748014E+02 -0.13871503427E+03 -0.67437168687E+02  0.15848290713E+03  0.00000000000E+00 0.  1.
          4    1    6    6  503    0 -0.25228212687E+01 -0.10828407938E+02  0.31798252007E+01  0.11564183237E+02  0.00000000000E+00 0. -1.
         -4    1    6    6    0  503  0.16249312014E+03 -0.38314989061E+03 -0.38088786930E+03  0.56416612956E+03  0.00000000000E+00 0.  1.
<mgrwt>
<rscale>  0 0.14898173E+04</rscale>
<asrwt>0</asrwt>
<pdfrwt beam="1">  1        2 0.29438897E+00 0.14898173E+04</pdfrwt>
<pdfrwt beam="2">  1       -2 0.23510099E+00 0.14898173E+04</pdfrwt>
<totfact> 0.55684133E-01</totfact>
</mgrwt>
</event>
<event>
12    1  0.3203156E-008  0.7714702E+03  0.7818608E-02  0.9602256E-01
         -2   -1    0    0    0  501 -0.00000000000E+00  0.00000000000E+00  0.26996916417E+03  0.26996916417E+03  0.00000000000E+00 0.  1.
          2   -1    0    0  501    0  0.00000000000E+00 -0.00000000000E+00 -0.25334093107E+04  0.25334093107E+04  0.00000000000E+00 0. -1.
         23    2    1    2    0    0 -0.62371841752E+03 -0.26016467602E+03 -0.13821582303E+04  0.15410563850E+04  0.88221795419E+02 0.  0.
    5000000    2    1    2    0    0  0.62371841752E+03  0.26016467602E+03 -0.88128191629E+03  0.12623220899E+04  0.60007409519E+03 0.  0.
         23    2    4    4    0    0  0.62036275197E+03  0.25843350432E+02 -0.75200269072E+03  0.97945272346E+03  0.91114037646E+02 0.  0.
         23    2    4    4    0    0  0.33556655522E+01  0.23432132559E+03 -0.12927922556E+03  0.28286936645E+03  0.91565365710E+02 0.  0.
          5    1    3    3  502    0 -0.13515911202E+03 -0.96240103845E+02 -0.32087081419E+03  0.36126211059E+03  0.47000000000E+01 0.  1.
         -5    1    3    3    0  502 -0.48855930550E+03 -0.16392457218E+03 -0.10612874161E+04  0.11797942744E+04  0.47000000000E+01 0. -1.
         13    1    5    5    0    0  0.16307626556E+03 -0.29537933322E+02 -0.22628770399E+03  0.28048615451E+03  0.00000000000E+00 0.  1.
        -13    1    5    5    0    0  0.45728648641E+03  0.55381283754E+02 -0.52571498673E+03  0.69896656895E+03  0.00000000000E+00 0. -1.
          4    1    6    6  503    0 -0.85367566712E+01  0.75767312669E+02  0.26060193532E+01  0.76291239474E+02  0.00000000000E+00 0. -1.
         -4    1    6    6    0  503  0.11892422223E+02  0.15855401292E+03 -0.13188524492E+03  0.20657812698E+03  0.00000000000E+00 0.  1.
<mgrwt>
<rscale>  0 0.77147019E+03</rscale>
<asrwt>0</asrwt>
<pdfrwt beam="1">  1        2 0.38975528E+00 0.77147019E+03</pdfrwt>
<pdfrwt beam="2">  1       -2 0.41533717E-01 0.77147019E+03</pdfrwt>
<totfact> 0.19077085E+01</totfact>
</mgrwt>
</event>
<event>
12    1  0.3203156E-008  0.9694488E+03  0.7818608E-02  0.9342702E-01
          1   -1    0    0  501    0  0.00000000000E+00  0.00000000000E+00  0.18290151905E+04  0.18290151905E+04  0.00000000000E+00 0. -1.
         -1   -1    0    0    0  501 -0.00000000000E+00 -0.00000000000E+00 -0.55367551212E+03  0.55367551212E+03  0.00000000000E+00 0.  1.
         23    2    1    2    0    0 -0.32235014846E+03  0.84442746327E+03  0.74628392172E+03  0.11757200392E+04  0.91709104989E+02 0.  0.
    5000000    2    1    2    0    0  0.32235014846E+03 -0.84442746327E+03  0.52905575667E+03  0.12069706634E+04  0.59992568680E+03 0.  0.
         23    2    4    4    0    0  0.28676561255E+03 -0.15403717610E+03  0.35168347347E+03  0.48770411520E+03  0.90620473972E+02 0.  0.
         23    2    4    4    0    0  0.35584535918E+02 -0.69039028716E+03  0.17737228320E+03  0.71926654819E+03  0.89322072850E+02 0.  0.
          5    1    3    3  502    0 -0.21991744816E+02  0.15289277841E+03  0.12561381974E+03  0.19915009475E+03  0.47000000000E+01 0. -1.
         -5    1    3    3    0  502 -0.30035840365E+03  0.69153468486E+03  0.62067010198E+03  0.97656994450E+03  0.47000000000E+01 0.  1.
         11    1    5    5    0    0  0.25703385135E+03 -0.16088041707E+03  0.29350832641E+03  0.42201427347E+03  0.00000000000E+00 0. -1.
        -11    1    5    5    0    0  0.29731761192E+02  0.68432409622E+01  0.58175147065E+02  0.65689841730E+02  0.00000000000E+00 0.  1.
          3    1    6    6  503    0  0.63853908269E+02 -0.42555064990E+03  0.97775794876E+02  0.44128311014E+03  0.00000000000E+00 0. -1.
         -3    1    6    6    0  503 -0.28269372351E+02 -0.26483963726E+03  0.79596488323E+02  0.27798343805E+03  0.00000000000E+00 0.  1.
<mgrwt>
<rscale>  0 0.96944883E+03</rscale>
<asrwt>0</asrwt>
<pdfrwt beam="1">  1        1 0.28138695E+00 0.96944883E+03</pdfrwt>
<pdfrwt beam="2">  1       -1 0.85180849E-01 0.96944883E+03</pdfrwt>
<totfact> 0.53751465E+00</totfact>
</mgrwt>
</event>
<event>
12    1  0.3203156E-008  0.6230685E+03  0.7818608E-02  0.9858669E-01
          2   -1    0    0  501    0  0.00000000000E+00  0.00000000000E+00  0.21066842940E+04  0.21066842940E+04  0.00000000000E+00 0. -1.
         -2   -1    0    0    0  501 -0.00000000000E+00 -0.00000000000E+00 -0.28192044632E+03  0.28192044632E+03  0.00000000000E+00 0.  1.
         23    2    1    2    0    0  0.14989248204E+02  0.59388868316E+03  0.11869544986E+04  0.13304954450E+04  0.91807961525E+02 0.  0.
    5000000    2    1    2    0    0 -0.14989248204E+02 -0.59388868316E+03  0.63780934908E+03  0.10581092954E+04  0.59988838095E+03 0.  0.
         23    2    4    4    0    0 -0.38620118588E+01 -0.43417720697E+02  0.46223234185E+03  0.47315797480E+03  0.91212486275E+02 0.  0.
         23    2    4    4    0    0 -0.11127236345E+02 -0.55047096246E+03  0.17557700722E+03  0.58495132056E+03  0.90546485615E+02 0.  0.
          5    1    3    3  502    0 -0.21426941452E+01  0.57083411239E+03  0.11093370047E+04  0.12476004389E+04  0.47000000000E+01 0. -1.
         -5    1    3    3    0  502  0.17131942349E+02  0.23054570770E+02  0.77617493871E+02  0.82895006103E+02  0.47000000000E+01 0.  1.
         13    1    5    5    0    0 -0.29059690286E+02 -0.53874172159E+02  0.19127764984E+03  0.20083334223E+03  0.00000000000E+00 0.  1.
        -13    1    5    5    0    0  0.25197678427E+02  0.10456451462E+02  0.27095469202E+03  0.27232463256E+03  0.00000000000E+00 0. -1.
          3    1    6    6  503    0  0.35107166572E+02 -0.35877718053E+03  0.12260400489E+03  0.38076937959E+03  0.00000000000E+00 0. -1.
         -3    1    6    6    0  503 -0.46234402917E+02 -0.19169378193E+03  0.52973002329E+02  0.20418194097E+03  0.00000000000E+00 0.  1.
<mgrwt>
<rscale>  0 0.62306845E+03</rscale>
<asrwt>0</asrwt>
<pdfrwt beam="1">  1        2 0.32410527E+00 0.62306845E+03</pdfrwt>
<pdfrwt beam="2">  1       -2 0.43372378E-01 0.62306845E+03</pdfrwt>
<totfact> 0.30951305E+01</totfact>
</mgrwt>
</event>
<event>
12    1  0.3203156E-008  0.5183492E+03  0.7818608E-02  0.1009097E+00
         -2   -1    0    0    0  501 -0.00000000000E+00  0.00000000000E+00  0.18924127945E+03  0.18924127945E+03  0.00000000000E+00 0.  1.
          2   -1    0    0  501    0  0.00000000000E+00 -0.00000000000E+00 -0.18448814211E+04  0.18448814211E+04  0.00000000000E+00 0. -1.
         23    2    1    2    0    0  0.34432494817E+02  0.40295321144E+03 -0.88605458382E+03  0.97821032071E+03  0.90806490547E+02 0.  0.
    5000000    2    1    2    0    0 -0.34432494817E+02 -0.40295321144E+03 -0.76958555783E+03  0.10559123798E+04  0.59927634340E+03 0.  0.
         23    2    4    4    0    0  0.13263191857E+03  0.54791513056E+02 -0.41142109712E+03  0.44564274298E+03  0.93470848337E+02 0.  0.
         23    2    4    4    0    0 -0.16706441338E+03 -0.45774472450E+03 -0.35816446071E+03  0.61026963685E+03  0.81893209261E+02 0.  0.
          5    1    3    3  502    0  0.24003680322E+02  0.34086146619E+03 -0.81145482280E+03  0.88047926452E+03  0.47000000000E+01 0. -1.
         -5    1    3    3    0  502  0.10428814495E+02  0.62091745254E+02 -0.74599761026E+02  0.97731056197E+02  0.47000000000E+01 0.  1.
         11    1    5    5    0    0  0.14696335644E+02  0.40135657621E+01 -0.18278106123E+03  0.18341485037E+03  0.00000000000E+00 0. -1.
        -11    1    5    5    0    0  0.11793558292E+03  0.50777947294E+02 -0.22864003589E+03  0.26222789261E+03  0.00000000000E+00 0.  1.
          2    1    6    6  503    0 -0.98054550988E+02 -0.22526432793E+03 -0.22733280815E+03  0.33472215055E+03  0.00000000000E+00 0. -1.
         -2    1    6    6    0  503 -0.69009862397E+02 -0.23248039657E+03 -0.13083165256E+03  0.27554748630E+03  0.00000000000E+00 0.  1.
<mgrwt>
<rscale>  0 0.51834919E+03</rscale>
<asrwt>0</asrwt>
<pdfrwt beam="1">  1        2 0.28382791E+00 0.51834919E+03</pdfrwt>
<pdfrwt beam="2">  1       -2 0.29114043E-01 0.51834919E+03</pdfrwt>
<totfact> 0.93046357E+01</totfact>
</mgrwt>
</event>
<event>
12    1  0.3203156E-008  0.1162766E+04  0.7818608E-02  0.9146086E-01
         -2   -1    0    0    0  501 -0.00000000000E+00  0.00000000000E+00  0.98976372318E+03  0.98976372318E+03  0.00000000000E+00 0.  1.
          2   -1    0    0  501    0  0.00000000000E+00 -0.00000000000E+00 -0.20363908212E+04  0.20363908212E+04  0.00000000000E+00 0. -1.
         23    2    1    2    0    0  0.45812467501E+03  0.98871044161E+03 -0.13582451878E+04  0.17437034264E+04  0.90802499161E+02 0.  0.
    5000000    2    1    2    0    0 -0.45812467501E+03 -0.98871044161E+03  0.31161808973E+03  0.12824511180E+04  0.60012372148E+03 0.  0.
         23    2    4    4    0    0 -0.16562244418E+03 -0.90766108143E+03  0.24231890344E+03  0.95833646586E+03  0.91710948452E+02 0.  0.
         23    2    4    4    0    0 -0.29250223083E+03 -0.81049360174E+02  0.69299186290E+02  0.32411465217E+03  0.90118681210E+02 0.  0.
          5    1    3    3  502    0  0.17944372609E+03  0.37578762260E+03 -0.45058368684E+03  0.61356673393E+03  0.47000000000E+01 0. -1.
         -5    1    3    3    0  502  0.27868094892E+03  0.61292281901E+03 -0.90766150096E+03  0.11301366925E+04  0.47000000000E+01 0.  1.
         11    1    5    5    0    0 -0.92226817577E+01 -0.28633394081E+03  0.73704076139E+02  0.29581155210E+03  0.00000000000E+00 0. -1.
        -11    1    5    5    0    0 -0.15639976242E+03 -0.62132714063E+03  0.16861482730E+03  0.66252491376E+03  0.00000000000E+00 0.  1.
          4    1    6    6  503    0 -0.55781674650E+02 -0.39180328220E+02  0.46765222560E+02  0.82666071561E+02  0.00000000000E+00 0. -1.
         -4    1    6    6    0  503 -0.23672055618E+03 -0.41869031954E+02  0.22533963730E+02  0.24144858061E+03  0.00000000000E+00 0.  1.
<mgrwt>
<rscale>  0 0.11627662E+04</rscale>
<asrwt>0</asrwt>
<pdfrwt beam="1">  1        2 0.31329090E+00 0.11627662E+04</pdfrwt>
<pdfrwt beam="2">  1       -2 0.15227134E+00 0.11627662E+04</pdfrwt>
<totfact> 0.17945944E+00</totfact>
</mgrwt>
</event>
<event>
12    1  0.3203156E-008  0.1105853E+04  0.7818608E-02  0.9199506E-01
          2   -1    0    0  501    0  0.00000000000E+00  0.00000000000E+00  0.29690568190E+04  0.29690568190E+04  0.00000000000E+00 0. -1.
         -2   -1    0    0    0  501 -0.00000000000E+00 -0.00000000000E+00 -0.51253383386E+03  0.51253383386E+03  0.00000000000E+00 0.  1.
         23    2    1    2    0    0 -0.12075057445E+03 -0.10402769780E+04  0.45781551976E+03  0.11467111837E+04  0.92707047050E+02 0.  0.
    5000000    2    1    2    0    0  0.12075057445E+03  0.10402769780E+04  0.19987074654E+04  0.23348794691E+04  0.60006142262E+03 0.  0.
         23    2    4    4    0    0 -0.18732235805E+03  0.35372026008E+03  0.44126084637E+03  0.60285532242E+03  0.92280642655E+02 0.  0.
         23    2    4    4    0    0  0.30807293250E+03  0.68655671793E+03  0.15574466190E+04  0.17320241467E+04  0.89434976384E+02 0.  0.
          5    1    3    3  502    0 -0.60058619530E+02 -0.83144784567E+03  0.37228626048E+03  0.91297957676E+03  0.47000000000E+01 0. -1.
         -5    1    3    3    0  502 -0.60691954917E+02 -0.20882913234E+03  0.85529259283E+02  0.23373160698E+03  0.47000000000E+01 0.  1.
         11    1    5    5    0    0 -0.74202006977E+02  0.90853090424E+02  0.18304362615E+03  0.21740559090E+03  0.00000000000E+00 0.  1.
        -11    1    5    5    0    0 -0.11312035108E+03  0.26286716966E+03  0.25821722022E+03  0.38544973152E+03  0.00000000000E+00 0. -1.
          2    1    6    6  503    0  0.42497903681E+02  0.41093969080E+02  0.10250111726E+03  0.11832694178E+03  0.00000000000E+00 0.  1.
         -2    1    6    6    0  503  0.26557502882E+03  0.64546274885E+03  0.14549455018E+04  0.16136972049E+04  0.00000000000E+00 0. -1.
<mgrwt>
<rscale>  0 0.11058526E+04</rscale>
<asrwt>0</asrwt>
<pdfrwt beam="1">  1        2 0.45677796E+00 0.11058526E+04</pdfrwt>
<pdfrwt beam="2">  1       -2 0.78851361E-01 0.11058526E+04</pdfrwt>
<totfact> 0.26134377E+00</totfact>
</mgrwt>
</event>
<event>
12    1  0.3203156E-008  0.8061673E+03  0.7818608E-02  0.9551133E-01
          2   -1    0    0  501    0  0.00000000000E+00  0.00000000000E+00  0.82173246967E+03  0.82173246967E+03  0.00000000000E+00 0. -1.
         -2   -1    0    0    0  501 -0.00000000000E+00 -0.00000000000E+00 -0.81287252024E+03  0.81287252024E+03  0.00000000000E+00 0.  1.
         23    2    1    2    0    0 -0.61044273889E+03  0.33518429410E+03 -0.98669128622E+02  0.70935077958E+03  0.91946087893E+02 0.  0.
    5000000    2    1    2    0    0  0.61044273889E+03 -0.33518429410E+03  0.10752907804E+03  0.92525421033E+03  0.59961988179E+03 0.  0.
         23    2    4    4    0    0  0.15352646438E+03  0.15897944432E+03  0.14990413706E+02  0.23963163491E+03  0.91398954959E+02 0.  0.
         23    2    4    4    0    0  0.45691627451E+03 -0.49416373843E+03  0.92538664337E+02  0.68562257541E+03  0.92437163702E+02 0.  0.
          5    1    3    3  502    0 -0.42910090451E+03  0.26031073864E+03 -0.10594956950E+03  0.51296848654E+03  0.47000000000E+01 0. -1.
         -5    1    3    3    0  502 -0.18134183437E+03  0.74873555462E+02  0.72804408762E+01  0.19638229304E+03  0.47000000000E+01 0.  1.
         11    1    5    5    0    0  0.13702830512E+03  0.17067822641E+03  0.12240440954E+02  0.21922053227E+03  0.00000000000E+00 0. -1.
        -11    1    5    5    0    0  0.16498159256E+02 -0.11698782084E+02  0.27499727528E+01  0.20411102646E+02  0.00000000000E+00 0.  1.
          3    1    6    6  503    0  0.34376784616E+03 -0.40350870551E+03  0.40708784548E+02  0.53165102522E+03  0.00000000000E+00 0. -1.
         -3    1    6    6    0  503  0.11314842835E+03 -0.90655032919E+02  0.51829879789E+02  0.15397155020E+03  0.00000000000E+00 0.  1.
<mgrwt>
<rscale>  0 0.80616730E+03</rscale>
<asrwt>0</asrwt>
<pdfrwt beam="1">  1        2 0.12642038E+00 0.80616730E+03</pdfrwt>
<pdfrwt beam="2">  1       -2 0.12505731E+00 0.80616730E+03</pdfrwt>
<totfact> 0.16065388E+01</totfact>
</mgrwt>
</event>
<event>
12    1  0.3203156E-008  0.2465905E+04  0.7818608E-02  0.8415234E-01
         -1   -1    0    0    0  501 -0.00000000000E+00  0.00000000000E+00  0.22002168497E+04  0.22002168497E+04  0.00000000000E+00 0.  1.
          1   -1    0    0  501    0  0.00000000000E+00 -0.00000000000E+00 -0.31437237664E+04  0.31437237664E+04  0.00000000000E+00 0. -1.
         23    2    1    2    0    0  0.10257121651E+04  0.22385357388E+04  0.36626954824E+03  0.24911041615E+04  0.91207795939E+02 0.  0.
    5000000    2    1    2    0    0 -0.10257121651E+04 -0.22385357388E+04 -0.13097764649E+04  0.28528364545E+04  0.60002812324E+03 0.  0.
         23    2    4    4    0    0 -0.34893854922E+03 -0.82841958173E+03 -0.18018407145E+03  0.92130611940E+03  0.91112850396E+02 0.  0.
         23    2    4    4    0    0 -0.67677361585E+03 -0.14101161571E+04 -0.11295923934E+04  0.19315303351E+04  0.91544287526E+02 0.  0.
          5    1    3    3  502    0  0.39417075195E+03  0.77564743630E+03  0.10388409307E+03  0.87624969154E+03  0.47000000000E+01 0. -1.
         -5    1    3    3    0  502  0.63154141312E+03  0.14628883025E+04  0.26238545518E+03  0.16148544700E+04  0.47000000000E+01 0.  1.
         11    1    5    5    0    0 -0.24276995060E+03 -0.46202280219E+03 -0.11163881416E+03  0.53372796768E+03  0.00000000000E+00 0. -1.
        -11    1    5    5    0    0 -0.10616859862E+03 -0.36639677954E+03 -0.68545257292E+02  0.38757815172E+03  0.00000000000E+00 0.  1.
          3    1    6    6  503    0 -0.35065970838E+03 -0.78958484732E+03 -0.57698191983E+03  0.10389006680E+04  0.00000000000E+00 0. -1.
         -3    1    6    6    0  503 -0.32611390747E+03 -0.62053130979E+03 -0.55261047360E+03  0.89262966711E+03  0.00000000000E+00 0.  1.
<mgrwt>
<rscale>  0 0.24659049E+04</rscale>
<asrwt>0</asrwt>
<pdfrwt beam="1">  1        1 0.48364981E+00 0.24659049E+04</pdfrwt>
<pdfrwt beam="2">  1       -1 0.33849490E+00 0.24659049E+04</pdfrwt>
<totfact> 0.72875881E-03</totfact>
</mgrwt>
</event>
<event>
12    1  0.3203156E-008  0.1056228E+04  0.7818608E-02  0.9248937E-01
          2   -1    0    0  501    0  0.00000000000E+00  0.00000000000E+00  0.14716932109E+04  0.14716932109E+04  0.00000000000E+00 0. -1.
         -2   -1    0    0    0  501 -0.00000000000E+00 -0.00000000000E+00 -0.10990265502E+04  0.10990265502E+04  0.00000000000E+00 0.  1.
         23    2    1    2    0    0  0.76441024214E+03  0.62635736621E+03 -0.51011852434E+03  0.11157713700E+04  0.89879212485E+02 0.  0.
    5000000    2    1    2    0    0 -0.76441024214E+03 -0.62635736621E+03  0.88278518505E+03  0.14549483911E+04  0.60076498677E+03 0.  0.
         23    2    4    4    0    0 -0.77956811514E+03 -0.39884171041E+03  0.80960947227E+03  0.11958592621E+04  0.88378283862E+02 0.  0.
         23    2    4    4    0    0  0.15157872996E+02 -0.22751565580E+03  0.73175712776E+02  0.25908912900E+03  0.98890631897E+02 0.  0.
          5    1    3    3  502    0  0.44248370572E+03  0.41690011794E+03 -0.29986575104E+03  0.67789313082E+03  0.47000000000E+01 0. -1.
         -5    1    3    3    0  502  0.32192653642E+03  0.20945724827E+03 -0.21025277330E+03  0.43787823923E+03  0.47000000000E+01 0.  1.
         13    1    5    5    0    0 -0.15000579655E+03 -0.52889281477E+02  0.18455551113E+03  0.24363856793E+03  0.00000000000E+00 0. -1.
        -13    1    5    5    0    0 -0.62956231859E+03 -0.34595242893E+03  0.62505396114E+03  0.95222069417E+03  0.00000000000E+00 0.  1.
          1    1    6    6  503    0  0.22873124956E+02 -0.93937961100E+01  0.25824059237E+02  0.35753395448E+02  0.00000000000E+00 0. -1.
         -1    1    6    6    0  503 -0.77152519600E+01 -0.21812185969E+03  0.47351653539E+02  0.22333573355E+03  0.00000000000E+00 0.  1.
<mgrwt>
<rscale>  0 0.10562284E+04</rscale>
<asrwt>0</asrwt>
<pdfrwt beam="1">  1        2 0.22641434E+00 0.10562284E+04</pdfrwt>
<pdfrwt beam="2">  1       -2 0.16908101E+00 0.10562284E+04</pdfrwt>
<totfact> 0.28095184E+00</totfact>
</mgrwt>
</event>
<event>
12    1  0.3203156E-008  0.5466156E+03  0.7818608E-02  0.1002280E+00
         -4   -1    0    0    0  501 -0.00000000000E+00  0.00000000000E+00  0.15167973434E+04  0.15167973434E+04  0.00000000000E+00 0.  1.
          4   -1    0    0  501    0  0.00000000000E+00 -0.00000000000E+00 -0.31273457338E+03  0.31273457338E+03  0.00000000000E+00 0. -1.
         23    2    1    2    0    0  0.18240532347E+03 -0.46630080437E+03  0.80419025425E+03  0.95168313599E+03  0.90943301613E+02 0.  0.
    5000000    2    1    2    0    0 -0.18240532347E+03  0.46630080437E+03  0.39987251580E+03  0.87784878083E+03  0.60001025901E+03 0.  0.
         23    2    4    4    0    0 -0.32527374907E+02  0.38544551766E+03 -0.38604879961E+02  0.39861240655E+03  0.88177302586E+02 0.  0.
         23    2    4    4    0    0 -0.14987794857E+03  0.80855286710E+02  0.43847739576E+03  0.47923637428E+03  0.91673872967E+02 0.  0.
          5    1    3    3  502    0  0.52356895749E+01 -0.10114842520E+03  0.13190837206E+03  0.16637405141E+03  0.47000000000E+01 0. -1.
         -5    1    3    3    0  502  0.17716963390E+03 -0.36515237917E+03  0.67228188219E+03  0.78530908457E+03  0.47000000000E+01 0.  1.
         13    1    5    5    0    0  0.14263421323E+02  0.23100165987E+03 -0.50189105929E+02  0.23682094165E+03  0.00000000000E+00 0. -1.
        -13    1    5    5    0    0 -0.46790796230E+02  0.15444385780E+03  0.11584225969E+02  0.16179146490E+03  0.00000000000E+00 0.  1.
          1    1    6    6  503    0 -0.90767810629E+02 -0.26666252117E+01  0.19346793880E+03  0.21371885663E+03  0.00000000000E+00 0. -1.
         -1    1    6    6    0  503 -0.59110137937E+02  0.83521911921E+02  0.24500945696E+03  0.26551751765E+03  0.00000000000E+00 0.  1.
<mgrwt>
<rscale>  0 0.54661557E+03</rscale>
<asrwt>0</asrwt>
<pdfrwt beam="1">  1        4 0.48113012E-01 0.54661557E+03</pdfrwt>
<pdfrwt beam="2">  1       -4 0.23335343E+00 0.54661557E+03</pdfrwt>
<totfact> 0.67176076E-01</totfact>
</mgrwt>
</event>
<event>
12    1  0.3203156E-008  0.6283555E+03  0.7818608E-02  0.9848263E-01
          2   -1    0    0  501    0  0.00000000000E+00  0.00000000000E+00  0.12632386530E+04  0.12632386530E+04  0.00000000000E+00 0. -1.
         -2   -1    0    0    0  501 -0.00000000000E+00 -0.00000000000E+00 -0.38051017019E+03  0.38051017019E+03  0.00000000000E+00 0.  1.
         23    2    1    2    0    0 -0.37732545800E+03 -0.36167978239E+03  0.59613544545E+03  0.79805832130E+03  0.91284437985E+02 0.  0.
    5000000    2    1    2    0    0  0.37732545800E+03  0.36167978239E+03  0.28659303737E+03  0.84569050192E+03  0.59989173166E+03 0.  0.
         23    2    4    4    0    0  0.28171861180E+03 -0.69009021086E+02  0.25066606768E+03  0.39459413899E+03  0.93506341021E+02 0.  0.
         23    2    4    4    0    0  0.95606846203E+02  0.43068880347E+03  0.35926969688E+02  0.45109636293E+03  0.86969345262E+02 0.  0.
          5    1    3    3  502    0 -0.21776243994E+03 -0.20112913090E+03  0.26968219067E+03  0.40077921791E+03  0.47000000000E+01 0.  1.
         -5    1    3    3    0  502 -0.15956301806E+03 -0.16055065149E+03  0.32645325479E+03  0.39727910339E+03  0.47000000000E+01 0. -1.
         13    1    5    5    0    0  0.52833968793E+02 -0.66943021001E+01  0.56419913184E+01  0.53554402294E+02  0.00000000000E+00 0. -1.
        -13    1    5    5    0    0  0.22888464301E+03 -0.62314718986E+02  0.24502407637E+03  0.34103973670E+03  0.00000000000E+00 0.  1.
          4    1    6    6  503    0  0.11078313339E+02  0.14522491978E+03 -0.23434764723E+02  0.14752014964E+03  0.00000000000E+00 0. -1.
         -4    1    6    6    0  503  0.84528532864E+02  0.28546388369E+03  0.59361734412E+02  0.30357621328E+03  0.00000000000E+00 0.  1.
<mgrwt>
<rscale>  0 0.62835547E+03</rscale>
<asrwt>0</asrwt>
<pdfrwt beam="1">  1        2 0.19434441E+00 0.62835547E+03</pdfrwt>
<pdfrwt beam="2">  1       -2 0.58540027E-01 0.62835547E+03</pdfrwt>
<totfact> 0.48905032E+01</totfact>
</mgrwt>
</event>
<event>
12    1  0.3203156E-008  0.9152662E+03  0.7818608E-02  0.9406697E-01
          1   -1    0    0  501    0  0.00000000000E+00  0.00000000000E+00  0.16273469790E+04  0.16273469790E+04  0.00000000000E+00 0. -1.
         -1   -1    0    0    0  501 -0.00000000000E+00 -0.00000000000E+00 -0.53827064708E+03  0.53827064708E+03  0.00000000000E+00 0.  1.
         23    2    1    2    0    0  0.83440331736E+03  0.33825737991E+02  0.55786230268E+03  0.10082045581E+04  0.88842588788E+02 0.  0.
    5000000    2    1    2    0    0 -0.83440331736E+03 -0.33825737991E+02  0.53121402920E+03  0.11574130680E+04  0.60003632268E+03 0.  0.
         23    2    4    4    0    0 -0.64947075188E+03 -0.25325276323E+03  0.25310014894E+03  0.74691376839E+03  0.88720191581E+02 0.  0.
         23    2    4    4    0    0 -0.18493256548E+03  0.21942702524E+03  0.27811388026E+03  0.41049929958E+03  0.93883285966E+02 0.  0.
          5    1    3    3  502    0  0.23923400735E+03 -0.28464733473E+02  0.14626140011E+03  0.28188231319E+03  0.47000000000E+01 0. -1.
         -5    1    3    3    0  502  0.59516931001E+03  0.62290471464E+02  0.41160090257E+03  0.72632224488E+03  0.47000000000E+01 0.  1.
         13    1    5    5    0    0 -0.26998618193E+03 -0.60810276336E+02  0.11330989925E+03  0.29904775774E+03  0.00000000000E+00 0. -1.
        -13    1    5    5    0    0 -0.37948456995E+03 -0.19244248690E+03  0.13979024969E+03  0.44786601066E+03  0.00000000000E+00 0.  1.
          3    1    6    6  503    0 -0.12112247876E+03  0.11829422991E+03  0.10210351742E+03  0.19771016150E+03  0.00000000000E+00 0. -1.
         -3    1    6    6    0  503 -0.63810086721E+02  0.10113279533E+03  0.17601036284E+03  0.21278913808E+03  0.00000000000E+00 0.  1.
<mgrwt>
<rscale>  0 0.91526624E+03</rscale>
<asrwt>0</asrwt>
<pdfrwt beam="1">  1        1 0.25036107E+00 0.91526624E+03</pdfrwt>
<pdfrwt beam="2">  1       -1 0.82810870E-01 0.91526624E+03</pdfrwt>
<totfact> 0.78760839E+00</totfact>
</mgrwt>
</event>
<event>
12    1  0.3203156E-008  0.8530601E+03  0.7818608E-02  0.9486239E-01
         -2   -1    0    0    0  501 -0.00000000000E+00  0.00000000000E+00  0.71920160865E+03  0.71920160865E+03  0.00000000000E+00 0.  1.
          2   -1    0    0  501    0  0.00000000000E+00 -0.00000000000E+00 -0.12834172814E+04  0.12834172814E+04  0.00000000000E+00 0. -1.
         23    2    1    2    0    0 -0.63614203135E+03 -0.41014619044E+03 -0.68913299806E+03  0.10286185246E+04  0.10126795388E+03 0.  0.
    5000000    2    1    2    0    0  0.63614203135E+03  0.41014619044E+03  0.12491732530E+03  0.97400036550E+03  0.60014647566E+03 0.  0.
         23    2    4    4    0    0  0.99229533802E+02  0.38944002337E+03  0.11891842917E+03  0.42898739603E+03  0.91534479725E+02 0.  0.
         23    2    4    4    0    0  0.53691249755E+03  0.20706167069E+02  0.59988961222E+01  0.54501296946E+03  0.91100904228E+02 0.  0.
          5    1    3    3  502    0 -0.38571324819E+03 -0.20173408227E+03 -0.35269131220E+03  0.56025405084E+03  0.47000000000E+01 0. -1.
         -5    1    3    3    0  502 -0.25042878316E+03 -0.20841210817E+03 -0.33644168586E+03  0.46836447373E+03  0.47000000000E+01 0.  1.
         13    1    5    5    0    0 -0.81129628739E+01  0.28175189052E+02 -0.95214614768E+01  0.30827255365E+02  0.00000000000E+00 0. -1.
        -13    1    5    5    0    0  0.10734249668E+03  0.36126483432E+03  0.12843989065E+03  0.39816014067E+03  0.00000000000E+00 0.  1.
          4    1    6    6  503    0  0.45218201791E+02 -0.93088552448E+01 -0.22944670358E+02  0.51553840371E+02  0.00000000000E+00 0. -1.
         -4    1    6    6    0  503  0.49169429576E+03  0.30015022314E+02  0.28943566480E+02  0.49345912909E+03  0.00000000000E+00 0.  1.
<mgrwt>
<rscale>  0 0.85306010E+03</rscale>
<asrwt>0</asrwt>
<pdfrwt beam="1">  1        2 0.19744881E+00 0.85306010E+03</pdfrwt>
<pdfrwt beam="2">  1       -2 0.11064640E+00 0.85306010E+03</pdfrwt>
<totfact> 0.11043681E+01</totfact>
</mgrwt>
</event>
<event>
12    1  0.3203156E-008  0.1163503E+04  0.7818608E-02  0.9145416E-01
          2   -1    0    0  501    0  0.00000000000E+00  0.00000000000E+00  0.18110130782E+04  0.18110130782E+04  0.00000000000E+00 0. -1.
         -2   -1    0    0    0  501 -0.00000000000E+00 -0.00000000000E+00 -0.95821114121E+03  0.95821114121E+03  0.00000000000E+00 0.  1.
         23    2    1    2    0    0 -0.10332220556E+04  0.46334440080E+03 -0.14482411958E+03  0.11452989914E+04  0.92194924459E+02 0.  0.
    5000000    2    1    2    0    0  0.10332220556E+04 -0.46334440080E+03  0.99762605660E+03  0.16239252281E+04  0.59969954779E+03 0.  0.
         23    2    4    4    0    0  0.77496736416E+03 -0.50410560891E+03  0.50157217955E+03  0.10556608101E+04  0.90267459314E+02 0.  0.
         23    2    4    4    0    0  0.25825469144E+03  0.40761208103E+02  0.49605387704E+03  0.56826441798E+03  0.92184803918E+02 0.  0.
          5    1    3    3  502    0 -0.70540547346E+03  0.31959871557E+03 -0.14174022513E+03  0.78730718427E+03  0.47000000000E+01 0. -1.
         -5    1    3    3    0  502 -0.32781658214E+03  0.14374568523E+03 -0.30838944486E+01  0.35799180710E+03  0.47000000000E+01 0.  1.
         11    1    5    5    0    0  0.72486739152E+03 -0.44209493830E+03  0.46336019100E+03  0.96725556931E+03  0.00000000000E+00 0.  1.
        -11    1    5    5    0    0  0.50099972636E+02 -0.62010670607E+02  0.38211988550E+02  0.88405240773E+02  0.00000000000E+00 0. -1.
          4    1    6    6  503    0  0.76893913287E+02 -0.98594406636E+01  0.22696392342E+03  0.23983849776E+03  0.00000000000E+00 0. -1.
         -4    1    6    6    0  503  0.18136077815E+03  0.50620648767E+02  0.26908995362E+03  0.32842592022E+03  0.00000000000E+00 0.  1.
<mgrwt>
<rscale>  0 0.11635026E+04</rscale>
<asrwt>0</asrwt>
<pdfrwt beam="1">  1        2 0.27861740E+00 0.11635026E+04</pdfrwt>
<pdfrwt beam="2">  1       -2 0.14741710E+00 0.11635026E+04</pdfrwt>
<totfact> 0.26064097E+00</totfact>
</mgrwt>
</event>
<event>
12    1  0.3203156E-008  0.4726713E+03  0.7818608E-02  0.1021169E+00
         -2   -1    0    0    0  501 -0.00000000000E+00  0.00000000000E+00  0.16688170285E+03  0.16688170285E+03  0.00000000000E+00 0.  1.
          2   -1    0    0  501    0  0.00000000000E+00 -0.00000000000E+00 -0.15120885419E+04  0.15120885419E+04  0.00000000000E+00 0. -1.
         23    2    1    2    0    0 -0.29003680531E+03  0.48061873635E+02 -0.59665330104E+03  0.67559850230E+03  0.11835067615E+03 0.  0.
    5000000    2    1    2    0    0  0.29003680531E+03 -0.48061873635E+02 -0.74855353799E+03  0.10033717424E+04  0.59999263504E+03 0.  0.
         23    2    4    4    0    0 -0.15128295623E+03  0.68696162668E+02 -0.31181768590E+03  0.36495487741E+03  0.91411693421E+02 0.  0.
         23    2    4    4    0    0  0.44131976154E+03 -0.11675803630E+03 -0.43673585209E+03  0.63841686501E+03  0.91882087794E+02 0.  0.
          5    1    3    3  502    0 -0.22564457374E+03 -0.15235293787E+02 -0.43924400578E+03  0.49406980727E+03  0.47000000000E+01 0. -1.
         -5    1    3    3    0  502 -0.64392231568E+02  0.63297167422E+02 -0.15740929525E+03  0.18152869504E+03  0.47000000000E+01 0.  1.
         13    1    5    5    0    0 -0.85415700043E+02  0.41952095382E+02 -0.86187415240E+02  0.12839038386E+03  0.00000000000E+00 0.  1.
        -13    1    5    5    0    0 -0.65867256185E+02  0.26744067286E+02 -0.22563027066E+03  0.23656449355E+03  0.00000000000E+00 0. -1.
          1    1    6    6  503    0  0.22881529099E+03 -0.22246308709E+02 -0.25442179620E+03  0.34290200644E+03  0.00000000000E+00 0. -1.
         -1    1    6    6    0  503  0.21250447054E+03 -0.94511727594E+02 -0.18231405589E+03  0.29551485856E+03  0.00000000000E+00 0.  1.
<mgrwt>
<rscale>  0 0.47267129E+03</rscale>
<asrwt>0</asrwt>
<pdfrwt beam="1">  1        2 0.23262900E+00 0.47267129E+03</pdfrwt>
<pdfrwt beam="2">  1       -2 0.25674109E-01 0.47267129E+03</pdfrwt>
<totfact> 0.17808930E+02</totfact>
</mgrwt>
</event>
<event>
12    1  0.3203156E-008  0.7012286E+03  0.7818608E-02  0.9715133E-01
          2   -1    0    0  501    0  0.00000000000E+00  0.00000000000E+00  0.29917088127E+04  0.29917088127E+04  0.00000000000E+00 0. -1.
         -2   -1    0    0    0  501 -0.00000000000E+00 -0.00000000000E+00 -0.28363857924E+03  0.28363857924E+03  0.00000000000E+00 0.  1.
         23    2    1    2    0    0 -0.47669099310E+03 -0.50019153895E+03  0.20008453925E+04  0.21187729252E+04  0.91599919273E+02 0.  0.
    5000000    2    1    2    0    0  0.47669099310E+03  0.50019153895E+03  0.70722484094E+03  0.11565744667E+04  0.60005969947E+03 0.  0.
         23    2    4    4    0    0  0.37528617158E+03  0.31110351476E+03  0.99310036646E+02  0.50523829199E+03  0.88193768708E+02 0.  0.
         23    2    4    4    0    0  0.10140482152E+03  0.18908802419E+03  0.60791480429E+03  0.65133617474E+03  0.92957971884E+02 0.  0.
          5    1    3    3  502    0 -0.42556970761E+03 -0.42589065186E+03  0.18126506312E+04  0.19100305820E+04  0.47000000000E+01 0. -1.
         -5    1    3    3    0  502 -0.51121285493E+02 -0.74300887090E+02  0.18819476128E+03  0.20874234316E+03  0.47000000000E+01 0.  1.
         13    1    5    5    0    0  0.33463896734E+03  0.23477563241E+03  0.86237658983E+02  0.41777957090E+03  0.00000000000E+00 0.  1.
        -13    1    5    5    0    0  0.40647204238E+02  0.76327882349E+02  0.13072377663E+02  0.87458721086E+02  0.00000000000E+00 0. -1.
          3    1    6    6  503    0  0.74466941094E+02  0.14775652224E+03  0.33089809489E+03  0.36996062545E+03  0.00000000000E+00 0. -1.
         -3    1    6    6    0  503  0.26937880431E+02  0.41331501949E+02  0.27701670940E+03  0.28137554930E+03  0.00000000000E+00 0.  1.
<mgrwt>
<rscale>  0 0.70122860E+03</rscale>
<asrwt>0</asrwt>
<pdfrwt beam="1">  1        2 0.46026287E+00 0.70122860E+03</pdfrwt>
<pdfrwt beam="2">  1       -2 0.43636707E-01 0.70122860E+03</pdfrwt>
<totfact> 0.94162869E+00</totfact>
</mgrwt>
</event>
<event>
12    1  0.3203156E-008  0.7633415E+03  0.7818608E-02  0.9614649E-01
          2   -1    0    0  501    0  0.00000000000E+00  0.00000000000E+00  0.24573067153E+04  0.24573067153E+04  0.00000000000E+00 0.  1.
         -2   -1    0    0    0  501 -0.00000000000E+00 -0.00000000000E+00 -0.24830236410E+03  0.24830236410E+03  0.00000000000E+00 0. -1.
         23    2    1    2    0    0 -0.44373440930E+02  0.65789425223E+03  0.10506635998E+04  0.12439191218E+04  0.92988882016E+02 0.  0.
    5000000    2    1    2    0    0  0.44373440930E+02 -0.65789425223E+03  0.11583407514E+04  0.14616899576E+04  0.59999198868E+03 0.  0.
         23    2    4    4    0    0 -0.13653203572E+03  0.36654751818E+02  0.24139489477E+03  0.29406262404E+03  0.90646367970E+02 0.  0.
         23    2    4    4    0    0  0.18090547666E+03 -0.69454900404E+03  0.91694585663E+03  0.11676273336E+04  0.86248336978E+02 0.  0.
          5    1    3    3  502    0 -0.48339209012E+02  0.26066782643E+03  0.48394048260E+03  0.55181960419E+03  0.47000000000E+01 0. -1.
         -5    1    3    3    0  502  0.39657680815E+01  0.39722642579E+03  0.56672311719E+03  0.69209951757E+03  0.47000000000E+01 0.  1.
         13    1    5    5    0    0 -0.28847851267E+02 -0.38626459027E+01  0.13245702456E+03  0.13561704137E+03  0.00000000000E+00 0.  1.
        -13    1    5    5    0    0 -0.10768418446E+03  0.40517397721E+02  0.10893787022E+03  0.15844558267E+03  0.00000000000E+00 0. -1.
          3    1    6    6  503    0  0.23782255550E+02 -0.19433080178E+03  0.20526350468E+03  0.28366029428E+03  0.00000000000E+00 0. -1.
         -3    1    6    6    0  503  0.15712322110E+03 -0.50021820227E+03  0.71168235195E+03  0.88396703930E+03  0.00000000000E+00 0.  1.
<mgrwt>
<rscale>  0 0.76334147E+03</rscale>
<asrwt>0</asrwt>
<pdfrwt beam="1">  1        2 0.37804717E+00 0.76334147E+03</pdfrwt>
<pdfrwt beam="2">  1       -2 0.38200365E-01 0.76334147E+03</pdfrwt>
<totfact> 0.24832355E+01</totfact>
</mgrwt>
</event>
<event>
12    1  0.3203156E-008  0.9901422E+03  0.7818608E-02  0.9319423E-01
          2   -1    0    0  501    0  0.00000000000E+00  0.00000000000E+00  0.33976853469E+04  0.33976853469E+04  0.00000000000E+00 0. -1.
         -2   -1    0    0    0  501 -0.00000000000E+00 -0.00000000000E+00 -0.71337478240E+03  0.71337478240E+03  0.00000000000E+00 0.  1.
         23    2    1    2    0    0  0.22574221389E+03 -0.95549868343E+03  0.27865769016E+04  0.29559078258E+04  0.91885605948E+02 0.  0.
    5000000    2    1    2    0    0 -0.22574221389E+03  0.95549868343E+03 -0.10226633710E+03  0.11551523036E+04  0.59998429941E+03 0.  0.
         23    2    4    4    0    0 -0.11519353727E+03  0.74014194328E+03 -0.31852136662E+03  0.81851622314E+03  0.86216583722E+02 0.  0.
         23    2    4    4    0    0 -0.11054867662E+03  0.21535674015E+03  0.21625502952E+03  0.33663608042E+03  0.89208056897E+02 0.  0.
          5    1    3    3  502    0  0.11670702090E+03 -0.57852231896E+03  0.17925739247E+04  0.18872339462E+04  0.47000000000E+01 0. -1.
         -5    1    3    3    0  502  0.10903519298E+03 -0.37697636447E+03  0.99400297690E+03  0.10686738795E+04  0.47000000000E+01 0.  1.
         11    1    5    5    0    0 -0.86785197697E+02  0.38992914761E+03 -0.20676034495E+03  0.44980690406E+03  0.00000000000E+00 0.  1.
        -11    1    5    5    0    0 -0.28408339573E+02  0.35021279567E+03 -0.11176102167E+03  0.36870931908E+03  0.00000000000E+00 0. -1.
          4    1    6    6  503    0 -0.11337863893E+03  0.18979191744E+03  0.15443093851E+03  0.26967499413E+03  0.00000000000E+00 0.  1.
         -4    1    6    6    0  503  0.28299623149E+01  0.25564822708E+02  0.61824091011E+02  0.66961086282E+02  0.00000000000E+00 0. -1.
<mgrwt>
<rscale>  0 0.99014224E+03</rscale>
<asrwt>0</asrwt>
<pdfrwt beam="1">  1        2 0.52272081E+00 0.99014224E+03</pdfrwt>
<pdfrwt beam="2">  1       -2 0.10974997E+00 0.99014224E+03</pdfrwt>
<totfact> 0.65205616E-01</totfact>
</mgrwt>
</event>
<event>
12    1  0.3203156E-008  0.7779330E+03  0.7818608E-02  0.9592519E-01
          2   -1    0    0  501    0  0.00000000000E+00  0.00000000000E+00  0.19079925380E+04  0.19079925380E+04  0.00000000000E+00 0. -1.
         -2   -1    0    0    0  501 -0.00000000000E+00 -0.00000000000E+00 -0.38744158897E+03  0.38744158897E+03  0.00000000000E+00 0.  1.
         23    2    1    2    0    0  0.22194719360E+03 -0.71852666827E+03  0.68719227080E+03  0.10227833867E+04  0.91167479680E+02 0.  0.
    5000000    2    1    2    0    0 -0.22194719360E+03  0.71852666827E+03  0.83335867821E+03  0.12726507402E+04  0.59967665478E+03 0.  0.
         23    2    4    4    0    0 -0.17259441861E+03  0.68674160929E+03  0.89768704483E+03  0.11470510193E+04  0.92093100135E+02 0.  0.
         23    2    4    4    0    0 -0.49352774988E+02  0.31785058982E+02 -0.64328366611E+02  0.12559972096E+03  0.90505053899E+02 0.  0.
          5    1    3    3  502    0  0.19866137848E+03 -0.59622508635E+03  0.61223679267E+03  0.87738627593E+03  0.47000000000E+01 0. -1.
         -5    1    3    3    0  502  0.23285815124E+02 -0.12230158191E+03  0.74955478129E+02  0.14539711079E+03  0.47000000000E+01 0.  1.
         11    1    5    5    0    0 -0.15741188825E+03  0.66279144873E+03  0.88262211061E+03  0.11149407147E+04  0.00000000000E+00 0.  1.
        -11    1    5    5    0    0 -0.15182530363E+02  0.23950160552E+02  0.15064934211E+02  0.32110304599E+02  0.00000000000E+00 0. -1.
          1    1    6    6  503    0 -0.45737685988E+02  0.53972318256E+02 -0.16341656941E+02  0.72608517469E+02  0.00000000000E+00 0. -1.
         -1    1    6    6    0  503 -0.36150890000E+01 -0.22187259275E+02 -0.47986709670E+02  0.52991203492E+02  0.00000000000E+00 0.  1.
<mgrwt>
<rscale>  0 0.77793299E+03</rscale>
<asrwt>0</asrwt>
<pdfrwt beam="1">  1        2 0.29353731E+00 0.77793299E+03</pdfrwt>
<pdfrwt beam="2">  1       -2 0.59606400E-01 0.77793299E+03</pdfrwt>
<totfact> 0.20295868E+01</totfact>
</mgrwt>
</event>
<event>
12    1  0.3203156E-008  0.1926664E+04  0.7818608E-02  0.8641696E-01
         -2   -1    0    0    0  501 -0.00000000000E+00  0.00000000000E+00  0.12173061279E+04  0.12173061279E+04  0.00000000000E+00 0.  1.
          2   -1    0    0  501    0  0.00000000000E+00 -0.00000000000E+00 -0.38259487964E+04  0.38259487964E+04  0.00000000000E+00 0. -1.
         23    2    1    2    0    0 -0.15484232029E+04 -0.10665322390E+04 -0.24123802000E+04  0.30599023807E+04  0.91208103117E+02 0.  0.
    5000000    2    1    2    0    0  0.15484232029E+04  0.10665322390E+04 -0.19626246855E+03  0.19833525435E+04  0.60005243361E+03 0.  0.
         23    2    4    4    0    0  0.15559532255E+04  0.94867605079E+03 -0.17572113480E+03  0.18330539965E+04  0.90732285199E+02 0.  0.
         23    2    4    4    0    0 -0.75300225979E+01  0.11785618825E+03 -0.20541333752E+02  0.15029854701E+03  0.90669313948E+02 0.  0.
          5    1    3    3  502    0 -0.63140097857E+03 -0.47223767484E+03 -0.95846348965E+03  0.12411083628E+04  0.47000000000E+01 0. -1.
         -5    1    3    3    0  502 -0.91702222435E+03 -0.59429456420E+03 -0.14539167103E+04  0.18187940179E+04  0.47000000000E+01 0.  1.
         11    1    5    5    0    0  0.84929094663E+03  0.47745703090E+03 -0.12334905601E+03  0.98207704281E+03  0.00000000000E+00 0. -1.
        -11    1    5    5    0    0  0.70666227888E+03  0.47121901988E+03 -0.52372078785E+02  0.85097695370E+03  0.00000000000E+00 0.  1.
          4    1    6    6  503    0  0.22914095739E+02  0.11564856601E+03 -0.11461116682E+02  0.11845253817E+03  0.00000000000E+00 0. -1.
         -4    1    6    6    0  503 -0.30444118337E+02  0.22076222471E+01 -0.90802170707E+01  0.31846008845E+02  0.00000000000E+00 0.  1.
<mgrwt>
<rscale>  0 0.19266644E+04</rscale>
<asrwt>0</asrwt>
<pdfrwt beam="1">  1        2 0.58860751E+00 0.19266644E+04</pdfrwt>
<pdfrwt beam="2">  1       -2 0.18727787E+00 0.19266644E+04</pdfrwt>
<totfact> 0.68607551E-02</totfact>
</mgrwt>
</event>
<event>
12    1  0.3203156E-008  0.1705678E+04  0.7818608E-02  0.8758132E-01
         -1   -1    0    0    0  501 -0.00000000000E+00  0.00000000000E+00  0.20352796366E+04  0.20352796366E+04  0.00000000000E+00 0.  1.
          1   -1    0    0  501    0  0.00000000000E+00 -0.00000000000E+00 -0.18515762880E+04  0.18515762880E+04  0.00000000000E+00 0. -1.
         23    2    1    2    0    0 -0.11559705705E+04  0.12444413219E+04  0.92818968478E+03  0.19378009464E+04  0.92920682658E+02 0.  0.
    5000000    2    1    2    0    0  0.11559705705E+04 -0.12444413219E+04 -0.74448633620E+03  0.19490549782E+04  0.59971096340E+03 0.  0.
         23    2    4    4    0    0  0.96551241305E+03 -0.94791113739E+03 -0.81009295650E+03  0.15794267869E+04  0.87112760058E+02 0.  0.
         23    2    4    4    0    0  0.19045815742E+03 -0.29653018452E+03  0.65606620300E+02  0.36962819123E+03  0.90090571440E+02 0.  0.
          5    1    3    3  502    0 -0.84977175058E+03  0.94246893120E+03  0.65233367772E+03  0.14268570466E+04  0.47000000000E+01 0. -1.
         -5    1    3    3    0  502 -0.30619881990E+03  0.30197239072E+03  0.27585600706E+03  0.51094389975E+03  0.47000000000E+01 0.  1.
         13    1    5    5    0    0  0.36748240237E+03 -0.30260364381E+03 -0.28191293524E+03  0.55325146575E+03  0.00000000000E+00 0. -1.
        -13    1    5    5    0    0  0.59803001069E+03 -0.64530749359E+03 -0.52818002126E+03  0.10261753212E+04  0.00000000000E+00 0.  1.
          4    1    6    6  503    0  0.11628364609E+03 -0.13179786175E+03 -0.45527526696E+01  0.17582175709E+03  0.00000000000E+00 0. -1.
         -4    1    6    6    0  503  0.74174511328E+02 -0.16473232277E+03  0.70159372969E+02  0.19380643413E+03  0.00000000000E+00 0.  1.
<mgrwt>
<rscale>  0 0.17056782E+04</rscale>
<asrwt>0</asrwt>
<pdfrwt beam="1">  1        1 0.28485789E+00 0.17056782E+04</pdfrwt>
<pdfrwt beam="2">  1       -1 0.31311995E+00 0.17056782E+04</pdfrwt>
<totfact> 0.93917536E-02</totfact>
</mgrwt>
</event>
<event>
12    1  0.3203156E-008  0.1486654E+04  0.7818608E-02  0.8893377E-01
          2   -1    0    0  501    0  0.00000000000E+00  0.00000000000E+00  0.36254345932E+04  0.36254345932E+04  0.00000000000E+00 0.  1.
         -2   -1    0    0    0  501 -0.00000000000E+00 -0.00000000000E+00 -0.12204669014E+04  0.12204669014E+04  0.00000000000E+00 0. -1.
         23    2    1    2    0    0 -0.45409150778E+03  0.13728760525E+04 -0.51098115246E+03  0.15362718050E+04  0.89674787200E+02 0.  0.
    5000000    2    1    2    0    0  0.45409150778E+03 -0.13728760525E+04  0.29159488443E+04  0.33096296896E+04  0.59991938355E+03 0.  0.
         23    2    4    4    0    0  0.27752410414E+03 -0.22543902775E+03  0.44476926244E+03  0.57774420437E+03  0.90145910903E+02 0.  0.
         23    2    4    4    0    0  0.17656740363E+03 -0.11474370248E+04  0.24711795819E+04  0.27318854853E+04  0.93177276478E+02 0.  0.
          5    1    3    3  502    0 -0.14847326251E+02  0.10059665409E+03 -0.51087995869E+02  0.11389558039E+03  0.47000000000E+01 0. -1.
         -5    1    3    3    0  502 -0.43924418153E+03  0.12722793984E+04 -0.45989315660E+03  0.14223762246E+04  0.47000000000E+01 0.  1.
         13    1    5    5    0    0  0.26772578846E+03 -0.19293069938E+03  0.42627113123E+03  0.53907924268E+03  0.00000000000E+00 0. -1.
        -13    1    5    5    0    0  0.97983156815E+01 -0.32508328372E+02  0.18498131210E+02  0.38664961683E+02  0.00000000000E+00 0.  1.
          1    1    6    6  503    0  0.90609988977E+02 -0.71223131975E+03  0.16225284086E+04  0.17742835341E+04  0.00000000000E+00 0. -1.
         -1    1    6    6    0  503  0.85957414657E+02 -0.43520570503E+03  0.84865117331E+03  0.95760195112E+03  0.00000000000E+00 0.  1.
<mgrwt>
<rscale>  0 0.14866542E+04</rscale>
<asrwt>0</asrwt>
<pdfrwt beam="1">  1        2 0.55775917E+00 0.14866542E+04</pdfrwt>
<pdfrwt beam="2">  1       -2 0.18776414E+00 0.14866542E+04</pdfrwt>
<totfact> 0.10114076E-01</totfact>
</mgrwt>
</event>
<event>
12    1  0.3203156E-008  0.5518461E+03  0.7818608E-02  0.1001068E+00
         -2   -1    0    0    0  501 -0.00000000000E+00  0.00000000000E+00  0.20411625234E+04  0.20411625234E+04  0.00000000000E+00 0.  1.
          2   -1    0    0  501    0  0.00000000000E+00 -0.00000000000E+00 -0.18188879625E+03  0.18188879625E+03  0.00000000000E+00 0. -1.
         23    2    1    2    0    0 -0.14259148704E+03 -0.40933426745E+03  0.44367325628E+03  0.62562903218E+03  0.81724249093E+02 0.  0.
    5000000    2    1    2    0    0  0.14259148704E+03  0.40933426745E+03  0.14156004709E+04  0.15974222875E+04  0.59995532892E+03 0.  0.
         23    2    4    4    0    0  0.53179964617E+02 -0.11741165485E+03  0.13062298418E+03  0.20280470819E+03  0.86335278639E+02 0.  0.
         23    2    4    4    0    0  0.89411522420E+02  0.52674592230E+03  0.12849774867E+04  0.13946175793E+04  0.91298215374E+02 0.  0.
          5    1    3    3  502    0 -0.68981135022E+02 -0.15762578585E+03  0.23026257732E+03  0.28748431239E+03  0.47000000000E+01 0. -1.
         -5    1    3    3    0  502 -0.73610352016E+02 -0.25170848160E+03  0.21341067895E+03  0.33814471979E+03  0.47000000000E+01 0.  1.
         13    1    5    5    0    0  0.20102481693E+02 -0.72487701113E+02  0.18341011881E+02  0.77427187084E+02  0.00000000000E+00 0.  1.
        -13    1    5    5    0    0  0.33077482924E+02 -0.44923953738E+02  0.11228197230E+03  0.12537752111E+03  0.00000000000E+00 0. -1.
          3    1    6    6  503    0  0.93074865511E+02  0.37172016922E+03  0.98540221155E+03  0.10572872520E+04  0.00000000000E+00 0. -1.
         -3    1    6    6    0  503 -0.36633430909E+01  0.15502575308E+03  0.29957527513E+03  0.33733032723E+03  0.00000000000E+00 0.  1.
<mgrwt>
<rscale>  0 0.55184613E+03</rscale>
<asrwt>0</asrwt>
<pdfrwt beam="1">  1        2 0.27982893E-01 0.55184613E+03</pdfrwt>
<pdfrwt beam="2">  1       -2 0.31402499E+00 0.55184613E+03</pdfrwt>
<totfact> 0.53858223E+00</totfact>
</mgrwt>
</event>
<event>
12    1  0.3203156E-008  0.7417273E+03  0.7818608E-02  0.9648419E-01
         -2   -1    0    0    0  501 -0.00000000000E+00  0.00000000000E+00  0.39022772484E+03  0.39022772484E+03  0.00000000000E+00 0.  1.
          2   -1    0    0  501    0  0.00000000000E+00 -0.00000000000E+00 -0.15222338269E+04  0.15222338269E+04  0.00000000000E+00 0. -1.
         23    2    1    2    0    0  0.27210186325E+03 -0.57961364204E+03 -0.33976160768E+03  0.73019251376E+03  0.88044074605E+02 0.  0.
    5000000    2    1    2    0    0 -0.27210186325E+03  0.57961364204E+03 -0.79224449437E+03  0.11822690380E+04  0.60009777644E+03 0.  0.
         23    2    4    4    0    0 -0.13889627898E+03 -0.80857742715E+02 -0.91886954476E+02  0.20627839725E+03  0.90980294020E+02 0.  0.
         23    2    4    4    0    0 -0.13320558427E+03  0.66047138476E+03 -0.70035753990E+03  0.97599064073E+03  0.89949259796E+02 0.  0.
          5    1    3    3  502    0  0.10972463772E+03 -0.30622766782E+03 -0.13667508686E+03  0.35286973522E+03  0.47000000000E+01 0. -1.
         -5    1    3    3    0  502  0.16237722552E+03 -0.27338597422E+03 -0.20308652082E+03  0.37732277854E+03  0.47000000000E+01 0.  1.
         11    1    5    5    0    0 -0.13355132602E+03 -0.78930942556E+02 -0.10811157979E+03  0.18908771525E+03  0.00000000000E+00 0. -1.
        -11    1    5    5    0    0 -0.53449529573E+01 -0.19268001592E+01  0.16224625317E+02  0.17190682000E+02  0.00000000000E+00 0.  1.
          1    1    6    6  503    0 -0.13749259432E+03  0.49388081897E+03 -0.51320779807E+03  0.72539969730E+03  0.00000000000E+00 0. -1.
         -1    1    6    6    0  503  0.42870100499E+01  0.16659056579E+03 -0.18714974183E+03  0.25059094343E+03  0.00000000000E+00 0.  1.
<mgrwt>
<rscale>  0 0.74172732E+03</rscale>
<asrwt>0</asrwt>
<pdfrwt beam="1">  1        2 0.23418982E+00 0.74172732E+03</pdfrwt>
<pdfrwt beam="2">  1       -2 0.60035034E-01 0.74172732E+03</pdfrwt>
<totfact> 0.32678440E+01</totfact>
</mgrwt>
</event>
<event>
12    1  0.3203156E-008  0.3086757E+04  0.7818608E-02  0.8219382E-01
          2   -1    0    0  501    0  0.00000000000E+00  0.00000000000E+00  0.32249994233E+04  0.32249994233E+04  0.00000000000E+00 0. -1.
         -2   -1    0    0    0  501 -0.00000000000E+00 -0.00000000000E+00 -0.33136903147E+04  0.33136903147E+04  0.00000000000E+00 0.  1.
         23    2    1    2    0    0 -0.24706210920E+04 -0.18383205827E+04  0.96578161785E+03  0.32288040185E+04  0.95132073293E+02 0.  0.
    5000000    2    1    2    0    0  0.24706210920E+04  0.18383205827E+04 -0.10544725092E+04  0.33098857195E+04  0.60003338089E+03 0.  0.
         23    2    4    4    0    0  0.51534464788E+03  0.29509813740E+03  0.70554212185E+01  0.60077151908E+03  0.90629037109E+02 0.  0.
         23    2    4    4    0    0  0.19552764441E+04  0.15432224453E+04 -0.10615279304E+04  0.27091142004E+04  0.88412188217E+02 0.  0.
          5    1    3    3  502    0 -0.13825223017E+04 -0.97028783564E+03  0.52437431475E+03  0.17685635161E+04  0.47000000000E+01 0. -1.
         -5    1    3    3    0  502 -0.10880987903E+04 -0.86803274703E+03  0.44140730310E+03  0.14602405023E+04  0.47000000000E+01 0.  1.
         13    1    5    5    0    0  0.30210569964E+03  0.22303070414E+03  0.10425041836E+02  0.37565839568E+03  0.00000000000E+00 0. -1.
        -13    1    5    5    0    0  0.21323894824E+03  0.72067433257E+02 -0.33696206171E+01  0.22511312340E+03  0.00000000000E+00 0.  1.
          1    1    6    6  503    0  0.16889416024E+04  0.13636607845E+04 -0.90574766320E+03  0.23521210217E+04  0.00000000000E+00 0. -1.
         -1    1    6    6    0  503  0.26633484169E+03  0.17956166082E+03 -0.15578026724E+03  0.35699317864E+03  0.00000000000E+00 0.  1.
<mgrwt>
<rscale>  0 0.30867570E+04</rscale>
<asrwt>0</asrwt>
<pdfrwt beam="1">  1        2 0.49615376E+00 0.30867570E+04</pdfrwt>
<pdfrwt beam="2">  1       -2 0.50979851E+00 0.30867570E+04</pdfrwt>
<totfact> 0.14000189E-03</totfact>
</mgrwt>
</event>
<event>
12    1  0.3203156E-008  0.5401918E+03  0.7818608E-02  0.1003790E+00
         -2   -1    0    0    0  501 -0.00000000000E+00  0.00000000000E+00  0.32864061359E+03  0.32864061359E+03  0.00000000000E+00 0.  1.
          2   -1    0    0  501    0  0.00000000000E+00 -0.00000000000E+00 -0.11714247261E+04  0.11714247261E+04  0.00000000000E+00 0. -1.
         23    2    1    2    0    0 -0.20989583426E+03  0.41260961827E+03 -0.42472159354E+03  0.63449886139E+03  0.88867399828E+02 0.  0.
    5000000    2    1    2    0    0  0.20989583426E+03 -0.41260961827E+03 -0.41806251897E+03  0.86556647830E+03  0.60010507434E+03 0.  0.
         23    2    4    4    0    0  0.20840247740E+03 -0.14461893125E+02  0.61437767411E+02  0.23606305439E+03  0.91161545846E+02 0.  0.
         23    2    4    4    0    0  0.14933568595E+01 -0.39814772515E+03 -0.47950028638E+03  0.62950342391E+03  0.88488388605E+02 0.  0.
          5    1    3    3  502    0 -0.17268752750E+03  0.31248731058E+03 -0.37075970747E+03  0.51473697372E+03  0.47000000000E+01 0. -1.
         -5    1    3    3    0  502 -0.37208306762E+02  0.10012230770E+03 -0.53961886063E+02  0.11976188767E+03  0.47000000000E+01 0.  1.
         13    1    5    5    0    0  0.88082540051E+02 -0.16772361209E+02  0.72367761813E+02  0.11522560007E+03  0.00000000000E+00 0. -1.
        -13    1    5    5    0    0  0.12031993735E+03  0.23104680836E+01 -0.10929994402E+02  0.12083745431E+03  0.00000000000E+00 0.  1.
          4    1    6    6  503    0 -0.31751290731E+02 -0.31870437384E+03 -0.35508333806E+03  0.47818908325E+03  0.00000000000E+00 0. -1.
         -4    1    6    6    0  503  0.33244647591E+02 -0.79443351307E+02 -0.12441694833E+03  0.15131434066E+03  0.00000000000E+00 0.  1.
<mgrwt>
<rscale>  0 0.54019179E+03</rscale>
<asrwt>0</asrwt>
<pdfrwt beam="1">  1        2 0.18021919E+00 0.54019179E+03</pdfrwt>
<pdfrwt beam="2">  1       -2 0.50560095E-01 0.54019179E+03</pdfrwt>
<totfact> 0.75640254E+01</totfact>
</mgrwt>
</event>
<event>
12    1  0.3203156E-008  0.9053323E+03  0.7818608E-02  0.9418940E-01
         -2   -1    0    0    0  501 -0.00000000000E+00  0.00000000000E+00  0.60062952142E+03  0.60062952142E+03  0.00000000000E+00 0. -1.
          2   -1    0    0  501    0  0.00000000000E+00 -0.00000000000E+00 -0.17524145953E+04  0.17524145953E+04  0.00000000000E+00 0.  1.
         23    2    1    2    0    0  0.10707897713E+03  0.81627845116E+03 -0.19373037887E+02  0.82979069935E+03  0.10198467020E+03 0.  0.
    5000000    2    1    2    0    0 -0.10707897713E+03 -0.81627845116E+03 -0.11324120360E+04  0.15232534174E+04  0.60013959800E+03 0.  0.
         23    2    4    4    0    0 -0.31189013667E+03 -0.57126013406E+03 -0.56712046489E+03  0.86762326819E+03  0.86780848659E+02 0.  0.
         23    2    4    4    0    0  0.20481115955E+03 -0.24501831710E+03 -0.56529157112E+03  0.65563014919E+03  0.91185225524E+02 0.  0.
          5    1    3    3  502    0  0.17584681752E+02  0.45953726341E+03 -0.38217428694E+02  0.46148280504E+03  0.47000000000E+01 0.  1.
         -5    1    3    3    0  502  0.89494295374E+02  0.35674118775E+03  0.18844390808E+02  0.36830789431E+03  0.47000000000E+01 0. -1.
         13    1    5    5    0    0 -0.97564854567E+02 -0.11236190404E+03 -0.15252096657E+03  0.21308858151E+03  0.00000000000E+00 0. -1.
        -13    1    5    5    0    0 -0.21432528211E+03 -0.45889823002E+03 -0.41459949832E+03  0.65453468669E+03  0.00000000000E+00 0.  1.
          2    1    6    6  503    0  0.48080319420E+02 -0.17070862591E+02 -0.13249457340E+03  0.14197867251E+03  0.00000000000E+00 0. -1.
         -2    1    6    6    0  503  0.15673084013E+03 -0.22794745451E+03 -0.43279699771E+03  0.51365147668E+03  0.00000000000E+00 0.  1.
<mgrwt>
<rscale>  0 0.90533232E+03</rscale>
<asrwt>0</asrwt>
<pdfrwt beam="1">  1        2 0.26960224E+00 0.90533232E+03</pdfrwt>
<pdfrwt beam="2">  1       -2 0.92404542E-01 0.90533232E+03</pdfrwt>
<totfact> 0.91987854E+00</totfact>
</mgrwt>
</event>
<event>
12    1  0.3203156E-008  0.5538900E+03  0.7818608E-02  0.1000598E+00
         -1   -1    0    0    0  501 -0.00000000000E+00  0.00000000000E+00  0.30184343971E+03  0.30184343971E+03  0.00000000000E+00 0.  1.
          1   -1    0    0  501    0  0.00000000000E+00 -0.00000000000E+00 -0.12997419685E+04  0.12997419685E+04  0.00000000000E+00 0. -1.
         23    2    1    2    0    0  0.36131745355E+03 -0.16064570460E+03 -0.47963629180E+02  0.41050372450E+03  0.99274636524E+02 0.  0.
    5000000    2    1    2    0    0 -0.36131745355E+03  0.16064570460E+03 -0.94993489964E+03  0.11910816837E+04  0.59995159732E+03 0.  0.
         23    2    4    4    0    0 -0.44906466389E+03  0.28495221794E+03 -0.68025992876E+03  0.86828161777E+03  0.91118374760E+02 0.  0.
         23    2    4    4    0    0  0.87747210341E+02 -0.12430651335E+03 -0.26967497089E+03  0.32280006596E+03  0.91233823115E+02 0.  0.
          5    1    3    3  502    0  0.17786678402E+03 -0.10682856795E+03 -0.67578412274E+02  0.21826100795E+03  0.47000000000E+01 0. -1.
         -5    1    3    3    0  502  0.18345066954E+03 -0.53817136650E+02  0.19614783095E+02  0.19224271655E+03  0.47000000000E+01 0.  1.
         11    1    5    5    0    0 -0.16077278319E+03  0.11864976417E+03 -0.19001910368E+03  0.27574066460E+03  0.00000000000E+00 0. -1.
        -11    1    5    5    0    0 -0.28829188070E+03  0.16630245378E+03 -0.49024082507E+03  0.59254095317E+03  0.00000000000E+00 0.  1.
          3    1    6    6  503    0 -0.10965084180E+02 -0.54197714622E+02 -0.68921272983E+02  0.88361570894E+02  0.00000000000E+00 0. -1.
         -3    1    6    6    0  503  0.98712294521E+02 -0.70108798724E+02 -0.20075369791E+03  0.23443849507E+03  0.00000000000E+00 0.  1.
<mgrwt>
<rscale>  0 0.55389004E+03</rscale>
<asrwt>0</asrwt>
<pdfrwt beam="1">  1        1 0.19996030E+00 0.55389004E+03</pdfrwt>
<pdfrwt beam="2">  1       -1 0.46437453E-01 0.55389004E+03</pdfrwt>
<totfact> 0.44005105E+01</totfact>
</mgrwt>
</event>
<event>
12    1  0.3203156E-008  0.1077758E+04  0.7818608E-02  0.9227145E-01
         -2   -1    0    0    0  501 -0.00000000000E+00  0.00000000000E+00  0.71042486365E+03  0.71042486365E+03  0.00000000000E+00 0. -1.
          2   -1    0    0  501    0  0.00000000000E+00 -0.00000000000E+00 -0.19229019127E+04  0.19229019127E+04  0.00000000000E+00 0.  1.
         23    2    1    2    0    0 -0.38767247281E+03 -0.93628350868E+03 -0.10185303411E+04  0.14396860316E+04  0.91515348337E+02 0.  0.
    5000000    2    1    2    0    0  0.38767247281E+03  0.93628350868E+03 -0.19394670792E+03  0.11936407447E+04  0.60020508763E+03 0.  0.
         23    2    4    4    0    0 -0.12608957327E+03  0.12993877203E+03  0.43050271173E+02  0.20451713438E+03  0.84801341040E+02 0.  0.
         23    2    4    4    0    0  0.51376204608E+03  0.80634473664E+03 -0.23699697909E+03  0.98912361036E+03  0.89747836594E+02 0.  0.
          5    1    3    3  502    0 -0.12115541331E+03 -0.30288920757E+03 -0.26941830080E+03  0.42311797060E+03  0.47000000000E+01 0. -1.
         -5    1    3    3    0  502 -0.26651705949E+03 -0.63339430111E+03 -0.74911204031E+03  0.10165680610E+04  0.47000000000E+01 0.  1.
         11    1    5    5    0    0 -0.32667323793E+02  0.44605192801E+02  0.54294365778E+02  0.77489711729E+02  0.00000000000E+00 0. -1.
        -11    1    5    5    0    0 -0.93422249481E+02  0.85333579234E+02 -0.11244094605E+02  0.12702742265E+03  0.00000000000E+00 0.  1.
          3    1    6    6  503    0  0.39443578913E+03  0.68241589033E+03 -0.19008629829E+03  0.81080443999E+03  0.00000000000E+00 0. -1.
         -3    1    6    6    0  503  0.11932625695E+03  0.12392884631E+03 -0.46910680802E+02  0.17831917037E+03  0.00000000000E+00 0.  1.
<mgrwt>
<rscale>  0 0.10777582E+04</rscale>
<asrwt>0</asrwt>
<pdfrwt beam="1">  1        2 0.29583106E+00 0.10777582E+04</pdfrwt>
<pdfrwt beam="2">  1       -2 0.10929613E+00 0.10777582E+04</pdfrwt>
<totfact> 0.48711255E+00</totfact>
</mgrwt>
</event>
<event>
12    1  0.3203156E-008  0.1198969E+04  0.7818608E-02  0.9113759E-01
         -1   -1    0    0    0  501 -0.00000000000E+00  0.00000000000E+00  0.12787414562E+04  0.12787414562E+04  0.00000000000E+00 0.  1.
          1   -1    0    0  501    0  0.00000000000E+00 -0.00000000000E+00 -0.14405077599E+04  0.14405077599E+04  0.00000000000E+00 0. -1.
         23    2    1    2    0    0  0.85873638906E+02  0.11366098068E+04 -0.67878540755E+03  0.13309042220E+04  0.10630279323E+03 0.  0.
    5000000    2    1    2    0    0 -0.85873638906E+02 -0.11366098068E+04  0.51701910386E+03  0.13883449940E+04  0.60078027076E+03 0.  0.
         23    2    4    4    0    0  0.21853881111E+03 -0.53583462108E+03  0.10988789512E+03  0.59616968794E+03  0.92005403244E+02 0.  0.
         23    2    4    4    0    0 -0.30441245001E+03 -0.60077518577E+03  0.40713120874E+03  0.79217530606E+03  0.90488291153E+02 0.  0.
          5    1    3    3  502    0  0.12299563310E+02  0.16410083958E+03 -0.56795056098E+02  0.17414974363E+03  0.47000000000E+01 0. -1.
         -5    1    3    3    0  502  0.73574075597E+02  0.97250896726E+03 -0.62199035145E+03  0.11567544784E+04  0.47000000000E+01 0.  1.
         11    1    5    5    0    0  0.19092805207E+03 -0.48513184306E+03  0.12574074513E+03  0.53629950699E+03  0.00000000000E+00 0. -1.
        -11    1    5    5    0    0  0.27610759039E+02 -0.50702778019E+02 -0.15852850014E+02  0.59870180951E+02  0.00000000000E+00 0.  1.
          4    1    6    6  503    0 -0.88095757512E+02 -0.99063665325E+02  0.93156134575E+02  0.16202634875E+03  0.00000000000E+00 0.  1.
         -4    1    6    6    0  503 -0.21631669250E+03 -0.50171152044E+03  0.31397507417E+03  0.63014895731E+03  0.00000000000E+00 0. -1.
<mgrwt>
<rscale>  0 0.11989692E+04</rscale>
<asrwt>0</asrwt>
<pdfrwt beam="1">  1        1 0.22161658E+00 0.11989692E+04</pdfrwt>
<pdfrwt beam="2">  1       -1 0.19672945E+00 0.11989692E+04</pdfrwt>
<totfact> 0.11182326E+00</totfact>
</mgrwt>
</event>
<event>
12    1  0.3203156E-008  0.3093151E+03  0.7818608E-02  0.1080675E+00
         -2   -1    0    0    0  501 -0.00000000000E+00  0.00000000000E+00  0.94336478913E+02  0.94336478913E+02  0.00000000000E+00 0.  1.
          2   -1    0    0  501    0  0.00000000000E+00 -0.00000000000E+00 -0.24031450083E+04  0.24031450083E+04  0.00000000000E+00 0. -1.
         23    2    1    2    0    0  0.40993725979E+02  0.25338513249E+03 -0.97878711391E+03  0.10159711404E+04  0.91041928536E+02 0.  0.
    5000000    2    1    2    0    0 -0.40993725979E+02 -0.25338513249E+03 -0.13300214155E+04  0.14815103469E+04  0.60002619216E+03 0.  0.
         23    2    4    4    0    0 -0.13173533178E+03 -0.13542610354E+03 -0.92556427519E+02  0.23179730268E+03  0.97308119368E+02 0.  0.
         23    2    4    4    0    0  0.90741605804E+02 -0.11795902896E+03 -0.12374649880E+04  0.12497130442E+04  0.91185112914E+02 0.  0.
          5    1    3    3  502    0 -0.11177409340E+02  0.17323042287E+03 -0.69919437331E+03  0.72043637857E+03  0.47000000000E+01 0.  1.
         -5    1    3    3    0  502  0.52171135319E+02  0.80154709619E+02 -0.27959274060E+03  0.29553476180E+03  0.47000000000E+01 0.  1.
         13    1    5    5    0    0 -0.44265908108E+02 -0.72078127556E+02  0.70486904630E+01  0.84878802594E+02  0.00000000000E+00 0.  1.
        -13    1    5    5    0    0 -0.87469423675E+02 -0.63347975982E+02 -0.99605117982E+02  0.14691850008E+03  0.00000000000E+00 0. -1.
          2    1    6    6  503    0  0.12027988598E+02  0.29312095076E+01 -0.37972570810E+03  0.37992746399E+03  0.00000000000E+00 0.  1.
         -2    1    6    6    0  503  0.78713617205E+02 -0.12089023846E+03 -0.85773927990E+03  0.86978558023E+03  0.00000000000E+00 0. -1.
<mgrwt>
<rscale>  0 0.30931513E+03</rscale>
<asrwt>0</asrwt>
<pdfrwt beam="1">  1        2 0.36971465E+00 0.30931513E+03</pdfrwt>
<pdfrwt beam="2">  1       -2 0.14513303E-01 0.30931513E+03</pdfrwt>
<totfact> 0.16281576E+02</totfact>
</mgrwt>
</event>
<event>
12    1  0.3203156E-008  0.1858673E+04  0.7818608E-02  0.8675706E-01
         -2   -1    0    0    0  501 -0.00000000000E+00  0.00000000000E+00  0.96617041137E+03  0.96617041137E+03  0.00000000000E+00 0. -1.
          2   -1    0    0  501    0  0.00000000000E+00 -0.00000000000E+00 -0.39416921146E+04  0.39416921146E+04  0.00000000000E+00 0.  1.
         23    2    1    2    0    0 -0.17488253502E+04  0.58684205275E+03 -0.20481886456E+04  0.27578536311E+04  0.88916938377E+02 0.  0.
    5000000    2    1    2    0    0  0.17488253502E+04 -0.58684205275E+03 -0.92733305758E+03  0.21500088949E+04  0.59984827083E+03 0.  0.
         23    2    4    4    0    0  0.42850370307E+03 -0.28085149251E+03 -0.27995473654E+02  0.52097735196E+03  0.90225663338E+02 0.  0.
         23    2    4    4    0    0  0.13203216471E+04 -0.30599056024E+03 -0.89933758393E+03  0.16290315429E+04  0.89756354207E+02 0.  0.
          5    1    3    3  502    0 -0.13398775528E+04  0.43510391631E+03 -0.16149530568E+04  0.21430545350E+04  0.47000000000E+01 0. -1.
         -5    1    3    3    0  502 -0.40894779741E+03  0.15173813644E+03 -0.43323558883E+03  0.61479909604E+03  0.47000000000E+01 0.  1.
         11    1    5    5    0    0  0.16486122582E+03 -0.68689926678E+02 -0.37254056196E+02  0.18244285272E+03  0.00000000000E+00 0.  1.
        -11    1    5    5    0    0  0.26364247724E+03 -0.21216156583E+03  0.92585825414E+01  0.33853449924E+03  0.00000000000E+00 0. -1.
          3    1    6    6  503    0  0.12615525189E+03 -0.32575797046E+02 -0.11963463460E+03  0.17688633618E+03  0.00000000000E+00 0. -1.
         -3    1    6    6    0  503  0.11941663952E+04 -0.27341476319E+03 -0.77970294933E+03  0.14521452067E+04  0.00000000000E+00 0.  1.
<mgrwt>
<rscale>  0 0.18586725E+04</rscale>
<asrwt>0</asrwt>
<pdfrwt beam="1">  1        2 0.60641415E+00 0.18586725E+04</pdfrwt>
<pdfrwt beam="2">  1       -2 0.14864161E+00 0.18586725E+04</pdfrwt>
<totfact> 0.10744655E-01</totfact>
</mgrwt>
</event>
<event>
12    1  0.3203156E-008  0.8519410E+03  0.7818608E-02  0.9487736E-01
          1   -1    0    0  501    0  0.00000000000E+00  0.00000000000E+00  0.89247522020E+03  0.89247522020E+03  0.00000000000E+00 0. -1.
         -1   -1    0    0    0  501 -0.00000000000E+00 -0.00000000000E+00 -0.10018788034E+04  0.10018788034E+04  0.00000000000E+00 0.  1.
         23    2    1    2    0    0 -0.61949094596E+03 -0.51869710082E+03  0.20781850083E+03  0.83917502206E+03  0.90611665036E+02 0.  0.
    5000000    2    1    2    0    0  0.61949094596E+03  0.51869710082E+03 -0.31722208403E+03  0.10551790015E+04  0.59996429909E+03 0.  0.
         23    2    4    4    0    0  0.28914669403E+03  0.23673273872E+02 -0.33611188400E+03  0.45317520452E+03  0.90721181963E+02 0.  0.
         23    2    4    4    0    0  0.33034425193E+03  0.49502382695E+03  0.18889799972E+02  0.60200379703E+03  0.88745890430E+02 0.  0.
          5    1    3    3  502    0 -0.16727616297E+03 -0.14077387676E+03  0.98156651513E+02  0.23969859681E+03  0.47000000000E+01 0. -1.
         -5    1    3    3    0  502 -0.45221478299E+03 -0.37792322406E+03  0.10966184931E+03  0.59947642525E+03  0.47000000000E+01 0.  1.
         13    1    5    5    0    0  0.24549101081E+03  0.48871581820E+02 -0.25248560520E+03  0.35553234555E+03  0.00000000000E+00 0.  1.
        -13    1    5    5    0    0  0.43655683214E+02 -0.25198307949E+02 -0.83626278801E+02  0.97642858963E+02  0.00000000000E+00 0. -1.
          2    1    6    6  503    0  0.68644755929E+02  0.10336540629E+03 -0.32211497368E+02  0.12819551590E+03  0.00000000000E+00 0. -1.
         -2    1    6    6    0  503  0.26169949600E+03  0.39165842066E+03  0.51101297340E+02  0.47380828114E+03  0.00000000000E+00 0.  1.
<mgrwt>
<rscale>  0 0.85194097E+03</rscale>
<asrwt>0</asrwt>
<pdfrwt beam="1">  1        1 0.13730388E+00 0.85194097E+03</pdfrwt>
<pdfrwt beam="2">  1       -1 0.15413520E+00 0.85194097E+03</pdfrwt>
<totfact> 0.61018503E+00</totfact>
</mgrwt>
</event>
<event>
12    1  0.3203156E-008  0.5375626E+03  0.7818608E-02  0.1004414E+00
         -1   -1    0    0    0  501 -0.00000000000E+00  0.00000000000E+00  0.16706260075E+03  0.16706260075E+03  0.00000000000E+00 0.  1.
          1   -1    0    0  501    0  0.00000000000E+00 -0.00000000000E+00 -0.18379825775E+04  0.18379825775E+04  0.00000000000E+00 0. -1.
         23    2    1    2    0    0  0.30706259680E+03  0.23101683626E+03 -0.56459230191E+03  0.68907098855E+03  0.91641382030E+02 0.  0.
    5000000    2    1    2    0    0 -0.30706259680E+03 -0.23101683626E+03 -0.11063276748E+04  0.13159741897E+04  0.60014242211E+03 0.  0.
         23    2    4    4    0    0 -0.15288184782E+03 -0.39829915991E+03 -0.88138491980E+03  0.98331730275E+03  0.89768930352E+02 0.  0.
         23    2    4    4    0    0 -0.15418074898E+03  0.16728232365E+03 -0.22494275503E+03  0.33265688693E+03  0.91138807420E+02 0.  0.
          5    1    3    3  502    0  0.25306420421E+03  0.22768479645E+03 -0.47759624361E+03  0.58651693914E+03  0.47000000000E+01 0. -1.
         -5    1    3    3    0  502  0.53998392593E+02  0.33320398122E+01 -0.86996058293E+02  0.10255404941E+03  0.47000000000E+01 0.  1.
         11    1    5    5    0    0 -0.46219923358E+00 -0.10869349750E+03 -0.21641093696E+03  0.24217387073E+03  0.00000000000E+00 0. -1.
        -11    1    5    5    0    0 -0.15241964859E+03 -0.28960566241E+03 -0.66497398284E+03  0.74114343202E+03  0.00000000000E+00 0.  1.
          2    1    6    6  503    0 -0.71520381554E+01  0.64796739818E+02 -0.49471243764E+02  0.81836257859E+02  0.00000000000E+00 0. -1.
         -2    1    6    6    0  503 -0.14702871083E+03  0.10248558383E+03 -0.17547151127E+03  0.25082062907E+03  0.00000000000E+00 0.  1.
<mgrwt>
<rscale>  0 0.53756256E+03</rscale>
<asrwt>0</asrwt>
<pdfrwt beam="1">  1        1 0.28276656E+00 0.53756256E+03</pdfrwt>
<pdfrwt beam="2">  1       -1 0.25701938E-01 0.53756256E+03</pdfrwt>
<totfact> 0.54379947E+01</totfact>
</mgrwt>
</event>
<event>
12    1  0.3203156E-008  0.4742323E+03  0.7818608E-02  0.1020732E+00
          1   -1    0    0  501    0  0.00000000000E+00  0.00000000000E+00  0.32872511094E+04  0.32872511094E+04  0.00000000000E+00 0. -1.
         -1   -1    0    0    0  501 -0.00000000000E+00 -0.00000000000E+00 -0.74505417307E+02  0.74505417307E+02  0.00000000000E+00 0.  1.
         23    2    1    2    0    0 -0.28912153408E+03 -0.85348977657E+02  0.11587471246E+04  0.12007687267E+04  0.90966624067E+02 0.  0.
    5000000    2    1    2    0    0  0.28912153408E+03  0.85348977657E+02  0.20539985675E+04  0.21609878000E+04  0.60006870210E+03 0.  0.
         23    2    4    4    0    0 -0.15840953800E+03  0.54370111689E+02  0.89519622745E+03  0.91511796974E+03  0.89526097471E+02 0.  0.
         23    2    4    4    0    0  0.44753107208E+03  0.30978865968E+02  0.11588023400E+04  0.12458698303E+04  0.90138893762E+02 0.  0.
          5    1    3    3  502    0 -0.30983648981E+01  0.11538307055E+02  0.49966372984E+02  0.51589347970E+02  0.47000000000E+01 0. -1.
         -5    1    3    3    0  502 -0.28602316918E+03 -0.96887284712E+02  0.11087807517E+04  0.11491793787E+04  0.47000000000E+01 0.  1.
         11    1    5    5    0    0 -0.98899737724E+02  0.45662376981E+01  0.66166920477E+03  0.66903523464E+03  0.00000000000E+00 0. -1.
        -11    1    5    5    0    0 -0.59509800274E+02  0.49803873991E+02  0.23352702268E+03  0.24608273510E+03  0.00000000000E+00 0.  1.
          3    1    6    6  503    0  0.25857557842E+03 -0.25372515255E+02  0.68945386138E+03  0.73678471839E+03  0.00000000000E+00 0. -1.
         -3    1    6    6    0  503  0.18895549365E+03  0.56351381223E+02  0.46934847863E+03  0.50908511188E+03  0.00000000000E+00 0.  1.
<mgrwt>
<rscale>  0 0.47423230E+03</rscale>
<asrwt>0</asrwt>
<pdfrwt beam="1">  1        1 0.50573083E+00 0.47423230E+03</pdfrwt>
<pdfrwt beam="2">  1       -1 0.11462374E-01 0.47423230E+03</pdfrwt>
<totfact> 0.20866245E+01</totfact>
</mgrwt>
</event>
<event>
12    1  0.3203156E-008  0.5616476E+03  0.7818608E-02  0.9988334E-01
          2   -1    0    0  501    0  0.00000000000E+00  0.00000000000E+00  0.56549370462E+03  0.56549370462E+03  0.00000000000E+00 0. -1.
         -2   -1    0    0    0  501 -0.00000000000E+00 -0.00000000000E+00 -0.59335334632E+03  0.59335334632E+03  0.00000000000E+00 0.  1.
         23    2    1    2    0    0  0.17057703213E+03 -0.36497261357E+03  0.10057756915E+03  0.42504025206E+03  0.90784557652E+02 0.  0.
    5000000    2    1    2    0    0 -0.17057703213E+03  0.36497261357E+03 -0.12843721084E+03  0.73380679888E+03  0.59972891243E+03 0.  0.
         23    2    4    4    0    0  0.77744827084E+02 -0.12031278196E+03 -0.14970782835E+02  0.16953342526E+03  0.89431729826E+02 0.  0.
         23    2    4    4    0    0 -0.24832185921E+03  0.48528539553E+03 -0.11346642801E+03  0.56427337362E+03  0.91455721604E+02 0.  0.
          5    1    3    3  502    0  0.12743493169E+03 -0.19691291398E+03  0.25686905732E+02  0.23600056066E+03  0.47000000000E+01 0. -1.
         -5    1    3    3    0  502  0.43142100442E+02 -0.16805969959E+03  0.74890663415E+02  0.18903969139E+03  0.47000000000E+01 0.  1.
         13    1    5    5    0    0  0.19863396459E+02 -0.10758219004E+03 -0.13698770040E+02  0.11025487941E+03  0.00000000000E+00 0.  1.
        -13    1    5    5    0    0  0.57881430625E+02 -0.12730591925E+02 -0.12720127956E+01  0.59278545853E+02  0.00000000000E+00 0. -1.
          1    1    6    6  503    0 -0.75465068549E+01  0.35389609032E+02 -0.30447097315E+02  0.47290590269E+02  0.00000000000E+00 0. -1.
         -1    1    6    6    0  503 -0.24077535236E+03  0.44989578650E+03 -0.83019330690E+02  0.51698278335E+03  0.00000000000E+00 0.  1.
<mgrwt>
<rscale>  0 0.56164755E+03</rscale>
<asrwt>0</asrwt>
<pdfrwt beam="1">  1        2 0.86999031E-01 0.56164755E+03</pdfrwt>
<pdfrwt beam="2">  1       -2 0.91285130E-01 0.56164755E+03</pdfrwt>
<totfact> 0.55932477E+01</totfact>
</mgrwt>
</event>
<event>
12    1  0.3203156E-008  0.1168720E+04  0.7818608E-02  0.9140686E-01
          1   -1    0    0  501    0  0.00000000000E+00  0.00000000000E+00  0.10578787726E+04  0.10578787726E+04  0.00000000000E+00 0.  1.
         -1   -1    0    0    0  501 -0.00000000000E+00 -0.00000000000E+00 -0.14260280426E+04  0.14260280426E+04  0.00000000000E+00 0. -1.
         23    2    1    2    0    0 -0.75453140047E+03 -0.84043832290E+03  0.61521845474E+02  0.11347262649E+04  0.90357899275E+02 0.  0.
    5000000    2    1    2    0    0  0.75453140047E+03  0.84043832290E+03 -0.42967111549E+03  0.13491805503E+04  0.60001390052E+03 0.  0.
         23    2    4    4    0    0  0.40810917487E+03  0.17505059553E+03 -0.38218742628E+03  0.59173943079E+03  0.83021175234E+02 0.  0.
         23    2    4    4    0    0  0.34642222560E+03  0.66538772737E+03 -0.47483689211E+02  0.75744111947E+03  0.93344322788E+02 0.  0.
          5    1    3    3  502    0 -0.16895021527E+03 -0.24712793751E+03  0.19712058811E+02  0.30004507661E+03  0.47000000000E+01 0. -1.
         -5    1    3    3    0  502 -0.58558118520E+03 -0.59331038539E+03  0.41809786664E+02  0.83468118832E+03  0.47000000000E+01 0.  1.
         11    1    5    5    0    0  0.87319070854E+01 -0.72888965905E+01 -0.33603802029E+01  0.11860285408E+02  0.00000000000E+00 0. -1.
        -11    1    5    5    0    0  0.39937726778E+03  0.18233949212E+03 -0.37882704608E+03  0.57987914538E+03  0.00000000000E+00 0.  1.
          4    1    6    6  503    0  0.29628784178E+01  0.43273388826E+02  0.99360609234E+01  0.44498203736E+02  0.00000000000E+00 0. -1.
         -4    1    6    6    0  503  0.34345934718E+03  0.62211433855E+03 -0.57419750135E+02  0.71294291574E+03  0.00000000000E+00 0.  1.
<mgrwt>
<rscale>  0 0.11687195E+04</rscale>
<asrwt>0</asrwt>
<pdfrwt beam="1">  1        1 0.16275058E+00 0.11687195E+04</pdfrwt>
<pdfrwt beam="2">  1       -1 0.21938893E+00 0.11687195E+04</pdfrwt>
<totfact> 0.14926997E+00</totfact>
</mgrwt>
</event>
<event>
12    1  0.3203156E-008  0.6294075E+03  0.7818608E-02  0.9846206E-01
          1   -1    0    0  501    0  0.00000000000E+00  0.00000000000E+00  0.61007538632E+03  0.61007538632E+03  0.00000000000E+00 0. -1.
         -1   -1    0    0    0  501 -0.00000000000E+00 -0.00000000000E+00 -0.71331526647E+03  0.71331526647E+03  0.00000000000E+00 0.  1.
         23    2    1    2    0    0  0.16195575332E+03 -0.47764887399E+03 -0.16243510800E+03  0.53742012205E+03  0.89761408316E+02 0.  0.
    5000000    2    1    2    0    0 -0.16195575332E+03  0.47764887399E+03  0.59195227845E+02  0.78597053073E+03  0.59988956261E+03 0.  0.
         23    2    4    4    0    0  0.17628284799E+03  0.36005842884E+02  0.92126706089E+02  0.22155671613E+03  0.90708242566E+02 0.  0.
         23    2    4    4    0    0 -0.33823860131E+03  0.44164303110E+03 -0.32931478244E+02  0.56441381460E+03  0.89579872286E+02 0.  0.
          5    1    3    3  502    0  0.94363589949E+02 -0.32454206285E+03 -0.66633882029E+02  0.34452024890E+03  0.47000000000E+01 0. -1.
         -5    1    3    3    0  502  0.67592163374E+02 -0.15310681114E+03 -0.95801225970E+02  0.19289987316E+03  0.47000000000E+01 0.  1.
         11    1    5    5    0    0  0.64708010908E+02  0.51164456616E+02  0.66792087531E+02  0.10614193918E+03  0.00000000000E+00 0.  1.
        -11    1    5    5    0    0  0.11157483708E+03 -0.15158613731E+02  0.25334618558E+02  0.11541477695E+03  0.00000000000E+00 0. -1.
          4    1    6    6  503    0 -0.22837431559E+03  0.33285038722E+03 -0.57900853393E+02  0.40779494494E+03  0.00000000000E+00 0. -1.
         -4    1    6    6    0  503 -0.10986428573E+03  0.10879264388E+03  0.24969375149E+02  0.15661886967E+03  0.00000000000E+00 0.  1.
<mgrwt>
<rscale>  0 0.62940751E+03</rscale>
<asrwt>0</asrwt>
<pdfrwt beam="1">  1        1 0.93857752E-01 0.62940751E+03</pdfrwt>
<pdfrwt beam="2">  1       -1 0.10974081E+00 0.62940751E+03</pdfrwt>
<totfact> 0.26659724E+01</totfact>
</mgrwt>
</event>
<event>
12    1  0.3203156E-008  0.1367770E+04  0.7818608E-02  0.8977484E-01
         -2   -1    0    0    0  501 -0.00000000000E+00  0.00000000000E+00  0.19956199426E+04  0.19956199426E+04  0.00000000000E+00 0.  1.
          2   -1    0    0  501    0  0.00000000000E+00 -0.00000000000E+00 -0.12785621521E+04  0.12785621521E+04  0.00000000000E+00 0. -1.
         23    2    1    2    0    0  0.41355319308E+02  0.13077381714E+04  0.11780752442E+04  0.17626920103E+04  0.85629754731E+02 0.  0.
    5000000    2    1    2    0    0 -0.41355319308E+02 -0.13077381714E+04 -0.46101745373E+03  0.15114900844E+04  0.60014647823E+03 0.  0.
         23    2    4    4    0    0  0.25265101097E+03 -0.73763624700E+03 -0.17414458039E+03  0.80422901262E+03  0.92294114871E+02 0.  0.
         23    2    4    4    0    0 -0.29400633028E+03 -0.57010192437E+03 -0.28687287334E+03  0.70726107179E+03  0.80413007579E+02 0.  0.
          5    1    3    3  502    0 -0.25780392797E+02  0.32662924709E+03  0.30379711040E+03  0.44684009220E+03  0.47000000000E+01 0. -1.
         -5    1    3    3    0  502  0.67135712105E+02  0.98110892428E+03  0.87427813380E+03  0.13158519181E+04  0.47000000000E+01 0.  1.
         11    1    5    5    0    0  0.31405490152E+02 -0.86545961721E+02  0.92729667272E+01  0.92533757158E+02  0.00000000000E+00 0.  1.
        -11    1    5    5    0    0  0.22124552082E+03 -0.65109028528E+03 -0.18341754712E+03  0.71169525547E+03  0.00000000000E+00 0. -1.
          3    1    6    6  503    0 -0.15321935343E+03 -0.22709786649E+03 -0.14767704026E+03  0.31122037120E+03  0.00000000000E+00 0.  1.
         -3    1    6    6    0  503 -0.14078697685E+03 -0.34300405788E+03 -0.13919583308E+03  0.39604070059E+03  0.00000000000E+00 0. -1.
<mgrwt>
<rscale>  0 0.13677702E+04</rscale>
<asrwt>0</asrwt>
<pdfrwt beam="1">  1        2 0.19670187E+00 0.13677702E+04</pdfrwt>
<pdfrwt beam="2">  1       -2 0.30701845E+00 0.13677702E+04</pdfrwt>
<totfact> 0.46883442E-01</totfact>
</mgrwt>
</event>
<event>
12    1  0.3203156E-008  0.6119093E+03  0.7818608E-02  0.9881002E-01
          2   -1    0    0  501    0  0.00000000000E+00  0.00000000000E+00  0.43600496954E+03  0.43600496954E+03  0.00000000000E+00 0. -1.
         -2   -1    0    0    0  501 -0.00000000000E+00 -0.00000000000E+00 -0.11888692748E+04  0.11888692748E+04  0.00000000000E+00 0.  1.
         23    2    1    2    0    0 -0.56435944734E+03  0.13867731957E+03 -0.19112962851E+03  0.61830508197E+03  0.89652968341E+02 0.  0.
    5000000    2    1    2    0    0  0.56435944734E+03 -0.13867731957E+03 -0.56173467674E+03  0.10065691624E+04  0.59991886685E+03 0.  0.
         23    2    4    4    0    0  0.61590100550E+01 -0.59628989028E+02 -0.39809060078E+03  0.41241283548E+03  0.89524693213E+02 0.  0.
         23    2    4    4    0    0  0.55820043729E+03 -0.79048330545E+02 -0.16364407596E+03  0.59415632689E+03  0.91684188594E+02 0.  0.
          5    1    3    3  502    0 -0.99010972628E+02  0.35780879257E+02 -0.16100152670E+01  0.10539509557E+03  0.47000000000E+01 0. -1.
         -5    1    3    3    0  502 -0.46534847471E+03  0.10289644032E+03 -0.18951961325E+03  0.51290998640E+03  0.47000000000E+01 0.  1.
         13    1    5    5    0    0 -0.16983647662E+02 -0.47154232686E+02 -0.88488874251E+02  0.10169683778E+03  0.00000000000E+00 0.  1.
        -13    1    5    5    0    0  0.23142657717E+02 -0.12474756342E+02 -0.30960172653E+03  0.31071599770E+03  0.00000000000E+00 0. -1.
          1    1    6    6  503    0  0.30768771557E+03 -0.21907105084E+02 -0.47205855710E+02  0.31205775808E+03  0.00000000000E+00 0. -1.
         -1    1    6    6    0  503  0.25051272172E+03 -0.57141225461E+02 -0.11643822025E+03  0.28209856881E+03  0.00000000000E+00 0.  1.
<mgrwt>
<rscale>  0 0.61190929E+03</rscale>
<asrwt>0</asrwt>
<pdfrwt beam="1">  1        2 0.67077688E-01 0.61190929E+03</pdfrwt>
<pdfrwt beam="2">  1       -2 0.18290296E+00 0.61190929E+03</pdfrwt>
<totfact> 0.12881647E+01</totfact>
</mgrwt>
</event>
<event>
12    1  0.3203156E-008  0.9149443E+03  0.7818608E-02  0.9407091E-01
          2   -1    0    0  501    0  0.00000000000E+00  0.00000000000E+00  0.65496836459E+03  0.65496836459E+03  0.00000000000E+00 0. -1.
         -2   -1    0    0    0  501 -0.00000000000E+00 -0.00000000000E+00 -0.14904663730E+04  0.14904663730E+04  0.00000000000E+00 0.  1.
         23    2    1    2    0    0 -0.18590416837E+03 -0.80192334554E+03 -0.75849672002E+03  0.11236903265E+04  0.98596468882E+02 0.  0.
    5000000    2    1    2    0    0  0.18590416837E+03  0.80192334554E+03 -0.77001288431E+02  0.10217444111E+04  0.60032577099E+03 0.  0.
         23    2    4    4    0    0  0.38155107526E+03  0.47679863263E+03 -0.12102966458E+03  0.62930188821E+03  0.91948505635E+02 0.  0.
         23    2    4    4    0    0 -0.19564690690E+03  0.32512471291E+03  0.44028376151E+02  0.39244252292E+03  0.89938005118E+02 0.  0.
          5    1    3    3  502    0 -0.19750784374E+03 -0.74164673255E+03 -0.70183438584E+03  0.10400205860E+04  0.47000000000E+01 0. -1.
         -5    1    3    3    0  502  0.11603675373E+02 -0.60276612993E+02 -0.56662334179E+02  0.83669740472E+02  0.47000000000E+01 0.  1.
         11    1    5    5    0    0  0.29428544796E+03  0.37911077361E+03 -0.56376789811E+02  0.48322587470E+03  0.00000000000E+00 0.  1.
        -11    1    5    5    0    0  0.87265627308E+02  0.97687859018E+02 -0.64652874771E+02  0.14607601352E+03  0.00000000000E+00 0. -1.
          1    1    6    6  503    0 -0.15575151278E+03  0.31056357410E+03  0.37005577216E+02  0.34939616489E+03  0.00000000000E+00 0. -1.
         -1    1    6    6    0  503 -0.39895394112E+02  0.14561138809E+02  0.70227989353E+01  0.43046358030E+02  0.00000000000E+00 0.  1.
<mgrwt>
<rscale>  0 0.91494435E+03</rscale>
<asrwt>0</asrwt>
<pdfrwt beam="1">  1        2 0.10076436E+00 0.91494435E+03</pdfrwt>
<pdfrwt beam="2">  1       -2 0.22930252E+00 0.91494435E+03</pdfrwt>
<totfact> 0.38668114E+00</totfact>
</mgrwt>
</event>
<event>
12    1  0.3203156E-008  0.7821586E+03  0.7818608E-02  0.9586207E-01
          1   -1    0    0  501    0  0.00000000000E+00  0.00000000000E+00  0.26444817667E+04  0.26444817667E+04  0.00000000000E+00 0. -1.
         -1   -1    0    0    0  501 -0.00000000000E+00 -0.00000000000E+00 -0.25085347947E+03  0.25085347947E+03  0.00000000000E+00 0.  1.
         23    2    1    2    0    0 -0.17059517897E+02  0.67620573087E+03  0.13678756085E+04  0.15283528516E+04  0.85050226451E+02 0.  0.
    5000000    2    1    2    0    0  0.17059517897E+02 -0.67620573087E+03  0.10257526788E+04  0.13669823946E+04  0.59910524250E+03 0.  0.
         23    2    4    4    0    0 -0.14802678319E+03  0.26321008472E+02  0.14052990746E+03  0.22174833412E+03  0.82576902131E+02 0.  0.
         23    2    4    4    0    0  0.16508630109E+03 -0.70252673934E+03  0.88522277131E+03  0.11452340605E+04  0.84524506445E+02 0.  0.
          5    1    3    3  502    0 -0.25542036025E+02  0.12968928326E+03  0.32574764151E+03  0.35157548513E+03  0.47000000000E+01 0. -1.
         -5    1    3    3    0  502  0.84825181283E+01  0.54651644761E+03  0.10421279670E+04  0.11767773664E+04  0.47000000000E+01 0.  1.
         13    1    5    5    0    0 -0.91120912369E+02  0.41520552809E+02  0.12625260100E+03  0.16114185128E+03  0.00000000000E+00 0. -1.
        -13    1    5    5    0    0 -0.56905870823E+02 -0.15199544336E+02  0.14277306464E+02  0.60606482838E+02  0.00000000000E+00 0.  1.
          1    1    6    6  503    0  0.13228606011E+03 -0.38285393054E+03  0.48089920676E+03  0.62876130677E+03  0.00000000000E+00 0. -1.
         -1    1    6    6    0  503  0.32800240974E+02 -0.31967280880E+03  0.40432356455E+03  0.51647275372E+03  0.00000000000E+00 0.  1.
<mgrwt>
<rscale>  0 0.78215860E+03</rscale>
<asrwt>0</asrwt>
<pdfrwt beam="1">  1        1 0.40684333E+00 0.78215860E+03</pdfrwt>
<pdfrwt beam="2">  1       -1 0.38592845E-01 0.78215860E+03</pdfrwt>
<totfact> 0.73504803E+00</totfact>
</mgrwt>
</event>
<event>
12    1  0.3203156E-008  0.1287810E+04  0.7818608E-02  0.9039288E-01
          2   -1    0    0  501    0  0.00000000000E+00  0.00000000000E+00  0.26025270746E+04  0.26025270746E+04  0.00000000000E+00 0.  1.
         -2   -1    0    0    0  501 -0.00000000000E+00 -0.00000000000E+00 -0.68108284892E+03  0.68108284892E+03  0.00000000000E+00 0. -1.
         23    2    1    2    0    0 -0.10477962008E+04 -0.63586843399E+03  0.12846166596E+04  0.17777399039E+04  0.88958754036E+02 0.  0.
    5000000    2    1    2    0    0  0.10477962008E+04  0.63586843399E+03  0.63682756607E+03  0.15058700196E+04  0.59990801236E+03 0.  0.
         23    2    4    4    0    0  0.66340068601E+03  0.83680417182E+02  0.22051665952E+03  0.70920427421E+03  0.85089500004E+02 0.  0.
         23    2    4    4    0    0  0.38439551480E+03  0.55218801681E+03  0.41631090655E+03  0.79666574541E+03  0.93220283657E+02 0.  0.
          5    1    3    3  502    0 -0.37826854230E+03 -0.23686159938E+03  0.52954666756E+03  0.69255488626E+03  0.47000000000E+01 0. -1.
         -5    1    3    3    0  502 -0.66952765851E+03 -0.39900683461E+03  0.75506999201E+03  0.10851850176E+04  0.47000000000E+01 0.  1.
         13    1    5    5    0    0  0.42906091292E+03  0.79752027946E+02  0.17641441660E+03  0.47071828023E+03  0.00000000000E+00 0. -1.
        -13    1    5    5    0    0  0.23433977309E+03  0.39283892358E+01  0.44102242921E+02  0.23848599398E+03  0.00000000000E+00 0.  1.
          1    1    6    6  503    0  0.12307778874E+03  0.25632586668E+03  0.18260621064E+03  0.33792916443E+03  0.00000000000E+00 0. -1.
         -1    1    6    6    0  503  0.26131772606E+03  0.29586215013E+03  0.23370469592E+03  0.45873658098E+03  0.00000000000E+00 0.  1.
<mgrwt>
<rscale>  0 0.12878103E+04</rscale>
<asrwt>0</asrwt>
<pdfrwt beam="1">  1        2 0.40038878E+00 0.12878103E+04</pdfrwt>
<pdfrwt beam="2">  1       -2 0.10478198E+00 0.12878103E+04</pdfrwt>
<totfact> 0.21823276E+00</totfact>
</mgrwt>
</event>
<event>
12    1  0.3203156E-008  0.7057158E+03  0.7818608E-02  0.9707507E-01
         -1   -1    0    0    0  501 -0.00000000000E+00  0.00000000000E+00  0.69303689321E+03  0.69303689321E+03  0.00000000000E+00 0.  1.
          1   -1    0    0  501    0  0.00000000000E+00 -0.00000000000E+00 -0.95645085743E+03  0.95645085743E+03  0.00000000000E+00 0. -1.
         23    2    1    2    0    0 -0.26161514131E+03  0.58337042761E+03 -0.40257955118E+03  0.76168559780E+03  0.96597706532E+02 0.  0.
    5000000    2    1    2    0    0  0.26161514131E+03 -0.58337042761E+03  0.13916558696E+03  0.88780215284E+03  0.60005171779E+03 0.  0.
         23    2    4    4    0    0 -0.99978177477E+02 -0.13440744133E+03  0.22914333125E+03  0.29709363623E+03  0.87732355370E+02 0.  0.
         23    2    4    4    0    0  0.36159331879E+03 -0.44896298628E+03 -0.89977744295E+02  0.59070851660E+03  0.92320452125E+02 0.  0.
          5    1    3    3  502    0 -0.16571073393E+03  0.39574871919E+03 -0.21679745225E+03  0.48072894794E+03  0.47000000000E+01 0. -1.
         -5    1    3    3    0  502 -0.95904407378E+02  0.18762170841E+03 -0.18578209892E+03  0.28095664986E+03  0.47000000000E+01 0.  1.
         11    1    5    5    0    0 -0.15979022368E+02 -0.93220127659E+02  0.10020578305E+03  0.13779158289E+03  0.00000000000E+00 0.  1.
        -11    1    5    5    0    0 -0.83999155109E+02 -0.41187313667E+02  0.12893754820E+03  0.15930205335E+03  0.00000000000E+00 0. -1.
          4    1    6    6  503    0  0.28476071936E+03 -0.40454755668E+03 -0.68913273383E+02  0.49949617832E+03  0.00000000000E+00 0. -1.
         -4    1    6    6    0  503  0.76832599421E+02 -0.44415429601E+02 -0.21064470912E+02  0.91212338284E+02  0.00000000000E+00 0.  1.
<mgrwt>
<rscale>  0 0.70571583E+03</rscale>
<asrwt>0</asrwt>
<pdfrwt beam="1">  1        1 0.14714629E+00 0.70571583E+03</pdfrwt>
<pdfrwt beam="2">  1       -1 0.10662106E+00 0.70571583E+03</pdfrwt>
<totfact> 0.13946808E+01</totfact>
</mgrwt>
</event>
<event>
12    1  0.3203156E-008  0.5626265E+03  0.7818608E-02  0.9986129E-01
         -1   -1    0    0    0  501 -0.00000000000E+00  0.00000000000E+00  0.50802958471E+03  0.50802958471E+03  0.00000000000E+00 0.  1.
          1   -1    0    0  501    0  0.00000000000E+00 -0.00000000000E+00 -0.97479509125E+03  0.97479509125E+03  0.00000000000E+00 0. -1.
         23    2    1    2    0    0 -0.25289205864E+03  0.37627724910E+03 -0.56010296676E+03  0.72491213185E+03  0.79014581044E+02 0.  0.
    5000000    2    1    2    0    0  0.25289205864E+03 -0.37627724910E+03  0.93337460217E+02  0.75791254410E+03  0.60015046573E+03 0.  0.
         23    2    4    4    0    0  0.20665228702E+03 -0.48774216751E+03 -0.59960572964E+02  0.54106116914E+03  0.92489614243E+02 0.  0.
         23    2    4    4    0    0  0.46239771619E+02  0.11146491841E+03  0.15329803318E+03  0.21685137496E+03  0.94666188952E+02 0.  0.
          5    1    3    3  502    0 -0.18350978916E+03  0.26447791810E+03 -0.44985118171E+03  0.55318404493E+03  0.47000000000E+01 0. -1.
         -5    1    3    3    0  502 -0.69382269477E+02  0.11179933100E+03 -0.11025178505E+03  0.17172808692E+03  0.47000000000E+01 0.  1.
         11    1    5    5    0    0  0.13300892050E+03 -0.37025956944E+03 -0.95992434599E+01  0.39354245917E+03  0.00000000000E+00 0. -1.
        -11    1    5    5    0    0  0.73643366520E+02 -0.11748259807E+03 -0.50361329505E+02  0.14751870997E+03  0.00000000000E+00 0.  1.
          1    1    6    6  503    0  0.11834423990E+02 -0.86262339270E+01  0.57749135539E+02  0.59577077458E+02  0.00000000000E+00 0. -1.
         -1    1    6    6    0  503  0.34405347629E+02  0.12009115234E+03  0.95548897642E+02  0.15727429751E+03  0.00000000000E+00 0.  1.
<mgrwt>
<rscale>  0 0.56262651E+03</rscale>
<asrwt>0</asrwt>
<pdfrwt beam="1">  1        1 0.14996847E+00 0.56262651E+03</pdfrwt>
<pdfrwt beam="2">  1       -1 0.78158398E-01 0.56262651E+03</pdfrwt>
<totfact> 0.27333918E+01</totfact>
</mgrwt>
</event>
<event>
12    1  0.3203156E-008  0.5475332E+03  0.7818608E-02  0.1002067E+00
         -2   -1    0    0    0  501 -0.00000000000E+00  0.00000000000E+00  0.64170563867E+03  0.64170563867E+03  0.00000000000E+00 0.  1.
          2   -1    0    0  501    0  0.00000000000E+00 -0.00000000000E+00 -0.74543575832E+03  0.74543575832E+03  0.00000000000E+00 0. -1.
         23    2    1    2    0    0 -0.51248537994E+03 -0.11181782609E+03 -0.23058053631E+03  0.58029965844E+03  0.91846714606E+02 0.  0.
    5000000    2    1    2    0    0  0.51248537994E+03  0.11181782609E+03  0.12685041666E+03  0.80684173855E+03  0.59979835943E+03 0.  0.
         23    2    4    4    0    0  0.32292053630E+03 -0.10416710951E+02  0.34498714955E+03  0.48043675846E+03  0.86122963793E+02 0.  0.
         23    2    4    4    0    0  0.18956484364E+03  0.12223453704E+03 -0.21813673289E+03  0.32640498009E+03  0.89891405596E+02 0.  0.
          5    1    3    3  502    0 -0.23023078007E+03 -0.65111899778E+02 -0.58300834955E+02  0.24630641271E+03  0.47000000000E+01 0. -1.
         -5    1    3    3    0  502 -0.28225459987E+03 -0.46705926313E+02 -0.17227970135E+03  0.33399324574E+03  0.47000000000E+01 0.  1.
         11    1    5    5    0    0  0.13401921581E+03  0.20047791337E+02  0.94398482810E+02  0.16514883500E+03  0.00000000000E+00 0. -1.
        -11    1    5    5    0    0  0.18890132049E+03 -0.30464502289E+02  0.25058866674E+03  0.31528792346E+03  0.00000000000E+00 0.  1.
          2    1    6    6  503    0  0.86522918706E+01  0.45409729010E+02 -0.39398602741E+02  0.60738418990E+02  0.00000000000E+00 0.  1.
         -2    1    6    6    0  503  0.18091255176E+03  0.76824808032E+02 -0.17873813015E+03  0.26566656110E+03  0.00000000000E+00 0. -1.
<mgrwt>
<rscale>  0 0.54753317E+03</rscale>
<asrwt>0</asrwt>
<pdfrwt beam="1">  1        2 0.11468242E+00 0.54753317E+03</pdfrwt>
<pdfrwt beam="2">  1       -2 0.98723944E-01 0.54753317E+03</pdfrwt>
<totfact> 0.33286477E+01</totfact>
</mgrwt>
</event>
<event>
12    1  0.3203156E-008  0.3499388E+03  0.7818608E-02  0.1062640E+00
         -1   -1    0    0    0  501 -0.00000000000E+00  0.00000000000E+00  0.18886699778E+03  0.18886699778E+03  0.00000000000E+00 0.  1.
          1   -1    0    0  501    0  0.00000000000E+00 -0.00000000000E+00 -0.16094624512E+04  0.16094624512E+04  0.00000000000E+00 0. -1.
         23    2    1    2    0    0 -0.19893697880E+03 -0.24581781890E+03 -0.85145993823E+03  0.91294253614E+03  0.92074568934E+02 0.  0.
    5000000    2    1    2    0    0  0.19893697880E+03  0.24581781890E+03 -0.56913551516E+03  0.88538691282E+03  0.59999369092E+03 0.  0.
         23    2    4    4    0    0  0.15700601205E+03  0.21733169032E+03  0.23210981715E+02  0.28377231566E+03  0.90022364027E+02 0.  0.
         23    2    4    4    0    0  0.41930966753E+02  0.28486128584E+02 -0.59234649688E+03  0.60161459716E+03  0.92174213632E+02 0.  0.
          5    1    3    3  502    0 -0.33993619925E+02 -0.60208700271E+01 -0.13928411349E+03  0.14357566417E+03  0.47000000000E+01 0. -1.
         -5    1    3    3    0  502 -0.16494335888E+03 -0.23979694888E+03 -0.71217582475E+03  0.76936687197E+03  0.47000000000E+01 0.  1.
         11    1    5    5    0    0  0.63929708177E+02  0.65998275080E+02 -0.32679804342E+02  0.97523071696E+02  0.00000000000E+00 0. -1.
        -11    1    5    5    0    0  0.93076303873E+02  0.15133341524E+03  0.55890786056E+02  0.18624924396E+03  0.00000000000E+00 0.  1.
          3    1    6    6  503    0  0.27063036707E+02 -0.32117763628E+02 -0.20299221060E+03  0.20729157306E+03  0.00000000000E+00 0. -1.
         -3    1    6    6    0  503  0.14867930046E+02  0.60603892212E+02 -0.38935428627E+03  0.39432302410E+03  0.00000000000E+00 0.  1.
<mgrwt>
<rscale>  0 0.34993879E+03</rscale>
<asrwt>0</asrwt>
<pdfrwt beam="1">  1        1 0.24760960E+00 0.34993879E+03</pdfrwt>
<pdfrwt beam="2">  1       -1 0.29056462E-01 0.34993879E+03</pdfrwt>
<totfact> 0.64788097E+01</totfact>
</mgrwt>
</event>
<event>
12    1  0.3203156E-008  0.1355436E+04  0.7818608E-02  0.8986723E-01
         -2   -1    0    0    0  501 -0.00000000000E+00  0.00000000000E+00  0.19941504491E+04  0.19941504491E+04  0.00000000000E+00 0.  1.
          2   -1    0    0  501    0  0.00000000000E+00 -0.00000000000E+00 -0.93202555924E+03  0.93202555924E+03  0.00000000000E+00 0. -1.
         23    2    1    2    0    0  0.26638594348E+01 -0.12895154193E+04  0.37694991928E+03  0.13474650676E+04  0.10350726577E+03 0.  0.
    5000000    2    1    2    0    0 -0.26638594348E+01  0.12895154193E+04  0.68517497057E+03  0.15787109407E+04  0.60000531769E+03 0.  0.
         23    2    4    4    0    0 -0.23963495565E+03  0.10173747059E+04  0.49689873565E+03  0.11608844831E+04  0.90929783636E+02 0.  0.
         23    2    4    4    0    0  0.23697109622E+03  0.27214071340E+03  0.18827623493E+03  0.41782645756E+03  0.94420017298E+02 0.  0.
          5    1    3    3  502    0  0.52023102900E+02 -0.77378260742E+03  0.22323023024E+03  0.80703144453E+03  0.47000000000E+01 0. -1.
         -5    1    3    3    0  502 -0.49359243465E+02 -0.51573281188E+03  0.15371968904E+03  0.54043362309E+03  0.47000000000E+01 0.  1.
         11    1    5    5    0    0 -0.23795340919E+03  0.93379896667E+03  0.47563053984E+03  0.10746286547E+04  0.00000000000E+00 0.  1.
        -11    1    5    5    0    0 -0.16815464603E+01  0.83575739224E+02  0.21268195803E+02  0.86255828430E+02  0.00000000000E+00 0. -1.
          1    1    6    6  503    0  0.11701715254E+03  0.19484720172E+03  0.89482235939E+02  0.24426525859E+03  0.00000000000E+00 0. -1.
         -1    1    6    6    0  503  0.11995394368E+03  0.77293511688E+02  0.98793998988E+02  0.17356119897E+03  0.00000000000E+00 0.  1.
<mgrwt>
<rscale>  0 0.13554360E+04</rscale>
<asrwt>0</asrwt>
<pdfrwt beam="1">  1        2 0.14338855E+00 0.13554360E+04</pdfrwt>
<pdfrwt beam="2">  1       -2 0.30679238E+00 0.13554360E+04</pdfrwt>
<totfact> 0.77598109E-01</totfact>
</mgrwt>
</event>
<event>
12    1  0.3203156E-008  0.2045690E+04  0.7818608E-02  0.8585552E-01
          2   -1    0    0  501    0  0.00000000000E+00  0.00000000000E+00  0.28444126263E+04  0.28444126263E+04  0.00000000000E+00 0.  1.
         -2   -1    0    0    0  501 -0.00000000000E+00 -0.00000000000E+00 -0.21368936826E+04  0.21368936826E+04  0.00000000000E+00 0. -1.
         23    2    1    2    0    0 -0.18130442820E+04  0.89557421094E+03 -0.10090232314E+04  0.22618282736E+04  0.92501470079E+02 0.  0.
    5000000    2    1    2    0    0  0.18130442820E+04 -0.89557421094E+03  0.17165421751E+04  0.27194780353E+04  0.59988416364E+03 0.  0.
         23    2    4    4    0    0  0.69988667202E+03 -0.57239201467E+03  0.10117949307E+04  0.13599439747E+04  0.90800112644E+02 0.  0.
         23    2    4    4    0    0  0.11131576099E+04 -0.32318219626E+03  0.70474724440E+03  0.13595340606E+04  0.89986592114E+02 0.  0.
          5    1    3    3  502    0 -0.10749331548E+04  0.55911451772E+03 -0.64600696804E+03  0.13731123130E+04  0.47000000000E+01 0. -1.
         -5    1    3    3    0  502 -0.73811112716E+03  0.33645969322E+03 -0.36301626335E+03  0.88871596062E+03  0.47000000000E+01 0.  1.
         11    1    5    5    0    0  0.16203752464E+03 -0.18412330991E+03  0.28061996171E+03  0.37269976597E+03  0.00000000000E+00 0.  1.
        -11    1    5    5    0    0  0.53784914738E+03 -0.38826870477E+03  0.73117496898E+03  0.98724420875E+03  0.00000000000E+00 0. -1.
          2    1    6    6  503    0  0.75790092621E+03 -0.19924767658E+03  0.51895376038E+03  0.93990768483E+03  0.00000000000E+00 0. -1.
         -2    1    6    6    0  503  0.35525668373E+03 -0.12393451968E+03  0.18579348402E+03  0.41962637573E+03  0.00000000000E+00 0.  1.
<mgrwt>
<rscale>  0 0.20456898E+04</rscale>
<asrwt>0</asrwt>
<pdfrwt beam="1">  1        2 0.43760194E+00 0.20456898E+04</pdfrwt>
<pdfrwt beam="2">  1       -2 0.32875288E+00 0.20456898E+04</pdfrwt>
<totfact> 0.40377586E-02</totfact>
</mgrwt>
</event>
<event>
12    1  0.3203156E-008  0.1200868E+04  0.7818608E-02  0.9112097E-01
         -2   -1    0    0    0  501 -0.00000000000E+00  0.00000000000E+00  0.17406961519E+04  0.17406961519E+04  0.00000000000E+00 0.  1.
          2   -1    0    0  501    0  0.00000000000E+00 -0.00000000000E+00 -0.96907714429E+03  0.96907714429E+03  0.00000000000E+00 0. -1.
         23    2    1    2    0    0 -0.10327516930E+04  0.59802474363E+03  0.66930467858E+03  0.13700969898E+04  0.70621210637E+02 0.  0.
    5000000    2    1    2    0    0  0.10327516930E+04 -0.59802474363E+03  0.10231432899E+03  0.13396763063E+04  0.60004560708E+03 0.  0.
         23    2    4    4    0    0  0.52782429770E+03 -0.22770627787E+03  0.32757814800E+03  0.66805894803E+03  0.92448238313E+02 0.  0.
         23    2    4    4    0    0  0.50492739525E+03 -0.37031846576E+03 -0.22526381901E+03  0.67161735832E+03  0.90766994429E+02 0.  0.
          5    1    3    3  502    0 -0.54727186989E+03  0.35352015298E+03  0.34823558251E+03  0.73876458298E+03  0.47000000000E+01 0. -1.
         -5    1    3    3    0  502 -0.48547982306E+03  0.24450459065E+03  0.32106909607E+03  0.63133240682E+03  0.47000000000E+01 0.  1.
         13    1    5    5    0    0  0.34902527953E+03 -0.19021246739E+03  0.25005623587E+03  0.46960360902E+03  0.00000000000E+00 0. -1.
        -13    1    5    5    0    0  0.17879901816E+03 -0.37493810481E+02  0.77521912136E+02  0.19845533901E+03  0.00000000000E+00 0.  1.
          2    1    6    6  503    0  0.27631369002E+03 -0.21362445762E+03 -0.78410593693E+02  0.35795654120E+03  0.00000000000E+00 0. -1.
         -2    1    6    6    0  503  0.22861370524E+03 -0.15669400814E+03 -0.14685322532E+03  0.31366081712E+03  0.00000000000E+00 0.  1.
<mgrwt>
<rscale>  0 0.12008684E+04</rscale>
<asrwt>0</asrwt>
<pdfrwt beam="1">  1        2 0.14908879E+00 0.12008684E+04</pdfrwt>
<pdfrwt beam="2">  1       -2 0.26779941E+00 0.12008684E+04</pdfrwt>
<totfact> 0.12866050E+00</totfact>
</mgrwt>
</event>
<event>
12    1  0.3203156E-008  0.4204378E+03  0.7818608E-02  0.1036924E+00
         -1   -1    0    0    0  501 -0.00000000000E+00  0.00000000000E+00  0.20970216292E+04  0.20970216292E+04  0.00000000000E+00 0.  1.
          1   -1    0    0  501    0  0.00000000000E+00 -0.00000000000E+00 -0.11878972041E+03  0.11878972041E+03  0.00000000000E+00 0. -1.
         23    2    1    2    0    0 -0.26271620548E+03  0.69194306906E+02  0.96880524520E+03  0.10104390850E+04  0.92713994107E+02 0.  0.
    5000000    2    1    2    0    0  0.26271620548E+03 -0.69194306906E+02  0.10094266636E+04  0.12053722645E+04  0.60014369136E+03 0.  0.
         23    2    4    4    0    0  0.26958031380E+03  0.16340460714E+03  0.84275395094E+03  0.90433619378E+03  0.90637289969E+02 0.  0.
         23    2    4    4    0    0 -0.68641083182E+01 -0.23259891404E+03  0.16667271262E+03  0.30103607076E+03  0.93239219052E+02 0.  0.
          5    1    3    3  502    0 -0.19750779754E+03  0.66367177346E+02  0.84592685797E+03  0.87122228584E+03  0.47000000000E+01 0. -1.
         -5    1    3    3    0  502 -0.65208407940E+02  0.28271295600E+01  0.12287838723E+03  0.13921679919E+03  0.47000000000E+01 0.  1.
         13    1    5    5    0    0  0.95966266775E+02  0.10644146869E+02  0.23398651965E+03  0.25312548983E+03  0.00000000000E+00 0.  1.
        -13    1    5    5    0    0  0.17361404703E+03  0.15276046027E+03  0.60876743128E+03  0.65121070395E+03  0.00000000000E+00 0. -1.
          3    1    6    6  503    0  0.21091019288E+02 -0.16063848764E+03  0.67892056548E+02  0.17566697512E+03  0.00000000000E+00 0. -1.
         -3    1    6    6    0  503 -0.27955127606E+02 -0.71960426405E+02  0.98780656072E+02  0.12536909564E+03  0.00000000000E+00 0.  1.
<mgrwt>
<rscale>  0 0.42043780E+03</rscale>
<asrwt>0</asrwt>
<pdfrwt beam="1">  1        1 0.18275343E-01 0.42043780E+03</pdfrwt>
<pdfrwt beam="2">  1       -1 0.32261868E+00 0.42043780E+03</pdfrwt>
<totfact> 0.77049641E+00</totfact>
</mgrwt>
</event>
<event>
12    1  0.3203156E-008  0.4706274E+03  0.7818608E-02  0.1021743E+00
         -2   -1    0    0    0  501 -0.00000000000E+00  0.00000000000E+00  0.43758887374E+03  0.43758887374E+03  0.00000000000E+00 0.  1.
          2   -1    0    0  501    0  0.00000000000E+00 -0.00000000000E+00 -0.25061803549E+04  0.25061803549E+04  0.00000000000E+00 0. -1.
         23    2    1    2    0    0  0.88804367981E+01 -0.34316169630E+03 -0.22098864913E+04  0.22383062357E+04  0.92615809902E+02 0.  0.
    5000000    2    1    2    0    0 -0.88804367981E+01  0.34316169630E+03  0.14129501014E+03  0.70546299297E+03  0.59989577644E+03 0.  0.
         23    2    4    4    0    0  0.21550377306E+03  0.26570760693E+03 -0.86449134234E+02  0.36458836324E+03  0.91699581328E+02 0.  0.
         23    2    4    4    0    0 -0.22438420986E+03  0.77454089373E+02  0.22774414437E+03  0.34087462973E+03  0.89334810126E+02 0.  0.
          5    1    3    3  502    0  0.10866961737E+02 -0.10874101428E+03 -0.99540939521E+03  0.10014013447E+04  0.47000000000E+01 0. -1.
         -5    1    3    3    0  502 -0.19865249385E+01 -0.23442068203E+03 -0.12144770961E+04  0.12369048910E+04  0.47000000000E+01 0.  1.
         13    1    5    5    0    0  0.10145784999E+03  0.80334322538E+02 -0.67928205322E+02  0.14615587494E+03  0.00000000000E+00 0. -1.
        -13    1    5    5    0    0  0.11404592307E+03  0.18537328439E+03 -0.18520928912E+02  0.21843248830E+03  0.00000000000E+00 0.  1.
          1    1    6    6  503    0 -0.21725353749E+03  0.51298734713E+02  0.18342342432E+03  0.28892007947E+03  0.00000000000E+00 0. -1.
         -1    1    6    6    0  503 -0.71306723724E+01  0.26155354660E+02  0.44320720057E+02  0.51954550255E+02  0.00000000000E+00 0.  1.
<mgrwt>
<rscale>  0 0.47062744E+03</rscale>
<asrwt>0</asrwt>
<pdfrwt beam="1">  1        2 0.38556619E+00 0.47062744E+03</pdfrwt>
<pdfrwt beam="2">  1       -2 0.67321368E-01 0.47062744E+03</pdfrwt>
<totfact> 0.77946247E+00</totfact>
</mgrwt>
</event>
<event>
12    1  0.3203156E-008  0.1518395E+04  0.7818608E-02  0.8872312E-01
         -1   -1    0    0    0  501 -0.00000000000E+00  0.00000000000E+00  0.22609624551E+04  0.22609624551E+04  0.00000000000E+00 0.  1.
          1   -1    0    0  501    0  0.00000000000E+00 -0.00000000000E+00 -0.10590632019E+04  0.10590632019E+04  0.00000000000E+00 0. -1.
         23    2    1    2    0    0  0.12825599283E+04 -0.75358349529E+03  0.55485703844E+03  0.15903703362E+04  0.92538743536E+02 0.  0.
    5000000    2    1    2    0    0 -0.12825599283E+04  0.75358349529E+03  0.64704221480E+03  0.17296553207E+04  0.60016318340E+03 0.  0.
         23    2    4    4    0    0 -0.12063590676E+04  0.80286893298E+03  0.66403123018E+03  0.15966013177E+04  0.91090995476E+02 0.  0.
         23    2    4    4    0    0 -0.76200860677E+02 -0.49285437689E+02 -0.16989015378E+02  0.13305400302E+03  0.95807700838E+02 0.  0.
          5    1    3    3  502    0  0.58161155218E+03 -0.29283118606E+03  0.22381217866E+03  0.68857540072E+03  0.47000000000E+01 0. -1.
         -5    1    3    3    0  502  0.70094837614E+03 -0.46075230923E+03  0.33104485978E+03  0.90179493548E+03  0.47000000000E+01 0.  1.
         13    1    5    5    0    0 -0.10412147695E+04  0.65363622741E+03  0.56352585800E+03  0.13523793501E+04  0.00000000000E+00 0.  1.
        -13    1    5    5    0    0 -0.16514429819E+03  0.14923270557E+03  0.10050537217E+03  0.24422196763E+03  0.00000000000E+00 0. -1.
          3    1    6    6  503    0 -0.27533051305E+02 -0.30876490576E+01 -0.50837876382E+02  0.57897255253E+02  0.00000000000E+00 0. -1.
         -3    1    6    6    0  503 -0.48667809372E+02 -0.46197788631E+02  0.33848861004E+02  0.75156747766E+02  0.00000000000E+00 0.  1.
<mgrwt>
<rscale>  0 0.15183949E+04</rscale>
<asrwt>0</asrwt>
<pdfrwt beam="1">  1        1 0.16293280E+00 0.15183949E+04</pdfrwt>
<pdfrwt beam="2">  1       -1 0.34784038E+00 0.15183949E+04</pdfrwt>
<totfact> 0.20765156E-01</totfact>
</mgrwt>
</event>
<event>
12    1  0.3203156E-008  0.7475005E+03  0.7818608E-02  0.9639280E-01
          1   -1    0    0  501    0  0.00000000000E+00  0.00000000000E+00  0.22399072732E+03  0.22399072732E+03  0.00000000000E+00 0. -1.
         -1   -1    0    0    0  501 -0.00000000000E+00 -0.00000000000E+00 -0.25673706335E+04  0.25673706335E+04  0.00000000000E+00 0.  1.
         23    2    1    2    0    0  0.59346445509E+03 -0.22470998613E+03 -0.10749227270E+04  0.12513428501E+04  0.87780532962E+02 0.  0.
    5000000    2    1    2    0    0 -0.59346445509E+03  0.22470998613E+03 -0.12684571792E+04  0.15400185108E+04  0.59998230048E+03 0.  0.
         23    2    4    4    0    0 -0.33356758387E+03  0.41192180736E+03 -0.83380084177E+03  0.99230999534E+03  0.92240851705E+02 0.  0.
         23    2    4    4    0    0 -0.25989687122E+03 -0.18721182123E+03 -0.43465633739E+03  0.54770851545E+03  0.91999111860E+02 0.  0.
          5    1    3    3  502    0  0.24658146728E+03 -0.88577224710E+02 -0.36202632134E+03  0.44691553127E+03  0.47000000000E+01 0. -1.
         -5    1    3    3    0  502  0.34688298781E+03 -0.13613276142E+03 -0.71289640569E+03  0.80442731879E+03  0.47000000000E+01 0.  1.
         11    1    5    5    0    0 -0.20295147566E+03  0.20507100831E+03 -0.51686595948E+03  0.59194074027E+03  0.00000000000E+00 0. -1.
        -11    1    5    5    0    0 -0.13061610821E+03  0.20685079905E+03 -0.31693488229E+03  0.40036925507E+03  0.00000000000E+00 0.  1.
          2    1    6    6  503    0 -0.12420544461E+03 -0.13020185353E+03 -0.29033190009E+03  0.34157301905E+03  0.00000000000E+00 0. -1.
         -2    1    6    6    0  503 -0.13569142661E+03 -0.57009967701E+02 -0.14432443730E+03  0.20613549640E+03  0.00000000000E+00 0.  1.
<mgrwt>
<rscale>  0 0.74750050E+03</rscale>
<asrwt>0</asrwt>
<pdfrwt beam="1">  1        1 0.34460109E-01 0.74750050E+03</pdfrwt>
<pdfrwt beam="2">  1       -1 0.39498013E+00 0.74750050E+03</pdfrwt>
<totfact> 0.10584942E+00</totfact>
</mgrwt>
</event>
<event>
12    1  0.3203156E-008  0.7852042E+03  0.7818608E-02  0.9581684E-01
          1   -1    0    0  501    0  0.00000000000E+00  0.00000000000E+00  0.21815813316E+04  0.21815813316E+04  0.00000000000E+00 0. -1.
         -1   -1    0    0    0  501 -0.00000000000E+00 -0.00000000000E+00 -0.35367201936E+03  0.35367201936E+03  0.00000000000E+00 0.  1.
         23    2    1    2    0    0  0.37509659102E+03  0.60925956905E+03  0.12333849320E+04  0.14282251528E+04  0.81816999421E+02 0.  0.
    5000000    2    1    2    0    0 -0.37509659102E+03 -0.60925956905E+03  0.59452438022E+03  0.11070281982E+04  0.60013125051E+03 0.  0.
         23    2    4    4    0    0 -0.23271071892E+02 -0.46501061426E+03  0.11085468016E+03  0.48509687696E+03  0.79081007601E+02 0.  0.
         23    2    4    4    0    0 -0.35182551912E+03 -0.14424895479E+03  0.48366970007E+03  0.62193132123E+03  0.90957312522E+02 0.  0.
          5    1    3    3  502    0  0.27229586750E+03  0.48146141164E+03  0.89463000009E+03  0.10518246324E+04  0.47000000000E+01 0.  1.
         -5    1    3    3    0  502  0.10280072351E+03  0.12779815741E+03  0.33875493194E+03  0.37640052034E+03  0.47000000000E+01 0. -1.
         13    1    5    5    0    0  0.50067706539E+01 -0.25761151455E+03  0.25050984832E+02  0.25887508961E+03  0.00000000000E+00 0. -1.
        -13    1    5    5    0    0 -0.28277842546E+02 -0.20739909971E+03  0.85803695325E+02  0.22622178735E+03  0.00000000000E+00 0.  1.
          3    1    6    6  503    0 -0.11188522840E+03 -0.12801451505E+02  0.18763224215E+03  0.21883336078E+03  0.00000000000E+00 0. -1.
         -3    1    6    6    0  503 -0.23994029072E+03 -0.13144750329E+03  0.29603745792E+03  0.40309796045E+03  0.00000000000E+00 0.  1.
<mgrwt>
<rscale>  0 0.78520421E+03</rscale>
<asrwt>0</asrwt>
<pdfrwt beam="1">  1        1 0.33562789E+00 0.78520421E+03</pdfrwt>
<pdfrwt beam="2">  1       -1 0.54411081E-01 0.78520421E+03</pdfrwt>
<totfact> 0.79889315E+00</totfact>
</mgrwt>
</event>
<event>
12    1  0.3203156E-008  0.7031013E+03  0.7818608E-02  0.9711943E-01
         -1   -1    0    0    0  501 -0.00000000000E+00  0.00000000000E+00  0.20277329478E+03  0.20277329478E+03  0.00000000000E+00 0.  1.
          1   -1    0    0  501    0  0.00000000000E+00 -0.00000000000E+00 -0.26501402282E+04  0.26501402282E+04  0.00000000000E+00 0. -1.
         23    2    1    2    0    0  0.54251620231E+03 -0.26428198468E+03 -0.11348552451E+04  0.12884352342E+04  0.89443435799E+02 0.  0.
    5000000    2    1    2    0    0 -0.54251620231E+03  0.26428198468E+03 -0.13125116883E+04  0.15644782888E+04  0.60061350877E+03 0.  0.
         23    2    4    4    0    0 -0.72150274271E+02  0.31554055714E+03 -0.33529436448E+03  0.47485686938E+03  0.91078154690E+02 0.  0.
         23    2    4    4    0    0 -0.47036592804E+03 -0.51258572462E+02 -0.97721732383E+03  0.10896214194E+04  0.91921662951E+02 0.  0.
          5    1    3    3  502    0  0.26979959860E+03 -0.13767204228E+03 -0.66264986079E+03  0.72860986999E+03  0.47000000000E+01 0. -1.
         -5    1    3    3    0  502  0.27271660371E+03 -0.12660994239E+03 -0.47220538433E+03  0.55982536423E+03  0.47000000000E+01 0.  1.
         11    1    5    5    0    0 -0.78256455553E+02  0.21701703494E+03 -0.27595094252E+03  0.35967956429E+03  0.00000000000E+00 0. -1.
        -11    1    5    5    0    0  0.61061812820E+01  0.98523522204E+02 -0.59343421965E+02  0.11517730509E+03  0.00000000000E+00 0.  1.
          2    1    6    6  503    0 -0.36884232719E+03 -0.39590398787E+02 -0.84230236666E+03  0.92037239142E+03  0.00000000000E+00 0.  1.
         -2    1    6    6    0  503 -0.10152360084E+03 -0.11668173675E+02 -0.13491495716E+03  0.16924902798E+03  0.00000000000E+00 0. -1.
<mgrwt>
<rscale>  0 0.70310131E+03</rscale>
<asrwt>0</asrwt>
<pdfrwt beam="1">  1        1 0.40771386E+00 0.70310131E+03</pdfrwt>
<pdfrwt beam="2">  1       -1 0.31195893E-01 0.70310131E+03</pdfrwt>
<totfact> 0.10779485E+01</totfact>
</mgrwt>
</event>
<event>
12    1  0.3203156E-008  0.4532879E+03  0.7818608E-02  0.1026746E+00
         -2   -1    0    0    0  501 -0.00000000000E+00  0.00000000000E+00  0.17904252927E+03  0.17904252927E+03  0.00000000000E+00 0.  1.
          2   -1    0    0  501    0  0.00000000000E+00 -0.00000000000E+00 -0.16078587123E+04  0.16078587123E+04  0.00000000000E+00 0. -1.
         23    2    1    2    0    0 -0.33259970286E+03  0.13702323279E+03 -0.43544688714E+03  0.57190183993E+03  0.89776357308E+02 0.  0.
    5000000    2    1    2    0    0  0.33259970286E+03 -0.13702323279E+03 -0.99336929584E+03  0.12149994016E+04  0.60003588166E+03 0.  0.
         23    2    4    4    0    0 -0.62207155697E+02 -0.62299248949E+02  0.13448743164E+02  0.12744238226E+03  0.91157914982E+02 0.  0.
         23    2    4    4    0    0  0.39480685856E+03 -0.74723983837E+02 -0.10068180390E+04  0.10875570193E+04  0.87416115798E+02 0.  0.
          5    1    3    3  502    0 -0.41221527401E+02 -0.10468659473E+02 -0.67335423514E+02  0.79780676935E+02  0.47000000000E+01 0. -1.
         -5    1    3    3    0  502 -0.29137817546E+03  0.14749189226E+03 -0.36811146363E+03  0.49212116300E+03  0.47000000000E+01 0.  1.
         11    1    5    5    0    0 -0.84786110123E+02 -0.36242511770E+02  0.11297114861E+02  0.92896872570E+02  0.00000000000E+00 0.  1.
        -11    1    5    5    0    0  0.22578954426E+02 -0.26056737179E+02  0.21516283037E+01  0.34545509690E+02  0.00000000000E+00 0. -1.
          1    1    6    6  503    0  0.16991877071E+03 -0.74661094600E+02 -0.48760532286E+03  0.52173328298E+03  0.00000000000E+00 0. -1.
         -1    1    6    6    0  503  0.22488808785E+03 -0.62889237636E-01 -0.51921271615E+03  0.56582373635E+03  0.00000000000E+00 0.  1.
<mgrwt>
<rscale>  0 0.45328790E+03</rscale>
<asrwt>0</asrwt>
<pdfrwt beam="1">  1        2 0.24736287E+00 0.45328790E+03</pdfrwt>
<pdfrwt beam="2">  1       -2 0.27545005E-01 0.45328790E+03</pdfrwt>
<totfact> 0.13947629E+02</totfact>
</mgrwt>
</event>
<event>
12    1  0.3203156E-008  0.1392268E+04  0.7818608E-02  0.8959434E-01
          2   -1    0    0  501    0  0.00000000000E+00  0.00000000000E+00  0.15364465690E+04  0.15364465690E+04  0.00000000000E+00 0. -1.
         -2   -1    0    0    0  501 -0.00000000000E+00 -0.00000000000E+00 -0.14067831821E+04  0.14067831821E+04  0.00000000000E+00 0.  1.
         23    2    1    2    0    0 -0.83979899382E+03 -0.10913130209E+04 -0.22903267883E+03  0.13988903971E+04  0.90619620503E+02 0.  0.
    5000000    2    1    2    0    0  0.83979899382E+03  0.10913130209E+04  0.35869606578E+03  0.15443393540E+04  0.60007892241E+03 0.  0.
         23    2    4    4    0    0  0.67517230971E+03  0.10255111917E+04  0.12453884725E+03  0.12373711204E+04  0.89702357285E+02 0.  0.
         23    2    4    4    0    0  0.16462668411E+03  0.65801829161E+02  0.23415721853E+03  0.30696823363E+03  0.89264033200E+02 0.  0.
          5    1    3    3  502    0 -0.56791777070E+03 -0.72502397479E+03 -0.19523310339E+03  0.94145016488E+03  0.47000000000E+01 0. -1.
         -5    1    3    3    0  502 -0.27188122312E+03 -0.36628904609E+03 -0.33799575446E+02  0.45744023224E+03  0.47000000000E+01 0.  1.
         13    1    5    5    0    0  0.21073511930E+03  0.29304782757E+03 -0.15570248114E+01  0.36095532145E+03  0.00000000000E+00 0. -1.
        -13    1    5    5    0    0  0.46443719041E+03  0.73246336414E+03  0.12609587206E+03  0.87641579892E+03  0.00000000000E+00 0.  1.
          1    1    6    6  503    0  0.96105939452E+00  0.40865348590E+01 -0.75330399473E+01  0.86238096664E+01  0.00000000000E+00 0. -1.
         -1    1    6    6    0  503  0.16366562471E+03  0.61715294302E+02  0.24169025848E+03  0.29834442396E+03  0.00000000000E+00 0.  1.
<mgrwt>
<rscale>  0 0.13922682E+04</rscale>
<asrwt>0</asrwt>
<pdfrwt beam="1">  1        2 0.23637639E+00 0.13922682E+04</pdfrwt>
<pdfrwt beam="2">  1       -2 0.21642818E+00 0.13922682E+04</pdfrwt>
<totfact> 0.11986442E+00</totfact>
</mgrwt>
</event>
<event>
12    1  0.3203156E-008  0.8972155E+03  0.7818608E-02  0.9429069E-01
          2   -1    0    0  501    0  0.00000000000E+00  0.00000000000E+00  0.13597798220E+04  0.13597798220E+04  0.00000000000E+00 0. -1.
         -2   -1    0    0    0  501 -0.00000000000E+00 -0.00000000000E+00 -0.93255240387E+03  0.93255240387E+03  0.00000000000E+00 0.  1.
         23    2    1    2    0    0  0.52697169651E+03  0.61323022689E+03 -0.47367503635E+03  0.94142538637E+03  0.90350638881E+02 0.  0.
    5000000    2    1    2    0    0 -0.52697169651E+03 -0.61323022689E+03  0.90090245448E+03  0.13509068395E+04  0.59964454173E+03 0.  0.
         23    2    4    4    0    0 -0.21300937305E+03 -0.62469790377E+03  0.49610276402E+03  0.83088304641E+03  0.92888214317E+02 0.  0.
         23    2    4    4    0    0 -0.31396232346E+03  0.11467676875E+02  0.40479969045E+03  0.52002379309E+03  0.88645969022E+02 0.  0.
          5    1    3    3  502    0  0.24456727355E+03  0.35325618861E+03 -0.24653147145E+03  0.49538161300E+03  0.47000000000E+01 0. -1.
         -5    1    3    3    0  502  0.28240442296E+03  0.25997403829E+03 -0.22714356490E+03  0.44604377338E+03  0.47000000000E+01 0.  1.
         13    1    5    5    0    0 -0.22249676165E+02 -0.17277638054E+03  0.10390475607E+03  0.20283718617E+03  0.00000000000E+00 0.  1.
        -13    1    5    5    0    0 -0.19075969689E+03 -0.45192152323E+03  0.39219800796E+03  0.62804586024E+03  0.00000000000E+00 0. -1.
          1    1    6    6  503    0 -0.15720472977E+03  0.23359552344E+02  0.26823153622E+03  0.31178061642E+03  0.00000000000E+00 0. -1.
         -1    1    6    6    0  503 -0.15675759369E+03 -0.11891875470E+02  0.13656815423E+03  0.20824317668E+03  0.00000000000E+00 0.  1.
<mgrwt>
<rscale>  0 0.89721551E+03</rscale>
<asrwt>0</asrwt>
<pdfrwt beam="1">  1        2 0.20919690E+00 0.89721551E+03</pdfrwt>
<pdfrwt beam="2">  1       -2 0.14346960E+00 0.89721551E+03</pdfrwt>
<totfact> 0.51616803E+00</totfact>
</mgrwt>
</event>
<event>
12    1  0.3203156E-008  0.6137333E+03  0.7818608E-02  0.9877317E-01
         -1   -1    0    0    0  501 -0.00000000000E+00  0.00000000000E+00  0.19135984643E+03  0.19135984643E+03  0.00000000000E+00 0.  1.
          1   -1    0    0  501    0  0.00000000000E+00 -0.00000000000E+00 -0.33299807342E+04  0.33299807342E+04  0.00000000000E+00 0. -1.
         23    2    1    2    0    0  0.23045140795E+03 -0.53516407745E+03 -0.57045569038E+03  0.82041870945E+03  0.90325649267E+02 0.  0.
    5000000    2    1    2    0    0 -0.23045140795E+03  0.53516407745E+03 -0.25681651974E+04  0.27009218711E+04  0.59999835987E+03 0.  0.
         23    2    4    4    0    0 -0.19471669010E+03  0.51522193325E+03 -0.25343528512E+04  0.25951708850E+04  0.92732509865E+02 0.  0.
         23    2    4    4    0    0 -0.35734717841E+02  0.19942144202E+02 -0.33812346190E+02  0.10575098610E+03  0.91462216968E+02 0.  0.
          5    1    3    3  502    0  0.12577580508E+03 -0.26040668072E+03 -0.34293276468E+03  0.44861583076E+03  0.47000000000E+01 0. -1.
         -5    1    3    3    0  502  0.10467560286E+03 -0.27475739673E+03 -0.22752292569E+03  0.37180287870E+03  0.47000000000E+01 0.  1.
         13    1    5    5    0    0 -0.27680387532E+02  0.13639074181E+03 -0.49365059646E+03  0.51289331219E+03  0.00000000000E+00 0.  1.
        -13    1    5    5    0    0 -0.16703630257E+03  0.37883119144E+03 -0.20407022547E+04  0.20822775728E+04  0.00000000000E+00 0. -1.
          4    1    6    6  503    0  0.20397853081E+02 -0.14592588967E+02  0.95753783146E+01  0.26845929542E+02  0.00000000000E+00 0. -1.
         -4    1    6    6    0  503 -0.56132570923E+02  0.34534733170E+02 -0.43387724505E+02  0.78905056563E+02  0.00000000000E+00 0.  1.
<mgrwt>
<rscale>  0 0.61373327E+03</rscale>
<asrwt>0</asrwt>
<pdfrwt beam="1">  1        1 0.51230473E+00 0.61373327E+03</pdfrwt>
<pdfrwt beam="2">  1       -1 0.29439976E-01 0.61373327E+03</pdfrwt>
<totfact> 0.39604269E+00</totfact>
</mgrwt>
</event>
<event>
12    1  0.3203156E-008  0.1811922E+04  0.7818608E-02  0.8699985E-01
          2   -1    0    0  501    0  0.00000000000E+00  0.00000000000E+00  0.15564372424E+04  0.15564372424E+04  0.00000000000E+00 0. -1.
         -2   -1    0    0    0  501 -0.00000000000E+00 -0.00000000000E+00 -0.26476166302E+04  0.26476166302E+04  0.00000000000E+00 0.  1.
         23    2    1    2    0    0  0.98120947762E+03  0.14941895231E+04  0.35873627535E+03  0.18254527130E+04  0.90617449671E+02 0.  0.
    5000000    2    1    2    0    0 -0.98120947762E+03 -0.14941895231E+04 -0.14499156632E+04  0.23786011596E+04  0.60009472262E+03 0.  0.
         23    2    4    4    0    0 -0.22552562289E+03 -0.13770942594E+03 -0.44859903431E+03  0.52871136099E+03  0.92026719410E+02 0.  0.
         23    2    4    4    0    0 -0.75568385474E+03 -0.13564800972E+04 -0.10013166289E+04  0.18498897986E+04  0.91438139586E+02 0.  0.
          5    1    3    3  502    0  0.50558515594E+03  0.70917764710E+03  0.14376607547E+03  0.88274575021E+03  0.47000000000E+01 0. -1.
         -5    1    3    3    0  502  0.47562432168E+03  0.78501187605E+03  0.21497019989E+03  0.94270696282E+03  0.47000000000E+01 0.  1.
         13    1    5    5    0    0 -0.16284235262E+03 -0.14291431317E+03 -0.33808535795E+03  0.40155179240E+03  0.00000000000E+00 0. -1.
        -13    1    5    5    0    0 -0.62683270266E+02  0.52048872334E+01 -0.11051367636E+03  0.12715956859E+03  0.00000000000E+00 0.  1.
          4    1    6    6  503    0 -0.24766533382E+03 -0.36025382666E+03 -0.28391007184E+03  0.52127331228E+03  0.00000000000E+00 0. -1.
         -4    1    6    6    0  503 -0.50801852091E+03 -0.99622627055E+03 -0.71740655702E+03  0.13286164863E+04  0.00000000000E+00 0.  1.
<mgrwt>
<rscale>  0 0.18119217E+04</rscale>
<asrwt>0</asrwt>
<pdfrwt beam="1">  1        2 0.23945189E+00 0.18119217E+04</pdfrwt>
<pdfrwt beam="2">  1       -2 0.40732563E+00 0.18119217E+04</pdfrwt>
<totfact> 0.71262927E-02</totfact>
</mgrwt>
</event>
<event>
12    1  0.3203156E-008  0.9223873E+03  0.7818608E-02  0.9398021E-01
          2   -1    0    0  501    0  0.00000000000E+00  0.00000000000E+00  0.18994864148E+04  0.18994864148E+04  0.00000000000E+00 0. -1.
         -2   -1    0    0    0  501 -0.00000000000E+00 -0.00000000000E+00 -0.45508183726E+03  0.45508183726E+03  0.00000000000E+00 0.  1.
         23    2    1    2    0    0 -0.52235186379E+03 -0.64457485316E+03  0.60595805901E+03  0.10312320382E+04  0.89028850987E+02 0.  0.
    5000000    2    1    2    0    0  0.52235186379E+03  0.64457485316E+03  0.83844651853E+03  0.13233362139E+04  0.59991496037E+03 0.  0.
         23    2    4    4    0    0  0.43708098949E+03  0.96617143935E+02  0.44081326661E+03  0.63489294143E+03  0.91640859799E+02 0.  0.
         23    2    4    4    0    0  0.85270874296E+02  0.54795770923E+03  0.39763325193E+03  0.68844327248E+03  0.91176550069E+02 0.  0.
          5    1    3    3  502    0 -0.22224913012E+03 -0.30198614368E+03  0.22390493969E+03  0.43674456932E+03  0.47000000000E+01 0. -1.
         -5    1    3    3    0  502 -0.30010273367E+03 -0.34258870948E+03  0.38205311931E+03  0.59448746883E+03  0.47000000000E+01 0.  1.
         11    1    5    5    0    0  0.24093193848E+03  0.98874457166E+02  0.26320927335E+03  0.37027486930E+03  0.00000000000E+00 0. -1.
        -11    1    5    5    0    0  0.19614905101E+03 -0.22573132313E+01  0.17760399325E+03  0.26461807213E+03  0.00000000000E+00 0.  1.
          3    1    6    6  503    0  0.71276676386E+02  0.26473479882E+03  0.15318014397E+03  0.31405259879E+03  0.00000000000E+00 0. -1.
         -3    1    6    6    0  503  0.13994197910E+02  0.28322291041E+03  0.24445310795E+03  0.37439067369E+03  0.00000000000E+00 0.  1.
<mgrwt>
<rscale>  0 0.92238727E+03</rscale>
<asrwt>0</asrwt>
<pdfrwt beam="1">  1        2 0.29222868E+00 0.92238727E+03</pdfrwt>
<pdfrwt beam="2">  1       -2 0.70012591E-01 0.92238727E+03</pdfrwt>
<totfact> 0.14263639E+01</totfact>
</mgrwt>
</event>
<event>
12    1  0.3203156E-008  0.1247115E+04  0.7818608E-02  0.9072587E-01
         -2   -1    0    0    0  501 -0.00000000000E+00  0.00000000000E+00  0.15527533280E+04  0.15527533280E+04  0.00000000000E+00 0.  1.
          2   -1    0    0  501    0  0.00000000000E+00 -0.00000000000E+00 -0.10232813611E+04  0.10232813611E+04  0.00000000000E+00 0. -1.
         23    2    1    2    0    0  0.10611282650E+04 -0.53042825932E+03  0.30123704867E+03  0.12271770320E+04  0.88726407249E+02 0.  0.
    5000000    2    1    2    0    0 -0.10611282650E+04  0.53042825932E+03  0.22823491829E+03  0.13488576571E+04  0.59998205658E+03 0.  0.
         23    2    4    4    0    0 -0.10104471419E+02  0.20071299008E+03  0.74204426424E+02  0.23294615785E+03  0.91486670210E+02 0.  0.
         23    2    4    4    0    0 -0.10510237935E+04  0.32971526924E+03  0.15403049187E+03  0.11159114993E+04  0.90387545540E+02 0.  0.
          5    1    3    3  502    0  0.93281012654E+03 -0.44059853017E+03  0.24197899145E+03  0.10596403726E+04  0.47000000000E+01 0. -1.
         -5    1    3    3    0  502  0.12831813841E+03 -0.89829729153E+02  0.59258057213E+02  0.16753665936E+03  0.47000000000E+01 0.  1.
         13    1    5    5    0    0  0.10522504252E+02  0.79425777647E+02 -0.14306138118E+02  0.81386994283E+02  0.00000000000E+00 0. -1.
        -13    1    5    5    0    0 -0.20626975671E+02  0.12128721243E+03  0.88510564543E+02  0.15155916356E+03  0.00000000000E+00 0.  1.
          2    1    6    6  503    0 -0.59707511083E+03  0.16048128022E+03  0.49119910013E+02  0.62021423302E+03  0.00000000000E+00 0. -1.
         -2    1    6    6    0  503 -0.45394868270E+03  0.16923398902E+03  0.10491058186E+03  0.49569726623E+03  0.00000000000E+00 0.  1.
<mgrwt>
<rscale>  0 0.12471155E+04</rscale>
<asrwt>0</asrwt>
<pdfrwt beam="1">  1        2 0.15742790E+00 0.12471155E+04</pdfrwt>
<pdfrwt beam="2">  1       -2 0.23888513E+00 0.12471155E+04</pdfrwt>
<totfact> 0.17746285E+00</totfact>
</mgrwt>
</event>
<event>
12    1  0.3203156E-008  0.1476375E+04  0.7818608E-02  0.8900317E-01
         -2   -1    0    0    0  501 -0.00000000000E+00  0.00000000000E+00  0.11826081863E+04  0.11826081863E+04  0.00000000000E+00 0.  1.
          2   -1    0    0  501    0  0.00000000000E+00 -0.00000000000E+00 -0.20769994210E+04  0.20769994210E+04  0.00000000000E+00 0. -1.
         23    2    1    2    0    0 -0.90222897386E+03  0.11488817619E+04 -0.82229818858E+03  0.16787284841E+04  0.89490716729E+02 0.  0.
    5000000    2    1    2    0    0  0.90222897386E+03 -0.11488817619E+04 -0.72093046138E+02  0.15808791231E+04  0.60002914127E+03 0.  0.
         23    2    4    4    0    0  0.49382773798E+03 -0.81197493457E+03 -0.29646096115E+03  0.99894083012E+03  0.82610843357E+02 0.  0.
         23    2    4    4    0    0  0.40840123588E+03 -0.33690682736E+03  0.22436791501E+03  0.58193829297E+03  0.89517795720E+02 0.  0.
          5    1    3    3  502    0 -0.18018996105E+03  0.28257866484E+03 -0.20892196155E+03  0.39495518721E+03  0.47000000000E+01 0. -1.
         -5    1    3    3    0  502 -0.72203901280E+03  0.86630309709E+03 -0.61337622703E+03  0.12837732969E+04  0.47000000000E+01 0.  1.
         11    1    5    5    0    0  0.15130675048E+03 -0.31574102469E+03 -0.12925818577E+03  0.37322085419E+03  0.00000000000E+00 0. -1.
        -11    1    5    5    0    0  0.34252098750E+03 -0.49623390988E+03 -0.16720277538E+03  0.62571997594E+03  0.00000000000E+00 0.  1.
          4    1    6    6  503    0  0.80567108175E+02 -0.11667024044E+03  0.66639718273E+02  0.15666478856E+03  0.00000000000E+00 0. -1.
         -4    1    6    6    0  503  0.32783412770E+03 -0.22023658692E+03  0.15772819674E+03  0.42527350441E+03  0.00000000000E+00 0.  1.
<mgrwt>
<rscale>  0 0.14763754E+04</rscale>
<asrwt>0</asrwt>
<pdfrwt beam="1">  1        2 0.31953837E+00 0.14763754E+04</pdfrwt>
<pdfrwt beam="2">  1       -2 0.18193972E+00 0.14763754E+04</pdfrwt>
<totfact> 0.10034388E+00</totfact>
</mgrwt>
</event>
<event>
12    1  0.3203156E-008  0.1266836E+04  0.7818608E-02  0.9056286E-01
         -1   -1    0    0    0  501 -0.00000000000E+00  0.00000000000E+00  0.11100052894E+04  0.11100052894E+04  0.00000000000E+00 0.  1.
          1   -1    0    0  501    0  0.00000000000E+00 -0.00000000000E+00 -0.18893019879E+04  0.18893019879E+04  0.00000000000E+00 0. -1.
         23    2    1    2    0    0  0.98933539197E+02  0.12110676516E+04 -0.10599203859E+04  0.16153751864E+04  0.97637424650E+02 0.  0.
    5000000    2    1    2    0    0 -0.98933539197E+02 -0.12110676516E+04  0.28062368745E+03  0.13839320908E+04  0.60003806228E+03 0.  0.
         23    2    4    4    0    0 -0.80489226889E+02 -0.12404031842E+04  0.21855634710E+03  0.12653402841E+04  0.90777654625E+02 0.  0.
         23    2    4    4    0    0 -0.18444312307E+02  0.29335532646E+02  0.62067340351E+02  0.11859180674E+03  0.94925738114E+02 0.  0.
          5    1    3    3  502    0  0.19928897786E+02  0.41730616929E+02 -0.31770235147E+02  0.56303136658E+02  0.47000000000E+01 0. -1.
         -5    1    3    3    0  502  0.79004641411E+02  0.11693370347E+04 -0.10281501507E+04  0.15590720498E+04  0.47000000000E+01 0.  1.
         11    1    5    5    0    0 -0.10140347665E+02 -0.81945311976E+03  0.14044223989E+03  0.83146272609E+03  0.00000000000E+00 0. -1.
        -11    1    5    5    0    0 -0.70348879224E+02 -0.42095006448E+03  0.78114107212E+02  0.43387755801E+03  0.00000000000E+00 0.  1.
          3    1    6    6  503    0  0.12459897776E+02  0.35268249001E+02 -0.11039717151E+02  0.38999664036E+02  0.00000000000E+00 0. -1.
         -3    1    6    6    0  503 -0.30904210084E+02 -0.59327163550E+01  0.73107057502E+02  0.79592142708E+02  0.00000000000E+00 0.  1.
<mgrwt>
<rscale>  0 0.12668362E+04</rscale>
<asrwt>0</asrwt>
<pdfrwt beam="1">  1        1 0.29066184E+00 0.12668362E+04</pdfrwt>
<pdfrwt beam="2">  1       -1 0.17077005E+00 0.12668362E+04</pdfrwt>
<totfact> 0.83735648E-01</totfact>
</mgrwt>
</event>
<event>
12    1  0.3203156E-008  0.8781388E+03  0.7818608E-02  0.9453329E-01
          2   -1    0    0  501    0  0.00000000000E+00  0.00000000000E+00  0.26867852302E+04  0.26867852302E+04  0.00000000000E+00 0. -1.
         -2   -1    0    0    0  501 -0.00000000000E+00 -0.00000000000E+00 -0.31742170055E+03  0.31742170055E+03  0.00000000000E+00 0.  1.
         23    2    1    2    0    0  0.67868272914E+03  0.41823834686E+03  0.13928765993E+04  0.16080892543E+04  0.10154933455E+03 0.  0.
    5000000    2    1    2    0    0 -0.67868272914E+03 -0.41823834686E+03  0.97648693039E+03  0.13961176765E+04  0.60007022898E+03 0.  0.
         23    2    4    4    0    0 -0.16761582235E+03 -0.41380697147E+03  0.60804467400E+03  0.75968241038E+03  0.89820741082E+02 0.  0.
         23    2    4    4    0    0 -0.51106690679E+03 -0.44313753871E+01  0.36844225639E+03  0.63643526609E+03  0.89950716040E+02 0.  0.
          5    1    3    3  502    0  0.43621853333E+02  0.28201442244E+02  0.15086183516E+03  0.15962321492E+03  0.47000000000E+01 0. -1.
         -5    1    3    3    0  502  0.63506087581E+03  0.39003690461E+03  0.12420147641E+04  0.14484660394E+04  0.47000000000E+01 0.  1.
         11    1    5    5    0    0 -0.11249337981E+03 -0.24228035572E+03  0.43114014330E+03  0.50718473404E+03  0.00000000000E+00 0. -1.
        -11    1    5    5    0    0 -0.55122442538E+02 -0.17152661574E+03  0.17690453070E+03  0.25249767635E+03  0.00000000000E+00 0.  1.
          1    1    6    6  503    0 -0.24425477042E+03 -0.12940834754E+02  0.22988460911E+03  0.33567065940E+03  0.00000000000E+00 0. -1.
         -1    1    6    6    0  503 -0.26681213637E+03  0.85094593668E+01  0.13855764729E+03  0.30076460669E+03  0.00000000000E+00 0.  1.
<mgrwt>
<rscale>  0 0.87813882E+03</rscale>
<asrwt>0</asrwt>
<pdfrwt beam="1">  1        2 0.41335156E+00 0.87813882E+03</pdfrwt>
<pdfrwt beam="2">  1       -2 0.48834110E-01 0.87813882E+03</pdfrwt>
<totfact> 0.11086901E+01</totfact>
</mgrwt>
</event>
<event>
12    1  0.3203156E-008  0.9050956E+03  0.7818608E-02  0.9419234E-01
          1   -1    0    0  501    0  0.00000000000E+00  0.00000000000E+00  0.83669813278E+03  0.83669813278E+03  0.00000000000E+00 0. -1.
         -1   -1    0    0    0  501 -0.00000000000E+00 -0.00000000000E+00 -0.10561545024E+04  0.10561545024E+04  0.00000000000E+00 0.  1.
         23    2    1    2    0    0 -0.47874751357E+03 -0.68616252606E+03 -0.70513152948E+01  0.84157551062E+03  0.90451230580E+02 0.  0.
    5000000    2    1    2    0    0  0.47874751357E+03  0.68616252606E+03 -0.21240505428E+03  0.10512771245E+04  0.60004124153E+03 0.  0.
         23    2    4    4    0    0  0.55066345404E+03  0.50320737194E+03 -0.69651488125E+01  0.75151976008E+03  0.91024928957E+02 0.  0.
         23    2    4    4    0    0 -0.71915940472E+02  0.18295515411E+03 -0.20543990546E+03  0.29975736444E+03  0.94891684938E+02 0.  0.
          5    1    3    3  502    0 -0.13351681774E+03 -0.13222061333E+03  0.14173483353E+02  0.18849936031E+03  0.47000000000E+01 0. -1.
         -5    1    3    3    0  502 -0.34523069583E+03 -0.55394191273E+03 -0.21224798648E+02  0.65307615031E+03  0.47000000000E+01 0.  1.
         13    1    5    5    0    0  0.38377383051E+03  0.40322377166E+03 -0.14121129612E+02  0.55684034455E+03  0.00000000000E+00 0. -1.
        -13    1    5    5    0    0  0.16688962353E+03  0.99983600278E+02  0.71559807997E+01  0.19467941552E+03  0.00000000000E+00 0.  1.
          1    1    6    6  503    0 -0.32970048154E+02  0.17557799387E+03 -0.16775527441E+03  0.24506425300E+03  0.00000000000E+00 0. -1.
         -1    1    6    6    0  503 -0.38945892318E+02  0.73771602463E+01 -0.37684631054E+02  0.54693111444E+02  0.00000000000E+00 0.  1.
<mgrwt>
<rscale>  0 0.90509559E+03</rscale>
<asrwt>0</asrwt>
<pdfrwt beam="1">  1        1 0.12872279E+00 0.90509559E+03</pdfrwt>
<pdfrwt beam="2">  1       -1 0.16248531E+00 0.90509559E+03</pdfrwt>
<totfact> 0.58306485E+00</totfact>
</mgrwt>
</event>
<event>
12    1  0.3203156E-008  0.1320618E+04  0.7818608E-02  0.9013373E-01
          2   -1    0    0  501    0  0.00000000000E+00  0.00000000000E+00  0.11052774943E+04  0.11052774943E+04  0.00000000000E+00 0. -1.
         -2   -1    0    0    0  501 -0.00000000000E+00 -0.00000000000E+00 -0.22677524631E+04  0.22677524631E+04  0.00000000000E+00 0.  1.
         23    2    1    2    0    0 -0.56588331181E+03  0.11431392370E+04 -0.14511446012E+04  0.19342489319E+04  0.92233610215E+02 0.  0.
    5000000    2    1    2    0    0  0.56588331181E+03 -0.11431392370E+04  0.28866963237E+03  0.14387810256E+04  0.59980784007E+03 0.  0.
         23    2    4    4    0    0  0.61315190881E+03 -0.80048322777E+03  0.63659836184E+02  0.10146838459E+04  0.93819354299E+02 0.  0.
         23    2    4    4    0    0 -0.47268596992E+02 -0.34265600927E+03  0.22500979619E+03  0.42409717963E+03  0.97885384179E+02 0.  0.
          5    1    3    3  502    0 -0.39657784079E+03  0.87997788768E+03 -0.10681605559E+04  0.14396611163E+04  0.47000000000E+01 0. -1.
         -5    1    3    3    0  502 -0.16930547103E+03  0.26316134935E+03 -0.38298404533E+03  0.49458781555E+03  0.47000000000E+01 0.  1.
         11    1    5    5    0    0  0.65859138599E+02 -0.12358129353E+03  0.31942881047E+02  0.14363185544E+03  0.00000000000E+00 0. -1.
        -11    1    5    5    0    0  0.54729277021E+03 -0.67690193424E+03  0.31716955136E+02  0.87105199049E+03  0.00000000000E+00 0.  1.
          1    1    6    6  503    0  0.15783633270E+02 -0.12345325631E+03  0.12038928956E+03  0.17315718470E+03  0.00000000000E+00 0. -1.
         -1    1    6    6    0  503 -0.63052230262E+02 -0.21920275296E+03  0.10462050663E+03  0.25093999493E+03  0.00000000000E+00 0.  1.
<mgrwt>
<rscale>  0 0.13206181E+04</rscale>
<asrwt>0</asrwt>
<pdfrwt beam="1">  1        2 0.17004269E+00 0.13206181E+04</pdfrwt>
<pdfrwt beam="2">  1       -2 0.34888499E+00 0.13206181E+04</pdfrwt>
<totfact> 0.33054843E-01</totfact>
</mgrwt>
</event>
<event>
12    1  0.3203156E-008  0.1078525E+04  0.7818608E-02  0.9226379E-01
         -1   -1    0    0    0  501 -0.00000000000E+00  0.00000000000E+00  0.72731448877E+03  0.72731448877E+03  0.00000000000E+00 0.  1.
          1   -1    0    0  501    0  0.00000000000E+00 -0.00000000000E+00 -0.19175044207E+04  0.19175044207E+04  0.00000000000E+00 0. -1.
         23    2    1    2    0    0  0.43074591812E+03  0.91474179353E+03 -0.65007765452E+02  0.10172480129E+04  0.90955568137E+02 0.  0.
    5000000    2    1    2    0    0 -0.43074591812E+03 -0.91474179353E+03 -0.11251821665E+04  0.16275708966E+04  0.60054768402E+03 0.  0.
         23    2    4    4    0    0 -0.32425765012E+03 -0.94602596681E+03 -0.84347313297E+03  0.13116625239E+04  0.94358343156E+02 0.  0.
         23    2    4    4    0    0 -0.10648826800E+03  0.31284173274E+02 -0.28170903352E+03  0.31590837271E+03  0.90109209665E+02 0.  0.
          5    1    3    3  502    0  0.31767426623E+03  0.66780556883E+03 -0.73655127111E+01  0.73956579015E+03  0.47000000000E+01 0. -1.
         -5    1    3    3    0  502  0.11307165189E+03  0.24693622470E+03 -0.57642252741E+02  0.27768222275E+03  0.47000000000E+01 0.  1.
         13    1    5    5    0    0 -0.22067381535E+03 -0.76198394681E+03 -0.66867191921E+03  0.10375155919E+04  0.00000000000E+00 0. -1.
        -13    1    5    5    0    0 -0.10358383477E+03 -0.18404202000E+03 -0.17480121376E+03  0.27414693193E+03  0.00000000000E+00 0.  1.
          4    1    6    6  503    0 -0.87297462926E+02 -0.17451883571E+02 -0.15408236406E+03  0.17795165127E+03  0.00000000000E+00 0.  1.
         -4    1    6    6    0  503 -0.19190805071E+02  0.48736056845E+02 -0.12762666946E+03  0.13795672145E+03  0.00000000000E+00 0. -1.
<mgrwt>
<rscale>  0 0.10785251E+04</rscale>
<asrwt>0</asrwt>
<pdfrwt beam="1">  1        1 0.29500068E+00 0.10785251E+04</pdfrwt>
<pdfrwt beam="2">  1       -1 0.11189454E+00 0.10785251E+04</pdfrwt>
<totfact> 0.24829162E+00</totfact>
</mgrwt>
</event>
<event>
12    1  0.3203156E-008  0.5399142E+03  0.7818608E-02  0.1003856E+00
         -2   -1    0    0    0  501 -0.00000000000E+00  0.00000000000E+00  0.66158968331E+03  0.66158968331E+03  0.00000000000E+00 0.  1.
          2   -1    0    0  501    0  0.00000000000E+00 -0.00000000000E+00 -0.45516463346E+03  0.45516463346E+03  0.00000000000E+00 0. -1.
         23    2    1    2    0    0 -0.17548049518E+03  0.33037206040E+03  0.12443864467E+03  0.40487376354E+03  0.92188316119E+02 0.  0.
    5000000    2    1    2    0    0  0.17548049518E+03 -0.33037206040E+03  0.81986405184E+02  0.71188055323E+03  0.60009420006E+03 0.  0.
         23    2    4    4    0    0 -0.20968203581E+03 -0.13067405907E+03  0.36780886065E+02  0.26625330139E+03  0.92172235870E+02 0.  0.
         23    2    4    4    0    0  0.38516253099E+03 -0.19969800134E+03  0.45205519119E+02  0.44562725184E+03  0.91162720496E+02 0.  0.
          5    1    3    3  502    0 -0.98480639329E+02  0.10569811873E+03  0.72530054830E+02  0.16171959522E+03  0.47000000000E+01 0. -1.
         -5    1    3    3    0  502 -0.76999855855E+02  0.22467394168E+03  0.51908589841E+02  0.24315416832E+03  0.47000000000E+01 0.  1.
         11    1    5    5    0    0 -0.14886972696E+03 -0.12524278598E+03  0.55652164587E+02  0.20234899176E+03  0.00000000000E+00 0. -1.
        -11    1    5    5    0    0 -0.60812308854E+02 -0.54312730865E+01 -0.18871278522E+02  0.63904309624E+02  0.00000000000E+00 0.  1.
          4    1    6    6  503    0  0.12059317671E+03 -0.10870864804E+03  0.32373738274E+02  0.16555465369E+03  0.00000000000E+00 0. -1.
         -4    1    6    6    0  503  0.26456935428E+03 -0.90989353297E+02  0.12831780845E+02  0.28007259815E+03  0.00000000000E+00 0.  1.
<mgrwt>
<rscale>  0 0.53991424E+03</rscale>
<asrwt>0</asrwt>
<pdfrwt beam="1">  1        2 0.70025328E-01 0.53991424E+03</pdfrwt>
<pdfrwt beam="2">  1       -2 0.10178303E+00 0.53991424E+03</pdfrwt>
<totfact> 0.55835805E+01</totfact>
</mgrwt>
</event>
<event>
12    1  0.3203156E-008  0.5549489E+03  0.7818608E-02  0.1000355E+00
         -2   -1    0    0    0  501 -0.00000000000E+00  0.00000000000E+00  0.32629874782E+03  0.32629874782E+03  0.00000000000E+00 0.  1.
          2   -1    0    0  501    0  0.00000000000E+00 -0.00000000000E+00 -0.20238878311E+04  0.20238878311E+04  0.00000000000E+00 0. -1.
         23    2    1    2    0    0 -0.44133416681E+03  0.32154130522E+03 -0.13658256834E+04  0.14736975253E+04  0.90221620500E+02 0.  0.
    5000000    2    1    2    0    0  0.44133416681E+03 -0.32154130522E+03 -0.33176339980E+03  0.87648905357E+03  0.60000120819E+03 0.  0.
         23    2    4    4    0    0  0.38699296561E+03 -0.30764962612E+03  0.24018382608E+02  0.50444256002E+03  0.97332244278E+02 0.  0.
         23    2    4    4    0    0  0.54341201202E+02 -0.13891679097E+02 -0.35578178240E+03  0.37204649355E+03  0.93230744800E+02 0.  0.
          5    1    3    3  502    0 -0.25011710147E+02  0.47852993873E+02 -0.16240261339E+03  0.17120804159E+03  0.47000000000E+01 0. -1.
         -5    1    3    3    0  502 -0.41632245666E+03  0.27368831135E+03 -0.12034230701E+04  0.13024894837E+04  0.47000000000E+01 0.  1.
         13    1    5    5    0    0  0.95832447220E+02 -0.87665392543E+02 -0.35627644226E+02  0.13467890712E+03  0.00000000000E+00 0. -1.
        -13    1    5    5    0    0  0.29116051839E+03 -0.21998423358E+03  0.59646026834E+02  0.36976365290E+03  0.00000000000E+00 0.  1.
          3    1    6    6  503    0  0.35547136241E+02  0.51202516456E+01 -0.34984104887E+02  0.50136847394E+02  0.00000000000E+00 0. -1.
         -3    1    6    6    0  503  0.18794064962E+02 -0.19011930742E+02 -0.32079767752E+03  0.32190964616E+03  0.00000000000E+00 0.  1.
<mgrwt>
<rscale>  0 0.55494889E+03</rscale>
<asrwt>0</asrwt>
<pdfrwt beam="1">  1        2 0.31136737E+00 0.55494889E+03</pdfrwt>
<pdfrwt beam="2">  1       -2 0.50199806E-01 0.55494889E+03</pdfrwt>
<totfact> 0.25923695E+01</totfact>
</mgrwt>
</event>
<event>
12    1  0.3203156E-008  0.3424665E+03  0.7818608E-02  0.1065750E+00
         -2   -1    0    0    0  501 -0.00000000000E+00  0.00000000000E+00  0.17351905404E+03  0.17351905404E+03  0.00000000000E+00 0.  1.
          2   -1    0    0  501    0  0.00000000000E+00 -0.00000000000E+00 -0.14034517201E+04  0.14034517201E+04  0.00000000000E+00 0. -1.
         23    2    1    2    0    0 -0.11210598175E+03  0.28095319205E+03 -0.41061109219E+03  0.51848711259E+03  0.93407545846E+02 0.  0.
    5000000    2    1    2    0    0  0.11210598175E+03 -0.28095319205E+03 -0.81932157386E+03  0.10584836616E+04  0.59799445910E+03 0.  0.
         23    2    4    4    0    0 -0.15562618315E+01  0.35858167813E+02 -0.67253366292E+03  0.67967814709E+03  0.91502053074E+02 0.  0.
         23    2    4    4    0    0  0.11366224358E+03 -0.31681135987E+03 -0.14678791094E+03  0.37880551446E+03  0.93050435968E+02 0.  0.
          5    1    3    3  502    0 -0.28212658216E+02  0.17290877353E+03 -0.27287843901E+03  0.32431177981E+03  0.47000000000E+01 0. -1.
         -5    1    3    3    0  502 -0.83893323532E+02  0.10804441852E+03 -0.13773265319E+03  0.19417533278E+03  0.47000000000E+01 0.  1.
         11    1    5    5    0    0  0.39441402758E+00  0.10099349637E+02 -0.43634066377E+01  0.11008712141E+02  0.00000000000E+00 0. -1.
        -11    1    5    5    0    0 -0.19506758591E+01  0.25758818176E+02 -0.66817025628E+03  0.66866943495E+03  0.00000000000E+00 0.  1.
          1    1    6    6  503    0  0.52146414104E+00 -0.73464728545E+01  0.11187388229E+02  0.13394037615E+02  0.00000000000E+00 0. -1.
         -1    1    6    6    0  503  0.11314077944E+03 -0.30946488701E+03 -0.15797529917E+03  0.36541147685E+03  0.00000000000E+00 0.  1.
<mgrwt>
<rscale>  0 0.34246647E+03</rscale>
<asrwt>0</asrwt>
<pdfrwt beam="1">  1        2 0.21591564E+00 0.34246647E+03</pdfrwt>
<pdfrwt beam="2">  1       -2 0.26695240E-01 0.34246647E+03</pdfrwt>
<totfact> 0.19390200E+02</totfact>
</mgrwt>
</event>
<event>
12    1  0.3203156E-008  0.1898870E+04  0.7818608E-02  0.8655419E-01
          2   -1    0    0  501    0  0.00000000000E+00  0.00000000000E+00  0.28541232075E+04  0.28541232075E+04  0.00000000000E+00 0. -1.
         -2   -1    0    0    0  501 -0.00000000000E+00 -0.00000000000E+00 -0.16936769216E+04  0.16936769216E+04  0.00000000000E+00 0.  1.
         23    2    1    2    0    0  0.17306463111E+04  0.69020598353E+03  0.16930069481E+04  0.25191442101E+04  0.91071790130E+02 0.  0.
    5000000    2    1    2    0    0 -0.17306463111E+04 -0.69020598353E+03 -0.53256066221E+03  0.20286559191E+04  0.60025246785E+03 0.  0.
         23    2    4    4    0    0 -0.73549701820E+02  0.62599555921E+02 -0.64883637023E+01  0.13182046690E+03  0.89477782663E+02 0.  0.
         23    2    4    4    0    0 -0.16570966093E+04 -0.75280553945E+03 -0.52607229851E+03  0.18968354522E+04  0.92451698659E+02 0.  0.
          5    1    3    3  502    0  0.73700350291E+03  0.28429664328E+03  0.65881206760E+03  0.10286176039E+04  0.47000000000E+01 0. -1.
         -5    1    3    3    0  502  0.99364280822E+03  0.40590934024E+03  0.10341948805E+04  0.14905266061E+04  0.47000000000E+01 0.  1.
         11    1    5    5    0    0 -0.81119244192E+02  0.65124452600E+02  0.18438081344E+02  0.10564794815E+03  0.00000000000E+00 0.  1.
        -11    1    5    5    0    0  0.75695423718E+01 -0.25248966788E+01 -0.24926445046E+02  0.26172518748E+02  0.00000000000E+00 0. -1.
          2    1    6    6  503    0 -0.59813162671E+03 -0.32075263432E+03 -0.19824039396E+03  0.70706643896E+03  0.00000000000E+00 0. -1.
         -2    1    6    6    0  503 -0.10589649826E+04 -0.43205290512E+03 -0.32783190455E+03  0.11897690132E+04  0.00000000000E+00 0.  1.
<mgrwt>
<rscale>  0 0.18988696E+04</rscale>
<asrwt>0</asrwt>
<pdfrwt beam="1">  1        2 0.43909588E+00 0.18988696E+04</pdfrwt>
<pdfrwt beam="2">  1       -2 0.26056568E+00 0.18988696E+04</pdfrwt>
<totfact> 0.10638249E-01</totfact>
</mgrwt>
</event>
<event>
12    1  0.3203156E-008  0.2429545E+04  0.7818608E-02  0.8428525E-01
          2   -1    0    0  501    0  0.00000000000E+00  0.00000000000E+00  0.30096841641E+04  0.30096841641E+04  0.00000000000E+00 0.  1.
         -2   -1    0    0    0  501 -0.00000000000E+00 -0.00000000000E+00 -0.19697230827E+04  0.19697230827E+04  0.00000000000E+00 0. -1.
         23    2    1    2    0    0 -0.15500453838E+04  0.18280423697E+04  0.48306429662E+03  0.24466871118E+04  0.92450587778E+02 0.  0.
    5000000    2    1    2    0    0  0.15500453838E+04 -0.18280423697E+04  0.55689678473E+03  0.25327201349E+04  0.60013136529E+03 0.  0.
         23    2    4    4    0    0  0.64422436406E+03 -0.11856192654E+04  0.23485347843E+03  0.13726754805E+04  0.91453511198E+02 0.  0.
         23    2    4    4    0    0  0.90582101976E+03 -0.64242310436E+03  0.32204330630E+03  0.11600446545E+04  0.93661861732E+02 0.  0.
          5    1    3    3  502    0 -0.60310429870E+03  0.64395339260E+03  0.18622968876E+03  0.90172853671E+03  0.47000000000E+01 0. -1.
         -5    1    3    3    0  502 -0.94694108512E+03  0.11840889771E+04  0.29683460785E+03  0.15449585751E+04  0.47000000000E+01 0.  1.
         13    1    5    5    0    0  0.39215571653E+03 -0.67651326090E+03  0.95710700868E+02  0.78779238156E+03  0.00000000000E+00 0.  1.
        -13    1    5    5    0    0  0.25206864753E+03 -0.50910600445E+03  0.13914277756E+03  0.58488309891E+03  0.00000000000E+00 0. -1.
          4    1    6    6  503    0  0.41242007110E+03 -0.28465896269E+03  0.19348033305E+03  0.53717378879E+03  0.00000000000E+00 0. -1.
         -4    1    6    6    0  503  0.49340094865E+03 -0.35776414168E+03  0.12856297325E+03  0.62287086566E+03  0.00000000000E+00 0.  1.
<mgrwt>
<rscale>  0 0.24295447E+04</rscale>
<asrwt>0</asrwt>
<pdfrwt beam="1">  1        2 0.46302833E+00 0.24295447E+04</pdfrwt>
<pdfrwt beam="2">  1       -2 0.30303432E+00 0.24295447E+04</pdfrwt>
<totfact> 0.44365568E-02</totfact>
</mgrwt>
</event>
<event>
12    1  0.3203156E-008  0.5348095E+03  0.7818608E-02  0.1005072E+00
         -1   -1    0    0    0  501 -0.00000000000E+00  0.00000000000E+00  0.11526229344E+04  0.11526229344E+04  0.00000000000E+00 0.  1.
          1   -1    0    0  501    0  0.00000000000E+00 -0.00000000000E+00 -0.70518517111E+03  0.70518517111E+03  0.00000000000E+00 0. -1.
         23    2    1    2    0    0  0.19168832814E+02 -0.50335883200E+03 -0.44010758294E+03  0.67509561408E+03  0.91224150770E+02 0.  0.
    5000000    2    1    2    0    0 -0.19168832814E+02  0.50335883200E+03  0.88754534621E+03  0.11827124914E+04  0.59777465477E+03 0.  0.
         23    2    4    4    0    0  0.59136746066E+02  0.50272661387E+02 -0.53767050295E+02  0.13112071966E+03  0.90979405402E+02 0.  0.
         23    2    4    4    0    0 -0.78305578880E+02  0.45308617062E+03  0.94131239650E+03  0.10515917718E+04  0.91418734130E+02 0.  0.
          5    1    3    3  502    0  0.27334090975E+02 -0.52360033126E+02 -0.69118620891E+02  0.91039548286E+02  0.47000000000E+01 0. -1.
         -5    1    3    3    0  502 -0.81652581606E+01 -0.45099879888E+03 -0.37098896204E+03  0.58405606579E+03  0.47000000000E+01 0.  1.
         11    1    5    5    0    0  0.21439862018E+02 -0.12027796484E+02  0.16755981691E+02  0.29750604936E+02  0.00000000000E+00 0.  1.
        -11    1    5    5    0    0  0.37696884048E+02  0.62300457871E+02 -0.70523031986E+02  0.10137011472E+03  0.00000000000E+00 0. -1.
          2    1    6    6  503    0 -0.34932932221E+02  0.31982309213E+03  0.56719303979E+03  0.65208516653E+03  0.00000000000E+00 0. -1.
         -2    1    6    6    0  503 -0.43372646659E+02  0.13326307848E+03  0.37411935671E+03  0.39950660524E+03  0.00000000000E+00 0.  1.
<mgrwt>
<rscale>  0 0.53480950E+03</rscale>
<asrwt>0</asrwt>
<pdfrwt beam="1">  1        1 0.10849003E+00 0.53480950E+03</pdfrwt>
<pdfrwt beam="2">  1       -1 0.17732660E+00 0.53480950E+03</pdfrwt>
<totfact> 0.62881180E+00</totfact>
</mgrwt>
</event>
<event>
12    1  0.3203156E-008  0.6840382E+03  0.7818608E-02  0.9744925E-01
          2   -1    0    0  501    0  0.00000000000E+00  0.00000000000E+00  0.48788678564E+03  0.48788678564E+03  0.00000000000E+00 0. -1.
         -2   -1    0    0    0  501 -0.00000000000E+00 -0.00000000000E+00 -0.10135428157E+04  0.10135428157E+04  0.00000000000E+00 0.  1.
         23    2    1    2    0    0  0.40377347967E+03  0.40128638480E+03 -0.25418300262E+03  0.63099401735E+03  0.97368709499E+02 0.  0.
    5000000    2    1    2    0    0 -0.40377347967E+03 -0.40128638480E+03 -0.27147302746E+03  0.87043558401E+03  0.59991392362E+03 0.  0.
         23    2    4    4    0    0  0.61168774503E+02 -0.29981589079E+03 -0.76119774843E+01  0.31888079459E+03  0.89419414092E+02 0.  0.
         23    2    4    4    0    0 -0.46494225418E+03 -0.10147049402E+03 -0.26386104998E+03  0.55155478942E+03  0.90124753318E+02 0.  0.
          5    1    3    3  502    0  0.77183074316E+02  0.33741553911E+02 -0.53585426573E+02  0.99946022243E+02  0.47000000000E+01 0. -1.
         -5    1    3    3    0  502  0.32659040536E+03  0.36754483089E+03 -0.20059757605E+03  0.53104799510E+03  0.47000000000E+01 0.  1.
         11    1    5    5    0    0  0.38965705140E+02 -0.10881714128E+03  0.37239428006E+02  0.12143422669E+03  0.00000000000E+00 0.  1.
        -11    1    5    5    0    0  0.22203069363E+02 -0.19099874951E+03 -0.44851405491E+02  0.19744656791E+03  0.00000000000E+00 0. -1.
          3    1    6    6  503    0 -0.28462271922E+03 -0.10610827961E+03 -0.17332973243E+03  0.34973169065E+03  0.00000000000E+00 0. -1.
         -3    1    6    6    0  503 -0.18031953495E+03  0.46377855875E+01 -0.90531317552E+02  0.20182309877E+03  0.00000000000E+00 0.  1.
<mgrwt>
<rscale>  0 0.68403824E+03</rscale>
<asrwt>0</asrwt>
<pdfrwt beam="1">  1        2 0.75059506E-01 0.68403824E+03</pdfrwt>
<pdfrwt beam="2">  1       -2 0.15592966E+00 0.68403824E+03</pdfrwt>
<totfact> 0.17464019E+01</totfact>
</mgrwt>
</event>
<event>
12    1  0.3203156E-008  0.1236881E+04  0.7818608E-02  0.9081174E-01
          2   -1    0    0  501    0  0.00000000000E+00  0.00000000000E+00  0.12702972964E+04  0.12702972964E+04  0.00000000000E+00 0. -1.
         -2   -1    0    0    0  501 -0.00000000000E+00 -0.00000000000E+00 -0.12528802773E+04  0.12528802773E+04  0.00000000000E+00 0.  1.
         23    2    1    2    0    0 -0.11563047638E+04 -0.26693485596E+03  0.71365112300E+02  0.11923807696E+04  0.91564165455E+02 0.  0.
    5000000    2    1    2    0    0  0.11563047638E+04  0.26693485596E+03 -0.53948093218E+02  0.13307968041E+04  0.59984565765E+03 0.  0.
         23    2    4    4    0    0  0.92024313008E+03  0.40238356459E+03  0.83331518954E+02  0.10123958750E+04  0.96131754282E+02 0.  0.
         23    2    4    4    0    0  0.23606163370E+03 -0.13544870863E+03 -0.13727961217E+03  0.31840092910E+03  0.91989195873E+02 0.  0.
          5    1    3    3  502    0 -0.70578237669E+03 -0.13128369040E+03  0.10901486397E+02  0.71798684042E+03  0.47000000000E+01 0. -1.
         -5    1    3    3    0  502 -0.45052238710E+03 -0.13565116556E+03  0.60463625904E+02  0.47439392919E+03  0.47000000000E+01 0.  1.
         11    1    5    5    0    0  0.15661735139E+03  0.10604612473E+03  0.84971856471E+00  0.18914411794E+03  0.00000000000E+00 0. -1.
        -11    1    5    5    0    0  0.76362577869E+03  0.29633743986E+03  0.82481800389E+02  0.82325175708E+03  0.00000000000E+00 0.  1.
          3    1    6    6  503    0  0.16233463331E+03 -0.64250245289E+02 -0.12596395699E+03  0.21528480126E+03  0.00000000000E+00 0. -1.
         -3    1    6    6    0  503  0.73727000395E+02 -0.71198463341E+02 -0.11315655181E+02  0.10311612784E+03  0.00000000000E+00 0.  1.
<mgrwt>
<rscale>  0 0.12368805E+04</rscale>
<asrwt>0</asrwt>
<pdfrwt beam="1">  1        2 0.19543035E+00 0.12368805E+04</pdfrwt>
<pdfrwt beam="2">  1       -2 0.19275081E+00 0.12368805E+04</pdfrwt>
<totfact> 0.24726374E+00</totfact>
</mgrwt>
</event>
<event>
12    1  0.3203156E-008  0.6370063E+03  0.7818608E-02  0.9831471E-01
          2   -1    0    0  501    0  0.00000000000E+00  0.00000000000E+00  0.41656403463E+04  0.41656403463E+04  0.00000000000E+00 0.  1.
         -2   -1    0    0    0  501 -0.00000000000E+00 -0.00000000000E+00 -0.11552313391E+03  0.11552313391E+03  0.00000000000E+00 0. -1.
         23    2    1    2    0    0  0.46114659998E+03 -0.20282893554E+03  0.90290523864E+03  0.10378856390E+04  0.90404457314E+02 0.  0.
    5000000    2    1    2    0    0 -0.46114659998E+03  0.20282893554E+03  0.31472119738E+04  0.32432778412E+04  0.60009347926E+03 0.  0.
         23    2    4    4    0    0 -0.82013353133E+02  0.34151079530E+03  0.12602592034E+04  0.13115309260E+04  0.92218743139E+02 0.  0.
         23    2    4    4    0    0 -0.37913324685E+03 -0.13868185976E+03  0.18869527704E+04  0.19317469153E+04  0.89892769481E+02 0.  0.
          5    1    3    3  502    0  0.28106524571E+03 -0.12283104262E+03  0.63568676499E+03  0.70583630578E+03  0.47000000000E+01 0. -1.
         -5    1    3    3    0  502  0.18008135427E+03 -0.79997892917E+02  0.26721847366E+03  0.33204933322E+03  0.47000000000E+01 0.  1.
         13    1    5    5    0    0 -0.64773627145E+01  0.17089636053E+03  0.48973570305E+03  0.51873748767E+03  0.00000000000E+00 0.  1.
        -13    1    5    5    0    0 -0.75535990418E+02  0.17061443476E+03  0.77052350035E+03  0.79279343829E+03  0.00000000000E+00 0. -1.
          3    1    6    6  503    0 -0.13288327291E+03 -0.92703632787E+02  0.80960606816E+03  0.82565968374E+03  0.00000000000E+00 0. -1.
         -3    1    6    6    0  503 -0.24624997394E+03 -0.45978226970E+02  0.10773467022E+04  0.11060872315E+04  0.00000000000E+00 0.  1.
<mgrwt>
<rscale>  0 0.63700626E+03</rscale>
<asrwt>0</asrwt>
<pdfrwt beam="1">  1        2 0.64086763E+00 0.63700626E+03</pdfrwt>
<pdfrwt beam="2">  1       -2 0.17772793E-01 0.63700626E+03</pdfrwt>
<totfact> 0.74441066E+00</totfact>
</mgrwt>
</event>
<event>
12    1  0.3203156E-008  0.6831331E+03  0.7818608E-02  0.9746520E-01
          2   -1    0    0  501    0  0.00000000000E+00  0.00000000000E+00  0.97986184415E+03  0.97986184415E+03  0.00000000000E+00 0. -1.
         -2   -1    0    0    0  501 -0.00000000000E+00 -0.00000000000E+00 -0.65443298324E+03  0.65443298324E+03  0.00000000000E+00 0.  1.
         23    2    1    2    0    0 -0.37342702664E+02  0.67012827161E+03  0.92035631083E+00  0.67724864885E+03  0.90545609823E+02 0.  0.
    5000000    2    1    2    0    0  0.37342702664E+02 -0.67012827161E+03  0.32450850460E+03  0.95704617855E+03  0.60013768460E+03 0.  0.
         23    2    4    4    0    0  0.64429447001E+02 -0.26216025368E+03  0.43992346210E+03  0.52221604274E+03  0.79358619787E+02 0.  0.
         23    2    4    4    0    0 -0.27086744337E+02 -0.40796801793E+03 -0.11541495750E+03  0.43483013582E+03  0.92655486778E+02 0.  0.
          5    1    3    3  502    0 -0.31354596378E+02  0.33852088764E+03 -0.42797358109E+02  0.34268528703E+03  0.47000000000E+01 0. -1.
         -5    1    3    3    0  502 -0.59881062857E+01  0.33160738397E+03  0.43717714419E+02  0.33456336182E+03  0.47000000000E+01 0.  1.
         13    1    5    5    0    0  0.31379836965E+02 -0.40510242218E+02  0.13020076167E+03  0.13992145022E+03  0.00000000000E+00 0. -1.
        -13    1    5    5    0    0  0.33049610036E+02 -0.22165001146E+03  0.30972270043E+03  0.38229459252E+03  0.00000000000E+00 0.  1.
          1    1    6    6  503    0 -0.60343872333E+02 -0.30848259035E+03 -0.87630465509E+02  0.32631578258E+03  0.00000000000E+00 0. -1.
         -1    1    6    6    0  503  0.33257127996E+02 -0.99485427576E+02 -0.27784491992E+02  0.10851435323E+03  0.00000000000E+00 0.  1.
<mgrwt>
<rscale>  0 0.68313306E+03</rscale>
<asrwt>0</asrwt>
<pdfrwt beam="1">  1        2 0.15074798E+00 0.68313306E+03</pdfrwt>
<pdfrwt beam="2">  1       -2 0.10068200E+00 0.68313306E+03</pdfrwt>
<totfact> 0.21592376E+01</totfact>
</mgrwt>
</event>
<event>
12    1  0.3203156E-008  0.1372741E+04  0.7818608E-02  0.8973790E-01
          2   -1    0    0  501    0  0.00000000000E+00  0.00000000000E+00  0.29132389061E+04  0.29132389061E+04  0.00000000000E+00 0. -1.
         -2   -1    0    0    0  501 -0.00000000000E+00 -0.00000000000E+00 -0.78683090861E+03  0.78683090861E+03  0.00000000000E+00 0.  1.
         23    2    1    2    0    0 -0.38155095175E+03  0.13129677401E+04  0.41760759213E+03  0.14307986022E+04  0.57646541082E+02 0.  0.
    5000000    2    1    2    0    0  0.38155095175E+03 -0.13129677401E+04  0.17088004054E+04  0.22692712125E+04  0.60010631984E+03 0.  0.
         23    2    4    4    0    0  0.26065334985E+03 -0.83155884443E+03  0.63559976288E+03  0.10824866548E+04  0.91433137948E+02 0.  0.
         23    2    4    4    0    0  0.12089760190E+03 -0.48140889570E+03  0.10732006425E+04  0.11867845577E+04  0.10162289289E+03 0.  0.
          5    1    3    3  502    0 -0.24786276563E+03  0.83019927810E+03  0.29236350289E+03  0.91442074548E+03  0.47000000000E+01 0. -1.
         -5    1    3    3    0  502 -0.13368818612E+03  0.48276846202E+03  0.12524408925E+03  0.51637785673E+03  0.47000000000E+01 0.  1.
         11    1    5    5    0    0  0.23796567287E+03 -0.76939381747E+03  0.61453613491E+03  0.10130395693E+04  0.00000000000E+00 0. -1.
        -11    1    5    5    0    0  0.22687676981E+02 -0.62165026958E+02  0.21063627968E+02  0.69447085516E+02  0.00000000000E+00 0.  1.
          3    1    6    6  503    0  0.41553318351E+02 -0.38620866984E+02  0.11353541976E+03  0.12691942788E+03  0.00000000000E+00 0. -1.
         -3    1    6    6    0  503  0.79344283547E+02 -0.44278802871E+03  0.95966522271E+03  0.10598651298E+04  0.00000000000E+00 0.  1.
<mgrwt>
<rscale>  0 0.13727409E+04</rscale>
<asrwt>0</asrwt>
<pdfrwt beam="1">  1        2 0.44819060E+00 0.13727409E+04</pdfrwt>
<pdfrwt beam="2">  1       -2 0.12105091E+00 0.13727409E+04</pdfrwt>
<totfact> 0.98896397E-01</totfact>
</mgrwt>
</event>
<event>
12    1  0.3203156E-008  0.1666356E+04  0.7818608E-02  0.8780789E-01
         -2   -1    0    0    0  501 -0.00000000000E+00  0.00000000000E+00  0.19905248611E+04  0.19905248611E+04  0.00000000000E+00 0.  1.
          2   -1    0    0  501    0  0.00000000000E+00 -0.00000000000E+00 -0.14798303797E+04  0.14798303797E+04  0.00000000000E+00 0. -1.
         23    2    1    2    0    0 -0.25062874894E+03  0.16161045609E+04  0.54949201552E+03  0.17278497379E+04  0.94416736589E+02 0.  0.
    5000000    2    1    2    0    0  0.25062874894E+03 -0.16161045609E+04 -0.38797534154E+02  0.17425055030E+04  0.60017618900E+03 0.  0.
         23    2    4    4    0    0 -0.12198712491E+03 -0.56703605094E+03 -0.18562772190E+03  0.61593439498E+03  0.92232239895E+02 0.  0.
         23    2    4    4    0    0  0.37261587385E+03 -0.10490685099E+04  0.14683018774E+03  0.11265711080E+04  0.90642315719E+02 0.  0.
          5    1    3    3  502    0 -0.12419345069E+03  0.54382500906E+03  0.20908549673E+03  0.59574196480E+03  0.47000000000E+01 0. -1.
         -5    1    3    3    0  502 -0.12643529826E+03  0.10722795518E+04  0.34040651879E+03  0.11321077731E+04  0.47000000000E+01 0.  1.
         11    1    5    5    0    0 -0.11117911176E+03 -0.42094109173E+03 -0.10167919453E+03  0.44709155237E+03  0.00000000000E+00 0. -1.
        -11    1    5    5    0    0 -0.10808013148E+02 -0.14609495920E+03 -0.83948527366E+02  0.16884284261E+03  0.00000000000E+00 0.  1.
          1    1    6    6  503    0  0.19470085531E+03 -0.54977830124E+03  0.31243952278E+02  0.58407258806E+03  0.00000000000E+00 0. -1.
         -1    1    6    6    0  503  0.17791501855E+03 -0.49929020868E+03  0.11558623546E+03  0.54249851994E+03  0.00000000000E+00 0.  1.
<mgrwt>
<rscale>  0 0.16663561E+04</rscale>
<asrwt>0</asrwt>
<pdfrwt beam="1">  1        2 0.22766621E+00 0.16663561E+04</pdfrwt>
<pdfrwt beam="2">  1       -2 0.30623459E+00 0.16663561E+04</pdfrwt>
<totfact> 0.35102404E-01</totfact>
</mgrwt>
</event>
<event>
12    1  0.4649765E-008  0.7831380E+03  0.7818608E-02  0.9584750E-01
          2   -1    0    0  501    0  0.00000000000E+00  0.00000000000E+00  0.10245138462E+04  0.10245138462E+04  0.00000000000E+00 0. -1.
         -2   -1    0    0    0  501 -0.00000000000E+00 -0.00000000000E+00 -0.68623740370E+03  0.68623740370E+03  0.00000000000E+00 0.  1.
         23    2    1    2    0    0 -0.52491989769E+02 -0.67311624828E+03  0.42509604483E+03  0.80340542020E+03  0.94407251755E+02 0.  0.
    5000000    2    1    2    0    0  0.52491989769E+02  0.67311624828E+03 -0.86819602343E+02  0.90734582969E+03  0.59991492614E+03 0.  0.
         23    2    4    4    0    0 -0.20939324061E+03  0.55297369290E+03 -0.85222164701E+02  0.60434099526E+03  0.91322433955E+02 0.  0.
         23    2    4    4    0    0  0.26188523038E+03  0.12014255538E+03 -0.15974376425E+01  0.30300483443E+03  0.93761774588E+02 0.  0.
          5    1    3    3  502    0  0.15751281277E+02 -0.35883695188E+03  0.24459369645E+03  0.43458051871E+03  0.47000000000E+01 0. -1.
         -5    1    3    3    0  502 -0.68243271046E+02 -0.31427929640E+03  0.18050234838E+03  0.36882490149E+03  0.47000000000E+01 0.  1.
         11    1    5    5    0    0 -0.81965619923E+02  0.13631491719E+03 -0.52097603164E+02  0.16737466879E+03  0.00000000000E+00 0. -1.
        -11    1    5    5    0    0 -0.12742762069E+03  0.41665877571E+03 -0.33124561537E+02  0.43696632647E+03  0.00000000000E+00 0.  1.
          1    1    6    6  503    0  0.89235451601E+02  0.21405844543E+02 -0.40567270293E+02  0.10033383986E+03  0.00000000000E+00 0. -1.
         -1    1    6    6    0  503  0.17264977878E+03  0.98736710841E+02  0.38969832650E+02  0.20267099456E+03  0.00000000000E+00 0.  1.
<mgrwt>
<rscale>  0 0.78313799E+03</rscale>
<asrwt>0</asrwt>
<pdfrwt beam="1">  1        2 0.15761751E+00 0.78313799E+03</pdfrwt>
<pdfrwt beam="2">  1       -2 0.10557499E+00 0.78313799E+03</pdfrwt>
<totfact> 0.17861503E+01</totfact>
</mgrwt>
</event>
<event>
12    1  0.3203156E-008  0.2935368E+03  0.7818608E-02  0.1088517E+00
          2   -1    0    0  501    0  0.00000000000E+00  0.00000000000E+00  0.11787891827E+04  0.11787891827E+04  0.00000000000E+00 0.  1.
         -2   -1    0    0    0  501 -0.00000000000E+00 -0.00000000000E+00 -0.15639075574E+03  0.15639075574E+03  0.00000000000E+00 0. -1.
         23    2    1    2    0    0 -0.12367709613E+03 -0.15914884507E+03  0.32658182568E+03  0.39325827567E+03  0.85860372240E+02 0.  0.
    5000000    2    1    2    0    0  0.12367709613E+03  0.15914884507E+03  0.69581660131E+03  0.94192166280E+03  0.60202267167E+03 0.  0.
         23    2    4    4    0    0  0.91207514636E+02  0.24151894657E+03  0.43973537385E+02  0.27758140041E+03  0.92019289196E+02 0.  0.
         23    2    4    4    0    0  0.32469581496E+02 -0.82370101502E+02  0.65184306393E+03  0.66434026239E+03  0.92787374672E+02 0.  0.
          5    1    3    3  502    0 -0.50583742434E+02 -0.36369103246E+02  0.43522228993E+02  0.76142636453E+02  0.47000000000E+01 0. -1.
         -5    1    3    3    0  502 -0.73093353698E+02 -0.12277974183E+03  0.28305959669E+03  0.31711563921E+03  0.47000000000E+01 0.  1.
         13    1    5    5    0    0 -0.61435903503E+01  0.90549232623E+02 -0.64978640669E+01  0.90989721773E+02  0.00000000000E+00 0.  1.
        -13    1    5    5    0    0  0.97351104986E+02  0.15096971395E+03  0.50471401451E+02  0.18659167864E+03  0.00000000000E+00 0. -1.
          1    1    6    6  503    0  0.53579465277E+02 -0.61164685681E+02  0.28770677338E+03  0.29897669695E+03  0.00000000000E+00 0. -1.
         -1    1    6    6    0  503 -0.21109883781E+02 -0.21205415821E+02  0.36413629055E+03  0.36536356544E+03  0.00000000000E+00 0.  1.
<mgrwt>
<rscale>  0 0.29353680E+03</rscale>
<asrwt>0</asrwt>
<pdfrwt beam="1">  1        2 0.18135218E+00 0.29353680E+03</pdfrwt>
<pdfrwt beam="2">  1       -2 0.24060117E-01 0.29353680E+03</pdfrwt>
<totfact> 0.31406150E+02</totfact>
</mgrwt>
</event>
<event>
12    1  0.3203156E-008  0.8977494E+03  0.7818608E-02  0.9428399E-01
         -2   -1    0    0    0  501 -0.00000000000E+00  0.00000000000E+00  0.12253765891E+04  0.12253765891E+04  0.00000000000E+00 0.  1.
          2   -1    0    0  501    0  0.00000000000E+00 -0.00000000000E+00 -0.83832376196E+03  0.83832376196E+03  0.00000000000E+00 0. -1.
         23    2    1    2    0    0  0.83377431484E+03  0.31406613429E+03 -0.65707932315E+02  0.89798917375E+03  0.90828844639E+02 0.  0.
    5000000    2    1    2    0    0 -0.83377431484E+03 -0.31406613429E+03  0.45276075945E+03  0.11657111773E+04  0.60006091258E+03 0.  0.
         23    2    4    4    0    0 -0.65213949284E+03 -0.29328477465E+03  0.60306963931E+02  0.72322822908E+03  0.90112508965E+02 0.  0.
         23    2    4    4    0    0 -0.18163482199E+03 -0.20781359641E+02  0.39245379552E+03  0.44248294823E+03  0.91367961475E+02 0.  0.
          5    1    3    3  502    0  0.60961541826E+03  0.25895301726E+03 -0.20170316263E+02  0.66265870174E+03  0.47000000000E+01 0. -1.
         -5    1    3    3    0  502  0.22415889658E+03  0.55113117022E+02 -0.45537616053E+02  0.23533047202E+03  0.47000000000E+01 0.  1.
         13    1    5    5    0    0 -0.28463626557E+03 -0.10993858035E+03  0.67321566611E+02  0.31246837994E+03  0.00000000000E+00 0.  1.
        -13    1    5    5    0    0 -0.36750322727E+03 -0.18334619429E+03 -0.70146026798E+01  0.41075984914E+03  0.00000000000E+00 0. -1.
          3    1    6    6  503    0 -0.79679208663E+02  0.90828183903E+01  0.83501762895E+02  0.11577486035E+03  0.00000000000E+00 0. -1.
         -3    1    6    6    0  503 -0.10195561333E+03 -0.29864178031E+02  0.30895203263E+03  0.32670808788E+03  0.00000000000E+00 0.  1.
<mgrwt>
<rscale>  0 0.89774939E+03</rscale>
<asrwt>0</asrwt>
<pdfrwt beam="1">  1        2 0.12897289E+00 0.89774939E+03</pdfrwt>
<pdfrwt beam="2">  1       -2 0.18851948E+00 0.89774939E+03</pdfrwt>
<totfact> 0.51432074E+00</totfact>
</mgrwt>
</event>
<event>
12    1  0.3203156E-008  0.7292980E+03  0.7818608E-02  0.9668400E-01
          1   -1    0    0  501    0  0.00000000000E+00  0.00000000000E+00  0.11313818814E+04  0.11313818814E+04  0.00000000000E+00 0. -1.
         -1   -1    0    0    0  501 -0.00000000000E+00 -0.00000000000E+00 -0.49260312147E+03  0.49260312147E+03  0.00000000000E+00 0.  1.
         23    2    1    2    0    0 -0.43511333497E+03 -0.42633568576E+03  0.13168901414E+03  0.62985758601E+03  0.91065092051E+02 0.  0.
    5000000    2    1    2    0    0  0.43511333497E+03  0.42633568576E+03  0.50708974578E+03  0.99412741684E+03  0.60005298051E+03 0.  0.
         23    2    4    4    0    0  0.32606414999E+03 -0.63740213108E+02  0.23175291508E+03  0.41532722308E+03  0.91687752207E+02 0.  0.
         23    2    4    4    0    0  0.10904918498E+03  0.49007589887E+03  0.27533683070E+03  0.57880019377E+03  0.84458170491E+02 0.  0.
          5    1    3    3  502    0 -0.24385617779E+03 -0.18777861014E+03  0.38699195963E+02  0.31023597412E+03  0.47000000000E+01 0. -1.
         -5    1    3    3    0  502 -0.19125715718E+03 -0.23855707563E+03  0.92989818178E+02  0.31962161189E+03  0.47000000000E+01 0.  1.
         11    1    5    5    0    0  0.19560434835E+03 -0.83035178174E+01  0.17515415847E+03  0.26269561994E+03  0.00000000000E+00 0.  1.
        -11    1    5    5    0    0  0.13045980164E+03 -0.55436695290E+02  0.56598756605E+02  0.15263160314E+03  0.00000000000E+00 0. -1.
          2    1    6    6  503    0  0.65789488328E+02  0.13964444970E+03  0.62615898772E+02  0.16658205151E+03  0.00000000000E+00 0. -1.
         -2    1    6    6    0  503  0.43259696650E+02  0.35043144917E+03  0.21272093193E+03  0.41221814226E+03  0.00000000000E+00 0.  1.
<mgrwt>
<rscale>  0 0.72929796E+03</rscale>
<asrwt>0</asrwt>
<pdfrwt beam="1">  1        1 0.17405875E+00 0.72929796E+03</pdfrwt>
<pdfrwt beam="2">  1       -1 0.75785096E-01 0.72929796E+03</pdfrwt>
<totfact> 0.21693463E+01</totfact>
</mgrwt>
</event>
<event>
12    1  0.3203156E-008  0.3627056E+03  0.7818608E-02  0.1057518E+00
          1   -1    0    0  501    0  0.00000000000E+00  0.00000000000E+00  0.72751096857E+03  0.72751096857E+03  0.00000000000E+00 0. -1.
         -1   -1    0    0    0  501 -0.00000000000E+00 -0.00000000000E+00 -0.24482123251E+03  0.24482123251E+03  0.00000000000E+00 0.  1.
         23    2    1    2    0    0  0.13043568548E+03  0.28189515762E+02 -0.40010135898E+02  0.16488679226E+03  0.88197088630E+02 0.  0.
    5000000    2    1    2    0    0 -0.13043568548E+03 -0.28189515762E+02  0.52269987196E+03  0.80744540882E+03  0.60078683011E+03 0.  0.
         23    2    4    4    0    0  0.34187000136E+02  0.25559253612E+03  0.20731906708E+03  0.34328341924E+03  0.91465921808E+02 0.  0.
         23    2    4    4    0    0 -0.16462268561E+03 -0.28378205189E+03  0.31538080488E+03  0.46416198958E+03  0.91369682566E+02 0.  0.
          5    1    3    3  502    0  0.73390169438E+02  0.23811649797E+02  0.22014835954E+02  0.80373220902E+02  0.47000000000E+01 0. -1.
         -5    1    3    3    0  502  0.57045516040E+02  0.43778659646E+01 -0.62024971852E+02  0.84513571359E+02  0.47000000000E+01 0.  1.
         11    1    5    5    0    0  0.10318902153E+02  0.21467199994E+03  0.12588742824E+03  0.24907467131E+03  0.00000000000E+00 0.  1.
        -11    1    5    5    0    0  0.23868097984E+02  0.40920536184E+02  0.81431638838E+02  0.94208747931E+02  0.00000000000E+00 0. -1.
          1    1    6    6  503    0 -0.44866857553E+02 -0.91073202908E+02  0.15883115166E+03  0.18850649307E+03  0.00000000000E+00 0. -1.
         -1    1    6    6    0  503 -0.11975582806E+03 -0.19270884898E+03  0.15654965322E+03  0.27565549650E+03  0.00000000000E+00 0.  1.
<mgrwt>
<rscale>  0 0.36270559E+03</rscale>
<asrwt>0</asrwt>
<pdfrwt beam="1">  1        1 0.11192476E+00 0.36270559E+03</pdfrwt>
<pdfrwt beam="2">  1       -1 0.37664805E-01 0.36270559E+03</pdfrwt>
<totfact> 0.18267808E+02</totfact>
</mgrwt>
</event>
<event>
12    1  0.3203156E-008  0.7976967E+03  0.7818608E-02  0.9563357E-01
          4   -1    0    0  501    0  0.00000000000E+00  0.00000000000E+00  0.27800604726E+04  0.27800604726E+04  0.00000000000E+00 0. -1.
         -4   -1    0    0    0  501 -0.00000000000E+00 -0.00000000000E+00 -0.24572195230E+03  0.24572195230E+03  0.00000000000E+00 0.  1.
         23    2    1    2    0    0  0.25060421512E+02 -0.70104169543E+03  0.13503301648E+04  0.15243020571E+04  0.89541743725E+02 0.  0.
    5000000    2    1    2    0    0 -0.25060421512E+02  0.70104169543E+03  0.11840083555E+04  0.15014803678E+04  0.60039988797E+03 0.  0.
         23    2    4    4    0    0  0.82873432734E+02  0.75012510847E+03  0.10731306492E+04  0.13151775929E+04  0.92341899637E+02 0.  0.
         23    2    4    4    0    0 -0.10793385425E+03 -0.49083413041E+02  0.11087770634E+03  0.18630277491E+03  0.91410939420E+02 0.  0.
          5    1    3    3  502    0  0.75931420813E+01 -0.56674267488E+03  0.10134488721E+04  0.11611871605E+04  0.47000000000E+01 0. -1.
         -5    1    3    3    0  502  0.17467279430E+02 -0.13429902055E+03  0.33688129265E+03  0.36311489657E+03  0.47000000000E+01 0.  1.
         13    1    5    5    0    0  0.86006036331E+02  0.53772858728E+03  0.71459478543E+03  0.89844019236E+03  0.00000000000E+00 0. -1.
        -13    1    5    5    0    0 -0.31326035971E+01  0.21239652119E+03  0.35853586372E+03  0.41673740052E+03  0.00000000000E+00 0.  1.
          2    1    6    6  503    0 -0.10724935335E+03 -0.61512858759E+02  0.11886817750E+03  0.17151063876E+03  0.00000000000E+00 0.  1.
         -2    1    6    6    0  503 -0.68450089876E+00  0.12429445718E+02 -0.79904711592E+01  0.14792136143E+02  0.00000000000E+00 0. -1.
<mgrwt>
<rscale>  0 0.79769671E+03</rscale>
<asrwt>0</asrwt>
<pdfrwt beam="1">  1        4 0.42770159E+00 0.79769671E+03</pdfrwt>
<pdfrwt beam="2">  1       -4 0.37803379E-01 0.79769671E+03</pdfrwt>
<totfact> 0.61428281E-02</totfact>
</mgrwt>
</event>
<event>
12    1  0.3203156E-008  0.7119815E+03  0.7818608E-02  0.9696959E-01
          1   -1    0    0  501    0  0.00000000000E+00  0.00000000000E+00  0.97102965015E+03  0.97102965015E+03  0.00000000000E+00 0. -1.
         -1   -1    0    0    0  501 -0.00000000000E+00 -0.00000000000E+00 -0.59962046273E+03  0.59962046273E+03  0.00000000000E+00 0.  1.
         23    2    1    2    0    0 -0.51592066385E+03 -0.33381860811E+03  0.34789329510E+03  0.71190606991E+03  0.90396421899E+02 0.  0.
    5000000    2    1    2    0    0  0.51592066385E+03  0.33381860811E+03  0.23515892313E+02  0.85874404296E+03  0.59939914884E+03 0.  0.
         23    2    4    4    0    0  0.39176269747E+03 -0.52499226184E+02  0.13715279393E+03  0.42772010381E+03  0.88878672596E+02 0.  0.
         23    2    4    4    0    0  0.12415796638E+03  0.38631783430E+03 -0.11363690161E+03  0.43102393916E+03  0.90617994938E+02 0.  0.
          5    1    3    3  502    0 -0.20830028610E+03 -0.18164978409E+03  0.13101695609E+03  0.30589734558E+03  0.47000000000E+01 0. -1.
         -5    1    3    3    0  502 -0.30762037775E+03 -0.15216882402E+03  0.21687633901E+03  0.40600872433E+03  0.47000000000E+01 0.  1.
         13    1    5    5    0    0  0.14911040043E+03 -0.13233369072E+02  0.97719657976E+02  0.17876846794E+03  0.00000000000E+00 0.  1.
        -13    1    5    5    0    0  0.24265229703E+03 -0.39265857112E+02  0.39433135952E+02  0.24895163587E+03  0.00000000000E+00 0. -1.
          1    1    6    6  503    0  0.52262173033E+02  0.91734996543E+02  0.43043583409E+01  0.10566537665E+03  0.00000000000E+00 0. -1.
         -1    1    6    6    0  503  0.71895793351E+02  0.29458283775E+03 -0.11794125996E+03  0.32535856251E+03  0.00000000000E+00 0.  1.
<mgrwt>
<rscale>  0 0.71198155E+03</rscale>
<asrwt>0</asrwt>
<pdfrwt beam="1">  1        1 0.14938918E+00 0.71198155E+03</pdfrwt>
<pdfrwt beam="2">  1       -1 0.92249302E-01 0.71198155E+03</pdfrwt>
<totfact> 0.18858174E+01</totfact>
</mgrwt>
</event>
<event>
12    1  0.3203156E-008  0.8679285E+03  0.7818608E-02  0.9466585E-01
          1   -1    0    0  501    0  0.00000000000E+00  0.00000000000E+00  0.17874761758E+04  0.17874761758E+04  0.00000000000E+00 0. -1.
         -1   -1    0    0    0  501 -0.00000000000E+00 -0.00000000000E+00 -0.56966350719E+03  0.56966350719E+03  0.00000000000E+00 0.  1.
         23    2    1    2    0    0  0.47508908190E+03 -0.68383738794E+03  0.10061796094E+04  0.13092697965E+04  0.91906391686E+02 0.  0.
    5000000    2    1    2    0    0 -0.47508908190E+03  0.68383738794E+03  0.21163305925E+03  0.10478698865E+04  0.59991627612E+03 0.  0.
         23    2    4    4    0    0  0.47842869046E+01 -0.15414366313E+02 -0.10159072884E+03  0.13911861572E+03  0.93663338416E+02 0.  0.
         23    2    4    4    0    0 -0.47987336880E+03  0.69925175425E+03  0.31322378809E+03  0.90875127077E+03  0.92131779421E+02 0.  0.
          5    1    3    3  502    0  0.24003209086E+03 -0.42211066791E+03  0.56597304792E+03  0.74574821594E+03  0.47000000000E+01 0. -1.
         -5    1    3    3    0  502  0.23505699104E+03 -0.26172672003E+03  0.44020656145E+03  0.56352158056E+03  0.47000000000E+01 0.  1.
         13    1    5    5    0    0  0.24059636211E+01 -0.31065872080E+02  0.48263001353E+01  0.31530465300E+02  0.00000000000E+00 0. -1.
        -13    1    5    5    0    0  0.23783232835E+01  0.15651505767E+02 -0.10641702898E+03  0.10758815042E+03  0.00000000000E+00 0.  1.
          2    1    6    6  503    0 -0.10210419790E+03  0.99062556331E+02  0.73658314380E+02  0.16020051365E+03  0.00000000000E+00 0. -1.
         -2    1    6    6    0  503 -0.37776917090E+03  0.60018919792E+03  0.23956547371E+03  0.74855075712E+03  0.00000000000E+00 0.  1.
<mgrwt>
<rscale>  0 0.86792855E+03</rscale>
<asrwt>0</asrwt>
<pdfrwt beam="1">  1        1 0.27499633E+00 0.86792855E+03</pdfrwt>
<pdfrwt beam="2">  1       -1 0.87640540E-01 0.86792855E+03</pdfrwt>
<totfact> 0.54626104E+00</totfact>
</mgrwt>
</event>
<event>
12    1  0.3203156E-008  0.4052994E+03  0.7818608E-02  0.1041960E+00
          1   -1    0    0  501    0  0.00000000000E+00  0.00000000000E+00  0.11405222393E+04  0.11405222393E+04  0.00000000000E+00 0. -1.
         -1   -1    0    0    0  501 -0.00000000000E+00 -0.00000000000E+00 -0.22807429753E+03  0.22807429753E+03  0.00000000000E+00 0.  1.
         23    2    1    2    0    0 -0.38631332148E+02  0.28802038644E+03  0.10878032308E+03  0.32440206486E+03  0.94633071215E+02 0.  0.
    5000000    2    1    2    0    0  0.38631332148E+02 -0.28802038644E+03  0.80366761872E+03  0.10441944720E+04  0.60001027588E+03 0.  0.
         23    2    4    4    0    0  0.18123268908E+03 -0.28620104651E+03  0.17080291223E+03  0.38889557466E+03  0.85497406689E+02 0.  0.
         23    2    4    4    0    0 -0.14260135693E+03 -0.18193399281E+01  0.63286470649E+03  0.65529889735E+03  0.92522706121E+02 0.  0.
          5    1    3    3  502    0 -0.19618021171E+02  0.20583226723E+03  0.12009496475E+03  0.23915827300E+03  0.47000000000E+01 0. -1.
         -5    1    3    3    0  502 -0.19013310977E+02  0.82188119209E+02 -0.11314641674E+02  0.85243791854E+02  0.47000000000E+01 0.  1.
         11    1    5    5    0    0  0.95907992864E+02 -0.22415555383E+03  0.12276657491E+03  0.27297561672E+03  0.00000000000E+00 0. -1.
        -11    1    5    5    0    0  0.85324696216E+02 -0.62045492680E+02  0.48036337318E+02  0.11591995794E+03  0.00000000000E+00 0.  1.
          3    1    6    6  503    0 -0.29996228530E+02 -0.40958201345E+02  0.18491325449E+03  0.19175572917E+03  0.00000000000E+00 0. -1.
         -3    1    6    6    0  503 -0.11260512840E+03  0.39138861417E+02  0.44795145200E+03  0.46354316818E+03  0.00000000000E+00 0.  1.
<mgrwt>
<rscale>  0 0.40529939E+03</rscale>
<asrwt>0</asrwt>
<pdfrwt beam="1">  1        1 0.17546496E+00 0.40529939E+03</pdfrwt>
<pdfrwt beam="2">  1       -1 0.35088354E-01 0.40529939E+03</pdfrwt>
<totfact> 0.96943388E+01</totfact>
</mgrwt>
</event>
<event>
12    1  0.3203156E-008  0.1553671E+04  0.7818608E-02  0.8849526E-01
         -2   -1    0    0    0  501 -0.00000000000E+00  0.00000000000E+00  0.84320928400E+03  0.84320928400E+03  0.00000000000E+00 0.  1.
          2   -1    0    0  501    0  0.00000000000E+00 -0.00000000000E+00 -0.31757124631E+04  0.31757124631E+04  0.00000000000E+00 0. -1.
         23    2    1    2    0    0  0.65455775525E+03  0.13776627248E+04 -0.62058257148E+03  0.16492336208E+04  0.91915012363E+02 0.  0.
    5000000    2    1    2    0    0 -0.65455775525E+03 -0.13776627248E+04 -0.17119206076E+04  0.23696881263E+04  0.59862276184E+03 0.  0.
         23    2    4    4    0    0 -0.52730184633E+03 -0.13437291273E+04 -0.16580839016E+04  0.22003831416E+04  0.93747215491E+02 0.  0.
         23    2    4    4    0    0 -0.12725590892E+03 -0.33933597530E+02 -0.53836706006E+02  0.16930498473E+03  0.91761819640E+02 0.  0.
          5    1    3    3  502    0  0.34727659081E+03  0.62618411273E+03 -0.28237425097E+03  0.76971740345E+03  0.47000000000E+01 0. -1.
         -5    1    3    3    0  502  0.30728116444E+03  0.75147861210E+03 -0.33820832051E+03  0.87951621732E+03  0.47000000000E+01 0.  1.
         11    1    5    5    0    0 -0.79907935788E+02 -0.23898616088E+03 -0.24084038883E+03  0.34857388913E+03  0.00000000000E+00 0. -1.
        -11    1    5    5    0    0 -0.44739391054E+03 -0.11047429664E+04 -0.14172435128E+04  0.18518092525E+04  0.00000000000E+00 0.  1.
          3    1    6    6  503    0 -0.93860495164E+02 -0.99261158614E+01  0.83446806395E+01  0.94752066065E+02  0.00000000000E+00 0. -1.
         -3    1    6    6    0  503 -0.33395413755E+02 -0.24007481669E+02 -0.62181386646E+02  0.74552918663E+02  0.00000000000E+00 0.  1.
<mgrwt>
<rscale>  0 0.15536710E+04</rscale>
<asrwt>0</asrwt>
<pdfrwt beam="1">  1        2 0.48857115E+00 0.15536710E+04</pdfrwt>
<pdfrwt beam="2">  1       -2 0.12972450E+00 0.15536710E+04</pdfrwt>
<totfact> 0.55600045E-01</totfact>
</mgrwt>
</event>
<event>
12    1  0.3203156E-008  0.7914806E+03  0.7818608E-02  0.9572431E-01
          2   -1    0    0  501    0  0.00000000000E+00  0.00000000000E+00  0.37688341920E+03  0.37688341920E+03  0.00000000000E+00 0. -1.
         -2   -1    0    0    0  501 -0.00000000000E+00 -0.00000000000E+00 -0.20386865239E+04  0.20386865239E+04  0.00000000000E+00 0.  1.
         23    2    1    2    0    0 -0.97727670463E-01 -0.77072692693E+03 -0.74317125679E+03  0.10749056299E+04  0.95386533453E+02 0.  0.
    5000000    2    1    2    0    0  0.97727670463E-01  0.77072692693E+03 -0.91863184792E+03  0.13406643132E+04  0.59956344397E+03 0.  0.
         23    2    4    4    0    0 -0.99426516717E+02  0.45487842435E+03 -0.87336221145E+03  0.99393774899E+03  0.91382073228E+02 0.  0.
         23    2    4    4    0    0  0.99524244387E+02  0.31584850258E+03 -0.45269636474E+02  0.34672656426E+03  0.92220488901E+02 0.  0.
          5    1    3    3  502    0  0.65870335162E+01 -0.32545869148E+03 -0.37893843194E+03  0.49958300019E+03  0.47000000000E+01 0. -1.
         -5    1    3    3    0  502 -0.66847611867E+01 -0.44526823545E+03 -0.36423282485E+03  0.57532262969E+03  0.47000000000E+01 0.  1.
         11    1    5    5    0    0 -0.91223287720E+02  0.30864075571E+03 -0.67033373927E+03  0.74359137052E+03  0.00000000000E+00 0.  1.
        -11    1    5    5    0    0 -0.82032289967E+01  0.14623766865E+03 -0.20302847217E+03  0.25034637846E+03  0.00000000000E+00 0. -1.
          4    1    6    6  503    0  0.58939650774E+02  0.28932733483E+03 -0.39662031789E+02  0.29792157673E+03  0.00000000000E+00 0. -1.
         -4    1    6    6    0  503  0.40584593613E+02  0.26521167745E+02 -0.56076046858E+01  0.48804987528E+02  0.00000000000E+00 0.  1.
<mgrwt>
<rscale>  0 0.79148061E+03</rscale>
<asrwt>0</asrwt>
<pdfrwt beam="1">  1        2 0.57982066E-01 0.79148061E+03</pdfrwt>
<pdfrwt beam="2">  1       -2 0.31364407E+00 0.79148061E+03</pdfrwt>
<totfact> 0.23124631E+00</totfact>
</mgrwt>
</event>
<event>
12    1  0.3203156E-008  0.7852255E+03  0.7818608E-02  0.9581652E-01
          1   -1    0    0  501    0  0.00000000000E+00  0.00000000000E+00  0.52662306041E+03  0.52662306041E+03  0.00000000000E+00 0. -1.
         -1   -1    0    0    0  501 -0.00000000000E+00 -0.00000000000E+00 -0.12460340997E+04  0.12460340997E+04  0.00000000000E+00 0.  1.
         23    2    1    2    0    0 -0.23628753596E+03  0.63854144921E+03 -0.46458676440E+03  0.82967019712E+03  0.94576912170E+02 0.  0.
    5000000    2    1    2    0    0  0.23628753596E+03 -0.63854144921E+03 -0.25482427484E+03  0.94298696295E+03  0.60060138132E+03 0.  0.
         23    2    4    4    0    0 -0.14094060474E+03 -0.43360702922E+03 -0.85859594584E+02  0.47282545120E+03  0.91174160118E+02 0.  0.
         23    2    4    4    0    0  0.37722814070E+03 -0.20493441999E+03 -0.16896468026E+03  0.47016151175E+03  0.90573712121E+02 0.  0.
          5    1    3    3  502    0 -0.67837455764E+02  0.14528262850E+03 -0.65853815708E+02  0.17340062743E+03  0.47000000000E+01 0. -1.
         -5    1    3    3    0  502 -0.16845008020E+03  0.49325882070E+03 -0.39873294869E+03  0.65626956969E+03  0.47000000000E+01 0.  1.
         13    1    5    5    0    0 -0.23395082161E+02 -0.12421308000E+03  0.13869832683E+02  0.12715577600E+03  0.00000000000E+00 0. -1.
        -13    1    5    5    0    0 -0.11754552257E+03 -0.30939394922E+03 -0.99729427267E+02  0.34566967520E+03  0.00000000000E+00 0.  1.
          2    1    6    6  503    0  0.16742042965E+03 -0.11523755133E+03 -0.37047761454E+02  0.20659581344E+03  0.00000000000E+00 0. -1.
         -2    1    6    6    0  503  0.20980771104E+03 -0.89696868666E+02 -0.13191691880E+03  0.26356569831E+03  0.00000000000E+00 0.  1.
<mgrwt>
<rscale>  0 0.78522548E+03</rscale>
<asrwt>0</asrwt>
<pdfrwt beam="1">  1        1 0.81018933E-01 0.78522548E+03</pdfrwt>
<pdfrwt beam="2">  1       -1 0.19169755E+00 0.78522548E+03</pdfrwt>
<totfact> 0.72911851E+00</totfact>
</mgrwt>
</event>
<event>
12    1  0.3203156E-008  0.5576306E+03  0.7818608E-02  0.9997430E-01
          1   -1    0    0  501    0  0.00000000000E+00  0.00000000000E+00  0.45427230803E+03  0.45427230803E+03  0.00000000000E+00 0. -1.
         -1   -1    0    0    0  501 -0.00000000000E+00 -0.00000000000E+00 -0.77305273262E+03  0.77305273262E+03  0.00000000000E+00 0.  1.
         23    2    1    2    0    0  0.33551117812E+03 -0.21891261969E+03  0.53759048160E+02  0.41544651522E+03  0.95996281407E+02 0.  0.
    5000000    2    1    2    0    0 -0.33551117812E+03  0.21891261969E+03 -0.37253947275E+03  0.81187852543E+03  0.59989215330E+03 0.  0.
         23    2    4    4    0    0  0.15616627005E+03  0.10348701660E+03 -0.12642705019E+03  0.24266709327E+03  0.88351868301E+02 0.  0.
         23    2    4    4    0    0 -0.49167744817E+03  0.11542560309E+03 -0.24611242257E+03  0.56921143216E+03  0.91436027195E+02 0.  0.
          5    1    3    3  502    0  0.15310990250E+03 -0.12974079325E+03  0.67782189682E+02  0.21187692398E+03  0.47000000000E+01 0. -1.
         -5    1    3    3    0  502  0.18240127562E+03 -0.89171826435E+02 -0.14023141522E+02  0.20356959124E+03  0.47000000000E+01 0.  1.
         13    1    5    5    0    0  0.15993049631E+03  0.79295048308E+02 -0.12541823816E+03  0.21816324805E+03  0.00000000000E+00 0.  1.
        -13    1    5    5    0    0 -0.37642262549E+01  0.24191968291E+02 -0.10088120232E+01  0.24503845225E+02  0.00000000000E+00 0. -1.
          3    1    6    6  503    0 -0.33349867921E+03  0.10617414108E+03 -0.13247113510E+03  0.37422308708E+03  0.00000000000E+00 0. -1.
         -3    1    6    6    0  503 -0.15817876896E+03  0.92514620110E+01 -0.11364128747E+03  0.19498834508E+03  0.00000000000E+00 0.  1.
<mgrwt>
<rscale>  0 0.55763060E+03</rscale>
<asrwt>0</asrwt>
<pdfrwt beam="1">  1        1 0.69888049E-01 0.55763060E+03</pdfrwt>
<pdfrwt beam="2">  1       -1 0.11893119E+00 0.55763060E+03</pdfrwt>
<totfact> 0.33417131E+01</totfact>
</mgrwt>
</event>
<event>
12    1  0.3203156E-008  0.8085513E+03  0.7818608E-02  0.9547721E-01
         -2   -1    0    0    0  501 -0.00000000000E+00  0.00000000000E+00  0.11490179326E+04  0.11490179326E+04  0.00000000000E+00 0.  1.
          2   -1    0    0  501    0  0.00000000000E+00 -0.00000000000E+00 -0.21789691306E+04  0.21789691306E+04  0.00000000000E+00 0. -1.
         23    2    1    2    0    0 -0.42516205678E+03  0.66793441031E+03  0.87257465239E+03  0.11816965584E+04  0.90117040912E+02 0.  0.
    5000000    2    1    2    0    0  0.42516205678E+03 -0.66793441031E+03 -0.19025258504E+04  0.21462905048E+04  0.60004930504E+03 0.  0.
         23    2    4    4    0    0  0.79635424281E+02 -0.14801940735E+03 -0.11430790986E+04  0.11589974153E+04  0.91616796130E+02 0.  0.
         23    2    4    4    0    0  0.34552663250E+03 -0.51991500296E+03 -0.75944675179E+03  0.98729308944E+03  0.91038517042E+02 0.  0.
          5    1    3    3  502    0 -0.12128948085E+03  0.25971853967E+03  0.34692612507E+03  0.45004964645E+03  0.47000000000E+01 0. -1.
         -5    1    3    3    0  502 -0.30387257594E+03  0.40821587065E+03  0.52564852732E+03  0.73164691192E+03  0.47000000000E+01 0.  1.
         13    1    5    5    0    0  0.10731936512E+02 -0.11327279370E+03 -0.72084944561E+03  0.72977381666E+03  0.00000000000E+00 0. -1.
        -13    1    5    5    0    0  0.68903487769E+02 -0.34746613651E+02 -0.42222965300E+03  0.42922359868E+03  0.00000000000E+00 0.  1.
          4    1    6    6  503    0  0.47525339192E+02 -0.13910485227E+03 -0.19040488559E+03  0.24054695643E+03  0.00000000000E+00 0. -1.
         -4    1    6    6    0  503  0.29800129331E+03 -0.38081015069E+03 -0.56904186620E+03  0.74674613302E+03  0.00000000000E+00 0.  1.
<mgrwt>
<rscale>  0 0.80855133E+03</rscale>
<asrwt>0</asrwt>
<pdfrwt beam="1">  1        2 0.33522602E+00 0.80855133E+03</pdfrwt>
<pdfrwt beam="2">  1       -2 0.17677199E+00 0.80855133E+03</pdfrwt>
<totfact> 0.10470016E+00</totfact>
</mgrwt>
</event>
<event>
12    1  0.3203156E-008  0.5621162E+03  0.7818608E-02  0.9987278E-01
          1   -1    0    0  501    0  0.00000000000E+00  0.00000000000E+00  0.40642599274E+03  0.40642599274E+03  0.00000000000E+00 0. -1.
         -1   -1    0    0    0  501 -0.00000000000E+00 -0.00000000000E+00 -0.97317300033E+03  0.97317300033E+03  0.00000000000E+00 0.  1.
         23    2    1    2    0    0 -0.37360930253E+03 -0.26373485701E+03 -0.38268718361E+03  0.60330386785E+03  0.91575601114E+02 0.  0.
    5000000    2    1    2    0    0  0.37360930253E+03  0.26373485701E+03 -0.18405982397E+03  0.77629512522E+03  0.59968001209E+03 0.  0.
         23    2    4    4    0    0  0.44222081942E+03  0.33593441715E+03 -0.26115749914E+03  0.62058605631E+03  0.92263905086E+02 0.  0.
         23    2    4    4    0    0 -0.68611516893E+02 -0.72199560132E+02  0.77097675167E+02  0.15570906891E+03  0.91547506198E+02 0.  0.
          5    1    3    3  502    0 -0.22215134120E+03 -0.10191648239E+03 -0.21048390028E+03  0.32258913506E+03  0.47000000000E+01 0. -1.
         -5    1    3    3    0  502 -0.15145796133E+03 -0.16181837463E+03 -0.17220328333E+03  0.28071473279E+03  0.47000000000E+01 0.  1.
         13    1    5    5    0    0  0.10531563937E+03  0.50037442678E+02 -0.87693018519E+02  0.14589446550E+03  0.00000000000E+00 0. -1.
        -13    1    5    5    0    0  0.33690518005E+03  0.28589697447E+03 -0.17346448062E+03  0.47469159082E+03  0.00000000000E+00 0.  1.
          1    1    6    6  503    0 -0.50397928869E+02 -0.54342632840E+02  0.97903158737E+02  0.12279292109E+03  0.00000000000E+00 0. -1.
         -1    1    6    6    0  503 -0.18213588024E+02 -0.17856927292E+02 -0.20805483569E+02  0.32916147824E+02  0.00000000000E+00 0.  1.
<mgrwt>
<rscale>  0 0.56211623E+03</rscale>
<asrwt>0</asrwt>
<pdfrwt beam="1">  1        1 0.62527076E-01 0.56211623E+03</pdfrwt>
<pdfrwt beam="2">  1       -1 0.14971892E+00 0.56211623E+03</pdfrwt>
<totfact> 0.21597692E+01</totfact>
</mgrwt>
</event>
<event>
12    1  0.3203156E-008  0.3412366E+03  0.7818608E-02  0.1066270E+00
         -2   -1    0    0    0  501 -0.00000000000E+00  0.00000000000E+00  0.46163014588E+03  0.46163014588E+03  0.00000000000E+00 0.  1.
          2   -1    0    0  501    0  0.00000000000E+00 -0.00000000000E+00 -0.91951838284E+03  0.91951838284E+03  0.00000000000E+00 0. -1.
         23    2    1    2    0    0  0.11675895956E+03 -0.13614030747E+03 -0.68571911562E+03  0.71478524213E+03  0.92414278531E+02 0.  0.
    5000000    2    1    2    0    0 -0.11675895956E+03  0.13614030747E+03  0.22783087866E+03  0.66636328659E+03  0.59997190141E+03 0.  0.
         23    2    4    4    0    0  0.25873700518E+02 -0.14659636500E+03 -0.99946006867E+02  0.20175150226E+03  0.92490657729E+02 0.  0.
         23    2    4    4    0    0 -0.14263266008E+03  0.28273667247E+03  0.32777688553E+03  0.46461178432E+03  0.90234814609E+02 0.  0.
          5    1    3    3  502    0 -0.12104614883E+02 -0.20451195986E+02 -0.14448025895E+03  0.14649712743E+03  0.47000000000E+01 0. -1.
         -5    1    3    3    0  502  0.12886357445E+03 -0.11568911148E+03 -0.54123885667E+03  0.56828811470E+03  0.47000000000E+01 0.  1.
         13    1    5    5    0    0  0.40077854913E+02 -0.32513301211E+02 -0.62041506484E+02  0.80700047935E+02  0.00000000000E+00 0. -1.
        -13    1    5    5    0    0 -0.14204154395E+02 -0.11408306379E+03 -0.37904500383E+02  0.12105145433E+03  0.00000000000E+00 0.  1.
          3    1    6    6  503    0 -0.87893305233E+02  0.20791368880E+03  0.17382523641E+03  0.28490094402E+03  0.00000000000E+00 0. -1.
         -3    1    6    6    0  503 -0.54739354847E+02  0.74822983670E+02  0.15395164912E+03  0.17971084030E+03  0.00000000000E+00 0.  1.
<mgrwt>
<rscale>  0 0.34123661E+03</rscale>
<asrwt>0</asrwt>
<pdfrwt beam="1">  1        2 0.14146436E+00 0.34123661E+03</pdfrwt>
<pdfrwt beam="2">  1       -2 0.71020024E-01 0.34123661E+03</pdfrwt>
<totfact> 0.54581173E+01</totfact>
</mgrwt>
</event>
<event>
12    1  0.3203156E-008  0.7219292E+03  0.7818608E-02  0.9680448E-01
          1   -1    0    0  501    0  0.00000000000E+00  0.00000000000E+00  0.17729138843E+04  0.17729138843E+04  0.00000000000E+00 0. -1.
         -1   -1    0    0    0  501 -0.00000000000E+00 -0.00000000000E+00 -0.38668170092E+03  0.38668170092E+03  0.00000000000E+00 0.  1.
         23    2    1    2    0    0  0.55949803949E+03  0.44461600863E+03  0.53732229224E+03  0.89812776999E+03  0.84833921086E+02 0.  0.
    5000000    2    1    2    0    0 -0.55949803949E+03 -0.44461600863E+03  0.84890989112E+03  0.12614678152E+04  0.59994299251E+03 0.  0.
         23    2    4    4    0    0 -0.45401986580E+03 -0.32062750971E+03  0.21846870301E+03  0.60399346709E+03  0.90241318537E+02 0.  0.
         23    2    4    4    0    0 -0.10547817369E+03 -0.12398849892E+03  0.63044118811E+03  0.65747434812E+03  0.91201062402E+02 0.  0.
          5    1    3    3  502    0  0.62887813264E+02  0.87564586722E+02  0.75436972549E+02  0.13166343734E+03  0.47000000000E+01 0. -1.
         -5    1    3    3    0  502  0.49661022622E+03  0.35705142190E+03  0.46188531969E+03  0.76646433265E+03  0.47000000000E+01 0.  1.
         13    1    5    5    0    0 -0.16457688484E+02  0.28436174913E+01 -0.21213633643E+01  0.16835731443E+02  0.00000000000E+00 0. -1.
        -13    1    5    5    0    0 -0.43756217732E+03 -0.32347112720E+03  0.22059006637E+03  0.58715773565E+03  0.00000000000E+00 0.  1.
          3    1    6    6  503    0 -0.15236233819E+01 -0.59958493705E+01  0.18476822342E+03  0.18487176102E+03  0.00000000000E+00 0. -1.
         -3    1    6    6    0  503 -0.10395455031E+03 -0.11799264954E+03  0.44567296469E+03  0.47260258710E+03  0.00000000000E+00 0.  1.
<mgrwt>
<rscale>  0 0.72192921E+03</rscale>
<asrwt>0</asrwt>
<pdfrwt beam="1">  1        1 0.27275598E+00 0.72192921E+03</pdfrwt>
<pdfrwt beam="2">  1       -1 0.59489493E-01 0.72192921E+03</pdfrwt>
<totfact> 0.12729045E+01</totfact>
</mgrwt>
</event>
<event>
12    1  0.3203156E-008  0.5903493E+03  0.7818608E-02  0.9925633E-01
         -2   -1    0    0    0  501 -0.00000000000E+00  0.00000000000E+00  0.52081813622E+03  0.52081813622E+03  0.00000000000E+00 0. -1.
          2   -1    0    0  501    0  0.00000000000E+00 -0.00000000000E+00 -0.81826767813E+03  0.81826767813E+03  0.00000000000E+00 0.  1.
         23    2    1    2    0    0  0.41880352558E+03 -0.13924499838E+03 -0.38040245250E+03  0.58951139155E+03  0.89621940883E+02 0.  0.
    5000000    2    1    2    0    0 -0.41880352558E+03  0.13924499838E+03  0.82952910590E+02  0.74957442280E+03  0.60016253410E+03 0.  0.
         23    2    4    4    0    0 -0.25530244923E+03  0.36270540192E+03  0.41723392416E+02  0.45494857711E+03  0.92210721564E+02 0.  0.
         23    2    4    4    0    0 -0.16350107635E+03 -0.22346040354E+03  0.41229518174E+02  0.29462584570E+03  0.91855113456E+02 0.  0.
          5    1    3    3  502    0  0.26682637787E+03 -0.50356237402E+02 -0.19907510009E+03  0.33672696959E+03  0.47000000000E+01 0. -1.
         -5    1    3    3    0  502  0.15197714771E+03 -0.88888760979E+02 -0.18132735241E+03  0.25278442196E+03  0.47000000000E+01 0.  1.
         11    1    5    5    0    0 -0.11677149065E+03  0.17013092004E+03  0.65597486339E+02  0.21652515142E+03  0.00000000000E+00 0.  1.
        -11    1    5    5    0    0 -0.13853095859E+03  0.19257448188E+03 -0.23874093923E+02  0.23842342569E+03  0.00000000000E+00 0. -1.
          1    1    6    6  503    0 -0.15200596661E+03 -0.14483448423E+03  0.13230758943E+02  0.21037560383E+03  0.00000000000E+00 0. -1.
         -1    1    6    6    0  503 -0.11495109736E+02 -0.78625919312E+02  0.27998759231E+02  0.84250241864E+02  0.00000000000E+00 0.  1.
<mgrwt>
<rscale>  0 0.59034932E+03</rscale>
<asrwt>0</asrwt>
<pdfrwt beam="1">  1        2 0.12588733E+00 0.59034932E+03</pdfrwt>
<pdfrwt beam="2">  1       -2 0.80125867E-01 0.59034932E+03</pdfrwt>
<totfact> 0.47356346E+01</totfact>
</mgrwt>
</event>
<event>
12    1  0.3203156E-008  0.4644712E+03  0.7818608E-02  0.1023492E+00
         -1   -1    0    0    0  501 -0.00000000000E+00  0.00000000000E+00  0.32079043083E+03  0.32079043083E+03  0.00000000000E+00 0.  1.
          1   -1    0    0  501    0  0.00000000000E+00 -0.00000000000E+00 -0.10649581106E+04  0.10649581106E+04  0.00000000000E+00 0. -1.
         23    2    1    2    0    0 -0.33583905296E+03  0.19362244951E+03 -0.48306367129E+03  0.62600298820E+03  0.90838913821E+02 0.  0.
    5000000    2    1    2    0    0  0.33583905296E+03 -0.19362244951E+03 -0.26110400845E+03  0.75974555320E+03  0.59896617595E+03 0.  0.
         23    2    4    4    0    0  0.20503124465E+03 -0.28234417727E+03  0.83233855492E+02  0.37006051681E+03  0.90889304542E+02 0.  0.
         23    2    4    4    0    0  0.13080780832E+03  0.88721727756E+02 -0.34433786394E+03  0.38968503639E+03  0.91124285197E+02 0.  0.
          5    1    3    3  502    0 -0.27105441155E+03  0.17642865017E+03 -0.34772392747E+03  0.47490165546E+03  0.47000000000E+01 0. -1.
         -5    1    3    3    0  502 -0.64784641412E+02  0.17193799344E+02 -0.13533974382E+03  0.15110133275E+03  0.47000000000E+01 0.  1.
         13    1    5    5    0    0 -0.29471443262E+00 -0.34669152819E+02  0.25896452159E+02  0.43274279292E+02  0.00000000000E+00 0. -1.
        -13    1    5    5    0    0  0.20532595908E+03 -0.24767502445E+03  0.57337403332E+02  0.32678623752E+03  0.00000000000E+00 0.  1.
          4    1    6    6  503    0  0.14437147337E+03  0.86108452652E+02 -0.30941929088E+03  0.35213361883E+03  0.00000000000E+00 0. -1.
         -4    1    6    6    0  503 -0.13563665053E+02  0.26132751047E+01 -0.34918573063E+02  0.37551417566E+02  0.00000000000E+00 0.  1.
<mgrwt>
<rscale>  0 0.46447121E+03</rscale>
<asrwt>0</asrwt>
<pdfrwt beam="1">  1        1 0.16383971E+00 0.46447121E+03</pdfrwt>
<pdfrwt beam="2">  1       -1 0.49352374E-01 0.46447121E+03</pdfrwt>
<totfact> 0.58785145E+01</totfact>
</mgrwt>
</event>
<event>
12    1  0.3203156E-008  0.9076616E+03  0.7818608E-02  0.9416054E-01
          3   -1    0    0  501    0  0.00000000000E+00  0.00000000000E+00  0.18841166072E+04  0.18841166072E+04  0.00000000000E+00 0. -1.
         -3   -1    0    0    0  501 -0.00000000000E+00 -0.00000000000E+00 -0.52383102442E+03  0.52383102442E+03  0.00000000000E+00 0.  1.
         23    2    1    2    0    0  0.60254962942E+03  0.66723069852E+03  0.67274667524E+03  0.11269611685E+04  0.95867227617E+02 0.  0.
    5000000    2    1    2    0    0 -0.60254962942E+03 -0.66723069852E+03  0.68753890756E+03  0.12809864631E+04  0.59996142239E+03 0.  0.
         23    2    4    4    0    0 -0.39997040277E+03 -0.33176974541E+03  0.70263329921E+03  0.87803914603E+03  0.84921738887E+02 0.  0.
         23    2    4    4    0    0 -0.20257922665E+03 -0.33546095311E+03 -0.15094391649E+02  0.40294731711E+03  0.92554338464E+02 0.  0.
          5    1    3    3  502    0  0.52115849206E+02  0.78084401768E+02  0.10450296656E+03  0.14055673430E+03  0.47000000000E+01 0. -1.
         -5    1    3    3    0  502  0.55043378022E+03  0.58914629675E+03  0.56824370868E+03  0.98640443421E+03  0.47000000000E+01 0.  1.
         13    1    5    5    0    0 -0.10351979245E+03 -0.78962153945E+02  0.24142514382E+03  0.27429449366E+03  0.00000000000E+00 0. -1.
        -13    1    5    5    0    0 -0.29645061032E+03 -0.25280759146E+03  0.46120815539E+03  0.60374465237E+03  0.00000000000E+00 0.  1.
          4    1    6    6  503    0 -0.88363710879E+02 -0.99403938667E+02 -0.41648467204E+02  0.13936959225E+03  0.00000000000E+00 0. -1.
         -4    1    6    6    0  503 -0.11421551577E+03 -0.23605701445E+03  0.26554075555E+02  0.26357772486E+03  0.00000000000E+00 0.  1.
<mgrwt>
<rscale>  0 0.90766164E+03</rscale>
<asrwt>0</asrwt>
<pdfrwt beam="1">  1        3 0.28986409E+00 0.90766164E+03</pdfrwt>
<pdfrwt beam="2">  1       -3 0.80589389E-01 0.90766164E+03</pdfrwt>
<totfact> 0.16343836E-01</totfact>
</mgrwt>
</event>
<event>
12    1  0.3203156E-008  0.7508155E+03  0.7818608E-02  0.9634072E-01
         -3   -1    0    0    0  501 -0.00000000000E+00  0.00000000000E+00  0.11844134148E+04  0.11844134148E+04  0.00000000000E+00 0. -1.
          3   -1    0    0  501    0  0.00000000000E+00 -0.00000000000E+00 -0.72727435777E+03  0.72727435777E+03  0.00000000000E+00 0.  1.
         23    2    1    2    0    0 -0.52208576394E+03  0.52606335136E+03 -0.17551688448E+03  0.76732716972E+03  0.93105392503E+02 0.  0.
    5000000    2    1    2    0    0  0.52208576394E+03 -0.52606335136E+03  0.63265594156E+03  0.11443606029E+04  0.59999287874E+03 0.  0.
         23    2    4    4    0    0  0.11072257027E+03 -0.17433109197E+03  0.54339822478E+03  0.58836053960E+03  0.90750629047E+02 0.  0.
         23    2    4    4    0    0  0.41136319367E+03 -0.35173225939E+03  0.89257716780E+02  0.55600006330E+03  0.90740679901E+02 0.  0.
          5    1    3    3  502    0 -0.44411042024E+03  0.39483952450E+03 -0.13923027095E+03  0.61036011815E+03  0.47000000000E+01 0. -1.
         -5    1    3    3    0  502 -0.77975343693E+02  0.13122382686E+03 -0.36286613526E+02  0.15696705158E+03  0.47000000000E+01 0.  1.
         13    1    5    5    0    0  0.75304262719E+02 -0.11841875631E+03  0.24168849318E+03  0.27947640610E+03  0.00000000000E+00 0.  1.
        -13    1    5    5    0    0  0.35418307552E+02 -0.55912335659E+02  0.30170973160E+03  0.30888413350E+03  0.00000000000E+00 0. -1.
          4    1    6    6  503    0  0.23053174048E+03 -0.14011859286E+03  0.57577748162E+02  0.27585014141E+03  0.00000000000E+00 0. -1.
         -4    1    6    6    0  503  0.18083145319E+03 -0.21161366653E+03  0.31679968618E+02  0.28014992189E+03  0.00000000000E+00 0.  1.
<mgrwt>
<rscale>  0 0.75081555E+03</rscale>
<asrwt>0</asrwt>
<pdfrwt beam="1">  1        3 0.11188836E+00 0.75081555E+03</pdfrwt>
<pdfrwt beam="2">  1       -3 0.18221745E+00 0.75081555E+03</pdfrwt>
<totfact> 0.33201570E-01</totfact>
</mgrwt>
</event>
<event>
12    1  0.3203156E-008  0.1505707E+04  0.7818608E-02  0.8880667E-01
         -1   -1    0    0    0  501 -0.00000000000E+00  0.00000000000E+00  0.10152877350E+04  0.10152877350E+04  0.00000000000E+00 0. -1.
          1   -1    0    0  501    0  0.00000000000E+00 -0.00000000000E+00 -0.31904533505E+04  0.31904533505E+04  0.00000000000E+00 0.  1.
         23    2    1    2    0    0 -0.11635992900E+04 -0.89982506056E+03  0.46421950135E+02  0.14745452062E+04  0.92087568739E+02 0.  0.
    5000000    2    1    2    0    0  0.11635992900E+04  0.89982506056E+03 -0.22215875656E+04  0.27311958793E+04  0.60027591344E+03 0.  0.
         23    2    4    4    0    0  0.51872735226E+03  0.66634346674E+03 -0.15513550692E+04  0.17686232923E+04  0.90742040485E+02 0.  0.
         23    2    4    4    0    0  0.64487193776E+03  0.23348159382E+03 -0.67023249644E+03  0.96257258699E+03  0.83432099213E+02 0.  0.
          5    1    3    3  502    0 -0.29492162551E+03 -0.26191001325E+03  0.42885228055E+02  0.39678313097E+03  0.47000000000E+01 0. -1.
         -5    1    3    3    0  502 -0.86867766451E+03 -0.63791504731E+03  0.35367220802E+01  0.10777620752E+04  0.47000000000E+01 0.  1.
         11    1    5    5    0    0  0.38065073317E+03  0.42052410051E+03 -0.10517159465E+04  0.11949234000E+04  0.00000000000E+00 0. -1.
        -11    1    5    5    0    0  0.13807661908E+03  0.24581936623E+03 -0.49963912270E+03  0.57369989235E+03  0.00000000000E+00 0.  1.
          1    1    6    6  503    0  0.98368419464E+02  0.74950999757E+01 -0.11319866989E+03  0.15015479126E+03  0.00000000000E+00 0. -1.
         -1    1    6    6    0  503  0.54650351830E+03  0.22598649384E+03 -0.55703382655E+03  0.81241779574E+03  0.00000000000E+00 0.  1.
<mgrwt>
<rscale>  0 0.15057073E+04</rscale>
<asrwt>0</asrwt>
<pdfrwt beam="1">  1        1 0.49083897E+00 0.15057073E+04</pdfrwt>
<pdfrwt beam="2">  1       -1 0.15619811E+00 0.15057073E+04</pdfrwt>
<totfact> 0.12852333E-01</totfact>
</mgrwt>
</event>
<event>
12    1  0.3203156E-008  0.6671118E+03  0.7818608E-02  0.9775190E-01
         -1   -1    0    0    0  501 -0.00000000000E+00  0.00000000000E+00  0.56722134403E+03  0.56722134403E+03  0.00000000000E+00 0.  1.
          1   -1    0    0  501    0  0.00000000000E+00 -0.00000000000E+00 -0.83382407573E+03  0.83382407573E+03  0.00000000000E+00 0. -1.
         23    2    1    2    0    0  0.14532789536E+02  0.53820183276E+03 -0.23463930549E+03  0.59430822247E+03  0.90962876260E+02 0.  0.
    5000000    2    1    2    0    0 -0.14532789536E+02 -0.53820183276E+03 -0.31963426207E+02  0.80673719729E+03  0.59994235567E+03 0.  0.
         23    2    4    4    0    0 -0.22354036435E+03 -0.52475769745E+03 -0.20755505586E+02  0.57786171117E+03  0.90290811810E+02 0.  0.
         23    2    4    4    0    0  0.20900757481E+03 -0.13444135306E+02 -0.11207920622E+02  0.22887548612E+03  0.91615825914E+02 0.  0.
          5    1    3    3  502    0  0.47924925127E+02  0.33189430250E+03 -0.16658797398E+03  0.37446531155E+03  0.47000000000E+01 0. -1.
         -5    1    3    3    0  502 -0.33392135591E+02  0.20630753026E+03 -0.68051331511E+02  0.21984291092E+03  0.47000000000E+01 0.  1.
         11    1    5    5    0    0 -0.94033762581E+02 -0.33111346256E+03 -0.21849630436E+02  0.34489981146E+03  0.00000000000E+00 0.  1.
        -11    1    5    5    0    0 -0.12950660177E+03 -0.19364423489E+03  0.10941248498E+01  0.23296189971E+03  0.00000000000E+00 0. -1.
          3    1    6    6  503    0  0.42048039656E+02  0.12066524446E+02 -0.37903043984E+02  0.57881598064E+02  0.00000000000E+00 0. -1.
         -3    1    6    6    0  503  0.16695953516E+03 -0.25510659752E+02  0.26695123362E+02  0.17099388806E+03  0.00000000000E+00 0.  1.
<mgrwt>
<rscale>  0 0.66711177E+03</rscale>
<asrwt>0</asrwt>
<pdfrwt beam="1">  1        1 0.12828063E+00 0.66711177E+03</pdfrwt>
<pdfrwt beam="2">  1       -1 0.87264821E-01 0.66711177E+03</pdfrwt>
<totfact> 0.27688057E+01</totfact>
</mgrwt>
</event>
<event>
12    1  0.3203156E-008  0.5953996E+03  0.7818608E-02  0.9914997E-01
         -1   -1    0    0    0  501 -0.00000000000E+00  0.00000000000E+00  0.30922433946E+03  0.30922433946E+03  0.00000000000E+00 0.  1.
          1   -1    0    0  501    0  0.00000000000E+00 -0.00000000000E+00 -0.23595313632E+04  0.23595313632E+04  0.00000000000E+00 0. -1.
         23    2    1    2    0    0 -0.11283766011E+03 -0.52802346089E+03 -0.17057761905E+04  0.17911078704E+04  0.82788153380E+02 0.  0.
    5000000    2    1    2    0    0  0.11283766011E+03  0.52802346089E+03 -0.34453083324E+03  0.87764783232E+03  0.60001925779E+03 0.  0.
         23    2    4    4    0    0  0.66591433591E+02 -0.13834685840E+02 -0.30655400128E+03  0.32461793648E+03  0.82314223712E+02 0.  0.
         23    2    4    4    0    0  0.46246226521E+02  0.54185814673E+03 -0.37976831957E+02  0.55302989583E+03  0.93010006293E+02 0.  0.
          5    1    3    3  502    0 -0.43853147542E+01 -0.14730078168E+03 -0.38470737435E+03  0.41199345279E+03  0.47000000000E+01 0. -1.
         -5    1    3    3    0  502 -0.10845234536E+03 -0.38072267921E+03 -0.13210688162E+04  0.13791144176E+04  0.47000000000E+01 0.  1.
         11    1    5    5    0    0 -0.82012159838E+01  0.15456496650E+02 -0.18041812381E+02  0.25133050477E+02  0.00000000000E+00 0.  1.
        -11    1    5    5    0    0  0.74792649575E+02 -0.29291182490E+02 -0.28851218890E+03  0.29948488601E+03  0.00000000000E+00 0. -1.
          1    1    6    6  503    0  0.68670038039E+02  0.44146189936E+03 -0.12005600229E+02  0.44693211693E+03  0.00000000000E+00 0. -1.
         -1    1    6    6    0  503 -0.22423811518E+02  0.10039624737E+03 -0.25971231728E+02  0.10609777890E+03  0.00000000000E+00 0.  1.
<mgrwt>
<rscale>  0 0.59539964E+03</rscale>
<asrwt>0</asrwt>
<pdfrwt beam="1">  1        1 0.36300482E+00 0.59539964E+03</pdfrwt>
<pdfrwt beam="2">  1       -1 0.47572976E-01 0.59539964E+03</pdfrwt>
<totfact> 0.81035612E+00</totfact>
</mgrwt>
</event>
<event>
12    1  0.3203156E-008  0.1188177E+04  0.7818608E-02  0.9123268E-01
         -2   -1    0    0    0  501 -0.00000000000E+00  0.00000000000E+00  0.17127825482E+04  0.17127825482E+04  0.00000000000E+00 0.  1.
          2   -1    0    0  501    0  0.00000000000E+00 -0.00000000000E+00 -0.10089104368E+04  0.10089104368E+04  0.00000000000E+00 0. -1.
         23    2    1    2    0    0 -0.11853205744E+04 -0.70167129432E+01 -0.57888287698E+02  0.11902110078E+04  0.90648169785E+02 0.  0.
    5000000    2    1    2    0    0  0.11853205744E+04  0.70167129432E+01  0.76176039910E+03  0.15314819773E+04  0.60010335995E+03 0.  0.
         23    2    4    4    0    0  0.10815735613E+04  0.33733149944E+02  0.83788338898E+03  0.13716649628E+04  0.92070097491E+02 0.  0.
         23    2    4    4    0    0  0.10374701317E+03 -0.26716437001E+02 -0.76122989874E+02  0.15981701446E+03  0.90937108899E+02 0.  0.
          5    1    3    3  502    0 -0.21068382824E+03  0.19179434883E+02 -0.38102121104E+02  0.21501020403E+03  0.47000000000E+01 0. -1.
         -5    1    3    3    0  502 -0.97463674621E+03 -0.26196147826E+02 -0.19786166594E+02  0.97520080374E+03  0.47000000000E+01 0.  1.
         13    1    5    5    0    0  0.48120035637E+03  0.30193406573E+02  0.42800253518E+03  0.64471047370E+03  0.00000000000E+00 0. -1.
        -13    1    5    5    0    0  0.60037320490E+03  0.35397433705E+01  0.40988085379E+03  0.72695448912E+03  0.00000000000E+00 0.  1.
          4    1    6    6  503    0  0.28752996379E+02 -0.54433229890E+01 -0.76454302787E+02  0.81863453265E+02  0.00000000000E+00 0. -1.
         -4    1    6    6    0  503  0.74994016792E+02 -0.21273114012E+02  0.33131291213E+00  0.77953561193E+02  0.00000000000E+00 0.  1.
<mgrwt>
<rscale>  0 0.11881771E+04</rscale>
<asrwt>0</asrwt>
<pdfrwt beam="1">  1        2 0.15521699E+00 0.11881771E+04</pdfrwt>
<pdfrwt beam="2">  1       -2 0.26350501E+00 0.11881771E+04</pdfrwt>
<totfact> 0.12888619E+00</totfact>
</mgrwt>
</event>
<event>
12    1  0.3203156E-008  0.8588746E+03  0.7818608E-02  0.9478503E-01
         -2   -1    0    0    0  501 -0.00000000000E+00  0.00000000000E+00  0.70563897171E+03  0.70563897171E+03  0.00000000000E+00 0.  1.
          2   -1    0    0  501    0  0.00000000000E+00 -0.00000000000E+00 -0.12396672955E+04  0.12396672955E+04  0.00000000000E+00 0. -1.
         23    2    1    2    0    0  0.10844145915E+03  0.82234508931E+03 -0.35828051869E+03  0.90699148686E+03  0.79105190625E+02 0.  0.
    5000000    2    1    2    0    0 -0.10844145915E+03 -0.82234508931E+03 -0.17574780509E+03  0.10383147803E+04  0.59933237531E+03 0.  0.
         23    2    4    4    0    0 -0.25410542864E+02 -0.42462927807E+02  0.15228974505E+03  0.18394221633E+03  0.90519481730E+02 0.  0.
         23    2    4    4    0    0 -0.83030916283E+02 -0.77988216151E+03 -0.32803755014E+03  0.85437256401E+03  0.85050131869E+02 0.  0.
          5    1    3    3  502    0  0.98695394668E+02  0.45951103625E+03 -0.19184683268E+03  0.50765979806E+03  0.47000000000E+01 0. -1.
         -5    1    3    3    0  502  0.97460644788E+01  0.36283405307E+03 -0.16643368601E+03  0.39933168879E+03  0.47000000000E+01 0.  1.
         13    1    5    5    0    0 -0.46884535099E+02 -0.57456933679E+02  0.91696796823E+02  0.11793117233E+03  0.00000000000E+00 0.  1.
        -13    1    5    5    0    0  0.21473992235E+02  0.14994005872E+02  0.60592948231E+02  0.66011043999E+02  0.00000000000E+00 0. -1.
          2    1    6    6  503    0 -0.26889928252E+02 -0.20055984855E+03 -0.12545431080E+03  0.23808843985E+03  0.00000000000E+00 0. -1.
         -2    1    6    6    0  503 -0.56140988032E+02 -0.57932231295E+03 -0.20258323934E+03  0.61628412415E+03  0.00000000000E+00 0.  1.
<mgrwt>
<rscale>  0 0.85887458E+03</rscale>
<asrwt>0</asrwt>
<pdfrwt beam="1">  1        2 0.19071804E+00 0.85887458E+03</pdfrwt>
<pdfrwt beam="2">  1       -2 0.10855984E+00 0.85887458E+03</pdfrwt>
<totfact> 0.12259309E+01</totfact>
</mgrwt>
</event>
<event>
12    1  0.3203156E-008  0.6059965E+03  0.7818608E-02  0.9893043E-01
         -1   -1    0    0    0  501 -0.00000000000E+00  0.00000000000E+00  0.48306596337E+03  0.48306596337E+03  0.00000000000E+00 0.  1.
          1   -1    0    0  501    0  0.00000000000E+00 -0.00000000000E+00 -0.10890993269E+04  0.10890993269E+04  0.00000000000E+00 0. -1.
         23    2    1    2    0    0 -0.54908250623E+03 -0.46585405554E+02 -0.50234671318E+03  0.75127949504E+03  0.91688934810E+02 0.  0.
    5000000    2    1    2    0    0  0.54908250623E+03  0.46585405554E+02 -0.10368665036E+03  0.82088579525E+03  0.59953379281E+03 0.  0.
         23    2    4    4    0    0  0.18997356410E+03 -0.13805755948E+03 -0.27525986338E+03  0.37303726755E+03  0.90768749080E+02 0.  0.
         23    2    4    4    0    0  0.35910894213E+03  0.18464296503E+03  0.17157321302E+03  0.44784852770E+03  0.89881474633E+02 0.  0.
          5    1    3    3  502    0 -0.27669583679E+03 -0.64787547342E+02 -0.22982623993E+03  0.36551361527E+03  0.47000000000E+01 0. -1.
         -5    1    3    3    0  502 -0.27238666944E+03  0.18202141788E+02 -0.27252047325E+03  0.38576587977E+03  0.47000000000E+01 0.  1.
         11    1    5    5    0    0  0.10975825776E+02 -0.42361151211E+02 -0.23576781653E+02  0.49707147539E+02  0.00000000000E+00 0.  1.
        -11    1    5    5    0    0  0.17899773832E+03 -0.95696408267E+02 -0.25168308173E+03  0.32333012001E+03  0.00000000000E+00 0. -1.
          1    1    6    6  503    0  0.18898563922E+03  0.64310980022E+02  0.47049427350E+02  0.20509783664E+03  0.00000000000E+00 0. -1.
         -1    1    6    6    0  503  0.17012330291E+03  0.12033198501E+03  0.12452378567E+03  0.24275069105E+03  0.00000000000E+00 0.  1.
<mgrwt>
<rscale>  0 0.60599652E+03</rscale>
<asrwt>0</asrwt>
<pdfrwt beam="1">  1        1 0.16755374E+00 0.60599652E+03</pdfrwt>
<pdfrwt beam="2">  1       -1 0.74317841E-01 0.60599652E+03</pdfrwt>
<totfact> 0.24694789E+01</totfact>
</mgrwt>
</event>
<event>
12    1  0.3203156E-008  0.2137654E+04  0.7818608E-02  0.8544836E-01
         -2   -1    0    0    0  501 -0.00000000000E+00  0.00000000000E+00  0.19596902471E+04  0.19596902471E+04  0.00000000000E+00 0.  1.
          2   -1    0    0  501    0  0.00000000000E+00 -0.00000000000E+00 -0.29187220435E+04  0.29187220435E+04  0.00000000000E+00 0. -1.
         23    2    1    2    0    0  0.65907852723E+03 -0.19949887082E+04  0.60859841839E+03  0.21892200933E+04  0.89040052676E+02 0.  0.
    5000000    2    1    2    0    0 -0.65907852723E+03  0.19949887082E+04 -0.15676302148E+04  0.26891921973E+04  0.59993810769E+03 0.  0.
         23    2    4    4    0    0  0.58422368562E+01  0.82230706531E+03 -0.49816005965E+03  0.96598325242E+03  0.93472763536E+02 0.  0.
         23    2    4    4    0    0 -0.66492076409E+03  0.11726816429E+04 -0.10694701551E+04  0.17232089449E+04  0.91546693465E+02 0.  0.
          5    1    3    3  502    0  0.55482409681E+02 -0.10539983440E+03  0.30573088648E+02  0.12306188128E+03  0.47000000000E+01 0. -1.
         -5    1    3    3    0  502  0.60359611755E+03 -0.18895888738E+04  0.57802532975E+03  0.20661582120E+04  0.47000000000E+01 0.  1.
         11    1    5    5    0    0  0.30064893544E+02  0.30567267478E+03 -0.22762372559E+03  0.38229862985E+03  0.00000000000E+00 0.  1.
        -11    1    5    5    0    0 -0.24222656687E+02  0.51663439053E+03 -0.27053633406E+03  0.58368462257E+03  0.00000000000E+00 0. -1.
          2    1    6    6  503    0 -0.24358275860E+03  0.42190627005E+03 -0.44304881132E+03  0.65850566452E+03  0.00000000000E+00 0. -1.
         -2    1    6    6    0  503 -0.42133800549E+03  0.75077537283E+03 -0.62642134381E+03  0.10647032804E+04  0.00000000000E+00 0.  1.
<mgrwt>
<rscale>  0 0.21376535E+04</rscale>
<asrwt>0</asrwt>
<pdfrwt beam="1">  1        2 0.44903416E+00 0.21376535E+04</pdfrwt>
<pdfrwt beam="2">  1       -2 0.30149081E+00 0.21376535E+04</pdfrwt>
<totfact> 0.53115232E-02</totfact>
</mgrwt>
</event>
<event>
12    1  0.3203156E-008  0.4777040E+03  0.7818608E-02  0.1019768E+00
         -1   -1    0    0    0  501 -0.00000000000E+00  0.00000000000E+00  0.28982270900E+03  0.28982270900E+03  0.00000000000E+00 0. -1.
          1   -1    0    0  501    0  0.00000000000E+00 -0.00000000000E+00 -0.16049693257E+04  0.16049693257E+04  0.00000000000E+00 0.  1.
         23    2    1    2    0    0  0.30612432005E+01  0.38927236364E+03 -0.10638391186E+04  0.11368038041E+04  0.95009864123E+02 0.  0.
    5000000    2    1    2    0    0 -0.30612432005E+01 -0.38927236364E+03 -0.25130749809E+03  0.75798823068E+03  0.59987361581E+03 0.  0.
         23    2    4    4    0    0  0.17988266151E+03 -0.18921987197E+03 -0.35852817866E+03  0.45302818422E+03  0.92358805467E+02 0.  0.
         23    2    4    4    0    0 -0.18294390471E+03 -0.20005249167E+03  0.10722068057E+03  0.30496004646E+03  0.89525883951E+02 0.  0.
          5    1    3    3  502    0 -0.42475179885E+02  0.12219847955E+03 -0.36431407425E+03  0.38663088859E+03  0.47000000000E+01 0. -1.
         -5    1    3    3    0  502  0.45536423085E+02  0.26707388409E+03 -0.69952504440E+03  0.75017291548E+03  0.47000000000E+01 0.  1.
         13    1    5    5    0    0  0.62562670465E+02 -0.13174056593E+03 -0.20194727055E+03  0.24910312028E+03  0.00000000000E+00 0. -1.
        -13    1    5    5    0    0  0.11731999105E+03 -0.57479306033E+02 -0.15658090811E+03  0.20392506395E+03  0.00000000000E+00 0.  1.
          4    1    6    6  503    0 -0.38145002412E+02 -0.86325031167E+02  0.53330003436E+01  0.94527737240E+02  0.00000000000E+00 0. -1.
         -4    1    6    6    0  503 -0.14479890230E+03 -0.11372746050E+03  0.10188768022E+03  0.21043230922E+03  0.00000000000E+00 0.  1.
<mgrwt>
<rscale>  0 0.47770397E+03</rscale>
<asrwt>0</asrwt>
<pdfrwt beam="1">  1        1 0.24691836E+00 0.47770397E+03</pdfrwt>
<pdfrwt beam="2">  1       -1 0.44588109E-01 0.47770397E+03</pdfrwt>
<totfact> 0.29747922E+01</totfact>
</mgrwt>
</event>
<event>
12    1  0.3203156E-008  0.3456653E+03  0.7818608E-02  0.1064408E+00
          2   -1    0    0  501    0  0.00000000000E+00  0.00000000000E+00  0.20660437652E+04  0.20660437652E+04  0.00000000000E+00 0.  1.
         -2   -1    0    0    0  501 -0.00000000000E+00 -0.00000000000E+00 -0.98570840523E+02  0.98570840523E+02  0.00000000000E+00 0. -1.
         23    2    1    2    0    0  0.15114462438E+03  0.16556685684E+03  0.35433018746E+03  0.42895933462E+03  0.90549143820E+02 0.  0.
    5000000    2    1    2    0    0 -0.15114462438E+03 -0.16556685684E+03  0.16131427372E+04  0.17356552711E+04  0.60001053984E+03 0.  0.
         23    2    4    4    0    0 -0.61641721054E+02  0.11809713100E+03  0.12367775855E+04  0.12473605316E+04  0.92427623507E+02 0.  0.
         23    2    4    4    0    0 -0.89502903328E+02 -0.28366398785E+03  0.37636515171E+03  0.48829473953E+03  0.91131759167E+02 0.  0.
          5    1    3    3  502    0 -0.71686898358E+01  0.10024611188E+02  0.32490717467E+01  0.13584160285E+02  0.47000000000E+01 0. -1.
         -5    1    3    3    0  502  0.15831331422E+03  0.15554224565E+03  0.35108111572E+03  0.41537517434E+03  0.47000000000E+01 0.  1.
         11    1    5    5    0    0 -0.18680234946E+02  0.97395687018E+02  0.54559629096E+03  0.55453600761E+03  0.00000000000E+00 0.  1.
        -11    1    5    5    0    0 -0.42961486108E+02  0.20701443986E+02  0.69118129456E+03  0.69282452397E+03  0.00000000000E+00 0. -1.
          3    1    6    6  503    0 -0.10614719714E+03 -0.23498888429E+03  0.33195656407E+03  0.42033577486E+03  0.00000000000E+00 0. -1.
         -3    1    6    6    0  503  0.16644293812E+02 -0.48675103558E+02  0.44408587635E+02  0.67958964667E+02  0.00000000000E+00 0.  1.
<mgrwt>
<rscale>  0 0.34566525E+03</rscale>
<asrwt>0</asrwt>
<pdfrwt beam="1">  1        2 0.31785285E+00 0.34566525E+03</pdfrwt>
<pdfrwt beam="2">  1       -2 0.15164746E-01 0.34566525E+03</pdfrwt>
<totfact> 0.22789560E+02</totfact>
</mgrwt>
</event>
<event>
12    1  0.3203156E-008  0.4240420E+03  0.7818608E-02  0.1035759E+00
         -1   -1    0    0    0  501 -0.00000000000E+00  0.00000000000E+00  0.28130620206E+03  0.28130620206E+03  0.00000000000E+00 0.  1.
          1   -1    0    0  501    0  0.00000000000E+00 -0.00000000000E+00 -0.12084046675E+04  0.12084046675E+04  0.00000000000E+00 0. -1.
         23    2    1    2    0    0  0.18596598016E+03  0.22827442012E+03  0.44198223059E+02  0.31073918256E+03  0.88953920661E+02 0.  0.
    5000000    2    1    2    0    0 -0.18596598016E+03 -0.22827442012E+03 -0.97129668845E+03  0.11789716870E+04  0.59988701018E+03 0.  0.
         23    2    4    4    0    0  0.64099929292E+02 -0.26790966972E+03 -0.81757764580E+03  0.86757554355E+03  0.91486200014E+02 0.  0.
         23    2    4    4    0    0 -0.25006590945E+03  0.39635249601E+02 -0.15371904265E+03  0.31139614340E+03  0.96094234859E+02 0.  0.
          5    1    3    3  502    0  0.22169447908E+02  0.77845984096E+02  0.34425368123E+02  0.88083356151E+02  0.47000000000E+01 0. -1.
         -5    1    3    3    0  502  0.16379653225E+03  0.15042843603E+03  0.97728549362E+01  0.22265582641E+03  0.47000000000E+01 0.  1.
         11    1    5    5    0    0  0.74364899597E+01 -0.20659141719E+03 -0.57503714225E+03  0.61106712398E+03  0.00000000000E+00 0.  1.
        -11    1    5    5    0    0  0.56663439333E+02 -0.61318252535E+02 -0.24254050355E+03  0.25650841957E+03  0.00000000000E+00 0. -1.
          1    1    6    6  503    0 -0.12877367208E+03  0.32691966986E+02 -0.13329726070E+03  0.18820091136E+03  0.00000000000E+00 0. -1.
         -1    1    6    6    0  503 -0.12129223737E+03  0.69432826148E+01 -0.20421781947E+02  0.12319523204E+03  0.00000000000E+00 0.  1.
<mgrwt>
<rscale>  0 0.42404203E+03</rscale>
<asrwt>0</asrwt>
<pdfrwt beam="1">  1        1 0.18590841E+00 0.42404203E+03</pdfrwt>
<pdfrwt beam="2">  1       -1 0.43277878E-01 0.42404203E+03</pdfrwt>
<totfact> 0.59345121E+01</totfact>
</mgrwt>
</event>
<event>
12    1  0.3203156E-008  0.1340656E+04  0.7818608E-02  0.8997931E-01
          1   -1    0    0  501    0  0.00000000000E+00  0.00000000000E+00  0.10615605530E+04  0.10615605530E+04  0.00000000000E+00 0. -1.
         -1   -1    0    0    0  501 -0.00000000000E+00 -0.00000000000E+00 -0.18566051183E+04  0.18566051183E+04  0.00000000000E+00 0.  1.
         23    2    1    2    0    0  0.73320922508E+03  0.11137212631E+04 -0.49603031624E+03  0.14256118479E+04  0.91390625946E+02 0.  0.
    5000000    2    1    2    0    0 -0.73320922508E+03 -0.11137212631E+04 -0.29901424903E+03  0.14925538234E+04  0.60028041373E+03 0.  0.
         23    2    4    4    0    0 -0.52682852776E+03 -0.80484883316E+03 -0.46902617970E+03  0.10738438395E+04  0.88459552570E+02 0.  0.
         23    2    4    4    0    0 -0.20638069732E+03 -0.30887242994E+03  0.17001193067E+03  0.41870998396E+03  0.91754149176E+02 0.  0.
          5    1    3    3  502    0  0.19806729750E+03  0.29515943245E+03 -0.17547528522E+03  0.39643840710E+03  0.47000000000E+01 0. -1.
         -5    1    3    3    0  502  0.53514192758E+03  0.81856183066E+03 -0.32055503102E+03  0.10291734408E+04  0.47000000000E+01 0.  1.
         13    1    5    5    0    0 -0.24355407484E+03 -0.29404870499E+03 -0.17809786229E+03  0.42130995340E+03  0.00000000000E+00 0. -1.
        -13    1    5    5    0    0 -0.28327445292E+03 -0.51080012818E+03 -0.29092831741E+03  0.65253388609E+03  0.00000000000E+00 0.  1.
          1    1    6    6  503    0 -0.10560307799E+03 -0.82030615294E+02  0.47533621594E+02  0.14191714874E+03  0.00000000000E+00 0. -1.
         -1    1    6    6    0  503 -0.10077761933E+03 -0.22684181465E+03  0.12247830908E+03  0.27679283522E+03  0.00000000000E+00 0.  1.
<mgrwt>
<rscale>  0 0.13406565E+04</rscale>
<asrwt>0</asrwt>
<pdfrwt beam="1">  1        1 0.16331701E+00 0.13406565E+04</pdfrwt>
<pdfrwt beam="2">  1       -1 0.28563156E+00 0.13406565E+04</pdfrwt>
<totfact> 0.53666675E-01</totfact>
</mgrwt>
</event>
<event>
12    1  0.3203156E-008  0.1083438E+04  0.7818608E-02  0.9221486E-01
         -4   -1    0    0    0  501 -0.00000000000E+00  0.00000000000E+00  0.92220126215E+03  0.92220126215E+03  0.00000000000E+00 0.  1.
          4   -1    0    0  501    0  0.00000000000E+00 -0.00000000000E+00 -0.17442932937E+04  0.17442932937E+04  0.00000000000E+00 0. -1.
         23    2    1    2    0    0 -0.10385183319E+04  0.27068466908E+03  0.16514771479E+03  0.10896244769E+04  0.90648868134E+02 0.  0.
    5000000    2    1    2    0    0  0.10385183319E+04 -0.27068466908E+03 -0.98723974633E+03  0.15768700789E+04  0.60007200680E+03 0.  0.
         23    2    4    4    0    0  0.88535115652E+03 -0.27075307553E+03 -0.49546175264E+03  0.10537152921E+04  0.87633728189E+02 0.  0.
         23    2    4    4    0    0  0.15316717535E+03  0.68406448811E-01 -0.49177799369E+03  0.52315478677E+03  0.91570451328E+02 0.  0.
          5    1    3    3  502    0 -0.10713954271E+03  0.30470541487E+01  0.28062861923E+02  0.11089535775E+03  0.47000000000E+01 0. -1.
         -5    1    3    3    0  502 -0.93137878916E+03  0.26763761493E+03  0.13708485287E+03  0.97872911917E+03  0.47000000000E+01 0.  1.
         13    1    5    5    0    0  0.35068659548E+03 -0.15210254432E+03 -0.19879050404E+03  0.43085256960E+03  0.00000000000E+00 0.  1.
        -13    1    5    5    0    0  0.53466456104E+03 -0.11865053121E+03 -0.29667124860E+03  0.62286272255E+03  0.00000000000E+00 0. -1.
          2    1    6    6  503    0  0.17505041369E+02  0.16346255079E+02 -0.19462937328E+03  0.19609747442E+03  0.00000000000E+00 0. -1.
         -2    1    6    6    0  503  0.13566213398E+03 -0.16277848630E+02 -0.29714862041E+03  0.32705731235E+03  0.00000000000E+00 0.  1.
<mgrwt>
<rscale>  0 0.10834380E+04</rscale>
<asrwt>0</asrwt>
<pdfrwt beam="1">  1        4 0.26835281E+00 0.10834380E+04</pdfrwt>
<pdfrwt beam="2">  1       -4 0.14187712E+00 0.10834380E+04</pdfrwt>
<totfact> 0.32121330E-02</totfact>
</mgrwt>
</event>
<event>
12    1  0.3203156E-008  0.8881324E+03  0.7818608E-02  0.9440539E-01
         -2   -1    0    0    0  501 -0.00000000000E+00  0.00000000000E+00  0.65137020848E+03  0.65137020848E+03  0.00000000000E+00 0.  1.
          2   -1    0    0  501    0  0.00000000000E+00 -0.00000000000E+00 -0.15999684428E+04  0.15999684428E+04  0.00000000000E+00 0. -1.
         23    2    1    2    0    0  0.38638406974E+03  0.72964752778E+03 -0.90679337032E+03  0.12298759556E+04  0.92964970142E+02 0.  0.
    5000000    2    1    2    0    0 -0.38638406974E+03 -0.72964752778E+03 -0.41804863999E+02  0.10214626956E+04  0.59996685556E+03 0.  0.
         23    2    4    4    0    0  0.94433267341E+02 -0.19461266240E+03 -0.16837757618E+03  0.28536272660E+03  0.79304143823E+02 0.  0.
         23    2    4    4    0    0 -0.48081733708E+03 -0.53503486538E+03  0.12657271218E+03  0.73609996903E+03  0.91514447619E+02 0.  0.
          5    1    3    3  502    0  0.19365797508E+03  0.33003168108E+03 -0.48392333710E+03  0.61695073386E+03  0.47000000000E+01 0. -1.
         -5    1    3    3    0  502  0.19272609466E+03  0.39961584670E+03 -0.42287003322E+03  0.61292522178E+03  0.47000000000E+01 0.  1.
         13    1    5    5    0    0  0.83821912809E+02 -0.88807879155E+02 -0.71480073965E+02  0.14150036552E+03  0.00000000000E+00 0. -1.
        -13    1    5    5    0    0  0.10611354532E+02 -0.10580478325E+03 -0.96897502216E+02  0.14386236109E+03  0.00000000000E+00 0.  1.
          2    1    6    6  503    0 -0.33596435921E+03 -0.33478853289E+03  0.47765331658E+02  0.47669375843E+03  0.00000000000E+00 0. -1.
         -2    1    6    6    0  503 -0.14485297787E+03 -0.20024633249E+03  0.78807380524E+02  0.25940621060E+03  0.00000000000E+00 0.  1.
<mgrwt>
<rscale>  0 0.88813239E+03</rscale>
<asrwt>0</asrwt>
<pdfrwt beam="1">  1        2 0.24614899E+00 0.88813239E+03</pdfrwt>
<pdfrwt beam="2">  1       -2 0.10021080E+00 0.88813239E+03</pdfrwt>
<totfact> 0.92446654E+00</totfact>
</mgrwt>
</event>
<event>
12    1  0.3203156E-008  0.1028927E+04  0.7818608E-02  0.9277375E-01
          1   -1    0    0  501    0  0.00000000000E+00  0.00000000000E+00  0.15599801989E+04  0.15599801989E+04  0.00000000000E+00 0. -1.
         -1   -1    0    0    0  501 -0.00000000000E+00 -0.00000000000E+00 -0.11807052608E+04  0.11807052608E+04  0.00000000000E+00 0.  1.
         23    2    1    2    0    0 -0.40043036835E+03 -0.93442197887E+03  0.98069748804E+03  0.14155431539E+04  0.92227669372E+02 0.  0.
    5000000    2    1    2    0    0  0.40043036835E+03  0.93442197887E+03 -0.60142254995E+03  0.13251423059E+04  0.60066973676E+03 0.  0.
         23    2    4    4    0    0  0.32909902355E+03  0.73417977261E+03 -0.16036924223E+03  0.82515608231E+03  0.88533386437E+02 0.  0.
         23    2    4    4    0    0  0.71331344795E+02  0.20024220626E+03 -0.44105330772E+03  0.49998622354E+03  0.10135630989E+03 0.  0.
          5    1    3    3  502    0 -0.18482876100E+03 -0.32161134777E+03  0.36873002791E+03  0.52304823238E+03  0.47000000000E+01 0. -1.
         -5    1    3    3    0  502 -0.21560160734E+03 -0.61281063110E+03  0.61196746013E+03  0.89249492152E+03  0.47000000000E+01 0.  1.
         11    1    5    5    0    0  0.28732305888E+03  0.59412717412E+03 -0.15970256611E+03  0.67900408601E+03  0.00000000000E+00 0. -1.
        -11    1    5    5    0    0  0.41775964673E+02  0.14005259849E+03 -0.66667612706E+00  0.14615199631E+03  0.00000000000E+00 0.  1.
          4    1    6    6  503    0  0.70865760175E+02  0.65849713070E+02 -0.13862556910E+03  0.16904197433E+03  0.00000000000E+00 0. -1.
         -4    1    6    6    0  503  0.46558461955E+00  0.13439249319E+03 -0.30242773862E+03  0.33094424921E+03  0.00000000000E+00 0.  1.
<mgrwt>
<rscale>  0 0.10289270E+04</rscale>
<asrwt>0</asrwt>
<pdfrwt beam="1">  1        1 0.23999695E+00 0.10289270E+04</pdfrwt>
<pdfrwt beam="2">  1       -1 0.18164696E+00 0.10289270E+04</pdfrwt>
<totfact> 0.12072612E+00</totfact>
</mgrwt>
</event>
<event>
12    1  0.3203156E-008  0.6488560E+03  0.7818608E-02  0.9808928E-01
          2   -1    0    0  501    0  0.00000000000E+00  0.00000000000E+00  0.34418194565E+04  0.34418194565E+04  0.00000000000E+00 0. -1.
         -2   -1    0    0    0  501 -0.00000000000E+00 -0.00000000000E+00 -0.25666154546E+03  0.25666154546E+03  0.00000000000E+00 0.  1.
         23    2    1    2    0    0 -0.35790370846E+03 -0.49938849227E+03  0.30283855348E+03  0.69094995914E+03  0.90646157207E+02 0.  0.
    5000000    2    1    2    0    0  0.35790370846E+03  0.49938849227E+03  0.28823193576E+04  0.30075310428E+04  0.59999513655E+03 0.  0.
         23    2    4    4    0    0 -0.59286547637E+01  0.22033442021E+02  0.41551004817E+02  0.10271840022E+03  0.91126078750E+02 0.  0.
         23    2    4    4    0    0  0.36383236322E+03  0.47735505025E+03  0.28407683527E+04  0.29048126426E+04  0.87919407349E+02 0.  0.
          5    1    3    3  502    0 -0.23206973334E+03 -0.34079801813E+03  0.24793084872E+03  0.48113557968E+03  0.47000000000E+01 0. -1.
         -5    1    3    3    0  502 -0.12583397512E+03 -0.15859047414E+03  0.54907704767E+02  0.20981437945E+03  0.47000000000E+01 0.  1.
         13    1    5    5    0    0  0.26391361683E+02  0.36545745934E+02 -0.37203178729E+01  0.45232027176E+02  0.00000000000E+00 0.  1.
        -13    1    5    5    0    0 -0.32320016446E+02 -0.14512303913E+02  0.45271322690E+02  0.57486373047E+02  0.00000000000E+00 0. -1.
          1    1    6    6  503    0  0.33455448919E+02  0.72277203932E+02  0.50726601122E+03  0.51348034764E+03  0.00000000000E+00 0. -1.
         -1    1    6    6    0  503  0.33037691431E+03  0.40507784631E+03  0.23335023415E+04  0.23913322950E+04  0.00000000000E+00 0.  1.
<mgrwt>
<rscale>  0 0.64885604E+03</rscale>
<asrwt>0</asrwt>
<pdfrwt beam="1">  1        2 0.52951065E+00 0.64885604E+03</pdfrwt>
<pdfrwt beam="2">  1       -2 0.39486394E-01 0.64885604E+03</pdfrwt>
<totfact> 0.59809245E+00</totfact>
</mgrwt>
</event>
<event>
12    1  0.3203156E-008  0.5635142E+03  0.7818608E-02  0.9984134E-01
          1   -1    0    0  501    0  0.00000000000E+00  0.00000000000E+00  0.26079544947E+03  0.26079544947E+03  0.00000000000E+00 0. -1.
         -1   -1    0    0    0  501 -0.00000000000E+00 -0.00000000000E+00 -0.17365606636E+04  0.17365606636E+04  0.00000000000E+00 0.  1.
         23    2    1    2    0    0  0.49061468721E+03  0.13472480493E+03 -0.83841664885E+03  0.98480707317E+03  0.89715940134E+02 0.  0.
    5000000    2    1    2    0    0 -0.49061468721E+03 -0.13472480493E+03 -0.63734856531E+03  0.10125490399E+04  0.60015732955E+03 0.  0.
         23    2    4    4    0    0  0.24996706690E+02 -0.19904227012E+02 -0.42596481319E+03  0.43645818355E+03  0.89603070903E+02 0.  0.
         23    2    4    4    0    0 -0.51561139390E+03 -0.11482057792E+03 -0.21138375212E+03  0.57609085639E+03  0.90325575103E+02 0.  0.
          5    1    3    3  502    0  0.22794125743E+03  0.21641836907E+02 -0.33470506678E+03  0.40555536943E+03  0.47000000000E+01 0. -1.
         -5    1    3    3    0  502  0.26267342978E+03  0.11308296802E+03 -0.50371158207E+03  0.57925170374E+03  0.47000000000E+01 0.  1.
         11    1    5    5    0    0 -0.94740406904E+01 -0.41824953713E+02 -0.11344875266E+03  0.12128356723E+03  0.00000000000E+00 0. -1.
        -11    1    5    5    0    0  0.34470747380E+02  0.21920726701E+02 -0.31251606053E+03  0.31517461632E+03  0.00000000000E+00 0.  1.
          4    1    6    6  503    0 -0.41377679797E+03 -0.93927706091E+02 -0.20684379368E+03  0.47203602351E+03  0.00000000000E+00 0. -1.
         -4    1    6    6    0  503 -0.10183459593E+03 -0.20892871825E+02 -0.45399584384E+01  0.10405483287E+03  0.00000000000E+00 0.  1.
<mgrwt>
<rscale>  0 0.56351424E+03</rscale>
<asrwt>0</asrwt>
<pdfrwt beam="1">  1        1 0.40122376E-01 0.56351424E+03</pdfrwt>
<pdfrwt beam="2">  1       -1 0.26716319E+00 0.56351424E+03</pdfrwt>
<totfact> 0.60737646E+00</totfact>
</mgrwt>
</event>
<event>
12    1  0.3203156E-008  0.5853629E+03  0.7818608E-02  0.9936247E-01
         -2   -1    0    0    0  501 -0.00000000000E+00  0.00000000000E+00  0.44846859406E+03  0.44846859406E+03  0.00000000000E+00 0.  1.
          2   -1    0    0  501    0  0.00000000000E+00 -0.00000000000E+00 -0.10709356874E+04  0.10709356874E+04  0.00000000000E+00 0. -1.
         23    2    1    2    0    0  0.14543947027E+03  0.53249544422E+03 -0.19164787681E+03  0.59729405721E+03  0.12380324896E+03 0.  0.
    5000000    2    1    2    0    0 -0.14543947027E+03 -0.53249544422E+03 -0.43081921653E+03  0.92211022427E+03  0.59998169200E+03 0.  0.
         23    2    4    4    0    0 -0.78904393308E+02 -0.80956260602E+02 -0.43133259164E+03  0.45690999721E+03  0.99695142964E+02 0.  0.
         23    2    4    4    0    0 -0.66535076965E+02 -0.45153918362E+03  0.51337510440E+00  0.46520022706E+03  0.89980202760E+02 0.  0.
          5    1    3    3  502    0 -0.20275969191E+02  0.50448380433E+02 -0.31297875365E+02  0.62911056400E+02  0.47000000000E+01 0. -1.
         -5    1    3    3    0  502  0.16571543947E+03  0.48204706379E+03 -0.16035000145E+03  0.53438300081E+03  0.47000000000E+01 0.  1.
         13    1    5    5    0    0  0.13080034602E+02 -0.43179782187E+02 -0.20147620605E+03  0.20646608075E+03  0.00000000000E+00 0. -1.
        -13    1    5    5    0    0 -0.91984427910E+02 -0.37776478415E+02 -0.22985638559E+03  0.25044391646E+03  0.00000000000E+00 0.  1.
          3    1    6    6  503    0 -0.25534179709E+02 -0.36693357007E+03  0.22973632641E+02  0.36853768732E+03  0.00000000000E+00 0. -1.
         -3    1    6    6    0  503 -0.41000897257E+02 -0.84605613553E+02 -0.22460257537E+02  0.96662539741E+02  0.00000000000E+00 0.  1.
<mgrwt>
<rscale>  0 0.58536292E+03</rscale>
<asrwt>0</asrwt>
<pdfrwt beam="1">  1        2 0.16475933E+00 0.58536292E+03</pdfrwt>
<pdfrwt beam="2">  1       -2 0.68995169E-01 0.58536292E+03</pdfrwt>
<totfact> 0.45051850E+01</totfact>
</mgrwt>
</event>
<event>
12    1  0.3203156E-008  0.6221784E+03  0.7818608E-02  0.9860432E-01
          2   -1    0    0  501    0  0.00000000000E+00  0.00000000000E+00  0.28895136178E+04  0.28895136178E+04  0.00000000000E+00 0. -1.
         -2   -1    0    0    0  501 -0.00000000000E+00 -0.00000000000E+00 -0.17371412688E+03  0.17371412688E+03  0.00000000000E+00 0.  1.
         23    2    1    2    0    0  0.55751312822E+03  0.14135630811E+03  0.10207037288E+04  0.11752761946E+04  0.92927594551E+02 0.  0.
    5000000    2    1    2    0    0 -0.55751312822E+03 -0.14135630811E+03  0.16950957622E+04  0.18879515501E+04  0.60017407345E+03 0.  0.
         23    2    4    4    0    0 -0.56414068621E+03 -0.11870816839E+03  0.81188945026E+03  0.10005118071E+04  0.97534883981E+02 0.  0.
         23    2    4    4    0    0  0.66275579953E+01 -0.22648139711E+02  0.88320631195E+03  0.88743974300E+03  0.83300931766E+02 0.  0.
          5    1    3    3  502    0  0.52866776127E+03  0.12846502683E+03  0.99592813086E+03  0.11348514426E+04  0.47000000000E+01 0. -1.
         -5    1    3    3    0  502  0.28845366946E+02  0.12891281272E+02  0.24775597896E+02  0.40424752048E+02  0.47000000000E+01 0.  1.
         13    1    5    5    0    0 -0.11750298896E+03  0.74733827830E+01  0.12703202341E+03  0.17320490419E+03  0.00000000000E+00 0.  1.
        -13    1    5    5    0    0 -0.44663769725E+03 -0.12618155118E+03  0.68485742684E+03  0.82730690289E+03  0.00000000000E+00 0. -1.
          4    1    6    6  503    0  0.15357597008E+02  0.29686561560E+02  0.32108657233E+03  0.32282152136E+03  0.00000000000E+00 0.  1.
         -4    1    6    6    0  503 -0.87300390125E+01 -0.52334701271E+02  0.56211973962E+03  0.56461822164E+03  0.00000000000E+00 0. -1.
<mgrwt>
<rscale>  0 0.62217840E+03</rscale>
<asrwt>0</asrwt>
<pdfrwt beam="1">  1        2 0.44454052E+00 0.62217840E+03</pdfrwt>
<pdfrwt beam="2">  1       -2 0.26725252E-01 0.62217840E+03</pdfrwt>
<totfact> 0.27895660E+01</totfact>
</mgrwt>
</event>
<event>
12    1  0.3203156E-008  0.9042932E+03  0.7818608E-02  0.9420231E-01
         -2   -1    0    0    0  501 -0.00000000000E+00  0.00000000000E+00  0.10795730226E+04  0.10795730226E+04  0.00000000000E+00 0. -1.
          2   -1    0    0  501    0  0.00000000000E+00 -0.00000000000E+00 -0.92184561212E+03  0.92184561212E+03  0.00000000000E+00 0.  1.
         23    2    1    2    0    0 -0.40754408322E+02 -0.84782190112E+03 -0.24225472399E+03  0.88760016431E+03  0.93186922708E+02 0.  0.
    5000000    2    1    2    0    0  0.40754408322E+02  0.84782190112E+03  0.39998213442E+03  0.11138184704E+04  0.60011913755E+03 0.  0.
         23    2    4    4    0    0  0.85774800346E+02  0.16252229912E+02  0.22383359837E+03  0.25717218707E+03  0.91731143513E+02 0.  0.
         23    2    4    4    0    0 -0.45020392023E+02  0.83156967121E+03  0.17614853605E+03  0.85664628330E+03  0.96330650143E+02 0.  0.
          5    1    3    3  502    0 -0.64569260409E+02 -0.41633617911E+03 -0.13305831510E+03  0.44185021064E+03  0.47000000000E+01 0. -1.
         -5    1    3    3    0  502  0.23814852087E+02 -0.43148572202E+03 -0.10919640890E+03  0.44574995367E+03  0.47000000000E+01 0.  1.
         13    1    5    5    0    0 -0.15157184967E+02 -0.98006327253E+01  0.13894022694E+02  0.22777983330E+02  0.00000000000E+00 0.  1.
        -13    1    5    5    0    0  0.10093198531E+03  0.26052862638E+02  0.20993957568E+03  0.23439420374E+03  0.00000000000E+00 0. -1.
          3    1    6    6  503    0 -0.27281461192E+02  0.51725622796E+03  0.15702095420E+03  0.54125212567E+03  0.00000000000E+00 0. -1.
         -3    1    6    6    0  503 -0.17738930831E+02  0.31431344325E+03  0.19127581851E+02  0.31539415763E+03  0.00000000000E+00 0.  1.
<mgrwt>
<rscale>  0 0.90429317E+03</rscale>
<asrwt>0</asrwt>
<pdfrwt beam="1">  1        2 0.14182240E+00 0.90429317E+03</pdfrwt>
<pdfrwt beam="2">  1       -2 0.16608816E+00 0.90429317E+03</pdfrwt>
<totfact> 0.64497713E+00</totfact>
</mgrwt>
</event>
<event>
12    1  0.3203156E-008  0.1637785E+04  0.7818608E-02  0.8797665E-01
          2   -1    0    0  501    0  0.00000000000E+00  0.00000000000E+00  0.17606784193E+04  0.17606784193E+04  0.00000000000E+00 0.  1.
         -2   -1    0    0    0  501 -0.00000000000E+00 -0.00000000000E+00 -0.15983596899E+04  0.15983596899E+04  0.00000000000E+00 0. -1.
         23    2    1    2    0    0 -0.13256946717E+04 -0.87385725490E+03 -0.25688299511E+03  0.16106863057E+04  0.85021396705E+02 0.  0.
    5000000    2    1    2    0    0  0.13256946717E+04  0.87385725490E+03  0.41920172455E+03  0.17483518035E+04  0.59992589417E+03 0.  0.
         23    2    4    4    0    0  0.11546859265E+04  0.93743385943E+03  0.39342598317E+03  0.15408969766E+04  0.86589020573E+02 0.  0.
         23    2    4    4    0    0  0.17100874511E+03 -0.63576604529E+02  0.25775741377E+02  0.20745482689E+03  0.95326495838E+02 0.  0.
          5    1    3    3  502    0 -0.81664604554E+03 -0.51973848609E+03 -0.19519024782E+03  0.98750199010E+03  0.47000000000E+01 0. -1.
         -5    1    3    3    0  502 -0.50904862612E+03 -0.35411876881E+03 -0.61692747291E+02  0.62318431563E+03  0.47000000000E+01 0.  1.
         13    1    5    5    0    0  0.10368963350E+04  0.81424015657E+03  0.36613565334E+03  0.13682822657E+04  0.00000000000E+00 0. -1.
        -13    1    5    5    0    0  0.11778959157E+03  0.12319370286E+03  0.27290329832E+02  0.17261471087E+03  0.00000000000E+00 0.  1.
          4    1    6    6  503    0  0.82071734416E+02 -0.72114320094E+02  0.41245806631E+02  0.11677954152E+03  0.00000000000E+00 0. -1.
         -4    1    6    6    0  503  0.88937010690E+02  0.85377155649E+01 -0.15470065254E+02  0.90675285368E+02  0.00000000000E+00 0.  1.
<mgrwt>
<rscale>  0 0.16377854E+04</rscale>
<asrwt>0</asrwt>
<pdfrwt beam="1">  1        2 0.27087360E+00 0.16377854E+04</pdfrwt>
<pdfrwt beam="2">  1       -2 0.24590149E+00 0.16377854E+04</pdfrwt>
<totfact> 0.57227954E-01</totfact>
</mgrwt>
</event>
<event>
12    1  0.3203156E-008  0.9527722E+03  0.7818608E-02  0.9361916E-01
         -2   -1    0    0    0  501 -0.00000000000E+00  0.00000000000E+00  0.75567286443E+03  0.75567286443E+03  0.00000000000E+00 0. -1.
          2   -1    0    0  501    0  0.00000000000E+00 -0.00000000000E+00 -0.21471662415E+04  0.21471662415E+04  0.00000000000E+00 0.  1.
         23    2    1    2    0    0  0.36598477383E+03  0.86536926817E+03  0.19537615747E+03  0.96352433328E+03  0.86014376338E+02 0.  0.
    5000000    2    1    2    0    0 -0.36598477383E+03 -0.86536926817E+03 -0.15868695345E+04  0.19393147726E+04  0.59998170204E+03 0.  0.
         23    2    4    4    0    0 -0.21282918530E+03 -0.25234557491E+03 -0.16270499244E+03  0.37910374192E+03  0.90951532565E+02 0.  0.
         23    2    4    4    0    0 -0.15315558853E+03 -0.61302369327E+03 -0.14241645421E+04  0.15602110307E+04  0.82213956555E+02 0.  0.
          5    1    3    3  502    0  0.34447688143E+02  0.16477072049E+03  0.36658397050E+02  0.17234257055E+03  0.47000000000E+01 0. -1.
         -5    1    3    3    0  502  0.33153708569E+03  0.70059854768E+03  0.15871776042E+03  0.79118176273E+03  0.47000000000E+01 0.  1.
         13    1    5    5    0    0 -0.14325484729E+02 -0.15293797009E+02  0.11820831807E+02  0.24059339232E+02  0.00000000000E+00 0. -1.
        -13    1    5    5    0    0 -0.19850370057E+03 -0.23705177790E+03 -0.17452582425E+03  0.35504440268E+03  0.00000000000E+00 0.  1.
          2    1    6    6  503    0 -0.75392348133E+02 -0.28745870355E+03 -0.57035664069E+03  0.64313545228E+03  0.00000000000E+00 0.  1.
         -2    1    6    6    0  503 -0.77763240394E+02 -0.32556498971E+03 -0.85380790139E+03  0.91707557843E+03  0.00000000000E+00 0. -1.
<mgrwt>
<rscale>  0 0.95277221E+03</rscale>
<asrwt>0</asrwt>
<pdfrwt beam="1">  1        2 0.33033327E+00 0.95277221E+03</pdfrwt>
<pdfrwt beam="2">  1       -2 0.11625736E+00 0.95277221E+03</pdfrwt>
<totfact> 0.31993550E+00</totfact>
</mgrwt>
</event>
<event>
12    1  0.3203156E-008  0.8150485E+03  0.7818608E-02  0.9538487E-01
         -1   -1    0    0    0  501 -0.00000000000E+00  0.00000000000E+00  0.63660222996E+03  0.63660222996E+03  0.00000000000E+00 0.  1.
          1   -1    0    0  501    0  0.00000000000E+00 -0.00000000000E+00 -0.10784293258E+04  0.10784293258E+04  0.00000000000E+00 0. -1.
         23    2    1    2    0    0  0.63820728819E+03 -0.31075221943E+03 -0.89848698230E+02  0.72115339920E+03  0.90077477893E+02 0.  0.
    5000000    2    1    2    0    0 -0.63820728819E+03  0.31075221943E+03 -0.35197839763E+03  0.99387815658E+03  0.60002459379E+03 0.  0.
         23    2    4    4    0    0 -0.48776505725E+03  0.47263914236E+03 -0.20836845246E+03  0.71622945315E+03  0.90910437286E+02 0.  0.
         23    2    4    4    0    0 -0.15044223094E+03 -0.16188692293E+03 -0.14360994517E+03  0.27764870343E+03  0.87319788711E+02 0.  0.
          5    1    3    3  502    0  0.35005883130E+03 -0.19940148331E+03 -0.87041514595E+02  0.41218982542E+03  0.47000000000E+01 0. -1.
         -5    1    3    3    0  502  0.28814845688E+03 -0.11135073612E+03 -0.28071836351E+01  0.30896357377E+03  0.47000000000E+01 0.  1.
         11    1    5    5    0    0 -0.24335022745E+02  0.55215737611E+02 -0.66068342461E+01  0.60701081297E+02  0.00000000000E+00 0.  1.
        -11    1    5    5    0    0 -0.46343003450E+03  0.41742340475E+03 -0.20176161821E+03  0.65552837185E+03  0.00000000000E+00 0. -1.
          3    1    6    6  503    0 -0.14872669982E+03 -0.11686047437E+03 -0.96059333936E+02  0.21214004182E+03  0.00000000000E+00 0. -1.
         -3    1    6    6    0  503 -0.17155311211E+01 -0.45026448568E+02 -0.47550611235E+02  0.65508661614E+02  0.00000000000E+00 0.  1.
<mgrwt>
<rscale>  0 0.81504854E+03</rscale>
<asrwt>0</asrwt>
<pdfrwt beam="1">  1        1 0.16591220E+00 0.81504854E+03</pdfrwt>
<pdfrwt beam="2">  1       -1 0.97938806E-01 0.81504854E+03</pdfrwt>
<totfact> 0.13465065E+01</totfact>
</mgrwt>
</event>
<event>
12    1  0.3203156E-008  0.9139733E+03  0.7818608E-02  0.9408281E-01
          1   -1    0    0  501    0  0.00000000000E+00  0.00000000000E+00  0.10675541030E+04  0.10675541030E+04  0.00000000000E+00 0. -1.
         -1   -1    0    0    0  501 -0.00000000000E+00 -0.00000000000E+00 -0.83309951771E+03  0.83309951771E+03  0.00000000000E+00 0.  1.
         23    2    1    2    0    0 -0.83114512998E+03 -0.15159921889E+03  0.11942639483E+03  0.85808684226E+03  0.90916526706E+02 0.  0.
    5000000    2    1    2    0    0  0.83114512998E+03  0.15159921889E+03  0.11502819048E+03  0.10425667785E+04  0.59994120771E+03 0.  0.
         23    2    4    4    0    0 -0.20573921467E+02  0.11682637115E+03 -0.70634295660E+02  0.16551215266E+03  0.91287357898E+02 0.  0.
         23    2    4    4    0    0  0.85171905145E+03  0.34772847737E+02  0.18566248614E+03  0.87705462581E+03  0.90109735118E+02 0.  0.
          5    1    3    3  502    0 -0.57095282712E+03 -0.11528756776E+03  0.41277796350E+02  0.58395573509E+03  0.47000000000E+01 0. -1.
         -5    1    3    3    0  502 -0.26019230286E+03 -0.36311651131E+02  0.78148598475E+02  0.27413110717E+03  0.47000000000E+01 0.  1.
         11    1    5    5    0    0 -0.32855828639E+02  0.95048483697E+02 -0.89155836396E+02  0.13439673691E+03  0.00000000000E+00 0. -1.
        -11    1    5    5    0    0  0.12281907172E+02  0.21777887457E+02  0.18521540736E+02  0.31115415747E+02  0.00000000000E+00 0.  1.
          3    1    6    6  503    0  0.79480661169E+03  0.95221111615E+01  0.16966137909E+03  0.81276885037E+03  0.00000000000E+00 0. -1.
         -3    1    6    6    0  503  0.56912439759E+02  0.25250736575E+02  0.16001107057E+02  0.64285775440E+02  0.00000000000E+00 0.  1.
<mgrwt>
<rscale>  0 0.91397327E+03</rscale>
<asrwt>0</asrwt>
<pdfrwt beam="1">  1        1 0.16423909E+00 0.91397327E+03</pdfrwt>
<pdfrwt beam="2">  1       -1 0.12816916E+00 0.91397327E+03</pdfrwt>
<totfact> 0.71415425E+00</totfact>
</mgrwt>
</event>
<event>
12    1  0.3203156E-008  0.1115753E+04  0.7818608E-02  0.9189973E-01
          2   -1    0    0  501    0  0.00000000000E+00  0.00000000000E+00  0.22862898210E+04  0.22862898210E+04  0.00000000000E+00 0. -1.
         -2   -1    0    0    0  501 -0.00000000000E+00 -0.00000000000E+00 -0.85928863187E+03  0.85928863187E+03  0.00000000000E+00 0.  1.
         23    2    1    2    0    0  0.75912050833E+03 -0.78265791392E+03 -0.18461134060E+03  0.11095913198E+04  0.91072463436E+02 0.  0.
    5000000    2    1    2    0    0 -0.75912050833E+03  0.78265791392E+03  0.16116125298E+04  0.20359871331E+04  0.59927564906E+03 0.  0.
         23    2    4    4    0    0 -0.26713228010E+03  0.97007929259E+02  0.12436850498E+03  0.32330140548E+03  0.91027909679E+02 0.  0.
         23    2    4    4    0    0 -0.49198822823E+03  0.68564998466E+03  0.14872440248E+04  0.17126857276E+04  0.96069215056E+02 0.  0.
          5    1    3    3  502    0  0.25921515429E+03 -0.26638562389E+03 -0.19604801759E+02  0.37223679974E+03  0.47000000000E+01 0. -1.
         -5    1    3    3    0  502  0.49990535404E+03 -0.51627229003E+03 -0.16500653884E+03  0.73735452010E+03  0.47000000000E+01 0.  1.
         13    1    5    5    0    0 -0.12880158883E+03  0.11557775031E+02  0.22033312597E+02  0.13118269060E+03  0.00000000000E+00 0. -1.
        -13    1    5    5    0    0 -0.13833069127E+03  0.85450154229E+02  0.10233519239E+03  0.19211871487E+03  0.00000000000E+00 0.  1.
          1    1    6    6  503    0 -0.31139300920E+03  0.35309090741E+03  0.83963218508E+03  0.96261155265E+03  0.00000000000E+00 0. -1.
         -1    1    6    6    0  503 -0.18059521903E+03  0.33255907725E+03  0.64761183970E+03  0.75007417495E+03  0.00000000000E+00 0.  1.
<mgrwt>
<rscale>  0 0.11157527E+04</rscale>
<asrwt>0</asrwt>
<pdfrwt beam="1">  1        2 0.35173689E+00 0.11157527E+04</pdfrwt>
<pdfrwt beam="2">  1       -2 0.13219825E+00 0.11157527E+04</pdfrwt>
<totfact> 0.18964033E+00</totfact>
</mgrwt>
</event>
<event>
12    1  0.3203156E-008  0.5653106E+03  0.7818608E-02  0.9980110E-01
         -1   -1    0    0    0  501 -0.00000000000E+00  0.00000000000E+00  0.28175577497E+03  0.28175577497E+03  0.00000000000E+00 0.  1.
          1   -1    0    0  501    0  0.00000000000E+00 -0.00000000000E+00 -0.11998197818E+04  0.11998197818E+04  0.00000000000E+00 0. -1.
         23    2    1    2    0    0  0.22162591310E+02  0.41824792535E+03 -0.37986956274E+03  0.57322694883E+03  0.94158072654E+02 0.  0.
    5000000    2    1    2    0    0 -0.22162591310E+02 -0.41824792535E+03 -0.53819444411E+03  0.90834860796E+03  0.60001785506E+03 0.  0.
         23    2    4    4    0    0 -0.26669628575E+03 -0.69309355953E+02 -0.16263888653E+03  0.33378600254E+03  0.95031533837E+02 0.  0.
         23    2    4    4    0    0  0.24453369444E+03 -0.34893856940E+03 -0.37555555758E+03  0.57456260542E+03  0.86748820109E+02 0.  0.
          5    1    3    3  502    0 -0.40940189107E+01  0.28381488738E+03 -0.20076963700E+03  0.34770416798E+03  0.47000000000E+01 0. -1.
         -5    1    3    3    0  502  0.26256610220E+02  0.13443303797E+03 -0.17909992575E+03  0.22552278085E+03  0.47000000000E+01 0.  1.
         13    1    5    5    0    0 -0.77242604154E+02  0.39341616149E+00 -0.91509239327E+02  0.11975189165E+03  0.00000000000E+00 0.  1.
        -13    1    5    5    0    0 -0.18945368159E+03 -0.69702772115E+02 -0.71129647204E+02  0.21403411088E+03  0.00000000000E+00 0. -1.
          3    1    6    6  503    0  0.14080977011E+03 -0.25162304045E+03 -0.28804861510E+03  0.40757030130E+03  0.00000000000E+00 0. -1.
         -3    1    6    6    0  503  0.10372392433E+03 -0.97315528955E+02 -0.87506942483E+02  0.16699230412E+03  0.00000000000E+00 0.  1.
<mgrwt>
<rscale>  0 0.56531062E+03</rscale>
<asrwt>0</asrwt>
<pdfrwt beam="1">  1        1 0.18458766E+00 0.56531062E+03</pdfrwt>
<pdfrwt beam="2">  1       -1 0.43347043E-01 0.56531062E+03</pdfrwt>
<totfact> 0.58730439E+01</totfact>
</mgrwt>
</event>
<event>
12    1  0.3203156E-008  0.4446822E+03  0.7818608E-02  0.1029320E+00
         -2   -1    0    0    0  501 -0.00000000000E+00  0.00000000000E+00  0.43340681347E+03  0.43340681347E+03  0.00000000000E+00 0.  1.
          2   -1    0    0  501    0  0.00000000000E+00 -0.00000000000E+00 -0.10314066514E+04  0.10314066514E+04  0.00000000000E+00 0. -1.
         23    2    1    2    0    0 -0.40499919533E+03  0.11632202044E+03  0.11013877628E+03  0.44558770588E+03  0.94141876605E+02 0.  0.
    5000000    2    1    2    0    0  0.40499919533E+03 -0.11632202044E+03 -0.70813861422E+03  0.10192257590E+04  0.59983805332E+03 0.  0.
         23    2    4    4    0    0  0.91231678496E+02  0.47241448431E+01  0.83859822402E+02  0.15374691176E+03  0.90885127265E+02 0.  0.
         23    2    4    4    0    0  0.31376751684E+03 -0.12104616528E+03 -0.79199843662E+03  0.86547884724E+03  0.93219540105E+02 0.  0.
          5    1    3    3  502    0 -0.20900699707E+03  0.10784284563E+03  0.68217464349E+02  0.24492798252E+03  0.47000000000E+01 0. -1.
         -5    1    3    3    0  502 -0.19599219826E+03  0.84791748053E+01  0.41921311931E+02  0.20065972336E+03  0.47000000000E+01 0.  1.
         11    1    5    5    0    0  0.93245714018E+02  0.28198942732E+02  0.42792459236E+02  0.10640083703E+03  0.00000000000E+00 0. -1.
        -11    1    5    5    0    0 -0.20140355217E+01 -0.23474797889E+02  0.41067363166E+02  0.47346074731E+02  0.00000000000E+00 0.  1.
          3    1    6    6  503    0  0.23506590040E+03 -0.99995301934E+02 -0.68438889966E+03  0.73050886642E+03  0.00000000000E+00 0. -1.
         -3    1    6    6    0  503  0.78701616437E+02 -0.21050863345E+02 -0.10760953696E+03  0.13496998082E+03  0.00000000000E+00 0.  1.
<mgrwt>
<rscale>  0 0.44468220E+03</rscale>
<asrwt>0</asrwt>
<pdfrwt beam="1">  1        2 0.15867795E+00 0.44468220E+03</pdfrwt>
<pdfrwt beam="2">  1       -2 0.66677972E-01 0.44468220E+03</pdfrwt>
<totfact> 0.52248462E+01</totfact>
</mgrwt>
</event>
<event>
12    1  0.3203156E-008  0.7373789E+03  0.7818608E-02  0.9655362E-01
          2   -1    0    0  501    0  0.00000000000E+00  0.00000000000E+00  0.58340600977E+03  0.58340600977E+03  0.00000000000E+00 0. -1.
         -2   -1    0    0    0  501 -0.00000000000E+00 -0.00000000000E+00 -0.12980315481E+04  0.12980315481E+04  0.00000000000E+00 0.  1.
         23    2    1    2    0    0 -0.34261098169E+03  0.60993520205E+03  0.17453341073E+02  0.70462402631E+03  0.82384245243E+02 0.  0.
    5000000    2    1    2    0    0  0.34261098169E+03 -0.60993520205E+03 -0.73207887943E+03  0.11768135316E+04  0.59962268714E+03 0.  0.
         23    2    4    4    0    0  0.26746648378E+03 -0.18157549828E+03 -0.20798042560E+02  0.33812762299E+03  0.96900718976E+02 0.  0.
         23    2    4    4    0    0  0.75144497916E+02 -0.42835970377E+03 -0.71128083687E+03  0.83868590859E+03  0.91295635090E+02 0.  0.
          5    1    3    3  502    0 -0.87753192584E+02  0.17347417616E+03  0.40578927864E+02  0.19865208780E+03  0.47000000000E+01 0. -1.
         -5    1    3    3    0  502 -0.25485778911E+03  0.43646102589E+03 -0.23125586791E+02  0.50597193851E+03  0.47000000000E+01 0.  1.
         11    1    5    5    0    0  0.19377404678E+02  0.11954869026E+02 -0.31698529865E+01  0.22988055016E+02  0.00000000000E+00 0. -1.
        -11    1    5    5    0    0  0.24808907910E+03 -0.19353036730E+03 -0.17628189573E+02  0.31513956798E+03  0.00000000000E+00 0.  1.
          2    1    6    6  503    0  0.91081790901E+01 -0.18654509983E+03 -0.37837069994E+03  0.42195547132E+03  0.00000000000E+00 0. -1.
         -2    1    6    6    0  503  0.66036318826E+02 -0.24181460394E+03 -0.33291013693E+03  0.41673043728E+03  0.00000000000E+00 0.  1.
<mgrwt>
<rscale>  0 0.73737889E+03</rscale>
<asrwt>0</asrwt>
<pdfrwt beam="1">  1        2 0.89754772E-01 0.73737889E+03</pdfrwt>
<pdfrwt beam="2">  1       -2 0.19969716E+00 0.73737889E+03</pdfrwt>
<totfact> 0.70022510E+00</totfact>
</mgrwt>
</event>
<event>
12    1  0.3203156E-008  0.8078542E+03  0.7818608E-02  0.9548718E-01
          1   -1    0    0  501    0  0.00000000000E+00  0.00000000000E+00  0.14440204528E+04  0.14440204528E+04  0.00000000000E+00 0. -1.
         -1   -1    0    0    0  501 -0.00000000000E+00 -0.00000000000E+00 -0.56912543249E+03  0.56912543249E+03  0.00000000000E+00 0.  1.
         23    2    1    2    0    0 -0.78691943763E+03  0.16213315651E+03  0.43742418511E+03  0.91917571501E+03  0.89524943972E+02 0.  0.
    5000000    2    1    2    0    0  0.78691943763E+03 -0.16213315651E+03  0.43747083520E+03  0.10939701703E+04  0.59988385545E+03 0.  0.
         23    2    4    4    0    0  0.52055897674E+03 -0.90576245081E+02  0.56341378114E+03  0.77738511059E+03  0.87788478437E+02 0.  0.
         23    2    4    4    0    0  0.26636046089E+03 -0.71556911433E+02 -0.12594294594E+03  0.31658505968E+03  0.91083410586E+02 0.  0.
          5    1    3    3  502    0 -0.53681237913E+03  0.93976548609E+02  0.25208763783E+03  0.60047430355E+03  0.47000000000E+01 0. -1.
         -5    1    3    3    0  502 -0.25010705850E+03  0.68156607905E+02  0.18533654728E+03  0.31870141147E+03  0.47000000000E+01 0.  1.
         11    1    5    5    0    0  0.21073938737E+03 -0.79034399705E+02  0.25391791065E+03  0.33931081780E+03  0.00000000000E+00 0. -1.
        -11    1    5    5    0    0  0.30981958937E+03 -0.11541845376E+02  0.30949587049E+03  0.43807429279E+03  0.00000000000E+00 0.  1.
          3    1    6    6  503    0  0.20713647306E+03 -0.62937782898E+02 -0.54222704717E+02  0.22317433700E+03  0.00000000000E+00 0. -1.
         -3    1    6    6    0  503  0.59223987822E+02 -0.86191285353E+01 -0.71720241224E+02  0.93410722680E+02  0.00000000000E+00 0.  1.
<mgrwt>
<rscale>  0 0.80785418E+03</rscale>
<asrwt>0</asrwt>
<pdfrwt beam="1">  1        1 0.22215699E+00 0.80785418E+03</pdfrwt>
<pdfrwt beam="2">  1       -1 0.87557759E-01 0.80785418E+03</pdfrwt>
<totfact> 0.94531654E+00</totfact>
</mgrwt>
</event>
<event>
12    1  0.3203156E-008  0.6072603E+03  0.7818608E-02  0.9890457E-01
         -2   -1    0    0    0  501 -0.00000000000E+00  0.00000000000E+00  0.23192695100E+03  0.23192695100E+03  0.00000000000E+00 0. -1.
          2   -1    0    0  501    0  0.00000000000E+00 -0.00000000000E+00 -0.22734079732E+04  0.22734079732E+04  0.00000000000E+00 0.  1.
         23    2    1    2    0    0 -0.52817846392E+03  0.25651512446E+03 -0.10457107556E+04  0.12027686787E+04  0.91482299882E+02 0.  0.
    5000000    2    1    2    0    0  0.52817846392E+03 -0.25651512446E+03 -0.99577026659E+03  0.13025662455E+04  0.60028984776E+03 0.  0.
         23    2    4    4    0    0  0.17027027970E+03 -0.14955037573E+03 -0.86214835164E+03  0.89615365500E+03  0.91838500118E+02 0.  0.
         23    2    4    4    0    0  0.35790818423E+03 -0.10696474873E+03 -0.13362191495E+03  0.40641259052E+03  0.88185326304E+02 0.  0.
          5    1    3    3  502    0 -0.32408595442E+03  0.16551544964E+03 -0.55677157227E+03  0.66516444855E+03  0.47000000000E+01 0. -1.
         -5    1    3    3    0  502 -0.20409250950E+03  0.90999674816E+02 -0.48893918337E+03  0.53760423016E+03  0.47000000000E+01 0.  1.
         11    1    5    5    0    0  0.17093670090E+03 -0.10718887322E+03 -0.69239053893E+03  0.72118892716E+03  0.00000000000E+00 0. -1.
        -11    1    5    5    0    0 -0.66642120245E+00 -0.42361502516E+02 -0.16975781270E+03  0.17496472783E+03  0.00000000000E+00 0.  1.
          3    1    6    6  503    0  0.51237671426E+02 -0.48894742623E+02 -0.14243426099E+02  0.72241747047E+02  0.00000000000E+00 0. -1.
         -3    1    6    6    0  503  0.30667051280E+03 -0.58070006103E+02 -0.11937848885E+03  0.33417084348E+03  0.00000000000E+00 0.  1.
<mgrwt>
<rscale>  0 0.60726026E+03</rscale>
<asrwt>0</asrwt>
<pdfrwt beam="1">  1        2 0.34975507E+00 0.60726026E+03</pdfrwt>
<pdfrwt beam="2">  1       -2 0.35681070E-01 0.60726026E+03</pdfrwt>
<totfact> 0.36717429E+01</totfact>
</mgrwt>
</event>
<event>
12    1  0.3203156E-008  0.6998155E+03  0.7818608E-02  0.9717548E-01
         -2   -1    0    0    0  501 -0.00000000000E+00  0.00000000000E+00  0.65126304368E+03  0.65126304368E+03  0.00000000000E+00 0.  1.
          2   -1    0    0  501    0  0.00000000000E+00 -0.00000000000E+00 -0.95814926883E+03  0.95814926883E+03  0.00000000000E+00 0. -1.
         23    2    1    2    0    0  0.31725278033E+03 -0.50943786783E+03 -0.44197900984E+03  0.75012582468E+03  0.84658371679E+02 0.  0.
    5000000    2    1    2    0    0 -0.31725278033E+03  0.50943786783E+03  0.13509278469E+03  0.85928648784E+03  0.59995578161E+03 0.  0.
         23    2    4    4    0    0 -0.15655596626E+03 -0.71960967050E+02  0.15488000990E+03  0.24918239969E+03  0.91738211760E+02 0.  0.
         23    2    4    4    0    0 -0.16069681407E+03  0.58139883488E+03 -0.19787225210E+02  0.61010408815E+03  0.89372215114E+02 0.  0.
          5    1    3    3  502    0  0.23592147546E+03 -0.42951689175E+03 -0.38089714179E+03  0.62068383699E+03  0.47000000000E+01 0. -1.
         -5    1    3    3    0  502  0.81331304874E+02 -0.79920976085E+02 -0.61081868047E+02  0.12944198768E+03  0.47000000000E+01 0.  1.
         13    1    5    5    0    0 -0.75121621955E+02  0.88225887881E+01  0.89391701190E+02  0.11709813150E+03  0.00000000000E+00 0. -1.
        -13    1    5    5    0    0 -0.81434344307E+02 -0.80783555838E+02  0.65488308713E+02  0.13208426819E+03  0.00000000000E+00 0.  1.
          4    1    6    6  503    0 -0.95998382181E+02  0.25782250446E+03 -0.46607805562E+02  0.27903480200E+03  0.00000000000E+00 0.  1.
         -4    1    6    6    0  503 -0.64698431887E+02  0.32357633042E+03  0.26820580351E+02  0.33106928614E+03  0.00000000000E+00 0. -1.
<mgrwt>
<rscale>  0 0.69981550E+03</rscale>
<asrwt>0</asrwt>
<pdfrwt beam="1">  1        2 0.14740758E+00 0.69981550E+03</pdfrwt>
<pdfrwt beam="2">  1       -2 0.10019431E+00 0.69981550E+03</pdfrwt>
<totfact> 0.22518246E+01</totfact>
</mgrwt>
</event>
<event>
12    1  0.3203156E-008  0.6528917E+03  0.7818608E-02  0.9801368E-01
          2   -1    0    0  501    0  0.00000000000E+00  0.00000000000E+00  0.26676023449E+04  0.26676023449E+04  0.00000000000E+00 0. -1.
         -2   -1    0    0    0  501 -0.00000000000E+00 -0.00000000000E+00 -0.18717414605E+03  0.18717414605E+03  0.00000000000E+00 0.  1.
         23    2    1    2    0    0  0.42097416226E+03 -0.30309146111E+03  0.52006372350E+03  0.74019462116E+03  0.91313315648E+02 0.  0.
    5000000    2    1    2    0    0 -0.42097416226E+03  0.30309146111E+03  0.19603644754E+04  0.21145818698E+04  0.59945302462E+03 0.  0.
         23    2    4    4    0    0  0.98040506403E+02  0.20787950012E+03  0.79057405791E+03  0.82817139969E+03  0.89636481155E+02 0.  0.
         23    2    4    4    0    0 -0.51901466866E+03  0.95211960985E+02  0.11697904175E+04  0.12864104701E+04  0.89446816851E+02 0.  0.
          5    1    3    3  502    0  0.34960062311E+03 -0.28356485827E+03  0.46951031490E+03  0.65045495641E+03  0.47000000000E+01 0. -1.
         -5    1    3    3    0  502  0.71373539142E+02 -0.19526602837E+02  0.50553408601E+02  0.89739664749E+02  0.47000000000E+01 0.  1.
         13    1    5    5    0    0  0.71019838992E+02  0.20748637200E+03  0.68868635009E+03  0.72276088777E+03  0.00000000000E+00 0.  1.
        -13    1    5    5    0    0  0.27020667411E+02  0.39312812257E+00  0.10188770783E+03  0.10541051192E+03  0.00000000000E+00 0. -1.
          4    1    6    6  503    0 -0.57916255423E+02 -0.17432650038E+02  0.12613158008E+03  0.13988339939E+03  0.00000000000E+00 0. -1.
         -4    1    6    6    0  503 -0.46109841324E+03  0.11264461102E+03  0.10436588374E+04  0.11465270707E+04  0.00000000000E+00 0.  1.
<mgrwt>
<rscale>  0 0.65289166E+03</rscale>
<asrwt>0</asrwt>
<pdfrwt beam="1">  1        2 0.41040033E+00 0.65289166E+03</pdfrwt>
<pdfrwt beam="2">  1       -2 0.28796024E-01 0.65289166E+03</pdfrwt>
<totfact> 0.32660774E+01</totfact>
</mgrwt>
</event>
<event>
12    1  0.3203156E-008  0.1070900E+04  0.7818608E-02  0.9234029E-01
         -2   -1    0    0    0  501 -0.00000000000E+00  0.00000000000E+00  0.56476644000E+03  0.56476644000E+03  0.00000000000E+00 0.  1.
          2   -1    0    0  501    0  0.00000000000E+00 -0.00000000000E+00 -0.21771217986E+04  0.21771217986E+04  0.00000000000E+00 0. -1.
         23    2    1    2    0    0 -0.99190893702E+03 -0.62764164325E+01 -0.42751865414E+03  0.10843003332E+04  0.94933029780E+02 0.  0.
    5000000    2    1    2    0    0  0.99190893702E+03  0.62764164325E+01 -0.11848367045E+04  0.16575879055E+04  0.59986408067E+03 0.  0.
         23    2    4    4    0    0  0.47422357821E+03  0.28020738754E+03 -0.47783701674E+03  0.73465134210E+03  0.89331952422E+02 0.  0.
         23    2    4    4    0    0  0.51768535881E+03 -0.27393097111E+03 -0.70699968775E+03  0.92293656336E+03  0.94482981749E+02 0.  0.
          5    1    3    3  502    0 -0.46058245332E+03 -0.20875196979E+02 -0.15130526651E+03  0.48527038219E+03  0.47000000000E+01 0. -1.
         -5    1    3    3    0  502 -0.53132648370E+03  0.14598780546E+02 -0.27621338763E+03  0.59902995099E+03  0.47000000000E+01 0.  1.
         13    1    5    5    0    0  0.44313609694E+03  0.23310628350E+03 -0.41639351532E+03  0.65122323317E+03  0.00000000000E+00 0. -1.
        -13    1    5    5    0    0  0.31087481273E+02  0.47101104043E+02 -0.61443501422E+02  0.83428108938E+02  0.00000000000E+00 0.  1.
          2    1    6    6  503    0  0.21259749165E+03 -0.65199215379E+02 -0.23708214740E+03  0.32504857446E+03  0.00000000000E+00 0. -1.
         -2    1    6    6    0  503  0.30508786717E+03 -0.20873175573E+03 -0.46991754035E+03  0.59788798890E+03  0.00000000000E+00 0.  1.
<mgrwt>
<rscale>  0 0.10708996E+04</rscale>
<asrwt>0</asrwt>
<pdfrwt beam="1">  1        2 0.33494181E+00 0.10708996E+04</pdfrwt>
<pdfrwt beam="2">  1       -2 0.86887145E-01 0.10708996E+04</pdfrwt>
<totfact> 0.60692609E+00</totfact>
</mgrwt>
</event>
<event>
12    1  0.3203156E-008  0.8397937E+03  0.7818608E-02  0.9504139E-01
         -2   -1    0    0    0  501 -0.00000000000E+00  0.00000000000E+00  0.19459921186E+04  0.19459921186E+04  0.00000000000E+00 0.  1.
          2   -1    0    0  501    0  0.00000000000E+00 -0.00000000000E+00 -0.68293706470E+03  0.68293706470E+03  0.00000000000E+00 0. -1.
         23    2    1    2    0    0  0.52913611382E+03  0.53082584881E+03  0.14648219239E+04  0.16479349254E+04  0.90692562431E+02 0.  0.
    5000000    2    1    2    0    0 -0.52913611382E+03 -0.53082584881E+03 -0.20176686992E+03  0.98099425798E+03  0.59989895457E+03 0.  0.
         23    2    4    4    0    0  0.18999255386E+02 -0.32713872827E+03  0.38950150087E+02  0.34230978036E+03  0.90984351943E+02 0.  0.
         23    2    4    4    0    0 -0.54813536920E+03 -0.20368712055E+03 -0.24071702001E+03  0.63868447763E+03  0.89623390896E+02 0.  0.
          5    1    3    3  502    0  0.14955241855E+03  0.10020670043E+03  0.31752748004E+03  0.36503849015E+03  0.47000000000E+01 0. -1.
         -5    1    3    3    0  502  0.37958369526E+03  0.43061914838E+03  0.11472944438E+04  0.12828964352E+04  0.47000000000E+01 0.  1.
         13    1    5    5    0    0  0.42590395205E+02 -0.13670446413E+03 -0.12244770504E+02  0.14370799101E+03  0.00000000000E+00 0. -1.
        -13    1    5    5    0    0 -0.23591139819E+02 -0.19043426414E+03  0.51194920591E+02  0.19860178934E+03  0.00000000000E+00 0.  1.
          1    1    6    6  503    0 -0.30279037369E+03 -0.15534044027E+03 -0.15885412616E+03  0.37556263949E+03  0.00000000000E+00 0. -1.
         -1    1    6    6    0  503 -0.24534499551E+03 -0.48346680275E+02 -0.81862893850E+02  0.26312183814E+03  0.00000000000E+00 0.  1.
<mgrwt>
<rscale>  0 0.83979366E+03</rscale>
<asrwt>0</asrwt>
<pdfrwt beam="1">  1        2 0.10506724E+00 0.83979366E+03</pdfrwt>
<pdfrwt beam="2">  1       -2 0.29938340E+00 0.83979366E+03</pdfrwt>
<totfact> 0.13929351E+00</totfact>
</mgrwt>
</event>
<event>
12    1  0.3203156E-008  0.9997461E+03  0.7818608E-02  0.9308823E-01
         -1   -1    0    0    0  501 -0.00000000000E+00  0.00000000000E+00  0.48943467215E+03  0.48943467215E+03  0.00000000000E+00 0.  1.
          1   -1    0    0  501    0  0.00000000000E+00 -0.00000000000E+00 -0.22383552342E+04  0.22383552342E+04  0.00000000000E+00 0. -1.
         23    2    1    2    0    0  0.74693077867E+02 -0.93855377995E+03 -0.10381042738E+04  0.14044498469E+04  0.91414634927E+02 0.  0.
    5000000    2    1    2    0    0 -0.74693077867E+02  0.93855377995E+03 -0.71081628833E+03  0.13233400595E+04  0.59958891215E+03 0.  0.
         23    2    4    4    0    0 -0.46378810044E+02  0.96097900402E+03 -0.74540923537E+03  0.12206394808E+04  0.93242552545E+02 0.  0.
         23    2    4    4    0    0 -0.28314267823E+02 -0.22425224066E+02  0.34592947045E+02  0.10270057875E+03  0.89700325822E+02 0.  0.
          5    1    3    3  502    0  0.40317723463E+02 -0.28267153755E+03 -0.25999864237E+03  0.38619956111E+03  0.47000000000E+01 0. -1.
         -5    1    3    3    0  502  0.34375354404E+02 -0.65588224240E+03 -0.77810563139E+03  0.10182502858E+04  0.47000000000E+01 0.  1.
         11    1    5    5    0    0 -0.16291373260E+01  0.78374248700E+03 -0.59896433734E+03  0.98641432340E+03  0.00000000000E+00 0. -1.
        -11    1    5    5    0    0 -0.44749672718E+02  0.17723651702E+03 -0.14644489804E+03  0.23422515735E+03  0.00000000000E+00 0.  1.
          1    1    6    6  503    0  0.21848368267E+02  0.16257846068E+02 -0.54312555156E+01  0.27769899013E+02  0.00000000000E+00 0. -1.
         -1    1    6    6    0  503 -0.50162636090E+02 -0.38683070134E+02  0.40024202561E+02  0.74930679732E+02  0.00000000000E+00 0.  1.
<mgrwt>
<rscale>  0 0.99974613E+03</rscale>
<asrwt>0</asrwt>
<pdfrwt beam="1">  1        1 0.34436235E+00 0.99974613E+03</pdfrwt>
<pdfrwt beam="2">  1       -1 0.75297641E-01 0.99974613E+03</pdfrwt>
<totfact> 0.36904541E+00</totfact>
</mgrwt>
</event>
<event>
12    1  0.3203156E-008  0.7843852E+03  0.7818608E-02  0.9582898E-01
         -2   -1    0    0    0  501 -0.00000000000E+00  0.00000000000E+00  0.59424090610E+03  0.59424090610E+03  0.00000000000E+00 0.  1.
          2   -1    0    0  501    0  0.00000000000E+00 -0.00000000000E+00 -0.12235696453E+04  0.12235696453E+04  0.00000000000E+00 0. -1.
         23    2    1    2    0    0 -0.17121862343E+03  0.68085364438E+03 -0.53901486358E+03  0.88988240197E+03  0.92066085503E+02 0.  0.
    5000000    2    1    2    0    0  0.17121862343E+03 -0.68085364438E+03 -0.90313875572E+02  0.92792814939E+03  0.60001379337E+03 0.  0.
         23    2    4    4    0    0 -0.24280672856E+02 -0.66016307433E+03  0.50987085110E+02  0.66926368018E+03  0.94389379601E+02 0.  0.
         23    2    4    4    0    0  0.19549929628E+03 -0.20690570052E+02 -0.14130096068E+03  0.25866446921E+03  0.91067401439E+02 0.  0.
          5    1    3    3  502    0 -0.63845443862E+02  0.23017848818E+03 -0.23886447970E+03  0.33784124494E+03  0.47000000000E+01 0. -1.
         -5    1    3    3    0  502 -0.10737317956E+03  0.45067515621E+03 -0.30015038388E+03  0.55204115703E+03  0.47000000000E+01 0.  1.
         13    1    5    5    0    0 -0.15836443272E+02 -0.10088129412E+03  0.40399979213E+02  0.10981797102E+03  0.00000000000E+00 0.  1.
        -13    1    5    5    0    0 -0.84442295847E+01 -0.55928178021E+03  0.10587105897E+02  0.55944570916E+03  0.00000000000E+00 0. -1.
          3    1    6    6  503    0  0.13193584347E+03 -0.41315935482E+02 -0.13208119550E+03  0.19120542754E+03  0.00000000000E+00 0. -1.
         -3    1    6    6    0  503  0.63563452809E+02  0.20625365429E+02 -0.92197651820E+01  0.67459041664E+02  0.00000000000E+00 0.  1.
<mgrwt>
<rscale>  0 0.78438520E+03</rscale>
<asrwt>0</asrwt>
<pdfrwt beam="1">  1        2 0.18824148E+00 0.78438520E+03</pdfrwt>
<pdfrwt beam="2">  1       -2 0.91421680E-01 0.78438520E+03</pdfrwt>
<totfact> 0.18980851E+01</totfact>
</mgrwt>
</event>
<event>
12    1  0.3203156E-008  0.9014694E+03  0.7818608E-02  0.9423746E-01
          2   -1    0    0  501    0  0.00000000000E+00  0.00000000000E+00  0.17810517100E+04  0.17810517100E+04  0.00000000000E+00 0. -1.
         -2   -1    0    0    0  501 -0.00000000000E+00 -0.00000000000E+00 -0.46398119121E+03  0.46398119121E+03  0.00000000000E+00 0.  1.
         23    2    1    2    0    0  0.53889157871E+03  0.59918405567E+03  0.64337084194E+03  0.10351344091E+04  0.90285870969E+02 0.  0.
    5000000    2    1    2    0    0 -0.53889157871E+03 -0.59918405567E+03  0.67369967686E+03  0.12098984921E+04  0.60046435399E+03 0.  0.
         23    2    4    4    0    0 -0.10892712750E+03 -0.53425456581E+03  0.29433191140E+03  0.62631834152E+03  0.91380143692E+02 0.  0.
         23    2    4    4    0    0 -0.42996445121E+03 -0.64929489862E+02  0.37936776546E+03  0.58358015059E+03  0.86951841430E+02 0.  0.
          5    1    3    3  502    0  0.37446282739E+03  0.35583132401E+03  0.42904253041E+03  0.67151911599E+03  0.47000000000E+01 0. -1.
         -5    1    3    3    0  502  0.16442875132E+03  0.24335273166E+03  0.21432831154E+03  0.36361529312E+03  0.47000000000E+01 0.  1.
         11    1    5    5    0    0 -0.11597095295E+03 -0.37620248008E+03  0.22650644322E+03  0.45418359368E+03  0.00000000000E+00 0. -1.
        -11    1    5    5    0    0  0.70438254487E+01 -0.15805208573E+03  0.67825468177E+02  0.17213474784E+03  0.00000000000E+00 0.  1.
          4    1    6    6  503    0 -0.37070724160E+03 -0.29920539409E+02  0.34204344728E+03  0.50528488745E+03  0.00000000000E+00 0. -1.
         -4    1    6    6    0  503 -0.59257209609E+02 -0.35008950452E+02  0.37324318182E+02  0.78295263140E+02  0.00000000000E+00 0.  1.
<mgrwt>
<rscale>  0 0.90146941E+03</rscale>
<asrwt>0</asrwt>
<pdfrwt beam="1">  1        2 0.27400795E+00 0.90146941E+03</pdfrwt>
<pdfrwt beam="2">  1       -2 0.71381723E-01 0.90146941E+03</pdfrwt>
<totfact> 0.15913807E+01</totfact>
</mgrwt>
</event>
<event>
12    1  0.3203156E-008  0.7509066E+03  0.7818608E-02  0.9633929E-01
         -2   -1    0    0    0  501 -0.00000000000E+00  0.00000000000E+00  0.15503602433E+04  0.15503602433E+04  0.00000000000E+00 0.  1.
          2   -1    0    0  501    0  0.00000000000E+00 -0.00000000000E+00 -0.45672057227E+03  0.45672057227E+03  0.00000000000E+00 0. -1.
         23    2    1    2    0    0  0.29454876574E+03  0.64478657323E+03  0.69383711360E+03  0.99598911134E+03  0.89864727721E+02 0.  0.
    5000000    2    1    2    0    0 -0.29454876574E+03 -0.64478657323E+03  0.39980255741E+03  0.10110917042E+04  0.59996303970E+03 0.  0.
         23    2    4    4    0    0 -0.20137741202E+03 -0.62359255688E+03  0.81450323272E+02  0.66654697704E+03  0.90720330490E+02 0.  0.
         23    2    4    4    0    0 -0.93171353723E+02 -0.21194016345E+02  0.31835223414E+03  0.34454472718E+03  0.90734979815E+02 0.  0.
          5    1    3    3  502    0  0.50181354674E+02  0.16359459348E+03  0.21205926249E+03  0.27252996199E+03  0.47000000000E+01 0. -1.
         -5    1    3    3    0  502  0.24436741107E+03  0.48119197974E+03  0.48177785111E+03  0.72345914935E+03  0.47000000000E+01 0.  1.
         11    1    5    5    0    0 -0.69703156585E+02 -0.12132942602E+03 -0.57258620594E+01  0.14004336883E+03  0.00000000000E+00 0. -1.
        -11    1    5    5    0    0 -0.13167425543E+03 -0.50226313086E+03  0.87176185331E+02  0.52650360821E+03  0.00000000000E+00 0.  1.
          4    1    6    6  503    0 -0.18539154124E+02  0.34143420966E+02  0.92271570880E+02  0.10011751207E+03  0.00000000000E+00 0. -1.
         -4    1    6    6    0  503 -0.74632199599E+02 -0.55337437310E+02  0.22608066326E+03  0.24442721511E+03  0.00000000000E+00 0.  1.
<mgrwt>
<rscale>  0 0.75090664E+03</rscale>
<asrwt>0</asrwt>
<pdfrwt beam="1">  1        2 0.70264704E-01 0.75090664E+03</pdfrwt>
<pdfrwt beam="2">  1       -2 0.23851696E+00 0.75090664E+03</pdfrwt>
<totfact> 0.53087938E+00</totfact>
</mgrwt>
</event>
<event>
12    1  0.3203156E-008  0.5687920E+03  0.7818608E-02  0.9972355E-01
         -2   -1    0    0    0  501 -0.00000000000E+00  0.00000000000E+00  0.22579479578E+03  0.22579479578E+03  0.00000000000E+00 0.  1.
          2   -1    0    0  501    0  0.00000000000E+00 -0.00000000000E+00 -0.19258999041E+04  0.19258999041E+04  0.00000000000E+00 0. -1.
         23    2    1    2    0    0 -0.88523357334E+02 -0.50309610867E+03 -0.82265863096E+03  0.97234384630E+03  0.87995755537E+02 0.  0.
    5000000    2    1    2    0    0  0.88523357334E+02  0.50309610867E+03 -0.87744647739E+03  0.11793508536E+04  0.60001169643E+03 0.  0.
         23    2    4    4    0    0  0.14869431632E+03  0.71232903372E+02  0.77474594567E+01  0.18827874540E+03  0.90580001173E+02 0.  0.
         23    2    4    4    0    0 -0.60170958982E+02  0.43186320530E+03 -0.88519393685E+03  0.99107210821E+03  0.92353914016E+02 0.  0.
          5    1    3    3  502    0 -0.10188444670E+03 -0.37026454338E+03 -0.58756122964E+03  0.70194484195E+03  0.47000000000E+01 0. -1.
         -5    1    3    3    0  502  0.13361089367E+02 -0.13283156530E+03 -0.23509740132E+03  0.27039900435E+03  0.47000000000E+01 0.  1.
         13    1    5    5    0    0  0.44325453662E+02 -0.16677133613E+02  0.19709459288E+02  0.51296543873E+02  0.00000000000E+00 0.  1.
        -13    1    5    5    0    0  0.10436886265E+03  0.87910036984E+02 -0.11961999831E+02  0.13698220152E+03  0.00000000000E+00 0. -1.
          1    1    6    6  503    0 -0.30811766505E+02  0.18899571152E+03 -0.28949023197E+03  0.34709269415E+03  0.00000000000E+00 0. -1.
         -1    1    6    6    0  503 -0.29359192477E+02  0.24286749378E+03 -0.59570370488E+03  0.64397941405E+03  0.00000000000E+00 0.  1.
<mgrwt>
<rscale>  0 0.56879203E+03</rscale>
<asrwt>0</asrwt>
<pdfrwt beam="1">  1        2 0.29629230E+00 0.56879203E+03</pdfrwt>
<pdfrwt beam="2">  1       -2 0.34737660E-01 0.56879203E+03</pdfrwt>
<totfact> 0.60082201E+01</totfact>
</mgrwt>
</event>
<event>
12    1  0.3203156E-008  0.7958366E+03  0.7818608E-02  0.9566063E-01
         -2   -1    0    0    0  501 -0.00000000000E+00  0.00000000000E+00  0.58699962344E+03  0.58699962344E+03  0.00000000000E+00 0.  1.
          2   -1    0    0  501    0  0.00000000000E+00 -0.00000000000E+00 -0.13760344061E+04  0.13760344061E+04  0.00000000000E+00 0. -1.
         23    2    1    2    0    0  0.71931420099E+03 -0.26536381494E+03 -0.58342563912E+03  0.96796883375E+03  0.93527069367E+02 0.  0.
    5000000    2    1    2    0    0 -0.71931420099E+03  0.26536381494E+03 -0.20560914357E+03  0.99506519583E+03  0.60004062362E+03 0.  0.
         23    2    4    4    0    0 -0.66376847608E+03  0.17668045698E+03  0.62313983615E+02  0.69598840886E+03  0.93339482488E+02 0.  0.
         23    2    4    4    0    0 -0.55545724906E+02  0.88683357963E+02 -0.26792312718E+03  0.29907678697E+03  0.81939348844E+02 0.  0.
          5    1    3    3  502    0  0.22279912177E+03 -0.37529824515E+02 -0.17728672444E+03  0.28722919255E+03  0.47000000000E+01 0. -1.
         -5    1    3    3    0  502  0.49651507922E+03 -0.22783399043E+03 -0.40613891468E+03  0.68073964121E+03  0.47000000000E+01 0.  1.
         11    1    5    5    0    0 -0.48534906896E+03  0.85931507868E+02  0.38353971453E+02  0.49438746941E+03  0.00000000000E+00 0.  1.
        -11    1    5    5    0    0 -0.17841940712E+03  0.90748949114E+02  0.23960012162E+02  0.20160093945E+03  0.00000000000E+00 0. -1.
          2    1    6    6  503    0 -0.13647343833E+01  0.68457422224E+02 -0.19054780589E+03  0.20247653564E+03  0.00000000000E+00 0. -1.
         -2    1    6    6    0  503 -0.54180990523E+02  0.20225935739E+02 -0.77375321295E+02  0.96600251325E+02  0.00000000000E+00 0.  1.
<mgrwt>
<rscale>  0 0.79583662E+03</rscale>
<asrwt>0</asrwt>
<pdfrwt beam="1">  1        2 0.21169760E+00 0.79583662E+03</pdfrwt>
<pdfrwt beam="2">  1       -2 0.90307636E-01 0.79583662E+03</pdfrwt>
<totfact> 0.15919853E+01</totfact>
</mgrwt>
</event>
<event>
12    1  0.3203156E-008  0.1942702E+04  0.7818608E-02  0.8633888E-01
         -1   -1    0    0    0  501 -0.00000000000E+00  0.00000000000E+00  0.20299857968E+04  0.20299857968E+04  0.00000000000E+00 0.  1.
          1   -1    0    0  501    0  0.00000000000E+00 -0.00000000000E+00 -0.19139981448E+04  0.19139981448E+04  0.00000000000E+00 0. -1.
         23    2    1    2    0    0  0.18643034602E+04 -0.40145383806E+03 -0.20231586101E+03  0.19197681103E+04  0.88234424452E+02 0.  0.
    5000000    2    1    2    0    0 -0.18643034602E+04  0.40145383806E+03  0.31830351302E+03  0.20242158313E+04  0.59944977229E+03 0.  0.
         23    2    4    4    0    0 -0.15912252282E+04  0.14291720620E+03  0.34176451958E+03  0.16362562563E+04  0.90047180499E+02 0.  0.
         23    2    4    4    0    0 -0.27307823202E+03  0.25853663186E+03 -0.23461006563E+02  0.38795957503E+03  0.92462436771E+02 0.  0.
          5    1    3    3  502    0  0.45274496360E+03 -0.59625789183E+02 -0.53255486693E+02  0.45977328507E+03  0.47000000000E+01 0. -1.
         -5    1    3    3    0  502  0.14115584966E+04 -0.34182804888E+03 -0.14906037432E+03  0.14599948252E+04  0.47000000000E+01 0.  1.
         13    1    5    5    0    0 -0.10497708672E+04  0.82541508505E+02  0.18308938830E+03  0.10688094771E+04  0.00000000000E+00 0.  1.
        -13    1    5    5    0    0 -0.54145436103E+03  0.60375697695E+02  0.15867513128E+03  0.56744677921E+03  0.00000000000E+00 0. -1.
          3    1    6    6  503    0 -0.93594033369E+02  0.61403959405E+02  0.30355104866E+02  0.11598155760E+03  0.00000000000E+00 0. -1.
         -3    1    6    6    0  503 -0.17948419865E+03  0.19713267246E+03 -0.53816111430E+02  0.27197801743E+03  0.00000000000E+00 0.  1.
<mgrwt>
<rscale>  0 0.19427023E+04</rscale>
<asrwt>0</asrwt>
<pdfrwt beam="1">  1        1 0.29446125E+00 0.19427023E+04</pdfrwt>
<pdfrwt beam="2">  1       -1 0.31230551E+00 0.19427023E+04</pdfrwt>
<totfact> 0.84049244E-02</totfact>
</mgrwt>
</event>
<event>
12    1  0.3203156E-008  0.7550137E+03  0.7818608E-02  0.9627517E-01
         -2   -1    0    0    0  501 -0.00000000000E+00  0.00000000000E+00  0.43324767244E+03  0.43324767244E+03  0.00000000000E+00 0.  1.
          2   -1    0    0  501    0  0.00000000000E+00 -0.00000000000E+00 -0.19581623457E+04  0.19581623457E+04  0.00000000000E+00 0. -1.
         23    2    1    2    0    0  0.67028937179E+03 -0.13850324912E+03 -0.12728592986E+04  0.14469988153E+04  0.71859482897E+02 0.  0.
    5000000    2    1    2    0    0 -0.67028937179E+03  0.13850324912E+03 -0.25205537462E+03  0.94441120289E+03  0.59992467553E+03 0.  0.
         23    2    4    4    0    0 -0.46827477544E+03  0.29291408433E+03  0.22757468370E+02  0.55997658237E+03  0.89308142518E+02 0.  0.
         23    2    4    4    0    0 -0.20201459635E+03 -0.15441083522E+03 -0.27481284299E+03  0.38443462052E+03  0.87265546521E+02 0.  0.
          5    1    3    3  502    0  0.13185530187E+03 -0.56584323391E+02 -0.26586849366E+03  0.30215186944E+03  0.47000000000E+01 0. -1.
         -5    1    3    3    0  502  0.53843406991E+03 -0.81918925724E+02 -0.10069908050E+04  0.11448469458E+04  0.47000000000E+01 0.  1.
         11    1    5    5    0    0 -0.34286216690E+03  0.16621522999E+03  0.82770446216E+01  0.38111740663E+03  0.00000000000E+00 0.  1.
        -11    1    5    5    0    0 -0.12541260854E+03  0.12669885434E+03  0.14480423748E+02  0.17885917574E+03  0.00000000000E+00 0. -1.
          1    1    6    6  503    0 -0.59769631745E+02 -0.85860054478E+02 -0.15139071395E+03  0.18402039590E+03  0.00000000000E+00 0. -1.
         -1    1    6    6    0  503 -0.14224496460E+03 -0.68550780741E+02 -0.12342212904E+03  0.20041422462E+03  0.00000000000E+00 0.  1.
<mgrwt>
<rscale>  0 0.75501369E+03</rscale>
<asrwt>0</asrwt>
<pdfrwt beam="1">  1        2 0.30125575E+00 0.75501369E+03</pdfrwt>
<pdfrwt beam="2">  1       -2 0.66653487E-01 0.75501369E+03</pdfrwt>
<totfact> 0.15058617E+01</totfact>
</mgrwt>
</event>
<event>
12    1  0.3203156E-008  0.3066660E+03  0.7818608E-02  0.1081955E+00
         -1   -1    0    0    0  501 -0.00000000000E+00  0.00000000000E+00  0.13411986567E+03  0.13411986567E+03  0.00000000000E+00 0.  1.
          1   -1    0    0  501    0  0.00000000000E+00 -0.00000000000E+00 -0.12033698403E+04  0.12033698403E+04  0.00000000000E+00 0. -1.
         23    2    1    2    0    0  0.11365416507E+03 -0.99096441696E+02 -0.32182200611E+03  0.36719165557E+03  0.92319739535E+02 0.  0.
    5000000    2    1    2    0    0 -0.11365416507E+03  0.99096441696E+02 -0.74742796849E+03  0.97029805038E+03  0.60007696547E+03 0.  0.
         23    2    4    4    0    0  0.13780623439E+03  0.75643252629E+02 -0.66354736561E+03  0.68879957398E+03  0.97145698874E+02 0.  0.
         23    2    4    4    0    0 -0.25146039946E+03  0.23453189067E+02 -0.83880602884E+02  0.28149847640E+03  0.91777187245E+02 0.  0.
          5    1    3    3  502    0 -0.46189370573E+01 -0.46868132513E+02 -0.91742149573E+02  0.10323114081E+03  0.47000000000E+01 0. -1.
         -5    1    3    3    0  502  0.11827310213E+03 -0.52228309183E+02 -0.23007985654E+03  0.26396051476E+03  0.47000000000E+01 0.  1.
         11    1    5    5    0    0  0.94629634518E+02  0.84306128835E+02 -0.58666533856E+03  0.60019872589E+03  0.00000000000E+00 0. -1.
        -11    1    5    5    0    0  0.43176599870E+02 -0.86628762067E+01 -0.76882027051E+02  0.88600848099E+02  0.00000000000E+00 0.  1.
          4    1    6    6  503    0 -0.14098762542E+03 -0.28392280685E+02 -0.65714226009E+02  0.15812018095E+03  0.00000000000E+00 0. -1.
         -4    1    6    6    0  503 -0.11047277404E+03  0.51845469752E+02 -0.18166376874E+02  0.12337829544E+03  0.00000000000E+00 0.  1.
<mgrwt>
<rscale>  0 0.30666596E+03</rscale>
<asrwt>0</asrwt>
<pdfrwt beam="1">  1        1 0.18513382E+00 0.30666596E+03</pdfrwt>
<pdfrwt beam="2">  1       -1 0.20633825E-01 0.30666596E+03</pdfrwt>
<totfact> 0.21861216E+02</totfact>
</mgrwt>
</event>
<event>
12    1  0.3203156E-008  0.8241963E+03  0.7818608E-02  0.9525640E-01
         -2   -1    0    0    0  501 -0.00000000000E+00  0.00000000000E+00  0.27033659305E+04  0.27033659305E+04  0.00000000000E+00 0. -1.
          2   -1    0    0  501    0  0.00000000000E+00 -0.00000000000E+00 -0.33789640155E+03  0.33789640155E+03  0.00000000000E+00 0.  1.
         23    2    1    2    0    0 -0.53928479163E+03 -0.57652983445E+03  0.52935769785E+03  0.95452555772E+03  0.87662600805E+02 0.  0.
    5000000    2    1    2    0    0  0.53928479163E+03  0.57652983445E+03  0.18361118311E+04  0.20867367743E+04  0.59995747559E+03 0.  0.
         23    2    4    4    0    0  0.34429232249E+03  0.15963866368E+03  0.34060281121E+03  0.51942776767E+03  0.98859620445E+02 0.  0.
         23    2    4    4    0    0  0.19499246914E+03  0.41689117077E+03  0.14955090198E+04  0.15673090066E+04  0.89944329990E+02 0.  0.
          5    1    3    3  502    0 -0.29419359292E+03 -0.37644453404E+03  0.31198421317E+03  0.57062824728E+03  0.47000000000E+01 0. -1.
         -5    1    3    3    0  502 -0.24509119871E+03 -0.20008530041E+03  0.21737348468E+03  0.38389731044E+03  0.47000000000E+01 0.  1.
         11    1    5    5    0    0  0.20454563499E+03  0.43588387947E+02  0.16049414584E+03  0.26362328275E+03  0.00000000000E+00 0. -1.
        -11    1    5    5    0    0  0.13974668750E+03  0.11605027573E+03  0.18010866537E+03  0.25580448492E+03  0.00000000000E+00 0.  1.
          2    1    6    6  503    0  0.15972271482E+03  0.38072401659E+03  0.12423352240E+04  0.13091443508E+04  0.00000000000E+00 0.  1.
         -2    1    6    6    0  503  0.35269754324E+02  0.36167154177E+02  0.25317379581E+03  0.25816465578E+03  0.00000000000E+00 0. -1.
<mgrwt>
<rscale>  0 0.82419631E+03</rscale>
<asrwt>0</asrwt>
<pdfrwt beam="1">  1        2 0.51984064E-01 0.82419631E+03</pdfrwt>
<pdfrwt beam="2">  1       -2 0.41590244E+00 0.82419631E+03</pdfrwt>
<totfact> 0.58923334E-01</totfact>
</mgrwt>
</event>
<event>
12    1  0.3203156E-008  0.4164940E+03  0.7818608E-02  0.1038213E+00
          2   -1    0    0  501    0  0.00000000000E+00  0.00000000000E+00  0.18366810294E+04  0.18366810294E+04  0.00000000000E+00 0. -1.
         -2   -1    0    0    0  501 -0.00000000000E+00 -0.00000000000E+00 -0.11452435393E+03  0.11452435393E+03  0.00000000000E+00 0.  1.
         23    2    1    2    0    0 -0.21083513523E+03 -0.46846955244E+02  0.77349794160E+03  0.80814975315E+03  0.90337513750E+02 0.  0.
    5000000    2    1    2    0    0  0.21083513523E+03  0.46846955244E+02  0.94865873385E+03  0.11430556302E+04  0.59998057372E+03 0.  0.
         23    2    4    4    0    0 -0.80029835060E+02 -0.20395250253E+03  0.29255832014E+03  0.37702866421E+03  0.92514026880E+02 0.  0.
         23    2    4    4    0    0  0.29086497029E+03  0.25079945777E+03  0.65610041371E+03  0.76602696594E+03  0.93950841976E+02 0.  0.
          5    1    3    3  502    0 -0.24647856003E+01 -0.15888819327E+02  0.21888410838E+02  0.27563060002E+02  0.47000000000E+01 0. -1.
         -5    1    3    3    0  502 -0.20837034963E+03 -0.30958135917E+02  0.75160953076E+03  0.78058669314E+03  0.47000000000E+01 0.  1.
         11    1    5    5    0    0 -0.61853942303E+02 -0.11582967366E+03  0.23794855398E+03  0.27177552836E+03  0.00000000000E+00 0.  1.
        -11    1    5    5    0    0 -0.18175892757E+02 -0.88122828873E+02  0.54609766160E+02  0.10525313585E+03  0.00000000000E+00 0. -1.
          1    1    6    6  503    0  0.62479276567E+01  0.78322683328E+01 -0.75926777654E+00  0.10047761681E+02  0.00000000000E+00 0. -1.
         -1    1    6    6    0  503  0.28461704264E+03  0.24296718944E+03  0.65685968149E+03  0.75597920426E+03  0.00000000000E+00 0.  1.
<mgrwt>
<rscale>  0 0.41649398E+03</rscale>
<asrwt>0</asrwt>
<pdfrwt beam="1">  1        2 0.28256629E+00 0.41649398E+03</pdfrwt>
<pdfrwt beam="2">  1       -2 0.17619133E-01 0.41649398E+03</pdfrwt>
<totfact> 0.23170857E+02</totfact>
</mgrwt>
</event>
<event>
12    1  0.3203156E-008  0.6821744E+03  0.7818608E-02  0.9748211E-01
          2   -1    0    0  501    0  0.00000000000E+00  0.00000000000E+00  0.38161850310E+04  0.38161850310E+04  0.00000000000E+00 0. -1.
         -2   -1    0    0    0  501 -0.00000000000E+00 -0.00000000000E+00 -0.14237854020E+03  0.14237854020E+03  0.00000000000E+00 0.  1.
         23    2    1    2    0    0 -0.59443046826E+03 -0.14122504202E+03  0.14803499020E+04  0.16039662618E+04  0.89329964059E+02 0.  0.
    5000000    2    1    2    0    0  0.59443046826E+03  0.14122504202E+03  0.21934565888E+04  0.23545973094E+04  0.59965372382E+03 0.  0.
         23    2    4    4    0    0  0.22408057755E+03  0.26627904634E+03  0.15884977266E+04  0.16287248196E+04  0.91120113117E+02 0.  0.
         23    2    4    4    0    0  0.37034989071E+03 -0.12505400432E+03  0.60495886224E+03  0.72587248980E+03  0.90100504433E+02 0.  0.
          5    1    3    3  502    0 -0.47639051959E+03 -0.10725516952E+03  0.12652822250E+04  0.13562495336E+04  0.47000000000E+01 0. -1.
         -5    1    3    3    0  502 -0.11803994866E+03 -0.33969872508E+02  0.21506767703E+03  0.24771672818E+03  0.47000000000E+01 0.  1.
         11    1    5    5    0    0  0.11280318555E+03  0.18173981113E+03  0.80907087733E+03  0.83686892771E+03  0.00000000000E+00 0. -1.
        -11    1    5    5    0    0  0.11127739200E+03  0.84539235214E+02  0.77942684923E+03  0.79185589192E+03  0.00000000000E+00 0.  1.
          4    1    6    6  503    0  0.12481973045E+03 -0.20819629829E+01  0.22101196223E+03  0.25383180874E+03  0.00000000000E+00 0.  1.
         -4    1    6    6    0  503  0.24553016026E+03 -0.12297204133E+03  0.38394690001E+03  0.47204068106E+03  0.00000000000E+00 0. -1.
<mgrwt>
<rscale>  0 0.68217442E+03</rscale>
<asrwt>0</asrwt>
<pdfrwt beam="1">  1        2 0.58710531E+00 0.68217442E+03</pdfrwt>
<pdfrwt beam="2">  1       -2 0.21904394E-01 0.68217442E+03</pdfrwt>
<totfact> 0.96175292E+00</totfact>
</mgrwt>
</event>
<event>
12    1  0.3203156E-008  0.7702416E+03  0.7818608E-02  0.9604119E-01
          1   -1    0    0  501    0  0.00000000000E+00  0.00000000000E+00  0.17843425845E+04  0.17843425845E+04  0.00000000000E+00 0. -1.
         -1   -1    0    0    0  501 -0.00000000000E+00 -0.00000000000E+00 -0.56976331883E+03  0.56976331883E+03  0.00000000000E+00 0.  1.
         23    2    1    2    0    0 -0.40582063241E+02 -0.69014052514E+03  0.12559648463E+04  0.14376196301E+04  0.10659107580E+03 0.  0.
    5000000    2    1    2    0    0  0.40582063241E+02  0.69014052514E+03 -0.41385580655E+02  0.91648627319E+03  0.60024451214E+03 0.  0.
         23    2    4    4    0    0  0.20067675974E+03  0.14328798342E+03 -0.18373837267E+03  0.32241494572E+03  0.96896850020E+02 0.  0.
         23    2    4    4    0    0 -0.16009469650E+03  0.54685254173E+03  0.14235279201E+03  0.59407132747E+03  0.89321948510E+02 0.  0.
          5    1    3    3  502    0 -0.71526158408E+02 -0.34088428476E+03  0.65325481486E+03  0.74032562435E+03  0.47000000000E+01 0. -1.
         -5    1    3    3    0  502  0.30944095167E+02 -0.34925624038E+03  0.60271003146E+03  0.69729400578E+03  0.47000000000E+01 0.  1.
         13    1    5    5    0    0  0.10470863965E+03  0.16670700993E+02 -0.71058138036E+02  0.12763647782E+03  0.00000000000E+00 0.  1.
        -13    1    5    5    0    0  0.95968120085E+02  0.12661728242E+03 -0.11268023463E+03  0.19477846790E+03  0.00000000000E+00 0. -1.
          2    1    6    6  503    0  0.11008918934E+02  0.46459300756E+02  0.77350685612E+01  0.48368318231E+02  0.00000000000E+00 0. -1.
         -2    1    6    6    0  503 -0.17110361543E+03  0.50039324097E+03  0.13461772345E+03  0.54570300924E+03  0.00000000000E+00 0.  1.
<mgrwt>
<rscale>  0 0.77024161E+03</rscale>
<asrwt>0</asrwt>
<pdfrwt beam="1">  1        1 0.27451424E+00 0.77024161E+03</pdfrwt>
<pdfrwt beam="2">  1       -1 0.87655896E-01 0.77024161E+03</pdfrwt>
<totfact> 0.55705728E+00</totfact>
</mgrwt>
</event>
<event>
12    1  0.3423575E-008  0.1440417E+04  0.7818608E-02  0.8925071E-01
         -3   -1    0    0    0  501 -0.00000000000E+00  0.00000000000E+00  0.10940493833E+04  0.10940493833E+04  0.00000000000E+00 0. -1.
          3   -1    0    0  501    0  0.00000000000E+00 -0.00000000000E+00 -0.20354671383E+04  0.20354671383E+04  0.00000000000E+00 0.  1.
         23    2    1    2    0    0  0.96698052505E+03  0.10541428693E+04 -0.45160402774E+03  0.15027790778E+04  0.90167810345E+02 0.  0.
    5000000    2    1    2    0    0 -0.96698052505E+03 -0.10541428693E+04 -0.48981372726E+03  0.16267374438E+04  0.60007391106E+03 0.  0.
         23    2    4    4    0    0 -0.71445311023E+03 -0.83773794772E+03 -0.60915731372E+03  0.12618984879E+04  0.95221032940E+02 0.  0.
         23    2    4    4    0    0 -0.25252741481E+03 -0.21640492163E+03  0.11934358647E+03  0.36483895587E+03  0.90903172420E+02 0.  0.
          5    1    3    3  502    0  0.38820139299E+03  0.35965631755E+03 -0.17212057894E+03  0.55650747701E+03  0.47000000000E+01 0. -1.
         -5    1    3    3    0  502  0.57877913206E+03  0.69448655179E+03 -0.27948344879E+03  0.94627160080E+03  0.47000000000E+01 0.  1.
         11    1    5    5    0    0 -0.23832944113E+03 -0.32883883231E+03 -0.26215798314E+03  0.48338670676E+03  0.00000000000E+00 0. -1.
        -11    1    5    5    0    0 -0.47612366910E+03 -0.50889911541E+03 -0.34699933058E+03  0.77851178114E+03  0.00000000000E+00 0.  1.
          2    1    6    6  503    0 -0.95748589440E+02 -0.14131559703E+03  0.65876325886E+02  0.18296879695E+03  0.00000000000E+00 0. -1.
         -2    1    6    6    0  503 -0.15677882537E+03 -0.75089324591E+02  0.53467260581E+02  0.18187015892E+03  0.00000000000E+00 0.  1.
<mgrwt>
<rscale>  0 0.14404172E+04</rscale>
<asrwt>0</asrwt>
<pdfrwt beam="1">  1        3 0.31314879E+00 0.14404172E+04</pdfrwt>
<pdfrwt beam="2">  1       -3 0.16831529E+00 0.14404172E+04</pdfrwt>
<totfact> 0.18904787E-02</totfact>
</mgrwt>
</event>
<event>
12    1  0.3203156E-008  0.1221210E+04  0.7818608E-02  0.9094492E-01
          1   -1    0    0  501    0  0.00000000000E+00  0.00000000000E+00  0.11342402238E+04  0.11342402238E+04  0.00000000000E+00 0. -1.
         -1   -1    0    0    0  501 -0.00000000000E+00 -0.00000000000E+00 -0.13622578507E+04  0.13622578507E+04  0.00000000000E+00 0.  1.
         23    2    1    2    0    0  0.42437760157E+03  0.10763067943E+04 -0.27260095789E+03  0.11921954766E+04  0.92120074053E+02 0.  0.
    5000000    2    1    2    0    0 -0.42437760157E+03 -0.10763067943E+04  0.44583331027E+02  0.13043025979E+04  0.60057050317E+03 0.  0.
         23    2    4    4    0    0 -0.50164012112E+03 -0.10447315978E+04  0.10667051665E+03  0.11680488162E+04  0.99259837830E+02 0.  0.
         23    2    4    4    0    0  0.77262519555E+02 -0.31575196515E+02 -0.62087185621E+02  0.13625378167E+03  0.87998775212E+02 0.  0.
          5    1    3    3  502    0  0.22053008425E+03  0.46894011988E+03 -0.89834072691E+02  0.52595684681E+03  0.47000000000E+01 0. -1.
         -5    1    3    3    0  502  0.20384751732E+03  0.60736667441E+03 -0.18276688520E+03  0.66623862979E+03  0.47000000000E+01 0.  1.
         13    1    5    5    0    0 -0.34070788268E+03 -0.60118682203E+03  0.76637695412E+02  0.69525591882E+03  0.00000000000E+00 0. -1.
        -13    1    5    5    0    0 -0.16093223844E+03 -0.44354477575E+03  0.30032821236E+02  0.47279289738E+03  0.00000000000E+00 0.  1.
          2    1    6    6  503    0  0.14381213183E+02 -0.52460045562E+02 -0.21113106788E+02  0.58349284068E+02  0.00000000000E+00 0. -1.
         -2    1    6    6    0  503  0.62881306373E+02  0.20884849047E+02 -0.40974078833E+02  0.77904497605E+02  0.00000000000E+00 0.  1.
<mgrwt>
<rscale>  0 0.12212096E+04</rscale>
<asrwt>0</asrwt>
<pdfrwt beam="1">  1        1 0.17449850E+00 0.12212096E+04</pdfrwt>
<pdfrwt beam="2">  1       -1 0.20957813E+00 0.12212096E+04</pdfrwt>
<totfact> 0.15126452E+00</totfact>
</mgrwt>
</event>
<event>
12    1  0.3203156E-008  0.1411828E+04  0.7818608E-02  0.8945301E-01
         -2   -1    0    0    0  501 -0.00000000000E+00  0.00000000000E+00  0.86590659358E+03  0.86590659358E+03  0.00000000000E+00 0. -1.
          2   -1    0    0  501    0  0.00000000000E+00 -0.00000000000E+00 -0.24876961588E+04  0.24876961588E+04  0.00000000000E+00 0.  1.
         23    2    1    2    0    0  0.72854276549E+03 -0.11824404912E+04 -0.10189021982E+04  0.17249723478E+04  0.91803240743E+02 0.  0.
    5000000    2    1    2    0    0 -0.72854276549E+03  0.11824404912E+04 -0.60288736707E+03  0.16286304046E+04  0.60001978383E+03 0.  0.
         23    2    4    4    0    0 -0.62105464289E+03  0.69821941613E+03 -0.61795167225E+03  0.11239437486E+04  0.90366245014E+02 0.  0.
         23    2    4    4    0    0 -0.10748812260E+03  0.48422107504E+03  0.15064305175E+02  0.50468665598E+03  0.91967067018E+02 0.  0.
          5    1    3    3  502    0  0.41555957693E+03 -0.72134220411E+03 -0.65635299412E+03  0.10601158806E+04  0.47000000000E+01 0. -1.
         -5    1    3    3    0  502  0.31298318856E+03 -0.46109828706E+03 -0.36254920403E+03  0.66485646721E+03  0.47000000000E+01 0.  1.
         11    1    5    5    0    0 -0.53002952071E+03  0.61321189375E+03 -0.56806976892E+03  0.98977946121E+03  0.00000000000E+00 0.  1.
        -11    1    5    5    0    0 -0.91025122183E+02  0.85007522381E+02 -0.49881903324E+02  0.13416428738E+03  0.00000000000E+00 0. -1.
          4    1    6    6  503    0 -0.30526391493E+02  0.25847272145E+03 -0.29892042265E+02  0.26198004218E+03  0.00000000000E+00 0. -1.
         -4    1    6    6    0  503 -0.76961731105E+02  0.22574835360E+03  0.44956347440E+02  0.24270661380E+03  0.00000000000E+00 0.  1.
<mgrwt>
<rscale>  0 0.14118276E+04</rscale>
<asrwt>0</asrwt>
<pdfrwt beam="1">  1        2 0.38272249E+00 0.14118276E+04</pdfrwt>
<pdfrwt beam="2">  1       -2 0.13321640E+00 0.14118276E+04</pdfrwt>
<totfact> 0.13806399E+00</totfact>
</mgrwt>
</event>
<event>
12    1  0.3203156E-008  0.1703521E+04  0.7818608E-02  0.8759359E-01
         -2   -1    0    0    0  501 -0.00000000000E+00  0.00000000000E+00  0.26493068379E+04  0.26493068379E+04  0.00000000000E+00 0. -1.
          2   -1    0    0  501    0  0.00000000000E+00 -0.00000000000E+00 -0.16299844423E+04  0.16299844423E+04  0.00000000000E+00 0.  1.
         23    2    1    2    0    0 -0.13985824338E+04  0.94925863288E+03 -0.66494246066E+03  0.18188192633E+04  0.93969464677E+02 0.  0.
    5000000    2    1    2    0    0  0.13985824338E+04 -0.94925863288E+03  0.16842648563E+04  0.24604720169E+04  0.60004138478E+03 0.  0.
         23    2    4    4    0    0  0.11352885915E+04 -0.85052187485E+03  0.10712129942E+04  0.17798601864E+04  0.90207307545E+02 0.  0.
         23    2    4    4    0    0  0.26329384231E+03 -0.98736758027E+02  0.61305186201E+03  0.68061183050E+03  0.91253950683E+02 0.  0.
          5    1    3    3  502    0 -0.10645553417E+04  0.69733976834E+03 -0.46301560306E+03  0.13542401437E+04  0.47000000000E+01 0. -1.
         -5    1    3    3    0  502 -0.33402709213E+03  0.25191886454E+03 -0.20192685759E+03  0.46457911964E+03  0.47000000000E+01 0.  1.
         13    1    5    5    0    0  0.64866733739E+03 -0.53743538957E+03  0.65541918113E+03  0.10673239506E+04  0.00000000000E+00 0. -1.
        -13    1    5    5    0    0  0.48662125412E+03 -0.31308648528E+03  0.41579381311E+03  0.71253623574E+03  0.00000000000E+00 0.  1.
          3    1    6    6  503    0  0.26604398398E+03 -0.82527103069E+02  0.58807832096E+03  0.65071209897E+03  0.00000000000E+00 0. -1.
         -3    1    6    6    0  503 -0.27501416779E+01 -0.16209654958E+02  0.24973541051E+02  0.29899731533E+02  0.00000000000E+00 0.  1.
<mgrwt>
<rscale>  0 0.17035205E+04</rscale>
<asrwt>0</asrwt>
<pdfrwt beam="1">  1        2 0.25076684E+00 0.17035205E+04</pdfrwt>
<pdfrwt beam="2">  1       -2 0.40758567E+00 0.17035205E+04</pdfrwt>
<totfact> 0.65253004E-02</totfact>
</mgrwt>
</event>
<event>
12    1  0.3203156E-008  0.6051434E+03  0.7818608E-02  0.9894792E-01
         -1   -1    0    0    0  501 -0.00000000000E+00  0.00000000000E+00  0.18209150318E+04  0.18209150318E+04  0.00000000000E+00 0.  1.
          1   -1    0    0  501    0  0.00000000000E+00 -0.00000000000E+00 -0.28706770374E+03  0.28706770374E+03  0.00000000000E+00 0. -1.
         23    2    1    2    0    0  0.45514942559E+03 -0.37174991644E+03  0.50680901067E+03  0.78130800110E+03  0.90707327709E+02 0.  0.
    5000000    2    1    2    0    0 -0.45514942559E+03  0.37174991644E+03  0.10270383174E+04  0.13266747345E+04  0.59991594883E+03 0.  0.
         23    2    4    4    0    0 -0.25185353805E+03  0.12662202634E+03  0.58582222092E+02  0.30276789790E+03  0.93665260752E+02 0.  0.
         23    2    4    4    0    0 -0.20329588754E+03  0.24512789009E+03  0.96845609532E+03  0.10239068366E+04  0.95189815717E+02 0.  0.
          5    1    3    3  502    0  0.12970210136E+03 -0.56896850778E+02  0.11558897135E+03  0.18287369145E+03  0.47000000000E+01 0. -1.
         -5    1    3    3    0  502  0.32544732422E+03 -0.31485306566E+03  0.39122003932E+03  0.59843430965E+03  0.47000000000E+01 0.  1.
         13    1    5    5    0    0 -0.15959513570E+03  0.12661415808E+03  0.28353338968E+02  0.20568340768E+03  0.00000000000E+00 0.  1.
        -13    1    5    5    0    0 -0.92258402353E+02  0.78682617588E-02  0.30228883123E+02  0.97084490221E+02  0.00000000000E+00 0. -1.
          2    1    6    6  503    0 -0.16076916021E+03  0.21072617435E+03  0.88726989324E+03  0.92601301658E+03  0.00000000000E+00 0. -1.
         -2    1    6    6    0  503 -0.42526727324E+02  0.34401715740E+02  0.81186202079E+02  0.97893819983E+02  0.00000000000E+00 0.  1.
<mgrwt>
<rscale>  0 0.60514339E+03</rscale>
<asrwt>0</asrwt>
<pdfrwt beam="1">  1        1 0.44164263E-01 0.60514339E+03</pdfrwt>
<pdfrwt beam="2">  1       -1 0.28014077E+00 0.60514339E+03</pdfrwt>
<totfact> 0.44056783E+00</totfact>
</mgrwt>
</event>
<event>
12    1  0.3203156E-008  0.4531645E+03  0.7818608E-02  0.1026783E+00
         -1   -1    0    0    0  501 -0.00000000000E+00  0.00000000000E+00  0.40039646209E+03  0.40039646209E+03  0.00000000000E+00 0.  1.
          1   -1    0    0  501    0  0.00000000000E+00 -0.00000000000E+00 -0.16892358660E+04  0.16892358660E+04  0.00000000000E+00 0. -1.
         23    2    1    2    0    0 -0.43034088527E+03 -0.28645208530E+02  0.15550037042E+03  0.46731742422E+03  0.90506266474E+02 0.  0.
    5000000    2    1    2    0    0  0.43034088527E+03  0.28645208530E+02 -0.14443397744E+04  0.16223149039E+04  0.59981200229E+03 0.  0.
         23    2    4    4    0    0  0.23769375473E+03  0.86493069178E+02 -0.14785714664E+03  0.30715457020E+03  0.92210748424E+02 0.  0.
         23    2    4    4    0    0  0.19264713054E+03 -0.57847860648E+02 -0.12964826277E+04  0.13151603337E+04  0.91215171269E+02 0.  0.
          5    1    3    3  502    0 -0.11417031375E+03  0.85338775583E+01  0.81027562914E+02  0.14033974334E+03  0.47000000000E+01 0. -1.
         -5    1    3    3    0  502 -0.31617057152E+03 -0.37179086088E+02  0.74472807505E+02  0.32697768088E+03  0.47000000000E+01 0.  1.
         11    1    5    5    0    0  0.18887069578E+03  0.27237165613E+02 -0.12030467216E+03  0.22558195198E+03  0.00000000000E+00 0.  1.
        -11    1    5    5    0    0  0.48823058952E+02  0.59255903565E+02 -0.27552474479E+02  0.81572618216E+02  0.00000000000E+00 0. -1.
          4    1    6    6  503    0  0.86075165660E+02 -0.35463558492E+01 -0.79298817074E+03  0.79765390346E+03  0.00000000000E+00 0. -1.
         -4    1    6    6    0  503  0.10657196488E+03 -0.54301504799E+02 -0.50349445698E+03  0.51750643023E+03  0.00000000000E+00 0.  1.
<mgrwt>
<rscale>  0 0.45316449E+03</rscale>
<asrwt>0</asrwt>
<pdfrwt beam="1">  1        1 0.25988244E+00 0.45316449E+03</pdfrwt>
<pdfrwt beam="2">  1       -1 0.61599456E-01 0.45316449E+03</pdfrwt>
<totfact> 0.14238922E+01</totfact>
</mgrwt>
</event>
<event>
12    1  0.3203156E-008  0.4941451E+03  0.7818608E-02  0.1015319E+00
         -2   -1    0    0    0  501 -0.00000000000E+00  0.00000000000E+00  0.11143467359E+03  0.11143467359E+03  0.00000000000E+00 0.  1.
          2   -1    0    0  501    0  0.00000000000E+00 -0.00000000000E+00 -0.26745238482E+04  0.26745238482E+04  0.00000000000E+00 0. -1.
         23    2    1    2    0    0 -0.20295337488E+02 -0.34596739119E+03 -0.54463475335E+03  0.65192976157E+03  0.90994851329E+02 0.  0.
    5000000    2    1    2    0    0  0.20295337488E+02  0.34596739119E+03 -0.20184544212E+04  0.21340287602E+04  0.59984594877E+03 0.  0.
         23    2    4    4    0    0 -0.23956906374E+03  0.24587568123E+03 -0.72179379580E+03  0.80459531331E+03  0.92407508489E+02 0.  0.
         23    2    4    4    0    0  0.25986440123E+03  0.10009170996E+03 -0.12966606254E+04  0.13294334469E+04  0.92285723306E+02 0.  0.
          5    1    3    3  502    0  0.33892274276E+02 -0.18622798211E+03 -0.27660765036E+03  0.33520654799E+03  0.47000000000E+01 0. -1.
         -5    1    3    3    0  502 -0.54187611764E+02 -0.15973940908E+03 -0.26802710299E+03  0.31672321358E+03  0.47000000000E+01 0.  1.
         11    1    5    5    0    0 -0.62751850475E+02  0.45103580421E+02 -0.90831754989E+02  0.11925827191E+03  0.00000000000E+00 0. -1.
        -11    1    5    5    0    0 -0.17681721326E+03  0.20077210081E+03 -0.63096204082E+03  0.68533704140E+03  0.00000000000E+00 0.  1.
          3    1    6    6  503    0  0.42644464634E+02 -0.69797660419E+01 -0.33375243746E+03  0.33653819546E+03  0.00000000000E+00 0. -1.
         -3    1    6    6    0  503  0.21721993659E+03  0.10707147600E+03 -0.96290818797E+03  0.99289525141E+03  0.00000000000E+00 0.  1.
<mgrwt>
<rscale>  0 0.49414508E+03</rscale>
<asrwt>0</asrwt>
<pdfrwt beam="1">  1        2 0.41146523E+00 0.49414508E+03</pdfrwt>
<pdfrwt beam="2">  1       -2 0.17143795E-01 0.49414508E+03</pdfrwt>
<totfact> 0.83319964E+01</totfact>
</mgrwt>
</event>
<event>
12    1  0.3203156E-008  0.9066163E+03  0.7818608E-02  0.9417348E-01
         -1   -1    0    0    0  501 -0.00000000000E+00  0.00000000000E+00  0.45297193589E+03  0.45297193589E+03  0.00000000000E+00 0.  1.
          1   -1    0    0  501    0  0.00000000000E+00 -0.00000000000E+00 -0.21708452603E+04  0.21708452603E+04  0.00000000000E+00 0. -1.
         23    2    1    2    0    0 -0.28921719953E+03 -0.75542116843E+03 -0.12997932331E+04  0.15333520923E+04  0.86014301391E+02 0.  0.
    5000000    2    1    2    0    0  0.28921719953E+03  0.75542116843E+03 -0.41808009134E+03  0.10904651039E+04  0.60001287469E+03 0.  0.
         23    2    4    4    0    0 -0.13796067253E+03  0.43022732577E+03 -0.15230766426E+03  0.48443912700E+03  0.85760971129E+02 0.  0.
         23    2    4    4    0    0  0.42717787206E+03  0.32519384266E+03 -0.26577242708E+03  0.60602597688E+03  0.91654416043E+02 0.  0.
          5    1    3    3  502    0 -0.13978021494E+03 -0.44820411106E+03 -0.80826483978E+03  0.93474037833E+03  0.47000000000E+01 0. -1.
         -5    1    3    3    0  502 -0.14943698459E+03 -0.30721705738E+03 -0.49152839329E+03  0.59861171398E+03  0.47000000000E+01 0.  1.
         11    1    5    5    0    0 -0.13662530033E+03  0.32180463344E+03 -0.97521373053E+02  0.36295332069E+03  0.00000000000E+00 0.  1.
        -11    1    5    5    0    0 -0.13353721987E+01  0.10842269233E+03 -0.54786291207E+02  0.12148580631E+03  0.00000000000E+00 0. -1.
          3    1    6    6  503    0  0.16998453437E+03  0.18442733838E+03 -0.10804078850E+03  0.27309521608E+03  0.00000000000E+00 0. -1.
         -3    1    6    6    0  503  0.25719333769E+03  0.14076650428E+03 -0.15773163857E+03  0.33293076080E+03  0.00000000000E+00 0.  1.
<mgrwt>
<rscale>  0 0.90661631E+03</rscale>
<asrwt>0</asrwt>
<pdfrwt beam="1">  1        1 0.33397619E+00 0.90661631E+03</pdfrwt>
<pdfrwt beam="2">  1       -1 0.69687991E-01 0.90661631E+03</pdfrwt>
<totfact> 0.48762044E+00</totfact>
</mgrwt>
</event>
<event>
12    1  0.3203156E-008  0.5198988E+03  0.7818608E-02  0.1008712E+00
         -1   -1    0    0    0  501 -0.00000000000E+00  0.00000000000E+00  0.29309329616E+03  0.29309329616E+03  0.00000000000E+00 0.  1.
          1   -1    0    0  501    0  0.00000000000E+00 -0.00000000000E+00 -0.11816739880E+04  0.11816739880E+04  0.00000000000E+00 0. -1.
         23    2    1    2    0    0  0.40530067580E+03 -0.14241813434E+02 -0.50701165252E+03  0.65615717713E+03  0.94920799898E+02 0.  0.
    5000000    2    1    2    0    0 -0.40530067580E+03  0.14241813434E+02 -0.38156903933E+03  0.81861010704E+03  0.60004675528E+03 0.  0.
         23    2    4    4    0    0 -0.17638704193E+03 -0.21940793956E+03 -0.37747309699E+03  0.47980899313E+03  0.92078762140E+02 0.  0.
         23    2    4    4    0    0 -0.22891363387E+03  0.23364975299E+03 -0.40959423475E+01  0.33880111392E+03  0.88180265380E+02 0.  0.
          5    1    3    3  502    0  0.10960075170E+03  0.92763354768E+01 -0.20568932755E+03  0.23329930270E+03  0.47000000000E+01 0.  1.
         -5    1    3    3    0  502  0.29569992409E+03 -0.23518148911E+02 -0.30132232497E+03  0.42285787443E+03  0.47000000000E+01 0. -1.
         11    1    5    5    0    0 -0.56587308995E+02 -0.14257449500E+03 -0.18215483741E+03  0.23813860451E+03  0.00000000000E+00 0. -1.
        -11    1    5    5    0    0 -0.11979973293E+03 -0.76833444559E+02 -0.19531825958E+03  0.24167038862E+03  0.00000000000E+00 0.  1.
          1    1    6    6  503    0 -0.23027110693E+03  0.20399839591E+03 -0.12695082124E+02  0.30789818663E+03  0.00000000000E+00 0. -1.
         -1    1    6    6    0  503  0.13574730606E+01  0.29651357080E+02  0.85991397766E+01  0.30902927283E+02  0.00000000000E+00 0.  1.
<mgrwt>
<rscale>  0 0.51989882E+03</rscale>
<asrwt>0</asrwt>
<pdfrwt beam="1">  1        1 0.18179600E+00 0.51989882E+03</pdfrwt>
<pdfrwt beam="2">  1       -1 0.45091276E-01 0.51989882E+03</pdfrwt>
<totfact> 0.56639694E+01</totfact>
</mgrwt>
</event>
<event>
12    1  0.3203156E-008  0.1171505E+04  0.7818608E-02  0.9138170E-01
          2   -1    0    0  501    0  0.00000000000E+00  0.00000000000E+00  0.22320089313E+04  0.22320089313E+04  0.00000000000E+00 0. -1.
         -2   -1    0    0    0  501 -0.00000000000E+00 -0.00000000000E+00 -0.65974598972E+03  0.65974598972E+03  0.00000000000E+00 0.  1.
         23    2    1    2    0    0 -0.10300199388E+04  0.48010722493E+03  0.79550020388E+03  0.13901671008E+04  0.91104182202E+02 0.  0.
    5000000    2    1    2    0    0  0.10300199388E+04 -0.48010722493E+03  0.77676273769E+03  0.15015878202E+04  0.59996800698E+03 0.  0.
         23    2    4    4    0    0  0.10047314633E+04 -0.35131617296E+03  0.49392354364E+03  0.11766313992E+04  0.87135617139E+02 0.  0.
         23    2    4    4    0    0  0.25288475442E+02 -0.12879105197E+03  0.28283919404E+03  0.32495642102E+03  0.91498764005E+02 0.  0.
          5    1    3    3  502    0 -0.23177055887E+03  0.12727365139E+03  0.22753049228E+03  0.34886729457E+03  0.47000000000E+01 0. -1.
         -5    1    3    3    0  502 -0.79824937992E+03  0.35283357354E+03  0.56796971159E+03  0.10412998062E+04  0.47000000000E+01 0.  1.
         13    1    5    5    0    0  0.36560400179E+03 -0.16446298759E+03  0.15909050521E+03  0.43130516952E+03  0.00000000000E+00 0.  1.
        -13    1    5    5    0    0  0.63912746156E+03 -0.18685318537E+03  0.33483303844E+03  0.74532622967E+03  0.00000000000E+00 0. -1.
          2    1    6    6  503    0 -0.10263054969E+02 -0.77477406502E+01  0.11120178308E+03  0.11194281729E+03  0.00000000000E+00 0. -1.
         -2    1    6    6    0  503  0.35551530411E+02 -0.12104331132E+03  0.17163741096E+03  0.21301360373E+03  0.00000000000E+00 0.  1.
<mgrwt>
<rscale>  0 0.11715052E+04</rscale>
<asrwt>0</asrwt>
<pdfrwt beam="1">  1        2 0.34338599E+00 0.11715052E+04</pdfrwt>
<pdfrwt beam="2">  1       -2 0.10149938E+00 0.11715052E+04</pdfrwt>
<totfact> 0.38840293E+00</totfact>
</mgrwt>
</event>
<event>
12    1  0.3203156E-008  0.8949794E+03  0.7818608E-02  0.9431879E-01
         -1   -1    0    0    0  501 -0.00000000000E+00  0.00000000000E+00  0.73665526224E+03  0.73665526224E+03  0.00000000000E+00 0.  1.
          1   -1    0    0  501    0  0.00000000000E+00 -0.00000000000E+00 -0.12398321545E+04  0.12398321545E+04  0.00000000000E+00 0. -1.
         23    2    1    2    0    0 -0.37241621373E+03  0.75900319536E+03 -0.38471539641E+03  0.93252374355E+03  0.82552463450E+02 0.  0.
    5000000    2    1    2    0    0  0.37241621373E+03 -0.75900319536E+03 -0.11846149582E+03  0.10439636732E+04  0.60087214786E+03 0.  0.
         23    2    4    4    0    0  0.37788360951E+03 -0.32842460884E+03 -0.27261342479E+03  0.57728296829E+03  0.90987911694E+02 0.  0.
         23    2    4    4    0    0 -0.54673957767E+01 -0.43057858652E+03  0.15415192897E+03  0.46668070488E+03  0.92737540982E+02 0.  0.
          5    1    3    3  502    0 -0.28785827141E+03  0.65361547062E+03 -0.32742446456E+03  0.78568723920E+03  0.47000000000E+01 0. -1.
         -5    1    3    3    0  502 -0.84557942318E+02  0.10538772475E+03 -0.57290931853E+02  0.14683650435E+03  0.47000000000E+01 0.  1.
         11    1    5    5    0    0  0.19043441123E+03 -0.14665334337E+03 -0.81853718124E+02  0.25391435421E+03  0.00000000000E+00 0.  1.
        -11    1    5    5    0    0  0.18744919828E+03 -0.18177126547E+03 -0.19075970667E+03  0.32336861408E+03  0.00000000000E+00 0. -1.
          4    1    6    6  503    0  0.40035153995E+02 -0.22406209732E+03  0.98504199906E+02  0.24801152072E+03  0.00000000000E+00 0. -1.
         -4    1    6    6    0  503 -0.45502549771E+02 -0.20651648920E+03  0.55647729068E+02  0.21866918416E+03  0.00000000000E+00 0.  1.
<mgrwt>
<rscale>  0 0.89497943E+03</rscale>
<asrwt>0</asrwt>
<pdfrwt beam="1">  1        1 0.19074341E+00 0.89497943E+03</pdfrwt>
<pdfrwt beam="2">  1       -1 0.11333158E+00 0.89497943E+03</pdfrwt>
<totfact> 0.72197738E+00</totfact>
</mgrwt>
</event>
<event>
12    1  0.3203156E-008  0.6774053E+03  0.7818608E-02  0.9756672E-01
         -2   -1    0    0    0  501 -0.00000000000E+00  0.00000000000E+00  0.84882063277E+03  0.84882063277E+03  0.00000000000E+00 0.  1.
          2   -1    0    0  501    0  0.00000000000E+00 -0.00000000000E+00 -0.75233925412E+03  0.75233925412E+03  0.00000000000E+00 0. -1.
         23    2    1    2    0    0  0.72889212766E+01  0.59491728534E+03 -0.29462431267E+03  0.67006524659E+03  0.90577283596E+02 0.  0.
    5000000    2    1    2    0    0 -0.72889212766E+01 -0.59491728534E+03  0.39110569132E+03  0.93109464031E+03  0.59999488553E+03 0.  0.
         23    2    4    4    0    0 -0.15357698273E+03 -0.54794096278E+03  0.93927493548E+02  0.58417440193E+03  0.92801775341E+02 0.  0.
         23    2    4    4    0    0  0.14628806145E+03 -0.46976322555E+02  0.29717819777E+03  0.34692023838E+03  0.91824826497E+02 0.  0.
          5    1    3    3  502    0 -0.39623579823E+02  0.24113175069E+03 -0.10647530662E+03  0.26659638068E+03  0.47000000000E+01 0. -1.
         -5    1    3    3    0  502  0.46912501100E+02  0.35378553465E+03 -0.18814900605E+03  0.40346886591E+03  0.47000000000E+01 0.  1.
         11    1    5    5    0    0 -0.22800374485E+02 -0.18458907676E+02 -0.53485278423E+01  0.29819374563E+02  0.00000000000E+00 0.  1.
        -11    1    5    5    0    0 -0.13077660824E+03 -0.52948205511E+03  0.99276021391E+02  0.55435502737E+03  0.00000000000E+00 0. -1.
          1    1    6    6  503    0  0.15217418083E+03 -0.60693214869E+02  0.26709423367E+03  0.31333684319E+03  0.00000000000E+00 0. -1.
         -1    1    6    6    0  503 -0.58861193778E+01  0.13716892314E+02  0.30083964105E+02  0.33583395188E+02  0.00000000000E+00 0.  1.
<mgrwt>
<rscale>  0 0.67740535E+03</rscale>
<asrwt>0</asrwt>
<pdfrwt beam="1">  1        2 0.11574450E+00 0.67740535E+03</pdfrwt>
<pdfrwt beam="2">  1       -2 0.13058779E+00 0.67740535E+03</pdfrwt>
<totfact> 0.16395408E+01</totfact>
</mgrwt>
</event>
<event>
12    1  0.3203156E-008  0.1303713E+04  0.7818608E-02  0.9026626E-01
          1   -1    0    0  501    0  0.00000000000E+00  0.00000000000E+00  0.22455606394E+04  0.22455606394E+04  0.00000000000E+00 0. -1.
         -1   -1    0    0    0  501 -0.00000000000E+00 -0.00000000000E+00 -0.80529236214E+03  0.80529236214E+03  0.00000000000E+00 0.  1.
         23    2    1    2    0    0 -0.11060831559E+04  0.56535585113E+03  0.35354560404E+03  0.12946940449E+04  0.90504085972E+02 0.  0.
    5000000    2    1    2    0    0  0.11060831559E+04 -0.56535585113E+03  0.10867226732E+04  0.17561589566E+04  0.60006743482E+03 0.  0.
         23    2    4    4    0    0  0.81858545944E+03 -0.66255049295E+03  0.77318065246E+03  0.13097264226E+04  0.92302061717E+02 0.  0.
         23    2    4    4    0    0  0.28749769647E+03  0.97194641825E+02  0.31354202075E+03  0.44643253404E+03  0.94295730549E+02 0.  0.
          5    1    3    3  502    0 -0.45299642296E+03  0.21264840955E+03  0.10010752652E+03  0.51036135449E+03  0.47000000000E+01 0. -1.
         -5    1    3    3    0  502 -0.65308673294E+03  0.35270744158E+03  0.25343807752E+03  0.78433269040E+03  0.47000000000E+01 0.  1.
         11    1    5    5    0    0  0.31341465955E+03 -0.25226368869E+03  0.35163373598E+03  0.53433323098E+03  0.00000000000E+00 0. -1.
        -11    1    5    5    0    0  0.50517079988E+03 -0.41028680426E+03  0.42154691649E+03  0.77539319161E+03  0.00000000000E+00 0.  1.
          3    1    6    6  503    0 -0.25280765044E+01  0.76645030183E+01  0.30009178795E+02  0.31075498215E+02  0.00000000000E+00 0. -1.
         -3    1    6    6    0  503  0.29002577297E+03  0.89530138806E+02  0.28353284196E+03  0.41535703583E+03  0.00000000000E+00 0.  1.
<mgrwt>
<rscale>  0 0.13037126E+04</rscale>
<asrwt>0</asrwt>
<pdfrwt beam="1">  1        1 0.34547086E+00 0.13037126E+04</pdfrwt>
<pdfrwt beam="2">  1       -1 0.12389113E+00 0.13037126E+04</pdfrwt>
<totfact> 0.11296498E+00</totfact>
</mgrwt>
</event>
<event>
12    1  0.3203156E-008  0.8293561E+03  0.7818608E-02  0.9518471E-01
          2   -1    0    0  501    0  0.00000000000E+00  0.00000000000E+00  0.22756804839E+04  0.22756804839E+04  0.00000000000E+00 0. -1.
         -2   -1    0    0    0  501 -0.00000000000E+00 -0.00000000000E+00 -0.40222344105E+03  0.40222344105E+03  0.00000000000E+00 0.  1.
         23    2    1    2    0    0  0.15668073956E+03 -0.72960509533E+03  0.14452715668E+04  0.16289436233E+04  0.88175828042E+02 0.  0.
    5000000    2    1    2    0    0 -0.15668073956E+03  0.72960509533E+03  0.42818547609E+03  0.10489603017E+04  0.60008538009E+03 0.  0.
         23    2    4    4    0    0  0.17856539677E+03  0.25222743806E+03  0.30917564072E+03  0.44701422971E+03  0.93423034176E+02 0.  0.
         23    2    4    4    0    0 -0.33524613633E+03  0.47737765727E+03  0.11900983537E+03  0.60194607202E+03  0.88861314012E+02 0.  0.
          5    1    3    3  502    0  0.98493994957E+02 -0.25766377441E+03  0.52777543099E+03  0.59553394802E+03  0.47000000000E+01 0. -1.
         -5    1    3    3    0  502  0.58186744604E+02 -0.47194132092E+03  0.91749613581E+03  0.10334096752E+04  0.47000000000E+01 0.  1.
         11    1    5    5    0    0  0.93453717223E+02  0.70307404471E+02  0.15309567301E+03  0.19265257195E+03  0.00000000000E+00 0. -1.
        -11    1    5    5    0    0  0.85111679546E+02  0.18192003359E+03  0.15607996771E+03  0.25436165776E+03  0.00000000000E+00 0.  1.
          4    1    6    6  503    0 -0.22340059773E+03  0.38187961180E+03  0.10071262946E+03  0.45374320789E+03  0.00000000000E+00 0. -1.
         -4    1    6    6    0  503 -0.11184553860E+03  0.95498045468E+02  0.18297205909E+02  0.14820286413E+03  0.00000000000E+00 0.  1.
<mgrwt>
<rscale>  0 0.82935614E+03</rscale>
<asrwt>0</asrwt>
<pdfrwt beam="1">  1        2 0.35010468E+00 0.82935614E+03</pdfrwt>
<pdfrwt beam="2">  1       -2 0.61880531E-01 0.82935614E+03</pdfrwt>
<totfact> 0.11690258E+01</totfact>
</mgrwt>
</event>
<event>
12    1  0.3203156E-008  0.7447788E+03  0.7818608E-02  0.9643577E-01
          2   -1    0    0  501    0  0.00000000000E+00  0.00000000000E+00  0.25894709544E+04  0.25894709544E+04  0.00000000000E+00 0. -1.
         -2   -1    0    0    0  501 -0.00000000000E+00 -0.00000000000E+00 -0.24794127188E+03  0.24794127188E+03  0.00000000000E+00 0.  1.
         23    2    1    2    0    0  0.49552954544E+03 -0.39026644790E+03  0.53526371938E+03  0.83210689454E+03  0.89650454075E+02 0.  0.
    5000000    2    1    2    0    0 -0.49552954544E+03  0.39026644790E+03  0.18062659632E+04  0.20053053318E+04  0.60066239532E+03 0.  0.
         23    2    4    4    0    0 -0.48267548864E+03  0.28238238219E+02  0.92230400874E+03  0.10453458435E+04  0.91270052682E+02 0.  0.
         23    2    4    4    0    0 -0.12854056792E+02  0.36202820968E+03  0.88396195443E+03  0.95995948829E+03  0.94360112794E+02 0.  0.
          5    1    3    3  502    0  0.43797878369E+03 -0.30593378817E+03  0.43543153440E+03  0.68923407407E+03  0.47000000000E+01 0. -1.
         -5    1    3    3    0  502  0.57550761744E+02 -0.84332659721E+02  0.99832184977E+02  0.14287282047E+03  0.47000000000E+01 0.  1.
         13    1    5    5    0    0 -0.10620327692E+03 -0.28591281100E+02  0.23999782693E+03  0.26399915589E+03  0.00000000000E+00 0. -1.
        -13    1    5    5    0    0 -0.37647221173E+03  0.56829519319E+02  0.68230618181E+03  0.78134668759E+03  0.00000000000E+00 0.  1.
          3    1    6    6  503    0  0.13303044958E+01  0.30572494911E+02  0.16934893489E+03  0.17209157127E+03  0.00000000000E+00 0. -1.
         -3    1    6    6    0  503 -0.14184361288E+02  0.33145571477E+03  0.71461301955E+03  0.78786791701E+03  0.00000000000E+00 0.  1.
<mgrwt>
<rscale>  0 0.74477878E+03</rscale>
<asrwt>0</asrwt>
<pdfrwt beam="1">  1        2 0.39838013E+00 0.74477878E+03</pdfrwt>
<pdfrwt beam="2">  1       -2 0.38144813E-01 0.74477878E+03</pdfrwt>
<totfact> 0.21002599E+01</totfact>
</mgrwt>
</event>
<event>
12    1  0.3203156E-008  0.1953119E+04  0.7818608E-02  0.8628858E-01
         -2   -1    0    0    0  501 -0.00000000000E+00  0.00000000000E+00  0.15987928390E+04  0.15987928390E+04  0.00000000000E+00 0.  1.
          2   -1    0    0  501    0  0.00000000000E+00 -0.00000000000E+00 -0.30714567569E+04  0.30714567569E+04  0.00000000000E+00 0. -1.
         23    2    1    2    0    0 -0.19073255505E+04  0.10406633822E+03 -0.18178468056E+04  0.26385021416E+04  0.91684155807E+02 0.  0.
    5000000    2    1    2    0    0  0.19073255505E+04 -0.10406633822E+03  0.34518288768E+03  0.20317474543E+04  0.60010493558E+03 0.  0.
         23    2    4    4    0    0  0.60359426113E+03  0.22972698392E+03  0.14812060742E+03  0.66855931342E+03  0.89057969907E+02 0.  0.
         23    2    4    4    0    0  0.13037312894E+04 -0.33379332214E+03  0.19706228026E+03  0.13631881409E+04  0.91187215769E+02 0.  0.
          5    1    3    3  502    0 -0.18140184560E+04  0.96456829516E+02 -0.17533394364E+04  0.25247154588E+04  0.47000000000E+01 0. -1.
         -5    1    3    3    0  502 -0.93307094496E+02  0.76095086999E+01 -0.64507369125E+02  0.11378668278E+03  0.47000000000E+01 0.  1.
         11    1    5    5    0    0  0.40672767593E+03  0.12501075766E+03  0.12961240570E+03  0.44480834930E+03  0.00000000000E+00 0. -1.
        -11    1    5    5    0    0  0.19686658520E+03  0.10471622626E+03  0.18508201716E+02  0.22375096411E+03  0.00000000000E+00 0.  1.
          3    1    6    6  503    0  0.35428459237E+03 -0.60344278955E+02  0.80536952313E+02  0.36830042775E+03  0.00000000000E+00 0. -1.
         -3    1    6    6    0  503  0.94944669699E+03 -0.27344904318E+03  0.11652532795E+03  0.99488771311E+03  0.00000000000E+00 0.  1.
<mgrwt>
<rscale>  0 0.19531195E+04</rscale>
<asrwt>0</asrwt>
<pdfrwt beam="1">  1        2 0.47253180E+00 0.19531195E+04</pdfrwt>
<pdfrwt beam="2">  1       -2 0.24596813E+00 0.19531195E+04</pdfrwt>
<totfact> 0.95314891E-02</totfact>
</mgrwt>
</event>
<event>
12    1  0.3519759E-008  0.1458073E+04  0.7818608E-02  0.8912823E-01
         -1   -1    0    0    0  501 -0.00000000000E+00  0.00000000000E+00  0.97296695449E+03  0.97296695449E+03  0.00000000000E+00 0.  1.
          1   -1    0    0  501    0  0.00000000000E+00 -0.00000000000E+00 -0.23079440210E+04  0.23079440210E+04  0.00000000000E+00 0. -1.
         23    2    1    2    0    0 -0.91839834655E+02 -0.14032630763E+04 -0.96486684014E+03  0.17078130447E+04  0.89864119918E+02 0.  0.
    5000000    2    1    2    0    0  0.91839834655E+02  0.14032630763E+04 -0.37011022633E+03  0.15730979307E+04  0.60006141637E+03 0.  0.
         23    2    4    4    0    0  0.27626549219E+03  0.40446259766E+03 -0.33189089868E+02  0.49920866237E+03  0.90527110957E+02 0.  0.
         23    2    4    4    0    0 -0.18442565754E+03  0.99880047864E+03 -0.33692113646E+03  0.10738892683E+04  0.90039375585E+02 0.  0.
          5    1    3    3  502    0 -0.77222255580E+02 -0.86441569209E+03 -0.64117236725E+03  0.10790282017E+04  0.47000000000E+01 0. -1.
         -5    1    3    3    0  502 -0.14617579075E+02 -0.53884738421E+03 -0.32369447289E+03  0.62878484307E+03  0.47000000000E+01 0.  1.
         13    1    5    5    0    0  0.11032588536E+03  0.20527893993E+03  0.22219404482E+02  0.23410456231E+03  0.00000000000E+00 0.  1.
        -13    1    5    5    0    0  0.16593960683E+03  0.19918365772E+03 -0.55408494350E+02  0.26510410005E+03  0.00000000000E+00 0. -1.
          1    1    6    6  503    0 -0.12809264223E+03  0.80360528057E+03 -0.23746654269E+03  0.84769070471E+03  0.00000000000E+00 0. -1.
         -1    1    6    6    0  503 -0.56333015309E+02  0.19519519807E+03 -0.99454593767E+02  0.22619856362E+03  0.00000000000E+00 0.  1.
<mgrwt>
<rscale>  0 0.14580727E+04</rscale>
<asrwt>0</asrwt>
<pdfrwt beam="1">  1        1 0.35506831E+00 0.14580727E+04</pdfrwt>
<pdfrwt beam="2">  1       -1 0.14968722E+00 0.14580727E+04</pdfrwt>
<totfact> 0.61530395E-01</totfact>
</mgrwt>
</event>
<event>
12    1  0.3203156E-008  0.5716733E+03  0.7818608E-02  0.9965983E-01
          2   -1    0    0  501    0  0.00000000000E+00  0.00000000000E+00  0.17609488820E+04  0.17609488820E+04  0.00000000000E+00 0. -1.
         -2   -1    0    0    0  501 -0.00000000000E+00 -0.00000000000E+00 -0.25448172525E+03  0.25448172525E+03  0.00000000000E+00 0.  1.
         23    2    1    2    0    0 -0.48320704869E+03 -0.16659962844E+03  0.39543515696E+03  0.65315877016E+03  0.94883758264E+02 0.  0.
    5000000    2    1    2    0    0  0.48320704869E+03  0.16659962844E+03  0.11110319998E+04  0.13622718371E+04  0.60012329188E+03 0.  0.
         23    2    4    4    0    0  0.44583329299E+03  0.24647862366E+03  0.11271545332E+04  0.12403265027E+04  0.91724885102E+02 0.  0.
         23    2    4    4    0    0  0.37373755697E+02 -0.79878995223E+02 -0.16122533377E+02  0.12194533440E+03  0.82663637757E+02 0.  0.
          5    1    3    3  502    0 -0.12623998985E+03 -0.71733016025E+01  0.70924458706E+02  0.14505295631E+03  0.47000000000E+01 0. -1.
         -5    1    3    3    0  502 -0.35696705884E+03 -0.15942632684E+03  0.32451069825E+03  0.50810581385E+03  0.47000000000E+01 0.  1.
         13    1    5    5    0    0  0.22765881959E+03  0.88729338185E+02  0.61405300408E+03  0.66088011425E+03  0.00000000000E+00 0. -1.
        -13    1    5    5    0    0  0.21817447340E+03  0.15774928548E+03  0.51310152912E+03  0.57944638846E+03  0.00000000000E+00 0.  1.
          3    1    6    6  503    0 -0.10886133657E+02 -0.58465948739E+02  0.14087040760E+02  0.61116444476E+02  0.00000000000E+00 0. -1.
         -3    1    6    6    0  503  0.48259889354E+02 -0.21413046484E+02 -0.30209574137E+02  0.60828889927E+02  0.00000000000E+00 0.  1.
<mgrwt>
<rscale>  0 0.57167329E+03</rscale>
<asrwt>0</asrwt>
<pdfrwt beam="1">  1        2 0.27091520E+00 0.57167329E+03</pdfrwt>
<pdfrwt beam="2">  1       -2 0.39151036E-01 0.57167329E+03</pdfrwt>
<totfact> 0.58648571E+01</totfact>
</mgrwt>
</event>
<event>
12    1  0.3203156E-008  0.3587719E+03  0.7818608E-02  0.1059071E+00
         -1   -1    0    0    0  501 -0.00000000000E+00  0.00000000000E+00  0.19697759056E+03  0.19697759056E+03  0.00000000000E+00 0.  1.
          1   -1    0    0  501    0  0.00000000000E+00 -0.00000000000E+00 -0.13358154033E+04  0.13358154033E+04  0.00000000000E+00 0. -1.
         23    2    1    2    0    0  0.20749563793E+03 -0.16382937158E+03 -0.67089134558E+03  0.72729175959E+03  0.94676307671E+02 0.  0.
    5000000    2    1    2    0    0 -0.20749563793E+03  0.16382937158E+03 -0.46794646715E+03  0.80550123428E+03  0.59996986553E+03 0.  0.
         23    2    4    4    0    0 -0.28937859163E+03  0.19793904894E+03 -0.46862296224E+02  0.36530567016E+03  0.91281550447E+02 0.  0.
         23    2    4    4    0    0  0.81882953705E+02 -0.34109677353E+02 -0.42108417093E+03  0.44019556412E+03  0.92692866326E+02 0.  0.
          5    1    3    3  502    0  0.82704781393E+02 -0.47491437109E+02 -0.36203602653E+03  0.37441646862E+03  0.47000000000E+01 0. -1.
         -5    1    3    3    0  502  0.12479085654E+03 -0.11633793447E+03 -0.30885531905E+03  0.35287529097E+03  0.47000000000E+01 0.  1.
         13    1    5    5    0    0 -0.82212565982E+02  0.11090922848E+02 -0.17514260922E+02  0.84785988881E+02  0.00000000000E+00 0.  1.
        -13    1    5    5    0    0 -0.20716602565E+03  0.18684812609E+03 -0.29348035302E+02  0.28051968128E+03  0.00000000000E+00 0. -1.
          3    1    6    6  503    0  0.58822205074E+02 -0.18747070292E+02 -0.97338000758E+02  0.11526574012E+03  0.00000000000E+00 0. -1.
         -3    1    6    6    0  503  0.23060748630E+02 -0.15362607060E+02 -0.32374617017E+03  0.32492982400E+03  0.00000000000E+00 0.  1.
<mgrwt>
<rscale>  0 0.35877186E+03</rscale>
<asrwt>0</asrwt>
<pdfrwt beam="1">  1        1 0.20551006E+00 0.35877186E+03</pdfrwt>
<pdfrwt beam="2">  1       -1 0.30304245E-01 0.35877186E+03</pdfrwt>
<totfact> 0.91935092E+01</totfact>
</mgrwt>
</event>
<event>
12    1  0.3203156E-008  0.7260782E+03  0.7818608E-02  0.9673646E-01
         -2   -1    0    0    0  501 -0.00000000000E+00  0.00000000000E+00  0.47053536295E+03  0.47053536295E+03  0.00000000000E+00 0. -1.
          2   -1    0    0  501    0  0.00000000000E+00 -0.00000000000E+00 -0.14068099155E+04  0.14068099155E+04  0.00000000000E+00 0.  1.
         23    2    1    2    0    0  0.69169304134E+03 -0.91177481602E+02 -0.34763960583E+03  0.78490420475E+03  0.92025640468E+02 0.  0.
    5000000    2    1    2    0    0 -0.69169304134E+03  0.91177481602E+02 -0.58863494670E+03  0.10924410737E+04  0.60015314910E+03 0.  0.
         23    2    4    4    0    0 -0.30612020885E+03  0.18194808240E+03 -0.57951017639E+03  0.68627210042E+03  0.91228637632E+02 0.  0.
         23    2    4    4    0    0 -0.38557283249E+03 -0.90770600802E+02 -0.91247703100E+01  0.40616897325E+03  0.89354699211E+02 0.  0.
          5    1    3    3  502    0  0.55103546432E+03 -0.71330032687E+02 -0.31626370418E+03  0.63935348367E+03  0.47000000000E+01 0. -1.
         -5    1    3    3    0  502  0.14065757703E+03 -0.19847448915E+02 -0.31375901646E+02  0.14555072108E+03  0.47000000000E+01 0.  1.
         13    1    5    5    0    0 -0.82695881168E+02  0.50110414501E+02 -0.24184318849E+03  0.26045688746E+03  0.00000000000E+00 0. -1.
        -13    1    5    5    0    0 -0.22342432769E+03  0.13183766790E+03 -0.33766698790E+03  0.42581521297E+03  0.00000000000E+00 0.  1.
          4    1    6    6  503    0 -0.16152932193E+03 -0.17184666632E+02  0.35225169957E+02  0.16621626638E+03  0.00000000000E+00 0. -1.
         -4    1    6    6    0  503 -0.22404351056E+03 -0.73585934170E+02 -0.44349940267E+02  0.23995270687E+03  0.00000000000E+00 0.  1.
<mgrwt>
<rscale>  0 0.72607816E+03</rscale>
<asrwt>0</asrwt>
<pdfrwt beam="1">  1        2 0.21643229E+00 0.72607816E+03</pdfrwt>
<pdfrwt beam="2">  1       -2 0.72390056E-01 0.72607816E+03</pdfrwt>
<totfact> 0.25381729E+01</totfact>
</mgrwt>
</event>
<event>
12    1  0.3203156E-008  0.1263384E+04  0.7818608E-02  0.9059117E-01
          1   -1    0    0  501    0  0.00000000000E+00  0.00000000000E+00  0.13489577018E+04  0.13489577018E+04  0.00000000000E+00 0. -1.
         -1   -1    0    0    0  501 -0.00000000000E+00 -0.00000000000E+00 -0.19372510190E+04  0.19372510190E+04  0.00000000000E+00 0.  1.
         23    2    1    2    0    0  0.12093007044E+04  0.34761850775E+03 -0.12207509066E+04  0.17554230250E+04  0.89612500056E+02 0.  0.
    5000000    2    1    2    0    0 -0.12093007044E+04 -0.34761850775E+03  0.63245758944E+03  0.15307856958E+04  0.60004618426E+03 0.  0.
         23    2    4    4    0    0 -0.22128246713E+03 -0.36387406706E+02  0.39651421063E+03  0.46452522240E+03  0.90940581648E+02 0.  0.
         23    2    4    4    0    0 -0.98801823731E+03 -0.31123110104E+03  0.23594337881E+03  0.10662604734E+04  0.90538851029E+02 0.  0.
          5    1    3    3  502    0  0.92563383883E+03  0.22650475040E+03 -0.92710773307E+03  0.13295312122E+04  0.47000000000E+01 0. -1.
         -5    1    3    3    0  502  0.28366686561E+03  0.12111375735E+03 -0.29364317354E+03  0.42589181282E+03  0.47000000000E+01 0.  1.
         13    1    5    5    0    0 -0.15628042562E+03 -0.38788887559E+02  0.19564820909E+03  0.25338976094E+03  0.00000000000E+00 0.  1.
        -13    1    5    5    0    0 -0.65002041505E+02  0.24014808528E+01  0.20086600154E+03  0.21113546146E+03  0.00000000000E+00 0. -1.
          3    1    6    6  503    0 -0.69602290834E+03 -0.25892292575E+03  0.18436432422E+03  0.76516610907E+03  0.00000000000E+00 0. -1.
         -3    1    6    6    0  503 -0.29199532897E+03 -0.52308175288E+02  0.51579054592E+02  0.30109436430E+03  0.00000000000E+00 0.  1.
<mgrwt>
<rscale>  0 0.12633835E+04</rscale>
<asrwt>0</asrwt>
<pdfrwt beam="1">  1        1 0.20753196E+00 0.12633835E+04</pdfrwt>
<pdfrwt beam="2">  1       -1 0.29803862E+00 0.12633835E+04</pdfrwt>
<totfact> 0.27681843E-01</totfact>
</mgrwt>
</event>
<event>
12    1  0.3203156E-008  0.5297993E+03  0.7818608E-02  0.1006281E+00
         -2   -1    0    0    0  501 -0.00000000000E+00  0.00000000000E+00  0.38355554975E+03  0.38355554975E+03  0.00000000000E+00 0.  1.
          2   -1    0    0  501    0  0.00000000000E+00 -0.00000000000E+00 -0.16890084085E+04  0.16890084085E+04  0.00000000000E+00 0. -1.
         23    2    1    2    0    0  0.14979599922E+03 -0.38161114657E+03  0.14971791749E+03  0.44604367391E+03  0.92052135502E+02 0.  0.
    5000000    2    1    2    0    0 -0.14979599922E+03  0.38161114657E+03 -0.14551707762E+04  0.16265202843E+04  0.59998361541E+03 0.  0.
         23    2    4    4    0    0  0.17178723601E+03  0.22659614535E+03 -0.34353703445E+03  0.45547617689E+03  0.92650883070E+02 0.  0.
         23    2    4    4    0    0 -0.32158323523E+03  0.15501500122E+03 -0.11116337418E+04  0.11710441074E+04  0.90384168462E+02 0.  0.
          5    1    3    3  502    0  0.80330908102E+02 -0.21522974418E+03  0.35364425002E+02  0.23248576329E+03  0.47000000000E+01 0. -1.
         -5    1    3    3    0  502  0.69465091122E+02 -0.16638140239E+03  0.11435349249E+03  0.21355791062E+03  0.47000000000E+01 0.  1.
         13    1    5    5    0    0  0.85755962353E+01 -0.25929777172E+01  0.26752303082E+01  0.93499326968E+01  0.00000000000E+00 0. -1.
        -13    1    5    5    0    0  0.16321163977E+03  0.22918912307E+03 -0.34621226476E+03  0.44612624420E+03  0.00000000000E+00 0.  1.
          1    1    6    6  503    0 -0.16070818339E+03  0.55774840342E+02 -0.65734917490E+03  0.67900360144E+03  0.00000000000E+00 0. -1.
         -1    1    6    6    0  503 -0.16087505184E+03  0.99240160875E+02 -0.45428456686E+03  0.49204050598E+03  0.00000000000E+00 0.  1.
<mgrwt>
<rscale>  0 0.52979929E+03</rscale>
<asrwt>0</asrwt>
<pdfrwt beam="1">  1        2 0.25984745E+00 0.52979929E+03</pdfrwt>
<pdfrwt beam="2">  1       -2 0.59008546E-01 0.52979929E+03</pdfrwt>
<totfact> 0.28293327E+01</totfact>
</mgrwt>
</event>
<event>
12    1  0.3203156E-008  0.1243916E+04  0.7818608E-02  0.9075262E-01
         -2   -1    0    0    0  501 -0.00000000000E+00  0.00000000000E+00  0.20759333358E+04  0.20759333358E+04  0.00000000000E+00 0.  1.
          2   -1    0    0  501    0  0.00000000000E+00 -0.00000000000E+00 -0.95915467483E+03  0.95915467483E+03  0.00000000000E+00 0. -1.
         23    2    1    2    0    0 -0.54886212913E+03 -0.11138069485E+04  0.10914421113E+04  0.16557122153E+04  0.91222269386E+02 0.  0.
    5000000    2    1    2    0    0  0.54886212913E+03  0.11138069485E+04  0.25336549666E+02  0.13793757953E+04  0.60018337921E+03 0.  0.
         23    2    4    4    0    0  0.24306680437E+03  0.48494195569E+03  0.29381619855E+03  0.62474412389E+03  0.98626010967E+02 0.  0.
         23    2    4    4    0    0  0.30579532476E+03  0.62886499276E+03 -0.26847964888E+03  0.75463167140E+03  0.91682483847E+02 0.  0.
          5    1    3    3  502    0 -0.18873483202E+03 -0.30993228046E+03  0.35292833351E+03  0.50622065730E+03  0.47000000000E+01 0. -1.
         -5    1    3    3    0  502 -0.36012729711E+03 -0.80387466799E+03  0.73851377777E+03  0.11494915580E+04  0.47000000000E+01 0.  1.
         13    1    5    5    0    0  0.34813254389E+02  0.41744177818E+02  0.13615438411E+01  0.54372721694E+02  0.00000000000E+00 0. -1.
        -13    1    5    5    0    0  0.20825354998E+03  0.44319777787E+03  0.29245465471E+03  0.57037140220E+03  0.00000000000E+00 0.  1.
          4    1    6    6  503    0  0.38867352791E+02  0.10712692056E+03 -0.79160253479E+02  0.13875587899E+03  0.00000000000E+00 0. -1.
         -4    1    6    6    0  503  0.26692797197E+03  0.52173807220E+03 -0.18931939540E+03  0.61587579241E+03  0.00000000000E+00 0.  1.
<mgrwt>
<rscale>  0 0.12439164E+04</rscale>
<asrwt>0</asrwt>
<pdfrwt beam="1">  1        2 0.14756226E+00 0.12439164E+04</pdfrwt>
<pdfrwt beam="2">  1       -2 0.31937436E+00 0.12439164E+04</pdfrwt>
<totfact> 0.63085379E-01</totfact>
</mgrwt>
</event>
<event>
12    1  0.3203156E-008  0.5828637E+03  0.7818608E-02  0.9941610E-01
          1   -1    0    0  501    0  0.00000000000E+00  0.00000000000E+00  0.17030661282E+04  0.17030661282E+04  0.00000000000E+00 0. -1.
         -1   -1    0    0    0  501 -0.00000000000E+00 -0.00000000000E+00 -0.29751741217E+03  0.29751741217E+03  0.00000000000E+00 0.  1.
         23    2    1    2    0    0  0.38266836717E+03 -0.38556154787E+03  0.87083074287E+03  0.10304058566E+04  0.91089297586E+02 0.  0.
    5000000    2    1    2    0    0 -0.38266836717E+03  0.38556154787E+03  0.53471797313E+03  0.97017768375E+03  0.60019050378E+03 0.  0.
         23    2    4    4    0    0 -0.19598264213E+03  0.35442128612E+03  0.21451556181E+02  0.41588643747E+03  0.92074510812E+02 0.  0.
         23    2    4    4    0    0 -0.18668572504E+03  0.31140261747E+02  0.51326641695E+03  0.55429124627E+03  0.89303387920E+02 0.  0.
          5    1    3    3  502    0  0.80865764993E+02 -0.10708130403E+03  0.28407163649E+03  0.31420449119E+03  0.47000000000E+01 0. -1.
         -5    1    3    3    0  502  0.30180260218E+03 -0.27848024383E+03  0.58675910638E+03  0.71620136540E+03  0.47000000000E+01 0.  1.
         13    1    5    5    0    0 -0.13068889009E+03  0.14404891344E+03 -0.73372388418E+00  0.19449990696E+03  0.00000000000E+00 0.  1.
        -13    1    5    5    0    0 -0.65293752041E+02  0.21037237268E+03  0.22185280065E+02  0.22138653051E+03  0.00000000000E+00 0. -1.
          2    1    6    6  503    0 -0.91034894622E+02 -0.25892758164E+02  0.28507307823E+03  0.30037384522E+03  0.00000000000E+00 0.  1.
         -2    1    6    6    0  503 -0.95650830417E+02  0.57033019911E+02  0.22819333872E+03  0.25391740105E+03  0.00000000000E+00 0. -1.
<mgrwt>
<rscale>  0 0.58286372E+03</rscale>
<asrwt>0</asrwt>
<pdfrwt beam="1">  1        1 0.26201017E+00 0.58286372E+03</pdfrwt>
<pdfrwt beam="2">  1       -1 0.45771910E-01 0.58286372E+03</pdfrwt>
<totfact> 0.23901514E+01</totfact>
</mgrwt>
</event>
<event>
12    1  0.3203156E-008  0.9716451E+03  0.7818608E-02  0.9340203E-01
          2   -1    0    0  501    0  0.00000000000E+00  0.00000000000E+00  0.83333081960E+03  0.83333081960E+03  0.00000000000E+00 0. -1.
         -2   -1    0    0    0  501 -0.00000000000E+00 -0.00000000000E+00 -0.11608598479E+04  0.11608598479E+04  0.00000000000E+00 0.  1.
         23    2    1    2    0    0  0.88149466221E+03  0.19929885040E+02 -0.27357359844E+03  0.92758378191E+03  0.90217065318E+02 0.  0.
    5000000    2    1    2    0    0 -0.88149466221E+03 -0.19929885040E+02 -0.53955429829E+02  0.10666068856E+04  0.59775331042E+03 0.  0.
         23    2    4    4    0    0 -0.19540047062E+02  0.15447210434E+03 -0.14570021667E+02  0.18224769053E+03  0.93586808441E+02 0.  0.
         23    2    4    4    0    0 -0.86195461515E+03 -0.17440198938E+03 -0.39385408161E+02  0.88435919504E+03  0.84605927767E+02 0.  0.
          5    1    3    3  502    0  0.34135012088E+03 -0.19117547880E+02 -0.69980984286E+02  0.34900546389E+03  0.47000000000E+01 0. -1.
         -5    1    3    3    0  502  0.54014454133E+03  0.39047432919E+02 -0.20359261415E+03  0.57857831802E+03  0.47000000000E+01 0.  1.
         11    1    5    5    0    0  0.36511107315E+02  0.64474781307E+02 -0.17688643239E+02  0.76177073202E+02  0.00000000000E+00 0.  1.
        -11    1    5    5    0    0 -0.56051154377E+02  0.89997323029E+02  0.31186215718E+01  0.10607061733E+03  0.00000000000E+00 0. -1.
          4    1    6    6  503    0 -0.34341684444E+03 -0.80122408263E+02 -0.55999913787E+02  0.35705842616E+03  0.00000000000E+00 0.  1.
         -4    1    6    6    0  503 -0.51853777071E+03 -0.94279581112E+02  0.16614505626E+02  0.52730076888E+03  0.00000000000E+00 0. -1.
<mgrwt>
<rscale>  0 0.97164507E+03</rscale>
<asrwt>0</asrwt>
<pdfrwt beam="1">  1        2 0.12820474E+00 0.97164507E+03</pdfrwt>
<pdfrwt beam="2">  1       -2 0.17859382E+00 0.97164507E+03</pdfrwt>
<totfact> 0.60135830E+00</totfact>
</mgrwt>
</event>
<event>
12    1  0.3203156E-008  0.6951241E+03  0.7818608E-02  0.9725607E-01
         -2   -1    0    0    0  501 -0.00000000000E+00  0.00000000000E+00  0.12945216550E+04  0.12945216550E+04  0.00000000000E+00 0. -1.
          2   -1    0    0  501    0  0.00000000000E+00 -0.00000000000E+00 -0.77511763847E+03  0.77511763847E+03  0.00000000000E+00 0.  1.
         23    2    1    2    0    0 -0.54396353212E+03 -0.35054096476E+03  0.89696049068E+03  0.11097221692E+04  0.90387381120E+02 0.  0.
    5000000    2    1    2    0    0  0.54396353212E+03  0.35054096476E+03 -0.37755647414E+03  0.95991712432E+03  0.60009724391E+03 0.  0.
         23    2    4    4    0    0  0.54191459711E+03  0.35339734118E+03 -0.90937411899E+02  0.65960813393E+03  0.90841434091E+02 0.  0.
         23    2    4    4    0    0  0.20489350076E+01 -0.28563764202E+01 -0.28661906224E+03  0.30030899039E+03  0.89569223783E+02 0.  0.
          5    1    3    3  502    0 -0.16297409568E+03 -0.81247023513E+02  0.19505047230E+03  0.26688651415E+03  0.47000000000E+01 0. -1.
         -5    1    3    3    0  502 -0.38098943643E+03 -0.26929394125E+03  0.70191001839E+03  0.84283565502E+03  0.47000000000E+01 0.  1.
         13    1    5    5    0    0  0.31553301660E+03  0.25797936406E+03 -0.61385516300E+02  0.41216819196E+03  0.00000000000E+00 0. -1.
        -13    1    5    5    0    0  0.22638158050E+03  0.95417977118E+02 -0.29551895599E+02  0.24743994197E+03  0.00000000000E+00 0.  1.
          2    1    6    6  503    0  0.32880684250E+02  0.29066206669E+02 -0.11636583662E+03  0.12436636081E+03  0.00000000000E+00 0. -1.
         -2    1    6    6    0  503 -0.30831749242E+02 -0.31922583089E+02 -0.17025322562E+03  0.17594262958E+03  0.00000000000E+00 0.  1.
<mgrwt>
<rscale>  0 0.69512411E+03</rscale>
<asrwt>0</asrwt>
<pdfrwt beam="1">  1        2 0.11924887E+00 0.69512411E+03</pdfrwt>
<pdfrwt beam="2">  1       -2 0.19915718E+00 0.69512411E+03</pdfrwt>
<totfact> 0.49800950E+00</totfact>
</mgrwt>
</event>
<event>
12    1  0.3203156E-008  0.7975040E+03  0.7818608E-02  0.9563637E-01
         -2   -1    0    0    0  501 -0.00000000000E+00  0.00000000000E+00  0.11018421149E+04  0.11018421149E+04  0.00000000000E+00 0.  1.
          2   -1    0    0  501    0  0.00000000000E+00 -0.00000000000E+00 -0.79279132364E+03  0.79279132364E+03  0.00000000000E+00 0. -1.
         23    2    1    2    0    0 -0.11327077195E+03  0.77069741730E+03 -0.16791661463E+03  0.80207503456E+03  0.91233737146E+02 0.  0.
    5000000    2    1    2    0    0  0.11327077195E+03 -0.77069741730E+03  0.47696740590E+03  0.10925584040E+04  0.59948409738E+03 0.  0.
         23    2    4    4    0    0  0.64395059038E+02 -0.59533929488E+02  0.33665548391E+03  0.36034382173E+03  0.93913484773E+02 0.  0.
         23    2    4    4    0    0  0.48875712912E+02 -0.71116348781E+03  0.14031192199E+03  0.73221458225E+03  0.91150520054E+02 0.  0.
          5    1    3    3  502    0 -0.12675358616E+03  0.69037857228E+03 -0.16130481777E+03  0.72022939325E+03  0.47000000000E+01 0. -1.
         -5    1    3    3    0  502  0.13482814211E+02  0.80318845013E+02 -0.66117968607E+01  0.81845641307E+02  0.47000000000E+01 0.  1.
         11    1    5    5    0    0  0.29372506247E+02 -0.68935042048E+01  0.17277262843E+02  0.34767345812E+02  0.00000000000E+00 0. -1.
        -11    1    5    5    0    0  0.35022552791E+02 -0.52640425283E+02  0.31937822107E+03  0.32557647592E+03  0.00000000000E+00 0.  1.
          1    1    6    6  503    0  0.72498373457E+02 -0.44259432309E+03  0.10142897442E+03  0.45981907947E+03  0.00000000000E+00 0. -1.
         -1    1    6    6    0  503 -0.23622660544E+02 -0.26856916471E+03  0.38882947568E+02  0.27239550278E+03  0.00000000000E+00 0.  1.
<mgrwt>
<rscale>  0 0.79750396E+03</rscale>
<asrwt>0</asrwt>
<pdfrwt beam="1">  1        2 0.12196790E+00 0.79750396E+03</pdfrwt>
<pdfrwt beam="2">  1       -2 0.16951417E+00 0.79750396E+03</pdfrwt>
<totfact> 0.75816444E+00</totfact>
</mgrwt>
</event>
<event>
12    1  0.3203156E-008  0.6330704E+03  0.7818608E-02  0.9839075E-01
         -4   -1    0    0    0  501 -0.00000000000E+00  0.00000000000E+00  0.13629538389E+04  0.13629538389E+04  0.00000000000E+00 0.  1.
          4   -1    0    0  501    0  0.00000000000E+00 -0.00000000000E+00 -0.38159518814E+03  0.38159518814E+03  0.00000000000E+00 0. -1.
         23    2    1    2    0    0 -0.48685739233E+03 -0.28495053549E+03  0.62452866479E+03  0.84695446336E+03  0.95230676386E+02 0.  0.
    5000000    2    1    2    0    0  0.48685739233E+03  0.28495053549E+03  0.35682998593E+03  0.89759456365E+03  0.60010118621E+03 0.  0.
         23    2    4    4    0    0  0.50756992635E+02  0.23914389113E+03 -0.78764498977E+02  0.27314853924E+03  0.92952704235E+02 0.  0.
         23    2    4    4    0    0  0.43610039969E+03  0.45806644360E+02  0.43559448491E+03  0.62444602441E+03  0.88929606076E+02 0.  0.
          5    1    3    3  502    0 -0.40666404599E+03 -0.21300545369E+03  0.54706512303E+03  0.71417736483E+03  0.47000000000E+01 0. -1.
         -5    1    3    3    0  502 -0.80193346341E+02 -0.71945081798E+02  0.77463541756E+02  0.13277709853E+03  0.47000000000E+01 0.  1.
         11    1    5    5    0    0  0.74598656439E+02  0.16242156925E+03 -0.71410561499E+02  0.19247128095E+03  0.00000000000E+00 0. -1.
        -11    1    5    5    0    0 -0.23841663805E+02  0.76722321880E+02 -0.73539374781E+01  0.80677258283E+02  0.00000000000E+00 0.  1.
          3    1    6    6  503    0  0.39301564844E+03  0.52580386290E+02  0.35226480829E+03  0.53039277154E+03  0.00000000000E+00 0. -1.
         -3    1    6    6    0  503  0.43084751254E+02 -0.67737419300E+01  0.83329676613E+02  0.94053252866E+02  0.00000000000E+00 0.  1.
<mgrwt>
<rscale>  0 0.63307044E+03</rscale>
<asrwt>0</asrwt>
<pdfrwt beam="1">  1        4 0.58706953E-01 0.63307044E+03</pdfrwt>
<pdfrwt beam="2">  1       -4 0.20968520E+00 0.63307044E+03</pdfrwt>
<totfact> 0.61906620E-01</totfact>
</mgrwt>
</event>
<event>
12    1  0.3203156E-008  0.2119256E+04  0.7818608E-02  0.8552808E-01
         -2   -1    0    0    0  501 -0.00000000000E+00  0.00000000000E+00  0.19698752928E+04  0.19698752928E+04  0.00000000000E+00 0.  1.
          2   -1    0    0  501    0  0.00000000000E+00 -0.00000000000E+00 -0.23936741357E+04  0.23936741357E+04  0.00000000000E+00 0. -1.
         23    2    1    2    0    0 -0.16435700636E+04 -0.13203918625E+04 -0.50588753701E+03  0.21700812937E+04  0.92592639676E+02 0.  0.
    5000000    2    1    2    0    0  0.16435700636E+04  0.13203918625E+04  0.82088694131E+02  0.21934681347E+04  0.59983887823E+03 0.  0.
         23    2    4    4    0    0  0.49250309884E+03  0.55664374703E+03 -0.21056660721E+03  0.77822781155E+03  0.94279728021E+02 0.  0.
         23    2    4    4    0    0  0.11510669647E+04  0.76374811546E+03  0.29265530134E+03  0.14152403232E+04  0.94824605019E+02 0.  0.
          5    1    3    3  502    0 -0.43512383797E+03 -0.31950829737E+03 -0.96139381835E+02  0.54834585546E+03  0.47000000000E+01 0. -1.
         -5    1    3    3    0  502 -0.12084462256E+04 -0.10008835651E+04 -0.40974815518E+03  0.16217354383E+04  0.47000000000E+01 0.  1.
         11    1    5    5    0    0  0.24888110936E+03  0.33712327436E+03 -0.88296308216E+02  0.42824075794E+03  0.00000000000E+00 0.  1.
        -11    1    5    5    0    0  0.24362198948E+03  0.21952047267E+03 -0.12227029899E+03  0.34998705361E+03  0.00000000000E+00 0. -1.
          1    1    6    6  503    0  0.18195712899E+03  0.96469237734E+02  0.16237400192E+02  0.20658742407E+03  0.00000000000E+00 0. -1.
         -1    1    6    6    0  503  0.96910983574E+03  0.66727887773E+03  0.27641790115E+03  0.12086528991E+04  0.00000000000E+00 0.  1.
<mgrwt>
<rscale>  0 0.21192563E+04</rscale>
<asrwt>0</asrwt>
<pdfrwt beam="1">  1        2 0.36825756E+00 0.21192563E+04</pdfrwt>
<pdfrwt beam="2">  1       -2 0.30305774E+00 0.21192563E+04</pdfrwt>
<totfact> 0.10706218E-01</totfact>
</mgrwt>
</event>
<event>
12    1  0.3203156E-008  0.7042987E+03  0.7818608E-02  0.9709909E-01
          2   -1    0    0  501    0  0.00000000000E+00  0.00000000000E+00  0.12589363099E+04  0.12589363099E+04  0.00000000000E+00 0. -1.
         -2   -1    0    0    0  501 -0.00000000000E+00 -0.00000000000E+00 -0.42765785117E+03  0.42765785117E+03  0.00000000000E+00 0.  1.
         23    2    1    2    0    0 -0.29460271348E+03 -0.53077836935E+03  0.33136177691E+03  0.69741323234E+03  0.89822899570E+02 0.  0.
    5000000    2    1    2    0    0  0.29460271348E+03  0.53077836935E+03  0.49991668180E+03  0.98918092871E+03  0.60003815281E+03 0.  0.
         23    2    4    4    0    0 -0.49958250803E+02  0.42113889749E+03  0.42807746096E+03  0.60945512747E+03  0.91276733173E+02 0.  0.
         23    2    4    4    0    0  0.34456096428E+03  0.10963947186E+03  0.71839220841E+02  0.37972580124E+03  0.91037017629E+02 0.  0.
          5    1    3    3  502    0 -0.85269912930E+02 -0.89772244638E+02  0.47507365940E+02  0.13269910993E+03  0.47000000000E+01 0. -1.
         -5    1    3    3    0  502 -0.20933280055E+03 -0.44100612471E+03  0.28385441097E+03  0.56471412241E+03  0.47000000000E+01 0.  1.
         13    1    5    5    0    0  0.11943871140E+02  0.20899762092E+03  0.24682398678E+03  0.32364292370E+03  0.00000000000E+00 0. -1.
        -13    1    5    5    0    0 -0.61902121943E+02  0.21214127657E+03  0.18125347418E+03  0.28581220378E+03  0.00000000000E+00 0.  1.
          2    1    6    6  503    0  0.34601599884E+03  0.11175015634E+03  0.79019903530E+02  0.37210121480E+03  0.00000000000E+00 0. -1.
         -2    1    6    6    0  503 -0.14550345606E+01 -0.21106844832E+01 -0.71806826892E+01  0.76245864441E+01  0.00000000000E+00 0.  1.
<mgrwt>
<rscale>  0 0.70429866E+03</rscale>
<asrwt>0</asrwt>
<pdfrwt beam="1">  1        2 0.19368251E+00 0.70429866E+03</pdfrwt>
<pdfrwt beam="2">  1       -2 0.65793516E-01 0.70429866E+03</pdfrwt>
<totfact> 0.38056100E+01</totfact>
</mgrwt>
</event>
<event>
12    1  0.3203156E-008  0.6762904E+03  0.7818608E-02  0.9758660E-01
         -1   -1    0    0    0  501 -0.00000000000E+00  0.00000000000E+00  0.44599068913E+03  0.44599068913E+03  0.00000000000E+00 0.  1.
          1   -1    0    0  501    0  0.00000000000E+00 -0.00000000000E+00 -0.18787199462E+04  0.18787199462E+04  0.00000000000E+00 0. -1.
         23    2    1    2    0    0  0.63678296328E+03  0.44803240961E+02  0.48375571196E+00  0.64490559593E+03  0.91668538316E+02 0.  0.
    5000000    2    1    2    0    0 -0.63678296328E+03 -0.44803240961E+02 -0.14332130128E+04  0.16798050394E+04  0.60012128581E+03 0.  0.
         23    2    4    4    0    0 -0.99713922434E+01 -0.26864906982E+02 -0.71718419680E+03  0.72374825061E+03  0.92936571010E+02 0.  0.
         23    2    4    4    0    0 -0.62681157103E+03 -0.17938333979E+02 -0.71602881597E+03  0.95605678879E+03  0.90181975347E+02 0.  0.
          5    1    3    3  502    0  0.31287857518E+03 -0.91554463440E+01  0.33564157031E+02  0.31484197249E+03  0.47000000000E+01 0. -1.
         -5    1    3    3    0  502  0.32390438810E+03  0.53958687305E+02 -0.33080401319E+02  0.33006362344E+03  0.47000000000E+01 0.  1.
         11    1    5    5    0    0 -0.14249067503E+02  0.24789806806E+02 -0.48531216190E+03  0.48615374619E+03  0.00000000000E+00 0.  1.
        -11    1    5    5    0    0  0.42776752593E+01 -0.51654713788E+02 -0.23187203490E+03  0.23759450442E+03  0.00000000000E+00 0. -1.
          1    1    6    6  503    0 -0.21674511914E+03 -0.38442482660E+02 -0.29378244238E+03  0.36710270306E+03  0.00000000000E+00 0. -1.
         -1    1    6    6    0  503 -0.41006645190E+03  0.20504148681E+02 -0.42224637359E+03  0.58895408573E+03  0.00000000000E+00 0.  1.
<mgrwt>
<rscale>  0 0.67629041E+03</rscale>
<asrwt>0</asrwt>
<pdfrwt beam="1">  1        1 0.28903383E+00 0.67629041E+03</pdfrwt>
<pdfrwt beam="2">  1       -1 0.68613953E-01 0.67629041E+03</pdfrwt>
<totfact> 0.81955648E+00</totfact>
</mgrwt>
</event>
<event>
12    1  0.3203156E-008  0.1210587E+04  0.7818608E-02  0.9103640E-01
          2   -1    0    0  501    0  0.00000000000E+00  0.00000000000E+00  0.23690757975E+04  0.23690757975E+04  0.00000000000E+00 0. -1.
         -2   -1    0    0    0  501 -0.00000000000E+00 -0.00000000000E+00 -0.84873347158E+03  0.84873347158E+03  0.00000000000E+00 0.  1.
         23    2    1    2    0    0  0.13957696062E+03  0.11337117059E+04 -0.95853698328E+02  0.11497528967E+04  0.89217889506E+02 0.  0.
    5000000    2    1    2    0    0 -0.13957696062E+03 -0.11337117059E+04  0.16161960242E+04  0.20680563724E+04  0.59998634194E+03 0.  0.
         23    2    4    4    0    0  0.15972913678E+03 -0.83563905913E+03  0.11380392848E+04  0.14238437978E+04  0.91606290055E+02 0.  0.
         23    2    4    4    0    0 -0.29930609740E+03 -0.29807264681E+03  0.47815673944E+03  0.64421257464E+03  0.89132099358E+02 0.  0.
          5    1    3    3  502    0  0.82820971787E+02  0.92166039949E+03 -0.94335541287E+02  0.93018196591E+03  0.47000000000E+01 0. -1.
         -5    1    3    3    0  502  0.56755988837E+02  0.21205130645E+03 -0.15181570409E+01  0.21957093077E+03  0.47000000000E+01 0.  1.
         13    1    5    5    0    0  0.58958949092E+02 -0.16656500918E+03  0.19449178691E+03  0.26276817756E+03  0.00000000000E+00 0. -1.
        -13    1    5    5    0    0  0.10077018769E+03 -0.66907404995E+03  0.94354749789E+03  0.11610756202E+04  0.00000000000E+00 0.  1.
          3    1    6    6  503    0 -0.13386744634E+03 -0.11900543383E+03  0.14000606223E+03  0.22734221766E+03  0.00000000000E+00 0. -1.
         -3    1    6    6    0  503 -0.16543865106E+03 -0.17906721297E+03  0.33815067721E+03  0.41687035698E+03  0.00000000000E+00 0.  1.
<mgrwt>
<rscale>  0 0.12105867E+04</rscale>
<asrwt>0</asrwt>
<pdfrwt beam="1">  1        2 0.36447320E+00 0.12105867E+04</pdfrwt>
<pdfrwt beam="2">  1       -2 0.13057438E+00 0.12105867E+04</pdfrwt>
<totfact> 0.17373037E+00</totfact>
</mgrwt>
</event>
<event>
12    1  0.3203156E-008  0.1232912E+04  0.7818608E-02  0.9084526E-01
         -1   -1    0    0    0  501 -0.00000000000E+00  0.00000000000E+00  0.18775056742E+04  0.18775056742E+04  0.00000000000E+00 0.  1.
          1   -1    0    0  501    0  0.00000000000E+00 -0.00000000000E+00 -0.11362764151E+04  0.11362764151E+04  0.00000000000E+00 0. -1.
         23    2    1    2    0    0  0.11598883971E+04  0.34633978041E+03  0.10756535532E+04  0.16219569581E+04  0.91768568788E+02 0.  0.
    5000000    2    1    2    0    0 -0.11598883971E+04 -0.34633978041E+03 -0.33442429415E+03  0.13918251311E+04  0.60003770709E+03 0.  0.
         23    2    4    4    0    0 -0.75554723542E+02 -0.68602277964E+02  0.11915788594E+03  0.18060128622E+03  0.89461913751E+02 0.  0.
         23    2    4    4    0    0 -0.10843336736E+04 -0.27773750244E+03 -0.45358218009E+03  0.12112238449E+04  0.91699359433E+02 0.  0.
          5    1    3    3  502    0  0.64594672646E+03  0.17399631403E+03  0.53829430867E+03  0.85866451159E+03  0.47000000000E+01 0. -1.
         -5    1    3    3    0  502  0.51394167064E+03  0.17234346638E+03  0.53735924454E+03  0.76329244652E+03  0.47000000000E+01 0.  1.
         13    1    5    5    0    0 -0.87450893586E+02 -0.79661326151E+02  0.96170055357E+02  0.15245414137E+03  0.00000000000E+00 0. -1.
        -13    1    5    5    0    0  0.11896170043E+02  0.11059048186E+02  0.22987830585E+02  0.28147144855E+02  0.00000000000E+00 0.  1.
          2    1    6    6  503    0 -0.30314319602E+03 -0.98239223896E+02 -0.16863825330E+03  0.36053516178E+03  0.00000000000E+00 0. -1.
         -2    1    6    6    0  503 -0.78119047754E+03 -0.17949827855E+03 -0.28494392680E+03  0.85068868314E+03  0.00000000000E+00 0.  1.
<mgrwt>
<rscale>  0 0.12329123E+04</rscale>
<asrwt>0</asrwt>
<pdfrwt beam="1">  1        1 0.17481176E+00 0.12329123E+04</pdfrwt>
<pdfrwt beam="2">  1       -1 0.28884703E+00 0.12329123E+04</pdfrwt>
<totfact> 0.45500074E-01</totfact>
</mgrwt>
</event>
<event>
12    1  0.3203156E-008  0.8868736E+03  0.7818608E-02  0.9442140E-01
          1   -1    0    0  501    0  0.00000000000E+00  0.00000000000E+00  0.80714025807E+03  0.80714025807E+03  0.00000000000E+00 0. -1.
         -1   -1    0    0    0  501 -0.00000000000E+00 -0.00000000000E+00 -0.10737430556E+04  0.10737430556E+04  0.00000000000E+00 0.  1.
         23    2    1    2    0    0 -0.39719095735E+03 -0.69574324017E+03  0.10518668130E+03  0.81307736057E+03  0.90615911953E+02 0.  0.
    5000000    2    1    2    0    0  0.39719095735E+03  0.69574324017E+03 -0.37178947882E+03  0.10678059531E+04  0.60013567137E+03 0.  0.
         23    2    4    4    0    0  0.45657783525E+03  0.26725192497E+03 -0.30771018637E+03  0.61864730575E+03  0.90288532320E+02 0.  0.
         23    2    4    4    0    0 -0.59386877899E+02  0.42849131520E+03 -0.64079292447E+02  0.44915864734E+03  0.10249744532E+03 0.  0.
          5    1    3    3  502    0 -0.15742491672E+03 -0.29810231369E+03  0.88803361598E+00  0.33715051896E+03  0.47000000000E+01 0. -1.
         -5    1    3    3    0  502 -0.23976604063E+03 -0.39764092648E+03  0.10429864769E+03  0.47592684161E+03  0.47000000000E+01 0.  1.
         13    1    5    5    0    0  0.22198928979E+03  0.13538436443E+03 -0.20303207563E+03  0.32989421736E+03  0.00000000000E+00 0.  1.
        -13    1    5    5    0    0  0.23458854546E+03  0.13186756055E+03 -0.10467811074E+03  0.28875308839E+03  0.00000000000E+00 0. -1.
          2    1    6    6  503    0  0.77385558894E+01 -0.15266445082E+01 -0.63399186734E+01  0.10119805309E+02  0.00000000000E+00 0. -1.
         -2    1    6    6    0  503 -0.67125433789E+02  0.43001795971E+03 -0.57739373774E+02  0.43903884203E+03  0.00000000000E+00 0.  1.
<mgrwt>
<rscale>  0 0.88687365E+03</rscale>
<asrwt>0</asrwt>
<pdfrwt beam="1">  1        1 0.12417542E+00 0.88687365E+03</pdfrwt>
<pdfrwt beam="2">  1       -1 0.16519124E+00 0.88687365E+03</pdfrwt>
<totfact> 0.59131183E+00</totfact>
</mgrwt>
</event>
<event>
12    1  0.3203156E-008  0.7910419E+03  0.7818608E-02  0.9573075E-01
         -2   -1    0    0    0  501 -0.00000000000E+00  0.00000000000E+00  0.10088616262E+04  0.10088616262E+04  0.00000000000E+00 0.  1.
          2   -1    0    0  501    0  0.00000000000E+00 -0.00000000000E+00 -0.77475965748E+03  0.77475965748E+03  0.00000000000E+00 0. -1.
         23    2    1    2    0    0  0.46554758702E+03  0.60958674747E+03 -0.34019539175E+02  0.77351253388E+03  0.93988044778E+02 0.  0.
    5000000    2    1    2    0    0 -0.46554758702E+03 -0.60958674747E+03  0.26812150787E+03  0.10101087498E+04  0.60008331498E+03 0.  0.
         23    2    4    4    0    0 -0.37909174418E+03 -0.30819888870E+03  0.41935697632E+03  0.65014765413E+03  0.90191979027E+02 0.  0.
         23    2    4    4    0    0 -0.86455842834E+02 -0.30138785877E+03 -0.15123546845E+03  0.35996109564E+03  0.91600050689E+02 0.  0.
          5    1    3    3  502    0  0.10788208147E+03  0.18427758865E+03 -0.42241797673E+02  0.21772283447E+03  0.47000000000E+01 0.  1.
         -5    1    3    3    0  502  0.35766550555E+03  0.42530915882E+03  0.82222584984E+01  0.55578969941E+03  0.47000000000E+01 0. -1.
         11    1    5    5    0    0 -0.10765138396E+03 -0.40694571358E+02  0.83690834111E+02  0.14229906648E+03  0.00000000000E+00 0. -1.
        -11    1    5    5    0    0 -0.27144036022E+03 -0.26750431734E+03  0.33566614221E+03  0.50784858765E+03  0.00000000000E+00 0.  1.
          1    1    6    6  503    0 -0.45221081748E+01 -0.86266997646E+02 -0.83164544155E+02  0.11991157471E+03  0.00000000000E+00 0. -1.
         -1    1    6    6    0  503 -0.81933734659E+02 -0.21512086112E+03 -0.68070924291E+02  0.24004952093E+03  0.00000000000E+00 0.  1.
<mgrwt>
<rscale>  0 0.79104192E+03</rscale>
<asrwt>0</asrwt>
<pdfrwt beam="1">  1        2 0.11919379E+00 0.79104192E+03</pdfrwt>
<pdfrwt beam="2">  1       -2 0.15520948E+00 0.79104192E+03</pdfrwt>
<totfact> 0.99464697E+00</totfact>
</mgrwt>
</event>
<event>
12    1  0.3203156E-008  0.3169732E+04  0.7818608E-02  0.8196857E-01
         -1   -1    0    0    0  501 -0.00000000000E+00  0.00000000000E+00  0.25124692008E+04  0.25124692008E+04  0.00000000000E+00 0.  1.
          1   -1    0    0  501    0  0.00000000000E+00 -0.00000000000E+00 -0.49367584667E+04  0.49367584667E+04  0.00000000000E+00 0. -1.
         23    2    1    2    0    0 -0.31456235200E+04 -0.29880676811E+03 -0.27840526112E+04  0.42129460603E+04  0.11718681982E+03 0.  0.
    5000000    2    1    2    0    0  0.31456235200E+04  0.29880676811E+03  0.35976334538E+03  0.32362816072E+04  0.59988012312E+03 0.  0.
         23    2    4    4    0    0  0.20487586371E+04  0.45134413904E+02  0.46016728960E+03  0.21023077029E+04  0.92166562351E+02 0.  0.
         23    2    4    4    0    0  0.10968648830E+04  0.25367235421E+03 -0.10040394422E+03  0.11339739043E+04  0.91398188012E+02 0.  0.
          5    1    3    3  502    0 -0.11296300408E+04 -0.13312688032E+03 -0.93610663195E+03  0.14731274594E+04  0.47000000000E+01 0. -1.
         -5    1    3    3    0  502 -0.20159934792E+04 -0.16567988779E+03 -0.18479459793E+04  0.27398186009E+04  0.47000000000E+01 0.  1.
         11    1    5    5    0    0  0.10279173395E+04 -0.66474689932E+01  0.26719744354E+03  0.10620982627E+04  0.00000000000E+00 0.  1.
        -11    1    5    5    0    0  0.10208412976E+04  0.51781882897E+02  0.19296984606E+03  0.10402094403E+04  0.00000000000E+00 0. -1.
          2    1    6    6  503    0  0.72157213780E+03  0.12460222861E+03 -0.79535939141E+02  0.73655823330E+03  0.00000000000E+00 0. -1.
         -2    1    6    6    0  503  0.37529274516E+03  0.12907012560E+03 -0.20868005077E+02  0.39741567096E+03  0.00000000000E+00 0.  1.
<mgrwt>
<rscale>  0 0.31697320E+04</rscale>
<asrwt>0</asrwt>
<pdfrwt beam="1">  1        1 0.75950129E+00 0.31697320E+04</pdfrwt>
<pdfrwt beam="2">  1       -1 0.38653373E+00 0.31697320E+04</pdfrwt>
<totfact> 0.70673381E-05</totfact>
</mgrwt>
</event>
<event>
12    1  0.3203156E-008  0.8007856E+03  0.7818608E-02  0.9558881E-01
         -2   -1    0    0    0  501 -0.00000000000E+00  0.00000000000E+00  0.13539804013E+04  0.13539804013E+04  0.00000000000E+00 0.  1.
          2   -1    0    0  501    0  0.00000000000E+00 -0.00000000000E+00 -0.67124693673E+03  0.67124693673E+03  0.00000000000E+00 0. -1.
         23    2    1    2    0    0  0.43865142061E+03 -0.66096194641E+03 -0.34511855109E+02  0.79902426524E+03  0.89235334336E+02 0.  0.
    5000000    2    1    2    0    0 -0.43865142061E+03  0.66096194641E+03  0.71724531971E+03  0.12262030728E+04  0.59987278962E+03 0.  0.
         23    2    4    4    0    0 -0.24113696998E+03  0.42175205824E+03  0.75291614073E+03  0.90058100734E+03  0.90230808973E+02 0.  0.
         23    2    4    4    0    0 -0.19751445063E+03  0.23920988817E+03 -0.35670821024E+02  0.32562206547E+03  0.92325474505E+02 0.  0.
          5    1    3    3  502    0  0.18691401235E+03 -0.24951687842E+03 -0.53146476575E+02  0.31629441760E+03  0.47000000000E+01 0. -1.
         -5    1    3    3    0  502  0.25173740826E+03 -0.41144506798E+03  0.18634621465E+02  0.48272984764E+03  0.47000000000E+01 0.  1.
         13    1    5    5    0    0 -0.19854009660E+03  0.26375976705E+03  0.51945430062E+03  0.61548367574E+03  0.00000000000E+00 0.  1.
        -13    1    5    5    0    0 -0.42596873385E+02  0.15799229118E+03  0.23346184011E+03  0.28509733160E+03  0.00000000000E+00 0. -1.
          1    1    6    6  503    0 -0.17213787254E+03  0.17920440121E+03  0.55093972815E+01  0.24854781840E+03  0.00000000000E+00 0. -1.
         -1    1    6    6    0  503 -0.25376578089E+02  0.60005486961E+02 -0.41180218306E+02  0.77074247066E+02  0.00000000000E+00 0.  1.
<mgrwt>
<rscale>  0 0.80078564E+03</rscale>
<asrwt>0</asrwt>
<pdfrwt beam="1">  1        2 0.10326876E+00 0.80078564E+03</pdfrwt>
<pdfrwt beam="2">  1       -2 0.20830468E+00 0.80078564E+03</pdfrwt>
<totfact> 0.51519749E+00</totfact>
</mgrwt>
</event>
<event>
12    1  0.3203156E-008  0.6360802E+03  0.7818608E-02  0.9833255E-01
          1   -1    0    0  501    0  0.00000000000E+00  0.00000000000E+00  0.15253863967E+04  0.15253863967E+04  0.00000000000E+00 0. -1.
         -1   -1    0    0    0  501 -0.00000000000E+00 -0.00000000000E+00 -0.33393410643E+03  0.33393410643E+03  0.00000000000E+00 0.  1.
         23    2    1    2    0    0  0.56947473831E+03  0.11914955510E+03  0.43793215197E+03  0.73385041385E+03  0.90850240096E+02 0.  0.
    5000000    2    1    2    0    0 -0.56947473831E+03 -0.11914955510E+03  0.75352013833E+03  0.11254700893E+04  0.60032676853E+03 0.  0.
         23    2    4    4    0    0 -0.18109320899E+03  0.12324600483E+03  0.58008130350E+03  0.62769543809E+03  0.97585430705E+02 0.  0.
         23    2    4    4    0    0 -0.38838152931E+03 -0.24239555993E+03  0.17343883483E+03  0.49777465122E+03  0.90015299708E+02 0.  0.
          5    1    3    3  502    0  0.49390830434E+03  0.11272299112E+03  0.41374422774E+03  0.65410875381E+03  0.47000000000E+01 0. -1.
         -5    1    3    3    0  502  0.75566433965E+02  0.64265639870E+01  0.24187924228E+02  0.79741660036E+02  0.47000000000E+01 0.  1.
         13    1    5    5    0    0 -0.22596346255E+02  0.35755361047E+02  0.22698368343E+03  0.23089095533E+03  0.00000000000E+00 0.  1.
        -13    1    5    5    0    0 -0.15849686274E+03  0.87490643779E+02  0.35309762007E+03  0.39680448277E+03  0.00000000000E+00 0. -1.
          2    1    6    6  503    0 -0.14447537475E+03 -0.14159620569E+03  0.65397478223E+02  0.21260162166E+03  0.00000000000E+00 0. -1.
         -2    1    6    6    0  503 -0.24390615456E+03 -0.10079935424E+03  0.10804135661E+03  0.28517302956E+03  0.00000000000E+00 0.  1.
<mgrwt>
<rscale>  0 0.63608024E+03</rscale>
<asrwt>0</asrwt>
<pdfrwt beam="1">  1        1 0.23467483E+00 0.63608024E+03</pdfrwt>
<pdfrwt beam="2">  1       -1 0.51374479E-01 0.63608024E+03</pdfrwt>
<totfact> 0.25136405E+01</totfact>
</mgrwt>
</event>
<event>
12    1  0.3203156E-008  0.7040298E+03  0.7818608E-02  0.9710365E-01
          2   -1    0    0  501    0  0.00000000000E+00  0.00000000000E+00  0.15425948957E+04  0.15425948957E+04  0.00000000000E+00 0. -1.
         -2   -1    0    0    0  501 -0.00000000000E+00 -0.00000000000E+00 -0.38303168713E+03  0.38303168713E+03  0.00000000000E+00 0.  1.
         23    2    1    2    0    0 -0.61524105510E+03  0.55787489673E+02  0.73918600962E+03  0.96754043652E+03  0.90026327277E+02 0.  0.
    5000000    2    1    2    0    0  0.61524105510E+03 -0.55787489673E+02  0.42037719897E+03  0.95808614632E+03  0.59964845908E+03 0.  0.
         23    2    4    4    0    0  0.50479940826E+02 -0.18113370185E+03  0.29287360318E+03  0.35828720359E+03  0.85071325646E+02 0.  0.
         23    2    4    4    0    0  0.56476111428E+03  0.12534621218E+03  0.12750359579E+03  0.59979894273E+03  0.93993700074E+02 0.  0.
          5    1    3    3  502    0 -0.17831941638E+03 -0.58765527332E+01  0.26794165286E+03  0.32194280155E+03  0.47000000000E+01 0. -1.
         -5    1    3    3    0  502 -0.43692163872E+03  0.61664042406E+02  0.47124435675E+03  0.64559763497E+03  0.47000000000E+01 0.  1.
         11    1    5    5    0    0 -0.19952997116E+02 -0.37591094225E+02  0.36130263437E+02  0.55826592185E+02  0.00000000000E+00 0.  1.
        -11    1    5    5    0    0  0.70432937942E+02 -0.14354260763E+03  0.25674333974E+03  0.30246061141E+03  0.00000000000E+00 0. -1.
          3    1    6    6  503    0  0.50228151268E+03  0.79903303280E+02  0.11640117884E+03  0.52174753501E+03  0.00000000000E+00 0. -1.
         -3    1    6    6    0  503  0.62479601601E+02  0.45442908898E+02  0.11102416953E+02  0.78051407723E+02  0.00000000000E+00 0.  1.
<mgrwt>
<rscale>  0 0.70402981E+03</rscale>
<asrwt>0</asrwt>
<pdfrwt beam="1">  1        2 0.23732229E+00 0.70402981E+03</pdfrwt>
<pdfrwt beam="2">  1       -2 0.58927953E-01 0.70402981E+03</pdfrwt>
<totfact> 0.33261641E+01</totfact>
</mgrwt>
</event>
<event>
12    1  0.3203156E-008  0.1233465E+04  0.7818608E-02  0.9084059E-01
          1   -1    0    0  501    0  0.00000000000E+00  0.00000000000E+00  0.23295870241E+04  0.23295870241E+04  0.00000000000E+00 0. -1.
         -1   -1    0    0    0  501 -0.00000000000E+00 -0.00000000000E+00 -0.80053889804E+03  0.80053889804E+03  0.00000000000E+00 0.  1.
         23    2    1    2    0    0  0.68425393124E+03 -0.97162296033E+03  0.12993598545E+03  0.11988271503E+04  0.89713748129E+02 0.  0.
    5000000    2    1    2    0    0 -0.68425393124E+03  0.97162296033E+03  0.13991121406E+04  0.19312987718E+04  0.60012127484E+03 0.  0.
         23    2    4    4    0    0 -0.33704537454E+03  0.13517342857E+03  0.65808775855E+03  0.75754729090E+03  0.94482589408E+02 0.  0.
         23    2    4    4    0    0 -0.34720855669E+03  0.83644953176E+03  0.74102438203E+03  0.11737514809E+04  0.91508486419E+02 0.  0.
          5    1    3    3  502    0  0.56750180072E+03 -0.85074725834E+03  0.12842708965E+03  0.10307011200E+04  0.47000000000E+01 0. -1.
         -5    1    3    3    0  502  0.11675213051E+03 -0.12087570199E+03  0.15088958017E+01  0.16812603034E+03  0.47000000000E+01 0.  1.
         11    1    5    5    0    0 -0.21703270990E+03  0.10992116068E+03  0.51160585138E+03  0.56650366804E+03  0.00000000000E+00 0. -1.
        -11    1    5    5    0    0 -0.12001266464E+03  0.25252267889E+02  0.14648190717E+03  0.19104362286E+03  0.00000000000E+00 0.  1.
          2    1    6    6  503    0 -0.13028085300E+03  0.43265430014E+03  0.36223513704E+03  0.57911755161E+03  0.00000000000E+00 0. -1.
         -2    1    6    6    0  503 -0.21692770370E+03  0.40379523162E+03  0.37878924499E+03  0.59463392927E+03  0.00000000000E+00 0.  1.
<mgrwt>
<rscale>  0 0.12334647E+04</rscale>
<asrwt>0</asrwt>
<pdfrwt beam="1">  1        1 0.35839800E+00 0.12334647E+04</pdfrwt>
<pdfrwt beam="2">  1       -1 0.12315983E+00 0.12334647E+04</pdfrwt>
<totfact> 0.10133226E+00</totfact>
</mgrwt>
</event>
<event>
12    1  0.3203156E-008  0.4636477E+03  0.7818608E-02  0.1023729E+00
         -2   -1    0    0    0  501 -0.00000000000E+00  0.00000000000E+00  0.25238490841E+03  0.25238490841E+03  0.00000000000E+00 0.  1.
          2   -1    0    0  501    0  0.00000000000E+00 -0.00000000000E+00 -0.17395689491E+04  0.17395689491E+04  0.00000000000E+00 0. -1.
         23    2    1    2    0    0 -0.25104744788E+03  0.11985087268E+03 -0.12585434061E+04  0.12921438595E+04  0.91187695746E+02 0.  0.
    5000000    2    1    2    0    0  0.25104744788E+03 -0.11985087268E+03 -0.22864063461E+03  0.69980999802E+03  0.60005703126E+03 0.  0.
         23    2    4    4    0    0 -0.11723491250E+03 -0.21408334287E+03 -0.32742194128E+02  0.26249413343E+03  0.90859322088E+02 0.  0.
         23    2    4    4    0    0  0.36828236038E+03  0.94232470184E+02 -0.19589844049E+03  0.43731586458E+03  0.91418329838E+02 0.  0.
          5    1    3    3  502    0 -0.78070714859E+02  0.85147269422E+02 -0.54081605338E+03  0.55303633480E+03  0.47000000000E+01 0. -1.
         -5    1    3    3    0  502 -0.17297673302E+03  0.34703603260E+02 -0.71772735269E+03  0.73910752468E+03  0.47000000000E+01 0.  1.
         11    1    5    5    0    0 -0.49090003530E+02 -0.14832018389E+03  0.14048516360E+02  0.15686320858E+03  0.00000000000E+00 0.  1.
        -11    1    5    5    0    0 -0.68144908968E+02 -0.65763158978E+02 -0.46790710488E+02  0.10563092485E+03  0.00000000000E+00 0. -1.
          4    1    6    6  503    0  0.26149739750E+03  0.92760210569E+02 -0.17630515949E+03  0.32873827709E+03  0.00000000000E+00 0. -1.
         -4    1    6    6    0  503  0.10678496288E+03  0.14722596144E+01 -0.19593281000E+02  0.10857758750E+03  0.00000000000E+00 0.  1.
<mgrwt>
<rscale>  0 0.46364766E+03</rscale>
<asrwt>0</asrwt>
<pdfrwt beam="1">  1        2 0.26762599E+00 0.46364766E+03</pdfrwt>
<pdfrwt beam="2">  1       -2 0.38828448E-01 0.46364766E+03</pdfrwt>
<totfact> 0.62261963E+01</totfact>
</mgrwt>
</event>
<event>
12    1  0.3203156E-008  0.5313785E+03  0.7818608E-02  0.1005898E+00
         -3   -1    0    0    0  501 -0.00000000000E+00  0.00000000000E+00  0.17074636260E+03  0.17074636260E+03  0.00000000000E+00 0. -1.
          3   -1    0    0  501    0  0.00000000000E+00 -0.00000000000E+00 -0.17459621996E+04  0.17459621996E+04  0.00000000000E+00 0.  1.
         23    2    1    2    0    0 -0.10195168295E+03  0.35333857205E+03 -0.43810766062E+03  0.57959183407E+03  0.93520477299E+02 0.  0.
    5000000    2    1    2    0    0  0.10195168295E+03 -0.35333857205E+03 -0.11371081764E+04  0.13371167282E+04  0.59968645784E+03 0.  0.
         23    2    4    4    0    0 -0.91213797879E+01  0.14996404710E+03 -0.21338908811E+03  0.27525356447E+03  0.87505467476E+02 0.  0.
         23    2    4    4    0    0  0.11107306274E+03 -0.50330261915E+03 -0.92371908830E+03  0.10618631637E+04  0.92982109060E+02 0.  0.
          5    1    3    3  502    0 -0.11600807814E+03  0.25735849648E+03 -0.32724143071E+03  0.43220401882E+03  0.47000000000E+01 0. -1.
         -5    1    3    3    0  502  0.14056395195E+02  0.95980075566E+02 -0.11086622991E+03  0.14738781525E+03  0.47000000000E+01 0.  1.
         13    1    5    5    0    0 -0.31565044390E+02  0.47717799817E+02 -0.12785352542E+03  0.14007092635E+03  0.00000000000E+00 0.  1.
        -13    1    5    5    0    0  0.22443664602E+02  0.10224624728E+03 -0.85535562687E+02  0.13518263812E+03  0.00000000000E+00 0. -1.
          3    1    6    6  503    0 -0.12357354112E+02 -0.59070093844E+02 -0.77891368329E+02  0.98534488619E+02  0.00000000000E+00 0. -1.
         -3    1    6    6    0  503  0.12343041685E+03 -0.44423252531E+03 -0.84582771997E+03  0.96332867507E+03  0.00000000000E+00 0.  1.
<mgrwt>
<rscale>  0 0.53137855E+03</rscale>
<asrwt>0</asrwt>
<pdfrwt beam="1">  1        3 0.26860958E+00 0.53137855E+03</pdfrwt>
<pdfrwt beam="2">  1       -3 0.26268670E-01 0.53137855E+03</pdfrwt>
<totfact> 0.21723297E+00</totfact>
</mgrwt>
</event>
<event>
12    1  0.3203156E-008  0.4875665E+03  0.7818608E-02  0.1017076E+00
          1   -1    0    0  501    0  0.00000000000E+00  0.00000000000E+00  0.12753068191E+04  0.12753068191E+04  0.00000000000E+00 0. -1.
         -1   -1    0    0    0  501 -0.00000000000E+00 -0.00000000000E+00 -0.27550912311E+03  0.27550912311E+03  0.00000000000E+00 0.  1.
         23    2    1    2    0    0  0.20611621319E+03  0.38239675532E+03  0.43398222838E+03  0.61868671658E+03  0.75640643193E+02 0.  0.
    5000000    2    1    2    0    0 -0.20611621319E+03 -0.38239675532E+03  0.56581546756E+03  0.93212922559E+03  0.60000548168E+03 0.  0.
         23    2    4    4    0    0 -0.61105830743E+02 -0.37830342954E+03  0.63505099496E+03  0.74727373242E+03  0.90999217603E+02 0.  0.
         23    2    4    4    0    0 -0.14501038245E+03 -0.40933257828E+01 -0.69235527404E+02  0.18485549317E+03  0.91286520182E+02 0.  0.
          5    1    3    3  502    0  0.11397974516E+03  0.15842312951E+03  0.15539821245E+03  0.24951946758E+03  0.47000000000E+01 0.  1.
         -5    1    3    3    0  502  0.92136468033E+02  0.22397362581E+03  0.27858401593E+03  0.36916724900E+03  0.47000000000E+01 0. -1.
         11    1    5    5    0    0 -0.77636405484E+02 -0.21927394638E+03  0.40649441743E+03  0.46834408976E+03  0.00000000000E+00 0. -1.
        -11    1    5    5    0    0  0.16530574742E+02 -0.15902948316E+03  0.22855657754E+03  0.27892964265E+03  0.00000000000E+00 0.  1.
          4    1    6    6  503    0 -0.62953557797E+02 -0.46397418976E+01  0.17448657028E+02  0.65491474837E+02  0.00000000000E+00 0. -1.
         -4    1    6    6    0  503 -0.82056824652E+02  0.54641611478E+00 -0.86684184432E+02  0.11936401834E+03  0.00000000000E+00 0.  1.
<mgrwt>
<rscale>  0 0.48756646E+03</rscale>
<asrwt>0</asrwt>
<pdfrwt beam="1">  1        1 0.19620105E+00 0.48756646E+03</pdfrwt>
<pdfrwt beam="2">  1       -1 0.42386020E-01 0.48756646E+03</pdfrwt>
<totfact> 0.54700443E+01</totfact>
</mgrwt>
</event>
<event>
12    1  0.3203156E-008  0.7540335E+03  0.7818608E-02  0.9629044E-01
          1   -1    0    0  501    0  0.00000000000E+00  0.00000000000E+00  0.11880462056E+04  0.11880462056E+04  0.00000000000E+00 0. -1.
         -1   -1    0    0    0  501 -0.00000000000E+00 -0.00000000000E+00 -0.12882718634E+04  0.12882718634E+04  0.00000000000E+00 0.  1.
         23    2    1    2    0    0  0.46181548043E+03  0.53095096520E+03  0.87905520661E+03  0.11294104102E+04  0.87449145109E+02 0.  0.
    5000000    2    1    2    0    0 -0.46181548043E+03 -0.53095096520E+03 -0.97928086441E+03  0.13469076587E+04  0.59998897019E+03 0.  0.
         23    2    4    4    0    0 -0.49901767739E+03 -0.41251796474E+03 -0.99484673955E+03  0.11909884236E+04  0.97691741680E+02 0.  0.
         23    2    4    4    0    0  0.37202196962E+02 -0.11843300046E+03  0.15565875138E+02  0.15591923513E+03  0.93049085745E+02 0.  0.
          5    1    3    3  502    0  0.93061634426E+02  0.79397724833E+02  0.19916913445E+03  0.23378387589E+03  0.47000000000E+01 0. -1.
         -5    1    3    3    0  502  0.36875384600E+03  0.45155324037E+03  0.67988607216E+03  0.89562653430E+03  0.47000000000E+01 0.  1.
         11    1    5    5    0    0 -0.22535125066E+03 -0.16786431925E+03 -0.51689968449E+03  0.58834250202E+03  0.00000000000E+00 0. -1.
        -11    1    5    5    0    0 -0.27366642673E+03 -0.24465364549E+03 -0.47794705506E+03  0.60264592159E+03  0.00000000000E+00 0.  1.
          1    1    6    6  503    0 -0.11401296835E+02  0.11277417962E+02  0.58176718249E+01  0.17059162667E+02  0.00000000000E+00 0. -1.
         -1    1    6    6    0  503  0.48603493797E+02 -0.12971041842E+03  0.97482033130E+01  0.13886007246E+03  0.00000000000E+00 0.  1.
<mgrwt>
<rscale>  0 0.75403351E+03</rscale>
<asrwt>0</asrwt>
<pdfrwt beam="1">  1        1 0.18277634E+00 0.75403351E+03</pdfrwt>
<pdfrwt beam="2">  1       -1 0.19819567E+00 0.75403351E+03</pdfrwt>
<totfact> 0.17650646E+00</totfact>
</mgrwt>
</event>
<event>
12    1  0.3203156E-008  0.5527900E+03  0.7818608E-02  0.1000850E+00
         -2   -1    0    0    0  501 -0.00000000000E+00  0.00000000000E+00  0.14480871188E+04  0.14480871188E+04  0.00000000000E+00 0. -1.
          2   -1    0    0  501    0  0.00000000000E+00 -0.00000000000E+00 -0.59396440072E+03  0.59396440072E+03  0.00000000000E+00 0.  1.
         23    2    1    2    0    0  0.11024600304E+03 -0.37129890237E+03  0.11886881887E+04  0.12534665613E+04  0.90453049424E+02 0.  0.
    5000000    2    1    2    0    0 -0.11024600304E+03  0.37129890237E+03 -0.33456547065E+03  0.78858495824E+03  0.59992926760E+03 0.  0.
         23    2    4    4    0    0 -0.22892533940E+03  0.47132942349E+03 -0.22444965536E+03  0.57720142778E+03  0.90695115524E+02 0.  0.
         23    2    4    4    0    0  0.11867933635E+03 -0.10003052111E+03 -0.11011581529E+03  0.21138353046E+03  0.92014206187E+02 0.  0.
          5    1    3    3  502    0  0.20747646130E+02 -0.21320777466E+03  0.70125483886E+03  0.73325879403E+03  0.47000000000E+01 0. -1.
         -5    1    3    3    0  502  0.89498356913E+02 -0.15809112771E+03  0.48743334988E+03  0.52020776727E+03  0.47000000000E+01 0.  1.
         11    1    5    5    0    0 -0.11622677193E+03  0.14772529664E+03 -0.61570522173E+02  0.19779371826E+03  0.00000000000E+00 0. -1.
        -11    1    5    5    0    0 -0.11269856747E+03  0.32360412684E+03 -0.16287913319E+03  0.37940770952E+03  0.00000000000E+00 0.  1.
          3    1    6    6  503    0 -0.14084429058E+02 -0.18135018425E+02 -0.23940357971E+02  0.33172138535E+02  0.00000000000E+00 0. -1.
         -3    1    6    6    0  503  0.13276376541E+03 -0.81895502688E+02 -0.86175457317E+02  0.17821139192E+03  0.00000000000E+00 0.  1.
<mgrwt>
<rscale>  0 0.55278995E+03</rscale>
<asrwt>0</asrwt>
<pdfrwt beam="1">  1        2 0.91379139E-01 0.55278995E+03</pdfrwt>
<pdfrwt beam="2">  1       -2 0.22278263E+00 0.55278995E+03</pdfrwt>
<totfact> 0.50270411E+00</totfact>
</mgrwt>
</event>
<event>
12    1  0.3203156E-008  0.1461494E+04  0.7818608E-02  0.8910471E-01
          2   -1    0    0  501    0  0.00000000000E+00  0.00000000000E+00  0.14696897345E+04  0.14696897345E+04  0.00000000000E+00 0.  1.
         -2   -1    0    0    0  501 -0.00000000000E+00 -0.00000000000E+00 -0.14983235752E+04  0.14983235752E+04  0.00000000000E+00 0. -1.
         23    2    1    2    0    0 -0.53620137899E+03  0.12957244027E+04 -0.24865429756E+03  0.14270156563E+04  0.90172484275E+02 0.  0.
    5000000    2    1    2    0    0  0.53620137899E+03 -0.12957244027E+04  0.22002045686E+03  0.15409976534E+04  0.59987592025E+03 0.  0.
         23    2    4    4    0    0 -0.26947254031E+02 -0.67586461377E+03  0.86438905366E+02  0.68799074521E+03  0.91326066845E+02 0.  0.
         23    2    4    4    0    0  0.56314863302E+03 -0.61985978896E+03  0.13358155150E+03  0.85300690819E+03  0.91729023132E+02 0.  0.
          5    1    3    3  502    0 -0.61545058449E+02  0.19938926717E+03 -0.62751744931E+02  0.21795353994E+03  0.47000000000E+01 0. -1.
         -5    1    3    3    0  502 -0.47465632054E+03  0.10963351356E+04 -0.18590255263E+03  0.12090621163E+04  0.47000000000E+01 0.  1.
         11    1    5    5    0    0 -0.51901481335E+02 -0.47446448067E+03  0.34673957948E+02  0.47855259956E+03  0.00000000000E+00 0. -1.
        -11    1    5    5    0    0  0.24954227304E+02 -0.20140013310E+03  0.51764947418E+02  0.20943814565E+03  0.00000000000E+00 0.  1.
          2    1    6    6  503    0  0.36464689892E+03 -0.36078947346E+03  0.45655071130E+02  0.51499591316E+03  0.00000000000E+00 0. -1.
         -2    1    6    6    0  503  0.19850173410E+03 -0.25907031550E+03  0.87926480369E+02  0.33801099503E+03  0.00000000000E+00 0.  1.
<mgrwt>
<rscale>  0 0.14614935E+04</rscale>
<asrwt>0</asrwt>
<pdfrwt beam="1">  1        2 0.22610611E+00 0.14614935E+04</pdfrwt>
<pdfrwt beam="2">  1       -2 0.23051132E+00 0.14614935E+04</pdfrwt>
<totfact> 0.10586104E+00</totfact>
</mgrwt>
</event>
<event>
12    1  0.3203156E-008  0.1011910E+04  0.7818608E-02  0.9295577E-01
          1   -1    0    0  501    0  0.00000000000E+00  0.00000000000E+00  0.19499134949E+04  0.19499134949E+04  0.00000000000E+00 0. -1.
         -1   -1    0    0    0  501 -0.00000000000E+00 -0.00000000000E+00 -0.65683631763E+03  0.65683631763E+03  0.00000000000E+00 0.  1.
         23    2    1    2    0    0 -0.81361018181E+03 -0.51552837636E+03  0.10841224688E+04  0.14529467505E+04  0.89452209552E+02 0.  0.
    5000000    2    1    2    0    0  0.81361018181E+03  0.51552837636E+03  0.20895470849E+03  0.11538030620E+04  0.59989032405E+03 0.  0.
         23    2    4    4    0    0  0.66552771226E+03  0.17773102183E+03 -0.46678017470E+02  0.69649177495E+03  0.91686985794E+02 0.  0.
         23    2    4    4    0    0  0.14808246955E+03  0.33779735454E+03  0.25563272596E+03  0.45731128704E+03  0.88034380519E+02 0.  0.
          5    1    3    3  502    0 -0.56395967845E+03 -0.32067029745E+03  0.76977405817E+03  0.10067045988E+04  0.47000000000E+01 0. -1.
         -5    1    3    3    0  502 -0.24965050335E+03 -0.19485807891E+03  0.31434841063E+03  0.44624215176E+03  0.47000000000E+01 0.  1.
         11    1    5    5    0    0  0.27550273811E+03  0.84903046520E+02  0.24403994859E+02  0.28931961734E+03  0.00000000000E+00 0. -1.
        -11    1    5    5    0    0  0.39002497415E+03  0.92827975308E+02 -0.71082012329E+02  0.40717215762E+03  0.00000000000E+00 0.  1.
          3    1    6    6  503    0  0.77364762687E+02  0.15845910501E+03  0.17473458111E+03  0.24824739335E+03  0.00000000000E+00 0. -1.
         -3    1    6    6    0  503  0.70717706867E+02  0.17933824953E+03  0.80898144846E+02  0.20906389370E+03  0.00000000000E+00 0.  1.
<mgrwt>
<rscale>  0 0.10119104E+04</rscale>
<asrwt>0</asrwt>
<pdfrwt beam="1">  1        1 0.29998669E+00 0.10119104E+04</pdfrwt>
<pdfrwt beam="2">  1       -1 0.10105174E+00 0.10119104E+04</pdfrwt>
<totfact> 0.30251142E+00</totfact>
</mgrwt>
</event>
<event>
12    1  0.3203156E-008  0.1611098E+04  0.7818608E-02  0.8813759E-01
          2   -1    0    0  501    0  0.00000000000E+00  0.00000000000E+00  0.31877188544E+04  0.31877188544E+04  0.00000000000E+00 0. -1.
         -2   -1    0    0    0  501 -0.00000000000E+00 -0.00000000000E+00 -0.12206627972E+04  0.12206627972E+04  0.00000000000E+00 0.  1.
         23    2    1    2    0    0 -0.16009692179E+04 -0.13580364560E+03 -0.22540916091E+03  0.16247718609E+04  0.86771212625E+02 0.  0.
    5000000    2    1    2    0    0  0.16009692179E+04  0.13580364560E+03  0.21924652182E+04  0.27836097907E+04  0.60002888851E+03 0.  0.
         23    2    4    4    0    0  0.12355712483E+04  0.80053891334E+02  0.20113733873E+04  0.23636642974E+04  0.90780354111E+02 0.  0.
         23    2    4    4    0    0  0.36539796958E+03  0.55749754269E+02  0.18109183091E+03  0.41994549326E+03  0.83284181050E+02 0.  0.
          5    1    3    3  502    0 -0.10875052180E+04 -0.11375453379E+03 -0.11891056862E+03  0.10998952253E+04  0.47000000000E+01 0. -1.
         -5    1    3    3    0  502 -0.51346399987E+03 -0.22049111808E+02 -0.10649859229E+03  0.52487663565E+03  0.47000000000E+01 0.  1.
         13    1    5    5    0    0  0.79821833455E+03  0.31693111808E+02  0.12222901597E+04  0.14601884116E+04  0.00000000000E+00 0. -1.
        -13    1    5    5    0    0  0.43735291377E+03  0.48360779526E+02  0.78908322759E+03  0.90347588581E+03  0.00000000000E+00 0.  1.
          4    1    6    6  503    0  0.25828155716E+03  0.70660565222E+02  0.15219364409E+03  0.30800192134E+03  0.00000000000E+00 0. -1.
         -4    1    6    6    0  503  0.10711641242E+03 -0.14910810953E+02  0.28898186816E+02  0.11194357192E+03  0.00000000000E+00 0.  1.
<mgrwt>
<rscale>  0 0.16110976E+04</rscale>
<asrwt>0</asrwt>
<pdfrwt beam="1">  1        2 0.49041828E+00 0.16110976E+04</pdfrwt>
<pdfrwt beam="2">  1       -2 0.18779428E+00 0.16110976E+04</pdfrwt>
<totfact> 0.19758301E-01</totfact>
</mgrwt>
</event>
<event>
12    1  0.3203156E-008  0.5731311E+03  0.7818608E-02  0.9962774E-01
         -2   -1    0    0    0  501 -0.00000000000E+00  0.00000000000E+00  0.96439225198E+03  0.96439225198E+03  0.00000000000E+00 0. -1.
          2   -1    0    0  501    0  0.00000000000E+00 -0.00000000000E+00 -0.47661029814E+03  0.47661029814E+03  0.00000000000E+00 0.  1.
         23    2    1    2    0    0 -0.51084454476E+03  0.16977313124E+03  0.14363716635E+03  0.56472273756E+03  0.92168702671E+02 0.  0.
    5000000    2    1    2    0    0  0.51084454476E+03 -0.16977313124E+03  0.34414478749E+03  0.87627981256E+03  0.59970460239E+03 0.  0.
         23    2    4    4    0    0  0.13909515016E+03 -0.17734703702E+03 -0.12325470695E+03  0.27242435930E+03  0.90685591018E+02 0.  0.
         23    2    4    4    0    0  0.37174939461E+03  0.75739057803E+01  0.46739949444E+03  0.60385545326E+03  0.89017664444E+02 0.  0.
          5    1    3    3  502    0 -0.39130790694E+03  0.88041274693E+02  0.99671514138E+02  0.41331543017E+03  0.47000000000E+01 0. -1.
         -5    1    3    3    0  502 -0.11953663782E+03  0.81731856549E+02  0.43965652208E+02  0.15140730739E+03  0.47000000000E+01 0.  1.
         13    1    5    5    0    0  0.11819413909E+03 -0.12914215341E+03 -0.13188000075E+03  0.21918002852E+03  0.00000000000E+00 0.  1.
        -13    1    5    5    0    0  0.20901011065E+02 -0.48204883614E+02  0.86252937996E+01  0.53244330786E+02  0.00000000000E+00 0. -1.
          4    1    6    6  503    0  0.35476681940E+03  0.19690888029E+01  0.40248957768E+03  0.53652701106E+03  0.00000000000E+00 0. -1.
         -4    1    6    6    0  503  0.16982575204E+02  0.56048169774E+01  0.64909916765E+02  0.67328442195E+02  0.00000000000E+00 0.  1.
<mgrwt>
<rscale>  0 0.57313109E+03</rscale>
<asrwt>0</asrwt>
<pdfrwt beam="1">  1        2 0.73324661E-01 0.57313109E+03</pdfrwt>
<pdfrwt beam="2">  1       -2 0.14836804E+00 0.57313109E+03</pdfrwt>
<totfact> 0.20701322E+01</totfact>
</mgrwt>
</event>
<event>
12    1  0.3203156E-008  0.1965391E+04  0.7818608E-02  0.8622975E-01
          1   -1    0    0  501    0  0.00000000000E+00  0.00000000000E+00  0.28905031072E+04  0.28905031072E+04  0.00000000000E+00 0. -1.
         -1   -1    0    0    0  501 -0.00000000000E+00 -0.00000000000E+00 -0.14218258583E+04  0.14218258583E+04  0.00000000000E+00 0.  1.
         23    2    1    2    0    0 -0.19285653165E+04 -0.31947569854E+03  0.10653082543E+04  0.22281261646E+04  0.90750354153E+02 0.  0.
    5000000    2    1    2    0    0  0.19285653165E+04  0.31947569854E+03  0.40336899457E+03  0.20842028009E+04  0.59980485776E+03 0.  0.
         23    2    4    4    0    0  0.13582160305E+04  0.33819381749E+03  0.43722096223E+02  0.14033784452E+04  0.91834607330E+02 0.  0.
         23    2    4    4    0    0  0.57034928602E+03 -0.18718118945E+02  0.35964689835E+03  0.68082435567E+03  0.92343032996E+02 0.  0.
          5    1    3    3  502    0 -0.53005958795E+03 -0.97927705354E+02  0.33865438034E+03  0.63660182342E+03  0.47000000000E+01 0. -1.
         -5    1    3    3    0  502 -0.13985057286E+04 -0.22154799319E+03  0.72665387394E+03  0.15915243412E+04  0.47000000000E+01 0.  1.
         11    1    5    5    0    0  0.11009376303E+04  0.25571943365E+03  0.36739538836E+01  0.11302520040E+04  0.00000000000E+00 0.  1.
        -11    1    5    5    0    0  0.25727840020E+03  0.82474383838E+02  0.40048142340E+02  0.27312644124E+03  0.00000000000E+00 0. -1.
          3    1    6    6  503    0  0.46960819655E+03  0.12857849990E+02  0.31820672852E+03  0.56740876328E+03  0.00000000000E+00 0. -1.
         -3    1    6    6    0  503  0.10074108947E+03 -0.31575968935E+02  0.41440169830E+02  0.11341559239E+03  0.00000000000E+00 0.  1.
<mgrwt>
<rscale>  0 0.19653909E+04</rscale>
<asrwt>0</asrwt>
<pdfrwt beam="1">  1        1 0.44469278E+00 0.19653909E+04</pdfrwt>
<pdfrwt beam="2">  1       -1 0.21874244E+00 0.19653909E+04</pdfrwt>
<totfact> 0.72162362E-02</totfact>
</mgrwt>
</event>
<event>
12    1  0.3203156E-008  0.5700789E+03  0.7818608E-02  0.9969504E-01
          2   -1    0    0  501    0  0.00000000000E+00  0.00000000000E+00  0.63128860836E+03  0.63128860836E+03  0.00000000000E+00 0. -1.
         -2   -1    0    0    0  501 -0.00000000000E+00 -0.00000000000E+00 -0.55006274862E+03  0.55006274862E+03  0.00000000000E+00 0.  1.
         23    2    1    2    0    0 -0.31719379281E+03 -0.27096062278E+03  0.13667408904E+03  0.44848842792E+03  0.91817765527E+02 0.  0.
    5000000    2    1    2    0    0  0.31719379281E+03  0.27096062278E+03 -0.55448229299E+02  0.73286292906E+03  0.59998500428E+03 0.  0.
         23    2    4    4    0    0 -0.63916840812E+02  0.31667470140E+03 -0.31293258310E+02  0.33722062938E+03  0.91489102173E+02 0.  0.
         23    2    4    4    0    0  0.38111063362E+03 -0.45714078625E+02 -0.24154970989E+02  0.39564229968E+03  0.92813116678E+02 0.  0.
          5    1    3    3  502    0 -0.70041910881E+02 -0.75791545225E+02 -0.43570245550E+01  0.10339874888E+03  0.47000000000E+01 0. -1.
         -5    1    3    3    0  502 -0.24715188193E+03 -0.19516907755E+03  0.14103111359E+03  0.34508967903E+03  0.47000000000E+01 0.  1.
         11    1    5    5    0    0 -0.54596334830E+02  0.11292357537E+03  0.19729536869E+02  0.12697144670E+03  0.00000000000E+00 0.  1.
        -11    1    5    5    0    0 -0.93205059818E+01  0.20375112603E+03 -0.51022795179E+02  0.21024918268E+03  0.00000000000E+00 0. -1.
          3    1    6    6  503    0  0.29006794797E+03  0.12261589274E+01 -0.36952248349E+02  0.29241475094E+03  0.00000000000E+00 0. -1.
         -3    1    6    6    0  503  0.91042685651E+02 -0.46940237553E+02  0.12797277360E+02  0.10322754874E+03  0.00000000000E+00 0.  1.
<mgrwt>
<rscale>  0 0.57007892E+03</rscale>
<asrwt>0</asrwt>
<pdfrwt beam="1">  1        2 0.97121324E-01 0.57007892E+03</pdfrwt>
<pdfrwt beam="2">  1       -2 0.84625038E-01 0.57007892E+03</pdfrwt>
<totfact> 0.58257069E+01</totfact>
</mgrwt>
</event>
<event>
12    1  0.3203156E-008  0.6013962E+03  0.7818608E-02  0.9902514E-01
         -3   -1    0    0    0  501 -0.00000000000E+00  0.00000000000E+00  0.18722399090E+04  0.18722399090E+04  0.00000000000E+00 0.  1.
          3   -1    0    0  501    0  0.00000000000E+00 -0.00000000000E+00 -0.31894994701E+03  0.31894994701E+03  0.00000000000E+00 0. -1.
         23    2    1    2    0    0 -0.17678464351E+03  0.53996059865E+03  0.11175235302E+04  0.12570219226E+04  0.91842338879E+02 0.  0.
    5000000    2    1    2    0    0  0.17678464351E+03 -0.53996059865E+03  0.43576643180E+03  0.93416793337E+03  0.59997257136E+03 0.  0.
         23    2    4    4    0    0  0.10693941727E+03 -0.73025852619E+02  0.42377240419E+03  0.45289506253E+03  0.93605945300E+02 0.  0.
         23    2    4    4    0    0  0.69845226242E+02 -0.46693474603E+03  0.11994027617E+02  0.48127287084E+03  0.92592153207E+02 0.  0.
          5    1    3    3  502    0 -0.86161627346E+02  0.24513025198E+03  0.61081248991E+03  0.66379714845E+03  0.47000000000E+01 0.  1.
         -5    1    3    3    0  502 -0.90623016162E+02  0.29483034667E+03  0.50671104026E+03  0.59322477417E+03  0.47000000000E+01 0. -1.
         11    1    5    5    0    0  0.35015085166E+02  0.17202488745E+02  0.62822126171E+02  0.73949992190E+02  0.00000000000E+00 0.  1.
        -11    1    5    5    0    0  0.71924332100E+02 -0.90228341365E+02  0.36095027801E+03  0.37894507034E+03  0.00000000000E+00 0. -1.
          2    1    6    6  503    0  0.89723190339E+01 -0.33070745414E+03  0.23212732532E+02  0.33164250886E+03  0.00000000000E+00 0. -1.
         -2    1    6    6    0  503  0.60872907208E+02 -0.13622729188E+03 -0.11218704915E+02  0.14963036198E+03  0.00000000000E+00 0.  1.
<mgrwt>
<rscale>  0 0.60139615E+03</rscale>
<asrwt>0</asrwt>
<pdfrwt beam="1">  1        3 0.49069224E-01 0.60139615E+03</pdfrwt>
<pdfrwt beam="2">  1       -3 0.28803690E+00 0.60139615E+03</pdfrwt>
<totfact> 0.49184920E-01</totfact>
</mgrwt>
</event>
<event>
12    1  0.3203156E-008  0.1231583E+04  0.7818608E-02  0.9085652E-01
         -1   -1    0    0    0  501 -0.00000000000E+00  0.00000000000E+00  0.13640489657E+04  0.13640489657E+04  0.00000000000E+00 0.  1.
          1   -1    0    0  501    0  0.00000000000E+00 -0.00000000000E+00 -0.12264139379E+04  0.12264139379E+04  0.00000000000E+00 0. -1.
         23    2    1    2    0    0  0.75719442711E+03  0.88071186575E+03  0.44579532101E+03  0.12473482133E+04  0.90262429487E+02 0.  0.
    5000000    2    1    2    0    0 -0.75719442711E+03 -0.88071186575E+03 -0.30816029315E+03  0.13431146903E+04  0.59999792838E+03 0.  0.
         23    2    4    4    0    0 -0.55488819029E+03 -0.20930178723E+03 -0.14868731765E+03  0.61822573484E+03  0.91580559774E+02 0.  0.
         23    2    4    4    0    0 -0.20230623682E+03 -0.67141007852E+03 -0.15947297550E+03  0.72488895544E+03  0.91175988140E+02 0.  0.
          5    1    3    3  502    0  0.20967776834E+03  0.18891230823E+03  0.12279797870E+03  0.30782147474E+03  0.47000000000E+01 0. -1.
         -5    1    3    3    0  502  0.54751665877E+03  0.69179955752E+03  0.32299734231E+03  0.93952673861E+03  0.47000000000E+01 0.  1.
         11    1    5    5    0    0 -0.22771348322E+03 -0.60589927360E+02 -0.19958521044E+02  0.23648025774E+03  0.00000000000E+00 0.  1.
        -11    1    5    5    0    0 -0.32717470706E+03 -0.14871185987E+03 -0.12872879660E+03  0.38174547710E+03  0.00000000000E+00 0. -1.
          2    1    6    6  503    0 -0.64766883971E+02 -0.31497822534E+03 -0.36996990623E+02  0.32368937118E+03  0.00000000000E+00 0. -1.
         -2    1    6    6    0  503 -0.13753935285E+03 -0.35643185318E+03 -0.12247598488E+03  0.40119958426E+03  0.00000000000E+00 0.  1.
<mgrwt>
<rscale>  0 0.12315832E+04</rscale>
<asrwt>0</asrwt>
<pdfrwt beam="1">  1        1 0.18867907E+00 0.12315832E+04</pdfrwt>
<pdfrwt beam="2">  1       -1 0.20985369E+00 0.12315832E+04</pdfrwt>
<totfact> 0.12861804E+00</totfact>
</mgrwt>
</event>
<event>
12    1  0.3203156E-008  0.1046698E+04  0.7818608E-02  0.9258760E-01
          2   -1    0    0  501    0  0.00000000000E+00  0.00000000000E+00  0.36315274358E+04  0.36315274358E+04  0.00000000000E+00 0. -1.
         -2   -1    0    0    0  501 -0.00000000000E+00 -0.00000000000E+00 -0.60291793672E+03  0.60291793672E+03  0.00000000000E+00 0.  1.
         23    2    1    2    0    0 -0.35404011533E+03  0.93289800723E+03  0.28937961975E+04  0.30623634596E+04  0.91490056051E+02 0.  0.
    5000000    2    1    2    0    0  0.35404011533E+03 -0.93289800723E+03  0.13481330153E+03  0.11720819130E+04  0.59996524004E+03 0.  0.
         23    2    4    4    0    0  0.35406413295E+03 -0.95957203636E+03  0.26110674565E+02  0.10271840390E+04  0.91024059641E+02 0.  0.
         23    2    4    4    0    0 -0.24017621859E-01  0.26674029129E+02  0.10870262697E+03  0.14489787396E+03  0.92019717248E+02 0.  0.
          5    1    3    3  502    0 -0.20823499490E+03  0.45506746884E+03  0.13531191587E+04  0.14427064019E+04  0.47000000000E+01 0. -1.
         -5    1    3    3    0  502 -0.14580512043E+03  0.47783053839E+03  0.15406770388E+04  0.16196570577E+04  0.47000000000E+01 0.  1.
         11    1    5    5    0    0  0.52364314572E+02 -0.25600535106E+03  0.95080844787E+01  0.26147880388E+03  0.00000000000E+00 0. -1.
        -11    1    5    5    0    0  0.30169981838E+03 -0.70356668530E+03  0.16602590086E+02  0.76570523511E+03  0.00000000000E+00 0.  1.
          2    1    6    6  503    0 -0.23294798172E+02 -0.80883746580E+01 -0.37259508917E+01  0.24938968233E+02  0.00000000000E+00 0. -1.
         -2    1    6    6    0  503  0.23270780550E+02  0.34762403787E+02  0.11242857786E+03  0.11995890573E+03  0.00000000000E+00 0.  1.
<mgrwt>
<rscale>  0 0.10466979E+04</rscale>
<asrwt>0</asrwt>
<pdfrwt beam="1">  1        2 0.55869652E+00 0.10466979E+04</pdfrwt>
<pdfrwt beam="2">  1       -2 0.92756608E-01 0.10466979E+04</pdfrwt>
<totfact> 0.66473821E-01</totfact>
</mgrwt>
</event>
<event>
12    1  0.3203156E-008  0.1646239E+04  0.7818608E-02  0.8792635E-01
          1   -1    0    0  501    0  0.00000000000E+00  0.00000000000E+00  0.40360792618E+04  0.40360792618E+04  0.00000000000E+00 0. -1.
         -1   -1    0    0    0  501 -0.00000000000E+00 -0.00000000000E+00 -0.67840258816E+03  0.67840258816E+03  0.00000000000E+00 0.  1.
         23    2    1    2    0    0 -0.38859473412E+03 -0.15460341427E+04  0.14579318146E+04  0.21629723464E+04  0.10796646429E+03 0.  0.
    5000000    2    1    2    0    0  0.38859473412E+03  0.15460341427E+04  0.18997448591E+04  0.25515095036E+04  0.59995231434E+03 0.  0.
         23    2    4    4    0    0  0.73626006858E+02  0.12498717827E+04  0.13079338603E+04  0.18127519294E+04  0.88194742031E+02 0.  0.
         23    2    4    4    0    0  0.31496872726E+03  0.29616236003E+03  0.59181099884E+03  0.73875757425E+03  0.92763422285E+02 0.  0.
          5    1    3    3  502    0 -0.29070141165E+03 -0.12928904588E+04  0.11786122089E+04  0.17734773408E+04  0.47000000000E+01 0. -1.
         -5    1    3    3    0  502 -0.97893322467E+02 -0.25314368388E+03  0.27931960567E+03  0.38949500560E+03  0.47000000000E+01 0.  1.
         13    1    5    5    0    0  0.90625951282E+02  0.84408068787E+03  0.87623132283E+03  0.12200272955E+04  0.00000000000E+00 0.  1.
        -13    1    5    5    0    0 -0.16999944424E+02  0.40579109482E+03  0.43170253742E+03  0.59272463384E+03  0.00000000000E+00 0. -1.
          1    1    6    6  503    0  0.25881098259E+03  0.19137520539E+03  0.45751248414E+03  0.55939723550E+03  0.00000000000E+00 0. -1.
         -1    1    6    6    0  503  0.56157744671E+02  0.10478715464E+03  0.13429851470E+03  0.17936033875E+03  0.00000000000E+00 0.  1.
<mgrwt>
<rscale>  0 0.16462388E+04</rscale>
<asrwt>0</asrwt>
<pdfrwt beam="1">  1        1 0.62093526E+00 0.16462388E+04</pdfrwt>
<pdfrwt beam="2">  1       -1 0.10436963E+00 0.16462388E+04</pdfrwt>
<totfact> 0.73202428E-02</totfact>
</mgrwt>
</event>
<event>
12    1  0.3203156E-008  0.7075061E+03  0.7818608E-02  0.9704481E-01
         -1   -1    0    0    0  501 -0.00000000000E+00  0.00000000000E+00  0.30036755880E+03  0.30036755880E+03  0.00000000000E+00 0.  1.
          1   -1    0    0  501    0  0.00000000000E+00 -0.00000000000E+00 -0.17352268567E+04  0.17352268567E+04  0.00000000000E+00 0. -1.
         23    2    1    2    0    0 -0.28616903518E+03 -0.51625103262E+03 -0.51971766640E+03  0.79118847803E+03  0.86399708471E+02 0.  0.
    5000000    2    1    2    0    0  0.28616903518E+03  0.51625103262E+03 -0.91514163148E+03  0.12444059375E+04  0.60220767692E+03 0.  0.
         23    2    4    4    0    0  0.27833188131E+03 -0.13732256921E+02 -0.23025682604E+03  0.37324337324E+03  0.92925769809E+02 0.  0.
         23    2    4    4    0    0  0.78371538636E+01  0.52998328954E+03 -0.68488480544E+03  0.87116256422E+03  0.94410319373E+02 0.  0.
          5    1    3    3  502    0 -0.24936970804E+03 -0.46832168685E+03 -0.49529292608E+03  0.72584270078E+03  0.47000000000E+01 0. -1.
         -5    1    3    3    0  502 -0.36799327142E+02 -0.47929345769E+02 -0.24424740323E+02  0.65345777245E+02  0.47000000000E+01 0.  1.
         13    1    5    5    0    0  0.17419992274E+03 -0.46296499514E+02 -0.11135774464E+03  0.21187148520E+03  0.00000000000E+00 0. -1.
        -13    1    5    5    0    0  0.10413195858E+03  0.32564242594E+02 -0.11889908140E+03  0.16137188805E+03  0.00000000000E+00 0.  1.
          3    1    6    6  503    0  0.36688533452E+02  0.37646900247E+03 -0.43479494842E+03  0.57629992667E+03  0.00000000000E+00 0. -1.
         -3    1    6    6    0  503 -0.28851379589E+02  0.15351428706E+03 -0.25008985702E+03  0.29486263755E+03  0.00000000000E+00 0.  1.
<mgrwt>
<rscale>  0 0.70750611E+03</rscale>
<asrwt>0</asrwt>
<pdfrwt beam="1">  1        1 0.26695798E+00 0.70750611E+03</pdfrwt>
<pdfrwt beam="2">  1       -1 0.46210393E-01 0.70750611E+03</pdfrwt>
<totfact> 0.21915293E+01</totfact>
</mgrwt>
</event>
<event>
12    1  0.3203156E-008  0.1400762E+04  0.7818608E-02  0.8953267E-01
         -1   -1    0    0    0  501 -0.00000000000E+00  0.00000000000E+00  0.21654573207E+04  0.21654573207E+04  0.00000000000E+00 0.  1.
          1   -1    0    0  501    0  0.00000000000E+00 -0.00000000000E+00 -0.18604911567E+04  0.18604911567E+04  0.00000000000E+00 0. -1.
         23    2    1    2    0    0 -0.12887309243E+04  0.47144972016E+03  0.15544424001E+04  0.20755041650E+04  0.91291454509E+02 0.  0.
    5000000    2    1    2    0    0  0.12887309243E+04 -0.47144972016E+03 -0.12494762362E+04  0.19504443124E+04  0.59995826286E+03 0.  0.
         23    2    4    4    0    0  0.94384351571E+03 -0.16019328733E+03 -0.55355006757E+03  0.11094457447E+04  0.89161155176E+02 0.  0.
         23    2    4    4    0    0  0.34488740856E+03 -0.31125643283E+03 -0.69592616859E+03  0.84099856772E+03  0.84483532211E+02 0.  0.
          5    1    3    3  502    0 -0.60324848836E+03  0.17802378283E+03  0.67961170434E+03  0.92601045601E+03  0.47000000000E+01 0. -1.
         -5    1    3    3    0  502 -0.68548243590E+03  0.29342593733E+03  0.87483069579E+03  0.11494937090E+04  0.47000000000E+01 0.  1.
         11    1    5    5    0    0  0.39507663578E+03 -0.25109601024E+02 -0.24500055982E+03  0.46555484587E+03  0.00000000000E+00 0. -1.
        -11    1    5    5    0    0  0.54876687993E+03 -0.13508368630E+03 -0.30854950775E+03  0.64389089879E+03  0.00000000000E+00 0.  1.
          1    1    6    6  503    0  0.29162503171E+03 -0.27898237457E+03 -0.64353793400E+03  0.75961661181E+03  0.00000000000E+00 0. -1.
         -1    1    6    6    0  503  0.53262376843E+02 -0.32274058263E+02 -0.52388234588E+02  0.81381955905E+02  0.00000000000E+00 0.  1.
<mgrwt>
<rscale>  0 0.14007619E+04</rscale>
<asrwt>0</asrwt>
<pdfrwt beam="1">  1        1 0.28622941E+00 0.14007619E+04</pdfrwt>
<pdfrwt beam="2">  1       -1 0.33314728E+00 0.14007619E+04</pdfrwt>
<totfact> 0.71221510E-02</totfact>
</mgrwt>
</event>
<event>
12    1  0.3203156E-008  0.4320297E+03  0.7818608E-02  0.1033221E+00
         -1   -1    0    0    0  501 -0.00000000000E+00  0.00000000000E+00  0.39279166089E+03  0.39279166089E+03  0.00000000000E+00 0.  1.
          1   -1    0    0  501    0  0.00000000000E+00 -0.00000000000E+00 -0.17699490372E+04  0.17699490372E+04  0.00000000000E+00 0. -1.
         23    2    1    2    0    0  0.15971217908E+03 -0.16872871258E+03  0.28589126375E+03  0.37955744472E+03  0.91393000605E+02 0.  0.
    5000000    2    1    2    0    0 -0.15971217908E+03  0.16872871258E+03 -0.16630486400E+04  0.17831832534E+04  0.60002864710E+03 0.  0.
         23    2    4    4    0    0 -0.32097038727E+03 -0.63931134384E+02 -0.76186232052E+03  0.83418459891E+03  0.91217159508E+02 0.  0.
         23    2    4    4    0    0  0.16125820819E+03  0.23265984696E+03 -0.90118631952E+03  0.94899865445E+03  0.91251572891E+02 0.  0.
          5    1    3    3  502    0  0.73238961338E+02 -0.11659762414E+03  0.10841136891E+03  0.17531134111E+03  0.47000000000E+01 0.  1.
         -5    1    3    3    0  502  0.86473217744E+02 -0.52131088441E+02  0.17747989483E+03  0.20424610361E+03  0.47000000000E+01 0. -1.
         13    1    5    5    0    0 -0.25554066561E+03 -0.82623693066E+02 -0.55803737032E+03  0.61930074529E+03  0.00000000000E+00 0.  1.
        -13    1    5    5    0    0 -0.65429721662E+02  0.18692558682E+02 -0.20382495020E+03  0.21488385363E+03  0.00000000000E+00 0. -1.
          4    1    6    6  503    0  0.95365717111E+02  0.88566668556E+02 -0.52325094605E+03  0.53919405349E+03  0.00000000000E+00 0. -1.
         -4    1    6    6    0  503  0.65892491080E+02  0.14409317841E+03 -0.37793537347E+03  0.40980460096E+03  0.00000000000E+00 0.  1.
<mgrwt>
<rscale>  0 0.43202967E+03</rscale>
<asrwt>0</asrwt>
<pdfrwt beam="1">  1        1 0.27229985E+00 0.43202967E+03</pdfrwt>
<pdfrwt beam="2">  1       -1 0.60429487E-01 0.43202967E+03</pdfrwt>
<totfact> 0.13142794E+01</totfact>
</mgrwt>
</event>
<event>
12    1  0.3203156E-008  0.3949940E+03  0.7818608E-02  0.1045527E+00
          1   -1    0    0  501    0  0.00000000000E+00  0.00000000000E+00  0.39587180814E+03  0.39587180814E+03  0.00000000000E+00 0. -1.
         -1   -1    0    0    0  501 -0.00000000000E+00 -0.00000000000E+00 -0.65178797232E+03  0.65178797232E+03  0.00000000000E+00 0.  1.
         23    2    1    2    0    0 -0.20626522330E+03 -0.21758867373E+03 -0.20695319261E+03  0.37535188714E+03  0.90383858973E+02 0.  0.
    5000000    2    1    2    0    0  0.20626522330E+03  0.21758867373E+03 -0.48962971575E+02  0.67230789332E+03  0.59975858273E+03 0.  0.
         23    2    4    4    0    0  0.38890081900E+01 -0.92317717172E+02 -0.21961420058E+03  0.25495488466E+03  0.90740899421E+02 0.  0.
         23    2    4    4    0    0  0.20237621511E+03  0.30990639091E+03  0.17065122900E+03  0.41735300866E+03  0.89797484978E+02 0.  0.
          5    1    3    3  502    0 -0.20116812445E+03 -0.21309107965E+03 -0.17284259311E+03  0.34025442615E+03  0.47000000000E+01 0. -1.
         -5    1    3    3    0  502 -0.50970988560E+01 -0.44975940788E+01 -0.34110599502E+02  0.35097460985E+02  0.47000000000E+01 0.  1.
         11    1    5    5    0    0 -0.36120547930E+01 -0.10374329075E+03 -0.21766215462E+03  0.24114835863E+03  0.00000000000E+00 0.  1.
        -11    1    5    5    0    0  0.75010629829E+01  0.11425573581E+02 -0.19520459549E+01  0.13806526027E+02  0.00000000000E+00 0. -1.
          3    1    6    6  503    0  0.67122812520E+02  0.12744436161E+03  0.21507909022E+02  0.14563697133E+03  0.00000000000E+00 0. -1.
         -3    1    6    6    0  503  0.13525340259E+03  0.18246202929E+03  0.14914331998E+03  0.27171603733E+03  0.00000000000E+00 0.  1.
<mgrwt>
<rscale>  0 0.39499403E+03</rscale>
<asrwt>0</asrwt>
<pdfrwt beam="1">  1        1 0.60903355E-01 0.39499403E+03</pdfrwt>
<pdfrwt beam="2">  1       -1 0.10027507E+00 0.39499403E+03</pdfrwt>
<totfact> 0.60970644E+01</totfact>
</mgrwt>
</event>
<event>
12    1  0.3203156E-008  0.9023670E+03  0.7818608E-02  0.9422627E-01
         -1   -1    0    0    0  501 -0.00000000000E+00  0.00000000000E+00  0.96309734006E+03  0.96309734006E+03  0.00000000000E+00 0.  1.
          1   -1    0    0  501    0  0.00000000000E+00 -0.00000000000E+00 -0.88564962717E+03  0.88564962717E+03  0.00000000000E+00 0. -1.
         23    2    1    2    0    0 -0.79128768504E+03  0.18299713999E+03 -0.10069069922E+03  0.82335893844E+03  0.90317057387E+02 0.  0.
    5000000    2    1    2    0    0  0.79128768504E+03 -0.18299713999E+03  0.17813841210E+03  0.10253880288E+04  0.60005263267E+03 0.  0.
         23    2    4    4    0    0  0.19269969370E+03 -0.32036365098E+03  0.11835295941E+03  0.40209478295E+03  0.88919911425E+02 0.  0.
         23    2    4    4    0    0  0.59858799134E+03  0.13736651100E+03  0.59785452694E+02  0.62329324584E+03  0.87994478451E+02 0.  0.
          5    1    3    3  502    0 -0.55487343976E+03  0.10329645987E+03 -0.10336657196E+03  0.57381306274E+03  0.47000000000E+01 0. -1.
         -5    1    3    3    0  502 -0.23641424529E+03  0.79700680117E+02  0.26758727389E+01  0.24954587570E+03  0.47000000000E+01 0.  1.
         11    1    5    5    0    0  0.15110802832E+03 -0.25460012711E+03  0.53631052695E+02  0.30088394899E+03  0.00000000000E+00 0. -1.
        -11    1    5    5    0    0  0.41591665387E+02 -0.65763523875E+02  0.64721906714E+02  0.10121083396E+03  0.00000000000E+00 0.  1.
          4    1    6    6  503    0  0.54305336350E+03  0.10662051206E+03  0.33025480106E+02  0.55440560201E+03  0.00000000000E+00 0. -1.
         -4    1    6    6    0  503  0.55534627837E+02  0.30745998940E+02  0.26759972588E+02  0.68887643832E+02  0.00000000000E+00 0.  1.
<mgrwt>
<rscale>  0 0.90236698E+03</rscale>
<asrwt>0</asrwt>
<pdfrwt beam="1">  1        1 0.13625379E+00 0.90236698E+03</pdfrwt>
<pdfrwt beam="2">  1       -1 0.14816882E+00 0.90236698E+03</pdfrwt>
<totfact> 0.68340581E+00</totfact>
</mgrwt>
</event>
<event>
12    1  0.3203156E-008  0.1192510E+04  0.7818608E-02  0.9119438E-01
          2   -1    0    0  501    0  0.00000000000E+00  0.00000000000E+00  0.26409003050E+04  0.26409003050E+04  0.00000000000E+00 0. -1.
         -2   -1    0    0    0  501 -0.00000000000E+00 -0.00000000000E+00 -0.59656187614E+03  0.59656187614E+03  0.00000000000E+00 0.  1.
         23    2    1    2    0    0  0.10415142780E+03  0.11623748729E+04  0.12026612355E+04  0.16785233556E+04  0.95308670654E+02 0.  0.
    5000000    2    1    2    0    0 -0.10415142780E+03 -0.11623748729E+04  0.84167719342E+03  0.15589388256E+04  0.59992241074E+03 0.  0.
         23    2    4    4    0    0 -0.20649683304E+03 -0.78111128238E+03  0.81762450908E+03  0.11531417179E+04  0.91925002439E+02 0.  0.
         23    2    4    4    0    0  0.10234540524E+03 -0.38126359056E+03  0.24052684337E+02  0.40579710776E+03  0.90863928929E+02 0.  0.
          5    1    3    3  502    0  0.10823423429E+03  0.70301544696E+03  0.71547507662E+03  0.10088964483E+04  0.47000000000E+01 0. -1.
         -5    1    3    3    0  502 -0.40828064891E+01  0.45935942598E+03  0.48718615884E+03  0.66962690725E+03  0.47000000000E+01 0.  1.
         13    1    5    5    0    0 -0.11365533439E+03 -0.52839055583E+03  0.59459842934E+03  0.80353058853E+03  0.00000000000E+00 0.  1.
        -13    1    5    5    0    0 -0.92841498657E+02 -0.25272072655E+03  0.22302607974E+03  0.34961112932E+03  0.00000000000E+00 0. -1.
          1    1    6    6  503    0 -0.15795927579E+02 -0.67554071250E+02  0.11667376545E+02  0.70350490730E+02  0.00000000000E+00 0. -1.
         -1    1    6    6    0  503  0.11814133282E+03 -0.31370951931E+03  0.12385307792E+02  0.33544661703E+03  0.00000000000E+00 0.  1.
<mgrwt>
<rscale>  0 0.11925101E+04</rscale>
<asrwt>0</asrwt>
<pdfrwt beam="1">  1        2 0.40629235E+00 0.11925101E+04</pdfrwt>
<pdfrwt beam="2">  1       -2 0.91778751E-01 0.11925101E+04</pdfrwt>
<totfact> 0.28704374E+00</totfact>
</mgrwt>
</event>
<event>
12    1  0.3203156E-008  0.1485760E+04  0.7818608E-02  0.8893978E-01
          2   -1    0    0  501    0  0.00000000000E+00  0.00000000000E+00  0.28403196424E+04  0.28403196424E+04  0.00000000000E+00 0. -1.
         -2   -1    0    0    0  501 -0.00000000000E+00 -0.00000000000E+00 -0.96691510630E+03  0.96691510630E+03  0.00000000000E+00 0.  1.
         23    2    1    2    0    0  0.87052378189E+03  0.11720065104E+04  0.16623791280E+04  0.22147633452E+04  0.10129854401E+03 0.  0.
    5000000    2    1    2    0    0 -0.87052378189E+03 -0.11720065104E+04  0.21102540809E+03  0.15924714035E+04  0.60001877706E+03 0.  0.
         23    2    4    4    0    0 -0.15610618631E+03 -0.74251523691E+02  0.19920502686E+03  0.27942356734E+03  0.92262977867E+02 0.  0.
         23    2    4    4    0    0 -0.71441759558E+03 -0.10977549867E+04  0.11820381234E+02  0.13130478361E+04  0.92175847747E+02 0.  0.
          5    1    3    3  502    0  0.49211846275E+02  0.11055990783E+03  0.12694547835E+03  0.17544954690E+03  0.47000000000E+01 0. -1.
         -5    1    3    3    0  502  0.82131193562E+03  0.10614466025E+04  0.15354336496E+04  0.20393137983E+04  0.47000000000E+01 0.  1.
         11    1    5    5    0    0 -0.14165954999E+03 -0.24028068865E+02  0.14535652526E+03  0.20438516490E+03  0.00000000000E+00 0.  1.
        -11    1    5    5    0    0 -0.14446636315E+02 -0.50223454826E+02  0.53848501600E+02  0.75038402435E+02  0.00000000000E+00 0. -1.
          1    1    6    6  503    0 -0.15019541184E+03 -0.29668096695E+03 -0.14720199620E+02  0.33285874206E+03  0.00000000000E+00 0. -1.
         -1    1    6    6    0  503 -0.56422218374E+03 -0.80107401972E+03  0.26540580853E+02  0.98018909406E+03  0.00000000000E+00 0.  1.
<mgrwt>
<rscale>  0 0.14857595E+04</rscale>
<asrwt>0</asrwt>
<pdfrwt beam="1">  1        2 0.43697225E+00 0.14857595E+04</pdfrwt>
<pdfrwt beam="2">  1       -2 0.14875617E+00 0.14857595E+04</pdfrwt>
<totfact> 0.63481050E-01</totfact>
</mgrwt>
</event>
<event>
12    1  0.3203156E-008  0.8361652E+03  0.7818608E-02  0.9509096E-01
          2   -1    0    0  501    0  0.00000000000E+00  0.00000000000E+00  0.12861343579E+04  0.12861343579E+04  0.00000000000E+00 0.  1.
         -2   -1    0    0    0  501 -0.00000000000E+00 -0.00000000000E+00 -0.85570415794E+03  0.85570415794E+03  0.00000000000E+00 0. -1.
         23    2    1    2    0    0 -0.16947187068E+03  0.72844986903E+03 -0.41809001201E+03  0.86125941344E+03  0.87227246046E+02 0.  0.
    5000000    2    1    2    0    0  0.16947187068E+03 -0.72844986903E+03  0.84852021200E+03  0.12805791024E+04  0.60044680095E+03 0.  0.
         23    2    4    4    0    0  0.16601925084E+03  0.26468122097E+02  0.11291299541E+03  0.22261436174E+03  0.92438392373E+02 0.  0.
         23    2    4    4    0    0  0.34526198381E+01 -0.75491799113E+03  0.73560721659E+03  0.10579647407E+04  0.90875307629E+02 0.  0.
          5    1    3    3  502    0 -0.11500307623E+03  0.47135957568E+03 -0.22339668760E+03  0.53416638528E+03  0.47000000000E+01 0. -1.
         -5    1    3    3    0  502 -0.54468794444E+02  0.25709029335E+03 -0.19469332441E+03  0.32709302816E+03  0.47000000000E+01 0.  1.
         11    1    5    5    0    0  0.84917074498E+02  0.10887773201E+02  0.11077440443E+03  0.14000150651E+03  0.00000000000E+00 0.  1.
        -11    1    5    5    0    0  0.81102176340E+02  0.15580348896E+02  0.21385909808E+01  0.82612855236E+02  0.00000000000E+00 0. -1.
          3    1    6    6  503    0 -0.14420138001E+02 -0.11273822823E+03  0.73146875963E+02  0.13516032683E+03  0.00000000000E+00 0. -1.
         -3    1    6    6    0  503  0.17872757839E+02 -0.64217976290E+03  0.66246034063E+03  0.92280441387E+03  0.00000000000E+00 0.  1.
<mgrwt>
<rscale>  0 0.83616522E+03</rscale>
<asrwt>0</asrwt>
<pdfrwt beam="1">  1        2 0.19786682E+00 0.83616522E+03</pdfrwt>
<pdfrwt beam="2">  1       -2 0.13164679E+00 0.83616522E+03</pdfrwt>
<totfact> 0.71585806E+00</totfact>
</mgrwt>
</event>
<event>
12    1  0.3203156E-008  0.4834304E+03  0.7818608E-02  0.1018197E+00
          2   -1    0    0  501    0  0.00000000000E+00  0.00000000000E+00  0.11646646817E+04  0.11646646817E+04  0.00000000000E+00 0. -1.
         -2   -1    0    0    0  501 -0.00000000000E+00 -0.00000000000E+00 -0.20531260961E+03  0.20531260961E+03  0.00000000000E+00 0.  1.
         23    2    1    2    0    0  0.18952340720E+03 -0.22346771758E+03  0.25603446010E+03  0.39946854099E+03  0.90357776667E+02 0.  0.
    5000000    2    1    2    0    0 -0.18952340720E+03  0.22346771758E+03  0.70331761198E+03  0.97050875031E+03  0.60114443225E+03 0.  0.
         23    2    4    4    0    0  0.17671501870E+03  0.20849021010E+03  0.35259159096E+03  0.45500057143E+03  0.89489242054E+02 0.  0.
         23    2    4    4    0    0 -0.36623842590E+03  0.14977507483E+02  0.35072602102E+03  0.51550817888E+03  0.91569811285E+02 0.  0.
          5    1    3    3  502    0  0.60900409447E+02 -0.13504367302E+03  0.10054089666E+03  0.17909834001E+03  0.47000000000E+01 0. -1.
         -5    1    3    3    0  502  0.12862299775E+03 -0.88424044559E+02  0.15549356344E+03  0.22037020098E+03  0.47000000000E+01 0.  1.
         13    1    5    5    0    0  0.55975062558E+02  0.14104662030E+02  0.87224420725E+02  0.10459564374E+03  0.00000000000E+00 0. -1.
        -13    1    5    5    0    0  0.12073995614E+03  0.19438554807E+03  0.26536717024E+03  0.35040492769E+03  0.00000000000E+00 0.  1.
          2    1    6    6  503    0 -0.84896471816E+02 -0.31939779898E+02  0.10751768553E+03  0.14066845122E+03  0.00000000000E+00 0. -1.
         -2    1    6    6    0  503 -0.28134195408E+03  0.46917287381E+02  0.24320833548E+03  0.37483972766E+03  0.00000000000E+00 0.  1.
<mgrwt>
<rscale>  0 0.48343041E+03</rscale>
<asrwt>0</asrwt>
<pdfrwt beam="1">  1        2 0.17917918E+00 0.48343041E+03</pdfrwt>
<pdfrwt beam="2">  1       -2 0.31586556E-01 0.48343041E+03</pdfrwt>
<totfact> 0.19134601E+02</totfact>
</mgrwt>
</event>
<event>
12    1  0.5054737E-008  0.7875461E+03  0.7818608E-02  0.9578221E-01
          3   -1    0    0  501    0  0.00000000000E+00  0.00000000000E+00  0.15914302315E+04  0.15914302315E+04  0.00000000000E+00 0. -1.
         -3   -1    0    0    0  501 -0.00000000000E+00 -0.00000000000E+00 -0.50820550623E+03  0.50820550623E+03  0.00000000000E+00 0.  1.
         23    2    1    2    0    0 -0.61983723856E+03  0.36394424705E+03  0.82536112474E+02  0.72934899977E+03  0.92109371595E+02 0.  0.
    5000000    2    1    2    0    0  0.61983723856E+03 -0.36394424705E+03  0.10006886128E+04  0.13702867379E+04  0.59971195347E+03 0.  0.
         23    2    4    4    0    0  0.64253218430E+03 -0.18827949549E+03  0.94826999395E+03  0.11643183732E+04  0.90136099135E+02 0.  0.
         23    2    4    4    0    0 -0.22694945735E+02 -0.17566475156E+03  0.52418618824E+02  0.20596836477E+03  0.91115806446E+02 0.  0.
          5    1    3    3  502    0 -0.20906043570E+03  0.75852731391E+02  0.37426195157E+02  0.22557196794E+03  0.47000000000E+01 0. -1.
         -5    1    3    3    0  502 -0.41077680286E+03  0.28809151566E+03  0.45109917317E+02  0.50377703183E+03  0.47000000000E+01 0.  1.
         11    1    5    5    0    0  0.34750939912E+03 -0.62651863762E+02  0.53951532773E+03  0.64479828425E+03  0.00000000000E+00 0. -1.
        -11    1    5    5    0    0  0.29502278518E+03 -0.12562763173E+03  0.40875466622E+03  0.51952008891E+03  0.00000000000E+00 0.  1.
          1    1    6    6  503    0 -0.11499893565E+02 -0.88347372697E+02 -0.20774900066E+02  0.91482797767E+02  0.00000000000E+00 0. -1.
         -1    1    6    6    0  503 -0.11195052170E+02 -0.87317378858E+02  0.73193518890E+02  0.11448556700E+03  0.00000000000E+00 0.  1.
<mgrwt>
<rscale>  0 0.78754614E+03</rscale>
<asrwt>0</asrwt>
<pdfrwt beam="1">  1        3 0.24483542E+00 0.78754614E+03</pdfrwt>
<pdfrwt beam="2">  1       -3 0.78185463E-01 0.78754614E+03</pdfrwt>
<totfact> 0.31617875E-01</totfact>
</mgrwt>
</event>
<event>
12    1  0.3203156E-008  0.1015132E+04  0.7818608E-02  0.9292102E-01
          1   -1    0    0  501    0  0.00000000000E+00  0.00000000000E+00  0.15426877484E+04  0.15426877484E+04  0.00000000000E+00 0. -1.
         -1   -1    0    0    0  501 -0.00000000000E+00 -0.00000000000E+00 -0.91718333169E+03  0.91718333169E+03  0.00000000000E+00 0.  1.
         23    2    1    2    0    0  0.76919803758E+03 -0.51840053827E+03  0.92719078548E+03  0.13146646478E+04  0.90860576629E+02 0.  0.
    5000000    2    1    2    0    0 -0.76919803758E+03  0.51840053827E+03 -0.30168636880E+03  0.11452064323E+04  0.60006530334E+03 0.  0.
         23    2    4    4    0    0 -0.64207740240E+03  0.10532288658E+03 -0.12260757175E+03  0.66837352259E+03  0.91292102332E+02 0.  0.
         23    2    4    4    0    0 -0.12712063519E+03  0.41307765170E+03 -0.17907879705E+03  0.47683290967E+03  0.92236684510E+02 0.  0.
          5    1    3    3  502    0  0.26111754326E+03 -0.12638428567E+03  0.27836933116E+03  0.40207826800E+03  0.47000000000E+01 0. -1.
         -5    1    3    3    0  502  0.50808049432E+03 -0.39201625260E+03  0.64882145432E+03  0.91258637980E+03  0.47000000000E+01 0.  1.
         13    1    5    5    0    0 -0.20354142659E+03  0.74896565197E+02 -0.27592432846E+02  0.21863199712E+03  0.00000000000E+00 0. -1.
        -13    1    5    5    0    0 -0.43853597581E+03  0.30426321380E+02 -0.95015138906E+02  0.44974152547E+03  0.00000000000E+00 0.  1.
          3    1    6    6  503    0  0.64081105155E+01  0.11624190755E+03 -0.45026631032E+02  0.12482244371E+03  0.00000000000E+00 0. -1.
         -3    1    6    6    0  503 -0.13352874570E+03  0.29683574415E+03 -0.13405216602E+03  0.35201046596E+03  0.00000000000E+00 0.  1.
<mgrwt>
<rscale>  0 0.10151318E+04</rscale>
<asrwt>0</asrwt>
<pdfrwt beam="1">  1        1 0.23733658E+00 0.10151318E+04</pdfrwt>
<pdfrwt beam="2">  1       -1 0.14110513E+00 0.10151318E+04</pdfrwt>
<totfact> 0.25187980E+00</totfact>
</mgrwt>
</event>
<event>
12    1  0.3203156E-008  0.7208238E+03  0.7818608E-02  0.9682269E-01
         -2   -1    0    0    0  501 -0.00000000000E+00  0.00000000000E+00  0.61623319680E+03  0.61623319680E+03  0.00000000000E+00 0.  1.
          2   -1    0    0  501    0  0.00000000000E+00 -0.00000000000E+00 -0.12648561362E+04  0.12648561362E+04  0.00000000000E+00 0. -1.
         23    2    1    2    0    0  0.57834034696E+03  0.16826903786E+03  0.23707996532E+03  0.65335923143E+03  0.88765698981E+02 0.  0.
    5000000    2    1    2    0    0 -0.57834034696E+03 -0.16826903786E+03 -0.88570290472E+03  0.12277301016E+04  0.60004961531E+03 0.  0.
         23    2    4    4    0    0 -0.45586570614E+03 -0.36929501267E+03 -0.56596398441E+03  0.82044605436E+03  0.92866291257E+02 0.  0.
         23    2    4    4    0    0 -0.12247464082E+03  0.20102597481E+03 -0.31973892031E+03  0.40728404721E+03  0.90751516529E+02 0.  0.
          5    1    3    3  502    0  0.18329132187E+03  0.68630972442E+02  0.11917264134E+03  0.22919451890E+03  0.47000000000E+01 0. -1.
         -5    1    3    3    0  502  0.39504902510E+03  0.99638065419E+02  0.11790732398E+03  0.42416471253E+03  0.47000000000E+01 0.  1.
         11    1    5    5    0    0 -0.26918681091E+03 -0.25318213549E+03 -0.30446080174E+03  0.47881010087E+03  0.00000000000E+00 0. -1.
        -11    1    5    5    0    0 -0.18667889523E+03 -0.11611287718E+03 -0.26150318267E+03  0.34163595349E+03  0.00000000000E+00 0.  1.
          3    1    6    6  503    0 -0.26349340840E+02  0.12136804303E+03 -0.12689785698E+03  0.17756000602E+03  0.00000000000E+00 0. -1.
         -3    1    6    6    0  503 -0.96125299981E+02  0.79657931784E+02 -0.19284106333E+03  0.22972404119E+03  0.00000000000E+00 0.  1.
<mgrwt>
<rscale>  0 0.72082385E+03</rscale>
<asrwt>0</asrwt>
<pdfrwt beam="1">  1        2 0.19459325E+00 0.72082385E+03</pdfrwt>
<pdfrwt beam="2">  1       -2 0.94805107E-01 0.72082385E+03</pdfrwt>
<totfact> 0.16620227E+01</totfact>
</mgrwt>
</event>
<event>
12    1  0.3203156E-008  0.1200823E+04  0.7818608E-02  0.9112136E-01
          1   -1    0    0  501    0  0.00000000000E+00  0.00000000000E+00  0.18548408505E+04  0.18548408505E+04  0.00000000000E+00 0. -1.
         -1   -1    0    0    0  501 -0.00000000000E+00 -0.00000000000E+00 -0.82526108863E+03  0.82526108863E+03  0.00000000000E+00 0.  1.
         23    2    1    2    0    0  0.54274747831E+03  0.98884105693E+03  0.18002174042E+03  0.11457866317E+04  0.89653317628E+02 0.  0.
    5000000    2    1    2    0    0 -0.54274747831E+03 -0.98884105693E+03  0.84955802145E+03  0.15343153074E+04  0.59999430797E+03 0.  0.
         23    2    4    4    0    0 -0.18845274245E+03  0.10223160352E+02  0.97685312695E+02  0.23105930625E+03  0.90702996343E+02 0.  0.
         23    2    4    4    0    0 -0.35429473586E+03 -0.99906421728E+03  0.75187270875E+03  0.13032560011E+04  0.97516994522E+02 0.  0.
          5    1    3    3  502    0  0.43595364633E+03  0.85857900235E+03  0.15905319532E+03  0.97597822413E+03  0.47000000000E+01 0. -1.
         -5    1    3    3    0  502  0.10679383198E+03  0.13026205458E+03  0.20968545096E+02  0.16980840761E+03  0.47000000000E+01 0.  1.
         13    1    5    5    0    0 -0.79224295497E+02 -0.40081515875E+02  0.48137797663E+02  0.10099635872E+03  0.00000000000E+00 0. -1.
        -13    1    5    5    0    0 -0.10922844695E+03  0.50304676227E+02  0.49547515032E+02  0.13006294753E+03  0.00000000000E+00 0.  1.
          4    1    6    6  503    0 -0.16154811394E+03 -0.38371078651E+03  0.34583931458E+03  0.54123617055E+03  0.00000000000E+00 0. -1.
         -4    1    6    6    0  503 -0.19274662192E+03 -0.61535343077E+03  0.40603339417E+03  0.76201983059E+03  0.00000000000E+00 0.  1.
<mgrwt>
<rscale>  0 0.12008235E+04</rscale>
<asrwt>0</asrwt>
<pdfrwt beam="1">  1        1 0.28536013E+00 0.12008235E+04</pdfrwt>
<pdfrwt beam="2">  1       -1 0.12696324E+00 0.12008235E+04</pdfrwt>
<totfact> 0.19788612E+00</totfact>
</mgrwt>
</event>
<event>
12    1  0.3203156E-008  0.4759755E+03  0.7818608E-02  0.1020247E+00
          2   -1    0    0  501    0  0.00000000000E+00  0.00000000000E+00  0.11798214557E+04  0.11798214557E+04  0.00000000000E+00 0. -1.
         -2   -1    0    0    0  501 -0.00000000000E+00 -0.00000000000E+00 -0.27923467973E+03  0.27923467973E+03  0.00000000000E+00 0.  1.
         23    2    1    2    0    0 -0.13999199721E+03  0.24525261034E+03  0.70873332705E+03  0.76835802801E+03  0.91238852311E+02 0.  0.
    5000000    2    1    2    0    0  0.13999199721E+03 -0.24525261034E+03  0.19185344888E+03  0.69069810737E+03  0.60042445614E+03 0.  0.
         23    2    4    4    0    0 -0.20974556240E+03 -0.42965646170E+01  0.68969713210E+02  0.23927212443E+03  0.92101393973E+02 0.  0.
         23    2    4    4    0    0  0.34973755961E+03 -0.24095604572E+03  0.12288373567E+03  0.45142598295E+03  0.91152778462E+02 0.  0.
          5    1    3    3  502    0 -0.10264859190E+03  0.11998380899E+03  0.29773184617E+03  0.33704478940E+03  0.47000000000E+01 0. -1.
         -5    1    3    3    0  502 -0.37343405308E+02  0.12526880135E+03  0.41100148088E+03  0.43131323860E+03  0.47000000000E+01 0.  1.
         13    1    5    5    0    0 -0.14861703515E+03  0.39492213664E+02  0.50337768635E+02  0.16180404515E+03  0.00000000000E+00 0. -1.
        -13    1    5    5    0    0 -0.61128527254E+02 -0.43788778281E+02  0.18631944575E+02  0.77468079273E+02  0.00000000000E+00 0.  1.
          2    1    6    6  503    0  0.25934500411E+03 -0.22303266376E+03  0.10192436856E+03  0.35692012715E+03  0.00000000000E+00 0.  1.
         -2    1    6    6    0  503  0.90392555500E+02 -0.17923381960E+02  0.20959367108E+02  0.94505855799E+02  0.00000000000E+00 0. -1.
<mgrwt>
<rscale>  0 0.47597554E+03</rscale>
<asrwt>0</asrwt>
<pdfrwt beam="1">  1        2 0.18151099E+00 0.47597554E+03</pdfrwt>
<pdfrwt beam="2">  1       -2 0.42959182E-01 0.47597554E+03</pdfrwt>
<totfact> 0.10432539E+02</totfact>
</mgrwt>
</event>
<event>
12    1  0.3203156E-008  0.4980019E+03  0.7818608E-02  0.1014302E+00
         -2   -1    0    0    0  501 -0.00000000000E+00  0.00000000000E+00  0.80703831793E+02  0.80703831793E+02  0.00000000000E+00 0. -1.
          2   -1    0    0  501    0  0.00000000000E+00 -0.00000000000E+00 -0.37583709111E+04  0.37583709111E+04  0.00000000000E+00 0.  1.
         23    2    1    2    0    0 -0.15809264349E+03 -0.32853504800E+03 -0.16827640292E+04  0.17242104859E+04  0.90986043652E+02 0.  0.
    5000000    2    1    2    0    0  0.15809264349E+03  0.32853504800E+03 -0.19949030501E+04  0.21148642569E+04  0.60007006620E+03 0.  0.
         23    2    4    4    0    0 -0.15887118980E+03  0.18098277155E+02 -0.23949958687E+03  0.30193884511E+03  0.90771204083E+02 0.  0.
         23    2    4    4    0    0  0.31696383329E+03  0.31043677085E+03 -0.17554034632E+04  0.18129254118E+04  0.91761483643E+02 0.  0.
          5    1    3    3  502    0 -0.54172834978E+02 -0.21302362423E+03 -0.10279808238E+04  0.10512280555E+04  0.47000000000E+01 0. -1.
         -5    1    3    3    0  502 -0.10391980851E+03 -0.11551142377E+03 -0.65478320541E+03  0.67298243046E+03  0.47000000000E+01 0.  1.
         11    1    5    5    0    0 -0.48836958867E+02  0.31652274066E+02 -0.31346960211E+02  0.66102548509E+02  0.00000000000E+00 0. -1.
        -11    1    5    5    0    0 -0.11003423093E+03 -0.13553996911E+02 -0.20815262666E+03  0.23583629660E+03  0.00000000000E+00 0.  1.
          4    1    6    6  503    0  0.19402030228E+03  0.13092948312E+03 -0.98109935110E+03  0.10086338999E+04  0.00000000000E+00 0.  1.
         -4    1    6    6    0  503  0.12294353101E+03  0.17950728772E+03 -0.77430411212E+03  0.80429151196E+03  0.00000000000E+00 0. -1.
<mgrwt>
<rscale>  0 0.49800193E+03</rscale>
<asrwt>0</asrwt>
<pdfrwt beam="1">  1        2 0.57821084E+00 0.49800193E+03</pdfrwt>
<pdfrwt beam="2">  1       -2 0.12415976E-01 0.49800193E+03</pdfrwt>
<totfact> 0.29165487E+01</totfact>
</mgrwt>
</event>
<event>
12    1  0.3203156E-008  0.5534858E+03  0.7818608E-02  0.1000690E+00
         -2   -1    0    0    0  501 -0.00000000000E+00  0.00000000000E+00  0.96238103324E+03  0.96238103324E+03  0.00000000000E+00 0.  1.
          2   -1    0    0  501    0  0.00000000000E+00 -0.00000000000E+00 -0.68993303938E+03  0.68993303938E+03  0.00000000000E+00 0. -1.
         23    2    1    2    0    0 -0.31184133030E+03 -0.26129856412E+03 -0.46062071084E+03  0.62144007497E+03  0.92164920882E+02 0.  0.
    5000000    2    1    2    0    0  0.31184133030E+03  0.26129856412E+03  0.73306870469E+03  0.10308739976E+04  0.59982457296E+03 0.  0.
         23    2    4    4    0    0  0.47594875942E+03  0.15477657485E+03  0.52239152255E+03  0.72877862854E+03  0.87990777198E+02 0.  0.
         23    2    4    4    0    0 -0.16410742912E+03  0.10652198927E+03  0.21067718215E+03  0.30209536911E+03  0.92728390842E+02 0.  0.
          5    1    3    3  502    0 -0.19355852414E+03 -0.15627167078E+03 -0.34540107144E+03  0.42568735888E+03  0.47000000000E+01 0. -1.
         -5    1    3    3    0  502 -0.11828280615E+03 -0.10502689334E+03 -0.11521963939E+03  0.19575271610E+03  0.47000000000E+01 0.  1.
         11    1    5    5    0    0  0.12272073934E+03  0.60433601698E+02  0.19374249996E+03  0.23716820269E+03  0.00000000000E+00 0. -1.
        -11    1    5    5    0    0  0.35322802008E+03  0.94342973154E+02  0.32864902259E+03  0.49161042585E+03  0.00000000000E+00 0.  1.
          1    1    6    6  503    0 -0.14413256777E+03  0.81824683403E+02  0.11618329647E+03  0.20240561822E+03  0.00000000000E+00 0. -1.
         -1    1    6    6    0  503 -0.19974861351E+02  0.24697305862E+02  0.94493885672E+02  0.99689750889E+02  0.00000000000E+00 0.  1.
<mgrwt>
<rscale>  0 0.55348577E+03</rscale>
<asrwt>0</asrwt>
<pdfrwt beam="1">  1        2 0.10614354E+00 0.55348577E+03</pdfrwt>
<pdfrwt beam="2">  1       -2 0.14805862E+00 0.55348577E+03</pdfrwt>
<totfact> 0.13449826E+01</totfact>
</mgrwt>
</event>
<event>
12    1  0.3203156E-008  0.1225395E+04  0.7818608E-02  0.9090915E-01
          2   -1    0    0  501    0  0.00000000000E+00  0.00000000000E+00  0.38525965033E+04  0.38525965033E+04  0.00000000000E+00 0. -1.
         -2   -1    0    0    0  501 -0.00000000000E+00 -0.00000000000E+00 -0.44363949467E+03  0.44363949467E+03  0.00000000000E+00 0.  1.
         23    2    1    2    0    0  0.69863497799E+03  0.92136835428E+03  0.89609203741E+03  0.14657756309E+04  0.92232227956E+02 0.  0.
    5000000    2    1    2    0    0 -0.69863497799E+03 -0.92136835428E+03  0.25128649712E+04  0.28304603671E+04  0.60000420770E+03 0.  0.
         23    2    4    4    0    0 -0.29510218975E+03 -0.81036972587E+03  0.18166759599E+04  0.20129827351E+04  0.89462580521E+02 0.  0.
         23    2    4    4    0    0 -0.40353278824E+03 -0.11099862841E+03  0.69618901132E+03  0.81747763203E+03  0.91821199573E+02 0.  0.
          5    1    3    3  502    0  0.30476918459E+03  0.47331396906E+03  0.45475655573E+03  0.72369605786E+03  0.47000000000E+01 0. -1.
         -5    1    3    3    0  502  0.39386579340E+03  0.44805438522E+03  0.44133548168E+03  0.74207957304E+03  0.47000000000E+01 0.  1.
         11    1    5    5    0    0 -0.26785132663E+03 -0.77532783489E+03  0.16857246684E+04  0.18747120425E+04  0.00000000000E+00 0. -1.
        -11    1    5    5    0    0 -0.27250863125E+02 -0.35041890979E+02  0.13095129155E+03  0.13827069257E+03  0.00000000000E+00 0.  1.
          2    1    6    6  503    0 -0.12328038131E+03  0.46908831061E+01  0.23767618263E+03  0.26778727488E+03  0.00000000000E+00 0. -1.
         -2    1    6    6    0  503 -0.28025240693E+03 -0.11568951152E+03  0.45851282869E+03  0.54969035714E+03  0.00000000000E+00 0.  1.
<mgrwt>
<rscale>  0 0.12253945E+04</rscale>
<asrwt>0</asrwt>
<pdfrwt beam="1">  1        2 0.59270713E+00 0.12253945E+04</pdfrwt>
<pdfrwt beam="2">  1       -2 0.68252232E-01 0.12253945E+04</pdfrwt>
<totfact> 0.88824159E-01</totfact>
</mgrwt>
</event>
<event>
12    1  0.3203156E-008  0.3373315E+03  0.7818608E-02  0.1067938E+00
          2   -1    0    0  501    0  0.00000000000E+00  0.00000000000E+00  0.39702343429E+03  0.39702343429E+03  0.00000000000E+00 0. -1.
         -2   -1    0    0    0  501 -0.00000000000E+00 -0.00000000000E+00 -0.59928140356E+03  0.59928140356E+03  0.00000000000E+00 0.  1.
         23    2    1    2    0    0  0.25577602819E+03  0.14742555870E+02  0.82653456021E+02  0.28442383480E+03  0.91796538381E+02 0.  0.
    5000000    2    1    2    0    0 -0.25577602819E+03 -0.14742555870E+02 -0.28491142528E+03  0.71188100306E+03  0.59996776805E+03 0.  0.
         23    2    4    4    0    0 -0.30273149506E+02 -0.13068161532E+03  0.13710735367E+03  0.21117849933E+03  0.88339028679E+02 0.  0.
         23    2    4    4    0    0 -0.22550287868E+03  0.11593905945E+03 -0.42201877895E+03  0.50070250372E+03  0.91157740445E+02 0.  0.
          5    1    3    3  502    0  0.23327497433E+03  0.13238234679E+02  0.10137667967E+03  0.25473866155E+03  0.47000000000E+01 0. -1.
         -5    1    3    3    0  502  0.22501053860E+02  0.15043211910E+01 -0.18723223650E+02  0.29685173250E+02  0.47000000000E+01 0.  1.
         11    1    5    5    0    0 -0.43457146931E+02 -0.13549642433E+03  0.13642173662E+03  0.19712608870E+03  0.00000000000E+00 0. -1.
        -11    1    5    5    0    0  0.13183997425E+02  0.48148090087E+01  0.68561705233E+00  0.14052410634E+02  0.00000000000E+00 0.  1.
          3    1    6    6  503    0 -0.79431564621E+02  0.77167673132E+01 -0.77939980007E+02  0.11155071689E+03  0.00000000000E+00 0. -1.
         -3    1    6    6    0  503 -0.14607131406E+03  0.10822229214E+03 -0.34407879895E+03  0.38915178683E+03  0.00000000000E+00 0.  1.
<mgrwt>
<rscale>  0 0.33733147E+03</rscale>
<asrwt>0</asrwt>
<pdfrwt beam="1">  1        2 0.61080529E-01 0.33733147E+03</pdfrwt>
<pdfrwt beam="2">  1       -2 0.92197138E-01 0.33733147E+03</pdfrwt>
<totfact> 0.83504677E+01</totfact>
</mgrwt>
</event>
<event>
12    1  0.3203156E-008  0.1109369E+04  0.7818608E-02  0.9196108E-01
          2   -1    0    0  501    0  0.00000000000E+00  0.00000000000E+00  0.11235139690E+04  0.11235139690E+04  0.00000000000E+00 0. -1.
         -2   -1    0    0    0  501 -0.00000000000E+00 -0.00000000000E+00 -0.12795545065E+04  0.12795545065E+04  0.00000000000E+00 0.  1.
         23    2    1    2    0    0 -0.71411607882E+03  0.74011450162E+03 -0.52243457364E+03  0.11572059383E+04  0.91958960196E+02 0.  0.
    5000000    2    1    2    0    0  0.71411607882E+03 -0.74011450162E+03  0.36639403621E+03  0.12458625372E+04  0.60016466260E+03 0.  0.
         23    2    4    4    0    0 -0.11950026280E+02 -0.34593248905E+03  0.89345727531E+02  0.36969346783E+03  0.94225851121E+02 0.  0.
         23    2    4    4    0    0  0.72606610510E+03 -0.39418201257E+03  0.27704830867E+03  0.87616906935E+03  0.91460509147E+02 0.  0.
          5    1    3    3  502    0 -0.26682364106E+03  0.21473680046E+03 -0.16989910968E+03  0.38235395431E+03  0.47000000000E+01 0. -1.
         -5    1    3    3    0  502 -0.44729243776E+03  0.52537770116E+03 -0.35253546396E+03  0.77485198399E+03  0.47000000000E+01 0.  1.
         11    1    5    5    0    0  0.20807333012E+02 -0.30005973984E+03  0.62263986896E+02  0.30715728324E+03  0.00000000000E+00 0.  1.
        -11    1    5    5    0    0 -0.32757359292E+02 -0.45872749210E+02  0.27081740635E+02  0.62536184595E+02  0.00000000000E+00 0. -1.
          3    1    6    6  503    0  0.81999667511E+02 -0.20882951953E+02  0.48083988603E+02  0.97324781604E+02  0.00000000000E+00 0. -1.
         -3    1    6    6    0  503  0.64406643759E+03 -0.37329906062E+03  0.22896432007E+03  0.77884428774E+03  0.00000000000E+00 0.  1.
<mgrwt>
<rscale>  0 0.11093686E+04</rscale>
<asrwt>0</asrwt>
<pdfrwt beam="1">  1        2 0.17284830E+00 0.11093686E+04</pdfrwt>
<pdfrwt beam="2">  1       -2 0.19685454E+00 0.11093686E+04</pdfrwt>
<totfact> 0.28818505E+00</totfact>
</mgrwt>
</event>
<event>
12    1  0.3203156E-008  0.7358835E+03  0.7818608E-02  0.9657761E-01
          1   -1    0    0  501    0  0.00000000000E+00  0.00000000000E+00  0.20231861523E+04  0.20231861523E+04  0.00000000000E+00 0. -1.
         -1   -1    0    0    0  501 -0.00000000000E+00 -0.00000000000E+00 -0.43547185150E+03  0.43547185150E+03  0.00000000000E+00 0.  1.
         23    2    1    2    0    0  0.25456459296E+02  0.63811053742E+03 -0.18152192367E+00  0.64501141600E+03  0.90590311443E+02 0.  0.
    5000000    2    1    2    0    0 -0.25456459296E+02 -0.63811053742E+03  0.15878958228E+04  0.18136465879E+04  0.60005642431E+03 0.  0.
         23    2    4    4    0    0 -0.27632432477E+03 -0.29692196583E+03  0.55273095393E+03  0.69148929358E+03  0.90156250159E+02 0.  0.
         23    2    4    4    0    0  0.25086786548E+03 -0.34118857159E+03  0.10351648688E+04  0.11221572943E+04  0.91248890948E+02 0.  0.
          5    1    3    3  502    0  0.41887108528E+02  0.40387045292E+03  0.34823323236E+02  0.40755444599E+03  0.47000000000E+01 0. -1.
         -5    1    3    3    0  502 -0.16430649232E+02  0.23424008450E+03 -0.35004845160E+02  0.23745697001E+03  0.47000000000E+01 0.  1.
         11    1    5    5    0    0 -0.43621496008E+02 -0.29555367024E+02  0.12714760588E+03  0.13763309310E+03  0.00000000000E+00 0.  1.
        -11    1    5    5    0    0 -0.23270282877E+03 -0.26736659881E+03  0.42558334805E+03  0.55385620048E+03  0.00000000000E+00 0. -1.
          2    1    6    6  503    0  0.17803637539E+03 -0.25209236641E+03  0.63913733044E+03  0.70974927920E+03  0.00000000000E+00 0. -1.
         -2    1    6    6    0  503  0.72831490091E+02 -0.89096205183E+02  0.39602753840E+03  0.41240801508E+03  0.00000000000E+00 0.  1.
<mgrwt>
<rscale>  0 0.73588353E+03</rscale>
<asrwt>0</asrwt>
<pdfrwt beam="1">  1        1 0.31125940E+00 0.73588353E+03</pdfrwt>
<pdfrwt beam="2">  1       -1 0.66995670E-01 0.73588353E+03</pdfrwt>
<totfact> 0.68175793E+00</totfact>
</mgrwt>
</event>
<event>
12    1  0.3203156E-008  0.8515196E+03  0.7818608E-02  0.9488300E-01
          1   -1    0    0  501    0  0.00000000000E+00  0.00000000000E+00  0.28574055351E+04  0.28574055351E+04  0.00000000000E+00 0. -1.
         -1   -1    0    0    0  501 -0.00000000000E+00 -0.00000000000E+00 -0.33789734476E+03  0.33789734476E+03  0.00000000000E+00 0.  1.
         23    2    1    2    0    0  0.77243819921E+03  0.11363436460E+03  0.45471985821E+03  0.90803603157E+03  0.90475105778E+02 0.  0.
    5000000    2    1    2    0    0 -0.77243819921E+03 -0.11363436460E+03  0.20647883321E+04  0.22872668483E+04  0.59888666567E+03 0.  0.
         23    2    4    4    0    0 -0.11904535028E+03 -0.21450449342E+03  0.97826906597E+03  0.10124625374E+04  0.88803440537E+02 0.  0.
         23    2    4    4    0    0 -0.65339284893E+03  0.10087012882E+03  0.10865192661E+04  0.12748043109E+04  0.86630926435E+02 0.  0.
          5    1    3    3  502    0  0.44030706820E+03  0.92989171184E+02  0.22112889759E+03  0.50143531947E+03  0.47000000000E+01 0. -1.
         -5    1    3    3    0  502  0.33213113101E+03  0.20645193418E+02  0.23359096062E+03  0.40660071210E+03  0.47000000000E+01 0.  1.
         13    1    5    5    0    0 -0.12625497274E+03 -0.17852603281E+03  0.74859782615E+03  0.77987855968E+03  0.00000000000E+00 0. -1.
        -13    1    5    5    0    0  0.72096224612E+01 -0.35978460610E+02  0.22967123982E+03  0.23258397770E+03  0.00000000000E+00 0.  1.
          2    1    6    6  503    0 -0.28963624051E+03  0.95542244964E+01  0.52228954375E+03  0.59729959194E+03  0.00000000000E+00 0.  1.
         -2    1    6    6    0  503 -0.36375660842E+03  0.91315904321E+02  0.56422972240E+03  0.67750471894E+03  0.00000000000E+00 0. -1.
<mgrwt>
<rscale>  0 0.85151956E+03</rscale>
<asrwt>0</asrwt>
<pdfrwt beam="1">  1        1 0.43960083E+00 0.85151956E+03</pdfrwt>
<pdfrwt beam="2">  1       -1 0.51984209E-01 0.85151956E+03</pdfrwt>
<totfact> 0.29636051E+00</totfact>
</mgrwt>
</event>
<event>
12    1  0.3203156E-008  0.9371143E+03  0.7818608E-02  0.9380340E-01
         -2   -1    0    0    0  501 -0.00000000000E+00  0.00000000000E+00  0.43121111027E+03  0.43121111027E+03  0.00000000000E+00 0. -1.
          2   -1    0    0  501    0  0.00000000000E+00 -0.00000000000E+00 -0.22147734756E+04  0.22147734756E+04  0.00000000000E+00 0.  1.
         23    2    1    2    0    0  0.23958629134E+02  0.84492441980E+03 -0.46570348005E+03  0.96927062768E+03  0.90191614210E+02 0.  0.
    5000000    2    1    2    0    0 -0.23958629134E+02 -0.84492441980E+03 -0.13178588853E+04  0.16767139582E+04  0.60012195839E+03 0.  0.
         23    2    4    4    0    0 -0.26327237039E+03 -0.66235247554E+03 -0.97973587232E+03  0.12151381478E+04  0.93033305466E+02 0.  0.
         23    2    4    4    0    0  0.23931374126E+03 -0.18257194426E+03 -0.33812301293E+03  0.46157581033E+03  0.90119227795E+02 0.  0.
          5    1    3    3  502    0 -0.20659591978E+02  0.10173651596E+03 -0.38153159550E+02  0.11070181120E+03  0.47000000000E+01 0. -1.
         -5    1    3    3    0  502  0.44618221112E+02  0.74318790384E+03 -0.42755032050E+03  0.85856881648E+03  0.47000000000E+01 0.  1.
         13    1    5    5    0    0 -0.18059993503E+03 -0.40037911818E+03 -0.66994846474E+03  0.80109345286E+03  0.00000000000E+00 0. -1.
        -13    1    5    5    0    0 -0.82672435359E+02 -0.26197335736E+03 -0.30978740759E+03  0.41404469497E+03  0.00000000000E+00 0.  1.
          3    1    6    6  503    0  0.80592454536E+02 -0.11236310951E+03 -0.12209694564E+03  0.18446754794E+03  0.00000000000E+00 0. -1.
         -3    1    6    6    0  503  0.15872128672E+03 -0.70208834751E+02 -0.21602606729E+03  0.27710826239E+03  0.00000000000E+00 0.  1.
<mgrwt>
<rscale>  0 0.93711425E+03</rscale>
<asrwt>0</asrwt>
<pdfrwt beam="1">  1        2 0.34073439E+00 0.93711425E+03</pdfrwt>
<pdfrwt beam="2">  1       -2 0.66340169E-01 0.93711425E+03</pdfrwt>
<totfact> 0.10730885E+01</totfact>
</mgrwt>
</event>
<event>
12    1  0.3203156E-008  0.1772879E+04  0.7818608E-02  0.8720856E-01
          1   -1    0    0  501    0  0.00000000000E+00  0.00000000000E+00  0.26352529435E+04  0.26352529435E+04  0.00000000000E+00 0.  1.
         -1   -1    0    0    0  501 -0.00000000000E+00 -0.00000000000E+00 -0.12002231420E+04  0.12002231420E+04  0.00000000000E+00 0. -1.
         23    2    1    2    0    0  0.16038336668E+04  0.63686773448E+03  0.63320463662E+03  0.18403308302E+04  0.89367280649E+02 0.  0.
    5000000    2    1    2    0    0 -0.16038336668E+04 -0.63686773448E+03  0.80182516490E+03  0.19951452553E+04  0.59983168706E+03 0.  0.
         23    2    4    4    0    0 -0.53893303045E+03  0.61109363763E+02  0.22850213666E+03  0.59581144520E+03  0.92708608732E+02 0.  0.
         23    2    4    4    0    0 -0.10649006363E+04 -0.69797709824E+03  0.57332302824E+03  0.13993338101E+04  0.90831836128E+02 0.  0.
          5    1    3    3  502    0  0.91769089320E+03  0.33549839214E+03  0.39545300672E+03  0.10540972048E+04  0.47000000000E+01 0. -1.
         -5    1    3    3    0  502  0.68614277357E+03  0.30136934234E+03  0.23775162990E+03  0.78623362542E+03  0.47000000000E+01 0.  1.
         13    1    5    5    0    0 -0.38760376374E+03  0.16699639827E+02  0.12683073710E+03  0.40816858222E+03  0.00000000000E+00 0. -1.
        -13    1    5    5    0    0 -0.15132926670E+03  0.44409723936E+02  0.10167139956E+03  0.18764286298E+03  0.00000000000E+00 0.  1.
          1    1    6    6  503    0 -0.28994230989E+03 -0.17556054326E+03  0.11122281004E+03  0.35673317885E+03  0.00000000000E+00 0. -1.
         -1    1    6    6    0  503 -0.77495832643E+03 -0.52241655498E+03  0.46210021821E+03  0.10426006313E+04  0.00000000000E+00 0.  1.
<mgrwt>
<rscale>  0 0.17728793E+04</rscale>
<asrwt>0</asrwt>
<pdfrwt beam="1">  1        1 0.40542353E+00 0.17728793E+04</pdfrwt>
<pdfrwt beam="2">  1       -1 0.18464971E+00 0.17728793E+04</pdfrwt>
<totfact> 0.19299246E-01</totfact>
</mgrwt>
</event>
<event>
12    1  0.3203156E-008  0.4736225E+03  0.7818608E-02  0.1020903E+00
         -1   -1    0    0    0  501 -0.00000000000E+00  0.00000000000E+00  0.50747981254E+03  0.50747981254E+03  0.00000000000E+00 0.  1.
          1   -1    0    0  501    0  0.00000000000E+00 -0.00000000000E+00 -0.70412749693E+03  0.70412749693E+03  0.00000000000E+00 0. -1.
         23    2    1    2    0    0  0.43505179728E+03 -0.66423100756E+02 -0.82193791817E+02  0.45876420638E+03  0.10013332617E+03 0.  0.
    5000000    2    1    2    0    0 -0.43505179728E+03  0.66423100756E+02 -0.11445389257E+03  0.75284310310E+03  0.59999245806E+03 0.  0.
         23    2    4    4    0    0 -0.67270438569E+02  0.46901019041E+02 -0.30435062957E+03  0.32807138641E+03  0.90975333831E+02 0.  0.
         23    2    4    4    0    0 -0.36778135871E+03  0.19522081715E+02  0.18989673700E+03  0.42477171669E+03  0.93413067008E+02 0.  0.
          5    1    3    3  502    0  0.59891195179E+02  0.25159431460E+02 -0.12566675278E+02  0.66332221272E+02  0.47000000000E+01 0. -1.
         -5    1    3    3    0  502  0.37516060210E+03 -0.91582532216E+02 -0.69627116539E+02  0.39243198510E+03  0.47000000000E+01 0.  1.
         11    1    5    5    0    0  0.12042670420E+02 -0.15662446659E+02 -0.32209675065E+02  0.37786258269E+02  0.00000000000E+00 0. -1.
        -11    1    5    5    0    0 -0.79313108989E+02  0.62563465700E+02 -0.27214095451E+03  0.29028512814E+03  0.00000000000E+00 0.  1.
          3    1    6    6  503    0 -0.15282807994E+03 -0.27020169153E+02  0.45719883519E+02  0.16179251932E+03  0.00000000000E+00 0. -1.
         -3    1    6    6    0  503 -0.21495327877E+03  0.46542250868E+02  0.14417685348E+03  0.26297919737E+03  0.00000000000E+00 0.  1.
<mgrwt>
<rscale>  0 0.47362247E+03</rscale>
<asrwt>0</asrwt>
<pdfrwt beam="1">  1        1 0.10832731E+00 0.47362247E+03</pdfrwt>
<pdfrwt beam="2">  1       -1 0.78073818E-01 0.47362247E+03</pdfrwt>
<totfact> 0.46845548E+01</totfact>
</mgrwt>
</event>
<event>
12    1  0.3203156E-008  0.1012538E+04  0.7818608E-02  0.9294899E-01
         -2   -1    0    0    0  501 -0.00000000000E+00  0.00000000000E+00  0.14953809172E+04  0.14953809172E+04  0.00000000000E+00 0.  1.
          2   -1    0    0  501    0  0.00000000000E+00 -0.00000000000E+00 -0.82109781583E+03  0.82109781583E+03  0.00000000000E+00 0. -1.
         23    2    1    2    0    0 -0.32523152228E+03  0.90712985569E+03  0.67679085170E+03  0.11812361698E+04  0.92805785181E+02 0.  0.
    5000000    2    1    2    0    0  0.32523152228E+03 -0.90712985569E+03 -0.25077502839E+01  0.11352425633E+04  0.60009105182E+03 0.  0.
         23    2    4    4    0    0 -0.95739636798E+02 -0.13045554712E+03  0.14541577458E+03  0.23492834125E+03  0.88661435800E+02 0.  0.
         23    2    4    4    0    0  0.42097115908E+03 -0.77667430857E+03 -0.14792352486E+03  0.90031422202E+03  0.90799949295E+02 0.  0.
          5    1    3    3  502    0 -0.36279902510E+02  0.10074298870E+03  0.11299259437E+03  0.15573951805E+03  0.47000000000E+01 0. -1.
         -5    1    3    3    0  502 -0.28895161977E+03  0.80638686699E+03  0.56379825733E+03  0.10254966518E+04  0.47000000000E+01 0.  1.
         11    1    5    5    0    0 -0.58006371597E+02 -0.20653856911E+02  0.21753144508E+02  0.65303294305E+02  0.00000000000E+00 0. -1.
        -11    1    5    5    0    0 -0.37733265201E+02 -0.10980169021E+03  0.12366263007E+03  0.16962504695E+03  0.00000000000E+00 0.  1.
          1    1    6    6  503    0  0.27222269368E+03 -0.52022754688E+03 -0.14066090807E+03  0.60376103431E+03  0.00000000000E+00 0. -1.
         -1    1    6    6    0  503  0.14874846540E+03 -0.25644676169E+03 -0.72626167925E+01  0.29655318771E+03  0.00000000000E+00 0.  1.
<mgrwt>
<rscale>  0 0.10125379E+04</rscale>
<asrwt>0</asrwt>
<pdfrwt beam="1">  1        2 0.12632274E+00 0.10125379E+04</pdfrwt>
<pdfrwt beam="2">  1       -2 0.23005860E+00 0.10125379E+04</pdfrwt>
<totfact> 0.28240469E+00</totfact>
</mgrwt>
</event>
<event>
12    1  0.3203156E-008  0.1076943E+04  0.7818608E-02  0.9227961E-01
         -2   -1    0    0    0  501 -0.00000000000E+00  0.00000000000E+00  0.89481067949E+03  0.89481067949E+03  0.00000000000E+00 0. -1.
          2   -1    0    0  501    0  0.00000000000E+00 -0.00000000000E+00 -0.13994575179E+04  0.13994575179E+04  0.00000000000E+00 0.  1.
         23    2    1    2    0    0  0.47054519479E+03 -0.92049684978E+03 -0.31054417887E+03  0.10832678871E+04  0.91128466595E+02 0.  0.
    5000000    2    1    2    0    0 -0.47054519479E+03  0.92049684978E+03 -0.19410265958E+03  0.12110003103E+04  0.60009889047E+03 0.  0.
         23    2    4    4    0    0 -0.49204812009E+03  0.58840742939E+03  0.68324137451E+02  0.77564389904E+03  0.92847266558E+02 0.  0.
         23    2    4    4    0    0  0.21502925301E+02  0.33208942038E+03 -0.26242679703E+03  0.43535641128E+03  0.99607339651E+02 0.  0.
          5    1    3    3  502    0  0.30597296975E+03 -0.57099378498E+03 -0.15040793107E+03  0.66505488227E+03  0.47000000000E+01 0. -1.
         -5    1    3    3    0  502  0.16457222503E+03 -0.34950306480E+03 -0.16013624780E+03  0.41821300484E+03  0.47000000000E+01 0.  1.
         11    1    5    5    0    0 -0.12688084687E+03  0.21850182545E+03  0.30068956877E+02  0.25445223362E+03  0.00000000000E+00 0. -1.
        -11    1    5    5    0    0 -0.36516727322E+03  0.36990560395E+03  0.38255180574E+02  0.52119166542E+03  0.00000000000E+00 0.  1.
          1    1    6    6  503    0 -0.36669778167E+02  0.19381562779E+03 -0.15437186212E+03  0.25047922473E+03  0.00000000000E+00 0. -1.
         -1    1    6    6    0  503  0.58172703469E+02  0.13827379259E+03 -0.10805493492E+03  0.18487718655E+03  0.00000000000E+00 0.  1.
<mgrwt>
<rscale>  0 0.10769425E+04</rscale>
<asrwt>0</asrwt>
<pdfrwt beam="1">  1        2 0.21530116E+00 0.10769425E+04</pdfrwt>
<pdfrwt beam="2">  1       -2 0.13766318E+00 0.10769425E+04</pdfrwt>
<totfact> 0.53495299E+00</totfact>
</mgrwt>
</event>
<event>
12    1  0.3203156E-008  0.4006269E+03  0.7818608E-02  0.1043563E+00
         -1   -1    0    0    0  501 -0.00000000000E+00  0.00000000000E+00  0.40305139134E+03  0.40305139134E+03  0.00000000000E+00 0.  1.
          1   -1    0    0  501    0  0.00000000000E+00 -0.00000000000E+00 -0.17623614813E+04  0.17623614813E+04  0.00000000000E+00 0. -1.
         23    2    1    2    0    0  0.11536357243E+03  0.20932137657E+03 -0.14854772191E+04  0.15073155883E+04  0.90738754507E+02 0.  0.
    5000000    2    1    2    0    0 -0.11536357243E+03 -0.20932137657E+03  0.12616712916E+03  0.65809728439E+03  0.60004141416E+03 0.  0.
         23    2    4    4    0    0  0.16660764365E+03 -0.16920655419E+03 -0.11209502552E+03  0.27815305829E+03  0.91732568838E+02 0.  0.
         23    2    4    4    0    0 -0.28197121608E+03 -0.40114822386E+02  0.23826215468E+03  0.37994422610E+03  0.80447466845E+02 0.  0.
          5    1    3    3  502    0  0.69207371851E+02  0.51173582302E+02 -0.65448340696E+03  0.66013560412E+03  0.47000000000E+01 0. -1.
         -5    1    3    3    0  502  0.46156200580E+02  0.15814779427E+03 -0.83099381218E+03  0.84717998416E+03  0.47000000000E+01 0.  1.
         13    1    5    5    0    0  0.12674544445E+03 -0.63848554586E+02 -0.62516934244E+02  0.15507873059E+03  0.00000000000E+00 0. -1.
        -13    1    5    5    0    0  0.39862199194E+02 -0.10535799960E+03 -0.49578091277E+02  0.12307432770E+03  0.00000000000E+00 0.  1.
          2    1    6    6  503    0 -0.16371247159E+03  0.16539614456E+02  0.14076374999E+03  0.21654044775E+03  0.00000000000E+00 0. -1.
         -2    1    6    6    0  503 -0.11825874449E+03 -0.56654436842E+02  0.97498404691E+02  0.16340377835E+03  0.00000000000E+00 0.  1.
<mgrwt>
<rscale>  0 0.40062693E+03</rscale>
<asrwt>0</asrwt>
<pdfrwt beam="1">  1        1 0.27113253E+00 0.40062693E+03</pdfrwt>
<pdfrwt beam="2">  1       -1 0.62007907E-01 0.40062693E+03</pdfrwt>
<totfact> 0.12751275E+01</totfact>
</mgrwt>
</event>
<event>
12    1  0.3203156E-008  0.4524713E+03  0.7818608E-02  0.1026988E+00
         -2   -1    0    0    0  501 -0.00000000000E+00  0.00000000000E+00  0.83468619745E+02  0.83468619745E+02  0.00000000000E+00 0.  1.
          2   -1    0    0  501    0  0.00000000000E+00 -0.00000000000E+00 -0.38464712756E+04  0.38464712756E+04  0.00000000000E+00 0. -1.
         23    2    1    2    0    0  0.25989299734E+03 -0.30365719702E+03 -0.14750276736E+04  0.15310434234E+04  0.92926116826E+02 0.  0.
    5000000    2    1    2    0    0 -0.25989299734E+03  0.30365719702E+03 -0.22879749823E+04  0.23988964720E+04  0.60010224141E+03 0.  0.
         23    2    4    4    0    0 -0.45637643620E+01 -0.53869094502E+01 -0.16040807345E+02  0.90430397540E+02  0.88715852926E+02 0.  0.
         23    2    4    4    0    0 -0.25532923298E+03  0.30904410647E+03 -0.22719341750E+04  0.23084660744E+04  0.81421400288E+02 0.  0.
          5    1    3    3  502    0  0.19944408254E+02 -0.78990307918E+02 -0.29497137624E+03  0.30605138615E+03  0.47000000000E+01 0. -1.
         -5    1    3    3    0  502  0.23994858909E+03 -0.22466688910E+03 -0.11800562973E+04  0.12249920372E+04  0.47000000000E+01 0.  1.
         11    1    5    5    0    0 -0.45393888877E+02 -0.10197358883E+02 -0.16356706113E+02  0.49316661591E+02  0.00000000000E+00 0. -1.
        -11    1    5    5    0    0  0.40830124515E+02  0.48104494330E+01  0.31589876828E+00  0.41113735949E+02  0.00000000000E+00 0.  1.
          2    1    6    6  503    0 -0.22452103417E+03  0.30025840907E+03 -0.20194917808E+04  0.20539989922E+04  0.00000000000E+00 0. -1.
         -2    1    6    6    0  503 -0.30808198809E+02  0.87856974053E+01 -0.25244239412E+03  0.25446708224E+03  0.00000000000E+00 0.  1.
<mgrwt>
<rscale>  0 0.45247132E+03</rscale>
<asrwt>0</asrwt>
<pdfrwt beam="1">  1        2 0.59176463E+00 0.45247132E+03</pdfrwt>
<pdfrwt beam="2">  1       -2 0.12841330E-01 0.45247132E+03</pdfrwt>
<totfact> 0.24098203E+01</totfact>
</mgrwt>
</event>
<event>
12    1  0.3203156E-008  0.7298184E+03  0.7818608E-02  0.9667555E-01
         -1   -1    0    0    0  501 -0.00000000000E+00  0.00000000000E+00  0.15124592677E+04  0.15124592677E+04  0.00000000000E+00 0.  1.
          1   -1    0    0  501    0  0.00000000000E+00 -0.00000000000E+00 -0.77785613847E+03  0.77785613847E+03  0.00000000000E+00 0. -1.
         23    2    1    2    0    0  0.26452882552E+03 -0.62682138751E+03  0.11128607893E+04  0.13074958642E+04  0.90585580091E+02 0.  0.
    5000000    2    1    2    0    0 -0.26452882552E+03  0.62682138751E+03 -0.37825766001E+03  0.98281954197E+03  0.59997903576E+03 0.  0.
         23    2    4    4    0    0  0.27858720154E+02  0.36613539630E+03 -0.43634126723E+03  0.57745037434E+03  0.90686253765E+02 0.  0.
         23    2    4    4    0    0 -0.29238754568E+03  0.26068599121E+03  0.58083607219E+02  0.40536916763E+03  0.86618668658E+02 0.  0.
          5    1    3    3  502    0  0.11378891447E+03 -0.21990295145E+03  0.48029464521E+03  0.54037973808E+03  0.47000000000E+01 0. -1.
         -5    1    3    3    0  502  0.15073991105E+03 -0.40691843606E+03  0.63256614406E+03  0.76711612616E+03  0.47000000000E+01 0.  1.
         13    1    5    5    0    0  0.33952176859E+02  0.43492435832E+02 -0.55215286340E+02  0.78058120229E+02  0.00000000000E+00 0. -1.
        -13    1    5    5    0    0 -0.60934567048E+01  0.32264296047E+03 -0.38112598089E+03  0.49939225411E+03  0.00000000000E+00 0.  1.
          1    1    6    6  503    0 -0.15050413315E+03  0.18772077478E+03  0.49150981356E+02  0.24557361900E+03  0.00000000000E+00 0. -1.
         -1    1    6    6    0  503 -0.14188341253E+03  0.72965216429E+02  0.89326258623E+01  0.15979554864E+03  0.00000000000E+00 0.  1.
<mgrwt>
<rscale>  0 0.72981837E+03</rscale>
<asrwt>0</asrwt>
<pdfrwt beam="1">  1        1 0.11967018E+00 0.72981837E+03</pdfrwt>
<pdfrwt beam="2">  1       -1 0.23268604E+00 0.72981837E+03</pdfrwt>
<totfact> 0.21953386E+00</totfact>
</mgrwt>
</event>
<event>
12    1  0.4141043E-008  0.1277878E+04  0.7818608E-02  0.9047294E-01
         -2   -1    0    0    0  501 -0.00000000000E+00  0.00000000000E+00  0.79275698106E+03  0.79275698106E+03  0.00000000000E+00 0.  1.
          2   -1    0    0  501    0  0.00000000000E+00 -0.00000000000E+00 -0.22452759879E+04  0.22452759879E+04  0.00000000000E+00 0. -1.
         23    2    1    2    0    0 -0.12474624459E+04 -0.48995000749E+02 -0.92247439405E+03  0.15549279991E+04  0.90989069657E+02 0.  0.
    5000000    2    1    2    0    0  0.12474624459E+04  0.48995000749E+02 -0.53004461282E+03  0.14831049699E+04  0.60007499209E+03 0.  0.
         23    2    4    4    0    0  0.59226818353E+03  0.20652752641E+03 -0.20739476819E+02  0.63379658374E+03  0.88502899873E+02 0.  0.
         23    2    4    4    0    0  0.65519426234E+03 -0.15753252566E+03 -0.50930513600E+03  0.84930838612E+03  0.88526804675E+02 0.  0.
          5    1    3    3  502    0 -0.44352852978E+03 -0.28929191225E+02 -0.27713419432E+03  0.52381285446E+03  0.47000000000E+01 0. -1.
         -5    1    3    3    0  502 -0.80393391608E+03 -0.20065809524E+02 -0.64534019973E+03  0.10311151447E+04  0.47000000000E+01 0.  1.
         13    1    5    5    0    0  0.18166402624E+03  0.71636783874E+02  0.33777732619E+02  0.19817815837E+03  0.00000000000E+00 0.  1.
        -13    1    5    5    0    0  0.41060415729E+03  0.13489074253E+03 -0.54517209437E+02  0.43561842538E+03  0.00000000000E+00 0. -1.
          3    1    6    6  503    0  0.34618427242E+03 -0.12832421487E+03 -0.28260412351E+03  0.46494703486E+03  0.00000000000E+00 0.  1.
         -3    1    6    6    0  503  0.30900998991E+03 -0.29208310785E+02 -0.22670101248E+03  0.38436135126E+03  0.00000000000E+00 0. -1.
<mgrwt>
<rscale>  0 0.12778779E+04</rscale>
<asrwt>0</asrwt>
<pdfrwt beam="1">  1        2 0.34542708E+00 0.12778779E+04</pdfrwt>
<pdfrwt beam="2">  1       -2 0.12196261E+00 0.12778779E+04</pdfrwt>
<totfact> 0.24073604E+00</totfact>
</mgrwt>
</event>
<event>
12    1  0.3203156E-008  0.2763220E+03  0.7818608E-02  0.1097715E+00
          1   -1    0    0  501    0  0.00000000000E+00  0.00000000000E+00  0.22395740982E+04  0.22395740982E+04  0.00000000000E+00 0. -1.
         -1   -1    0    0    0  501 -0.00000000000E+00 -0.00000000000E+00 -0.90128784122E+02  0.90128784122E+02  0.00000000000E+00 0.  1.
         23    2    1    2    0    0 -0.11344123086E+02  0.23434875057E+03  0.71289466073E+03  0.75549842166E+03  0.86666266885E+02 0.  0.
    5000000    2    1    2    0    0  0.11344123086E+02 -0.23434875057E+03  0.14365506533E+04  0.15742044607E+04  0.59949468580E+03 0.  0.
         23    2    4    4    0    0  0.54481946194E+02 -0.10938600321E+02  0.12785185684E+04  0.12828103418E+04  0.88908423789E+02 0.  0.
         23    2    4    4    0    0 -0.43137823108E+02 -0.22341015025E+03  0.15803208493E+03  0.29139411885E+03  0.90351677451E+02 0.  0.
          5    1    3    3  502    0 -0.48848503765E+02  0.12723376110E+03  0.40235265246E+03  0.42483450099E+03  0.47000000000E+01 0. -1.
         -5    1    3    3    0  502  0.37504380679E+02  0.10711498947E+03  0.31054200827E+03  0.33066392067E+03  0.47000000000E+01 0.  1.
         13    1    5    5    0    0  0.51056256886E+02 -0.26380122896E+02  0.39582791046E+03  0.39997798308E+03  0.00000000000E+00 0. -1.
        -13    1    5    5    0    0  0.34256893083E+01  0.15441522574E+02  0.88269065796E+03  0.88283235872E+03  0.00000000000E+00 0.  1.
          2    1    6    6  503    0 -0.28694038955E+02 -0.19883686814E+03  0.16728471183E+03  0.26142613262E+03  0.00000000000E+00 0. -1.
         -2    1    6    6    0  503 -0.14443784152E+02 -0.24573282101E+02 -0.92526269047E+01  0.29967986227E+02  0.00000000000E+00 0.  1.
<mgrwt>
<rscale>  0 0.27632203E+03</rscale>
<asrwt>0</asrwt>
<pdfrwt beam="1">  1        1 0.34454982E+00 0.27632203E+03</pdfrwt>
<pdfrwt beam="2">  1       -1 0.13865969E-01 0.27632203E+03</pdfrwt>
<totfact> 0.86055002E+01</totfact>
</mgrwt>
</event>
<event>
12    1  0.3414218E-008  0.1631108E+04  0.7818608E-02  0.8801662E-01
         -2   -1    0    0    0  501 -0.00000000000E+00  0.00000000000E+00  0.10481210882E+04  0.10481210882E+04  0.00000000000E+00 0.  1.
          2   -1    0    0  501    0  0.00000000000E+00 -0.00000000000E+00 -0.30618648311E+04  0.30618648311E+04  0.00000000000E+00 0. -1.
         23    2    1    2    0    0  0.15692715517E+04 -0.14821104710E+03 -0.13389704381E+03  0.15845428528E+04  0.90928083706E+02 0.  0.
    5000000    2    1    2    0    0 -0.15692715517E+04  0.14821104710E+03 -0.18798466991E+04  0.25254430665E+04  0.59954929114E+03 0.  0.
         23    2    4    4    0    0 -0.73865292135E+02 -0.11511261757E+03 -0.21596643687E+03  0.27104801502E+03  0.90102877225E+02 0.  0.
         23    2    4    4    0    0 -0.14954062596E+04  0.26332366467E+03 -0.16638802623E+04  0.22543950515E+04  0.90665801395E+02 0.  0.
          5    1    3    3  502    0  0.64775209558E+03 -0.25907951247E+02 -0.27612444805E+02  0.64887482335E+03  0.47000000000E+01 0. -1.
         -5    1    3    3    0  502  0.92151945617E+03 -0.12230309586E+03 -0.10628459901E+03  0.93566802945E+03  0.47000000000E+01 0.  1.
         13    1    5    5    0    0 -0.86943338462E+02 -0.56464996299E+02 -0.13908574588E+03  0.17347127894E+03  0.00000000000E+00 0. -1.
        -13    1    5    5    0    0  0.13078046327E+02 -0.58647621269E+02 -0.76880690990E+02  0.97576736076E+02  0.00000000000E+00 0.  1.
          3    1    6    6  503    0 -0.74413891444E+03  0.17203860001E+03 -0.80522696795E+03  0.11098335343E+04  0.00000000000E+00 0. -1.
         -3    1    6    6    0  503 -0.75126734517E+03  0.91285064661E+02 -0.85865329431E+03  0.11445615173E+04  0.00000000000E+00 0.  1.
<mgrwt>
<rscale>  0 0.16311084E+04</rscale>
<asrwt>0</asrwt>
<pdfrwt beam="1">  1        2 0.47105612E+00 0.16311084E+04</pdfrwt>
<pdfrwt beam="2">  1       -2 0.16124940E+00 0.16311084E+04</pdfrwt>
<totfact> 0.36616197E-01</totfact>
</mgrwt>
</event>
<event>
12    1  0.3547716E-008  0.1045243E+04  0.7818608E-02  0.9260269E-01
         -2   -1    0    0    0  501 -0.00000000000E+00  0.00000000000E+00  0.75105346660E+03  0.75105346660E+03  0.00000000000E+00 0.  1.
          2   -1    0    0  501    0  0.00000000000E+00 -0.00000000000E+00 -0.16641822550E+04  0.16641822550E+04  0.00000000000E+00 0. -1.
         23    2    1    2    0    0  0.73521001739E+03 -0.72130329489E+03 -0.31591283997E+03  0.10820570787E+04  0.10116514382E+03 0.  0.
    5000000    2    1    2    0    0 -0.73521001739E+03  0.72130329489E+03 -0.59721594842E+03  0.13331786428E+04  0.59990515231E+03 0.  0.
         23    2    4    4    0    0 -0.48623914407E+03  0.59718987300E+03 -0.68047870156E+03  0.10316083305E+04  0.90001303945E+02 0.  0.
         23    2    4    4    0    0 -0.24897087332E+03  0.12411342189E+03  0.83262753139E+02  0.30157031229E+03  0.81371554882E+02 0.  0.
          5    1    3    3  502    0  0.45931916587E+03 -0.46390419399E+03 -0.15004871661E+03  0.66986409420E+03  0.47000000000E+01 0. -1.
         -5    1    3    3    0  502  0.27589085152E+03 -0.25739910090E+03 -0.16586412336E+03  0.41219298455E+03  0.47000000000E+01 0.  1.
         11    1    5    5    0    0 -0.27018470600E+03  0.31375431315E+03 -0.42312657268E+03  0.59201152090E+03  0.00000000000E+00 0.  1.
        -11    1    5    5    0    0 -0.21605443807E+03  0.28343555986E+03 -0.25735212888E+03  0.43959680964E+03  0.00000000000E+00 0. -1.
          3    1    6    6  503    0 -0.19403995583E+03  0.55236496915E+02  0.58177404909E+02  0.20996948705E+03  0.00000000000E+00 0. -1.
         -3    1    6    6    0  503 -0.54930917489E+02  0.68876924974E+02  0.25085348230E+02  0.91600825246E+02  0.00000000000E+00 0.  1.
<mgrwt>
<rscale>  0 0.10452430E+04</rscale>
<asrwt>0</asrwt>
<pdfrwt beam="1">  1        2 0.25602804E+00 0.10452430E+04</pdfrwt>
<pdfrwt beam="2">  1       -2 0.11554669E+00 0.10452430E+04</pdfrwt>
<totfact> 0.59288774E+00</totfact>
</mgrwt>
</event>
<event>
12    1  0.3203156E-008  0.1574404E+04  0.7818608E-02  0.8836429E-01
          1   -1    0    0  501    0  0.00000000000E+00  0.00000000000E+00  0.83558420606E+03  0.83558420606E+03  0.00000000000E+00 0. -1.
         -1   -1    0    0    0  501 -0.00000000000E+00 -0.00000000000E+00 -0.29881626011E+04  0.29881626011E+04  0.00000000000E+00 0.  1.
         23    2    1    2    0    0  0.13886575736E+04 -0.62237444896E+03 -0.10079032622E+04  0.18272622632E+04  0.85431734265E+02 0.  0.
    5000000    2    1    2    0    0 -0.13886575736E+04  0.62237444896E+03 -0.11446751328E+04  0.19964845439E+04  0.59995796776E+03 0.  0.
         23    2    4    4    0    0 -0.22028088209E+02  0.15793976914E+03 -0.74426164409E+02  0.19732570343E+03  0.89263497242E+02 0.  0.
         23    2    4    4    0    0 -0.13666294854E+04  0.46443467982E+03 -0.10702489684E+04  0.17991588405E+04  0.90354617270E+02 0.  0.
          5    1    3    3  502    0  0.27857208001E+03 -0.94673576611E+02 -0.17236322256E+03  0.34102296163E+03  0.47000000000E+01 0. -1.
         -5    1    3    3    0  502  0.11100854936E+04 -0.52770087235E+03 -0.83554003965E+03  0.14862393016E+04  0.47000000000E+01 0.  1.
         11    1    5    5    0    0 -0.42625929751E+02  0.15399816792E+03 -0.55724350336E+02  0.16922650156E+03  0.00000000000E+00 0.  1.
        -11    1    5    5    0    0  0.20597841542E+02  0.39416012251E+01 -0.18701814073E+02  0.28099201876E+02  0.00000000000E+00 0. -1.
          2    1    6    6  503    0 -0.89333318515E+03  0.33377857329E+03 -0.74575799626E+03  0.12106226929E+04  0.00000000000E+00 0. -1.
         -2    1    6    6    0  503 -0.47329630022E+03  0.13065610653E+03 -0.32449097214E+03  0.58853614756E+03  0.00000000000E+00 0.  1.
<mgrwt>
<rscale>  0 0.15744037E+04</rscale>
<asrwt>0</asrwt>
<pdfrwt beam="1">  1        1 0.12855141E+00 0.15744037E+04</pdfrwt>
<pdfrwt beam="2">  1       -1 0.45971733E+00 0.15744037E+04</pdfrwt>
<totfact> 0.54010580E-02</totfact>
</mgrwt>
</event>
<event>
12    1  0.3203156E-008  0.5057881E+03  0.7818608E-02  0.1012279E+00
          1   -1    0    0  501    0  0.00000000000E+00  0.00000000000E+00  0.28562694867E+04  0.28562694867E+04  0.00000000000E+00 0. -1.
         -1   -1    0    0    0  501 -0.00000000000E+00 -0.00000000000E+00 -0.11157107382E+03  0.11157107382E+03  0.00000000000E+00 0.  1.
         23    2    1    2    0    0  0.19431874578E+03  0.26679978799E+03  0.40616850531E+03  0.53112439751E+03  0.90434335773E+02 0.  0.
    5000000    2    1    2    0    0 -0.19431874578E+03 -0.26679978799E+03  0.23385299076E+04  0.24367161630E+04  0.59993468702E+03 0.  0.
         23    2    4    4    0    0  0.14187199899E+03 -0.28343650687E+03  0.99902586458E+03  0.10523547420E+04  0.94519349256E+02 0.  0.
         23    2    4    4    0    0 -0.33619074477E+03  0.16636718873E+02  0.13395040430E+04  0.13843614210E+04  0.94257442904E+02 0.  0.
          5    1    3    3  502    0  0.13928879467E+03  0.11518441023E+03  0.21960159170E+03  0.28445696645E+03  0.47000000000E+01 0. -1.
         -5    1    3    3    0  502  0.55029951109E+02  0.15161537777E+03  0.18656691360E+03  0.24666743106E+03  0.47000000000E+01 0.  1.
         13    1    5    5    0    0  0.14830086466E+02 -0.81251339176E+02  0.16067161984E+03  0.18065735802E+03  0.00000000000E+00 0. -1.
        -13    1    5    5    0    0  0.12704191252E+03 -0.20218516769E+03  0.83835424474E+03  0.87169738399E+03  0.00000000000E+00 0.  1.
          1    1    6    6  503    0 -0.70405003042E+02  0.40417685737E+02  0.26090208024E+03  0.27324046049E+03  0.00000000000E+00 0. -1.
         -1    1    6    6    0  503 -0.26578574173E+03 -0.23780966864E+02  0.10786019628E+04  0.11111209606E+04  0.00000000000E+00 0.  1.
<mgrwt>
<rscale>  0 0.50578811E+03</rscale>
<asrwt>0</asrwt>
<pdfrwt beam="1">  1        1 0.43942602E+00 0.50578811E+03</pdfrwt>
<pdfrwt beam="2">  1       -1 0.17164783E-01 0.50578811E+03</pdfrwt>
<totfact> 0.22071820E+01</totfact>
</mgrwt>
</event>
<event>
12    1  0.3203156E-008  0.3211503E+03  0.7818608E-02  0.1075121E+00
          2   -1    0    0  501    0  0.00000000000E+00  0.00000000000E+00  0.27594141604E+04  0.27594141604E+04  0.00000000000E+00 0. -1.
         -2   -1    0    0    0  501 -0.00000000000E+00 -0.00000000000E+00 -0.67436921517E+02  0.67436921517E+02  0.00000000000E+00 0.  1.
         23    2    1    2    0    0 -0.98702184941E+02 -0.28475312279E+02  0.11943292496E+03  0.18327793342E+03  0.93667564262E+02 0.  0.
    5000000    2    1    2    0    0  0.98702184941E+02  0.28475312279E+02  0.25725443139E+04  0.26435731485E+04  0.59995148103E+03 0.  0.
         23    2    4    4    0    0  0.19100673023E+03 -0.18393888148E+03  0.20000147983E+04  0.20194115432E+04  0.87445436694E+02 0.  0.
         23    2    4    4    0    0 -0.92304545289E+02  0.21241419376E+03  0.57252951563E+03  0.62416160527E+03  0.90264857105E+02 0.  0.
          5    1    3    3  502    0 -0.93214872908E+02  0.71437733290E+01  0.11237561514E+03  0.14625462354E+03  0.47000000000E+01 0. -1.
         -5    1    3    3    0  502 -0.54873120334E+01 -0.35619085608E+02  0.70573098166E+01  0.37023309884E+02  0.47000000000E+01 0.  1.
         11    1    5    5    0    0  0.68524505095E+02 -0.44450812942E+02  0.91436875936E+03  0.91800964628E+03  0.00000000000E+00 0. -1.
        -11    1    5    5    0    0  0.12248222513E+03 -0.13948806854E+03  0.10856460389E+04  0.11014018969E+04  0.00000000000E+00 0.  1.
          2    1    6    6  503    0 -0.67698957957E+01  0.11582125496E+03  0.32385104384E+03  0.34400565866E+03  0.00000000000E+00 0. -1.
         -2    1    6    6    0  503 -0.85534649493E+02  0.96592938802E+02  0.24867847179E+03  0.28015594661E+03  0.00000000000E+00 0.  1.
<mgrwt>
<rscale>  0 0.32115025E+03</rscale>
<asrwt>0</asrwt>
<pdfrwt beam="1">  1        2 0.42452517E+00 0.32115025E+03</pdfrwt>
<pdfrwt beam="2">  1       -2 0.10374913E-01 0.32115025E+03</pdfrwt>
<totfact> 0.17766659E+02</totfact>
</mgrwt>
</event>
<event>
12    1  0.3203156E-008  0.4513872E+03  0.7818608E-02  0.1027309E+00
          1   -1    0    0  501    0  0.00000000000E+00  0.00000000000E+00  0.22640322749E+04  0.22640322749E+04  0.00000000000E+00 0. -1.
         -1   -1    0    0    0  501 -0.00000000000E+00 -0.00000000000E+00 -0.16092201573E+03  0.16092201573E+03  0.00000000000E+00 0.  1.
         23    2    1    2    0    0 -0.19664546046E+03  0.16168949820E+03  0.57410464075E+02  0.27788361024E+03  0.95448459936E+02 0.  0.
    5000000    2    1    2    0    0  0.19664546046E+03 -0.16168949820E+03  0.20456997951E+04  0.21470706804E+04  0.60017657737E+03 0.  0.
         23    2    4    4    0    0  0.36962223813E+03  0.24470646194E+02  0.12711953631E+04  0.13274202190E+04  0.94272877074E+02 0.  0.
         23    2    4    4    0    0 -0.17297677767E+03 -0.18616014439E+03  0.77450443208E+03  0.81965046142E+03  0.85983711380E+02 0.  0.
          5    1    3    3  502    0 -0.67060914327E+02  0.44409927583E+02 -0.25325906010E+02  0.84456494206E+02  0.47000000000E+01 0. -1.
         -5    1    3    3    0  502 -0.12958454614E+03  0.11727957062E+03  0.82736370084E+02  0.19342711603E+03  0.47000000000E+01 0.  1.
         13    1    5    5    0    0  0.43524592822E+02  0.33238468121E+02  0.14781611260E+03  0.15763498688E+03  0.00000000000E+00 0. -1.
        -13    1    5    5    0    0  0.32609764531E+03 -0.87678219268E+01  0.11233792504E+04  0.11697852321E+04  0.00000000000E+00 0.  1.
          4    1    6    6  503    0 -0.36866512771E+02 -0.96746900735E+02  0.25490753211E+03  0.27513079161E+03  0.00000000000E+00 0.  1.
         -4    1    6    6    0  503 -0.13611026490E+03 -0.89413243658E+02  0.51959689998E+03  0.54451966981E+03  0.00000000000E+00 0. -1.
<mgrwt>
<rscale>  0 0.45138716E+03</rscale>
<asrwt>0</asrwt>
<pdfrwt beam="1">  1        1 0.34831263E+00 0.45138716E+03</pdfrwt>
<pdfrwt beam="2">  1       -1 0.24757235E-01 0.45138716E+03</pdfrwt>
<totfact> 0.30758783E+01</totfact>
</mgrwt>
</event>
<event>
12    1  0.3207977E-008  0.8718932E+03  0.7818608E-02  0.9461415E-01
          2   -1    0    0  501    0  0.00000000000E+00  0.00000000000E+00  0.10371128491E+04  0.10371128491E+04  0.00000000000E+00 0. -1.
         -2   -1    0    0    0  501 -0.00000000000E+00 -0.00000000000E+00 -0.80578598944E+03  0.80578598944E+03  0.00000000000E+00 0.  1.
         23    2    1    2    0    0 -0.15426854993E+03  0.76417655353E+03  0.33209892102E+03  0.85397700510E+03  0.10593602519E+03 0.  0.
    5000000    2    1    2    0    0  0.15426854993E+03 -0.76417655353E+03 -0.10077206131E+03  0.98892183349E+03  0.60003899369E+03 0.  0.
         23    2    4    4    0    0 -0.15991206644E+03 -0.38715822252E+02 -0.27402488965E+02  0.18965062060E+03  0.90253407722E+02 0.  0.
         23    2    4    4    0    0  0.31418061637E+03 -0.72546073128E+03 -0.73369572346E+02  0.79927121289E+03  0.91916512556E+02 0.  0.
          5    1    3    3  502    0 -0.22812474279E+02  0.36639088603E+03  0.17251768657E+03  0.40564409589E+03  0.47000000000E+01 0. -1.
         -5    1    3    3    0  502 -0.13145607565E+03  0.39778566750E+03  0.15958123445E+03  0.44833290921E+03  0.47000000000E+01 0.  1.
         11    1    5    5    0    0 -0.80535324418E+02 -0.21710491352E+02 -0.59394434734E+02  0.10239620496E+03  0.00000000000E+00 0. -1.
        -11    1    5    5    0    0 -0.79376742025E+02 -0.17005330901E+02  0.31991945769E+02  0.87254415634E+02  0.00000000000E+00 0.  1.
          2    1    6    6  503    0  0.25912482222E+03 -0.64950257576E+03 -0.86229942724E+02  0.70458134550E+03  0.00000000000E+00 0. -1.
         -2    1    6    6    0  503  0.55055794158E+02 -0.75958155515E+02  0.12860370378E+02  0.94689867387E+02  0.00000000000E+00 0.  1.
<mgrwt>
<rscale>  0 0.87189322E+03</rscale>
<asrwt>0</asrwt>
<pdfrwt beam="1">  1        2 0.15955582E+00 0.87189322E+03</pdfrwt>
<pdfrwt beam="2">  1       -2 0.12396708E+00 0.87189322E+03</pdfrwt>
<totfact> 0.11726312E+01</totfact>
</mgrwt>
</event>
<event>
12    1  0.3203156E-008  0.7039733E+03  0.7818608E-02  0.9710461E-01
         -2   -1    0    0    0  501 -0.00000000000E+00  0.00000000000E+00  0.31641967068E+03  0.31641967068E+03  0.00000000000E+00 0.  1.
          2   -1    0    0  501    0  0.00000000000E+00 -0.00000000000E+00 -0.18792622203E+04  0.18792622203E+04  0.00000000000E+00 0. -1.
         23    2    1    2    0    0  0.55915514349E+03  0.31726783198E+03 -0.80973394604E+03  0.10379058105E+04  0.90917855589E+02 0.  0.
    5000000    2    1    2    0    0 -0.55915514349E+03 -0.31726783198E+03 -0.75310860354E+03  0.11577760804E+04  0.59996627567E+03 0.  0.
         23    2    4    4    0    0 -0.54400127036E+03 -0.36508159898E+03 -0.80081930715E+03  0.10388085611E+04  0.92680676411E+02 0.  0.
         23    2    4    4    0    0 -0.15153873129E+02  0.47813766994E+02  0.47710703608E+02  0.11896751934E+03  0.96753104525E+02 0.  0.
          5    1    3    3  502    0  0.50120736844E+03  0.27995694204E+03 -0.67223316752E+03  0.88402728300E+03  0.47000000000E+01 0. -1.
         -5    1    3    3    0  502  0.57947775048E+02  0.37310889944E+02 -0.13750077852E+03  0.15387852753E+03  0.47000000000E+01 0.  1.
         13    1    5    5    0    0 -0.20221900316E+03 -0.10690688970E+03 -0.33876393577E+03  0.40875740052E+03  0.00000000000E+00 0. -1.
        -13    1    5    5    0    0 -0.34178226720E+03 -0.25817470928E+03 -0.46205537138E+03  0.63005116055E+03  0.00000000000E+00 0.  1.
          3    1    6    6  503    0 -0.29537830530E+02  0.72958780494E+02  0.26457813341E+02  0.83039044855E+02  0.00000000000E+00 0. -1.
         -3    1    6    6    0  503  0.14383957401E+02 -0.25145013500E+02  0.21252890267E+02  0.35928474490E+02  0.00000000000E+00 0.  1.
<mgrwt>
<rscale>  0 0.70397332E+03</rscale>
<asrwt>0</asrwt>
<pdfrwt beam="1">  1        2 0.28911727E+00 0.70397332E+03</pdfrwt>
<pdfrwt beam="2">  1       -2 0.48679948E-01 0.70397332E+03</pdfrwt>
<totfact> 0.32283681E+01</totfact>
</mgrwt>
</event>
<event>
12    1  0.3203156E-008  0.6631908E+03  0.7818608E-02  0.9782338E-01
         -3   -1    0    0    0  501 -0.00000000000E+00  0.00000000000E+00  0.75815694333E+03  0.75815694333E+03  0.00000000000E+00 0.  1.
          3   -1    0    0  501    0  0.00000000000E+00 -0.00000000000E+00 -0.65054396382E+03  0.65054396382E+03  0.00000000000E+00 0. -1.
         23    2    1    2    0    0 -0.17928790312E+02  0.56576351504E+03 -0.25948555166E+02  0.57376564341E+03  0.90132622130E+02 0.  0.
    5000000    2    1    2    0    0  0.17928790312E+02 -0.56576351504E+03  0.13356153468E+03  0.83493526373E+03  0.59905626999E+03 0.  0.
         23    2    4    4    0    0  0.16628409942E+03 -0.56017490605E+03 -0.34826914749E+02  0.59232464053E+03  0.90494412553E+02 0.  0.
         23    2    4    4    0    0 -0.14835530910E+03 -0.55886089887E+01  0.16838844943E+03  0.24261062321E+03  0.92003881994E+02 0.  0.
          5    1    3    3  502    0  0.16841677366E+02  0.35560463831E+03 -0.49262814379E+02  0.35942623132E+03  0.47000000000E+01 0. -1.
         -5    1    3    3    0  502 -0.34770467677E+02  0.21015887673E+03  0.23314259213E+02  0.21433941208E+03  0.47000000000E+01 0.  1.
         13    1    5    5    0    0  0.73405102257E+02 -0.18526470071E+03  0.27225480872E+02  0.20112818096E+03  0.00000000000E+00 0.  1.
        -13    1    5    5    0    0  0.92878997159E+02 -0.37491020533E+03 -0.62052395621E+02  0.39119645957E+03  0.00000000000E+00 0. -1.
          3    1    6    6  503    0 -0.67502760167E+02 -0.45686053509E+02  0.10203131278E+03  0.13059183321E+03  0.00000000000E+00 0. -1.
         -3    1    6    6    0  503 -0.80852548937E+02  0.40097444520E+02  0.66357136651E+02  0.11201878999E+03  0.00000000000E+00 0.  1.
<mgrwt>
<rscale>  0 0.66319082E+03</rscale>
<asrwt>0</asrwt>
<pdfrwt beam="1">  1        3 0.10008369E+00 0.66319082E+03</pdfrwt>
<pdfrwt beam="2">  1       -3 0.11663953E+00 0.66319082E+03</pdfrwt>
<totfact> 0.13776991E+00</totfact>
</mgrwt>
</event>
<event>
12    1  0.3203156E-008  0.7266884E+03  0.7818608E-02  0.9672650E-01
         -1   -1    0    0    0  501 -0.00000000000E+00  0.00000000000E+00  0.76784742844E+03  0.76784742844E+03  0.00000000000E+00 0.  1.
          1   -1    0    0  501    0  0.00000000000E+00 -0.00000000000E+00 -0.74795304106E+03  0.74795304106E+03  0.00000000000E+00 0. -1.
         23    2    1    2    0    0  0.16636023181E+03  0.60776930773E+03 -0.73409371003E+02  0.64063641436E+03  0.89257052955E+02 0.  0.
    5000000    2    1    2    0    0 -0.16636023181E+03 -0.60776930773E+03  0.93303758379E+02  0.87516405515E+03  0.60012271574E+03 0.  0.
         23    2    4    4    0    0 -0.21748316419E+03 -0.12410758427E+02 -0.74321114973E+02  0.24786025054E+03  0.91968049003E+02 0.  0.
         23    2    4    4    0    0  0.51122932380E+02 -0.59535854930E+03  0.16762487335E+03  0.62730380461E+03  0.91359775963E+02 0.  0.
          5    1    3    3  502    0  0.89672852554E+02  0.29519458994E+03 -0.79769499686E+02  0.31869472775E+03  0.47000000000E+01 0. -1.
         -5    1    3    3    0  502  0.76687379252E+02  0.31257471779E+03  0.63601286829E+01  0.32194168661E+03  0.47000000000E+01 0.  1.
         11    1    5    5    0    0 -0.15191629447E+03  0.16297317757E+02 -0.12528501352E+02  0.15330077116E+03  0.00000000000E+00 0. -1.
        -11    1    5    5    0    0 -0.65566869713E+02 -0.28708076184E+02 -0.61792613621E+02  0.94559479378E+02  0.00000000000E+00 0.  1.
          2    1    6    6  503    0  0.17968207265E+02 -0.40212567222E+03  0.15327899865E+03  0.43072307131E+03  0.00000000000E+00 0. -1.
         -2    1    6    6    0  503  0.33154725116E+02 -0.19323287709E+03  0.14345874707E+02  0.19658073330E+03  0.00000000000E+00 0.  1.
<mgrwt>
<rscale>  0 0.72668835E+03</rscale>
<asrwt>0</asrwt>
<pdfrwt beam="1">  1        1 0.11506970E+00 0.72668835E+03</pdfrwt>
<pdfrwt beam="2">  1       -1 0.11813037E+00 0.72668835E+03</pdfrwt>
<totfact> 0.16316087E+01</totfact>
</mgrwt>
</event>
<event>
12    1  0.3203156E-008  0.8029246E+03  0.7818608E-02  0.9555793E-01
          1   -1    0    0  501    0  0.00000000000E+00  0.00000000000E+00  0.22110661423E+04  0.22110661423E+04  0.00000000000E+00 0. -1.
         -1   -1    0    0    0  501 -0.00000000000E+00 -0.00000000000E+00 -0.30579178877E+03  0.30579178877E+03  0.00000000000E+00 0.  1.
         23    2    1    2    0    0  0.49249647111E+03  0.50966479534E+03  0.87751592779E+03  0.11316936823E+04  0.91571880597E+02 0.  0.
    5000000    2    1    2    0    0 -0.49249647111E+03 -0.50966479534E+03  0.10277584257E+04  0.13851642488E+04  0.60006802677E+03 0.  0.
         23    2    4    4    0    0 -0.60839702599E+03 -0.39790330354E+03  0.90152528718E+03  0.11617927100E+04  0.92414703001E+02 0.  0.
         23    2    4    4    0    0  0.11590055488E+03 -0.11176149180E+03  0.12623313854E+03  0.22337153879E+03  0.89646357461E+02 0.  0.
          5    1    3    3  502    0  0.28701606104E+03  0.24495469513E+03  0.42101266950E+03  0.56538020822E+03  0.47000000000E+01 0. -1.
         -5    1    3    3    0  502  0.20548041007E+03  0.26471010020E+03  0.45650325828E+03  0.56631347405E+03  0.47000000000E+01 0.  1.
         11    1    5    5    0    0 -0.40318070141E+03 -0.31099811931E+03  0.65110574392E+03  0.82656711644E+03  0.00000000000E+00 0. -1.
        -11    1    5    5    0    0 -0.20521632458E+03 -0.86905184226E+02  0.25041954325E+03  0.33522559353E+03  0.00000000000E+00 0.  1.
          3    1    6    6  503    0  0.55780152371E+02 -0.60538797292E+02  0.11811835538E+03  0.14397332133E+03  0.00000000000E+00 0. -1.
         -3    1    6    6    0  503  0.60120402505E+02 -0.51222694507E+02  0.81147831532E+01  0.79398217459E+02  0.00000000000E+00 0.  1.
<mgrwt>
<rscale>  0 0.80292462E+03</rscale>
<asrwt>0</asrwt>
<pdfrwt beam="1">  1        1 0.34016401E+00 0.80292462E+03</pdfrwt>
<pdfrwt beam="2">  1       -1 0.47044892E-01 0.80292462E+03</pdfrwt>
<totfact> 0.10036620E+01</totfact>
</mgrwt>
</event>
<event>
12    1  0.3203156E-008  0.2392616E+03  0.7818608E-02  0.1120286E+00
         -1   -1    0    0    0  501 -0.00000000000E+00  0.00000000000E+00  0.12140044095E+03  0.12140044095E+03  0.00000000000E+00 0.  1.
          1   -1    0    0  501    0  0.00000000000E+00 -0.00000000000E+00 -0.16797630216E+04  0.16797630216E+04  0.00000000000E+00 0. -1.
         23    2    1    2    0    0  0.16155397904E+03 -0.79934566175E+01 -0.91286676637E+02  0.20771069039E+03  0.92988655649E+02 0.  0.
    5000000    2    1    2    0    0 -0.16155397904E+03  0.79934566175E+01 -0.14670759041E+04  0.15934527722E+04  0.60051348485E+03 0.  0.
         23    2    4    4    0    0  0.10026667081E+02 -0.48826639647E+02 -0.13627495562E+04  0.13667436814E+04  0.91746186480E+02 0.  0.
         23    2    4    4    0    0 -0.17158064612E+03  0.56820096264E+02 -0.10432634783E+03  0.22670909085E+03  0.88569653710E+02 0.  0.
          5    1    3    3  502    0  0.16120896011E+03  0.16027740334E+02 -0.80438638195E+02  0.18093557361E+03  0.47000000000E+01 0. -1.
         -5    1    3    3    0  502  0.34501892958E+00 -0.24021196952E+02 -0.10848038442E+02  0.26775116790E+02  0.47000000000E+01 0.  1.
         13    1    5    5    0    0 -0.32648280141E+02 -0.13252059677E+02 -0.89705739302E+03  0.89774912623E+03  0.00000000000E+00 0.  1.
        -13    1    5    5    0    0  0.42674947222E+02 -0.35574579970E+02 -0.46569216321E+03  0.46899455512E+03  0.00000000000E+00 0. -1.
          3    1    6    6  503    0  0.30698622112E+01  0.23099645269E+02 -0.98385285888E+01  0.25294551001E+02  0.00000000000E+00 0. -1.
         -3    1    6    6    0  503 -0.17465050834E+03  0.33720450995E+02 -0.94487819244E+02  0.20141453985E+03  0.00000000000E+00 0.  1.
<mgrwt>
<rscale>  0 0.23926159E+03</rscale>
<asrwt>0</asrwt>
<pdfrwt beam="1">  1        1 0.25842506E+00 0.23926159E+03</pdfrwt>
<pdfrwt beam="2">  1       -1 0.18676992E-01 0.23926159E+03</pdfrwt>
<totfact> 0.12486381E+02</totfact>
</mgrwt>
</event>
<event>
12    1  0.3203156E-008  0.6642253E+03  0.7818608E-02  0.9780447E-01
         -2   -1    0    0    0  501 -0.00000000000E+00  0.00000000000E+00  0.25644009407E+03  0.25644009407E+03  0.00000000000E+00 0. -1.
          2   -1    0    0  501    0  0.00000000000E+00 -0.00000000000E+00 -0.19668512475E+04  0.19668512475E+04  0.00000000000E+00 0.  1.
         23    2    1    2    0    0  0.19562789894E+03 -0.53823620734E+03 -0.56906674620E+03  0.81233919131E+03  0.89941705395E+02 0.  0.
    5000000    2    1    2    0    0 -0.19562789894E+03  0.53823620734E+03 -0.11413444073E+04  0.14109521503E+04  0.60012534081E+03 0.  0.
         23    2    4    4    0    0 -0.29250660043E+03  0.12778122281E+03 -0.23223186372E+03  0.40470703385E+03  0.89263612540E+02 0.  0.
         23    2    4    4    0    0  0.96878701491E+02  0.41045498453E+03 -0.90911254355E+03  0.10062451164E+04  0.90470107803E+02 0.  0.
          5    1    3    3  502    0  0.90674177002E+02 -0.32377829015E+03 -0.28149359091E+03  0.43853724958E+03  0.47000000000E+01 0. -1.
         -5    1    3    3    0  502  0.10495372193E+03 -0.21445791719E+03 -0.28757315530E+03  0.37380194173E+03  0.47000000000E+01 0.  1.
         11    1    5    5    0    0 -0.76651475070E+02  0.55333857914E+02 -0.27363300458E+02  0.98417654280E+02  0.00000000000E+00 0.  1.
        -11    1    5    5    0    0 -0.21585512536E+03  0.72447364894E+02 -0.20486856326E+03  0.30628937957E+03  0.00000000000E+00 0. -1.
          3    1    6    6  503    0  0.10971717917E+03  0.29085421250E+03 -0.64227979814E+03  0.71355264097E+03  0.00000000000E+00 0. -1.
         -3    1    6    6    0  503 -0.12838477676E+02  0.11960077203E+03 -0.26683274540E+03  0.29269247548E+03  0.00000000000E+00 0.  1.
<mgrwt>
<rscale>  0 0.66422527E+03</rscale>
<asrwt>0</asrwt>
<pdfrwt beam="1">  1        2 0.30259249E+00 0.66422527E+03</pdfrwt>
<pdfrwt beam="2">  1       -2 0.39452323E-01 0.66422527E+03</pdfrwt>
<totfact> 0.44117284E+01</totfact>
</mgrwt>
</event>
<event>
12    1  0.3203156E-008  0.1691074E+04  0.7818608E-02  0.8766472E-01
          1   -1    0    0  501    0  0.00000000000E+00  0.00000000000E+00  0.24340838664E+04  0.24340838664E+04  0.00000000000E+00 0. -1.
         -1   -1    0    0    0  501 -0.00000000000E+00 -0.00000000000E+00 -0.12319583044E+04  0.12319583044E+04  0.00000000000E+00 0.  1.
         23    2    1    2    0    0 -0.86812241110E+03  0.14362197176E+04  0.61110746660E+03  0.17883370156E+04  0.91287172631E+02 0.  0.
    5000000    2    1    2    0    0  0.86812241110E+03 -0.14362197176E+04  0.59101809538E+03  0.18777051553E+04  0.60009221229E+03 0.  0.
         23    2    4    4    0    0  0.50893538323E+03 -0.10425394319E+04  0.13697990537E+03  0.11717791085E+04  0.91646567658E+02 0.  0.
         23    2    4    4    0    0  0.35918702788E+03 -0.39368028566E+03  0.45403819001E+03  0.70592604672E+03  0.90451186471E+02 0.  0.
          5    1    3    3  502    0 -0.75809405666E+03  0.12064624922E+04  0.54047569514E+03  0.15239404223E+04  0.47000000000E+01 0. -1.
         -5    1    3    3    0  502 -0.11002835445E+03  0.22975722539E+03  0.70631771465E+02  0.26439659328E+03  0.47000000000E+01 0.  1.
         13    1    5    5    0    0  0.13229422540E+03 -0.36913669862E+03  0.41460632962E+02  0.39431288138E+03  0.00000000000E+00 0. -1.
        -13    1    5    5    0    0  0.37664115783E+03 -0.67340273329E+03  0.95519272404E+02  0.77746622716E+03  0.00000000000E+00 0.  1.
          3    1    6    6  503    0  0.96576218284E+02 -0.58280354821E+02  0.11911546222E+03  0.16404895317E+03  0.00000000000E+00 0. -1.
         -3    1    6    6    0  503  0.26261080959E+03 -0.33539993084E+03  0.33492272780E+03  0.54187709355E+03  0.00000000000E+00 0.  1.
<mgrwt>
<rscale>  0 0.16910735E+04</rscale>
<asrwt>0</asrwt>
<pdfrwt beam="1">  1        1 0.37447444E+00 0.16910735E+04</pdfrwt>
<pdfrwt beam="2">  1       -1 0.18953205E+00 0.16910735E+04</pdfrwt>
<totfact> 0.24816141E-01</totfact>
</mgrwt>
</event>
<event>
12    1  0.3203156E-008  0.1161116E+04  0.7818608E-02  0.9147589E-01
         -2   -1    0    0    0  501 -0.00000000000E+00  0.00000000000E+00  0.10833978148E+04  0.10833978148E+04  0.00000000000E+00 0. -1.
          2   -1    0    0  501    0  0.00000000000E+00 -0.00000000000E+00 -0.16863077666E+04  0.16863077666E+04  0.00000000000E+00 0.  1.
         23    2    1    2    0    0 -0.51548822690E+03  0.99773184619E+03 -0.92359124257E+03  0.14566958007E+04  0.88005245997E+02 0.  0.
    5000000    2    1    2    0    0  0.51548822690E+03 -0.99773184619E+03  0.32068129080E+03  0.13130097807E+04  0.59996770336E+03 0.  0.
         23    2    4    4    0    0  0.17455965985E+03 -0.74282068109E+03  0.40625490909E+03  0.86937664055E+03  0.92298715523E+02 0.  0.
         23    2    4    4    0    0  0.34092856706E+03 -0.25491116510E+03 -0.85573618287E+02  0.44363314018E+03  0.90969934563E+02 0.  0.
          5    1    3    3  502    0 -0.30419753089E+03  0.63161786641E+03 -0.52708658367E+03  0.87710867266E+03  0.47000000000E+01 0. -1.
         -5    1    3    3    0  502 -0.21129069602E+03  0.36611397977E+03 -0.39650465890E+03  0.57958712799E+03  0.47000000000E+01 0.  1.
         11    1    5    5    0    0  0.69293075764E+02 -0.32656233307E+03  0.22920032462E+03  0.40494107786E+03  0.00000000000E+00 0.  1.
        -11    1    5    5    0    0  0.10526658408E+03 -0.41625834802E+03  0.17705458447E+03  0.46443556270E+03  0.00000000000E+00 0. -1.
          4    1    6    6  503    0  0.23485989391E+03 -0.12037576459E+03 -0.55782494451E+02  0.26974280557E+03  0.00000000000E+00 0. -1.
         -4    1    6    6    0  503  0.10606867315E+03 -0.13453540051E+03 -0.29791123836E+02  0.17389033462E+03  0.00000000000E+00 0.  1.
<mgrwt>
<rscale>  0 0.11611162E+04</rscale>
<asrwt>0</asrwt>
<pdfrwt beam="1">  1        2 0.25943196E+00 0.11611162E+04</pdfrwt>
<pdfrwt beam="2">  1       -2 0.16667659E+00 0.11611162E+04</pdfrwt>
<totfact> 0.21912738E+00</totfact>
</mgrwt>
</event>
<event>
12    1  0.3203156E-008  0.6480627E+03  0.7818608E-02  0.9810421E-01
          1   -1    0    0  501    0  0.00000000000E+00  0.00000000000E+00  0.23856465071E+04  0.23856465071E+04  0.00000000000E+00 0. -1.
         -1   -1    0    0    0  501 -0.00000000000E+00 -0.00000000000E+00 -0.93026838985E+03  0.93026838985E+03  0.00000000000E+00 0.  1.
         23    2    1    2    0    0 -0.56249503561E+03  0.25940636588E+03 -0.73286382411E+03  0.96386945715E+03  0.90898943914E+02 0.  0.
    5000000    2    1    2    0    0  0.56249503561E+03 -0.25940636588E+03  0.21882419413E+04  0.23520454398E+04  0.60001885741E+03 0.  0.
         23    2    4    4    0    0  0.11031977507E+03 -0.14160126190E+03  0.13052543921E+03  0.23987833108E+03  0.91012929289E+02 0.  0.
         23    2    4    4    0    0  0.45217526054E+03 -0.11780510398E+03  0.20577165021E+04  0.21121671087E+04  0.93339076500E+02 0.  0.
          5    1    3    3  502    0 -0.30620055305E+03  0.18627542881E+03 -0.44781099209E+03  0.57359749712E+03  0.47000000000E+01 0. -1.
         -5    1    3    3    0  502 -0.25629448256E+03  0.73130937066E+02 -0.28505283202E+03  0.39027196003E+03  0.47000000000E+01 0.  1.
         11    1    5    5    0    0  0.13778271862E+02 -0.77614763007E+02  0.23697284626E+02  0.82313143002E+02  0.00000000000E+00 0.  1.
        -11    1    5    5    0    0  0.96541503213E+02 -0.63986498889E+02  0.10682815458E+03  0.15756518808E+03  0.00000000000E+00 0. -1.
          3    1    6    6  503    0  0.10409477261E+03  0.12407715321E+02  0.44298464556E+03  0.45521980327E+03  0.00000000000E+00 0. -1.
         -3    1    6    6    0  503  0.34808048793E+03 -0.13021281930E+03  0.16147318566E+04  0.16569473054E+04  0.00000000000E+00 0.  1.
<mgrwt>
<rscale>  0 0.64806271E+03</rscale>
<asrwt>0</asrwt>
<pdfrwt beam="1">  1        1 0.36702254E+00 0.64806271E+03</pdfrwt>
<pdfrwt beam="2">  1       -1 0.14311821E+00 0.64806271E+03</pdfrwt>
<totfact> 0.70388517E-01</totfact>
</mgrwt>
</event>
<event>
12    1  0.3203156E-008  0.1085946E+04  0.7818608E-02  0.9218999E-01
          1   -1    0    0  501    0  0.00000000000E+00  0.00000000000E+00  0.25741628137E+04  0.25741628137E+04  0.00000000000E+00 0. -1.
         -1   -1    0    0    0  501 -0.00000000000E+00 -0.00000000000E+00 -0.46742640337E+03  0.46742640337E+03  0.00000000000E+00 0.  1.
         23    2    1    2    0    0  0.71341118965E+02 -0.10090375496E+04  0.10419821050E+04  0.14551156350E+04  0.91588604079E+02 0.  0.
    5000000    2    1    2    0    0 -0.71341118965E+02  0.10090375496E+04  0.10647543053E+04  0.15864735821E+04  0.59995863542E+03 0.  0.
         23    2    4    4    0    0  0.24121729106E+03  0.48770548191E+03  0.40131494850E+03  0.68215604052E+03  0.90778616113E+02 0.  0.
         23    2    4    4    0    0 -0.31255841002E+03  0.52133206765E+03  0.66343935685E+03  0.90431754157E+03  0.90324699429E+02 0.  0.
          5    1    3    3  502    0  0.58078275542E+02 -0.75014943956E+03  0.82944076396E+03  0.11198621963E+04  0.47000000000E+01 0. -1.
         -5    1    3    3    0  502  0.13262843423E+02 -0.25888811001E+03  0.21254134107E+03  0.33525343873E+03  0.47000000000E+01 0.  1.
         11    1    5    5    0    0  0.20620974087E+03  0.32411493503E+03  0.28735079366E+03  0.47973266196E+03  0.00000000000E+00 0. -1.
        -11    1    5    5    0    0  0.35007550189E+02  0.16359054689E+03  0.11396415484E+03  0.20242337857E+03  0.00000000000E+00 0.  1.
          3    1    6    6  503    0 -0.11460782423E+03  0.16074279018E+03  0.15943865753E+03  0.25375949930E+03  0.00000000000E+00 0. -1.
         -3    1    6    6    0  503 -0.19795058579E+03  0.36058927748E+03  0.50400069932E+03  0.65055804227E+03  0.00000000000E+00 0.  1.
<mgrwt>
<rscale>  0 0.10859462E+04</rscale>
<asrwt>0</asrwt>
<pdfrwt beam="1">  1        1 0.39602504E+00 0.10859462E+04</pdfrwt>
<pdfrwt beam="2">  1       -1 0.71911755E-01 0.10859462E+04</pdfrwt>
<totfact> 0.23661424E+00</totfact>
</mgrwt>
</event>
<event>
12    1  0.3203156E-008  0.4804221E+03  0.7818608E-02  0.1019019E+00
          3   -1    0    0  501    0  0.00000000000E+00  0.00000000000E+00  0.31743586038E+03  0.31743586038E+03  0.00000000000E+00 0. -1.
         -3   -1    0    0    0  501 -0.00000000000E+00 -0.00000000000E+00 -0.12798192387E+04  0.12798192387E+04  0.00000000000E+00 0.  1.
         23    2    1    2    0    0  0.44122551603E+03 -0.42114862050E+02 -0.11211164639E+03  0.46612869407E+03  0.90847787959E+02 0.  0.
    5000000    2    1    2    0    0 -0.44122551603E+03  0.42114862050E+02 -0.85027173198E+03  0.11311264051E+04  0.60002608979E+03 0.  0.
         23    2    4    4    0    0 -0.11727075818E+03  0.11363818267E+03  0.26802314159E+02  0.18904386956E+03  0.91395586810E+02 0.  0.
         23    2    4    4    0    0 -0.32395475784E+03 -0.71523320617E+02 -0.87707404614E+03  0.94208253550E+03  0.90544744594E+02 0.  0.
          5    1    3    3  502    0  0.10818693352E+03  0.25555434578E+02 -0.43080513984E+02  0.11931267119E+03  0.47000000000E+01 0. -1.
         -5    1    3    3    0  502  0.33303858251E+03 -0.67670296628E+02 -0.69031132409E+02  0.34681602288E+03  0.47000000000E+01 0.  1.
         11    1    5    5    0    0 -0.10871332520E+03  0.90603548681E+02 -0.13161735461E+02  0.14212959365E+03  0.00000000000E+00 0. -1.
        -11    1    5    5    0    0 -0.85574329810E+01  0.23034633986E+02  0.39964049620E+02  0.46914275910E+02  0.00000000000E+00 0.  1.
          1    1    6    6  503    0 -0.12001573844E+03  0.17140247810E+02 -0.32775912000E+03  0.34946188105E+03  0.00000000000E+00 0. -1.
         -1    1    6    6    0  503 -0.20393901940E+03 -0.88663568427E+02 -0.54931492614E+03  0.59262065445E+03  0.00000000000E+00 0.  1.
<mgrwt>
<rscale>  0 0.48042208E+03</rscale>
<asrwt>0</asrwt>
<pdfrwt beam="1">  1        3 0.48836286E-01 0.48042208E+03</pdfrwt>
<pdfrwt beam="2">  1       -3 0.19689527E+00 0.48042208E+03</pdfrwt>
<totfact> 0.16912138E+00</totfact>
</mgrwt>
</event>
<event>
12    1  0.3203156E-008  0.9839220E+03  0.7818608E-02  0.9326357E-01
          2   -1    0    0  501    0  0.00000000000E+00  0.00000000000E+00  0.92069106146E+03  0.92069106146E+03  0.00000000000E+00 0.  1.
         -2   -1    0    0    0  501 -0.00000000000E+00 -0.00000000000E+00 -0.13608860453E+04  0.13608860453E+04  0.00000000000E+00 0. -1.
         23    2    1    2    0    0 -0.85200187112E+03  0.30375876507E+03  0.31208659493E+03  0.96097059695E+03  0.88824938688E+02 0.  0.
    5000000    2    1    2    0    0  0.85200187112E+03 -0.30375876507E+03 -0.75228157875E+03  0.13206065098E+04  0.59991449741E+03 0.  0.
         23    2    4    4    0    0  0.78379811842E+03 -0.40250817912E+02 -0.62034675545E+03  0.10046376033E+04  0.92233389546E+02 0.  0.
         23    2    4    4    0    0  0.68203752698E+02 -0.26350794716E+03 -0.13193482330E+03  0.31596890650E+03  0.91331058124E+02 0.  0.
          5    1    3    3  502    0 -0.49618955289E+03  0.14685894682E+03  0.14283584728E+03  0.53683870196E+03  0.47000000000E+01 0. -1.
         -5    1    3    3    0  502 -0.35581231823E+03  0.15689981825E+03  0.16925074765E+03  0.42413189499E+03  0.47000000000E+01 0.  1.
         13    1    5    5    0    0  0.39025871884E+03 -0.58035284963E+02 -0.27709001917E+03  0.48212948537E+03  0.00000000000E+00 0. -1.
        -13    1    5    5    0    0  0.39353939958E+03  0.17784467051E+02 -0.34325673628E+03  0.52250811792E+03  0.00000000000E+00 0.  1.
          1    1    6    6  503    0  0.31010851080E+02 -0.16003555520E+03 -0.29434196923E+02  0.16564849459E+03  0.00000000000E+00 0. -1.
         -1    1    6    6    0  503  0.37192901618E+02 -0.10347239196E+03 -0.10250062637E+03  0.15032041191E+03  0.00000000000E+00 0.  1.
<mgrwt>
<rscale>  0 0.98392202E+03</rscale>
<asrwt>0</asrwt>
<pdfrwt beam="1">  1        2 0.14164478E+00 0.98392202E+03</pdfrwt>
<pdfrwt beam="2">  1       -2 0.20936709E+00 0.98392202E+03</pdfrwt>
<totfact> 0.32648902E+00</totfact>
</mgrwt>
</event>
<event>
12    1  0.3203156E-008  0.6152296E+03  0.7818608E-02  0.9874304E-01
          1   -1    0    0  501    0  0.00000000000E+00  0.00000000000E+00  0.30417102650E+03  0.30417102650E+03  0.00000000000E+00 0. -1.
         -1   -1    0    0    0  501 -0.00000000000E+00 -0.00000000000E+00 -0.14064610051E+04  0.14064610051E+04  0.00000000000E+00 0.  1.
         23    2    1    2    0    0 -0.38946867833E+03  0.30497143251E+03 -0.61261400270E+03  0.79161759681E+03  0.81664418393E+02 0.  0.
    5000000    2    1    2    0    0  0.38946867833E+03 -0.30497143251E+03 -0.48967597588E+03  0.91901443477E+03  0.60009294606E+03 0.  0.
         23    2    4    4    0    0  0.37407464620E+03 -0.44844127432E+03 -0.29641878418E+03  0.66120180973E+03  0.91062177287E+02 0.  0.
         23    2    4    4    0    0  0.15394032135E+02  0.14346984180E+03 -0.19325719170E+03  0.25781262504E+03  0.91095750487E+02 0.  0.
          5    1    3    3  502    0 -0.91833228377E+02  0.35652314811E+02 -0.14460955548E+03  0.17503840413E+03  0.47000000000E+01 0. -1.
         -5    1    3    3    0  502 -0.29763544996E+03  0.26931911770E+03 -0.46800444722E+03  0.61657919268E+03  0.47000000000E+01 0.  1.
         11    1    5    5    0    0  0.30947466607E+03 -0.35030357032E+03 -0.19681321136E+03  0.50717117474E+03  0.00000000000E+00 0. -1.
        -11    1    5    5    0    0  0.64599980126E+02 -0.98137704000E+02 -0.99605572824E+02  0.15403063499E+03  0.00000000000E+00 0.  1.
          2    1    6    6  503    0  0.38724675901E+01  0.11052537104E+03 -0.72805606558E+02  0.13240660858E+03  0.00000000000E+00 0. -1.
         -2    1    6    6    0  503  0.11521564545E+02  0.32944470763E+02 -0.12045158514E+03  0.12540601647E+03  0.00000000000E+00 0.  1.
<mgrwt>
<rscale>  0 0.61522962E+03</rscale>
<asrwt>0</asrwt>
<pdfrwt beam="1">  1        1 0.46795543E-01 0.61522962E+03</pdfrwt>
<pdfrwt beam="2">  1       -1 0.21637861E+00 0.61522962E+03</pdfrwt>
<totfact> 0.10527549E+01</totfact>
</mgrwt>
</event>
<event>
12    1  0.3203156E-008  0.1328056E+04  0.7818608E-02  0.9007607E-01
         -1   -1    0    0    0  501 -0.00000000000E+00  0.00000000000E+00  0.20501849311E+04  0.20501849311E+04  0.00000000000E+00 0.  1.
          1   -1    0    0  501    0  0.00000000000E+00 -0.00000000000E+00 -0.23830520297E+04  0.23830520297E+04  0.00000000000E+00 0. -1.
         23    2    1    2    0    0  0.91383445457E+03  0.88944760348E+03 -0.19224929919E+04  0.23088508235E+04  0.92748971802E+02 0.  0.
    5000000    2    1    2    0    0 -0.91383445457E+03 -0.88944760348E+03  0.15896258933E+04  0.21243861373E+04  0.59991293525E+03 0.  0.
         23    2    4    4    0    0 -0.68665629717E+03 -0.91470562416E+03  0.14171185279E+04  0.18234312674E+04  0.92159729892E+02 0.  0.
         23    2    4    4    0    0 -0.22717815740E+03  0.25258020683E+02  0.17250736548E+03  0.30095486985E+03  0.92558952724E+02 0.  0.
          5    1    3    3  502    0  0.11275397430E+03  0.15243043731E+03 -0.30584882667E+03  0.35988066315E+03  0.47000000000E+01 0. -1.
         -5    1    3    3    0  502  0.80108048027E+03  0.73701716617E+03 -0.16166441652E+04  0.19489701604E+04  0.47000000000E+01 0.  1.
         13    1    5    5    0    0 -0.11355673313E+03 -0.20692803677E+03  0.31827208836E+03  0.39624672399E+03  0.00000000000E+00 0. -1.
        -13    1    5    5    0    0 -0.57309956404E+03 -0.70777758740E+03  0.10988464395E+04  0.14271845435E+04  0.00000000000E+00 0.  1.
          4    1    6    6  503    0 -0.43047423171E+02  0.18620475230E+02  0.84772632220E+02  0.96882412815E+02  0.00000000000E+00 0. -1.
         -4    1    6    6    0  503 -0.18413073423E+03  0.66375454522E+01  0.87734733262E+02  0.20407245703E+03  0.00000000000E+00 0.  1.
<mgrwt>
<rscale>  0 0.13280563E+04</rscale>
<asrwt>0</asrwt>
<pdfrwt beam="1">  1        1 0.36662339E+00 0.13280563E+04</pdfrwt>
<pdfrwt beam="2">  1       -1 0.31541307E+00 0.13280563E+04</pdfrwt>
<totfact> 0.41442114E-02</totfact>
</mgrwt>
</event>
<event>
12    1  0.3203156E-008  0.5628982E+03  0.7818608E-02  0.9985518E-01
         -1   -1    0    0    0  501 -0.00000000000E+00  0.00000000000E+00  0.88641277890E+03  0.88641277890E+03  0.00000000000E+00 0. -1.
          1   -1    0    0  501    0  0.00000000000E+00 -0.00000000000E+00 -0.43526096667E+03  0.43526096667E+03  0.00000000000E+00 0.  1.
         23    2    1    2    0    0 -0.33470653006E+03 -0.22855245240E+03  0.42919308766E+03  0.59717735788E+03  0.90274057761E+02 0.  0.
    5000000    2    1    2    0    0  0.33470653006E+03  0.22855245240E+03  0.21958724570E+02  0.72449638769E+03  0.60012344183E+03 0.  0.
         23    2    4    4    0    0  0.33410159934E+03 -0.11749478250E+03  0.27797265006E+02  0.36667011602E+03  0.90804093733E+02 0.  0.
         23    2    4    4    0    0  0.60493071372E+00  0.34604723490E+03 -0.58385404355E+01  0.35782627167E+03  0.90865270712E+02 0.  0.
          5    1    3    3  502    0 -0.90954141443E+02 -0.10562861886E+03  0.17834514524E+03  0.22640481841E+03  0.47000000000E+01 0. -1.
         -5    1    3    3    0  502 -0.24375238861E+03 -0.12292383354E+03  0.25084794242E+03  0.37077253947E+03  0.47000000000E+01 0.  1.
         13    1    5    5    0    0  0.23537649275E+03 -0.66099288654E+02 -0.20503033459E+02  0.24533973115E+03  0.00000000000E+00 0.  1.
        -13    1    5    5    0    0  0.98725106589E+02 -0.51395493850E+02  0.48300298465E+02  0.12133038486E+03  0.00000000000E+00 0. -1.
          2    1    6    6  503    0 -0.32382567400E+02  0.49626734446E+02  0.42087418694E+01  0.59406707965E+02  0.00000000000E+00 0. -1.
         -2    1    6    6    0  503  0.32987498114E+02  0.29642050045E+03 -0.10047282305E+02  0.29841956371E+03  0.00000000000E+00 0.  1.
<mgrwt>
<rscale>  0 0.56289818E+03</rscale>
<asrwt>0</asrwt>
<pdfrwt beam="1">  1        1 0.66963226E-01 0.56289818E+03</pdfrwt>
<pdfrwt beam="2">  1       -1 0.13637120E+00 0.56289818E+03</pdfrwt>
<totfact> 0.25169581E+01</totfact>
</mgrwt>
</event>
<event>
12    1  0.3203156E-008  0.4605494E+03  0.7818608E-02  0.1024622E+00
         -1   -1    0    0    0  501 -0.00000000000E+00  0.00000000000E+00  0.21265686887E+03  0.21265686887E+03  0.00000000000E+00 0.  1.
          1   -1    0    0  501    0  0.00000000000E+00 -0.00000000000E+00 -0.16423059936E+04  0.16423059936E+04  0.00000000000E+00 0. -1.
         23    2    1    2    0    0 -0.16525577009E+03 -0.22033936089E+03 -0.10591756641E+04  0.10979143043E+04  0.87771457584E+02 0.  0.
    5000000    2    1    2    0    0  0.16525577009E+03  0.22033936089E+03 -0.37047346069E+03  0.75704855818E+03  0.60001085896E+03 0.  0.
         23    2    4    4    0    0  0.32583191305E+03  0.29387170501E+03 -0.18273826276E+03  0.48380693420E+03  0.90271049243E+02 0.  0.
         23    2    4    4    0    0 -0.16057614297E+03 -0.73532344126E+02 -0.18773519793E+03  0.27324162398E+03  0.90690557458E+02 0.  0.
          5    1    3    3  502    0 -0.75742920439E+02 -0.53888427488E+02 -0.47080483888E+03  0.47991690835E+03  0.47000000000E+01 0. -1.
         -5    1    3    3    0  502 -0.89512849646E+02 -0.16645093340E+03 -0.58837082521E+03  0.61799739598E+03  0.47000000000E+01 0.  1.
         13    1    5    5    0    0  0.22304422670E+03  0.14148521822E+03 -0.11012546975E+03  0.28617199920E+03  0.00000000000E+00 0.  1.
        -13    1    5    5    0    0  0.10278768635E+03  0.15238648680E+03 -0.72612793006E+02  0.19763493500E+03  0.00000000000E+00 0. -1.
          3    1    6    6  503    0 -0.65623472200E+02  0.76905491481E+01 -0.31534567884E+02  0.73212113898E+02  0.00000000000E+00 0. -1.
         -3    1    6    6    0  503 -0.94952670765E+02 -0.81222893274E+02 -0.15620063005E+03  0.20002951009E+03  0.00000000000E+00 0.  1.
<mgrwt>
<rscale>  0 0.46054937E+03</rscale>
<asrwt>0</asrwt>
<pdfrwt beam="1">  1        1 0.25266246E+00 0.46054937E+03</pdfrwt>
<pdfrwt beam="2">  1       -1 0.32716442E-01 0.46054937E+03</pdfrwt>
<totfact> 0.49052910E+01</totfact>
</mgrwt>
</event>
<event>
12    1  0.3203156E-008  0.7216299E+03  0.7818608E-02  0.9680941E-01
          2   -1    0    0  501    0  0.00000000000E+00  0.00000000000E+00  0.22399126631E+04  0.22399126631E+04  0.00000000000E+00 0. -1.
         -2   -1    0    0    0  501 -0.00000000000E+00 -0.00000000000E+00 -0.33116207130E+03  0.33116207130E+03  0.00000000000E+00 0.  1.
         23    2    1    2    0    0  0.27900579023E+03  0.54378947962E+03  0.18308671522E+03  0.64450480139E+03  0.91183686035E+02 0.  0.
    5000000    2    1    2    0    0 -0.27900579023E+03 -0.54378947962E+03  0.17256638766E+04  0.19265699330E+04  0.60017052802E+03 0.  0.
         23    2    4    4    0    0 -0.32719067927E+03 -0.63040632723E+03  0.13647008574E+04  0.15410740539E+04  0.89637778435E+02 0.  0.
         23    2    4    4    0    0  0.48184889042E+02  0.86616847607E+02  0.36096301917E+03  0.38549587913E+03  0.92133109100E+02 0.  0.
          5    1    3    3  502    0  0.21669854663E+03  0.32837466577E+03  0.12446852268E+03  0.41267745804E+03  0.47000000000E+01 0. -1.
         -5    1    3    3    0  502  0.62307243597E+02  0.21541481385E+03  0.58618192538E+02  0.23182734336E+03  0.47000000000E+01 0. -1.
         11    1    5    5    0    0 -0.13554561340E+03 -0.20940214325E+03  0.55676056218E+03  0.61008539935E+03  0.00000000000E+00 0. -1.
        -11    1    5    5    0    0 -0.19164506587E+03 -0.42100418398E+03  0.80794029526E+03  0.93098865456E+03  0.00000000000E+00 0.  1.
          2    1    6    6  503    0  0.40870568966E+02  0.18293036960E+02  0.25703287205E+03  0.26090407417E+03  0.00000000000E+00 0. -1.
         -2    1    6    6    0  503  0.73143200761E+01  0.68323810647E+02  0.10393014713E+03  0.12459180495E+03  0.00000000000E+00 0.  1.
<mgrwt>
<rscale>  0 0.72162993E+03</rscale>
<asrwt>0</asrwt>
<pdfrwt beam="1">  1        2 0.34460194E+00 0.72162993E+03</pdfrwt>
<pdfrwt beam="2">  1       -2 0.50948012E-01 0.72162993E+03</pdfrwt>
<totfact> 0.18642770E+01</totfact>
</mgrwt>
</event>
<event>
12    1  0.3203156E-008  0.8331828E+03  0.7818608E-02  0.9513191E-01
         -2   -1    0    0    0  501 -0.00000000000E+00  0.00000000000E+00  0.19017213781E+04  0.19017213781E+04  0.00000000000E+00 0.  1.
          2   -1    0    0  501    0  0.00000000000E+00 -0.00000000000E+00 -0.39619201028E+03  0.39619201028E+03  0.00000000000E+00 0. -1.
         23    2    1    2    0    0 -0.56093341167E+03 -0.49772293394E+03  0.83843891464E+03  0.11286021481E+04  0.91589211776E+02 0.  0.
    5000000    2    1    2    0    0  0.56093341167E+03  0.49772293394E+03  0.66709045318E+03  0.11693112403E+04  0.59992057200E+03 0.  0.
         23    2    4    4    0    0  0.45362964976E+03  0.68457868836E+02  0.17148243585E+03  0.49867892516E+03  0.93851508493E+02 0.  0.
         23    2    4    4    0    0  0.10730376191E+03  0.42926506510E+03  0.49560801732E+03  0.67063231516E+03  0.91311564777E+02 0.  0.
          5    1    3    3  502    0 -0.20180957943E+03 -0.13134006421E+03  0.23424026710E+03  0.33595819910E+03  0.47000000000E+01 0. -1.
         -5    1    3    3    0  502 -0.35912383224E+03 -0.36638286972E+03  0.60419864755E+03  0.79264394895E+03  0.47000000000E+01 0.  1.
         11    1    5    5    0    0  0.23754580223E+03  0.67968511398E+02  0.54718762361E+02  0.25306495145E+03  0.00000000000E+00 0. -1.
        -11    1    5    5    0    0  0.21608384753E+03  0.48935743718E+00  0.11676367349E+03  0.24561397371E+03  0.00000000000E+00 0.  1.
          3    1    6    6  503    0  0.38040273249E+02  0.45307604111E+02  0.43362491193E+02  0.73349485490E+02  0.00000000000E+00 0. -1.
         -3    1    6    6    0  503  0.69263488666E+02  0.38395746099E+03  0.45224552613E+03  0.59728282967E+03  0.00000000000E+00 0.  1.
<mgrwt>
<rscale>  0 0.83318281E+03</rscale>
<asrwt>0</asrwt>
<pdfrwt beam="1">  1        2 0.60952618E-01 0.83318281E+03</pdfrwt>
<pdfrwt beam="2">  1       -2 0.29257251E+00 0.83318281E+03</pdfrwt>
<totfact> 0.29134025E+00</totfact>
</mgrwt>
</event>
<event>
12    1  0.3203156E-008  0.6567708E+03  0.7818608E-02  0.9794156E-01
          1   -1    0    0  501    0  0.00000000000E+00  0.00000000000E+00  0.16368721506E+04  0.16368721506E+04  0.00000000000E+00 0. -1.
         -1   -1    0    0    0  501 -0.00000000000E+00 -0.00000000000E+00 -0.36881064085E+03  0.36881064085E+03  0.00000000000E+00 0.  1.
         23    2    1    2    0    0  0.25925485174E+03  0.46607608988E+03  0.10381900216E+04  0.11706392820E+04  0.90098878138E+02 0.  0.
    5000000    2    1    2    0    0 -0.25925485174E+03 -0.46607608988E+03  0.22987148813E+03  0.83504350946E+03  0.60001396811E+03 0.  0.
         23    2    4    4    0    0 -0.35805661225E+02 -0.52078750676E+03  0.25250350239E+03  0.58702254048E+03  0.91300447654E+02 0.  0.
         23    2    4    4    0    0 -0.22344919051E+03  0.54711416874E+02 -0.22632014264E+02  0.24802096898E+03  0.89884999351E+02 0.  0.
          5    1    3    3  502    0  0.20379105037E+03  0.40911934540E+03  0.82668018796E+03  0.94463307911E+03  0.47000000000E+01 0. -1.
         -5    1    3    3    0  502  0.55463801365E+02  0.56956744479E+02  0.21150983365E+03  0.22600620287E+03  0.47000000000E+01 0.  1.
         11    1    5    5    0    0  0.31045690319E+02 -0.17915200427E+03  0.85542010444E+02  0.20093957069E+03  0.00000000000E+00 0.  1.
        -11    1    5    5    0    0 -0.66851351544E+02 -0.34163550249E+03  0.16696149195E+03  0.38608296978E+03  0.00000000000E+00 0. -1.
          1    1    6    6  503    0 -0.21332341474E+02  0.38618699092E+02 -0.68988049158E+01  0.44654968611E+02  0.00000000000E+00 0. -1.
         -1    1    6    6    0  503 -0.20211684904E+03  0.16092717782E+02 -0.15733209348E+02  0.20336600037E+03  0.00000000000E+00 0.  1.
<mgrwt>
<rscale>  0 0.65677084E+03</rscale>
<asrwt>0</asrwt>
<pdfrwt beam="1">  1        1 0.25182648E+00 0.65677084E+03</pdfrwt>
<pdfrwt beam="2">  1       -1 0.56740099E-01 0.65677084E+03</pdfrwt>
<totfact> 0.17407542E+01</totfact>
</mgrwt>
</event>
<event>
12    1  0.3203156E-008  0.9697317E+03  0.7818608E-02  0.9342380E-01
          2   -1    0    0  501    0  0.00000000000E+00  0.00000000000E+00  0.35805403058E+04  0.35805403058E+04  0.00000000000E+00 0. -1.
         -2   -1    0    0    0  501 -0.00000000000E+00 -0.00000000000E+00 -0.31097427249E+03  0.31097427249E+03  0.00000000000E+00 0.  1.
         23    2    1    2    0    0  0.96405986372E+03  0.43099997990E+02  0.13732540391E+04  0.16808266262E+04  0.89902506256E+02 0.  0.
    5000000    2    1    2    0    0 -0.96405986372E+03 -0.43099997990E+02  0.18963119942E+04  0.22106879521E+04  0.59989416704E+03 0.  0.
         23    2    4    4    0    0 -0.23385212761E+03 -0.50858725726E+02  0.11301620984E+03  0.28145340056E+03  0.95759727591E+02 0.  0.
         23    2    4    4    0    0 -0.73020773611E+03  0.77587277359E+01  0.17832957843E+04  0.19292345516E+04  0.92404354375E+02 0.  0.
          5    1    3    3  502    0  0.83589085672E+03  0.21405984492E+02  0.11404859921E+04  0.14141789592E+04  0.47000000000E+01 0. -1.
         -5    1    3    3    0  502  0.12816900700E+03  0.21694013498E+02  0.23276804708E+03  0.26664766700E+03  0.47000000000E+01 0.  1.
         13    1    5    5    0    0 -0.11739172827E+03 -0.43184866435E+02  0.94909547139E+01  0.12544253177E+03  0.00000000000E+00 0. -1.
        -13    1    5    5    0    0 -0.11646039934E+03 -0.76738592909E+01  0.10352525513E+03  0.15601086879E+03  0.00000000000E+00 0.  1.
          4    1    6    6  503    0 -0.39960106907E+03 -0.16284270569E+02  0.10819409233E+04  0.11534913755E+04  0.00000000000E+00 0. -1.
         -4    1    6    6    0  503 -0.33060666704E+03  0.24042998305E+02  0.70135486102E+03  0.77574317602E+03  0.00000000000E+00 0.  1.
<mgrwt>
<rscale>  0 0.96973174E+03</rscale>
<asrwt>0</asrwt>
<pdfrwt beam="1">  1        2 0.55085233E+00 0.96973174E+03</pdfrwt>
<pdfrwt beam="2">  1       -2 0.47842198E-01 0.96973174E+03</pdfrwt>
<totfact> 0.30839011E+00</totfact>
</mgrwt>
</event>
<event>
12    1  0.3203156E-008  0.4647804E+03  0.7818608E-02  0.1023404E+00
         -2   -1    0    0    0  501 -0.00000000000E+00  0.00000000000E+00  0.10483479971E+03  0.10483479971E+03  0.00000000000E+00 0.  1.
          2   -1    0    0  501    0  0.00000000000E+00 -0.00000000000E+00 -0.32950583686E+04  0.32950583686E+04  0.00000000000E+00 0. -1.
         23    2    1    2    0    0  0.27293741699E+03  0.42981750791E+02 -0.24229213537E+03  0.37886572599E+03  0.92149308042E+02 0.  0.
    5000000    2    1    2    0    0 -0.27293741699E+03 -0.42981750791E+02 -0.29479314336E+04  0.30210274424E+04  0.59997067095E+03 0.  0.
         23    2    4    4    0    0 -0.25445775910E+03  0.24025737689E+03 -0.15810655296E+04  0.16219274845E+04  0.91696225029E+02 0.  0.
         23    2    4    4    0    0 -0.18479657884E+02 -0.28323912768E+03 -0.13668659040E+04  0.13990999579E+04  0.92695153766E+02 0.  0.
          5    1    3    3  502    0  0.16929465839E+03  0.74687825998E+01 -0.19784829143E+03  0.26054270378E+03  0.47000000000E+01 0. -1.
         -5    1    3    3    0  502  0.10364275860E+03  0.35512968191E+02 -0.44443843945E+02  0.11832302221E+03  0.47000000000E+01 0.  1.
         13    1    5    5    0    0 -0.18124040109E+03  0.13771932193E+03 -0.84333697983E+03  0.87351700393E+03  0.00000000000E+00 0. -1.
        -13    1    5    5    0    0 -0.73217358011E+02  0.10253805496E+03 -0.73772854978E+03  0.74841048055E+03  0.00000000000E+00 0.  1.
          3    1    6    6  503    0 -0.35230197762E+02 -0.27643981157E+03 -0.13140786016E+04  0.13433029098E+04  0.00000000000E+00 0. -1.
         -3    1    6    6    0  503  0.16750539878E+02 -0.67993161051E+01 -0.52787302364E+02  0.55797048099E+02  0.00000000000E+00 0.  1.
<mgrwt>
<rscale>  0 0.46478041E+03</rscale>
<asrwt>0</asrwt>
<pdfrwt beam="1">  1        2 0.50693194E+00 0.46478041E+03</pdfrwt>
<pdfrwt beam="2">  1       -2 0.16128435E-01 0.46478041E+03</pdfrwt>
<totfact> 0.39274907E+01</totfact>
</mgrwt>
</event>
<event>
12    1  0.3203156E-008  0.1062389E+04  0.7818608E-02  0.9242646E-01
          1   -1    0    0  501    0  0.00000000000E+00  0.00000000000E+00  0.23223225632E+04  0.23223225632E+04  0.00000000000E+00 0. -1.
         -1   -1    0    0    0  501 -0.00000000000E+00 -0.00000000000E+00 -0.60522183744E+03  0.60522183744E+03  0.00000000000E+00 0.  1.
         23    2    1    2    0    0  0.76190449391E+03  0.61835087418E+03  0.16984541207E+03  0.99982295363E+03  0.89119095488E+02 0.  0.
    5000000    2    1    2    0    0 -0.76190449391E+03 -0.61835087418E+03  0.15472553137E+04  0.19277214470E+04  0.59937860329E+03 0.  0.
         23    2    4    4    0    0 -0.60849871343E+03 -0.12950735587E+03  0.81993032770E+03  0.10334101309E+04  0.92778859761E+02 0.  0.
         23    2    4    4    0    0 -0.15340578047E+03 -0.48884351831E+03  0.72732498596E+03  0.89431131612E+03  0.91048207329E+02 0.  0.
          5    1    3    3  502    0  0.43463873108E+03  0.40786509183E+03  0.10945395443E+03  0.60602559173E+03  0.47000000000E+01 0. -1.
         -5    1    3    3    0  502  0.32726576282E+03  0.21048578235E+03  0.60391457640E+02  0.39379736190E+03  0.47000000000E+01 0.  1.
         13    1    5    5    0    0 -0.36734581974E+03 -0.11732501392E+03  0.46436910142E+03  0.60361144168E+03  0.00000000000E+00 0. -1.
        -13    1    5    5    0    0 -0.24115289369E+03 -0.12182341944E+02  0.35556122628E+03  0.42979868918E+03  0.00000000000E+00 0.  1.
          3    1    6    6  503    0 -0.11174749128E+03 -0.33747095698E+03  0.42859480739E+03  0.55683719123E+03  0.00000000000E+00 0. -1.
         -3    1    6    6    0  503 -0.41658289190E+02 -0.15137256133E+03  0.29873017856E+03  0.33747412488E+03  0.00000000000E+00 0.  1.
<mgrwt>
<rscale>  0 0.10623887E+04</rscale>
<asrwt>0</asrwt>
<pdfrwt beam="1">  1        1 0.35728039E+00 0.10623887E+04</pdfrwt>
<pdfrwt beam="2">  1       -1 0.93111053E-01 0.10623887E+04</pdfrwt>
<totfact> 0.20261246E+00</totfact>
</mgrwt>
</event>
<event>
12    1  0.3203156E-008  0.5032054E+03  0.7818608E-02  0.1012946E+00
          1   -1    0    0  501    0  0.00000000000E+00  0.00000000000E+00  0.88835605130E+03  0.88835605130E+03  0.00000000000E+00 0. -1.
         -1   -1    0    0    0  501 -0.00000000000E+00 -0.00000000000E+00 -0.36685666738E+03  0.36685666738E+03  0.00000000000E+00 0.  1.
         23    2    1    2    0    0  0.20153240450E+03 -0.34477628620E+03  0.10728656543E+03  0.42390535652E+03  0.93270287745E+02 0.  0.
    5000000    2    1    2    0    0 -0.20153240450E+03  0.34477628620E+03  0.41421281849E+03  0.83130736216E+03  0.60001139472E+03 0.  0.
         23    2    4    4    0    0  0.14048900930E+03  0.10037538220E+03 -0.46467821588E+02  0.20117726340E+03  0.92198990128E+02 0.  0.
         23    2    4    4    0    0 -0.34202141380E+03  0.24440090400E+03  0.46068064008E+03  0.63013009876E+03  0.90148986949E+02 0.  0.
          5    1    3    3  502    0  0.17594898203E+03 -0.29492026943E+03  0.56370053306E+02  0.34804551787E+03  0.47000000000E+01 0. -1.
         -5    1    3    3    0  502  0.25583422474E+02 -0.49856016772E+02  0.50916512129E+02  0.75859838658E+02  0.47000000000E+01 0.  1.
         11    1    5    5    0    0  0.72262053789E+02  0.99768033034E+01  0.11663703975E+02  0.73874102447E+02  0.00000000000E+00 0. -1.
        -11    1    5    5    0    0  0.68226955509E+02  0.90398578893E+02 -0.58131525563E+02  0.12730316095E+03  0.00000000000E+00 0.  1.
          2    1    6    6  503    0 -0.18187354006E+03  0.12296635138E+03  0.30553989708E+03  0.37623574638E+03  0.00000000000E+00 0. -1.
         -2    1    6    6    0  503 -0.16014787374E+03  0.12143455262E+03  0.15514074299E+03  0.25389435238E+03  0.00000000000E+00 0.  1.
<mgrwt>
<rscale>  0 0.50320544E+03</rscale>
<asrwt>0</asrwt>
<pdfrwt beam="1">  1        1 0.13667016E+00 0.50320544E+03</pdfrwt>
<pdfrwt beam="2">  1       -1 0.56439488E-01 0.50320544E+03</pdfrwt>
<totfact> 0.62074339E+01</totfact>
</mgrwt>
</event>
<event>
12    1  0.3203156E-008  0.7086342E+03  0.7818608E-02  0.9702580E-01
         -2   -1    0    0    0  501 -0.00000000000E+00  0.00000000000E+00  0.42710845565E+03  0.42710845565E+03  0.00000000000E+00 0.  1.
          2   -1    0    0  501    0  0.00000000000E+00 -0.00000000000E+00 -0.13895808410E+04  0.13895808410E+04  0.00000000000E+00 0. -1.
         23    2    1    2    0    0  0.60670976223E+03  0.15941004934E+03 -0.20973068384E+03  0.66772798242E+03  0.91462557112E+02 0.  0.
    5000000    2    1    2    0    0 -0.60670976223E+03 -0.15941004934E+03 -0.75274170154E+03  0.11489613143E+04  0.59998644402E+03 0.  0.
         23    2    4    4    0    0 -0.30718987816E+02  0.11525962544E+03  0.76301890606E+01  0.15223925356E+03  0.94287502190E+02 0.  0.
         23    2    4    4    0    0 -0.57599077441E+03 -0.27466967479E+03 -0.76037189060E+03  0.99672206070E+03  0.89892445827E+02 0.  0.
          5    1    3    3  502    0  0.29099201359E+03  0.11743092431E+03 -0.80567960041E+02  0.32400564832E+03  0.47000000000E+01 0. -1.
         -5    1    3    3    0  502  0.31571774864E+03  0.41979125034E+02 -0.12916272379E+03  0.34372233411E+03  0.47000000000E+01 0.  1.
         11    1    5    5    0    0  0.28481886953E+02  0.29095504442E+02 -0.18130963285E+02  0.44570148001E+02  0.00000000000E+00 0.  1.
        -11    1    5    5    0    0 -0.59200874769E+02  0.86164121001E+02  0.25761152346E+02  0.10766910556E+03  0.00000000000E+00 0. -1.
          1    1    6    6  503    0 -0.51392033143E+03 -0.25965396501E+03 -0.64316764067E+03  0.86324903858E+03  0.00000000000E+00 0. -1.
         -1    1    6    6    0  503 -0.62070442979E+02 -0.15015709774E+02 -0.11720424994E+03  0.13347302212E+03  0.00000000000E+00 0.  1.
<mgrwt>
<rscale>  0 0.70863416E+03</rscale>
<asrwt>0</asrwt>
<pdfrwt beam="1">  1        2 0.21378167E+00 0.70863416E+03</pdfrwt>
<pdfrwt beam="2">  1       -2 0.65708993E-01 0.70863416E+03</pdfrwt>
<totfact> 0.32106411E+01</totfact>
</mgrwt>
</event>
<event>
12    1  0.3203156E-008  0.1502625E+04  0.7818608E-02  0.8882709E-01
          2   -1    0    0  501    0  0.00000000000E+00  0.00000000000E+00  0.17286552934E+04  0.17286552934E+04  0.00000000000E+00 0. -1.
         -2   -1    0    0    0  501 -0.00000000000E+00 -0.00000000000E+00 -0.15488413212E+04  0.15488413212E+04  0.00000000000E+00 0.  1.
         23    2    1    2    0    0  0.69869530542E+03 -0.13037039396E+04 -0.47023141241E+03  0.15540274700E+04  0.77876211645E+02 0.  0.
    5000000    2    1    2    0    0 -0.69869530542E+03  0.13037039396E+04  0.65004538465E+03  0.17234691447E+04  0.59997316500E+03 0.  0.
         23    2    4    4    0    0 -0.69845047137E+03  0.11619413242E+04  0.39282189611E+03  0.14142584499E+04  0.88753700134E+02 0.  0.
         23    2    4    4    0    0 -0.24483404792E+00  0.14176261538E+03  0.25722348854E+03  0.30921069477E+03  0.96698664104E+02 0.  0.
          5    1    3    3  502    0  0.28207490122E+03 -0.47363501554E+03 -0.14601517009E+03  0.57029720124E+03  0.47000000000E+01 0. -1.
         -5    1    3    3    0  502  0.41662040420E+03 -0.83006892402E+03 -0.32421624232E+03  0.98373026872E+03  0.47000000000E+01 0.  1.
         11    1    5    5    0    0 -0.65347042440E+02  0.14754076471E+03  0.68500449215E+02  0.17530209568E+03  0.00000000000E+00 0. -1.
        -11    1    5    5    0    0 -0.63310342893E+03  0.10144005595E+04  0.32432144689E+03  0.12389563542E+04  0.00000000000E+00 0.  1.
          4    1    6    6  503    0  0.35052081218E+02  0.18051998390E+02  0.36478780278E+02  0.53714285383E+02  0.00000000000E+00 0. -1.
         -4    1    6    6    0  503 -0.35296915266E+02  0.12371061699E+03  0.22074470826E+03  0.25549640939E+03  0.00000000000E+00 0.  1.
<mgrwt>
<rscale>  0 0.15026247E+04</rscale>
<asrwt>0</asrwt>
<pdfrwt beam="1">  1        2 0.26594697E+00 0.15026247E+04</pdfrwt>
<pdfrwt beam="2">  1       -2 0.23828328E+00 0.15026247E+04</pdfrwt>
<totfact> 0.67359539E-01</totfact>
</mgrwt>
</event>
<event>
12    1  0.3203156E-008  0.4473349E+03  0.7818608E-02  0.1028520E+00
          1   -1    0    0  501    0  0.00000000000E+00  0.00000000000E+00  0.61264449192E+03  0.61264449192E+03  0.00000000000E+00 0. -1.
         -1   -1    0    0    0  501 -0.00000000000E+00 -0.00000000000E+00 -0.16779126813E+04  0.16779126813E+04  0.00000000000E+00 0.  1.
         23    2    1    2    0    0  0.29253883008E+03  0.23461355370E+03  0.46578247127E+03  0.60384916926E+03  0.84012034815E+02 0.  0.
    5000000    2    1    2    0    0 -0.29253883008E+03 -0.23461355370E+03 -0.15310506607E+04  0.16867080040E+04  0.60020436390E+03 0.  0.
         23    2    4    4    0    0 -0.32927272456E+03 -0.29016033813E+03 -0.15051691832E+04  0.15709223032E+04  0.98229647771E+02 0.  0.
         23    2    4    4    0    0  0.36733894474E+02  0.55546784426E+02 -0.25881477505E+02  0.11578570080E+03  0.91113409378E+02 0.  0.
          5    1    3    3  502    0  0.89070712125E+02  0.26610579778E+02  0.12141515927E+03  0.15298838392E+03  0.47000000000E+01 0. -1.
         -5    1    3    3    0  502  0.20346811796E+03  0.20800297392E+03  0.34436731200E+03  0.45086078534E+03  0.47000000000E+01 0.  1.
         13    1    5    5    0    0 -0.98445188187E+02 -0.93282468014E+02 -0.32030452445E+03  0.34783338296E+03  0.00000000000E+00 0. -1.
        -13    1    5    5    0    0 -0.23082753637E+03 -0.19687787011E+03 -0.11848646587E+04  0.12230889202E+04  0.00000000000E+00 0.  1.
          3    1    6    6  503    0  0.15111237375E+02  0.45093247659E+02  0.29122996086E+02  0.55766471831E+02  0.00000000000E+00 0. -1.
         -3    1    6    6    0  503  0.21622657099E+02  0.10453536767E+02 -0.55004473591E+02  0.60019228969E+02  0.00000000000E+00 0.  1.
<mgrwt>
<rscale>  0 0.44733488E+03</rscale>
<asrwt>0</asrwt>
<pdfrwt beam="1">  1        1 0.94253000E-01 0.44733488E+03</pdfrwt>
<pdfrwt beam="2">  1       -1 0.25814041E+00 0.44733488E+03</pdfrwt>
<totfact> 0.22928083E+00</totfact>
</mgrwt>
</event>
<event>
12    1  0.3203156E-008  0.8144970E+03  0.7818608E-02  0.9539267E-01
         -2   -1    0    0    0  501 -0.00000000000E+00  0.00000000000E+00  0.43369288081E+03  0.43369288081E+03  0.00000000000E+00 0.  1.
          2   -1    0    0  501    0  0.00000000000E+00 -0.00000000000E+00 -0.35213496145E+04  0.35213496145E+04  0.00000000000E+00 0. -1.
         23    2    1    2    0    0  0.75681049957E+03 -0.12360546417E+03 -0.60097939062E+02  0.77475979592E+03  0.92739075193E+02 0.  0.
    5000000    2    1    2    0    0 -0.75681049957E+03  0.12360546417E+03 -0.30275587946E+04  0.31802826994E+04  0.60003779056E+03 0.  0.
         23    2    4    4    0    0 -0.30944778075E+03  0.24262561199E+03 -0.72597161688E+03  0.83083813479E+03  0.92909101221E+02 0.  0.
         23    2    4    4    0    0 -0.44736271882E+03 -0.11902014782E+03 -0.23015871777E+04  0.23494445646E+04  0.91033112768E+02 0.  0.
          5    1    3    3  502    0  0.27805840905E+03 -0.44471952639E+01 -0.39750511949E+02  0.28095987185E+03  0.47000000000E+01 0.  1.
         -5    1    3    3    0  502  0.47875209052E+03 -0.11915826890E+03 -0.20347427113E+02  0.49379992407E+03  0.47000000000E+01 0. -1.
         11    1    5    5    0    0 -0.28539179281E+03  0.22511391096E+03 -0.70858034743E+03  0.79637356629E+03  0.00000000000E+00 0.  1.
        -11    1    5    5    0    0 -0.24055987944E+02  0.17511701029E+02 -0.17391269451E+02  0.34464568502E+02  0.00000000000E+00 0. -1.
          4    1    6    6  503    0 -0.20349503025E+03 -0.72130840778E+02 -0.86405375158E+03  0.89061886974E+03  0.00000000000E+00 0. -1.
         -4    1    6    6    0  503 -0.24386768857E+03 -0.46889307046E+02 -0.14375334261E+04  0.14588256948E+04  0.00000000000E+00 0.  1.
<mgrwt>
<rscale>  0 0.81449697E+03</rscale>
<asrwt>0</asrwt>
<pdfrwt beam="1">  1        2 0.54174611E+00 0.81449697E+03</pdfrwt>
<pdfrwt beam="2">  1       -2 0.66721980E-01 0.81449697E+03</pdfrwt>
<totfact> 0.17395566E+00</totfact>
</mgrwt>
</event>
<event>
12    1  0.3203156E-008  0.3661009E+03  0.7818608E-02  0.1056194E+00
         -2   -1    0    0    0  501 -0.00000000000E+00  0.00000000000E+00  0.14366641253E+03  0.14366641253E+03  0.00000000000E+00 0.  1.
          2   -1    0    0  501    0  0.00000000000E+00 -0.00000000000E+00 -0.18811250434E+04  0.18811250434E+04  0.00000000000E+00 0. -1.
         23    2    1    2    0    0 -0.25708629636E+03  0.10362311592E+03 -0.20581810137E+03  0.35665243893E+03  0.89491661165E+02 0.  0.
    5000000    2    1    2    0    0  0.25708629636E+03 -0.10362311592E+03 -0.15316405295E+04  0.16681390170E+04  0.59994495957E+03 0.  0.
         23    2    4    4    0    0  0.95375480137E+01 -0.16969778239E+03 -0.11461569819E+03  0.22527918031E+03  0.93411180480E+02 0.  0.
         23    2    4    4    0    0  0.24754874834E+03  0.66074666473E+02 -0.14170248313E+04  0.14428598367E+04  0.90768339455E+02 0.  0.
          5    1    3    3  502    0 -0.18721511792E+03  0.86615995192E+02 -0.19477797023E+03  0.28374703291E+03  0.47000000000E+01 0. -1.
         -5    1    3    3    0  502 -0.69871178434E+02  0.17007120726E+02 -0.11040131144E+02  0.72905406019E+02  0.47000000000E+01 0.  1.
         11    1    5    5    0    0 -0.42171120813E+02 -0.74788005534E+02 -0.51380269090E+02  0.10005788951E+03  0.00000000000E+00 0. -1.
        -11    1    5    5    0    0  0.51708668826E+02 -0.94909776857E+02 -0.63235429100E+02  0.12522129079E+03  0.00000000000E+00 0.  1.
          1    1    6    6  503    0  0.81725059481E+02  0.43285286720E+02 -0.72527509954E+03  0.73114743480E+03  0.00000000000E+00 0. -1.
         -1    1    6    6    0  503  0.16582368886E+03  0.22789379754E+02 -0.69174973175E+03  0.71171240188E+03  0.00000000000E+00 0.  1.
<mgrwt>
<rscale>  0 0.36610088E+03</rscale>
<asrwt>0</asrwt>
<pdfrwt beam="1">  1        2 0.28940386E+00 0.36610088E+03</pdfrwt>
<pdfrwt beam="2">  1       -2 0.22102525E-01 0.36610088E+03</pdfrwt>
<totfact> 0.14959052E+02</totfact>
</mgrwt>
</event>
<event>
12    1  0.3203156E-008  0.6235381E+03  0.7818608E-02  0.9857740E-01
         -2   -1    0    0    0  501 -0.00000000000E+00  0.00000000000E+00  0.21682723563E+03  0.21682723563E+03  0.00000000000E+00 0.  1.
          2   -1    0    0  501    0  0.00000000000E+00 -0.00000000000E+00 -0.24925114727E+04  0.24925114727E+04  0.00000000000E+00 0. -1.
         23    2    1    2    0    0  0.54417724047E+03  0.20719127343E+03 -0.62416304470E+03  0.85824054333E+03  0.89107973955E+02 0.  0.
    5000000    2    1    2    0    0 -0.54417724047E+03 -0.20719127343E+03 -0.16515211924E+04  0.18510981650E+04  0.59998756222E+03 0.  0.
         23    2    4    4    0    0 -0.56938358136E+03 -0.16734200845E+03 -0.16416316280E+04  0.17479665965E+04  0.90729323831E+02 0.  0.
         23    2    4    4    0    0  0.25206340888E+02 -0.39849264982E+02 -0.98895644417E+01  0.10313156849E+03  0.91186585604E+02 0.  0.
          5    1    3    3  502    0  0.37511156585E+03  0.99122721555E+02 -0.39743239724E+03  0.55543550583E+03  0.47000000000E+01 0. -1.
         -5    1    3    3    0  502  0.16906567462E+03  0.10806855187E+03 -0.22673064746E+03  0.30280503750E+03  0.47000000000E+01 0.  1.
         13    1    5    5    0    0 -0.43421274009E+03 -0.10047244807E+03 -0.11350936265E+04  0.12194560088E+04  0.00000000000E+00 0. -1.
        -13    1    5    5    0    0 -0.13517084127E+03 -0.66869560376E+02 -0.50653800145E+03  0.52851058774E+03  0.00000000000E+00 0.  1.
          2    1    6    6  503    0  0.12864761379E+02  0.61315254097E+01  0.34942485205E+02  0.37736917753E+02  0.00000000000E+00 0. -1.
         -2    1    6    6    0  503  0.12341579509E+02 -0.45980790392E+02 -0.44832049646E+02  0.65394650739E+02  0.00000000000E+00 0.  1.
<mgrwt>
<rscale>  0 0.62353812E+03</rscale>
<asrwt>0</asrwt>
<pdfrwt beam="1">  1        2 0.38346333E+00 0.62353812E+03</pdfrwt>
<pdfrwt beam="2">  1       -2 0.33358034E-01 0.62353812E+03</pdfrwt>
<totfact> 0.31413131E+01</totfact>
</mgrwt>
</event>
<event>
12    1  0.3203156E-008  0.9100288E+03  0.7818608E-02  0.9413131E-01
          2   -1    0    0  501    0  0.00000000000E+00  0.00000000000E+00  0.12047297743E+04  0.12047297743E+04  0.00000000000E+00 0. -1.
         -2   -1    0    0    0  501 -0.00000000000E+00 -0.00000000000E+00 -0.80916258213E+03  0.80916258213E+03  0.00000000000E+00 0.  1.
         23    2    1    2    0    0 -0.89217139197E+03 -0.24230053792E+02  0.22639094879E+03  0.92516387561E+03  0.90102424445E+02 0.  0.
    5000000    2    1    2    0    0  0.89217139197E+03  0.24230053792E+02  0.16917624340E+03  0.10887284808E+04  0.60012683284E+03 0.  0.
         23    2    4    4    0    0  0.24663202176E+03  0.10108474341E+03 -0.18738486425E+03  0.34165468673E+03  0.10280738353E+03 0.  0.
         23    2    4    4    0    0  0.64553937021E+03 -0.76854689620E+02  0.35656110765E+03  0.74707379411E+03  0.91409564833E+02 0.  0.
          5    1    3    3  502    0 -0.49876186305E+03 -0.44684569214E+02  0.93867798612E+02  0.50950305237E+03  0.47000000000E+01 0. -1.
         -5    1    3    3    0  502 -0.39340952892E+03  0.20454515422E+02  0.13252315018E+03  0.41566082324E+03  0.47000000000E+01 0.  1.
         11    1    5    5    0    0  0.20591907997E+03  0.10908451883E+03 -0.11896887064E+03  0.26164038665E+03  0.00000000000E+00 0. -1.
        -11    1    5    5    0    0  0.40712941788E+02 -0.79997754201E+01 -0.68415993610E+02  0.80014300081E+02  0.00000000000E+00 0.  1.
          3    1    6    6  503    0  0.44290277856E+03 -0.38702754390E+02  0.19667043162E+03  0.48614815965E+03  0.00000000000E+00 0. -1.
         -3    1    6    6    0  503  0.20263659165E+03 -0.38151935230E+02  0.15989067603E+03  0.26092563446E+03  0.00000000000E+00 0.  1.
<mgrwt>
<rscale>  0 0.91002878E+03</rscale>
<asrwt>0</asrwt>
<pdfrwt beam="1">  1        2 0.18534304E+00 0.91002878E+03</pdfrwt>
<pdfrwt beam="2">  1       -2 0.12448655E+00 0.91002878E+03</pdfrwt>
<totfact> 0.91289705E+00</totfact>
</mgrwt>
</event>
<event>
12    1  0.3203156E-008  0.3274136E+03  0.7818608E-02  0.1072287E+00
         -4   -1    0    0    0  501 -0.00000000000E+00  0.00000000000E+00  0.24694498440E+03  0.24694498440E+03  0.00000000000E+00 0.  1.
          4   -1    0    0  501    0  0.00000000000E+00 -0.00000000000E+00 -0.58669302652E+03  0.58669302652E+03  0.00000000000E+00 0. -1.
         23    2    1    2    0    0  0.62346024730E+02  0.61166794575E+01  0.43122546742E+02  0.11914999000E+03  0.91720910984E+02 0.  0.
    5000000    2    1    2    0    0 -0.62346024730E+02 -0.61166794575E+01 -0.38287058886E+03  0.71448802091E+03  0.59998233611E+03 0.  0.
         23    2    4    4    0    0  0.29551386965E+02 -0.27522647353E+03 -0.26342514754E+03  0.39287153194E+03  0.91281630404E+02 0.  0.
         23    2    4    4    0    0 -0.91897411696E+02  0.26910979407E+03 -0.11944544132E+03  0.32161648897E+03  0.91130329663E+02 0.  0.
          5    1    3    3  502    0  0.48133010028E+02  0.33697033404E+02 -0.76746323738E+01  0.59441287811E+02  0.47000000000E+01 0. -1.
         -5    1    3    3    0  502  0.14213014703E+02 -0.27580353947E+02  0.50797179116E+02  0.59708702187E+02  0.47000000000E+01 0.  1.
         13    1    5    5    0    0  0.20328683481E+02 -0.41560262449E+02 -0.86886884922E+01  0.47074452675E+02  0.00000000000E+00 0. -1.
        -13    1    5    5    0    0  0.92227034848E+01 -0.23366621108E+03 -0.25473645905E+03  0.34579707926E+03  0.00000000000E+00 0.  1.
          2    1    6    6  503    0 -0.16454097671E+02  0.52346677540E+02  0.13321352176E+02  0.56465656850E+02  0.00000000000E+00 0. -1.
         -2    1    6    6    0  503 -0.75443314025E+02  0.21676311653E+03 -0.13276679350E+03  0.26515083212E+03  0.00000000000E+00 0.  1.
<mgrwt>
<rscale>  0 0.32741362E+03</rscale>
<asrwt>0</asrwt>
<pdfrwt beam="1">  1        4 0.90260464E-01 0.32741362E+03</pdfrwt>
<pdfrwt beam="2">  1       -4 0.37991537E-01 0.32741362E+03</pdfrwt>
<totfact> 0.13469968E+01</totfact>
</mgrwt>
</event>
<event>
12    1  0.3203156E-008  0.1484138E+04  0.7818608E-02  0.8895070E-01
         -2   -1    0    0    0  501 -0.00000000000E+00  0.00000000000E+00  0.81470491691E+03  0.81470491691E+03  0.00000000000E+00 0. -1.
          2   -1    0    0  501    0  0.00000000000E+00 -0.00000000000E+00 -0.28843481697E+04  0.28843481697E+04  0.00000000000E+00 0.  1.
         23    2    1    2    0    0 -0.12041231377E+04 -0.77121384801E+03 -0.57053283140E+03  0.15422262312E+04  0.90943424960E+02 0.  0.
    5000000    2    1    2    0    0  0.12041231377E+04  0.77121384801E+03 -0.14991104214E+04  0.21568268553E+04  0.59990557458E+03 0.  0.
         23    2    4    4    0    0  0.27045099784E+03  0.47403484883E+03 -0.41802513479E+03  0.69495712228E+03  0.10182145326E+03 0.  0.
         23    2    4    4    0    0  0.93367213985E+03  0.29717899917E+03 -0.10810852866E+04  0.14618697331E+04  0.90877375283E+02 0.  0.
          5    1    3    3  502    0 -0.67400217166E+03 -0.38485230467E+03 -0.28569968738E+03  0.82706506708E+03  0.47000000000E+01 0. -1.
         -5    1    3    3    0  502 -0.53012096603E+03 -0.38636154334E+03 -0.28483314402E+03  0.71516116417E+03  0.47000000000E+01 0.  1.
         11    1    5    5    0    0  0.13202933258E+03  0.31463651028E+03 -0.29191739401E+03  0.44904748434E+03  0.00000000000E+00 0. -1.
        -11    1    5    5    0    0  0.13842166526E+03  0.15939833855E+03 -0.12610774078E+03  0.24590963794E+03  0.00000000000E+00 0.  1.
          3    1    6    6  503    0  0.74809350428E+03  0.27441317871E+03 -0.88777375275E+03  0.11929328229E+04  0.00000000000E+00 0. -1.
         -3    1    6    6    0  503  0.18557863558E+03  0.22765820464E+02 -0.19331153382E+03  0.26893691021E+03  0.00000000000E+00 0.  1.
<mgrwt>
<rscale>  0 0.14841385E+04</rscale>
<asrwt>0</asrwt>
<pdfrwt beam="1">  1        2 0.44374587E+00 0.14841385E+04</pdfrwt>
<pdfrwt beam="2">  1       -2 0.12533922E+00 0.14841385E+04</pdfrwt>
<totfact> 0.93167521E-01</totfact>
</mgrwt>
</event>
<event>
12    1  0.3203156E-008  0.9064953E+03  0.7818608E-02  0.9417498E-01
          2   -1    0    0  501    0  0.00000000000E+00  0.00000000000E+00  0.68324742079E+03  0.68324742079E+03  0.00000000000E+00 0. -1.
         -2   -1    0    0    0  501 -0.00000000000E+00 -0.00000000000E+00 -0.19276481691E+04  0.19276481691E+04  0.00000000000E+00 0.  1.
         23    2    1    2    0    0 -0.22195271915E+03 -0.81812222668E+03  0.15659274656E+03  0.86680992158E+03  0.90835921032E+02 0.  0.
    5000000    2    1    2    0    0  0.22195271915E+03  0.81812222668E+03 -0.14009934949E+04  0.17440856683E+04  0.60038742359E+03 0.  0.
         23    2    4    4    0    0  0.18753667730E+03  0.83878847321E+03 -0.96196056641E+03  0.12935944665E+04  0.96345235263E+02 0.  0.
         23    2    4    4    0    0  0.34416041849E+02 -0.20666246525E+02 -0.43903292846E+03  0.45049120179E+03  0.92632893395E+02 0.  0.
          5    1    3    3  502    0 -0.21994803503E+03 -0.71790963771E+03  0.15366509581E+03  0.76642445010E+03  0.47000000000E+01 0. -1.
         -5    1    3    3    0  502 -0.20046841172E+01 -0.10021258897E+03  0.29276507430E+01  0.10038547149E+03  0.47000000000E+01 0.  1.
         13    1    5    5    0    0  0.17493377279E+03  0.65709951334E+03 -0.79925090700E+03  0.10493729593E+04  0.00000000000E+00 0. -1.
        -13    1    5    5    0    0  0.12602904506E+02  0.18168895987E+03 -0.16270965941E+03  0.24422150725E+03  0.00000000000E+00 0.  1.
          1    1    6    6  503    0  0.64634778272E+02 -0.30747374579E+01 -0.24915028253E+03  0.25741595105E+03  0.00000000000E+00 0. -1.
         -1    1    6    6    0  503 -0.30218736422E+02 -0.17591509067E+02 -0.18988264593E+03  0.19307525074E+03  0.00000000000E+00 0.  1.
<mgrwt>
<rscale>  0 0.90649532E+03</rscale>
<asrwt>0</asrwt>
<pdfrwt beam="1">  1        2 0.10511499E+00 0.90649532E+03</pdfrwt>
<pdfrwt beam="2">  1       -2 0.29656125E+00 0.90649532E+03</pdfrwt>
<totfact> 0.14338278E+00</totfact>
</mgrwt>
</event>
<event>
12    1  0.3203156E-008  0.8446067E+03  0.7818608E-02  0.9497604E-01
          1   -1    0    0  501    0  0.00000000000E+00  0.00000000000E+00  0.25172688097E+04  0.25172688097E+04  0.00000000000E+00 0. -1.
         -1   -1    0    0    0  501 -0.00000000000E+00 -0.00000000000E+00 -0.75442936540E+03  0.75442936540E+03  0.00000000000E+00 0.  1.
         23    2    1    2    0    0  0.76429869467E+03  0.22428466967E+03  0.20770114117E+04  0.22261251150E+04  0.84855851873E+02 0.  0.
    5000000    2    1    2    0    0 -0.76429869467E+03 -0.22428466967E+03 -0.31417196736E+03  0.10455730601E+04  0.60005240711E+03 0.  0.
         23    2    4    4    0    0 -0.73305198376E+03 -0.84522932504E+02 -0.67659365724E+02  0.74655155532E+03  0.90841058828E+02 0.  0.
         23    2    4    4    0    0 -0.31246710905E+02 -0.13976173717E+03 -0.24651260164E+03  0.29902150481E+03  0.90198101155E+02 0.  0.
          5    1    3    3  502    0  0.36764591312E+03  0.12786058753E+03  0.11183778144E+04  0.11841886982E+04  0.47000000000E+01 0. -1.
         -5    1    3    3    0  502  0.39665278154E+03  0.96424082148E+02  0.95863359734E+03  0.10419364168E+04  0.47000000000E+01 0.  1.
         13    1    5    5    0    0 -0.22369239373E+03 -0.55683032641E+02 -0.51061409975E+02  0.23610623610E+03  0.00000000000E+00 0. -1.
        -13    1    5    5    0    0 -0.50935959003E+03 -0.28839899863E+02 -0.16597955749E+02  0.51044531922E+03  0.00000000000E+00 0.  1.
          2    1    6    6  503    0 -0.26358071979E+02 -0.25587321033E+02 -0.13287513498E+03  0.13785956786E+03  0.00000000000E+00 0.  1.
         -2    1    6    6    0  503 -0.48886389262E+01 -0.11417441614E+03 -0.11363746666E+03  0.16116193694E+03  0.00000000000E+00 0. -1.
<mgrwt>
<rscale>  0 0.84460672E+03</rscale>
<asrwt>0</asrwt>
<pdfrwt beam="1">  1        1 0.38727212E+00 0.84460672E+03</pdfrwt>
<pdfrwt beam="2">  1       -1 0.11606606E+00 0.84460672E+03</pdfrwt>
<totfact> 0.92660956E-01</totfact>
</mgrwt>
</event>
<event>
12    1  0.3203156E-008  0.3735444E+03  0.7818608E-02  0.1053346E+00
         -1   -1    0    0    0  501 -0.00000000000E+00  0.00000000000E+00  0.22523075166E+04  0.22523075166E+04  0.00000000000E+00 0.  1.
          1   -1    0    0  501    0  0.00000000000E+00 -0.00000000000E+00 -0.96790521324E+02  0.96790521324E+02  0.00000000000E+00 0. -1.
         23    2    1    2    0    0 -0.77777463017E+02  0.21245534420E+03  0.98415000841E+03  0.10137009813E+04  0.88610572206E+02 0.  0.
    5000000    2    1    2    0    0  0.77777463017E+02 -0.21245534420E+03  0.11713669869E+04  0.13353970566E+04  0.59999839479E+03 0.  0.
         23    2    4    4    0    0 -0.31127951444E+02  0.14091327092E+03  0.99499460971E+02  0.19776256097E+03  0.91566306596E+02 0.  0.
         23    2    4    4    0    0  0.10890541446E+03 -0.35336861512E+03  0.10718675259E+04  0.11376344956E+04  0.92641702662E+02 0.  0.
          5    1    3    3  502    0 -0.57378919416E+02  0.14504595166E+03  0.48247412098E+03  0.50708385490E+03  0.47000000000E+01 0. -1.
         -5    1    3    3    0  502 -0.20398543601E+02  0.67409392542E+02  0.50167588743E+03  0.50661712645E+03  0.47000000000E+01 0.  1.
         11    1    5    5    0    0 -0.23632037412E+02  0.26978856057E+02  0.71816094983E+02  0.80273802483E+02  0.00000000000E+00 0. -1.
        -11    1    5    5    0    0 -0.74959140312E+01  0.11393441486E+03  0.27683365988E+02  0.11748875848E+03  0.00000000000E+00 0.  1.
          3    1    6    6  503    0  0.43981677414E+02 -0.10851434225E+03  0.47536270246E+03  0.48957067856E+03  0.00000000000E+00 0. -1.
         -3    1    6    6    0  503  0.64923737047E+02 -0.24485427287E+03  0.59650482347E+03  0.64806381707E+03  0.00000000000E+00 0.  1.
<mgrwt>
<rscale>  0 0.37354440E+03</rscale>
<asrwt>0</asrwt>
<pdfrwt beam="1">  1        1 0.14890851E-01 0.37354440E+03</pdfrwt>
<pdfrwt beam="2">  1       -1 0.34650881E+00 0.37354440E+03</pdfrwt>
<totfact> 0.71868704E+00</totfact>
</mgrwt>
</event>
<event>
12    1  0.3203156E-008  0.3243697E+03  0.7818608E-02  0.1073656E+00
         -2   -1    0    0    0  501 -0.00000000000E+00  0.00000000000E+00  0.26352379247E+03  0.26352379247E+03  0.00000000000E+00 0. -1.
          2   -1    0    0  501    0  0.00000000000E+00 -0.00000000000E+00 -0.18523601546E+04  0.18523601546E+04  0.00000000000E+00 0.  1.
         23    2    1    2    0    0 -0.23613627505E+03  0.16918020406E+03  0.81845756242E+02  0.31715976016E+03  0.97515659308E+02 0.  0.
    5000000    2    1    2    0    0  0.23613627505E+03 -0.16918020406E+03 -0.16706821184E+04  0.17987241869E+04  0.59987305166E+03 0.  0.
         23    2    4    4    0    0  0.10388791835E+02 -0.72372177535E+00  0.95190630876E+01  0.92581033096E+02  0.91499641300E+02 0.  0.
         23    2    4    4    0    0  0.22574748321E+03 -0.16845648229E+03 -0.16802011814E+04  0.17061431538E+04  0.92243907899E+02 0.  0.
          5    1    3    3  502    0 -0.24394139608E+03  0.15380768209E+03  0.74894534155E+02  0.29798571952E+03  0.47000000000E+01 0. -1.
         -5    1    3    3    0  502  0.78051210283E+01  0.15372521977E+02  0.69512220875E+01  0.19174040647E+02  0.47000000000E+01 0.  1.
         13    1    5    5    0    0  0.36074919659E+01 -0.27185191760E+02  0.41987630894E+02  0.50149873354E+02  0.00000000000E+00 0.  1.
        -13    1    5    5    0    0  0.67812998687E+01  0.26461469985E+02 -0.32468567806E+02  0.42431159742E+02  0.00000000000E+00 0. -1.
          1    1    6    6  503    0  0.96988280965E+02 -0.37300199169E+02 -0.42292524523E+03  0.43550406950E+03  0.00000000000E+00 0. -1.
         -1    1    6    6    0  503  0.12875920225E+03 -0.13115628312E+03 -0.12572759362E+04  0.12706390843E+04  0.00000000000E+00 0.  1.
<mgrwt>
<rscale>  0 0.32436974E+03</rscale>
<asrwt>0</asrwt>
<pdfrwt beam="1">  1        2 0.28497849E+00 0.32436974E+03</pdfrwt>
<pdfrwt beam="2">  1       -2 0.40542121E-01 0.32436974E+03</pdfrwt>
<totfact> 0.51432285E+01</totfact>
</mgrwt>
</event>
<event>
12    1  0.3203156E-008  0.6526819E+03  0.7818608E-02  0.9801760E-01
         -2   -1    0    0    0  501 -0.00000000000E+00  0.00000000000E+00  0.34493733150E+03  0.34493733150E+03  0.00000000000E+00 0.  1.
          2   -1    0    0  501    0  0.00000000000E+00 -0.00000000000E+00 -0.16731266800E+04  0.16731266800E+04  0.00000000000E+00 0. -1.
         23    2    1    2    0    0  0.33545527561E+03  0.52541828176E+03 -0.38707611882E+03  0.73966228011E+03  0.93154463743E+02 0.  0.
    5000000    2    1    2    0    0 -0.33545527561E+03 -0.52541828176E+03 -0.94111322970E+03  0.12784017314E+04  0.60001855222E+03 0.  0.
         23    2    4    4    0    0 -0.56079094031E+02 -0.32560500402E+03 -0.84259985805E+03  0.90976807751E+03  0.92411853347E+02 0.  0.
         23    2    4    4    0    0 -0.27937618158E+03 -0.19981327774E+03 -0.98513371651E+02  0.36863365390E+03  0.90606233772E+02 0.  0.
          5    1    3    3  502    0  0.10969145346E+03  0.19798571697E+03 -0.91811005658E+02  0.24429881262E+03  0.47000000000E+01 0. -1.
         -5    1    3    3    0  502  0.22576382216E+03  0.32743256479E+03 -0.29526511316E+03  0.49536346750E+03  0.47000000000E+01 0.  1.
         11    1    5    5    0    0 -0.98434211808E+01 -0.48059971663E+02 -0.23660498981E+03  0.24163727986E+03  0.00000000000E+00 0.  1.
        -11    1    5    5    0    0 -0.46235672850E+02 -0.27754503236E+03 -0.60599486825E+03  0.66813079765E+03  0.00000000000E+00 0. -1.
          1    1    6    6  503    0 -0.18677226168E+03 -0.17251458298E+03 -0.44855131131E+02  0.25818044438E+03  0.00000000000E+00 0. -1.
         -1    1    6    6    0  503 -0.92603919904E+02 -0.27298694760E+02 -0.53658240520E+02  0.11045320952E+03  0.00000000000E+00 0.  1.
<mgrwt>
<rscale>  0 0.65268195E+03</rscale>
<asrwt>0</asrwt>
<pdfrwt beam="1">  1        2 0.25740411E+00 0.65268195E+03</pdfrwt>
<pdfrwt beam="2">  1       -2 0.53067282E-01 0.65268195E+03</pdfrwt>
<totfact> 0.35296648E+01</totfact>
</mgrwt>
</event>
<event>
12    1  0.3203156E-008  0.5936252E+03  0.7818608E-02  0.9918721E-01
          2   -1    0    0  501    0  0.00000000000E+00  0.00000000000E+00  0.22348939804E+03  0.22348939804E+03  0.00000000000E+00 0. -1.
         -2   -1    0    0    0  501 -0.00000000000E+00 -0.00000000000E+00 -0.22687799853E+04  0.22687799853E+04  0.00000000000E+00 0.  1.
         23    2    1    2    0    0 -0.30916349613E+03  0.37237829190E+03 -0.14098954387E+04  0.14932587342E+04  0.88141021040E+02 0.  0.
    5000000    2    1    2    0    0  0.30916349613E+03 -0.37237829190E+03 -0.63539514851E+03  0.99901064910E+03  0.60003968422E+03 0.  0.
         23    2    4    4    0    0  0.40888933302E+03 -0.38987825405E+03 -0.64311555415E+03  0.86129199734E+03  0.95030253357E+02 0.  0.
         23    2    4    4    0    0 -0.99725836890E+02  0.17499962155E+02  0.77204056332E+01  0.13771865176E+03  0.93034032273E+02 0.  0.
          5    1    3    3  502    0 -0.14633204194E+03  0.23978438689E+03 -0.76015813720E+03  0.81041477173E+03  0.47000000000E+01 0. -1.
         -5    1    3    3    0  502 -0.16283145419E+03  0.13259390501E+03 -0.64973730152E+03  0.68284396249E+03  0.47000000000E+01 0.  1.
         11    1    5    5    0    0  0.18702494737E+03 -0.22014756221E+03 -0.38191300710E+03  0.47885365727E+03  0.00000000000E+00 0. -1.
        -11    1    5    5    0    0  0.22186438565E+03 -0.16973069184E+03 -0.26120254704E+03  0.38243834007E+03  0.00000000000E+00 0.  1.
          2    1    6    6  503    0 -0.72510119658E+02  0.48167585959E+02 -0.18572803600E+02  0.89010015299E+02  0.00000000000E+00 0. -1.
         -2    1    6    6    0  503 -0.27215717232E+02 -0.30667623804E+02  0.26293209233E+02  0.48708636462E+02  0.00000000000E+00 0.  1.
<mgrwt>
<rscale>  0 0.59362521E+03</rscale>
<asrwt>0</asrwt>
<pdfrwt beam="1">  1        2 0.34382984E-01 0.59362521E+03</pdfrwt>
<pdfrwt beam="2">  1       -2 0.34904308E+00 0.59362521E+03</pdfrwt>
<totfact> 0.25964567E+00</totfact>
</mgrwt>
</event>
<event>
12    1  0.3203156E-008  0.1255452E+04  0.7818608E-02  0.9065658E-01
          2   -1    0    0  501    0  0.00000000000E+00  0.00000000000E+00  0.23046929389E+04  0.23046929389E+04  0.00000000000E+00 0. -1.
         -2   -1    0    0    0  501 -0.00000000000E+00 -0.00000000000E+00 -0.87062883705E+03  0.87062883705E+03  0.00000000000E+00 0.  1.
         23    2    1    2    0    0  0.10045040290E+04 -0.71193027638E+03  0.60992749100E+02  0.12360113377E+04  0.90171219266E+02 0.  0.
    5000000    2    1    2    0    0 -0.10045040290E+04  0.71193027638E+03  0.13730713528E+04  0.19393104383E+04  0.59977243463E+03 0.  0.
         23    2    4    4    0    0 -0.43389993032E+03  0.49917500304E+03  0.10493100514E+04  0.12438475337E+04  0.93060571382E+02 0.  0.
         23    2    4    4    0    0 -0.57060409871E+03  0.21275527334E+03  0.32376130142E+03  0.69546290458E+03  0.89405970462E+02 0.  0.
          5    1    3    3  502    0  0.70398159082E+03 -0.45530869926E+03  0.63384305206E+02  0.84079471454E+03  0.47000000000E+01 0. -1.
         -5    1    3    3    0  502  0.30052243821E+03 -0.25662157711E+03 -0.23915561060E+01  0.39521662319E+03  0.47000000000E+01 0.  1.
         13    1    5    5    0    0 -0.32472722908E+02  0.23779558342E+02  0.32328628101E+02  0.51624464384E+02  0.00000000000E+00 0. -1.
        -13    1    5    5    0    0 -0.40142720741E+03  0.47539544470E+03  0.10169814233E+04  0.11922230693E+04  0.00000000000E+00 0.  1.
          3    1    6    6  503    0 -0.20995025677E+03  0.12243597414E+03  0.11217253235E+03  0.26767957542E+03  0.00000000000E+00 0. -1.
         -3    1    6    6    0  503 -0.36065384194E+03  0.90319299191E+02  0.21158876907E+03  0.42778332916E+03  0.00000000000E+00 0.  1.
<mgrwt>
<rscale>  0 0.12554517E+04</rscale>
<asrwt>0</asrwt>
<pdfrwt beam="1">  1        2 0.35456814E+00 0.12554517E+04</pdfrwt>
<pdfrwt beam="2">  1       -2 0.13394290E+00 0.12554517E+04</pdfrwt>
<totfact> 0.17608201E+00</totfact>
</mgrwt>
</event>
<event>
12    1  0.3203156E-008  0.8705754E+03  0.7818608E-02  0.9463130E-01
          2   -1    0    0  501    0  0.00000000000E+00  0.00000000000E+00  0.20386001185E+04  0.20386001185E+04  0.00000000000E+00 0.  1.
         -2   -1    0    0    0  501 -0.00000000000E+00 -0.00000000000E+00 -0.41875329869E+03  0.41875329869E+03  0.00000000000E+00 0. -1.
         23    2    1    2    0    0  0.77501987365E+03  0.21154822004E+03  0.48465478362E+03  0.94250801147E+03  0.89569182438E+02 0.  0.
    5000000    2    1    2    0    0 -0.77501987365E+03 -0.21154822004E+03  0.11351920362E+04  0.15148454058E+04  0.60057238553E+03 0.  0.
         23    2    4    4    0    0 -0.62710985703E+03  0.37929342644E+02  0.99598933174E+03  0.11804726232E+04  0.82555783523E+02 0.  0.
         23    2    4    4    0    0 -0.14791001662E+03 -0.24947756269E+03  0.13920270449E+03  0.33437278255E+03  0.91166537007E+02 0.  0.
          5    1    3    3  502    0  0.37122031830E+03  0.92986564650E+02  0.17994230750E+03  0.42290938740E+03  0.47000000000E+01 0. -1.
         -5    1    3    3    0  502  0.40379955535E+03  0.11856165539E+03  0.30471247612E+03  0.51959862407E+03  0.47000000000E+01 0.  1.
         13    1    5    5    0    0 -0.51835858033E+03 -0.52844314948E-01  0.80650697479E+03  0.95872265071E+03  0.00000000000E+00 0. -1.
        -13    1    5    5    0    0 -0.10875127670E+03  0.37982186959E+02  0.18948235694E+03  0.22174997250E+03  0.00000000000E+00 0.  1.
          4    1    6    6  503    0 -0.39553374011E+02 -0.15589637249E+03  0.72274740573E+02  0.17632863204E+03  0.00000000000E+00 0. -1.
         -4    1    6    6    0  503 -0.10835664261E+03 -0.93581190196E+02  0.66927963917E+02  0.15804415051E+03  0.00000000000E+00 0.  1.
<mgrwt>
<rscale>  0 0.87057538E+03</rscale>
<asrwt>0</asrwt>
<pdfrwt beam="1">  1        2 0.31363078E+00 0.87057538E+03</pdfrwt>
<pdfrwt beam="2">  1       -2 0.64423586E-01 0.87057538E+03</pdfrwt>
<totfact> 0.14418724E+01</totfact>
</mgrwt>
</event>
<event>
12    1  0.3203156E-008  0.9645967E+03  0.7818608E-02  0.9348250E-01
         -2   -1    0    0    0  501 -0.00000000000E+00  0.00000000000E+00  0.76972251850E+03  0.76972251850E+03  0.00000000000E+00 0.  1.
          2   -1    0    0  501    0  0.00000000000E+00 -0.00000000000E+00 -0.13418765273E+04  0.13418765273E+04  0.00000000000E+00 0. -1.
         23    2    1    2    0    0  0.80598471834E+03  0.34625608894E+03 -0.56779321146E+03  0.10488440102E+04  0.90443249443E+02 0.  0.
    5000000    2    1    2    0    0 -0.80598471834E+03 -0.34625608894E+03 -0.43607973737E+01  0.10627550357E+04  0.59993716665E+03 0.  0.
         23    2    4    4    0    0 -0.40211888568E+03  0.12805070967E+03  0.28993194599E+02  0.43295238323E+03  0.92252795867E+02 0.  0.
         23    2    4    4    0    0 -0.40386583267E+03 -0.47430679862E+03 -0.33353991972E+02  0.62980265243E+03  0.86396424801E+02 0.  0.
          5    1    3    3  502    0  0.64433426909E+03  0.28742630462E+03 -0.41397772835E+03  0.81803433942E+03  0.47000000000E+01 0. -1.
         -5    1    3    3    0  502  0.16165044925E+03  0.58829784324E+02 -0.15381548311E+03  0.23080967075E+03  0.47000000000E+01 0.  1.
         11    1    5    5    0    0 -0.20755580681E+03  0.95983133299E+02  0.51744702695E+02  0.23445615597E+03  0.00000000000E+00 0.  1.
        -11    1    5    5    0    0 -0.19456307887E+03  0.32067576374E+02 -0.22751508096E+02  0.19849622726E+03  0.00000000000E+00 0. -1.
          3    1    6    6  503    0 -0.25290841303E+03 -0.25240263878E+03 -0.50559411093E+02  0.36086841299E+03  0.00000000000E+00 0. -1.
         -3    1    6    6    0  503 -0.15095741964E+03 -0.22190415983E+03  0.17205419120E+02  0.26893423943E+03  0.00000000000E+00 0.  1.
<mgrwt>
<rscale>  0 0.96459670E+03</rscale>
<asrwt>0</asrwt>
<pdfrwt beam="1">  1        2 0.20644254E+00 0.96459670E+03</pdfrwt>
<pdfrwt beam="2">  1       -2 0.11841885E+00 0.96459670E+03</pdfrwt>
<totfact> 0.85502017E+00</totfact>
</mgrwt>
</event>
<event>
12    1  0.3203156E-008  0.4310113E+03  0.7818608E-02  0.1033541E+00
          2   -1    0    0  501    0  0.00000000000E+00  0.00000000000E+00  0.11529163264E+04  0.11529163264E+04  0.00000000000E+00 0.  1.
         -2   -1    0    0    0  501 -0.00000000000E+00 -0.00000000000E+00 -0.26822840081E+03  0.26822840081E+03  0.00000000000E+00 0. -1.
         23    2    1    2    0    0 -0.33624086826E+03  0.17947416379E+03  0.22668032318E+03  0.45249046483E+03  0.89970855750E+02 0.  0.
    5000000    2    1    2    0    0  0.33624086826E+03 -0.17947416379E+03  0.65800760239E+03  0.96865426236E+03  0.60004014718E+03 0.  0.
         23    2    4    4    0    0  0.75825899855E+01 -0.85384411002E+02  0.59228287077E+03  0.60598416177E+03  0.95235560557E+02 0.  0.
         23    2    4    4    0    0  0.32865827827E+03 -0.94089752791E+02  0.65724731624E+02  0.36267010059E+03  0.10168931143E+03 0.  0.
          5    1    3    3  502    0 -0.14851708752E+03  0.12895308057E+03  0.10361992497E+03  0.22236321891E+03  0.47000000000E+01 0.  1.
         -5    1    3    3    0  502 -0.18772378073E+03  0.50521083224E+02  0.12306039821E+03  0.23012724591E+03  0.47000000000E+01 0. -1.
         13    1    5    5    0    0  0.50964584183E+02 -0.36185466621E+02  0.28201825193E+03  0.28886168187E+03  0.00000000000E+00 0.  1.
        -13    1    5    5    0    0 -0.43381994197E+02 -0.49198944381E+02  0.31026461884E+03  0.31712247989E+03  0.00000000000E+00 0. -1.
          2    1    6    6  503    0  0.21660329561E+03 -0.73888173394E+02 -0.44837543447E+01  0.22890293552E+03  0.00000000000E+00 0. -1.
         -2    1    6    6    0  503  0.11205498267E+03 -0.20201579397E+02  0.70208485968E+02  0.13376716508E+03  0.00000000000E+00 0.  1.
<mgrwt>
<rscale>  0 0.43101131E+03</rscale>
<asrwt>0</asrwt>
<pdfrwt beam="1">  1        2 0.17737174E+00 0.43101131E+03</pdfrwt>
<pdfrwt beam="2">  1       -2 0.41265908E-01 0.43101131E+03</pdfrwt>
<totfact> 0.11770499E+02</totfact>
</mgrwt>
</event>
<event>
12    1  0.3203156E-008  0.2476259E+03  0.7818608E-02  0.1114814E+00
         -1   -1    0    0    0  501 -0.00000000000E+00  0.00000000000E+00  0.21288148322E+03  0.21288148322E+03  0.00000000000E+00 0.  1.
          1   -1    0    0  501    0  0.00000000000E+00 -0.00000000000E+00 -0.78307080115E+03  0.78307080115E+03  0.00000000000E+00 0. -1.
         23    2    1    2    0    0  0.13584852859E+03  0.10527873038E+03 -0.13929270489E+03  0.23757846949E+03  0.86617768016E+02 0.  0.
    5000000    2    1    2    0    0 -0.13584852859E+03 -0.10527873038E+03 -0.43089661304E+03  0.75837381489E+03  0.59993376150E+03 0.  0.
         23    2    4    4    0    0  0.48650447099E+02 -0.66150420229E+01  0.12198167031E+03  0.15957719405E+03  0.90414203451E+02 0.  0.
         23    2    4    4    0    0 -0.18449897569E+03 -0.98663688356E+02 -0.55287828335E+03  0.59879662084E+03  0.95438993615E+02 0.  0.
          5    1    3    3  502    0  0.38133421691E+02  0.60888063008E+01 -0.74257415569E+02  0.83830097095E+02  0.47000000000E+01 0. -1.
         -5    1    3    3    0  502  0.97715106902E+02  0.99189924078E+02 -0.65035289324E+02  0.15374837239E+03  0.47000000000E+01 0.  1.
         11    1    5    5    0    0 -0.15518720213E+02  0.12718044902E+02  0.75239012889E+02  0.77868404399E+02  0.00000000000E+00 0. -1.
        -11    1    5    5    0    0  0.64169167311E+02 -0.19333086925E+02  0.46742657419E+02  0.81708789650E+02  0.00000000000E+00 0.  1.
          2    1    6    6  503    0 -0.44177508583E+02 -0.75864547518E+02 -0.21398719763E+03  0.23129548760E+03  0.00000000000E+00 0.  1.
         -2    1    6    6    0  503 -0.14032146711E+03 -0.22799140838E+02 -0.33889108572E+03  0.36750113324E+03  0.00000000000E+00 0. -1.
<mgrwt>
<rscale>  0 0.24762588E+03</rscale>
<asrwt>0</asrwt>
<pdfrwt beam="1">  1        1 0.12047243E+00 0.24762588E+03</pdfrwt>
<pdfrwt beam="2">  1       -1 0.32750997E-01 0.24762588E+03</pdfrwt>
<totfact> 0.21197387E+02</totfact>
</mgrwt>
</event>
<event>
12    1  0.3203156E-008  0.1432512E+04  0.7818608E-02  0.8930615E-01
          2   -1    0    0  501    0  0.00000000000E+00  0.00000000000E+00  0.17501169273E+04  0.17501169273E+04  0.00000000000E+00 0. -1.
         -2   -1    0    0    0  501 -0.00000000000E+00 -0.00000000000E+00 -0.16960594486E+04  0.16960594486E+04  0.00000000000E+00 0.  1.
         23    2    1    2    0    0  0.24269236963E+03 -0.13898217133E+04 -0.86603238468E+03  0.16580973027E+04  0.93651444241E+02 0.  0.
    5000000    2    1    2    0    0 -0.24269236963E+03  0.13898217133E+04  0.92008986337E+03  0.17880790732E+04  0.60013118090E+03 0.  0.
         23    2    4    4    0    0 -0.28537106695E+03  0.11920426712E+04  0.52900657248E+03  0.13382150487E+04  0.92569902613E+02 0.  0.
         23    2    4    4    0    0  0.42678697316E+02  0.19777904201E+03  0.39108329089E+03  0.44986402448E+03  0.92160075102E+02 0.  0.
          5    1    3    3  502    0  0.12774583222E+03 -0.97936012725E+03 -0.60790495212E+03  0.11597567751E+04  0.47000000000E+01 0. -1.
         -5    1    3    3    0  502  0.11494653741E+03 -0.41046158600E+03 -0.25812743257E+03  0.49834052764E+03  0.47000000000E+01 0.  1.
         13    1    5    5    0    0 -0.14224542894E+03  0.40587438197E+03  0.17954513320E+03  0.46605174696E+03  0.00000000000E+00 0.  1.
        -13    1    5    5    0    0 -0.14312563801E+03  0.78616828928E+03  0.34946143928E+03  0.87216330172E+03  0.00000000000E+00 0. -1.
          2    1    6    6  503    0 -0.19753159880E+02  0.12262766977E+03  0.20504713460E+03  0.23973331042E+03  0.00000000000E+00 0. -1.
         -2    1    6    6    0  503  0.62431857196E+02  0.75151372244E+02  0.18603615629E+03  0.21013071406E+03  0.00000000000E+00 0.  1.
<mgrwt>
<rscale>  0 0.14325124E+04</rscale>
<asrwt>0</asrwt>
<pdfrwt beam="1">  1        2 0.26924876E+00 0.14325124E+04</pdfrwt>
<pdfrwt beam="2">  1       -2 0.26093222E+00 0.14325124E+04</pdfrwt>
<totfact> 0.47882131E-01</totfact>
</mgrwt>
</event>
<event>
12    1  0.3203156E-008  0.1428910E+04  0.7818608E-02  0.8933154E-01
          2   -1    0    0  501    0  0.00000000000E+00  0.00000000000E+00  0.26842162267E+04  0.26842162267E+04  0.00000000000E+00 0. -1.
         -2   -1    0    0    0  501 -0.00000000000E+00 -0.00000000000E+00 -0.81293366665E+03  0.81293366665E+03  0.00000000000E+00 0.  1.
         23    2    1    2    0    0 -0.12439664091E+04 -0.61893185415E+03  0.58541481587E+03  0.15112108036E+04  0.10255983195E+03 0.  0.
    5000000    2    1    2    0    0  0.12439664091E+04  0.61893185415E+03  0.12858677441E+04  0.19859390897E+04  0.59997428748E+03 0.  0.
         23    2    4    4    0    0  0.24064784731E+03 -0.62191978141E+02  0.40820969645E+03  0.48643991061E+03  0.90605749273E+02 0.  0.
         23    2    4    4    0    0  0.10033185618E+04  0.68112383229E+03  0.87765804769E+03  0.14994991791E+04  0.87386086656E+02 0.  0.
          5    1    3    3  502    0 -0.53272701696E+03 -0.31821400507E+03  0.27998970751E+03  0.68078965469E+03  0.47000000000E+01 0. -1.
         -5    1    3    3    0  502 -0.71123939215E+03 -0.30071784908E+03  0.30542510836E+03  0.83042114888E+03  0.47000000000E+01 0.  1.
         13    1    5    5    0    0  0.84490784615E+02 -0.33416535569E+02  0.23244794706E+03  0.24957444906E+03  0.00000000000E+00 0.  1.
        -13    1    5    5    0    0  0.15615706270E+03 -0.28775442572E+02  0.17576174939E+03  0.23686546155E+03  0.00000000000E+00 0. -1.
          2    1    6    6  503    0  0.79930648830E+03  0.50159644831E+03  0.66512936260E+03  0.11545072231E+04  0.00000000000E+00 0. -1.
         -2    1    6    6    0  503  0.20401207350E+03  0.17952738398E+03  0.21252868509E+03  0.34499195602E+03  0.00000000000E+00 0.  1.
<mgrwt>
<rscale>  0 0.14289105E+04</rscale>
<asrwt>0</asrwt>
<pdfrwt beam="1">  1        2 0.41295634E+00 0.14289105E+04</pdfrwt>
<pdfrwt beam="2">  1       -2 0.12506672E+00 0.14289105E+04</pdfrwt>
<totfact> 0.12430888E+00</totfact>
</mgrwt>
</event>
<event>
12    1  0.3203156E-008  0.1203291E+04  0.7818608E-02  0.9109981E-01
         -1   -1    0    0    0  501 -0.00000000000E+00  0.00000000000E+00  0.67473162548E+03  0.67473162548E+03  0.00000000000E+00 0.  1.
          1   -1    0    0  501    0  0.00000000000E+00 -0.00000000000E+00 -0.32910268908E+04  0.32910268908E+04  0.00000000000E+00 0. -1.
         23    2    1    2    0    0  0.32866952361E+03 -0.11404367356E+04 -0.23134546444E+04  0.26017546800E+04  0.91844539486E+02 0.  0.
    5000000    2    1    2    0    0 -0.32866952361E+03  0.11404367356E+04 -0.30284062090E+03  0.13640038363E+04  0.60014533258E+03 0.  0.
         23    2    4    4    0    0 -0.13232492415E+01  0.18489840944E+03  0.14865816274E+03  0.25383692397E+03  0.90248334171E+02 0.  0.
         23    2    4    4    0    0 -0.32734627437E+03  0.95553832612E+03 -0.45149878364E+03  0.11101669123E+04  0.91707936314E+02 0.  0.
          5    1    3    3  502    0  0.51038151894E+02 -0.32240181080E+03 -0.62156383143E+03  0.70207656784E+03  0.47000000000E+01 0. -1.
         -5    1    3    3    0  502  0.27763137172E+03 -0.81803492476E+03 -0.16918908130E+04  0.18996781122E+04  0.47000000000E+01 0.  1.
         13    1    5    5    0    0 -0.40253642363E+02  0.14270982446E+03  0.10422325756E+03  0.18124275747E+03  0.00000000000E+00 0. -1.
        -13    1    5    5    0    0  0.38930393121E+02  0.42188584985E+02  0.44434905176E+02  0.72594166498E+02  0.00000000000E+00 0.  1.
          1    1    6    6  503    0 -0.20713163327E+03  0.65126853202E+03 -0.34874395099E+03  0.76725260355E+03  0.00000000000E+00 0. -1.
         -1    1    6    6    0  503 -0.12021464110E+03  0.30426979409E+03 -0.10275483265E+03  0.34291430878E+03  0.00000000000E+00 0.  1.
<mgrwt>
<rscale>  0 0.12032909E+04</rscale>
<asrwt>0</asrwt>
<pdfrwt beam="1">  1        1 0.50631183E+00 0.12032909E+04</pdfrwt>
<pdfrwt beam="2">  1       -1 0.10380487E+00 0.12032909E+04</pdfrwt>
<totfact> 0.31713486E-01</totfact>
</mgrwt>
</event>
<event>
12    1  0.3203156E-008  0.4920673E+03  0.7818608E-02  0.1015870E+00
         -1   -1    0    0    0  501 -0.00000000000E+00  0.00000000000E+00  0.23454272347E+03  0.23454272347E+03  0.00000000000E+00 0.  1.
          1   -1    0    0  501    0  0.00000000000E+00 -0.00000000000E+00 -0.11274078161E+04  0.11274078161E+04  0.00000000000E+00 0. -1.
         23    2    1    2    0    0  0.25046455927E+03 -0.21356335985E+03 -0.35140465083E+03  0.48936556880E+03  0.87473579868E+02 0.  0.
    5000000    2    1    2    0    0 -0.25046455927E+03  0.21356335985E+03 -0.54146044175E+03  0.87258497072E+03  0.59990275630E+03 0.  0.
         23    2    4    4    0    0  0.13217584324E+03  0.21331323333E+03 -0.33668002148E+03  0.42967230614E+03  0.91059676843E+02 0.  0.
         23    2    4    4    0    0 -0.38264040251E+03  0.25012652155E+00 -0.20478042027E+03  0.44291266458E+03  0.88446976883E+02 0.  0.
          5    1    3    3  502    0  0.13792371275E+03 -0.14425085536E+03 -0.15574419869E+03  0.25319874651E+03  0.47000000000E+01 0. -1.
         -5    1    3    3    0  502  0.11254084652E+03 -0.69312504498E+02 -0.19566045215E+03  0.23616682229E+03  0.47000000000E+01 0.  1.
         11    1    5    5    0    0  0.38804131849E+01  0.57892394973E+02 -0.12270881471E+03  0.13573518413E+03  0.00000000000E+00 0. -1.
        -11    1    5    5    0    0  0.12829543006E+03  0.15542083836E+03 -0.21397120677E+03  0.29393712201E+03  0.00000000000E+00 0.  1.
          3    1    6    6  503    0 -0.18073253210E+03 -0.43953319324E+02 -0.10012765612E+03  0.21123846704E+03  0.00000000000E+00 0.  1.
         -3    1    6    6    0  503 -0.20190787042E+03  0.44203445846E+02 -0.10465276416E+03  0.23167419754E+03  0.00000000000E+00 0. -1.
<mgrwt>
<rscale>  0 0.49206729E+03</rscale>
<asrwt>0</asrwt>
<pdfrwt beam="1">  1        1 0.17344736E+00 0.49206729E+03</pdfrwt>
<pdfrwt beam="2">  1       -1 0.36083496E-01 0.49206729E+03</pdfrwt>
<totfact> 0.93143692E+01</totfact>
</mgrwt>
</event>
<event>
12    1  0.3203156E-008  0.2452294E+03  0.7818608E-02  0.1116357E+00
          2   -1    0    0  501    0  0.00000000000E+00  0.00000000000E+00  0.13788204190E+04  0.13788204190E+04  0.00000000000E+00 0. -1.
         -2   -1    0    0    0  501 -0.00000000000E+00 -0.00000000000E+00 -0.27917850317E+03  0.27917850317E+03  0.00000000000E+00 0.  1.
         23    2    1    2    0    0  0.15996236563E+03 -0.12616637450E+02 -0.16553916186E+03  0.24824347442E+03  0.92056887424E+02 0.  0.
    5000000    2    1    2    0    0 -0.15996236563E+03  0.12616637450E+02  0.12651810777E+04  0.14097554478E+04  0.60081621582E+03 0.  0.
         23    2    4    4    0    0 -0.17612491217E+03 -0.83625136445E+02  0.12596352908E+04  0.12779046920E+04  0.91357471895E+02 0.  0.
         23    2    4    4    0    0  0.16162546538E+02  0.96241773895E+02  0.55457868640E+01  0.13185075581E+03  0.88488186240E+02 0.  0.
          5    1    3    3  502    0  0.10110272801E+03  0.32252836696E+02 -0.69658573802E+02  0.12702918558E+03  0.47000000000E+01 0. -1.
         -5    1    3    3    0  502  0.58859637624E+02 -0.44869474146E+02 -0.95880588059E+02  0.12121428884E+03  0.47000000000E+01 0.  1.
         11    1    5    5    0    0 -0.65273617831E+02  0.76153903508E+01  0.26852255449E+03  0.27644710457E+03  0.00000000000E+00 0. -1.
        -11    1    5    5    0    0 -0.11085129434E+03 -0.91240526796E+02  0.99111273636E+03  0.10014575874E+04  0.00000000000E+00 0.  1.
          2    1    6    6  503    0  0.23037358863E+02  0.73735576394E+02  0.42401854159E+02  0.88122485018E+02  0.00000000000E+00 0. -1.
         -2    1    6    6    0  503 -0.68748123255E+01  0.22506197501E+02 -0.36856067295E+02  0.43728270797E+02  0.00000000000E+00 0.  1.
<mgrwt>
<rscale>  0 0.24522943E+03</rscale>
<asrwt>0</asrwt>
<pdfrwt beam="1">  1        2 0.21212621E+00 0.24522943E+03</pdfrwt>
<pdfrwt beam="2">  1       -2 0.42950540E-01 0.24522943E+03</pdfrwt>
<totfact> 0.84078237E+01</totfact>
</mgrwt>
</event>
<event>
12    1  0.3203156E-008  0.1247263E+04  0.7818608E-02  0.9072465E-01
         -2   -1    0    0    0  501 -0.00000000000E+00  0.00000000000E+00  0.13366667786E+04  0.13366667786E+04  0.00000000000E+00 0.  1.
          2   -1    0    0  501    0  0.00000000000E+00 -0.00000000000E+00 -0.14197460800E+04  0.14197460800E+04  0.00000000000E+00 0. -1.
         23    2    1    2    0    0 -0.95322143472E+03 -0.78461966408E+03  0.40033345020E+03  0.13011081720E+04  0.91413801682E+02 0.  0.
    5000000    2    1    2    0    0  0.95322143472E+03  0.78461966408E+03 -0.48341275151E+03  0.14553046866E+04  0.59997060053E+03 0.  0.
         23    2    4    4    0    0  0.20691963501E+03  0.26507759176E+03  0.11056517659E+03  0.36546863963E+03  0.90888961219E+02 0.  0.
         23    2    4    4    0    0  0.74630179971E+03  0.51954207232E+03 -0.59397792811E+03  0.10898360469E+04  0.89679924911E+02 0.  0.
          5    1    3    3  502    0 -0.36038800852E+03 -0.25410760909E+03  0.17293597300E+03  0.47368674716E+03  0.47000000000E+01 0. -1.
         -5    1    3    3    0  502 -0.59283342620E+03 -0.53051205499E+03  0.22739747720E+03  0.82742142488E+03  0.47000000000E+01 0.  1.
         13    1    5    5    0    0  0.72725636258E+02  0.16554626099E+03  0.48182884034E+02  0.18712608853E+03  0.00000000000E+00 0.  1.
        -13    1    5    5    0    0  0.13419399875E+03  0.99531330776E+02  0.62382292559E+02  0.17834255110E+03  0.00000000000E+00 0. -1.
          3    1    6    6  503    0  0.91687177748E+02  0.49547327199E+02 -0.38619065562E+02  0.11114363869E+03  0.00000000000E+00 0. -1.
         -3    1    6    6    0  503  0.65461462196E+03  0.46999474512E+03 -0.55535886254E+03  0.97869240823E+03  0.00000000000E+00 0.  1.
<mgrwt>
<rscale>  0 0.12472625E+04</rscale>
<asrwt>0</asrwt>
<pdfrwt beam="1">  1        2 0.21842247E+00 0.12472625E+04</pdfrwt>
<pdfrwt beam="2">  1       -2 0.20564104E+00 0.12472625E+04</pdfrwt>
<totfact> 0.16629904E+00</totfact>
</mgrwt>
</event>
<event>
12    1  0.3203156E-008  0.7787869E+03  0.7818608E-02  0.9591240E-01
          1   -1    0    0  501    0  0.00000000000E+00  0.00000000000E+00  0.12966777530E+04  0.12966777530E+04  0.00000000000E+00 0. -1.
         -1   -1    0    0    0  501 -0.00000000000E+00 -0.00000000000E+00 -0.60048021871E+03  0.60048021871E+03  0.00000000000E+00 0.  1.
         23    2    1    2    0    0  0.42888583088E+03 -0.57199296020E+03  0.63756696564E+03  0.96201113885E+03  0.88627270915E+02 0.  0.
    5000000    2    1    2    0    0 -0.42888583088E+03  0.57199296020E+03  0.58630568631E+02  0.93514683285E+03  0.59995254226E+03 0.  0.
         23    2    4    4    0    0 -0.25947982195E+03  0.59893633803E+03  0.20665452959E+03  0.69056355747E+03  0.90096710764E+02 0.  0.
         23    2    4    4    0    0 -0.16940600893E+03 -0.26943377839E+02 -0.14802396096E+03  0.24458327538E+03  0.92117013122E+02 0.  0.
          5    1    3    3  502    0  0.34175381496E+03 -0.39003820571E+03  0.45963695991E+03  0.69297452830E+03  0.47000000000E+01 0. -1.
         -5    1    3    3    0  502  0.87132015920E+02 -0.18195475448E+03  0.17793000573E+03  0.26903661055E+03  0.47000000000E+01 0.  1.
         11    1    5    5    0    0 -0.14180740329E+03  0.22270140610E+03  0.67421986430E+02  0.27249033040E+03  0.00000000000E+00 0.  1.
        -11    1    5    5    0    0 -0.11767241867E+03  0.37623493193E+03  0.13923254316E+03  0.41807322707E+03  0.00000000000E+00 0. -1.
          2    1    6    6  503    0 -0.10670207451E+03  0.82952057444E+01 -0.38874729617E+02  0.11386565657E+03  0.00000000000E+00 0.  1.
         -2    1    6    6    0  503 -0.62703934414E+02 -0.35238583584E+02 -0.10914923134E+03  0.13071761881E+03  0.00000000000E+00 0. -1.
<mgrwt>
<rscale>  0 0.77878693E+03</rscale>
<asrwt>0</asrwt>
<pdfrwt beam="1">  1        1 0.19948888E+00 0.77878693E+03</pdfrwt>
<pdfrwt beam="2">  1       -1 0.92381572E-01 0.77878693E+03</pdfrwt>
<totfact> 0.10691967E+01</totfact>
</mgrwt>
</event>
<event>
12    1  0.3203156E-008  0.1793295E+04  0.7818608E-02  0.8709873E-01
         -1   -1    0    0    0  501 -0.00000000000E+00  0.00000000000E+00  0.13081007392E+04  0.13081007392E+04  0.00000000000E+00 0.  1.
          1   -1    0    0  501    0  0.00000000000E+00 -0.00000000000E+00 -0.28718273684E+04  0.28718273684E+04  0.00000000000E+00 0. -1.
         23    2    1    2    0    0  0.21018908746E+03  0.17553524022E+04 -0.40868008361E+02  0.17706549078E+04  0.90039434663E+02 0.  0.
    5000000    2    1    2    0    0 -0.21018908746E+03 -0.17553524022E+04 -0.15228586209E+04  0.24092731999E+04  0.60004788484E+03 0.  0.
         23    2    4    4    0    0 -0.11980092774E+03 -0.16417165440E+04 -0.15126725318E+04  0.22374639456E+04  0.92093682348E+02 0.  0.
         23    2    4    4    0    0 -0.90388159728E+02 -0.11363585820E+03 -0.10186089052E+02  0.17180925426E+03  0.91277246615E+02 0.  0.
          5    1    3    3  502    0  0.69641324069E+02  0.40185395706E+03  0.21551453184E+02  0.40843980212E+03  0.47000000000E+01 0. -1.
         -5    1    3    3    0  502  0.14054776339E+03  0.13534984452E+04 -0.62419461546E+02  0.13622151057E+04  0.47000000000E+01 0.  1.
         11    1    5    5    0    0 -0.73957686063E+02 -0.72443920429E+03 -0.72429869329E+03  0.10270786227E+04  0.00000000000E+00 0. -1.
        -11    1    5    5    0    0 -0.45843241672E+02 -0.91727733975E+03 -0.78837383851E+03  0.12103853230E+04  0.00000000000E+00 0.  1.
          2    1    6    6  503    0 -0.36580728923E+02  0.87527862574E+01 -0.56719956328E+01  0.38038566354E+02  0.00000000000E+00 0. -1.
         -2    1    6    6    0  503 -0.53807430806E+02 -0.12238864446E+03 -0.45140934195E+01  0.13377068790E+03  0.00000000000E+00 0.  1.
<mgrwt>
<rscale>  0 0.17932948E+04</rscale>
<asrwt>0</asrwt>
<pdfrwt beam="1">  1        1 0.44181959E+00 0.17932948E+04</pdfrwt>
<pdfrwt beam="2">  1       -1 0.20124627E+00 0.17932948E+04</pdfrwt>
<totfact> 0.99867165E-02</totfact>
</mgrwt>
</event>
<event>
12    1  0.3203156E-008  0.8534068E+03  0.7818608E-02  0.9485776E-01
         -2   -1    0    0    0  501 -0.00000000000E+00  0.00000000000E+00  0.63166810201E+03  0.63166810201E+03  0.00000000000E+00 0.  1.
          2   -1    0    0  501    0  0.00000000000E+00 -0.00000000000E+00 -0.13827704698E+04  0.13827704698E+04  0.00000000000E+00 0. -1.
         23    2    1    2    0    0  0.36869540025E+02 -0.78916242843E+03 -0.45571446312E+02  0.79695755293E+03  0.94487475487E+02 0.  0.
    5000000    2    1    2    0    0 -0.36869540025E+02  0.78916242843E+03 -0.70553092144E+03  0.12174810189E+04  0.60029113664E+03 0.  0.
         23    2    4    4    0    0 -0.20386764021E+03  0.18774916241E+03 -0.45129928470E+03  0.53732555850E+03  0.90752128029E+02 0.  0.
         23    2    4    4    0    0  0.16699810019E+03  0.60141326602E+03 -0.25423163674E+03  0.68015546035E+03  0.91604820308E+02 0.  0.
          5    1    3    3  502    0 -0.31158886447E+02 -0.31703063456E+03 -0.21635490356E+02  0.31932661007E+03  0.47000000000E+01 0. -1.
         -5    1    3    3    0  502  0.68028426471E+02 -0.47213179387E+03 -0.23935955955E+02  0.47763094286E+03  0.47000000000E+01 0.  1.
         11    1    5    5    0    0 -0.22015040984E+02  0.62207499284E+02 -0.14818105031E+03  0.16220992161E+03  0.00000000000E+00 0. -1.
        -11    1    5    5    0    0 -0.18185259923E+03  0.12554166312E+03 -0.30311823439E+03  0.37511563690E+03  0.00000000000E+00 0.  1.
          2    1    6    6  503    0  0.31486855870E+02  0.12605951392E+03 -0.14324942966E+02  0.13071965091E+03  0.00000000000E+00 0. -1.
         -2    1    6    6    0  503  0.13551124432E+03  0.47535375210E+03 -0.23990669378E+03  0.54943580944E+03  0.00000000000E+00 0.  1.
<mgrwt>
<rscale>  0 0.85340680E+03</rscale>
<asrwt>0</asrwt>
<pdfrwt beam="1">  1        2 0.21273392E+00 0.85340680E+03</pdfrwt>
<pdfrwt beam="2">  1       -2 0.97179708E-01 0.85340680E+03</pdfrwt>
<totfact> 0.13212309E+01</totfact>
</mgrwt>
</event>
<event>
12    1  0.3203156E-008  0.7216602E+03  0.7818608E-02  0.9680891E-01
          2   -1    0    0  501    0  0.00000000000E+00  0.00000000000E+00  0.23310529184E+03  0.23310529184E+03  0.00000000000E+00 0. -1.
         -2   -1    0    0    0  501 -0.00000000000E+00 -0.00000000000E+00 -0.24243312237E+04  0.24243312237E+04  0.00000000000E+00 0.  1.
         23    2    1    2    0    0 -0.46677283514E+03 -0.41485153121E+03 -0.10409365179E+04  0.12176416114E+04  0.95517469703E+02 0.  0.
    5000000    2    1    2    0    0  0.46677283514E+03  0.41485153121E+03 -0.11502894140E+04  0.14397949042E+04  0.59988745403E+03 0.  0.
         23    2    4    4    0    0  0.17283963093E+03 -0.11150446133E+03 -0.50680013790E+03  0.55428564553E+03  0.89885561388E+02 0.  0.
         23    2    4    4    0    0  0.29393320421E+03  0.52635599254E+03 -0.64348927611E+03  0.88550925864E+03  0.81245549076E+02 0.  0.
          5    1    3    3  502    0 -0.33884411886E+03 -0.24145957980E+03 -0.67463810743E+03  0.79263909288E+03  0.47000000000E+01 0. -1.
         -5    1    3    3    0  502 -0.12792871628E+03 -0.17339195141E+03 -0.36629841046E+03  0.42500251855E+03  0.47000000000E+01 0.  1.
         13    1    5    5    0    0  0.50230629317E+02 -0.49727070478E+02 -0.84152138096E+02  0.10989758872E+03  0.00000000000E+00 0.  1.
        -13    1    5    5    0    0  0.12260900162E+03 -0.61777390854E+02 -0.42264799980E+03  0.44438805681E+03  0.00000000000E+00 0. -1.
          2    1    6    6  503    0  0.17039098531E+03  0.27235647659E+03 -0.28788185522E+03  0.43137814129E+03  0.00000000000E+00 0. -1.
         -2    1    6    6    0  503  0.12354221890E+03  0.25399951595E+03 -0.35560742089E+03  0.45413111735E+03  0.00000000000E+00 0.  1.
<mgrwt>
<rscale>  0 0.72166016E+03</rscale>
<asrwt>0</asrwt>
<pdfrwt beam="1">  1        2 0.35862352E-01 0.72166016E+03</pdfrwt>
<pdfrwt beam="2">  1       -2 0.37297404E+00 0.72166016E+03</pdfrwt>
<totfact> 0.17159601E+00</totfact>
</mgrwt>
</event>
<event>
12    1  0.3203156E-008  0.4355316E+03  0.7818608E-02  0.1032127E+00
          2   -1    0    0  501    0  0.00000000000E+00  0.00000000000E+00  0.20830335105E+04  0.20830335105E+04  0.00000000000E+00 0. -1.
         -2   -1    0    0    0  501 -0.00000000000E+00 -0.00000000000E+00 -0.13977422590E+03  0.13977422590E+03  0.00000000000E+00 0.  1.
         23    2    1    2    0    0 -0.13264803902E+03 -0.27237348792E+03  0.10993996450E+04  0.11439854663E+04  0.90776364399E+02 0.  0.
    5000000    2    1    2    0    0  0.13264803902E+03  0.27237348792E+03  0.84385963951E+03  0.10788222701E+04  0.59997964970E+03 0.  0.
         23    2    4    4    0    0  0.30537171489E+03  0.16894649862E+03  0.76293045770E+03  0.84378021332E+03  0.90040887673E+02 0.  0.
         23    2    4    4    0    0 -0.17272367587E+03  0.10342698930E+03  0.80929181814E+02  0.23504205676E+03  0.90358318134E+02 0.  0.
          5    1    3    3  502    0 -0.43872942302E+02 -0.12736265773E+03  0.33942068560E+03  0.36520483768E+03  0.47000000000E+01 0. -1.
         -5    1    3    3    0  502 -0.88775096720E+02 -0.14501083019E+03  0.75997895945E+03  0.77878062860E+03  0.47000000000E+01 0.  1.
         13    1    5    5    0    0  0.18102399270E+03  0.13239004025E+03  0.40263729921E+03  0.46088350307E+03  0.00000000000E+00 0. -1.
        -13    1    5    5    0    0  0.12434772219E+03  0.36556458370E+02  0.36029315849E+03  0.38289671025E+03  0.00000000000E+00 0.  1.
          1    1    6    6  503    0 -0.73286252348E+02  0.67195215407E+01 -0.16509085925E+01  0.73612174619E+02  0.00000000000E+00 0. -1.
         -1    1    6    6    0  503 -0.99437423523E+02  0.96707467761E+02  0.82580090406E+02  0.16142988214E+03  0.00000000000E+00 0.  1.
<mgrwt>
<rscale>  0 0.43553157E+03</rscale>
<asrwt>0</asrwt>
<pdfrwt beam="1">  1        2 0.32046667E+00 0.43553157E+03</pdfrwt>
<pdfrwt beam="2">  1       -2 0.21503728E-01 0.43553157E+03</pdfrwt>
<totfact> 0.12087917E+02</totfact>
</mgrwt>
</event>
<event>
12    1  0.3203156E-008  0.3387853E+03  0.7818608E-02  0.1067314E+00
          1   -1    0    0  501    0  0.00000000000E+00  0.00000000000E+00  0.97246583974E+03  0.97246583974E+03  0.00000000000E+00 0. -1.
         -1   -1    0    0    0  501 -0.00000000000E+00 -0.00000000000E+00 -0.33911672230E+03  0.33911672230E+03  0.00000000000E+00 0.  1.
         23    2    1    2    0    0 -0.27139508385E+03  0.13653549269E+03  0.54897965180E+03  0.63374621654E+03  0.89209733699E+02 0.  0.
    5000000    2    1    2    0    0  0.27139508385E+03 -0.13653549269E+03  0.84369465635E+02  0.67783634550E+03  0.60003889228E+03 0.  0.
         23    2    4    4    0    0  0.15801202215E+03  0.25986596185E+02  0.31228509342E+03  0.36209877789E+03  0.89165256955E+02 0.  0.
         23    2    4    4    0    0  0.11338306170E+03 -0.16252208887E+03 -0.22791562779E+03  0.31573756762E+03  0.92062642601E+02 0.  0.
          5    1    3    3  502    0 -0.14019205689E+03  0.11919059826E+03  0.32827513650E+03  0.37636002282E+03  0.47000000000E+01 0. -1.
         -5    1    3    3    0  502 -0.13120302696E+03  0.17344894424E+02  0.22070451530E+03  0.25738619372E+03  0.47000000000E+01 0.  1.
         13    1    5    5    0    0  0.48651262319E+02  0.79082395460E+01  0.27365199667E+02  0.56376765877E+02  0.00000000000E+00 0. -1.
        -13    1    5    5    0    0  0.10936075983E+03  0.18078356639E+02  0.28491989375E+03  0.30572201201E+03  0.00000000000E+00 0.  1.
          4    1    6    6  503    0  0.70872473432E+02 -0.12743137836E+03 -0.21388045693E+03  0.25885616380E+03  0.00000000000E+00 0. -1.
         -4    1    6    6    0  503  0.42510588266E+02 -0.35090710518E+02 -0.14035170859E+02  0.56881403819E+02  0.00000000000E+00 0.  1.
<mgrwt>
<rscale>  0 0.33878533E+03</rscale>
<asrwt>0</asrwt>
<pdfrwt beam="1">  1        1 0.14961013E+00 0.33878533E+03</pdfrwt>
<pdfrwt beam="2">  1       -1 0.52171804E-01 0.33878533E+03</pdfrwt>
<totfact> 0.63618675E+01</totfact>
</mgrwt>
</event>
<event>
12    1  0.3203156E-008  0.6016354E+03  0.7818608E-02  0.9902019E-01
         -2   -1    0    0    0  501 -0.00000000000E+00  0.00000000000E+00  0.70556856825E+03  0.70556856825E+03  0.00000000000E+00 0.  1.
          2   -1    0    0  501    0  0.00000000000E+00 -0.00000000000E+00 -0.26254524323E+04  0.26254524323E+04  0.00000000000E+00 0. -1.
         23    2    1    2    0    0 -0.47461713737E+03  0.35064294188E+03 -0.23225544580E+04  0.23980544464E+04  0.90520813565E+02 0.  0.
    5000000    2    1    2    0    0  0.47461713737E+03 -0.35064294188E+03  0.40267059393E+03  0.93296655419E+03  0.60005923395E+03 0.  0.
         23    2    4    4    0    0  0.20828563920E+03 -0.16055854013E+03  0.50694060948E+03  0.57745346684E+03  0.85450409673E+02 0.  0.
         23    2    4    4    0    0  0.26633149817E+03 -0.19008440174E+03 -0.10427001556E+03  0.35551308735E+03  0.91938960370E+02 0.  0.
          5    1    3    3  502    0 -0.10892238762E+03  0.49375006557E+02 -0.58050466366E+03  0.59271387054E+03  0.47000000000E+01 0. -1.
         -5    1    3    3    0  502 -0.36569474975E+03  0.30126793532E+03 -0.17420497943E+04  0.18053405758E+04  0.47000000000E+01 0.  1.
         11    1    5    5    0    0  0.65622881724E+02 -0.10134064034E+03  0.19469333813E+03  0.22908903051E+03  0.00000000000E+00 0. -1.
        -11    1    5    5    0    0  0.14266275748E+03 -0.59217899793E+02  0.31224727135E+03  0.34836443632E+03  0.00000000000E+00 0.  1.
          4    1    6    6  503    0  0.12781988251E+03 -0.13381725520E+03 -0.26345884439E+02  0.18691999834E+03  0.00000000000E+00 0. -1.
         -4    1    6    6    0  503  0.13851161566E+03 -0.56267146548E+02 -0.77924131116E+02  0.16859308902E+03  0.00000000000E+00 0.  1.
<mgrwt>
<rscale>  0 0.60163543E+03</rscale>
<asrwt>0</asrwt>
<pdfrwt beam="1">  1        2 0.40391577E+00 0.60163543E+03</pdfrwt>
<pdfrwt beam="2">  1       -2 0.10854901E+00 0.60163543E+03</pdfrwt>
<totfact> 0.21749584E+00</totfact>
</mgrwt>
</event>
<event>
12    1  0.3203156E-008  0.9006253E+03  0.7818608E-02  0.9424800E-01
          3   -1    0    0  501    0  0.00000000000E+00  0.00000000000E+00  0.10706735042E+04  0.10706735042E+04  0.00000000000E+00 0. -1.
         -3   -1    0    0    0  501 -0.00000000000E+00 -0.00000000000E+00 -0.78559684703E+03  0.78559684703E+03  0.00000000000E+00 0.  1.
         23    2    1    2    0    0  0.35705385325E+03 -0.72469015392E+03  0.24623520415E+03  0.84947336422E+03  0.91158913207E+02 0.  0.
    5000000    2    1    2    0    0 -0.35705385325E+03  0.72469015392E+03  0.38841452998E+02  0.10067969870E+04  0.59955670393E+03 0.  0.
         23    2    4    4    0    0 -0.42951435263E+03  0.22781900125E+03 -0.15930381495E+01  0.49436332362E+03  0.89490119705E+02 0.  0.
         23    2    4    4    0    0  0.72460499380E+02  0.49687115267E+03  0.40434491148E+02  0.51243366337E+03  0.93924677001E+02 0.  0.
          5    1    3    3  502    0  0.12060436124E+03 -0.20011043081E+03  0.33979086759E+02  0.23614881919E+03  0.47000000000E+01 0. -1.
         -5    1    3    3    0  502  0.23644949201E+03 -0.52457972311E+03  0.21225611739E+03  0.61332454503E+03  0.47000000000E+01 0.  1.
         11    1    5    5    0    0 -0.27189448843E+03  0.15053966173E+03  0.41662324890E+02  0.31356745989E+03  0.00000000000E+00 0. -1.
        -11    1    5    5    0    0 -0.15761986420E+03  0.77279339522E+02 -0.43255363040E+02  0.18079586372E+03  0.00000000000E+00 0.  1.
          3    1    6    6  503    0  0.57324219866E+02  0.18766659845E+03 -0.19213391235E+02  0.19716483652E+03  0.00000000000E+00 0. -1.
         -3    1    6    6    0  503  0.15136279514E+02  0.30920455422E+03  0.59647882383E+02  0.31526882685E+03  0.00000000000E+00 0.  1.
<mgrwt>
<rscale>  0 0.90062532E+03</rscale>
<asrwt>0</asrwt>
<pdfrwt beam="1">  1        3 0.16471900E+00 0.90062532E+03</pdfrwt>
<pdfrwt beam="2">  1       -3 0.12086105E+00 0.90062532E+03</pdfrwt>
<totfact> 0.36015003E-01</totfact>
</mgrwt>
</event>
<event>
12    1  0.3203156E-008  0.6339070E+03  0.7818608E-02  0.9837454E-01
          2   -1    0    0  501    0  0.00000000000E+00  0.00000000000E+00  0.85124575663E+03  0.85124575663E+03  0.00000000000E+00 0.  1.
         -2   -1    0    0    0  501 -0.00000000000E+00 -0.00000000000E+00 -0.48704514448E+03  0.48704514448E+03  0.00000000000E+00 0. -1.
         23    2    1    2    0    0 -0.32150679820E+03 -0.38140319903E+03  0.12694902201E+03  0.52259775747E+03  0.90317995986E+02 0.  0.
    5000000    2    1    2    0    0  0.32150679820E+03  0.38140319903E+03  0.23725159014E+03  0.81569314365E+03  0.60019327391E+03 0.  0.
         23    2    4    4    0    0 -0.15410395296E+03  0.15181558579E+03  0.13624695873E+03  0.27035083786E+03  0.87922359835E+02 0.  0.
         23    2    4    4    0    0  0.47561075116E+03  0.22958761325E+03  0.10100463141E+03  0.54534230579E+03  0.90995802888E+02 0.  0.
          5    1    3    3  502    0 -0.19381228488E+03 -0.19952066462E+03  0.29043092011E+02  0.27970929297E+03  0.47000000000E+01 0. -1.
         -5    1    3    3    0  502 -0.12769451332E+03 -0.18188253441E+03  0.97905929997E+02  0.24288846450E+03  0.47000000000E+01 0.  1.
         11    1    5    5    0    0 -0.10543422013E+03  0.43563805696E+02  0.77530831864E+02  0.13793190288E+03  0.00000000000E+00 0. -1.
        -11    1    5    5    0    0 -0.48669732832E+02  0.10825178009E+03  0.58716126866E+02  0.13241893498E+03  0.00000000000E+00 0.  1.
          1    1    6    6  503    0  0.41543235020E+03  0.16700570104E+03  0.70177242793E+02  0.45321053296E+03  0.00000000000E+00 0. -1.
         -1    1    6    6    0  503  0.60178400959E+02  0.62581912205E+02  0.30827388615E+02  0.92131772836E+02  0.00000000000E+00 0.  1.
<mgrwt>
<rscale>  0 0.63390701E+03</rscale>
<asrwt>0</asrwt>
<pdfrwt beam="1">  1        2 0.13096089E+00 0.63390701E+03</pdfrwt>
<pdfrwt beam="2">  1       -2 0.74930022E-01 0.63390701E+03</pdfrwt>
<totfact> 0.51920730E+01</totfact>
</mgrwt>
</event>
<event>
12    1  0.3203156E-008  0.2607622E+04  0.7818608E-02  0.8365617E-01
          2   -1    0    0  501    0  0.00000000000E+00  0.00000000000E+00  0.37565200219E+04  0.37565200219E+04  0.00000000000E+00 0. -1.
         -2   -1    0    0    0  501 -0.00000000000E+00 -0.00000000000E+00 -0.18751408405E+04  0.18751408405E+04  0.00000000000E+00 0.  1.
         23    2    1    2    0    0 -0.18142040380E+04 -0.18398637623E+04  0.13854614349E+04  0.29330406311E+04  0.82395393583E+02 0.  0.
    5000000    2    1    2    0    0  0.18142040380E+04  0.18398637623E+04  0.49591774656E+03  0.26986202313E+04  0.60015146922E+03 0.  0.
         23    2    4    4    0    0  0.66138274519E+03  0.36250953099E+03  0.28244754052E+03  0.81039892215E+03  0.90163763120E+02 0.  0.
         23    2    4    4    0    0  0.11528212928E+04  0.14773542313E+04  0.21347020604E+03  0.18882213091E+04  0.90761916368E+02 0.  0.
          5    1    3    3  502    0 -0.52658881743E+03 -0.48203400646E+03  0.38398717927E+03  0.81062988464E+03  0.47000000000E+01 0. -1.
         -5    1    3    3    0  502 -0.12876152206E+04 -0.13578297558E+04  0.10014742557E+04  0.21224107465E+04  0.47000000000E+01 0.  1.
         11    1    5    5    0    0  0.32407021718E+03  0.17993522436E+03  0.18688808641E+03  0.41512088296E+03  0.00000000000E+00 0.  1.
        -11    1    5    5    0    0  0.33731252801E+03  0.18257430663E+03  0.95559454110E+02  0.39527803919E+03  0.00000000000E+00 0. -1.
          1    1    6    6  503    0  0.81857615707E+03  0.98505235137E+03  0.16118202930E+03  0.12908813681E+04  0.00000000000E+00 0. -1.
         -1    1    6    6    0  503  0.33424513573E+03  0.49230187994E+03  0.52288176746E+02  0.59733994106E+03  0.00000000000E+00 0.  1.
<mgrwt>
<rscale>  0 0.26076219E+04</rscale>
<asrwt>0</asrwt>
<pdfrwt beam="1">  1        2 0.57792616E+00 0.26076219E+04</pdfrwt>
<pdfrwt beam="2">  1       -2 0.28848321E+00 0.26076219E+04</pdfrwt>
<totfact> 0.16483677E-02</totfact>
</mgrwt>
</event>
<event>
12    1  0.3203156E-008  0.5061703E+03  0.7818608E-02  0.1012181E+00
          2   -1    0    0  501    0  0.00000000000E+00  0.00000000000E+00  0.70743398928E+03  0.70743398928E+03  0.00000000000E+00 0. -1.
         -2   -1    0    0    0  501 -0.00000000000E+00 -0.00000000000E+00 -0.95069381623E+03  0.95069381623E+03  0.00000000000E+00 0.  1.
         23    2    1    2    0    0 -0.36275860279E+03  0.29589716871E+03  0.42977583750E+03  0.64218471339E+03  0.92439154405E+02 0.  0.
    5000000    2    1    2    0    0  0.36275860279E+03 -0.29589716871E+03 -0.67303566446E+03  0.10159430921E+04  0.60001201858E+03 0.  0.
         23    2    4    4    0    0  0.29613081715E+03 -0.97227302344E+02 -0.71313599532E+03  0.78359151057E+03  0.91137799181E+02 0.  0.
         23    2    4    4    0    0  0.66627785639E+02 -0.19866986637E+03  0.40100330856E+02  0.23235158155E+03  0.92033924671E+02 0.  0.
          5    1    3    3  502    0 -0.12900740104E+03  0.73954091443E+02  0.90302308398E+02  0.17403653084E+03  0.47000000000E+01 0. -1.
         -5    1    3    3    0  502 -0.23375120174E+03  0.22194307727E+03  0.33947352910E+03  0.46814818255E+03  0.47000000000E+01 0.  1.
         13    1    5    5    0    0  0.56757505541E+02 -0.29578928374E+02 -0.24792211505E+03  0.25605019541E+03  0.00000000000E+00 0.  1.
        -13    1    5    5    0    0  0.23937331161E+03 -0.67648373970E+02 -0.46521388027E+03  0.52754131516E+03  0.00000000000E+00 0. -1.
          2    1    6    6  503    0  0.60340034833E+02 -0.46581289517E+02  0.67818692831E+01  0.76529276018E+02  0.00000000000E+00 0. -1.
         -2    1    6    6    0  503  0.62877508059E+01 -0.15208857685E+03  0.33318461572E+02  0.15582230553E+03  0.00000000000E+00 0.  1.
<mgrwt>
<rscale>  0 0.50617026E+03</rscale>
<asrwt>0</asrwt>
<pdfrwt beam="1">  1        2 0.10883600E+00 0.50617026E+03</pdfrwt>
<pdfrwt beam="2">  1       -2 0.14626059E+00 0.50617026E+03</pdfrwt>
<totfact> 0.13552439E+01</totfact>
</mgrwt>
</event>
<event>
12    1  0.3203156E-008  0.6058266E+03  0.7818608E-02  0.9893391E-01
         -1   -1    0    0    0  501 -0.00000000000E+00  0.00000000000E+00  0.80388639499E+03  0.80388639499E+03  0.00000000000E+00 0.  1.
          1   -1    0    0  501    0  0.00000000000E+00 -0.00000000000E+00 -0.11225140607E+04  0.11225140607E+04  0.00000000000E+00 0. -1.
         23    2    1    2    0    0 -0.35991087700E+03  0.47912080328E+03 -0.75864566737E+03  0.97110291616E+03  0.91679014054E+02 0.  0.
    5000000    2    1    2    0    0  0.35991087700E+03 -0.47912080328E+03  0.44001800165E+03  0.95529753955E+03  0.59990412882E+03 0.  0.
         23    2    4    4    0    0  0.19447408161E+03 -0.26684002618E+03 -0.90312368966E+02  0.35379628635E+03  0.89396421936E+02 0.  0.
         23    2    4    4    0    0  0.16543679539E+03 -0.21228077710E+03  0.53033037062E+03  0.60150125320E+03  0.90116557915E+02 0.  0.
          5    1    3    3  502    0 -0.32914210098E+03  0.40550695345E+03 -0.61624071163E+03  0.80780264706E+03  0.47000000000E+01 0. -1.
         -5    1    3    3    0  502 -0.30768776026E+02  0.73613849831E+02 -0.14240495574E+03  0.16330026909E+03  0.47000000000E+01 0.  1.
         13    1    5    5    0    0  0.78709553024E+02 -0.69703624375E+02 -0.65426415011E+02  0.12383216371E+03  0.00000000000E+00 0. -1.
        -13    1    5    5    0    0  0.11576452859E+03 -0.19713640181E+03 -0.24885953956E+02  0.22996412264E+03  0.00000000000E+00 0.  1.
          3    1    6    6  503    0  0.16472772021E+02 -0.14995736993E+00  0.81933423111E+02  0.83573084950E+02  0.00000000000E+00 0. -1.
         -3    1    6    6    0  503  0.14896402337E+03 -0.21213081973E+03  0.44839694750E+03  0.51792816825E+03  0.00000000000E+00 0.  1.
<mgrwt>
<rscale>  0 0.60582657E+03</rscale>
<asrwt>0</asrwt>
<pdfrwt beam="1">  1        1 0.17269447E+00 0.60582657E+03</pdfrwt>
<pdfrwt beam="2">  1       -1 0.12367483E+00 0.60582657E+03</pdfrwt>
<totfact> 0.74320423E+00</totfact>
</mgrwt>
</event>
<event>
12    1  0.3203156E-008  0.9007765E+03  0.7818608E-02  0.9424611E-01
          2   -1    0    0  501    0  0.00000000000E+00  0.00000000000E+00  0.18035449865E+04  0.18035449865E+04  0.00000000000E+00 0. -1.
         -2   -1    0    0    0  501 -0.00000000000E+00 -0.00000000000E+00 -0.51413461494E+03  0.51413461494E+03  0.00000000000E+00 0.  1.
         23    2    1    2    0    0  0.23360982670E+03  0.82664703096E+03  0.44180803116E+03  0.96995068801E+03  0.87699121178E+02 0.  0.
    5000000    2    1    2    0    0 -0.23360982670E+03 -0.82664703096E+03  0.84760234036E+03  0.13477289134E+04  0.60002052603E+03 0.  0.
         23    2    4    4    0    0 -0.30940452299E+03 -0.74272440228E+03  0.88378142251E+03  0.11987383439E+04  0.92375959232E+02 0.  0.
         23    2    4    4    0    0  0.75794696287E+02 -0.83922628686E+02 -0.36179082148E+02  0.14899056946E+03  0.90007889723E+02 0.  0.
          5    1    3    3  502    0  0.19846487972E+03  0.56922460060E+03  0.32754650350E+03  0.68608582289E+03  0.47000000000E+01 0.  1.
         -5    1    3    3    0  502  0.35144946980E+02  0.25742243036E+03  0.11426152766E+03  0.28386486513E+03  0.47000000000E+01 0. -1.
         11    1    5    5    0    0 -0.20059267205E+03 -0.36505037387E+03  0.43812622828E+03  0.60452773920E+03  0.00000000000E+00 0.  1.
        -11    1    5    5    0    0 -0.10881185093E+03 -0.37767402840E+03  0.44565519423E+03  0.59421060473E+03  0.00000000000E+00 0. -1.
          1    1    6    6  503    0  0.83960552507E+02 -0.86667371403E+02 -0.95981471397E+01  0.12104846993E+03  0.00000000000E+00 0. -1.
         -1    1    6    6    0  503 -0.81658562206E+01  0.27447427177E+01 -0.26580935008E+02  0.27942099533E+02  0.00000000000E+00 0.  1.
<mgrwt>
<rscale>  0 0.90077653E+03</rscale>
<asrwt>0</asrwt>
<pdfrwt beam="1">  1        2 0.27746846E+00 0.90077653E+03</pdfrwt>
<pdfrwt beam="2">  1       -2 0.79097634E-01 0.90077653E+03</pdfrwt>
<totfact> 0.12312772E+01</totfact>
</mgrwt>
</event>
<event>
12    1  0.3203156E-008  0.6970813E+03  0.7818608E-02  0.9722237E-01
         -1   -1    0    0    0  501 -0.00000000000E+00  0.00000000000E+00  0.78571257248E+03  0.78571257248E+03  0.00000000000E+00 0.  1.
          1   -1    0    0  501    0  0.00000000000E+00 -0.00000000000E+00 -0.11107584431E+04  0.11107584431E+04  0.00000000000E+00 0. -1.
         23    2    1    2    0    0 -0.13553100107E+03 -0.63895856061E+03 -0.67441713299E+03  0.94321593141E+03  0.90449596872E+02 0.  0.
    5000000    2    1    2    0    0  0.13553100107E+03  0.63895856061E+03  0.34937126239E+03  0.95325508414E+03  0.59999856836E+03 0.  0.
         23    2    4    4    0    0  0.25135162373E+03  0.42336060946E+03  0.45092317887E+03  0.67367350151E+03  0.89957929089E+02 0.  0.
         23    2    4    4    0    0 -0.11582062266E+03  0.21559795115E+03 -0.10155191648E+03  0.27958158263E+03  0.89197401485E+02 0.  0.
          5    1    3    3  502    0 -0.10550962489E+03 -0.37321738251E+03 -0.44978173204E+03  0.59392692482E+03  0.47000000000E+01 0. -1.
         -5    1    3    3    0  502 -0.30021376179E+02 -0.26574117810E+03 -0.22463540095E+03  0.34928900659E+03  0.47000000000E+01 0.  1.
         13    1    5    5    0    0  0.96729311636E+02  0.14677466541E+03  0.10588885681E+03  0.20521162767E+03  0.00000000000E+00 0. -1.
        -13    1    5    5    0    0  0.15462231209E+03  0.27658594405E+03  0.34503432206E+03  0.46846187384E+03  0.00000000000E+00 0.  1.
          4    1    6    6  503    0 -0.56028954729E+02  0.13184921371E+03 -0.13045453591E+02  0.14385285115E+03  0.00000000000E+00 0. -1.
         -4    1    6    6    0  503 -0.59791667934E+02  0.83748737439E+02 -0.88506462886E+02  0.13572873148E+03  0.00000000000E+00 0.  1.
<mgrwt>
<rscale>  0 0.69708131E+03</rscale>
<asrwt>0</asrwt>
<pdfrwt beam="1">  1        1 0.17088591E+00 0.69708131E+03</pdfrwt>
<pdfrwt beam="2">  1       -1 0.12087886E+00 0.69708131E+03</pdfrwt>
<totfact> 0.78947830E+00</totfact>
</mgrwt>
</event>
<event>
12    1  0.3203156E-008  0.9656573E+03  0.7818608E-02  0.9347034E-01
         -2   -1    0    0    0  501 -0.00000000000E+00  0.00000000000E+00  0.13534204622E+04  0.13534204622E+04  0.00000000000E+00 0.  1.
          2   -1    0    0  501    0  0.00000000000E+00 -0.00000000000E+00 -0.74862494811E+03  0.74862494811E+03  0.00000000000E+00 0. -1.
         23    2    1    2    0    0 -0.47685100948E+03  0.77332028715E+03  0.38660801447E+03  0.99163332543E+03  0.91976863861E+02 0.  0.
    5000000    2    1    2    0    0  0.47685100948E+03 -0.77332028715E+03  0.21818749960E+03  0.11104120849E+04  0.59999838454E+03 0.  0.
         23    2    4    4    0    0  0.10426494635E+03  0.47154287018E+02  0.13671121802E+03  0.20100023528E+03  0.92824736076E+02 0.  0.
         23    2    4    4    0    0  0.37258606314E+03 -0.82047457417E+03  0.81476281574E+02  0.90941184958E+03  0.91611278761E+02 0.  0.
          5    1    3    3  502    0 -0.30299701881E+03  0.55377845732E+03  0.23865614236E+03  0.67487526069E+03  0.47000000000E+01 0. -1.
         -5    1    3    3    0  502 -0.17385399068E+03  0.21954182982E+03  0.14795187212E+03  0.31675806474E+03  0.47000000000E+01 0.  1.
         13    1    5    5    0    0  0.44544488492E+02  0.17062052025E+02 -0.12163706537E+01  0.47715874003E+02  0.00000000000E+00 0. -1.
        -13    1    5    5    0    0  0.59720457853E+02  0.30092234993E+02  0.13792758868E+03  0.15328436127E+03  0.00000000000E+00 0.  1.
          1    1    6    6  503    0  0.28464309389E+03 -0.52617805526E+03  0.41612102155E+02  0.59968041804E+03  0.00000000000E+00 0. -1.
         -1    1    6    6    0  503  0.87942969244E+02 -0.29429651891E+03  0.39864179418E+02  0.30973143154E+03  0.00000000000E+00 0.  1.
<mgrwt>
<rscale>  0 0.96565733E+03</rscale>
<asrwt>0</asrwt>
<pdfrwt beam="1">  1        2 0.11517307E+00 0.96565733E+03</pdfrwt>
<pdfrwt beam="2">  1       -2 0.20821853E+00 0.96565733E+03</pdfrwt>
<totfact> 0.44071940E+00</totfact>
</mgrwt>
</event>
